Protein in INSANE! Membrane UpperLeaflet>POPC=1.0 LowerLeaflet>POPC=1.0
241402
    1AU     AUC    1   6.567  16.805   7.500
    1AU     AUC    2   6.851  16.812   7.328
    1AU     AUC    3   6.829  16.787   7.677
    1AU     AUC    4   6.285  16.798   7.332
    1AU     AUC    5   6.298  16.839   7.683
    1AU     AUC    6   6.399  17.088   7.493
    1AU     AUC    7   6.755  17.081   7.488
    1AU     AUC    8   6.377  16.537   7.506
    1AU     AUC    9   6.728  16.511   7.502
    1AU     AUC   10   6.562  16.627   7.778
    1AU     AUC   11   6.563  16.994   7.761
    1AU     AUC   12   6.568  16.639   7.224
    1AU     AUC   13   6.590  16.960   7.220
    1AU     AUC   14   7.170  16.815   7.169
    1AU     AUC   15   7.172  16.766   7.527
    1AU     AUC   16   7.113  16.754   7.875
    1AU     AUC   17   5.982  16.790   7.162
    1AU     AUC   18   5.961  16.830   7.528
    1AU     AUC   19   6.011  16.873   7.868
    1AU     AUC   20   6.238  17.389   7.465
    1AU     AUC   21   6.604  17.414   7.448
    1AU     AUC   22   6.944  17.357   7.480
    1AU     AUC   23   6.179  16.265   7.508
    1AU     AUC   24   6.527  16.204   7.493
    1AU     AUC   25   6.889  16.205   7.488
    1AU     AUC   26   6.539  16.447   8.070
    1AU     AUC   27   6.561  16.814   8.097
    1AU     AUC   28   6.592  17.173   8.050
    1AU     AUC   29   6.600  16.468   6.945
    1AU     AUC   30   6.594  16.795   6.886
    1AU     AUC   31   6.576  17.111   6.926
    1AU     AUC   32   6.825  16.574   7.998
    1AU     AUC   33   6.872  16.958   7.989
    1AU     AUC   34   6.915  16.660   7.003
    1AU     AUC   35   6.908  16.986   7.037
    1AU     AUC   36   6.259  16.681   8.014
    1AU     AUC   37   6.287  17.055   7.987
    1AU     AUC   38   6.273  16.618   7.036
    1AU     AUC   39   6.251  16.929   6.992
    1AU     AUC   40   7.109  17.087   7.352
    1AU     AUC   41   7.044  17.056   7.698
    1AU     AUC   42   6.076  17.096   7.324
    1AU     AUC   43   6.099  17.156   7.678
    1AU     AUC   44   7.045  16.494   7.336
    1AU     AUC   45   7.001  16.442   7.692
    1AU     AUC   46   6.045  16.503   7.354
    1AU     AUC   47   6.097  16.555   7.715
    1AU     AUC   48   6.420  17.334   7.753
    1AU     AUC   49   6.764  17.288   7.771
    1AU     AUC   50   6.364  16.329   7.805
    1AU     AUC   51   6.680  16.271   7.778
    1AU     AUC   52   6.389  17.237   7.180
    1AU     AUC   53   6.775  17.275   7.192
    1AU     AUC   54   6.372  16.337   7.205
    1AU     AUC   55   6.768  16.349   7.207
    1AU    AUSL   56   7.089  16.693   8.237
    1AU    AUSL   57   6.806  16.283   8.159
    1AU     AUL   58   7.102  16.288   8.372
    1AU       S   59   7.183  15.919   8.119
    1AU     LIG   60   7.067  15.762   8.498
    1AU     LIG   61   7.205  15.394   8.734
    1AU     LIG   62   7.455  15.055   8.944
    1AU     LIG   63   7.801  14.845   9.182
    1AU     LIG   64   8.121  14.541   9.302
    1AU       S   65   7.310  16.689   8.362
    1AU     LIG   66   7.188  16.692   8.803
    1AU     LIG   67   7.373  16.602   9.241
    1AU     LIG   68   7.710  16.594   9.605
    1AU     LIG   69   8.073  16.737   9.914
    1AU     LIG   70   8.381  16.754  10.290
    1AU    AUSL   71   6.686  16.617   8.403
    1AU    AUSL   72   6.436  17.004   8.421
    1AU     AUL   73   6.629  16.927   8.741
    1AU       S   74   6.769  16.540   8.553
    1AU     LIG   75   6.746  16.479   8.979
    1AU     LIG   76   6.984  16.254   9.309
    1AU     LIG   77   7.175  16.047   9.691
    1AU     LIG   78   7.252  15.971  10.150
    1AU     LIG   79   7.361  16.085  10.592
    1AU       S   80   6.225  16.743   8.634
    1AU     LIG   81   6.282  16.740   9.100
    1AU     LIG   82   6.026  16.689   9.489
    1AU     LIG   83   5.745  16.723   9.868
    1AU     LIG   84   5.619  16.937  10.273
    1AU     LIG   85   5.638  17.305  10.591
    1AU    AUSL   86   6.759  16.985   8.161
    1AU    AUSL   87   7.199  17.086   8.106
    1AU     AUL   88   6.983  17.000   8.448
    1AU       S   89   6.656  17.378   8.579
    1AU     LIG   90   6.993  17.271   8.889
    1AU     LIG   91   7.158  17.419   9.324
    1AU     LIG   92   7.091  17.581   9.796
    1AU     LIG   93   7.149  17.695  10.270
    1AU     LIG   94   7.141  17.599  10.743
    1AU       S   95   7.361  17.221   8.293
    1AU     LIG   96   7.781  17.236   8.301
    1AU     LIG   97   8.045  17.413   8.650
    1AU     LIG   98   8.295  17.600   9.005
    1AU     LIG   99   8.493  17.703   9.428
    1AU     LIG  100   8.688  17.896   9.824
    1AU    AUSL  101   7.136  16.937   6.775
    1AU    AUSL  102   6.921  17.274   6.960
    1AU     AUL  103   7.042  17.313   6.628
    1AU       S  104   7.103  16.982   6.319
    1AU     LIG  105   7.468  16.803   6.132
    1AU     LIG  106   7.500  16.544   5.761
    1AU     LIG  107   7.600  16.427   5.323
    1AU     LIG  108   7.954  16.385   4.997
    1AU     LIG  109   8.349  16.254   4.743
    1AU       S  110   7.363  17.514   6.885
    1AU     LIG  111   7.431  17.693   6.486
    1AU     LIG  112   7.615  17.882   6.084
    1AU     LIG  113   7.793  17.915   5.643
    1AU     LIG  114   7.952  18.135   5.252
    1AU     LIG  115   8.128  18.522   5.037
    1AU    AUSL  116   6.906  16.609   6.609
    1AU    AUSL  117   7.263  16.564   6.941
    1AU     AUL  118   7.319  16.691   6.624
    1AU       S  119   7.432  16.247   6.727
    1AU     LIG  120   7.534  15.875   6.424
    1AU     LIG  121   7.715  15.441   6.324
    1AU     LIG  122   7.950  15.106   6.072
    1AU     LIG  123   8.248  15.003   5.724
    1AU     LIG  124   8.671  15.064   5.504
    1AU       S  125   6.998  16.844   6.311
    1AU     LIG  126   7.066  16.461   6.092
    1AU     LIG  127   7.100  16.243   5.651
    1AU     LIG  128   7.137  16.222   5.166
    1AU     LIG  129   7.152  15.991   4.735
    1AU     LIG  130   7.197  15.994   4.257
    1AU    AUSL  131   6.713  16.981   6.725
    1AU    AUSL  132   6.486  16.594   6.716
    1AU     AUL  133   6.639  16.598   6.442
    1AU       S  134   6.191  16.632   6.295
    1AU     LIG  135   6.299  16.392   5.975
    1AU     LIG  136   6.015  16.210   5.660
    1AU     LIG  137   5.764  16.199   5.262
    1AU     LIG  138   5.739  15.940   4.864
    1AU     LIG  139   5.783  15.949   4.392
    1AU       S  140   6.769  17.043   6.365
    1AU     LIG  141   6.703  16.812   5.928
    1AU     LIG  142   7.040  16.743   5.569
    1AU     LIG  143   7.230  16.738   5.119
    1AU     LIG  144   7.182  16.877   4.658
    1AU     LIG  145   7.205  17.042   4.207
    1AU    AUSL  146   6.038  16.949   8.247
    1AU    AUSL  147   6.329  17.298   8.134
    1AU     AUL  148   6.188  17.235   8.469
    1AU       S  149   6.031  16.828   8.668
    1AU     LIG  150   5.821  16.533   8.927
    1AU     LIG  151   5.575  16.482   9.338
    1AU     LIG  152   5.326  16.435   9.753
    1AU     LIG  153   5.053  16.553  10.129
    1AU     LIG  154   4.739  16.808  10.382
    1AU       S  155   5.937  17.554   8.210
    1AU     LIG  156   5.979  17.677   8.619
    1AU     LIG  157   5.769  17.849   8.983
    1AU     LIG  158   5.651  18.182   9.272
    1AU     LIG  159   5.538  18.543   9.547
    1AU     LIG  160   5.453  18.725   9.981
    1AU    AUSL  161   6.338  16.661   8.167
    1AU    AUSL  162   5.921  16.536   8.135
    1AU     AUL  163   5.817  16.771   8.266
    1AU       S  164   5.830  16.323   8.405
    1AU     LIG  165   5.392  16.288   8.237
    1AU     LIG  166   5.100  15.934   8.278
    1AU     LIG  167   4.893  15.652   8.594
    1AU     LIG  168   4.653  15.370   8.889
    1AU     LIG  169   4.458  15.139   9.253
    1AU       S  170   6.219  16.605   8.546
    1AU     LIG  171   6.278  16.290   8.875
    1AU     LIG  172   6.052  16.220   9.280
    1AU     LIG  173   5.830  16.236   9.707
    1AU     LIG  174   5.637  16.274  10.141
    1AU     LIG  175   5.700  16.133  10.592
    1AU    AUSL  176   6.075  16.704   6.767
    1AU    AUSL  177   6.250  16.332   6.946
    1AU     AUL  178   6.287  16.317   6.618
    1AU       S  179   5.974  16.610   6.437
    1AU     LIG  180   5.773  16.405   6.086
    1AU     LIG  181   5.568  16.484   5.669
    1AU     LIG  182   5.335  16.539   5.257
    1AU     LIG  183   4.942  16.588   4.971
    1AU     LIG  184   4.700  16.620   4.557
    1AU       S  185   5.861  16.199   6.756
    1AU     LIG  186   5.647  15.778   6.664
    1AU     LIG  187   5.319  15.567   6.448
    1AU     LIG  188   5.143  15.283   6.141
    1AU     LIG  189   4.987  15.025   5.795
    1AU     LIG  190   5.181  14.793   5.417
    1AU    AUSL  191   6.331  16.996   6.563
    1AU    AUSL  192   5.857  17.041   6.916
    1AU     AUL  193   5.976  17.044   6.586
    1AU       S  194   5.573  17.235   6.743
    1AU     LIG  195   5.346  17.546   6.448
    1AU     LIG  196   5.348  17.741   6.022
    1AU     LIG  197   5.221  17.724   5.561
    1AU     LIG  198   4.883  17.803   5.242
    1AU     LIG  199   4.436  17.928   5.168
    1AU       S  200   6.276  16.862   6.273
    1AU     LIG  201   6.014  16.810   5.865
    1AU     LIG  202   5.979  16.666   5.422
    1AU     LIG  203   5.771  16.684   5.007
    1AU     LIG  204   5.595  16.987   4.675
    1AU     LIG  205   5.520  17.301   4.318
    1AU    AUSL  206   7.371  17.271   7.539
    1AU    AUSL  207   7.288  17.104   7.133
    1AU     AUL  208   7.631  17.388   7.321
    1AU       S  209   7.412  17.273   6.942
    1AU     LIG  210   7.539  17.180   6.524
    1AU     LIG  211   7.832  17.440   6.255
    1AU     LIG  212   8.120  17.751   6.030
    1AU     LIG  213   8.479  17.822   5.720
    1AU     LIG  214   8.928  17.847   5.549
    1AU       S  215   7.755  17.132   7.702
    1AU     LIG  216   8.176  17.292   7.578
    1AU     LIG  217   8.641  17.420   7.500
    1AU     LIG  218   9.089  17.576   7.456
    1AU     LIG  219   9.384  17.926   7.592
    1AU     LIG  220   9.480  18.411   7.629
    1AU    AUSL  221   7.536  16.868   7.381
    1AU    AUSL  222   7.469  16.534   7.720
    1AU     AUL  223   7.815  16.585   7.626
    1AU       S  224   7.678  16.946   7.411
    1AU     LIG  225   8.120  16.857   7.326
    1AU     LIG  226   8.592  16.949   7.311
    1AU     LIG  227   9.049  17.101   7.234
    1AU     LIG  228   9.457  17.157   6.979
    1AU     LIG  229   9.935  17.161   7.054
    1AU       S  230   7.689  16.125   7.702
    1AU     LIG  231   8.088  15.944   7.788
    1AU     LIG  232   8.535  15.810   7.761
    1AU     LIG  233   8.986  15.657   7.767
    1AU     LIG  234   9.451  15.654   7.936
    1AU     LIG  235   9.907  15.484   7.862
    1AU    AUSL  236   7.273  16.907   7.738
    1AU    AUSL  237   7.025  17.319   7.781
    1AU     AUL  238   7.361  17.343   7.842
    1AU       S  239   7.341  17.531   8.260
    1AU     LIG  240   7.708  17.745   8.441
    1AU     LIG  241   8.032  17.953   8.718
    1AU     LIG  242   8.229  18.322   8.938
    1AU     LIG  243   8.469  18.736   8.903
    1AU     LIG  244   8.602  19.174   8.796
    1AU       S  245   7.614  16.954   7.860
    1AU     LIG  246   8.101  16.905   7.954
    1AU     LIG  247   8.552  17.015   7.823
    1AU     LIG  248   9.016  17.147   7.752
    1AU     LIG  249   9.387  17.431   7.854
    1AU     LIG  250   9.847  17.484   7.954
    1AU    AUSL  251   5.916  17.375   7.511
    1AU    AUSL  252   5.979  17.180   7.904
    1AU     AUL  253   5.679  17.484   7.747
    1AU       S  254   5.824  17.346   8.162
    1AU     LIG  255   5.693  17.223   8.574
    1AU     LIG  256   5.474  17.417   8.960
    1AU     LIG  257   5.146  17.586   9.284
    1AU     LIG  258   4.750  17.696   9.557
    1AU     LIG  259   4.345  17.940   9.644
    1AU       S  260   5.915  17.754   7.434
    1AU     LIG  261   5.448  17.699   7.348
    1AU     LIG  262   5.004  17.817   7.440
    1AU     LIG  263   4.668  18.158   7.518
    1AU     LIG  264   4.280  18.443   7.548
    1AU     LIG  265   3.862  18.668   7.534
    1AU    AUSL  266   5.863  16.983   7.326
    1AU    AUSL  267   5.977  17.417   7.097
    1AU     AUL  268   5.677  17.287   7.204
    1AU       S  269   5.474  16.802   6.986
    1AU     LIG  270   5.186  17.204   7.086
    1AU     LIG  271   4.748  17.425   7.074
    1AU     LIG  272   4.245  17.449   7.012
    1AU     LIG  273   3.753  17.479   6.943
    1AU     LIG  274   3.284  17.417   7.021
    1AU       S  275   5.813  17.669   6.941
    1AU     LIG  276   5.632  17.966   6.622
    1AU     LIG  277   5.553  18.199   6.216
    1AU     LIG  278   5.360  18.511   5.906
    1AU     LIG  279   5.268  18.987   5.910
    1AU     LIG  280   5.178  19.463   5.925
    1AU    AUSL  281   5.650  17.029   7.702
    1AU    AUSL  282   5.618  16.653   7.403
    1AU     AUL  283   5.455  16.959   7.435
    1AU       S  284   5.413  16.551   7.686
    1AU     LIG  285   5.002  16.406   7.431
    1AU     LIG  286   4.573  16.166   7.463
    1AU     LIG  287   4.120  16.119   7.280
    1AU     LIG  288   3.633  16.088   7.159
    1AU     LIG  289   3.173  16.101   6.966
    1AU       S  290   5.498  17.064   7.923
    1AU     LIG  291   5.183  17.330   7.677
    1AU     LIG  292   4.737  17.530   7.775
    1AU     LIG  293   4.298  17.744   7.900
    1AU     LIG  294   3.846  17.916   8.027
    1AU     LIG  295   3.368  17.962   8.106
    1AU    AUSL  296   7.235  16.209   7.551
    1AU    AUSL  297   7.084  16.467   7.885
    1AU     AUL  298   7.388  16.361   7.966
    1AU       S  299   7.417  16.051   7.536
    1AU     LIG  300   7.710  15.677   7.396
    1AU     LIG  301   8.168  15.544   7.461
    1AU     LIG  302   8.617  15.368   7.505
    1AU     LIG  303   9.061  15.184   7.540
    1AU     LIG  304   9.496  15.190   7.732
    1AU       S  305   7.299  15.916   7.987
    1AU     LIG  306   7.529  15.613   8.292
    1AU     LIG  307   7.723  15.363   8.627
    1AU     LIG  308   8.043  15.096   8.811
    1AU     LIG  309   8.337  14.976   9.142
    1AU     LIG  310   8.691  15.052   9.446
    1AU    AUSL  311   7.230  16.589   7.356
    1AU    AUSL  312   7.180  16.180   7.132
    1AU     AUL  313   7.471  16.407   7.199
    1AU       S  314   7.694  16.149   7.487
    1AU     LIG  315   8.097  16.040   7.285
    1AU     LIG  316   8.537  15.836   7.247
    1AU     LIG  317   8.944  15.596   7.173
    1AU     LIG  318   9.359  15.574   6.916
    1AU     LIG  319   9.806  15.389   6.872
    1AU       S  320   7.385  16.032   6.899
    1AU     LIG  321   7.396  15.539   6.793
    1AU     LIG  322   7.468  15.072   6.595
    1AU     LIG  323   7.646  14.743   6.283
    1AU     LIG  324   7.982  14.519   6.046
    1AU     LIG  325   8.303  14.153   6.096
    1AU    AUSL  326   5.816  16.293   7.556
    1AU    AUSL  327   5.913  16.542   7.124
    1AU     AUL  328   5.561  16.365   7.272
    1AU       S  329   5.754  16.374   6.852
    1AU     LIG  330   5.322  16.147   6.842
    1AU     LIG  331   4.959  15.878   6.660
    1AU     LIG  332   4.798  15.629   6.284
    1AU     LIG  333   4.621  15.407   5.915
    1AU     LIG  334   4.214  15.349   5.677
    1AU       S  335   5.392  16.335   7.718
    1AU     LIG  336   5.148  15.958   7.690
    1AU     LIG  337   4.717  15.749   7.718
    1AU     LIG  338   4.218  15.772   7.676
    1AU     LIG  339   3.781  15.557   7.813
    1AU     LIG  340   3.443  15.192   7.921
    1AU    AUSL  341   5.879  16.680   7.746
    1AU    AUSL  342   6.131  16.306   7.841
    1AU     AUL  343   5.802  16.276   7.907
    1AU       S  344   5.842  16.112   8.337
    1AU     LIG  345   5.584  15.843   8.048
    1AU     LIG  346   5.227  15.529   8.002
    1AU     LIG  347   4.969  15.250   8.286
    1AU     LIG  348   4.754  14.950   8.598
    1AU     LIG  349   4.560  14.530   8.725
    1AU       S  350   5.476  16.598   7.855
    1AU     LIG  351   5.021  16.819   7.756
    1AU     LIG  352   4.570  16.627   7.688
    1AU     LIG  353   4.181  16.314   7.753
    1AU     LIG  354   3.774  16.054   7.666
    1AU     LIG  355   3.352  15.984   7.871
    1AU    AUSL  356   6.610  17.515   7.899
    1AU    AUSL  357   6.177  17.544   7.805
    1AU     AUL  358   6.405  17.610   8.187
    1AU       S  359   6.040  17.742   7.923
    1AU     LIG  360   5.959  18.076   8.271
    1AU     LIG  361   5.739  18.280   8.678
    1AU     LIG  362   5.469  18.566   8.982
    1AU     LIG  363   5.272  19.011   8.982
    1AU     LIG  364   5.008  19.426   8.976
    1AU       S  365   6.621  17.931   7.944
    1AU     LIG  366   6.780  17.947   8.332
    1AU     LIG  367   6.798  18.382   8.529
    1AU     LIG  368   6.836  18.827   8.687
    1AU     LIG  369   6.741  19.200   8.952
    1AU     LIG  370   6.805  19.474   9.332
    1AU    AUSL  371   6.451  17.735   7.549
    1AU    AUSL  372   6.735  17.640   7.207
    1AU     AUL  373   6.688  17.994   7.328
    1AU       S  374   6.448  17.965   7.745
    1AU     LIG  375   6.440  18.378   8.034
    1AU     LIG  376   6.590  18.780   8.236
    1AU     LIG  377   6.514  19.203   8.472
    1AU     LIG  378   6.322  19.656   8.473
    1AU     LIG  379   6.305  20.153   8.384
    1AU       S  380   6.446  17.879   6.957
    1AU     LIG  381   6.825  18.170   6.890
    1AU     LIG  382   6.957  18.614   6.912
    1AU     LIG  383   7.105  19.015   6.713
    1AU     LIG  384   7.282  19.464   6.736
    1AU     LIG  385   7.245  19.937   6.681
    1AU    AUSL  386   6.888  17.677   7.612
    1AU    AUSL  387   6.883  17.383   8.187
    1AU     AUL  388   6.993  17.640   7.961
    1AU       S  389   7.115  17.467   8.404
    1AU     LIG  390   7.466  17.412   8.746
    1AU     LIG  391   7.761  17.646   9.026
    1AU     LIG  392   8.033  17.947   9.279
    1AU     LIG  393   8.194  18.014   9.718
    1AU     LIG  394   8.309  18.194  10.138
    1AU       S  395   6.794  18.021   7.781
    1AU     LIG  396   6.967  18.341   8.044
    1AU     LIG  397   7.117  18.732   8.254
    1AU     LIG  398   7.412  19.112   8.278
    1AU     LIG  399   7.501  19.577   8.320
    1AU     LIG  400   7.380  19.978   8.538
    1AU    AUSL  401   6.497  16.076   7.939
    1AU    AUSL  402   6.908  16.084   7.786
    1AU     AUL  403   6.722  15.965   8.171
    1AU       S  404   6.473  15.624   7.975
    1AU     LIG  405   6.442  15.446   8.341
    1AU     LIG  406   6.436  14.993   8.428
    1AU     LIG  407   6.462  14.526   8.435
    1AU     LIG  408   6.293  14.194   8.710
    1AU     LIG  409   6.273  14.055   9.164
    1AU       S  410   7.055  15.861   7.840
    1AU     LIG  411   7.071  15.433   8.093
    1AU     LIG  412   7.371  15.115   8.341
    1AU     LIG  413   7.691  14.812   8.561
    1AU     LIG  414   8.012  14.558   8.792
    1AU     LIG  415   8.358  14.233   8.765
    1AU    AUSL  416   6.182  15.943   7.647
    1AU    AUSL  417   6.290  16.259   8.251
    1AU     AUL  418   6.153  15.971   8.014
    1AU       S  419   6.285  15.562   7.817
    1AU     LIG  420   6.207  15.148   7.982
    1AU     LIG  421   6.108  14.711   8.105
    1AU     LIG  422   6.005  14.275   8.260
    1AU     LIG  423   5.685  13.904   8.255
    1AU     LIG  424   5.328  13.592   8.372
    1AU       S  425   6.092  16.142   8.448
    1AU     LIG  426   5.896  15.652   8.441
    1AU     LIG  427   5.418  15.521   8.490
    1AU     LIG  428   5.150  15.240   8.775
    1AU     LIG  429   4.935  14.982   9.108
    1AU     LIG  430   4.949  14.803   9.547
    1AU    AUSL  431   6.612  15.854   7.592
    1AU    AUSL  432   6.392  16.104   7.310
    1AU     AUL  433   6.266  15.759   7.393
    1AU       S  434   6.647  15.660   7.161
    1AU     LIG  435   6.318  15.308   7.180
    1AU     LIG  436   6.103  14.925   6.984
    1AU     LIG  437   6.095  14.470   6.823
    1AU     LIG  438   5.956  14.001   6.779
    1AU     LIG  439   5.727  13.554   6.773
    1AU       S  440   6.616  15.640   7.721
    1AU     LIG  441   6.697  15.189   7.831
    1AU     LIG  442   6.614  14.764   7.997
    1AU     LIG  443   6.798  14.315   8.044
    1AU     LIG  444   7.002  13.867   8.070
    1AU     LIG  445   6.873  13.422   8.210
    1AU    AUSL  446   6.556  17.444   6.843
    1AU    AUSL  447   7.113  17.479   7.281
    1AU     AUL  448   6.893  17.645   6.926
    1AU       S  449   6.484  17.799   6.744
    1AU     LIG  450   6.610  18.113   6.442
    1AU     LIG  451   6.761  18.559   6.441
    1AU     LIG  452   6.825  18.987   6.249
    1AU     LIG  453   6.824  19.266   5.846
    1AU     LIG  454   6.798  19.617   5.505
    1AU       S  455   7.293  17.636   7.145
    1AU     LIG  456   7.723  17.824   6.939
    1AU     LIG  457   7.919  17.911   6.508
    1AU     LIG  458   8.090  18.253   6.217
    1AU     LIG  459   8.285  18.703   6.147
    1AU     LIG  460   8.631  18.955   5.948
    1AU    AUSL  461   6.356  17.465   7.244
    1AU    AUSL  462   6.281  17.138   6.950
    1AU     AUL  463   6.211  17.434   6.814
    1AU       S  464   6.284  17.809   7.100
    1AU     LIG  465   6.353  18.337   7.080
    1AU     LIG  466   6.448  18.744   6.829
    1AU     LIG  467   6.425  19.199   6.661
    1AU     LIG  468   6.326  19.681   6.607
    1AU     LIG  469   6.349  20.181   6.563
    1AU       S  470   5.774  17.460   6.681
    1AU     LIG  471   5.830  17.651   6.262
    1AU     LIG  472   5.805  17.903   5.858
    1AU     LIG  473   5.642  18.007   5.424
    1AU     LIG  474   5.580  18.272   5.038
    1AU     LIG  475   5.316  18.570   4.788
    1AU    AUSL  476   6.585  16.071   6.922
    1AU    AUSL  477   5.986  16.113   7.213
    1AU     AUL  478   6.253  15.953   6.964
    1AU       S  479   5.810  16.083   7.004
    1AU     LIG  480   5.503  15.855   7.219
    1AU     LIG  481   5.234  15.567   6.972
    1AU     LIG  482   4.930  15.332   6.684
    1AU     LIG  483   4.707  15.100   6.331
    1AU     LIG  484   4.424  14.934   5.989
    1AU       S  485   6.640  15.666   6.980
    1AU     LIG  486   6.664  15.226   6.810
    1AU     LIG  487   6.490  14.802   6.658
    1AU     LIG  488   6.475  14.384   6.436
    1AU     LIG  489   6.480  14.226   5.966
    1AU     LIG  490   6.513  13.987   5.540
    1AU    AUSL  491   6.819  16.078   7.306
    1AU    AUSL  492   6.848  16.395   6.960
    1AU     AUL  493   6.918  16.030   6.924
    1AU       S  494   6.914  15.712   7.265
    1AU     LIG  495   6.817  15.226   7.325
    1AU     LIG  496   6.576  14.846   7.169
    1AU     LIG  497   6.582  14.399   6.973
    1AU     LIG  498   6.682  13.982   6.763
    1AU     LIG  499   6.945  13.579   6.736
    1AU       S  500   7.182  16.220   6.609
    1AU     LIG  501   7.035  15.786   6.512
    1AU     LIG  502   7.197  15.404   6.309
    1AU     LIG  503   7.435  15.117   6.010
    1AU     LIG  504   7.688  14.831   5.707
    1AU     LIG  505   7.650  14.721   5.235
    2AU     AUC  506  23.726  30.257   7.500
    2AU     AUC  507  24.008  30.266   7.326
    2AU     AUC  508  23.990  30.240   7.675
    2AU     AUC  509  23.443  30.249   7.334
    2AU     AUC  510  23.459  30.291   7.684
    2AU     AUC  511  23.558  30.541   7.493
    2AU     AUC  512  23.914  30.535   7.486
    2AU     AUC  513  23.538  29.989   7.508
    2AU     AUC  514  23.889  29.964   7.501
    2AU     AUC  515  23.724  30.080   7.778
    2AU     AUC  516  23.724  30.447   7.761
    2AU     AUC  517  23.726  30.091   7.224
    2AU     AUC  518  23.746  30.413   7.220
    2AU     AUC  519  24.327  30.271   7.165
    2AU     AUC  520  24.332  30.222   7.523
    2AU     AUC  521  24.276  30.210   7.872
    2AU     AUC  522  23.138  30.240   7.167
    2AU     AUC  523  23.121  30.281   7.532
    2AU     AUC  524  23.174  30.324   7.871
    2AU     AUC  525  23.396  30.841   7.467
    2AU     AUC  526  23.761  30.866   7.447
    2AU     AUC  527  24.102  30.811   7.476
    2AU     AUC  528  23.341  29.716   7.511
    2AU     AUC  529  23.689  29.656   7.492
    2AU     AUC  530  24.051  29.661   7.484
    2AU     AUC  531  23.704  29.901   8.070
    2AU     AUC  532  23.724  30.267   8.098
    2AU     AUC  533  23.754  30.626   8.050
    2AU     AUC  534  23.756  29.920   6.945
    2AU     AUC  535  23.748  30.247   6.887
    2AU     AUC  536  23.729  30.563   6.926
    2AU     AUC  537  23.989  30.029   7.997
    2AU     AUC  538  24.034  30.413   7.987
    2AU     AUC  539  24.072  30.115   7.001
    2AU     AUC  540  24.062  30.440   7.035
    2AU     AUC  541  23.423  30.134   8.017
    2AU     AUC  542  23.450  30.507   7.988
    2AU     AUC  543  23.428  30.068   7.039
    2AU     AUC  544  23.404  30.379   6.994
    2AU     AUC  545  24.266  30.542   7.348
    2AU     AUC  546  24.204  30.512   7.695
    2AU     AUC  547  23.233  30.547   7.326
    2AU     AUC  548  23.260  30.608   7.680
    2AU     AUC  549  24.206  29.948   7.334
    2AU     AUC  550  24.165  29.898   7.690
    2AU     AUC  551  23.205  29.954   7.359
    2AU     AUC  552  23.258  30.006   7.720
    2AU     AUC  553  23.580  30.787   7.754
    2AU     AUC  554  23.924  30.741   7.769
    2AU     AUC  555  23.528  29.783   7.807
    2AU     AUC  556  23.845  29.727   7.777
    2AU     AUC  557  23.544  30.689   7.180
    2AU     AUC  558  23.930  30.729   7.190
    2AU     AUC  559  23.531  29.788   7.205
    2AU     AUC  560  23.927  29.803   7.204
    2AU    AUSL  561  24.252  30.148   8.236
    2AU    AUSL  562  23.975  29.739   8.157
    2AU     AUL  563  24.267  29.745   8.379
    2AU       S  564  24.353  29.387   8.113
    2AU     LIG  565  24.244  29.227   8.492
    2AU     LIG  566  24.428  28.919   8.767
    2AU     LIG  567  24.622  28.519   8.899
    2AU     LIG  568  24.900  28.257   9.165
    2AU     LIG  569  24.987  28.185   9.622
    2AU       S  570  24.474  30.146   8.354
    2AU     LIG  571  24.350  30.146   8.789
    2AU     LIG  572  24.518  30.040   9.218
    2AU     LIG  573  24.846  29.913   9.555
    2AU     LIG  574  25.174  29.851   9.910
    2AU     LIG  575  25.500  29.966  10.237
    2AU    AUSL  576  23.850  30.071   8.403
    2AU    AUSL  577  23.600  30.455   8.423
    2AU     AUL  578  23.795  30.381   8.742
    2AU       S  579  23.926  29.994   8.550
    2AU     LIG  580  23.918  29.943   8.988
    2AU     LIG  581  24.125  29.716   9.341
    2AU     LIG  582  24.273  29.494   9.736
    2AU     LIG  583  24.292  29.278  10.162
    2AU     LIG  584  24.451  29.123  10.583
    2AU       S  585  23.392  30.195   8.637
    2AU     LIG  586  23.431  30.180   9.106
    2AU     LIG  587  23.165  30.131   9.498
    2AU     LIG  588  23.010  30.132   9.950
    2AU     LIG  589  23.077  30.384  10.358
    2AU     LIG  590  23.093  30.772  10.644
    2AU    AUSL  591  23.922  30.440   8.160
    2AU    AUSL  592  24.361  30.541   8.102
    2AU     AUL  593  24.146  30.455   8.446
    2AU       S  594  23.822  30.831   8.580
    2AU     LIG  595  24.168  30.714   8.887
    2AU     LIG  596  24.404  30.844   9.298
    2AU     LIG  597  24.416  30.952   9.793
    2AU     LIG  598  24.464  31.077  10.271
    2AU     LIG  599  24.548  31.187  10.739
    2AU       S  600  24.526  30.677   8.291
    2AU     LIG  601  24.952  30.734   8.331
    2AU     LIG  602  25.209  30.962   8.653
    2AU     LIG  603  25.408  31.239   8.983
    2AU     LIG  604  25.619  31.355   9.387
    2AU     LIG  605  26.019  31.330   9.641
    2AU    AUSL  606  24.287  30.391   6.771
    2AU    AUSL  607  24.074  30.728   6.958
    2AU     AUL  608  24.191  30.766   6.623
    2AU       S  609  24.254  30.437   6.312
    2AU     LIG  610  24.615  30.241   6.130
    2AU     LIG  611  24.644  29.968   5.768
    2AU     LIG  612  24.766  29.931   5.322
    2AU     LIG  613  25.171  29.939   5.060
    2AU     LIG  614  25.520  29.873   4.738
    2AU       S  615  24.516  30.967   6.875
    2AU     LIG  616  24.604  31.139   6.477
    2AU     LIG  617  24.814  31.322   6.086
    2AU     LIG  618  25.039  31.450   5.697
    2AU     LIG  619  25.019  31.602   5.247
    2AU     LIG  620  25.274  31.913   5.007
    2AU    AUSL  621  24.056  30.065   6.606
    2AU    AUSL  622  24.422  30.022   6.938
    2AU     AUL  623  24.468  30.147   6.619
    2AU       S  624  24.590  29.708   6.724
    2AU     LIG  625  24.684  29.365   6.399
    2AU     LIG  626  24.899  28.955   6.306
    2AU     LIG  627  25.166  28.607   6.124
    2AU     LIG  628  25.445  28.433   5.782
    2AU     LIG  629  25.696  28.447   5.375
    2AU       S  630  24.145  30.302   6.311
    2AU     LIG  631  24.218  29.898   6.126
    2AU     LIG  632  24.231  29.666   5.699
    2AU     LIG  633  24.288  29.692   5.217
    2AU     LIG  634  24.279  29.566   4.736
    2AU     LIG  635  24.494  29.458   4.310
    2AU    AUSL  636  23.863  30.436   6.725
    2AU    AUSL  637  23.639  30.046   6.722
    2AU     AUL  638  23.786  30.056   6.441
    2AU       S  639  23.336  30.080   6.296
    2AU     LIG  640  23.462  29.820   5.983
    2AU     LIG  641  23.218  29.595   5.649
    2AU     LIG  642  23.006  29.579   5.224
    2AU     LIG  643  22.981  29.443   4.763
    2AU     LIG  644  22.862  29.421   4.303
    2AU       S  645  23.916  30.499   6.356
    2AU     LIG  646  23.879  30.244   5.911
    2AU     LIG  647  24.207  30.154   5.538
    2AU     LIG  648  24.374  30.193   5.075
    2AU     LIG  649  24.403  30.390   4.623
    2AU     LIG  650  24.485  30.467   4.144
    2AU    AUSL  651  23.201  30.401   8.250
    2AU    AUSL  652  23.492  30.750   8.136
    2AU     AUL  653  23.353  30.686   8.476
    2AU       S  654  23.194  30.278   8.669
    2AU     LIG  655  22.995  29.950   8.898
    2AU     LIG  656  22.752  29.880   9.296
    2AU     LIG  657  22.495  29.854   9.698
    2AU     LIG  658  22.215  29.763  10.084
    2AU     LIG  659  22.059  29.875  10.517
    2AU       S  660  23.100  30.991   8.215
    2AU     LIG  661  23.099  31.134   8.636
    2AU     LIG  662  22.954  31.338   9.050
    2AU     LIG  663  22.710  31.591   9.370
    2AU     LIG  664  22.460  31.699   9.754
    2AU     LIG  665  22.325  31.819  10.197
    2AU    AUSL  666  23.500  30.113   8.168
    2AU    AUSL  667  23.084  29.987   8.140
    2AU     AUL  668  22.978  30.223   8.267
    2AU       S  669  22.996  29.774   8.401
    2AU     LIG  670  22.556  29.735   8.257
    2AU     LIG  671  22.295  29.360   8.369
    2AU     LIG  672  22.042  29.079   8.663
    2AU     LIG  673  21.871  28.961   9.097
    2AU     LIG  674  21.431  28.844   9.218
    2AU       S  675  23.381  30.056   8.547
    2AU     LIG  676  23.466  29.739   8.865
    2AU     LIG  677  23.244  29.672   9.277
    2AU     LIG  678  22.999  29.670   9.700
    2AU     LIG  679  22.748  29.684  10.112
    2AU     LIG  680  22.501  29.608  10.510
    2AU    AUSL  681  23.226  30.151   6.770
    2AU    AUSL  682  23.401  29.779   6.946
    2AU     AUL  683  23.444  29.769   6.616
    2AU       S  684  23.119  30.053   6.437
    2AU     LIG  685  22.947  29.796   6.093
    2AU     LIG  686  22.751  29.819   5.659
    2AU     LIG  687  22.519  29.797   5.238
    2AU     LIG  688  22.161  29.844   4.907
    2AU     LIG  689  21.932  30.085   4.562
    2AU       S  690  23.024  29.650   6.761
    2AU     LIG  691  22.993  29.178   6.663
    2AU     LIG  692  22.642  28.865   6.631
    2AU     LIG  693  22.315  28.596   6.395
    2AU     LIG  694  22.035  28.413   6.041
    2AU     LIG  695  21.991  28.062   5.733
    2AU    AUSL  696  23.481  30.443   6.564
    2AU    AUSL  697  23.011  30.489   6.922
    2AU     AUL  698  23.127  30.487   6.590
    2AU       S  699  22.726  30.675   6.756
    2AU     LIG  700  22.493  30.933   6.435
    2AU     LIG  701  22.497  31.164   6.033
    2AU     LIG  702  22.415  31.280   5.579
    2AU     LIG  703  22.035  31.257   5.271
    2AU     LIG  704  21.605  31.269   5.063
    2AU       S  705  23.416  30.307   6.264
    2AU     LIG  706  23.149  30.214   5.856
    2AU     LIG  707  23.138  30.056   5.415
    2AU     LIG  708  23.125  30.145   4.951
    2AU     LIG  709  23.137  30.494   4.614
    2AU     LIG  710  23.037  30.784   4.241
    2AU    AUSL  711  24.528  30.727   7.533
    2AU    AUSL  712  24.442  30.559   7.128
    2AU     AUL  713  24.785  30.840   7.316
    2AU       S  714  24.566  30.727   6.935
    2AU     LIG  715  24.690  30.621   6.525
    2AU     LIG  716  24.987  30.853   6.251
    2AU     LIG  717  25.301  31.125   6.029
    2AU     LIG  718  25.641  31.295   5.742
    2AU     LIG  719  26.024  31.249   5.437
    2AU       S  720  24.921  30.583   7.695
    2AU     LIG  721  25.368  30.496   7.551
    2AU     LIG  722  25.789  30.725   7.468
    2AU     LIG  723  26.239  30.922   7.427
    2AU     LIG  724  26.479  31.336   7.509
    2AU     LIG  725  26.543  31.811   7.584
    2AU    AUSL  726  24.695  30.326   7.374
    2AU    AUSL  727  24.635  29.993   7.712
    2AU     AUL  728  24.993  30.051   7.618
    2AU       S  729  24.827  30.395   7.396
    2AU     LIG  730  25.186  30.210   7.169
    2AU     LIG  731  25.659  30.355   7.125
    2AU     LIG  732  26.140  30.470   7.172
    2AU     LIG  733  26.611  30.582   7.224
    2AU     LIG  734  27.045  30.790   7.111
    2AU       S  735  24.860  29.591   7.696
    2AU     LIG  736  25.321  29.591   7.710
    2AU     LIG  737  25.715  29.367   7.729
    2AU     LIG  738  26.173  29.255   7.707
    2AU     LIG  739  26.582  29.387   7.924
    2AU     LIG  740  27.053  29.471   7.971
    2AU    AUSL  741  24.434  30.362   7.734
    2AU    AUSL  742  24.185  30.773   7.778
    2AU     AUL  743  24.524  30.796   7.838
    2AU       S  744  24.504  30.987   8.255
    2AU     LIG  745  24.837  31.252   8.441
    2AU     LIG  746  25.143  31.547   8.658
    2AU     LIG  747  25.438  31.942   8.700
    2AU     LIG  748  25.763  32.102   9.023
    2AU     LIG  749  26.053  32.489   9.033
    2AU       S  750  24.775  30.410   7.854
    2AU     LIG  751  25.219  30.348   8.023
    2AU     LIG  752  25.689  30.469   7.967
    2AU     LIG  753  26.105  30.695   7.873
    2AU     LIG  754  26.566  30.677   7.765
    2AU     LIG  755  27.011  30.764   7.943
    2AU    AUSL  756  23.076  30.827   7.514
    2AU    AUSL  757  23.146  30.626   7.902
    2AU     AUL  758  22.837  30.934   7.747
    2AU       S  759  22.992  30.796   8.155
    2AU     LIG  760  22.847  30.669   8.542
    2AU     LIG  761  22.658  30.955   8.853
    2AU     LIG  762  22.420  31.276   9.084
    2AU     LIG  763  22.130  31.449   9.410
    2AU     LIG  764  21.686  31.465   9.594
    2AU       S  765  23.075  31.205   7.435
    2AU     LIG  766  22.609  31.170   7.353
    2AU     LIG  767  22.177  31.379   7.426
    2AU     LIG  768  21.859  31.757   7.472
    2AU     LIG  769  21.473  32.049   7.543
    2AU     LIG  770  21.026  32.074   7.705
    2AU    AUSL  771  23.020  30.434   7.332
    2AU    AUSL  772  23.131  30.867   7.099
    2AU     AUL  773  22.832  30.741   7.213
    2AU       S  774  22.632  30.241   6.992
    2AU     LIG  775  22.315  30.611   7.087
    2AU     LIG  776  21.863  30.800   7.025
    2AU     LIG  777  21.509  30.954   6.723
    2AU     LIG  778  21.028  31.052   6.775
    2AU     LIG  779  20.652  31.106   7.062
    2AU       S  780  22.965  31.116   6.944
    2AU     LIG  781  22.729  31.365   6.628
    2AU     LIG  782  22.717  31.592   6.222
    2AU     LIG  783  22.498  31.962   6.016
    2AU     LIG  784  22.186  32.339   6.018
    2AU     LIG  785  21.831  32.676   5.978
    2AU    AUSL  786  22.809  30.480   7.709
    2AU    AUSL  787  22.777  30.103   7.412
    2AU     AUL  788  22.613  30.409   7.439
    2AU       S  789  22.576  30.011   7.697
    2AU     LIG  790  22.228  29.946   7.367
    2AU     LIG  791  21.782  29.736   7.327
    2AU     LIG  792  21.299  29.793   7.415
    2AU     LIG  793  20.829  29.626   7.430
    2AU     LIG  794  20.544  29.261   7.257
    2AU       S  795  22.664  30.513   7.928
    2AU     LIG  796  22.325  30.741   7.706
    2AU     LIG  797  21.908  30.899   7.881
    2AU     LIG  798  21.530  30.938   8.184
    2AU     LIG  799  21.108  31.066   8.321
    2AU     LIG  800  20.675  31.086   8.185
    2AU    AUSL  801  24.400  29.668   7.549
    2AU    AUSL  802  24.253  29.924   7.883
    2AU     AUL  803  24.557  29.823   7.962
    2AU       S  804  24.583  29.509   7.529
    2AU     LIG  805  24.860  29.207   7.248
    2AU     LIG  806  25.330  29.155   7.380
    2AU     LIG  807  25.789  28.996   7.389
    2AU     LIG  808  26.219  28.794   7.317
    2AU     LIG  809  26.394  28.340   7.279
    2AU       S  810  24.464  29.378   7.981
    2AU     LIG  811  24.702  29.082   8.280
    2AU     LIG  812  24.910  28.816   8.594
    2AU     LIG  813  25.094  28.727   9.020
    2AU     LIG  814  25.420  28.721   9.365
    2AU     LIG  815  25.857  28.731   9.545
    2AU    AUSL  816  24.389  30.047   7.353
    2AU    AUSL  817  24.342  29.639   7.131
    2AU     AUL  818  24.635  29.868   7.197
    2AU       S  819  24.859  29.616   7.491
    2AU     LIG  820  25.210  29.635   7.210
    2AU     LIG  821  25.689  29.496   7.222
    2AU     LIG  822  26.129  29.315   7.178
    2AU     LIG  823  26.582  29.136   7.101
    2AU     LIG  824  27.051  29.000   7.078
    2AU       S  825  24.551  29.506   6.890
    2AU     LIG  826  24.593  29.042   6.793
    2AU     LIG  827  24.721  28.597   6.631
    2AU     LIG  828  24.943  28.219   6.433
    2AU     LIG  829  25.228  28.086   6.111
    2AU     LIG  830  25.419  27.884   5.748
    2AU    AUSL  831  22.978  29.745   7.563
    2AU    AUSL  832  23.070  29.990   7.131
    2AU     AUL  833  22.725  29.812   7.285
    2AU       S  834  22.902  29.816   6.855
    2AU     LIG  835  22.553  29.495   6.663
    2AU     LIG  836  22.219  29.142   6.536
    2AU     LIG  837  21.902  28.874   6.282
    2AU     LIG  838  21.736  28.810   5.846
    2AU     LIG  839  21.389  28.835   5.534
    2AU       S  840  22.546  29.798   7.732
    2AU     LIG  841  22.408  29.456   7.477
    2AU     LIG  842  22.013  29.252   7.318
    2AU     LIG  843  21.548  29.130   7.375
    2AU     LIG  844  21.088  28.966   7.392
    2AU     LIG  845  20.917  28.555   7.518
    2AU    AUSL  846  23.042  30.132   7.752
    2AU    AUSL  847  23.294  29.759   7.846
    2AU     AUL  848  22.963  29.724   7.909
    2AU       S  849  23.010  29.560   8.338
    2AU     LIG  850  22.740  29.287   8.067
    2AU     LIG  851  22.375  28.960   8.056
    2AU     LIG  852  22.102  28.673   8.331
    2AU     LIG  853  21.998  28.262   8.547
    2AU     LIG  854  21.898  28.024   8.931
    2AU       S  855  22.635  30.048   7.867
    2AU     LIG  856  22.154  30.246   7.776
    2AU     LIG  857  21.685  30.099   7.667
    2AU     LIG  858  21.231  30.079   7.847
    2AU     LIG  859  20.786  29.893   7.897
    2AU     LIG  860  20.330  29.838   8.052
    2AU    AUSL  861  23.770  30.968   7.898
    2AU    AUSL  862  23.336  30.997   7.809
    2AU     AUL  863  23.564  31.060   8.189
    2AU       S  864  23.200  31.193   7.923
    2AU     LIG  865  22.904  31.436   8.230
    2AU     LIG  866  22.668  31.463   8.643
    2AU     LIG  867  22.468  31.774   8.944
    2AU     LIG  868  22.260  32.199   9.015
    2AU     LIG  869  22.045  32.629   9.010
    2AU       S  870  23.783  31.378   7.946
    2AU     LIG  871  23.942  31.380   8.341
    2AU     LIG  872  24.006  31.820   8.515
    2AU     LIG  873  23.996  32.242   8.744
    2AU     LIG  874  23.981  32.508   9.158
    2AU     LIG  875  23.996  32.748   9.581
    2AU    AUSL  876  23.608  31.186   7.549
    2AU    AUSL  877  23.890  31.092   7.205
    2AU     AUL  878  23.836  31.446   7.329
    2AU       S  879  23.615  31.426   7.759
    2AU     LIG  880  23.749  31.855   8.046
    2AU     LIG  881  23.771  32.289   8.257
    2AU     LIG  882  23.525  32.728   8.273
    2AU     LIG  883  23.325  33.179   8.251
    2AU     LIG  884  23.201  33.634   8.341
    2AU       S  885  23.607  31.333   6.951
    2AU     LIG  886  24.007  31.627   6.905
    2AU     LIG  887  24.269  32.025   6.863
    2AU     LIG  888  24.649  32.333   6.854
    2AU     LIG  889  24.813  32.738   6.674
    2AU     LIG  890  24.878  33.210   6.677
    2AU    AUSL  891  24.046  31.130   7.609
    2AU    AUSL  892  24.045  30.838   8.185
    2AU     AUL  893  24.157  31.092   7.957
    2AU       S  894  24.278  30.922   8.400
    2AU     LIG  895  24.624  30.898   8.743
    2AU     LIG  896  24.886  31.188   8.993
    2AU     LIG  897  25.099  31.269   9.405
    2AU     LIG  898  25.186  31.513   9.795
    2AU     LIG  899  25.140  31.951   9.985
    2AU       S  900  23.960  31.469   7.775
    2AU     LIG  901  24.239  31.673   8.049
    2AU     LIG  902  24.276  32.115   8.181
    2AU     LIG  903  24.518  32.514   8.133
    2AU     LIG  904  24.759  32.840   8.375
    2AU     LIG  905  24.729  33.293   8.480
    2AU    AUSL  906  23.664  29.533   7.940
    2AU    AUSL  907  24.072  29.543   7.781
    2AU     AUL  908  23.891  29.425   8.172
    2AU       S  909  23.649  29.078   7.983
    2AU     LIG  910  23.461  28.926   8.338
    2AU     LIG  911  23.433  28.462   8.429
    2AU     LIG  912  23.509  27.989   8.422
    2AU     LIG  913  23.662  27.566   8.576
    2AU     LIG  914  23.530  27.200   8.874
    2AU       S  915  24.220  29.330   7.839
    2AU     LIG  916  24.172  28.924   8.069
    2AU     LIG  917  24.460  28.629   8.340
    2AU     LIG  918  24.723  28.250   8.476
    2AU     LIG  919  24.883  27.867   8.707
    2AU     LIG  920  25.308  27.712   8.774
    2AU    AUSL  921  23.348  29.397   7.651
    2AU    AUSL  922  23.458  29.711   8.255
    2AU     AUL  923  23.324  29.425   8.020
    2AU       S  924  23.455  29.019   7.826
    2AU     LIG  925  23.310  28.618   7.946
    2AU     LIG  926  23.216  28.176   8.038
    2AU     LIG  927  23.073  27.746   8.181
    2AU     LIG  928  22.765  27.366   8.188
    2AU     LIG  929  22.631  26.951   8.375
    2AU       S  930  23.243  29.589   8.458
    2AU     LIG  931  22.988  29.112   8.501
    2AU     LIG  932  22.536  28.910   8.552
    2AU     LIG  933  22.237  28.642   8.839
    2AU     LIG  934  22.174  28.577   9.298
    2AU     LIG  935  22.309  28.582   9.751
    2AU    AUSL  936  23.777  29.309   7.593
    2AU    AUSL  937  23.553  29.553   7.307
    2AU     AUL  938  23.423  29.212   7.405
    2AU       S  939  23.780  29.118   7.142
    2AU     LIG  940  23.364  28.885   7.040
    2AU     LIG  941  23.308  28.438   7.066
    2AU     LIG  942  23.293  27.986   6.931
    2AU     LIG  943  23.290  27.537   6.796
    2AU     LIG  944  23.217  27.073   6.883
    2AU       S  945  23.783  29.102   7.724
    2AU     LIG  946  23.800  28.640   7.763
    2AU     LIG  947  23.742  28.252   8.031
    2AU     LIG  948  23.942  27.822   8.167
    2AU     LIG  949  24.121  27.408   8.297
    2AU     LIG  950  24.207  26.929   8.362
    2AU    AUSL  951  23.709  30.896   6.842
    2AU    AUSL  952  24.271  30.936   7.275
    2AU     AUL  953  24.047  31.098   6.923
    2AU       S  954  23.636  31.248   6.745
    2AU     LIG  955  23.958  31.384   6.473
    2AU     LIG  956  24.035  31.853   6.423
    2AU     LIG  957  23.983  32.262   6.182
    2AU     LIG  958  23.928  32.532   5.786
    2AU     LIG  959  23.793  32.827   5.439
    2AU       S  960  24.456  31.093   7.129
    2AU     LIG  961  24.897  31.254   6.924
    2AU     LIG  962  25.118  31.321   6.498
    2AU     LIG  963  25.306  31.624   6.161
    2AU     LIG  964  25.645  31.972   6.091
    2AU     LIG  965  25.850  32.427   6.125
    2AU    AUSL  966  23.510  30.919   7.243
    2AU    AUSL  967  23.435  30.589   6.951
    2AU     AUL  968  23.363  30.883   6.814
    2AU       S  969  23.439  31.262   7.097
    2AU     LIG  970  23.542  31.796   7.054
    2AU     LIG  971  23.732  32.176   6.792
    2AU     LIG  972  23.600  32.662   6.688
    2AU     LIG  973  23.359  33.122   6.662
    2AU     LIG  974  23.288  33.612   6.578
    2AU       S  975  22.925  30.902   6.682
    2AU     LIG  976  22.974  31.097   6.259
    2AU     LIG  977  22.942  31.317   5.826
    2AU     LIG  978  22.893  31.442   5.364
    2AU     LIG  979  22.805  31.715   4.982
    2AU     LIG  980  22.541  32.086   4.849
    2AU    AUSL  981  23.744  29.529   6.916
    2AU    AUSL  982  23.144  29.562   7.220
    2AU     AUL  983  23.403  29.404   6.969
    2AU       S  984  22.951  29.526   7.001
    2AU     LIG  985  22.637  29.200   7.071
    2AU     LIG  986  22.260  28.913   6.999
    2AU     LIG  987  21.949  28.649   6.758
    2AU     LIG  988  21.900  28.259   6.507
    2AU     LIG  989  21.696  28.014   6.160
    2AU       S  990  23.790  29.122   6.925
    2AU     LIG  991  23.722  28.712   6.721
    2AU     LIG  992  23.488  28.332   6.589
    2AU     LIG  993  23.540  27.876   6.476
    2AU     LIG  994  23.750  27.502   6.245
    2AU     LIG  995  23.721  27.228   5.848
    2AU    AUSL  996  23.981  29.526   7.300
    2AU    AUSL  997  24.009  29.850   6.958
    2AU     AUL  998  24.087  29.475   6.938
    2AU       S  999  24.011  29.119   7.232
    2AU     LIG 1000  23.805  28.636   7.226
    2AU     LIG 1001  23.766  28.189   7.005
    2AU     LIG 1002  23.808  27.704   6.882
    2AU     LIG 1003  24.040  27.324   6.667
    2AU     LIG 1004  24.331  26.921   6.603
    2AU       S 1005  24.329  29.676   6.611
    2AU     LIG 1006  24.197  29.240   6.515
    2AU     LIG 1007  24.391  28.860   6.324
    2AU     LIG 1008  24.657  28.520   6.102
    2AU     LIG 1009  24.927  28.311   5.757
    2AU     LIG 1010  25.185  28.321   5.350
    3AU     AUC 1011  36.602  31.022   7.500
    3AU     AUC 1012  36.885  31.027   7.327
    3AU     AUC 1013  36.865  31.008   7.676
    3AU     AUC 1014  36.320  31.011   7.330
    3AU     AUC 1015  36.332  31.059   7.680
    3AU     AUC 1016  36.433  31.306   7.486
    3AU     AUC 1017  36.789  31.300   7.483
    3AU     AUC 1018  36.415  30.753   7.510
    3AU     AUC 1019  36.767  30.727   7.506
    3AU     AUC 1020  36.599  30.850   7.780
    3AU     AUC 1021  36.597  31.218   7.756
    3AU     AUC 1022  36.604  30.850   7.227
    3AU     AUC 1023  36.623  31.172   7.218
    3AU     AUC 1024  37.204  31.032   7.165
    3AU     AUC 1025  37.208  30.989   7.524
    3AU     AUC 1026  37.150  30.982   7.874
    3AU     AUC 1027  36.018  30.996   7.160
    3AU     AUC 1028  35.996  31.045   7.524
    3AU     AUC 1029  36.045  31.095   7.864
    3AU     AUC 1030  36.271  31.608   7.453
    3AU     AUC 1031  36.637  31.635   7.439
    3AU     AUC 1032  36.975  31.579   7.471
    3AU     AUC 1033  36.217  30.480   7.520
    3AU     AUC 1034  36.567  30.419   7.504
    3AU     AUC 1035  36.930  30.425   7.497
    3AU     AUC 1036  36.577  30.678   8.076
    3AU     AUC 1037  36.595  31.043   8.095
    3AU     AUC 1038  36.624  31.401   8.042
    3AU     AUC 1039  36.636  30.671   6.954
    3AU     AUC 1040  36.627  31.000   6.888
    3AU     AUC 1041  36.608  31.318   6.920
    3AU     AUC 1042  36.864  30.801   8.000
    3AU     AUC 1043  36.906  31.185   7.985
    3AU     AUC 1044  36.947  30.870   7.005
    3AU     AUC 1045  36.939  31.197   7.033
    3AU     AUC 1046  36.294  30.910   8.015
    3AU     AUC 1047  36.321  31.282   7.979
    3AU     AUC 1048  36.308  30.821   7.040
    3AU     AUC 1049  36.284  31.134   6.988
    3AU     AUC 1050  37.142  31.306   7.345
    3AU     AUC 1051  37.078  31.280   7.692
    3AU     AUC 1052  36.112  31.309   7.312
    3AU     AUC 1053  36.133  31.376   7.666
    3AU     AUC 1054  37.082  30.710   7.340
    3AU     AUC 1055  37.044  30.668   7.697
    3AU     AUC 1056  36.082  30.714   7.362
    3AU     AUC 1057  36.133  30.776   7.719
    3AU     AUC 1058  36.453  31.558   7.743
    3AU     AUC 1059  36.797  31.512   7.763
    3AU     AUC 1060  36.403  30.556   7.813
    3AU     AUC 1061  36.723  30.498   7.787
    3AU     AUC 1062  36.423  31.451   7.173
    3AU     AUC 1063  36.804  31.491   7.187
    3AU     AUC 1064  36.410  30.544   7.216
    3AU     AUC 1065  36.805  30.559   7.214
    3AU    AUSL 1066  37.123  30.924   8.241
    3AU    AUSL 1067  36.856  30.516   8.167
    3AU     AUL 1068  37.148  30.523   8.385
    3AU       S 1069  37.241  30.168   8.117
    3AU     LIG 1070  37.146  30.005   8.488
    3AU     LIG 1071  37.321  29.694   8.755
    3AU     LIG 1072  37.553  29.390   9.006
    3AU     LIG 1073  37.734  29.192   9.393
    3AU     LIG 1074  37.681  29.044   9.852
    3AU       S 1075  37.350  30.927   8.367
    3AU     LIG 1076  37.228  30.962   8.802
    3AU     LIG 1077  37.360  30.965   9.249
    3AU     LIG 1078  37.614  30.802   9.617
    3AU     LIG 1079  37.910  30.846   9.983
    3AU     LIG 1080  38.279  30.799  10.276
    3AU    AUSL 1081  36.718  30.848   8.405
    3AU    AUSL 1082  36.468  31.240   8.415
    3AU     AUL 1083  36.657  31.159   8.734
    3AU       S 1084  36.810  30.769   8.565
    3AU     LIG 1085  36.806  30.743   9.007
    3AU     LIG 1086  37.020  30.615   9.406
    3AU     LIG 1087  37.221  30.478   9.811
    3AU     LIG 1088  37.182  30.254  10.236
    3AU     LIG 1089  37.204  30.007  10.654
    3AU       S 1090  36.250  30.981   8.632
    3AU     LIG 1091  36.322  30.964   9.095
    3AU     LIG 1092  36.079  30.836   9.474
    3AU     LIG 1093  35.816  30.839   9.865
    3AU     LIG 1094  35.766  31.120  10.251
    3AU     LIG 1095  35.794  31.403  10.635
    3AU    AUSL 1096  36.792  31.212   8.156
    3AU    AUSL 1097  37.231  31.314   8.099
    3AU     AUL 1098  37.014  31.231   8.443
    3AU       S 1099  36.696  31.611   8.577
    3AU     LIG 1100  37.034  31.460   8.894
    3AU     LIG 1101  37.366  31.482   9.244
    3AU     LIG 1102  37.554  31.571   9.685
    3AU     LIG 1103  37.505  31.672  10.156
    3AU     LIG 1104  37.409  31.729  10.622
    3AU       S 1105  37.394  31.442   8.270
    3AU     LIG 1106  37.766  31.275   8.394
    3AU     LIG 1107  38.054  31.475   8.714
    3AU     LIG 1108  38.286  31.725   9.058
    3AU     LIG 1109  38.450  32.005   9.390
    3AU     LIG 1110  38.759  32.168   9.695
    3AU    AUSL 1111  37.166  31.149   6.770
    3AU    AUSL 1112  36.943  31.479   6.957
    3AU     AUL 1113  37.066  31.521   6.620
    3AU       S 1114  37.126  31.181   6.324
    3AU     LIG 1115  37.538  31.088   6.193
    3AU     LIG 1116  37.651  30.802   5.864
    3AU     LIG 1117  37.689  30.708   5.422
    3AU     LIG 1118  37.802  30.814   4.985
    3AU     LIG 1119  38.186  30.796   4.704
    3AU       S 1120  37.383  31.735   6.870
    3AU     LIG 1121  37.594  31.771   6.476
    3AU     LIG 1122  37.836  31.922   6.077
    3AU     LIG 1123  37.877  32.196   5.668
    3AU     LIG 1124  37.928  32.518   5.302
    3AU     LIG 1125  37.883  32.843   4.936
    3AU    AUSL 1126  36.939  30.815   6.618
    3AU    AUSL 1127  37.290  30.776   6.940
    3AU     AUL 1128  37.355  30.902   6.633
    3AU       S 1129  37.426  30.451   6.718
    3AU     LIG 1130  37.522  30.153   6.354
    3AU     LIG 1131  37.749  29.757   6.226
    3AU     LIG 1132  37.998  29.499   5.910
    3AU     LIG 1133  38.304  29.374   5.561
    3AU     LIG 1134  38.667  29.547   5.294
    3AU       S 1135  37.039  31.028   6.309
    3AU     LIG 1136  37.197  30.670   6.110
    3AU     LIG 1137  37.292  30.466   5.670
    3AU     LIG 1138  37.316  30.439   5.178
    3AU     LIG 1139  37.249  30.223   4.738
    3AU     LIG 1140  37.289  30.158   4.257
    3AU    AUSL 1141  36.741  31.188   6.716
    3AU    AUSL 1142  36.520  30.795   6.726
    3AU     AUL 1143  36.681  30.788   6.454
    3AU       S 1144  36.243  30.811   6.285
    3AU     LIG 1145  36.289  30.654   5.876
    3AU     LIG 1146  36.031  30.384   5.581
    3AU     LIG 1147  35.774  30.274   5.195
    3AU     LIG 1148  35.705  30.063   4.768
    3AU     LIG 1149  35.471  29.898   4.386
    3AU       S 1150  36.797  31.236   6.365
    3AU     LIG 1151  36.774  31.029   5.911
    3AU     LIG 1152  37.171  30.960   5.627
    3AU     LIG 1153  37.328  30.977   5.167
    3AU     LIG 1154  37.348  31.168   4.724
    3AU     LIG 1155  37.324  31.337   4.276
    3AU    AUSL 1156  36.071  31.183   8.241
    3AU    AUSL 1157  36.358  31.529   8.123
    3AU     AUL 1158  36.224  31.475   8.461
    3AU       S 1159  36.059  31.078   8.675
    3AU     LIG 1160  35.885  30.725   8.924
    3AU     LIG 1161  35.644  30.599   9.330
    3AU     LIG 1162  35.419  30.503   9.751
    3AU     LIG 1163  35.045  30.619  10.033
    3AU     LIG 1164  34.844  30.905  10.359
    3AU       S 1165  35.967  31.775   8.189
    3AU     LIG 1166  36.078  32.007   8.547
    3AU     LIG 1167  35.931  32.220   8.952
    3AU     LIG 1168  35.728  32.287   9.374
    3AU     LIG 1169  35.701  32.527   9.785
    3AU     LIG 1170  35.559  32.850  10.105
    3AU    AUSL 1171  36.372  30.893   8.167
    3AU    AUSL 1172  35.955  30.766   8.140
    3AU     AUL 1173  35.856  31.003   8.269
    3AU       S 1174  35.853  30.553   8.404
    3AU     LIG 1175  35.417  30.405   8.205
    3AU     LIG 1176  35.180  30.004   8.297
    3AU     LIG 1177  34.881  29.784   8.595
    3AU     LIG 1178  34.677  29.545   8.945
    3AU     LIG 1179  34.464  29.301   9.287
    3AU       S 1180  36.249  30.844   8.548
    3AU     LIG 1181  36.364  30.525   8.856
    3AU     LIG 1182  36.126  30.381   9.243
    3AU     LIG 1183  35.926  30.356   9.687
    3AU     LIG 1184  35.741  30.291  10.126
    3AU     LIG 1185  35.725  30.160  10.597
    3AU    AUSL 1186  36.101  30.887   6.765
    3AU    AUSL 1187  36.287  30.529   6.957
    3AU     AUL 1188  36.325  30.513   6.628
    3AU       S 1189  36.017  30.775   6.393
    3AU     LIG 1190  35.787  30.648   5.991
    3AU     LIG 1191  35.547  30.565   5.580
    3AU     LIG 1192  35.311  30.515   5.180
    3AU     LIG 1193  35.025  30.769   4.908
    3AU     LIG 1194  34.828  31.096   4.616
    3AU       S 1195  35.909  30.386   6.772
    3AU     LIG 1196  35.928  29.911   6.693
    3AU     LIG 1197  35.597  29.601   6.557
    3AU     LIG 1198  35.283  29.375   6.259
    3AU     LIG 1199  35.098  29.045   5.964
    3AU     LIG 1200  35.036  28.936   5.509
    3AU    AUSL 1201  36.354  31.183   6.563
    3AU    AUSL 1202  35.904  31.243   6.908
    3AU     AUL 1203  35.995  31.196   6.582
    3AU       S 1204  35.623  31.437   6.729
    3AU     LIG 1205  35.373  31.798   6.569
    3AU     LIG 1206  35.384  32.035   6.153
    3AU     LIG 1207  35.109  32.038   5.738
    3AU     LIG 1208  34.704  32.070   5.452
    3AU     LIG 1209  34.291  32.275   5.279
    3AU       S 1210  36.325  31.054   6.282
    3AU     LIG 1211  36.031  31.108   5.941
    3AU     LIG 1212  35.941  30.892   5.541
    3AU     LIG 1213  35.760  30.852   5.108
    3AU     LIG 1214  35.759  31.155   4.715
    3AU     LIG 1215  35.802  31.429   4.313
    3AU    AUSL 1216  37.404  31.496   7.527
    3AU    AUSL 1217  37.321  31.324   7.122
    3AU     AUL 1218  37.665  31.606   7.306
    3AU       S 1219  37.433  31.498   6.932
    3AU     LIG 1220  37.692  31.290   6.677
    3AU     LIG 1221  37.934  31.430   6.297
    3AU     LIG 1222  38.227  31.577   5.947
    3AU     LIG 1223  38.498  31.854   5.664
    3AU     LIG 1224  38.845  32.010   5.370
    3AU       S 1225  37.778  31.359   7.693
    3AU     LIG 1226  38.166  31.533   7.560
    3AU     LIG 1227  38.642  31.499   7.504
    3AU     LIG 1228  39.109  31.682   7.506
    3AU     LIG 1229  39.421  32.059   7.528
    3AU     LIG 1230  39.550  32.505   7.377
    3AU    AUSL 1231  37.570  31.093   7.374
    3AU    AUSL 1232  37.514  30.769   7.717
    3AU     AUL 1233  37.868  30.845   7.645
    3AU       S 1234  37.700  31.159   7.384
    3AU     LIG 1235  38.037  31.293   7.117
    3AU     LIG 1236  38.514  31.179   7.074
    3AU     LIG 1237  38.955  31.377   7.114
    3AU     LIG 1238  39.428  31.376   7.095
    3AU     LIG 1239  39.907  31.548   7.119
    3AU       S 1240  37.741  30.396   7.688
    3AU     LIG 1241  37.984  30.340   8.008
    3AU     LIG 1242  38.297  30.026   7.984
    3AU     LIG 1243  38.728  29.849   7.946
    3AU     LIG 1244  39.121  30.036   7.746
    3AU     LIG 1245  39.523  30.259   7.836
    3AU    AUSL 1246  37.307  31.135   7.732
    3AU    AUSL 1247  37.057  31.544   7.772
    3AU     AUL 1248  37.387  31.581   7.825
    3AU       S 1249  37.375  31.750   8.251
    3AU     LIG 1250  37.802  31.800   8.386
    3AU     LIG 1251  38.052  32.025   8.718
    3AU     LIG 1252  38.377  32.305   8.939
    3AU     LIG 1253  38.651  32.728   8.874
    3AU     LIG 1254  38.706  33.209   8.758
    3AU       S 1255  37.640  31.196   7.856
    3AU     LIG 1256  38.113  31.206   8.002
    3AU     LIG 1257  38.578  31.213   7.934
    3AU     LIG 1258  39.023  31.295   7.835
    3AU     LIG 1259  39.438  31.280   7.974
    3AU     LIG 1260  39.832  31.500   8.023
    3AU    AUSL 1261  35.949  31.592   7.491
    3AU    AUSL 1262  36.018  31.397   7.886
    3AU     AUL 1263  35.707  31.698   7.731
    3AU       S 1264  35.857  31.578   8.148
    3AU     LIG 1265  35.741  31.505   8.579
    3AU     LIG 1266  35.619  31.785   8.949
    3AU     LIG 1267  35.304  31.981   9.259
    3AU     LIG 1268  34.895  32.037   9.519
    3AU     LIG 1269  34.513  32.033   9.822
    3AU       S 1270  35.927  31.957   7.402
    3AU     LIG 1271  35.469  32.058   7.449
    3AU     LIG 1272  35.074  32.332   7.605
    3AU     LIG 1273  34.710  32.654   7.749
    3AU     LIG 1274  34.316  32.969   7.765
    3AU     LIG 1275  33.858  33.140   7.796
    3AU    AUSL 1276  35.897  31.195   7.318
    3AU    AUSL 1277  36.015  31.628   7.075
    3AU     AUL 1278  35.716  31.508   7.187
    3AU       S 1279  35.527  30.995   6.973
    3AU     LIG 1280  35.235  31.378   7.032
    3AU     LIG 1281  34.916  31.675   6.856
    3AU     LIG 1282  34.443  31.765   6.809
    3AU     LIG 1283  34.031  31.981   6.743
    3AU     LIG 1284  33.572  32.030   6.775
    3AU       S 1285  35.849  31.876   6.895
    3AU     LIG 1286  35.682  32.216   6.592
    3AU     LIG 1287  35.761  32.664   6.387
    3AU     LIG 1288  35.621  32.959   6.062
    3AU     LIG 1289  35.228  33.213   6.032
    3AU     LIG 1290  34.897  33.532   6.102
    3AU    AUSL 1291  35.682  31.246   7.693
    3AU    AUSL 1292  35.653  30.866   7.403
    3AU     AUL 1293  35.494  31.179   7.417
    3AU       S 1294  35.430  30.782   7.674
    3AU     LIG 1295  34.985  30.625   7.469
    3AU     LIG 1296  34.485  30.543   7.466
    3AU     LIG 1297  34.012  30.612   7.334
    3AU     LIG 1298  33.562  30.441   7.211
    3AU     LIG 1299  33.263  30.139   6.951
    3AU       S 1300  35.549  31.270   7.920
    3AU     LIG 1301  35.191  31.461   7.729
    3AU     LIG 1302  34.718  31.453   7.822
    3AU     LIG 1303  34.283  31.441   8.037
    3AU     LIG 1304  33.883  31.644   8.226
    3AU     LIG 1305  33.533  31.952   8.341
    3AU    AUSL 1306  37.285  30.435   7.562
    3AU    AUSL 1307  37.133  30.697   7.890
    3AU     AUL 1308  37.441  30.605   7.974
    3AU       S 1309  37.492  30.279   7.543
    3AU     LIG 1310  37.883  29.938   7.616
    3AU     LIG 1311  38.333  29.835   7.501
    3AU     LIG 1312  38.796  29.726   7.449
    3AU     LIG 1313  39.089  29.355   7.558
    3AU     LIG 1314  39.283  28.908   7.491
    3AU       S 1315  37.351  30.160   7.988
    3AU     LIG 1316  37.639  29.916   8.283
    3AU     LIG 1317  37.831  29.677   8.648
    3AU     LIG 1318  38.067  29.455   8.993
    3AU     LIG 1319  38.424  29.486   9.308
    3AU     LIG 1320  38.797  29.372   9.587
    3AU    AUSL 1321  37.268  30.810   7.356
    3AU    AUSL 1322  37.219  30.397   7.146
    3AU     AUL 1323  37.505  30.627   7.192
    3AU       S 1324  37.760  30.404   7.481
    3AU     LIG 1325  38.140  30.257   7.239
    3AU     LIG 1326  38.572  30.105   7.111
    3AU     LIG 1327  39.022  30.171   7.234
    3AU     LIG 1328  39.477  30.077   7.340
    3AU     LIG 1329  39.853  29.812   7.188
    3AU       S 1330  37.426  30.260   6.883
    3AU     LIG 1331  37.516  29.802   6.731
    3AU     LIG 1332  37.645  29.354   6.549
    3AU     LIG 1333  37.785  28.926   6.321
    3AU     LIG 1334  38.091  28.555   6.188
    3AU     LIG 1335  38.456  28.205   6.149
    3AU    AUSL 1336  35.850  30.510   7.566
    3AU    AUSL 1337  35.953  30.743   7.135
    3AU     AUL 1338  35.604  30.575   7.276
    3AU       S 1339  35.786  30.544   6.850
    3AU     LIG 1340  35.458  30.148   6.707
    3AU     LIG 1341  35.129  29.821   6.516
    3AU     LIG 1342  34.784  29.552   6.302
    3AU     LIG 1343  34.360  29.510   6.063
    3AU     LIG 1344  34.094  29.760   5.759
    3AU       S 1345  35.423  30.556   7.716
    3AU     LIG 1346  35.287  30.204   7.475
    3AU     LIG 1347  34.814  30.107   7.409
    3AU     LIG 1348  34.333  30.015   7.486
    3AU     LIG 1349  33.932  29.730   7.544
    3AU     LIG 1350  33.560  29.623   7.838
    3AU    AUSL 1351  35.912  30.900   7.748
    3AU    AUSL 1352  36.167  30.532   7.850
    3AU     AUL 1353  35.833  30.506   7.915
    3AU       S 1354  35.877  30.338   8.345
    3AU     LIG 1355  35.729  30.029   8.002
    3AU     LIG 1356  35.461  29.669   8.008
    3AU     LIG 1357  35.130  29.468   8.270
    3AU     LIG 1358  34.809  29.257   8.536
    3AU     LIG 1359  34.619  29.013   8.884
    3AU       S 1360  35.489  30.808   7.852
    3AU     LIG 1361  34.993  30.988   7.823
    3AU     LIG 1362  34.473  31.003   7.738
    3AU     LIG 1363  34.008  30.847   7.821
    3AU     LIG 1364  33.605  30.584   7.906
    3AU     LIG 1365  33.365  30.172   7.823
    3AU    AUSL 1366  36.642  31.741   7.888
    3AU    AUSL 1367  36.208  31.765   7.786
    3AU     AUL 1368  36.432  31.842   8.167
    3AU       S 1369  36.080  31.956   7.878
    3AU     LIG 1370  35.837  32.257   8.125
    3AU     LIG 1371  35.865  32.506   8.528
    3AU     LIG 1372  35.652  32.771   8.867
    3AU     LIG 1373  35.401  33.197   8.912
    3AU     LIG 1374  34.991  33.436   8.972
    3AU       S 1375  36.659  32.167   7.938
    3AU     LIG 1376  36.729  32.188   8.380
    3AU     LIG 1377  36.890  32.538   8.635
    3AU     LIG 1378  36.949  32.987   8.774
    3AU     LIG 1379  36.791  33.336   9.043
    3AU     LIG 1380  36.859  33.586   9.446
    3AU    AUSL 1381  36.485  31.961   7.539
    3AU    AUSL 1382  36.765  31.864   7.198
    3AU     AUL 1383  36.701  32.221   7.325
    3AU       S 1384  36.500  32.204   7.763
    3AU     LIG 1385  36.657  32.662   7.969
    3AU     LIG 1386  36.663  32.911   8.359
    3AU     LIG 1387  36.574  33.330   8.551
    3AU     LIG 1388  36.569  33.817   8.496
    3AU     LIG 1389  36.515  34.276   8.344
    3AU       S 1390  36.470  32.096   6.952
    3AU     LIG 1391  36.903  32.347   6.902
    3AU     LIG 1392  36.998  32.770   6.760
    3AU     LIG 1393  36.993  33.222   6.659
    3AU     LIG 1394  37.003  33.694   6.679
    3AU     LIG 1395  37.029  34.167   6.721
    3AU    AUSL 1396  36.922  31.902   7.602
    3AU    AUSL 1397  36.913  31.611   8.179
    3AU     AUL 1398  37.020  31.864   7.961
    3AU       S 1399  37.156  31.692   8.401
    3AU     LIG 1400  37.500  31.577   8.736
    3AU     LIG 1401  37.769  31.752   9.059
    3AU     LIG 1402  37.969  32.116   9.254
    3AU     LIG 1403  37.973  32.402   9.632
    3AU     LIG 1404  37.845  32.776   9.911
    3AU       S 1405  36.851  32.244   7.762
    3AU     LIG 1406  37.096  32.407   8.112
    3AU     LIG 1407  37.165  32.828   8.303
    3AU     LIG 1408  37.054  33.284   8.358
    3AU     LIG 1409  37.074  33.757   8.425
    3AU     LIG 1410  37.023  34.242   8.414
    3AU    AUSL 1411  36.540  30.315   7.953
    3AU    AUSL 1412  36.951  30.316   7.791
    3AU     AUL 1413  36.777  30.198   8.177
    3AU       S 1414  36.509  29.854   8.016
    3AU     LIG 1415  36.383  29.556   8.309
    3AU     LIG 1416  36.078  29.245   8.411
    3AU     LIG 1417  36.071  28.785   8.425
    3AU     LIG 1418  36.227  28.410   8.651
    3AU     LIG 1419  36.275  28.077   8.975
    3AU       S 1420  37.107  30.090   7.844
    3AU     LIG 1421  37.174  29.676   8.084
    3AU     LIG 1422  37.487  29.416   8.354
    3AU     LIG 1423  37.795  29.146   8.620
    3AU     LIG 1424  37.952  28.708   8.780
    3AU     LIG 1425  38.272  28.376   8.915
    3AU    AUSL 1426  36.224  30.164   7.670
    3AU    AUSL 1427  36.325  30.494   8.262
    3AU     AUL 1428  36.198  30.210   8.034
    3AU       S 1429  36.312  29.796   7.858
    3AU     LIG 1430  35.976  29.540   7.988
    3AU     LIG 1431  35.883  29.079   7.964
    3AU     LIG 1432  36.039  28.647   7.937
    3AU     LIG 1433  36.056  28.250   8.183
    3AU     LIG 1434  36.025  27.947   8.543
    3AU       S 1435  36.114  30.381   8.464
    3AU     LIG 1436  35.977  29.872   8.422
    3AU     LIG 1437  35.541  29.670   8.523
    3AU     LIG 1438  35.207  29.445   8.811
    3AU     LIG 1439  34.993  29.216   9.184
    3AU     LIG 1440  34.799  29.048   9.592
    3AU    AUSL 1441  36.654  30.072   7.619
    3AU    AUSL 1442  36.433  30.311   7.325
    3AU     AUL 1443  36.302  29.973   7.430
    3AU       S 1444  36.656  29.868   7.171
    3AU     LIG 1445  36.218  29.647   7.074
    3AU     LIG 1446  36.090  29.215   7.161
    3AU     LIG 1447  36.065  28.763   7.011
    3AU     LIG 1448  35.986  28.325   6.827
    3AU     LIG 1449  35.867  27.871   6.963
    3AU       S 1450  36.651  29.862   7.763
    3AU     LIG 1451  36.576  29.381   7.816
    3AU     LIG 1452  36.402  29.012   8.064
    3AU     LIG 1453  36.491  28.555   8.213
    3AU     LIG 1454  36.775  28.194   8.386
    3AU     LIG 1455  37.030  27.795   8.517
    3AU    AUSL 1456  36.589  31.665   6.836
    3AU    AUSL 1457  37.139  31.695   7.270
    3AU     AUL 1458  36.916  31.853   6.915
    3AU       S 1459  36.512  32.043   6.734
    3AU     LIG 1460  36.617  32.491   6.524
    3AU     LIG 1461  36.657  32.929   6.380
    3AU     LIG 1462  36.767  33.127   5.966
    3AU     LIG 1463  36.895  33.458   5.648
    3AU     LIG 1464  36.869  33.923   5.555
    3AU       S 1465  37.320  31.851   7.135
    3AU     LIG 1466  37.795  31.964   6.951
    3AU     LIG 1467  38.011  32.112   6.545
    3AU     LIG 1468  38.251  32.478   6.317
    3AU     LIG 1469  38.489  32.911   6.224
    3AU     LIG 1470  38.589  33.281   5.924
    3AU    AUSL 1471  36.387  31.684   7.238
    3AU    AUSL 1472  36.325  31.351   6.941
    3AU     AUL 1473  36.261  31.651   6.802
    3AU       S 1474  36.316  32.026   7.085
    3AU     LIG 1475  36.441  32.568   7.014
    3AU     LIG 1476  36.569  33.011   6.937
    3AU     LIG 1477  36.530  33.441   6.725
    3AU     LIG 1478  36.546  33.939   6.706
    3AU     LIG 1479  36.265  34.313   6.726
    3AU       S 1480  35.838  31.637   6.638
    3AU     LIG 1481  36.082  31.937   6.419
    3AU     LIG 1482  35.923  32.252   6.117
    3AU     LIG 1483  35.820  32.507   5.726
    3AU     LIG 1484  35.740  32.599   5.248
    3AU     LIG 1485  35.571  32.828   4.858
    3AU    AUSL 1486  36.624  30.271   6.934
    3AU    AUSL 1487  36.026  30.318   7.233
    3AU     AUL 1488  36.288  30.154   6.989
    3AU       S 1489  35.840  30.273   7.019
    3AU     LIG 1490  35.634  29.903   7.132
    3AU     LIG 1491  35.283  29.623   6.969
    3AU     LIG 1492  35.041  29.301   6.699
    3AU     LIG 1493  34.786  29.037   6.387
    3AU     LIG 1494  34.412  28.810   6.177
    3AU       S 1495  36.668  29.863   6.953
    3AU     LIG 1496  36.570  29.459   6.765
    3AU     LIG 1497  36.237  29.150   6.669
    3AU     LIG 1498  36.218  28.709   6.522
    3AU     LIG 1499  36.198  28.475   6.112
    3AU     LIG 1500  36.297  28.394   5.650
    3AU    AUSL 1501  36.860  30.279   7.320
    3AU    AUSL 1502  36.882  30.597   6.967
    3AU     AUL 1503  36.969  30.216   6.967
    3AU       S 1504  36.878  29.865   7.264
    3AU     LIG 1505  36.638  29.396   7.281
    3AU     LIG 1506  36.543  28.981   7.045
    3AU     LIG 1507  36.555  28.515   6.904
    3AU     LIG 1508  36.861  28.113   6.873
    3AU     LIG 1509  36.880  27.634   6.756
    3AU       S 1510  37.184  30.421   6.622
    3AU     LIG 1511  37.067  29.982   6.537
    3AU     LIG 1512  37.256  29.617   6.309
    3AU     LIG 1513  37.524  29.312   6.046
    3AU     LIG 1514  37.764  29.088   5.700
    3AU     LIG 1515  38.002  29.031   5.290
    4AU     AUC 1516  37.218  39.434   7.502
    4AU     AUC 1517  37.508  39.436   7.331
    4AU     AUC 1518  37.484  39.412   7.678
    4AU     AUC 1519  36.930  39.430   7.338
    4AU     AUC 1520  36.949  39.471   7.686
    4AU     AUC 1521  37.050  39.719   7.497
    4AU     AUC 1522  37.408  39.709   7.492
    4AU     AUC 1523  37.024  39.168   7.509
    4AU     AUC 1524  37.379  39.142   7.499
    4AU     AUC 1525  37.215  39.256   7.778
    4AU     AUC 1526  37.214  39.623   7.762
    4AU     AUC 1527  37.212  39.269   7.227
    4AU     AUC 1528  37.238  39.590   7.225
    4AU     AUC 1529  37.827  39.440   7.168
    4AU     AUC 1530  37.830  39.398   7.526
    4AU     AUC 1531  37.770  39.381   7.875
    4AU     AUC 1532  36.626  39.427   7.172
    4AU     AUC 1533  36.609  39.465   7.537
    4AU     AUC 1534  36.664  39.506   7.874
    4AU     AUC 1535  36.891  40.023   7.470
    4AU     AUC 1536  37.258  40.043   7.451
    4AU     AUC 1537  37.597  39.987   7.484
    4AU     AUC 1538  36.821  38.897   7.514
    4AU     AUC 1539  37.168  38.835   7.491
    4AU     AUC 1540  37.538  38.839   7.475
    4AU     AUC 1541  37.196  39.076   8.068
    4AU     AUC 1542  37.213  39.440   8.098
    4AU     AUC 1543  37.241  39.799   8.053
    4AU     AUC 1544  37.235  39.098   6.948
    4AU     AUC 1545  37.237  39.425   6.892
    4AU     AUC 1546  37.224  39.740   6.933
    4AU     AUC 1547  37.485  39.200   7.992
    4AU     AUC 1548  37.520  39.584   7.992
    4AU     AUC 1549  37.557  39.283   7.004
    4AU     AUC 1550  37.557  39.610   7.044
    4AU     AUC 1551  36.914  39.312   8.018
    4AU     AUC 1552  36.940  39.686   7.991
    4AU     AUC 1553  36.913  39.251   7.042
    4AU     AUC 1554  36.895  39.563   6.999
    4AU     AUC 1555  37.763  39.718   7.359
    4AU     AUC 1556  37.694  39.686   7.704
    4AU     AUC 1557  36.725  39.732   7.330
    4AU     AUC 1558  36.752  39.790   7.684
    4AU     AUC 1559  37.695  39.123   7.327
    4AU     AUC 1560  37.669  39.082   7.676
    4AU     AUC 1561  36.688  39.138   7.363
    4AU     AUC 1562  36.745  39.187   7.723
    4AU     AUC 1563  37.073  39.965   7.757
    4AU     AUC 1564  37.414  39.915   7.775
    4AU     AUC 1565  37.015  38.962   7.806
    4AU     AUC 1566  37.338  38.907   7.771
    4AU     AUC 1567  37.039  39.869   7.185
    4AU     AUC 1568  37.428  39.903   7.198
    4AU     AUC 1569  37.008  38.968   7.208
    4AU     AUC 1570  37.404  38.976   7.203
    4AU    AUSL 1571  37.741  39.317   8.232
    4AU    AUSL 1572  37.477  38.908   8.148
    4AU     AUL 1573  37.764  38.912   8.379
    4AU       S 1574  37.852  38.577   8.083
    4AU     LIG 1575  37.744  38.399   8.474
    4AU     LIG 1576  37.884  38.115   8.803
    4AU     LIG 1577  38.142  37.771   8.978
    4AU     LIG 1578  38.418  37.512   9.254
    4AU     LIG 1579  38.400  37.325   9.695
    4AU       S 1580  37.965  39.315   8.345
    4AU     LIG 1581  37.831  39.321   8.790
    4AU     LIG 1582  37.988  39.377   9.224
    4AU     LIG 1583  38.232  39.161   9.560
    4AU     LIG 1584  38.528  39.160   9.914
    4AU     LIG 1585  38.782  39.412  10.210
    4AU    AUSL 1586  37.338  39.235   8.398
    4AU    AUSL 1587  37.088  39.629   8.424
    4AU     AUL 1588  37.277  39.537   8.741
    4AU       S 1589  37.415  39.157   8.541
    4AU     LIG 1590  37.393  39.102   8.974
    4AU     LIG 1591  37.660  38.997   9.339
    4AU     LIG 1592  37.856  38.869   9.747
    4AU     LIG 1593  37.973  38.731  10.178
    4AU     LIG 1594  37.910  38.535  10.609
    4AU       S 1595  36.867  39.366   8.638
    4AU     LIG 1596  36.890  39.362   9.120
    4AU     LIG 1597  36.621  39.314   9.523
    4AU     LIG 1598  36.416  39.311   9.964
    4AU     LIG 1599  36.233  39.563  10.342
    4AU     LIG 1600  36.274  39.823  10.751
    4AU    AUSL 1601  37.409  39.605   8.161
    4AU    AUSL 1602  37.843  39.718   8.117
    4AU     AUL 1603  37.632  39.619   8.450
    4AU       S 1604  37.314  39.993   8.602
    4AU     LIG 1605  37.659  39.835   8.905
    4AU     LIG 1606  37.979  39.895   9.261
    4AU     LIG 1607  38.006  39.942   9.740
    4AU     LIG 1608  38.055  40.078  10.201
    4AU     LIG 1609  37.901  40.194  10.643
    4AU       S 1610  38.003  39.854   8.292
    4AU     LIG 1611  38.397  39.741   8.402
    4AU     LIG 1612  38.681  39.950   8.707
    4AU     LIG 1613  38.914  40.174   9.038
    4AU     LIG 1614  39.141  40.517   9.244
    4AU     LIG 1615  39.437  40.632   9.583
    4AU    AUSL 1616  37.782  39.557   6.785
    4AU    AUSL 1617  37.574  39.897   6.967
    4AU     AUL 1618  37.697  39.928   6.634
    4AU       S 1619  37.747  39.608   6.313
    4AU     LIG 1620  38.104  39.432   6.134
    4AU     LIG 1621  38.135  39.134   5.804
    4AU     LIG 1622  38.215  39.041   5.366
    4AU     LIG 1623  38.538  39.042   5.034
    4AU     LIG 1624  38.969  39.115   4.863
    4AU       S 1625  38.024  40.127   6.883
    4AU     LIG 1626  38.082  40.313   6.472
    4AU     LIG 1627  38.256  40.500   6.053
    4AU     LIG 1628  38.503  40.701   5.693
    4AU     LIG 1629  38.546  40.926   5.270
    4AU     LIG 1630  38.751  41.282   5.029
    4AU    AUSL 1631  37.540  39.241   6.611
    4AU    AUSL 1632  37.892  39.167   6.919
    4AU     AUL 1633  37.955  39.310   6.617
    4AU       S 1634  38.015  38.849   6.673
    4AU     LIG 1635  38.384  38.565   6.531
    4AU     LIG 1636  38.471  38.130   6.369
    4AU     LIG 1637  38.649  37.889   6.005
    4AU     LIG 1638  38.960  37.874   5.653
    4AU     LIG 1639  39.405  37.883   5.487
    4AU       S 1640  37.629  39.492   6.324
    4AU     LIG 1641  37.706  39.093   6.136
    4AU     LIG 1642  37.718  38.840   5.734
    4AU     LIG 1643  37.743  38.864   5.259
    4AU     LIG 1644  37.853  38.747   4.804
    4AU     LIG 1645  37.937  38.557   4.368
    4AU    AUSL 1646  37.356  39.612   6.734
    4AU    AUSL 1647  37.122  39.226   6.723
    4AU     AUL 1648  37.274  39.234   6.446
    4AU       S 1649  36.824  39.268   6.303
    4AU     LIG 1650  36.941  39.016   5.997
    4AU     LIG 1651  36.680  38.786   5.693
    4AU     LIG 1652  36.429  38.747   5.297
    4AU     LIG 1653  36.235  38.746   4.871
    4AU     LIG 1654  36.235  38.435   4.503
    4AU       S 1655  37.406  39.679   6.367
    4AU     LIG 1656  37.337  39.412   5.945
    4AU     LIG 1657  37.680  39.329   5.594
    4AU     LIG 1658  37.850  39.362   5.135
    4AU     LIG 1659  37.862  39.553   4.685
    4AU     LIG 1660  37.788  39.745   4.251
    4AU    AUSL 1661  36.690  39.580   8.251
    4AU    AUSL 1662  36.984  39.930   8.141
    4AU     AUL 1663  36.844  39.863   8.479
    4AU       S 1664  36.679  39.459   8.672
    4AU     LIG 1665  36.455  39.143   8.899
    4AU     LIG 1666  36.204  39.088   9.302
    4AU     LIG 1667  35.992  39.130   9.734
    4AU     LIG 1668  35.689  39.027  10.095
    4AU     LIG 1669  35.434  39.222  10.448
    4AU       S 1670  36.598  40.175   8.221
    4AU     LIG 1671  36.574  40.309   8.642
    4AU     LIG 1672  36.437  40.507   9.053
    4AU     LIG 1673  36.203  40.793   9.349
    4AU     LIG 1674  36.143  41.013   9.769
    4AU     LIG 1675  35.923  41.291  10.089
    4AU    AUSL 1676  36.988  39.290   8.167
    4AU    AUSL 1677  36.573  39.164   8.144
    4AU     AUL 1678  36.467  39.400   8.269
    4AU       S 1679  36.484  38.950   8.403
    4AU     LIG 1680  36.046  38.859   8.232
    4AU     LIG 1681  35.821  38.457   8.317
    4AU     LIG 1682  35.560  38.219   8.637
    4AU     LIG 1683  35.300  37.964   8.947
    4AU     LIG 1684  35.078  37.699   9.275
    4AU       S 1685  36.870  39.232   8.549
    4AU     LIG 1686  36.923  38.919   8.884
    4AU     LIG 1687  36.686  38.860   9.283
    4AU     LIG 1688  36.437  38.850   9.694
    4AU     LIG 1689  36.213  38.804  10.105
    4AU     LIG 1690  36.293  38.556  10.510
    4AU    AUSL 1691  36.713  39.339   6.775
    4AU    AUSL 1692  36.879  38.964   6.949
    4AU     AUL 1693  36.927  38.949   6.616
    4AU       S 1694  36.609  39.244   6.441
    4AU     LIG 1695  36.431  38.951   6.142
    4AU     LIG 1696  36.186  38.949   5.728
    4AU     LIG 1697  36.006  39.028   5.293
    4AU     LIG 1698  35.676  38.999   4.960
    4AU     LIG 1699  35.334  39.223   4.725
    4AU       S 1700  36.505  38.863   6.769
    4AU     LIG 1701  36.542  38.483   6.549
    4AU     LIG 1702  36.236  38.171   6.385
    4AU     LIG 1703  35.901  37.985   6.119
    4AU     LIG 1704  35.761  37.820   5.702
    4AU     LIG 1705  35.764  37.555   5.317
    4AU    AUSL 1706  36.975  39.627   6.570
    4AU    AUSL 1707  36.503  39.681   6.926
    4AU     AUL 1708  36.623  39.678   6.594
    4AU       S 1709  36.223  39.867   6.757
    4AU     LIG 1710  35.983  40.113   6.442
    4AU     LIG 1711  35.969  40.352   6.042
    4AU     LIG 1712  35.861  40.461   5.589
    4AU     LIG 1713  35.486  40.490   5.281
    4AU     LIG 1714  35.110  40.512   4.987
    4AU       S 1715  36.907  39.492   6.270
    4AU     LIG 1716  36.593  39.395   5.893
    4AU     LIG 1717  36.530  39.230   5.466
    4AU     LIG 1718  36.401  39.235   5.020
    4AU     LIG 1719  36.336  39.542   4.655
    4AU     LIG 1720  36.465  39.787   4.265
    4AU    AUSL 1721  38.018  39.907   7.548
    4AU    AUSL 1722  37.940  39.723   7.143
    4AU     AUL 1723  38.284  40.002   7.323
    4AU       S 1724  38.068  39.887   6.943
    4AU     LIG 1725  38.190  39.795   6.522
    4AU     LIG 1726  38.478  40.060   6.246
    4AU     LIG 1727  38.761  40.378   6.026
    4AU     LIG 1728  39.052  40.521   5.685
    4AU     LIG 1729  39.500  40.582   5.512
    4AU       S 1730  38.404  39.788   7.733
    4AU     LIG 1731  38.865  39.827   7.578
    4AU     LIG 1732  39.337  39.961   7.508
    4AU     LIG 1733  39.781  40.165   7.441
    4AU     LIG 1734  40.009  40.600   7.351
    4AU     LIG 1735  40.156  41.070   7.447
    4AU    AUSL 1736  38.201  39.515   7.408
    4AU    AUSL 1737  38.135  39.182   7.708
    4AU     AUL 1738  38.514  39.285   7.748
    4AU       S 1739  38.330  39.566   7.453
    4AU     LIG 1740  38.684  39.566   7.181
    4AU     LIG 1741  39.171  39.653   7.118
    4AU     LIG 1742  39.672  39.766   7.122
    4AU     LIG 1743  40.157  39.927   7.141
    4AU     LIG 1744  40.536  40.215   7.274
    4AU       S 1745  38.377  38.902   7.529
    4AU     LIG 1746  38.857  38.841   7.503
    4AU     LIG 1747  39.203  38.538   7.586
    4AU     LIG 1748  39.543  38.370   7.853
    4AU     LIG 1749  40.015  38.399   7.935
    4AU     LIG 1750  40.475  38.497   8.032
    4AU    AUSL 1751  37.920  39.543   7.749
    4AU    AUSL 1752  37.670  39.947   7.791
    4AU     AUL 1753  37.995  39.992   7.845
    4AU       S 1754  37.982  40.156   8.273
    4AU     LIG 1755  38.395  40.278   8.433
    4AU     LIG 1756  38.699  40.518   8.715
    4AU     LIG 1757  38.895  40.937   8.896
    4AU     LIG 1758  39.019  41.441   8.852
    4AU     LIG 1759  39.289  41.857   8.897
    4AU       S 1760  38.244  39.612   7.894
    4AU     LIG 1761  38.752  39.624   8.042
    4AU     LIG 1762  39.220  39.645   7.923
    4AU     LIG 1763  39.716  39.683   7.990
    4AU     LIG 1764  40.220  39.743   7.994
    4AU     LIG 1765  40.582  40.042   7.966
    4AU    AUSL 1766  36.571  40.012   7.517
    4AU    AUSL 1767  36.638  39.811   7.906
    4AU     AUL 1768  36.332  40.120   7.749
    4AU       S 1769  36.486  39.979   8.158
    4AU     LIG 1770  36.334  39.845   8.540
    4AU     LIG 1771  36.140  40.123   8.862
    4AU     LIG 1772  35.907  40.468   9.075
    4AU     LIG 1773  35.556  40.564   9.373
    4AU     LIG 1774  35.113  40.613   9.540
    4AU       S 1775  36.577  40.392   7.441
    4AU     LIG 1776  36.113  40.366   7.349
    4AU     LIG 1777  35.677  40.575   7.388
    4AU     LIG 1778  35.348  40.942   7.420
    4AU     LIG 1779  34.976  41.263   7.400
    4AU     LIG 1780  34.506  41.315   7.422
    4AU    AUSL 1781  36.509  39.620   7.335
    4AU    AUSL 1782  36.630  40.057   7.103
    4AU     AUL 1783  36.328  39.933   7.215
    4AU       S 1784  36.122  39.436   6.999
    4AU     LIG 1785  35.811  39.806   7.075
    4AU     LIG 1786  35.356  39.993   6.963
    4AU     LIG 1787  34.951  40.127   6.694
    4AU     LIG 1788  34.468  40.206   6.751
    4AU     LIG 1789  33.991  40.173   6.748
    4AU       S 1790  36.467  40.307   6.945
    4AU     LIG 1791  36.222  40.550   6.614
    4AU     LIG 1792  36.174  40.800   6.218
    4AU     LIG 1793  36.030  41.237   6.067
    4AU     LIG 1794  35.846  41.689   6.045
    4AU     LIG 1795  35.517  42.031   6.030
    4AU    AUSL 1796  36.301  39.665   7.714
    4AU    AUSL 1797  36.263  39.293   7.419
    4AU     AUL 1798  36.104  39.607   7.444
    4AU       S 1799  36.065  39.206   7.701
    4AU     LIG 1800  35.731  39.249   7.375
    4AU     LIG 1801  35.253  39.113   7.339
    4AU     LIG 1802  34.780  38.988   7.247
    4AU     LIG 1803  34.340  38.773   7.245
    4AU     LIG 1804  33.927  38.621   7.066
    4AU       S 1805  36.155  39.699   7.934
    4AU     LIG 1806  35.773  39.881   7.740
    4AU     LIG 1807  35.286  39.896   7.875
    4AU     LIG 1808  34.901  40.084   8.138
    4AU     LIG 1809  34.415  40.130   8.180
    4AU     LIG 1810  33.960  40.283   8.295
    4AU    AUSL 1811  37.904  38.850   7.533
    4AU    AUSL 1812  37.760  39.089   7.881
    4AU     AUL 1813  38.083  38.984   7.934
    4AU       S 1814  38.185  38.729   7.520
    4AU     LIG 1815  38.542  38.422   7.475
    4AU     LIG 1816  38.905  38.129   7.533
    4AU     LIG 1817  39.363  38.012   7.513
    4AU     LIG 1818  39.689  37.660   7.579
    4AU     LIG 1819  39.812  37.268   7.806
    4AU       S 1820  37.958  38.544   7.929
    4AU     LIG 1821  38.224  38.319   8.272
    4AU     LIG 1822  38.381  38.109   8.651
    4AU     LIG 1823  38.655  37.843   8.922
    4AU     LIG 1824  38.908  37.726   9.304
    4AU     LIG 1825  39.193  37.842   9.679
    4AU    AUSL 1826  37.909  39.230   7.331
    4AU    AUSL 1827  37.809  38.789   7.123
    4AU     AUL 1828  38.070  38.967   7.137
    4AU       S 1829  38.443  39.080   7.341
    4AU     LIG 1830  38.577  38.737   7.068
    4AU     LIG 1831  38.965  38.444   7.127
    4AU     LIG 1832  39.474  38.392   7.173
    4AU     LIG 1833  39.961  38.369   7.086
    4AU     LIG 1834  40.365  38.124   7.205
    4AU       S 1835  37.993  38.638   6.818
    4AU     LIG 1836  38.103  38.213   6.798
    4AU     LIG 1837  38.233  37.793   6.685
    4AU     LIG 1838  38.446  37.568   6.354
    4AU     LIG 1839  38.792  37.305   6.177
    4AU     LIG 1840  39.129  36.960   6.220
    4AU    AUSL 1841  36.462  38.931   7.568
    4AU    AUSL 1842  36.552  39.179   7.135
    4AU     AUL 1843  36.208  39.000   7.287
    4AU       S 1844  36.379  39.015   6.853
    4AU     LIG 1845  36.095  38.768   6.524
    4AU     LIG 1846  35.788  38.438   6.408
    4AU     LIG 1847  35.446  38.147   6.276
    4AU     LIG 1848  35.289  37.941   5.889
    4AU     LIG 1849  35.019  37.914   5.497
    4AU       S 1850  36.032  38.987   7.731
    4AU     LIG 1851  35.629  38.800   7.605
    4AU     LIG 1852  35.177  38.648   7.546
    4AU     LIG 1853  34.730  38.524   7.483
    4AU     LIG 1854  34.332  38.258   7.459
    4AU     LIG 1855  34.256  37.777   7.417
    4AU    AUSL 1856  36.531  39.316   7.759
    4AU    AUSL 1857  36.782  38.939   7.848
    4AU     AUL 1858  36.450  38.904   7.912
    4AU       S 1859  36.505  38.738   8.344
    4AU     LIG 1860  36.324  38.431   8.059
    4AU     LIG 1861  36.056  38.048   8.088
    4AU     LIG 1862  35.701  37.828   8.334
    4AU     LIG 1863  35.400  37.573   8.624
    4AU     LIG 1864  35.144  37.307   8.928
    4AU       S 1865  36.127  39.232   7.878
    4AU     LIG 1866  35.641  39.397   7.860
    4AU     LIG 1867  35.155  39.357   7.782
    4AU     LIG 1868  34.820  38.992   7.755
    4AU     LIG 1869  34.374  38.762   7.766
    4AU     LIG 1870  33.909  38.674   7.739
    4AU    AUSL 1871  37.262  40.145   7.900
    4AU    AUSL 1872  36.831  40.179   7.812
    4AU     AUL 1873  37.064  40.242   8.190
    4AU       S 1874  36.691  40.379   7.935
    4AU     LIG 1875  36.378  40.611   8.248
    4AU     LIG 1876  36.160  40.715   8.673
    4AU     LIG 1877  35.941  41.064   8.945
    4AU     LIG 1878  35.664  41.490   8.988
    4AU     LIG 1879  35.249  41.750   9.063
    4AU       S 1880  37.270  40.572   7.947
    4AU     LIG 1881  37.460  40.592   8.337
    4AU     LIG 1882  37.575  41.014   8.542
    4AU     LIG 1883  37.507  41.449   8.738
    4AU     LIG 1884  37.424  41.721   9.140
    4AU     LIG 1885  37.370  41.884   9.601
    4AU    AUSL 1886  37.107  40.366   7.552
    4AU    AUSL 1887  37.392  40.269   7.211
    4AU     AUL 1888  37.348  40.624   7.333
    4AU       S 1889  37.104  40.594   7.743
    4AU     LIG 1890  37.165  41.052   7.932
    4AU     LIG 1891  37.371  41.373   8.217
    4AU     LIG 1892  37.319  41.809   8.394
    4AU     LIG 1893  37.010  42.184   8.437
    4AU     LIG 1894  36.670  42.535   8.443
    4AU       S 1895  37.120  40.510   6.956
    4AU     LIG 1896  37.569  40.763   6.916
    4AU     LIG 1897  37.820  41.169   6.861
    4AU     LIG 1898  37.945  41.607   6.721
    4AU     LIG 1899  37.905  42.064   6.674
    4AU     LIG 1900  38.172  42.422   6.520
    4AU    AUSL 1901  37.544  40.305   7.615
    4AU    AUSL 1902  37.520  40.006   8.198
    4AU     AUL 1903  37.630  40.268   7.979
    4AU       S 1904  37.761  40.091   8.419
    4AU     LIG 1905  38.112  40.001   8.757
    4AU     LIG 1906  38.392  40.217   9.044
    4AU     LIG 1907  38.628  40.580   9.223
    4AU     LIG 1908  38.838  40.779   9.586
    4AU     LIG 1909  38.725  41.067   9.943
    4AU       S 1910  37.457  40.649   7.783
    4AU     LIG 1911  37.668  40.959   8.031
    4AU     LIG 1912  37.883  41.364   8.116
    4AU     LIG 1913  37.961  41.810   8.190
    4AU     LIG 1914  38.245  42.148   8.261
    4AU     LIG 1915  38.169  42.501   8.509
    4AU    AUSL 1916  37.156  38.717   7.936
    4AU    AUSL 1917  37.562  38.729   7.757
    4AU     AUL 1918  37.392  38.592   8.148
    4AU       S 1919  37.126  38.253   7.979
    4AU     LIG 1920  36.983  38.183   8.351
    4AU     LIG 1921  36.829  37.755   8.477
    4AU     LIG 1922  36.853  37.277   8.493
    4AU     LIG 1923  36.907  36.823   8.605
    4AU     LIG 1924  37.023  36.545   8.969
    4AU       S 1925  37.713  38.503   7.803
    4AU     LIG 1926  37.665  38.112   8.054
    4AU     LIG 1927  37.980  37.871   8.358
    4AU     LIG 1928  38.356  37.606   8.544
    4AU     LIG 1929  38.681  37.337   8.784
    4AU     LIG 1930  38.998  36.960   8.735
    4AU    AUSL 1931  36.829  38.573   7.660
    4AU    AUSL 1932  36.951  38.889   8.255
    4AU     AUL 1933  36.817  38.606   8.023
    4AU       S 1934  36.927  38.193   7.828
    4AU     LIG 1935  36.606  37.963   8.058
    4AU     LIG 1936  36.544  37.484   8.125
    4AU     LIG 1937  36.610  36.990   8.131
    4AU     LIG 1938  36.572  36.491   8.106
    4AU     LIG 1939  36.537  35.998   8.095
    4AU       S 1940  36.741  38.765   8.460
    4AU     LIG 1941  36.513  38.288   8.516
    4AU     LIG 1942  36.088  38.092   8.598
    4AU     LIG 1943  35.803  37.812   8.846
    4AU     LIG 1944  35.562  37.562   9.150
    4AU     LIG 1945  35.462  37.533   9.606
    4AU    AUSL 1946  37.257  38.484   7.594
    4AU    AUSL 1947  37.022  38.732   7.313
    4AU     AUL 1948  36.898  38.395   7.410
    4AU       S 1949  37.253  38.294   7.147
    4AU     LIG 1950  36.828  38.052   7.065
    4AU     LIG 1951  36.647  37.637   7.012
    4AU     LIG 1952  36.629  37.178   6.920
    4AU     LIG 1953  36.603  36.720   6.800
    4AU     LIG 1954  36.528  36.251   6.701
    4AU       S 1955  37.261  38.271   7.726
    4AU     LIG 1956  37.261  37.797   7.846
    4AU     LIG 1957  37.060  37.413   8.039
    4AU     LIG 1958  37.124  36.950   8.157
    4AU     LIG 1959  37.184  36.475   8.243
    4AU     LIG 1960  37.400  36.044   8.121
    4AU    AUSL 1961  37.212  40.070   6.848
    4AU    AUSL 1962  37.772  40.110   7.278
    4AU     AUL 1963  37.551  40.263   6.926
    4AU       S 1964  37.149  40.439   6.742
    4AU     LIG 1965  37.263  40.869   6.539
    4AU     LIG 1966  37.583  41.206   6.383
    4AU     LIG 1967  37.700  41.556   6.070
    4AU     LIG 1968  37.720  41.836   5.675
    4AU     LIG 1969  37.553  42.189   5.405
    4AU       S 1970  37.960  40.260   7.130
    4AU     LIG 1971  38.365  40.466   6.904
    4AU     LIG 1972  38.563  40.564   6.478
    4AU     LIG 1973  38.803  40.919   6.247
    4AU     LIG 1974  39.053  41.357   6.296
    4AU     LIG 1975  39.380  41.736   6.301
    4AU    AUSL 1976  37.011  40.098   7.248
    4AU    AUSL 1977  36.929  39.772   6.956
    4AU     AUL 1978  36.868  40.074   6.820
    4AU       S 1979  36.946  40.452   7.100
    4AU     LIG 1980  37.100  40.978   7.038
    4AU     LIG 1981  37.329  41.349   6.817
    4AU     LIG 1982  37.302  41.831   6.710
    4AU     LIG 1983  36.985  42.228   6.686
    4AU     LIG 1984  36.598  42.554   6.661
    4AU       S 1985  36.428  40.095   6.684
    4AU     LIG 1986  36.454  40.264   6.250
    4AU     LIG 1987  36.411  40.507   5.835
    4AU     LIG 1988  36.332  40.609   5.374
    4AU     LIG 1989  36.241  40.909   5.018
    4AU     LIG 1990  36.005  41.321   4.990
    4AU    AUSL 1991  37.209  38.700   6.918
    4AU    AUSL 1992  36.616  38.748   7.219
    4AU     AUL 1993  36.867  38.586   6.973
    4AU       S 1994  36.408  38.710   6.977
    4AU     LIG 1995  36.098  38.356   6.844
    4AU     LIG 1996  35.801  37.984   6.646
    4AU     LIG 1997  35.446  37.652   6.485
    4AU     LIG 1998  35.095  37.261   6.487
    4AU     LIG 1999  34.865  36.816   6.406
    4AU       S 2000  37.248  38.292   6.942
    4AU     LIG 2001  37.205  37.843   6.799
    4AU     LIG 2002  36.958  37.470   6.632
    4AU     LIG 2003  36.830  37.063   6.437
    4AU     LIG 2004  36.908  36.850   6.023
    4AU     LIG 2005  37.114  36.650   5.644
    4AU    AUSL 2006  37.446  38.708   7.299
    4AU    AUSL 2007  37.479  39.017   6.957
    4AU     AUL 2008  37.543  38.647   6.925
    4AU       S 2009  37.494  38.303   7.236
    4AU     LIG 2010  37.259  37.846   7.324
    4AU     LIG 2011  37.111  37.425   7.121
    4AU     LIG 2012  37.105  36.998   6.873
    4AU     LIG 2013  37.074  36.524   6.753
    4AU     LIG 2014  37.047  36.041   6.762
    4AU       S 2015  37.773  38.836   6.582
    4AU     LIG 2016  37.717  38.382   6.490
    4AU     LIG 2017  37.970  38.019   6.299
    4AU     LIG 2018  38.151  37.731   5.950
    4AU     LIG 2019  38.203  37.516   5.503
    4AU     LIG 2020  38.327  37.431   5.035
    5AU     AUC 2021  14.677  24.540   7.501
    5AU     AUC 2022  14.959  24.547   7.328
    5AU     AUC 2023  14.938  24.521   7.677
    5AU     AUC 2024  14.394  24.536   7.334
    5AU     AUC 2025  14.410  24.576   7.684
    5AU     AUC 2026  14.511  24.826   7.494
    5AU     AUC 2027  14.867  24.817   7.489
    5AU     AUC 2028  14.486  24.273   7.508
    5AU     AUC 2029  14.836  24.245   7.502
    5AU     AUC 2030  14.672  24.362   7.778
    5AU     AUC 2031  14.675  24.730   7.763
    5AU     AUC 2032  14.676  24.375   7.225
    5AU     AUC 2033  14.699  24.697   7.222
    5AU     AUC 2034  15.278  24.549   7.169
    5AU     AUC 2035  15.280  24.499   7.527
    5AU     AUC 2036  15.222  24.487   7.876
    5AU     AUC 2037  14.091  24.530   7.167
    5AU     AUC 2038  14.072  24.569   7.532
    5AU     AUC 2039  14.124  24.610   7.870
    5AU     AUC 2040  14.353  25.128   7.467
    5AU     AUC 2041  14.719  25.150   7.449
    5AU     AUC 2042  15.058  25.091   7.481
    5AU     AUC 2043  14.288  24.001   7.510
    5AU     AUC 2044  14.634  23.938   7.493
    5AU     AUC 2045  14.996  23.940   7.485
    5AU     AUC 2046  14.650  24.182   8.070
    5AU     AUC 2047  14.672  24.549   8.099
    5AU     AUC 2048  14.704  24.908   8.051
    5AU     AUC 2049  14.706  24.204   6.946
    5AU     AUC 2050  14.701  24.532   6.889
    5AU     AUC 2051  14.685  24.848   6.928
    5AU     AUC 2052  14.934  24.308   7.998
    5AU     AUC 2053  14.982  24.692   7.991
    5AU     AUC 2054  15.022  24.396   7.002
    5AU     AUC 2055  15.016  24.721   7.038
    5AU     AUC 2056  14.372  24.417   8.016
    5AU     AUC 2057  14.401  24.792   7.988
    5AU     AUC 2058  14.380  24.355   7.039
    5AU     AUC 2059  14.359  24.668   6.995
    5AU     AUC 2060  15.220  24.821   7.352
    5AU     AUC 2061  15.155  24.790   7.699
    5AU     AUC 2062  14.187  24.837   7.326
    5AU     AUC 2063  14.214  24.895   7.679
    5AU     AUC 2064  15.153  24.228   7.336
    5AU     AUC 2065  15.110  24.175   7.692
    5AU     AUC 2066  14.154  24.241   7.358
    5AU     AUC 2067  14.207  24.290   7.719
    5AU     AUC 2068  14.536  25.072   7.755
    5AU     AUC 2069  14.878  25.022   7.773
    5AU     AUC 2070  14.474  24.064   7.807
    5AU     AUC 2071  14.788  24.005   7.777
    5AU     AUC 2072  14.501  24.976   7.182
    5AU     AUC 2073  14.887  25.012   7.193
    5AU     AUC 2074  14.479  24.073   7.205
    5AU     AUC 2075  14.875  24.084   7.205
    5AU    AUSL 2076  15.198  24.424   8.238
    5AU    AUSL 2077  14.915  24.017   8.157
    5AU     AUL 2078  15.213  24.019   8.367
    5AU       S 2079  15.293  23.652   8.111
    5AU     LIG 2080  15.185  23.495   8.481
    5AU     LIG 2081  15.288  23.109   8.675
    5AU     LIG 2082  15.516  22.828   8.948
    5AU     LIG 2083  15.728  22.531   9.218
    5AU     LIG 2084  15.792  22.460   9.673
    5AU       S 2085  15.422  24.420   8.366
    5AU     LIG 2086  15.305  24.425   8.805
    5AU     LIG 2087  15.490  24.289   9.231
    5AU     LIG 2088  15.858  24.178   9.548
    5AU     LIG 2089  16.251  24.130   9.848
    5AU     LIG 2090  16.602  24.291  10.144
    5AU    AUSL 2091  14.795  24.350   8.404
    5AU    AUSL 2092  14.546  24.739   8.422
    5AU     AUL 2093  14.736  24.656   8.739
    5AU       S 2094  14.886  24.267   8.561
    5AU     LIG 2095  14.861  24.234   9.001
    5AU     LIG 2096  15.044  24.041   9.380
    5AU     LIG 2097  15.076  23.808   9.792
    5AU     LIG 2098  15.210  23.638  10.210
    5AU     LIG 2099  15.305  23.686  10.664
    5AU       S 2100  14.328  24.479   8.636
    5AU     LIG 2101  14.380  24.473   9.106
    5AU     LIG 2102  14.130  24.421   9.506
    5AU     LIG 2103  13.882  24.420   9.917
    5AU     LIG 2104  13.784  24.688  10.311
    5AU     LIG 2105  13.670  24.945  10.706
    5AU    AUSL 2106  14.870  24.718   8.163
    5AU    AUSL 2107  15.311  24.817   8.108
    5AU     AUL 2108  15.094  24.730   8.451
    5AU       S 2109  14.772  25.109   8.584
    5AU     LIG 2110  15.098  24.986   8.900
    5AU     LIG 2111  15.173  25.047   9.375
    5AU     LIG 2112  15.089  25.197   9.837
    5AU     LIG 2113  15.237  25.244  10.290
    5AU     LIG 2114  15.401  25.199  10.725
    5AU       S 2115  15.473  24.948   8.292
    5AU     LIG 2116  15.896  24.965   8.320
    5AU     LIG 2117  16.171  25.154   8.658
    5AU     LIG 2118  16.399  25.374   9.013
    5AU     LIG 2119  16.605  25.664   9.324
    5AU     LIG 2120  16.782  25.816   9.739
    5AU    AUSL 2121  15.242  24.672   6.774
    5AU    AUSL 2122  15.032  25.009   6.961
    5AU     AUL 2123  15.153  25.047   6.628
    5AU       S 2124  15.206  24.719   6.313
    5AU     LIG 2125  15.537  24.485   6.094
    5AU     LIG 2126  15.577  24.230   5.703
    5AU     LIG 2127  15.807  24.144   5.308
    5AU     LIG 2128  16.235  24.205   5.099
    5AU     LIG 2129  16.609  24.361   4.852
    5AU       S 2130  15.479  25.242   6.884
    5AU     LIG 2131  15.520  25.435   6.491
    5AU     LIG 2132  15.715  25.636   6.099
    5AU     LIG 2133  15.937  25.791   5.712
    5AU     LIG 2134  16.110  26.035   5.351
    5AU     LIG 2135  16.175  26.320   4.984
    5AU    AUSL 2136  15.008  24.347   6.609
    5AU    AUSL 2137  15.372  24.301   6.941
    5AU     AUL 2138  15.420  24.428   6.618
    5AU       S 2139  15.545  23.992   6.732
    5AU     LIG 2140  15.657  23.645   6.427
    5AU     LIG 2141  15.814  23.216   6.339
    5AU     LIG 2142  15.993  22.915   6.035
    5AU     LIG 2143  16.274  22.924   5.655
    5AU     LIG 2144  16.669  23.043   5.423
    5AU       S 2145  15.096  24.589   6.310
    5AU     LIG 2146  15.120  24.178   6.125
    5AU     LIG 2147  15.151  23.936   5.720
    5AU     LIG 2148  15.298  23.933   5.263
    5AU     LIG 2149  15.316  23.753   4.808
    5AU     LIG 2150  15.362  23.700   4.334
    5AU    AUSL 2151  14.818  24.720   6.727
    5AU    AUSL 2152  14.591  24.333   6.722
    5AU     AUL 2153  14.740  24.342   6.445
    5AU       S 2154  14.290  24.372   6.300
    5AU     LIG 2155  14.486  24.111   6.033
    5AU     LIG 2156  14.284  23.977   5.635
    5AU     LIG 2157  14.051  23.915   5.218
    5AU     LIG 2158  13.780  23.688   4.905
    5AU     LIG 2159  13.795  23.547   4.464
    5AU       S 2160  14.869  24.786   6.369
    5AU     LIG 2161  14.772  24.544   5.953
    5AU     LIG 2162  15.108  24.440   5.634
    5AU     LIG 2163  15.369  24.444   5.222
    5AU     LIG 2164  15.437  24.590   4.756
    5AU     LIG 2165  15.331  24.768   4.307
    5AU    AUSL 2166  14.148  24.687   8.247
    5AU    AUSL 2167  14.444  25.037   8.137
    5AU     AUL 2168  14.300  24.972   8.474
    5AU       S 2169  14.138  24.567   8.669
    5AU     LIG 2170  13.936  24.248   8.913
    5AU     LIG 2171  13.696  24.194   9.328
    5AU     LIG 2172  13.445  24.167   9.748
    5AU     LIG 2173  13.028  24.207  10.023
    5AU     LIG 2174  12.706  24.288  10.378
    5AU       S 2175  14.056  25.285   8.210
    5AU     LIG 2176  14.024  25.425   8.619
    5AU     LIG 2177  13.825  25.683   8.954
    5AU     LIG 2178  13.635  25.840   9.349
    5AU     LIG 2179  13.438  26.024   9.729
    5AU     LIG 2180  13.261  26.263  10.096
    5AU    AUSL 2181  14.447  24.398   8.168
    5AU    AUSL 2182  14.032  24.271   8.139
    5AU     AUL 2183  13.927  24.506   8.266
    5AU       S 2184  13.947  24.058   8.404
    5AU     LIG 2185  13.513  24.009   8.246
    5AU     LIG 2186  13.272  23.626   8.341
    5AU     LIG 2187  13.037  23.346   8.629
    5AU     LIG 2188  12.767  23.074   8.898
    5AU     LIG 2189  12.477  22.879   9.207
    5AU       S 2190  14.329  24.342   8.546
    5AU     LIG 2191  14.411  24.030   8.868
    5AU     LIG 2192  14.191  23.964   9.273
    5AU     LIG 2193  13.963  23.954   9.690
    5AU     LIG 2194  13.732  23.878  10.084
    5AU     LIG 2195  13.769  23.685  10.507
    5AU    AUSL 2196  14.179  24.440   6.771
    5AU    AUSL 2197  14.351  24.066   6.945
    5AU     AUL 2198  14.397  24.055   6.615
    5AU       S 2199  14.075  24.342   6.434
    5AU     LIG 2200  13.958  24.069   6.067
    5AU     LIG 2201  13.770  24.067   5.632
    5AU     LIG 2202  13.523  24.012   5.227
    5AU     LIG 2203  13.155  23.959   4.914
    5AU     LIG 2204  12.848  24.097   4.575
    5AU       S 2205  13.974  23.950   6.760
    5AU     LIG 2206  13.944  23.499   6.631
    5AU     LIG 2207  13.609  23.194   6.517
    5AU     LIG 2208  13.319  23.038   6.176
    5AU     LIG 2209  13.143  22.797   5.816
    5AU     LIG 2210  13.229  22.624   5.374
    5AU    AUSL 2211  14.435  24.732   6.567
    5AU    AUSL 2212  13.968  24.783   6.921
    5AU     AUL 2213  14.082  24.776   6.592
    5AU       S 2214  13.686  24.978   6.751
    5AU     LIG 2215  13.445  25.313   6.494
    5AU     LIG 2216  13.420  25.519   6.069
    5AU     LIG 2217  13.259  25.534   5.616
    5AU     LIG 2218  12.951  25.669   5.277
    5AU     LIG 2219  12.593  25.969   5.198
    5AU       S 2220  14.373  24.597   6.271
    5AU     LIG 2221  14.180  24.484   5.832
    5AU     LIG 2222  14.094  24.399   5.385
    5AU     LIG 2223  14.134  24.365   4.914
    5AU     LIG 2224  14.157  24.630   4.506
    5AU     LIG 2225  13.997  24.933   4.162
    5AU    AUSL 2226  15.483  25.003   7.540
    5AU    AUSL 2227  15.397  24.835   7.133
    5AU     AUL 2228  15.749  25.109   7.319
    5AU       S 2229  15.523  25.003   6.941
    5AU     LIG 2230  15.640  24.912   6.519
    5AU     LIG 2231  15.905  25.168   6.231
    5AU     LIG 2232  16.211  25.447   5.997
    5AU     LIG 2233  16.539  25.517   5.643
    5AU     LIG 2234  16.983  25.494   5.447
    5AU       S 2235  15.860  24.856   7.707
    5AU     LIG 2236  16.260  24.992   7.561
    5AU     LIG 2237  16.703  25.165   7.511
    5AU     LIG 2238  17.144  25.333   7.461
    5AU     LIG 2239  17.550  25.564   7.437
    5AU     LIG 2240  17.652  26.016   7.393
    5AU    AUSL 2241  15.645  24.599   7.382
    5AU    AUSL 2242  15.579  24.267   7.718
    5AU     AUL 2243  15.933  24.321   7.633
    5AU       S 2244  15.771  24.665   7.410
    5AU     LIG 2245  16.174  24.581   7.266
    5AU     LIG 2246  16.623  24.676   7.336
    5AU     LIG 2247  17.040  24.864   7.245
    5AU     LIG 2248  17.485  25.006   7.247
    5AU     LIG 2249  17.901  25.201   7.297
    5AU       S 2250  15.797  23.861   7.700
    5AU     LIG 2251  16.164  23.627   7.777
    5AU     LIG 2252  16.603  23.528   7.700
    5AU     LIG 2253  17.029  23.323   7.676
    5AU     LIG 2254  17.470  23.301   7.868
    5AU     LIG 2255  17.926  23.355   7.971
    5AU    AUSL 2256  15.382  24.639   7.738
    5AU    AUSL 2257  15.138  25.051   7.783
    5AU     AUL 2258  15.472  25.076   7.843
    5AU       S 2259  15.456  25.259   8.263
    5AU     LIG 2260  15.820  25.475   8.453
    5AU     LIG 2261  16.154  25.704   8.704
    5AU     LIG 2262  16.433  26.018   8.938
    5AU     LIG 2263  16.633  26.473   8.901
    5AU     LIG 2264  16.776  26.929   8.769
    5AU       S 2265  15.721  24.686   7.862
    5AU     LIG 2266  16.204  24.642   7.973
    5AU     LIG 2267  16.652  24.771   7.847
    5AU     LIG 2268  17.111  24.914   7.756
    5AU     LIG 2269  17.553  25.137   7.739
    5AU     LIG 2270  17.959  25.409   7.760
    5AU    AUSL 2271  14.033  25.116   7.512
    5AU    AUSL 2272  14.101  24.915   7.900
    5AU     AUL 2273  13.794  25.223   7.742
    5AU       S 2274  13.944  25.088   8.155
    5AU     LIG 2275  13.796  24.954   8.548
    5AU     LIG 2276  13.621  25.205   8.913
    5AU     LIG 2277  13.326  25.450   9.204
    5AU     LIG 2278  13.000  25.597   9.532
    5AU     LIG 2279  12.649  25.772   9.806
    5AU       S 2280  14.040  25.496   7.434
    5AU     LIG 2281  13.590  25.513   7.357
    5AU     LIG 2282  13.254  25.878   7.415
    5AU     LIG 2283  12.905  26.230   7.459
    5AU     LIG 2284  12.422  26.369   7.469
    5AU     LIG 2285  11.945  26.241   7.453
    5AU    AUSL 2286  13.971  24.724   7.331
    5AU    AUSL 2287  14.090  25.159   7.098
    5AU     AUL 2288  13.787  25.036   7.213
    5AU       S 2289  13.587  24.539   6.991
    5AU     LIG 2290  13.291  24.926   7.070
    5AU     LIG 2291  12.891  25.198   6.958
    5AU     LIG 2292  12.425  25.387   6.889
    5AU     LIG 2293  11.955  25.588   6.890
    5AU     LIG 2294  11.471  25.722   6.860
    5AU       S 2295  13.928  25.410   6.943
    5AU     LIG 2296  13.795  25.706   6.608
    5AU     LIG 2297  13.639  25.974   6.253
    5AU     LIG 2298  13.321  26.309   6.140
    5AU     LIG 2299  13.092  26.720   6.213
    5AU     LIG 2300  12.911  27.153   6.091
    5AU    AUSL 2301  13.763  24.768   7.710
    5AU    AUSL 2302  13.727  24.393   7.410
    5AU     AUL 2303  13.565  24.703   7.438
    5AU       S 2304  13.528  24.301   7.694
    5AU     LIG 2305  13.135  24.250   7.425
    5AU     LIG 2306  12.674  24.066   7.449
    5AU     LIG 2307  12.195  23.983   7.418
    5AU     LIG 2308  11.763  23.819   7.381
    5AU     LIG 2309  11.331  23.989   7.225
    5AU       S 2310  13.623  24.801   7.930
    5AU     LIG 2311  13.292  25.041   7.726
    5AU     LIG 2312  12.815  25.035   7.843
    5AU     LIG 2313  12.380  25.198   8.040
    5AU     LIG 2314  11.920  25.369   8.167
    5AU     LIG 2315  11.457  25.557   8.254
    5AU    AUSL 2316  15.343  23.944   7.550
    5AU    AUSL 2317  15.194  24.200   7.885
    5AU     AUL 2318  15.499  24.097   7.966
    5AU       S 2319  15.521  23.790   7.536
    5AU     LIG 2320  15.754  23.462   7.274
    5AU     LIG 2321  16.192  23.293   7.373
    5AU     LIG 2322  16.616  23.090   7.427
    5AU     LIG 2323  16.969  22.798   7.360
    5AU     LIG 2324  17.333  22.554   7.529
    5AU       S 2325  15.405  23.652   7.984
    5AU     LIG 2326  15.636  23.330   8.257
    5AU     LIG 2327  15.810  23.073   8.598
    5AU     LIG 2328  16.044  22.857   8.943
    5AU     LIG 2329  16.371  22.901   9.293
    5AU     LIG 2330  16.679  23.048   9.635
    5AU    AUSL 2331  15.337  24.324   7.356
    5AU    AUSL 2332  15.288  23.917   7.132
    5AU     AUL 2333  15.581  24.144   7.203
    5AU       S 2334  15.803  23.887   7.494
    5AU     LIG 2335  16.204  23.804   7.290
    5AU     LIG 2336  16.611  23.553   7.189
    5AU     LIG 2337  17.022  23.294   7.151
    5AU     LIG 2338  17.467  23.321   6.978
    5AU     LIG 2339  17.915  23.476   6.905
    5AU       S 2340  15.494  23.782   6.899
    5AU     LIG 2341  15.531  23.313   6.811
    5AU     LIG 2342  15.618  22.860   6.653
    5AU     LIG 2343  15.800  22.531   6.356
    5AU     LIG 2344  16.084  22.134   6.284
    5AU     LIG 2345  16.333  21.703   6.292
    5AU    AUSL 2346  13.927  24.032   7.561
    5AU    AUSL 2347  14.022  24.281   7.132
    5AU     AUL 2348  13.673  24.103   7.281
    5AU       S 2349  13.852  24.111   6.853
    5AU     LIG 2350  13.501  23.796   6.678
    5AU     LIG 2351  13.184  23.477   6.511
    5AU     LIG 2352  12.857  23.239   6.276
    5AU     LIG 2353  12.668  22.970   5.958
    5AU     LIG 2354  12.315  22.936   5.651
    5AU       S 2355  13.501  24.083   7.728
    5AU     LIG 2356  13.330  23.761   7.455
    5AU     LIG 2357  12.892  23.592   7.362
    5AU     LIG 2358  12.418  23.520   7.467
    5AU     LIG 2359  11.976  23.331   7.578
    5AU     LIG 2360  11.675  22.981   7.757
    5AU    AUSL 2361  13.992  24.418   7.751
    5AU    AUSL 2362  14.243  24.041   7.845
    5AU     AUL 2363  13.914  24.007   7.911
    5AU       S 2364  13.965  23.847   8.344
    5AU     LIG 2365  13.739  23.557   8.078
    5AU     LIG 2366  13.413  23.205   8.081
    5AU     LIG 2367  13.122  22.926   8.344
    5AU     LIG 2368  12.863  22.632   8.634
    5AU     LIG 2369  12.605  22.246   8.784
    5AU       S 2370  13.593  24.335   7.867
    5AU     LIG 2371  13.143  24.564   7.836
    5AU     LIG 2372  12.675  24.521   7.717
    5AU     LIG 2373  12.206  24.368   7.754
    5AU     LIG 2374  11.812  24.114   7.880
    5AU     LIG 2375  11.408  23.904   7.741
    5AU    AUSL 2376  14.726  25.251   7.900
    5AU    AUSL 2377  14.295  25.283   7.807
    5AU     AUL 2378  14.524  25.347   8.191
    5AU       S 2379  14.166  25.469   7.914
    5AU     LIG 2380  13.955  25.775   8.209
    5AU     LIG 2381  13.744  26.028   8.555
    5AU     LIG 2382  13.491  26.393   8.739
    5AU     LIG 2383  13.227  26.788   8.679
    5AU     LIG 2384  13.005  27.210   8.778
    5AU       S 2385  14.740  25.667   7.947
    5AU     LIG 2386  14.944  25.735   8.309
    5AU     LIG 2387  15.048  26.180   8.450
    5AU     LIG 2388  15.070  26.623   8.627
    5AU     LIG 2389  15.015  26.872   9.032
    5AU     LIG 2390  14.983  27.131   9.431
    5AU    AUSL 2391  14.570  25.473   7.551
    5AU    AUSL 2392  14.852  25.376   7.208
    5AU     AUL 2393  14.801  25.727   7.332
    5AU       S 2394  14.578  25.711   7.757
    5AU     LIG 2395  14.711  26.151   8.015
    5AU     LIG 2396  14.864  26.583   8.157
    5AU     LIG 2397  14.739  27.008   8.353
    5AU     LIG 2398  14.389  27.375   8.365
    5AU     LIG 2399  14.108  27.754   8.212
    5AU       S 2400  14.591  25.631   6.938
    5AU     LIG 2401  15.000  25.947   6.937
    5AU     LIG 2402  15.281  26.377   6.910
    5AU     LIG 2403  15.380  26.816   6.736
    5AU     LIG 2404  15.245  27.271   6.703
    5AU     LIG 2405  15.530  27.671   6.685
    5AU    AUSL 2406  15.006  25.411   7.613
    5AU    AUSL 2407  14.996  25.115   8.190
    5AU     AUL 2408  15.108  25.371   7.966
    5AU       S 2409  15.229  25.196   8.407
    5AU     LIG 2410  15.571  25.136   8.748
    5AU     LIG 2411  15.865  25.395   9.001
    5AU     LIG 2412  16.096  25.732   9.239
    5AU     LIG 2413  16.270  25.905   9.644
    5AU     LIG 2414  16.216  26.131  10.054
    5AU       S 2415  14.928  25.754   7.777
    5AU     LIG 2416  15.222  26.034   7.982
    5AU     LIG 2417  15.375  26.461   8.131
    5AU     LIG 2418  15.322  26.916   8.210
    5AU     LIG 2419  15.484  27.355   8.297
    5AU     LIG 2420  15.420  27.813   8.251
    5AU    AUSL 2421  14.606  23.806   7.940
    5AU    AUSL 2422  15.015  23.819   7.783
    5AU     AUL 2423  14.832  23.700   8.172
    5AU       S 2424  14.592  23.354   7.974
    5AU     LIG 2425  14.466  23.206   8.331
    5AU     LIG 2426  14.496  22.757   8.408
    5AU     LIG 2427  14.513  22.313   8.501
    5AU     LIG 2428  14.646  21.945   8.745
    5AU     LIG 2429  14.813  21.755   9.126
    5AU       S 2430  15.159  23.599   7.836
    5AU     LIG 2431  15.142  23.178   8.065
    5AU     LIG 2432  15.442  22.849   8.270
    5AU     LIG 2433  15.710  22.566   8.553
    5AU     LIG 2434  16.026  22.340   8.827
    5AU     LIG 2435  16.351  21.984   8.907
    5AU    AUSL 2436  14.290  23.680   7.648
    5AU    AUSL 2437  14.408  23.996   8.253
    5AU     AUL 2438  14.269  23.704   8.018
    5AU       S 2439  14.394  23.294   7.817
    5AU     LIG 2440  14.264  22.884   7.962
    5AU     LIG 2441  14.324  22.415   8.032
    5AU     LIG 2442  14.335  21.935   8.144
    5AU     LIG 2443  14.157  21.459   8.077
    5AU     LIG 2444  13.910  21.035   8.124
    5AU       S 2445  14.209  23.878   8.452
    5AU     LIG 2446  14.001  23.398   8.506
    5AU     LIG 2447  13.551  23.214   8.578
    5AU     LIG 2448  13.263  22.923   8.841
    5AU     LIG 2449  12.993  22.667   9.145
    5AU     LIG 2450  12.980  22.390   9.537
    5AU    AUSL 2451  14.720  23.588   7.590
    5AU    AUSL 2452  14.498  23.840   7.308
    5AU     AUL 2453  14.370  23.497   7.398
    5AU       S 2454  14.737  23.396   7.150
    5AU     LIG 2455  14.356  23.094   7.104
    5AU     LIG 2456  14.210  22.649   7.028
    5AU     LIG 2457  14.258  22.177   6.906
    5AU     LIG 2458  14.063  21.699   6.910
    5AU     LIG 2459  13.999  21.211   6.807
    5AU       S 2460  14.724  23.362   7.720
    5AU     LIG 2461  14.768  22.882   7.847
    5AU     LIG 2462  14.839  22.452   8.083
    5AU     LIG 2463  14.857  22.006   8.289
    5AU     LIG 2464  15.018  21.539   8.311
    5AU     LIG 2465  15.017  21.045   8.387
    5AU    AUSL 2466  14.669  25.183   6.845
    5AU    AUSL 2467  15.229  25.214   7.280
    5AU     AUL 2468  15.013  25.380   6.928
    5AU       S 2469  14.607  25.530   6.736
    5AU     LIG 2470  14.962  25.698   6.505
    5AU     LIG 2471  15.111  26.158   6.466
    5AU     LIG 2472  15.183  26.600   6.301
    5AU     LIG 2473  15.121  26.843   5.896
    5AU     LIG 2474  15.022  27.092   5.506
    5AU       S 2475  15.412  25.365   7.149
    5AU     LIG 2476  15.839  25.551   6.946
    5AU     LIG 2477  16.031  25.605   6.509
    5AU     LIG 2478  16.148  25.936   6.184
    5AU     LIG 2479  16.273  26.400   6.125
    5AU     LIG 2480  16.482  26.833   6.165
    5AU    AUSL 2481  14.469  25.207   7.245
    5AU    AUSL 2482  14.393  24.879   6.953
    5AU     AUL 2483  14.325  25.174   6.816
    5AU       S 2484  14.406  25.552   7.094
    5AU     LIG 2485  14.510  26.080   7.078
    5AU     LIG 2486  14.772  26.407   6.813
    5AU     LIG 2487  14.872  26.859   6.665
    5AU     LIG 2488  14.729  27.326   6.673
    5AU     LIG 2489  14.452  27.721   6.724
    5AU       S 2490  13.890  25.197   6.678
    5AU     LIG 2491  13.910  25.362   6.244
    5AU     LIG 2492  13.873  25.670   5.881
    5AU     LIG 2493  13.691  25.780   5.458
    5AU     LIG 2494  13.527  26.069   5.121
    5AU     LIG 2495  13.612  26.467   4.882
    5AU    AUSL 2496  14.690  23.809   6.919
    5AU    AUSL 2497  14.091  23.851   7.216
    5AU     AUL 2498  14.351  23.690   6.966
    5AU       S 2499  13.905  23.826   6.993
    5AU     LIG 2500  13.635  23.505   7.083
    5AU     LIG 2501  13.300  23.214   6.940
    5AU     LIG 2502  13.092  22.937   6.621
    5AU     LIG 2503  12.892  22.640   6.299
    5AU     LIG 2504  12.665  22.204   6.233
    5AU       S 2505  14.736  23.405   6.957
    5AU     LIG 2506  14.735  22.979   6.786
    5AU     LIG 2507  14.522  22.606   6.614
    5AU     LIG 2508  14.678  22.190   6.538
    5AU     LIG 2509  14.803  21.920   6.187
    5AU     LIG 2510  14.745  21.871   5.719
    5AU    AUSL 2511  14.926  23.809   7.302
    5AU    AUSL 2512  14.956  24.130   6.958
    5AU     AUL 2513  15.028  23.761   6.928
    5AU       S 2514  14.990  23.420   7.246
    5AU     LIG 2515  14.818  22.934   7.306
    5AU     LIG 2516  14.700  22.508   7.078
    5AU     LIG 2517  14.745  22.024   7.021
    5AU     LIG 2518  15.021  21.628   6.946
    5AU     LIG 2519  15.135  21.285   6.626
    5AU       S 2520  15.286  23.958   6.611
    5AU     LIG 2521  15.163  23.514   6.513
    5AU     LIG 2522  15.311  23.106   6.320
    5AU     LIG 2523  15.490  22.781   6.003
    5AU     LIG 2524  15.644  22.647   5.551
    5AU     LIG 2525  15.763  22.493   5.097
    6AU     AUC 2526  17.435  14.680   7.492
    6AU     AUC 2527  17.719  14.682   7.317
    6AU     AUC 2528  17.699  14.657   7.667
    6AU     AUC 2529  17.149  14.678   7.331
    6AU     AUC 2530  17.171  14.718   7.680
    6AU     AUC 2531  17.271  14.964   7.490
    6AU     AUC 2532  17.623  14.951   7.477
    6AU     AUC 2533  17.244  14.414   7.501
    6AU     AUC 2534  17.598  14.388   7.493
    6AU     AUC 2535  17.435  14.503   7.770
    6AU     AUC 2536  17.437  14.869   7.755
    6AU     AUC 2537  17.431  14.514   7.216
    6AU     AUC 2538  17.457  14.836   7.209
    6AU     AUC 2539  18.037  14.675   7.161
    6AU     AUC 2540  18.043  14.640   7.512
    6AU     AUC 2541  17.988  14.628   7.862
    6AU     AUC 2542  16.839  14.677   7.171
    6AU     AUC 2543  16.830  14.714   7.534
    6AU     AUC 2544  16.887  14.754   7.870
    6AU     AUC 2545  17.114  15.273   7.467
    6AU     AUC 2546  17.479  15.291   7.437
    6AU     AUC 2547  17.808  15.224   7.468
    6AU     AUC 2548  17.045  14.143   7.503
    6AU     AUC 2549  17.392  14.082   7.480
    6AU     AUC 2550  17.761  14.081   7.474
    6AU     AUC 2551  17.414  14.325   8.060
    6AU     AUC 2552  17.436  14.689   8.091
    6AU     AUC 2553  17.471  15.048   8.042
    6AU     AUC 2554  17.454  14.348   6.935
    6AU     AUC 2555  17.447  14.676   6.876
    6AU     AUC 2556  17.442  14.988   6.907
    6AU     AUC 2557  17.701  14.450   7.986
    6AU     AUC 2558  17.746  14.830   7.980
    6AU     AUC 2559  17.771  14.524   6.994
    6AU     AUC 2560  17.765  14.863   7.018
    6AU     AUC 2561  17.135  14.557   8.010
    6AU     AUC 2562  17.165  14.935   7.986
    6AU     AUC 2563  17.125  14.500   7.039
    6AU     AUC 2564  17.105  14.816   6.997
    6AU     AUC 2565  17.972  14.947   7.328
    6AU     AUC 2566  17.913  14.926   7.683
    6AU     AUC 2567  16.943  14.985   7.332
    6AU     AUC 2568  16.976  15.039   7.681
    6AU     AUC 2569  17.923  14.363   7.331
    6AU     AUC 2570  17.879  14.319   7.679
    6AU     AUC 2571  16.908  14.384   7.357
    6AU     AUC 2572  16.967  14.434   7.715
    6AU     AUC 2573  17.300  15.213   7.749
    6AU     AUC 2574  17.641  15.159   7.760
    6AU     AUC 2575  17.236  14.208   7.796
    6AU     AUC 2576  17.555  14.151   7.764
    6AU     AUC 2577  17.259  15.115   7.179
    6AU     AUC 2578  17.642  15.140   7.163
    6AU     AUC 2579  17.231  14.218   7.197
    6AU     AUC 2580  17.631  14.228   7.196
    6AU    AUSL 2581  17.962  14.563   8.226
    6AU    AUSL 2582  17.682  14.164   8.140
    6AU     AUL 2583  17.980  14.155   8.343
    6AU       S 2584  18.042  13.771   8.100
    6AU     LIG 2585  17.920  13.491   8.377
    6AU     LIG 2586  18.156  13.263   8.688
    6AU     LIG 2587  18.396  12.944   8.922
    6AU     LIG 2588  18.651  12.660   9.192
    6AU     LIG 2589  18.820  12.627   9.628
    6AU       S 2590  18.185  14.558   8.372
    6AU     LIG 2591  18.040  14.591   8.812
    6AU     LIG 2592  18.173  14.566   9.262
    6AU     LIG 2593  18.441  14.345   9.591
    6AU     LIG 2594  18.741  14.224   9.945
    6AU     LIG 2595  18.974  14.307  10.352
    6AU    AUSL 2596  17.562  14.489   8.395
    6AU    AUSL 2597  17.314  14.879   8.416
    6AU     AUL 2598  17.506  14.793   8.730
    6AU       S 2599  17.655  14.402   8.552
    6AU     LIG 2600  17.593  14.364   8.980
    6AU     LIG 2601  17.790  14.236   9.370
    6AU     LIG 2602  18.034  14.044   9.716
    6AU     LIG 2603  18.070  13.787  10.110
    6AU     LIG 2604  18.013  13.806  10.571
    6AU       S 2605  17.097  14.614   8.634
    6AU     LIG 2606  17.123  14.602   9.111
    6AU     LIG 2607  16.867  14.547   9.516
    6AU     LIG 2608  16.630  14.543   9.939
    6AU     LIG 2609  16.574  14.799  10.353
    6AU     LIG 2610  16.595  15.037  10.779
    6AU    AUSL 2611  17.635  14.859   8.153
    6AU    AUSL 2612  18.075  14.954   8.095
    6AU     AUL 2613  17.859  14.872   8.437
    6AU       S 2614  17.549  15.246   8.576
    6AU     LIG 2615  17.893  15.103   8.893
    6AU     LIG 2616  18.078  15.102   9.356
    6AU     LIG 2617  18.129  15.232   9.847
    6AU     LIG 2618  18.154  15.385  10.325
    6AU     LIG 2619  18.150  15.448  10.808
    6AU       S 2620  18.242  15.085   8.277
    6AU     LIG 2621  18.669  15.098   8.289
    6AU     LIG 2622  18.920  15.283   8.639
    6AU     LIG 2623  19.158  15.516   8.977
    6AU     LIG 2624  19.390  15.796   9.262
    6AU     LIG 2625  19.745  15.934   9.539
    6AU    AUSL 2626  17.942  14.744   6.814
    6AU    AUSL 2627  17.822  15.160   6.868
    6AU     AUL 2628  18.009  15.080   6.585
    6AU       S 2629  17.859  14.794   6.269
    6AU     LIG 2630  18.285  14.734   6.085
    6AU     LIG 2631  18.409  14.501   5.698
    6AU     LIG 2632  18.541  14.258   5.313
    6AU     LIG 2633  18.925  14.120   5.061
    6AU     LIG 2634  19.290  14.163   4.761
    6AU       S 2635  18.219  15.379   6.876
    6AU     LIG 2636  18.314  15.506   6.466
    6AU     LIG 2637  18.468  15.674   6.059
    6AU     LIG 2638  18.671  15.946   5.746
    6AU     LIG 2639  18.866  16.086   5.360
    6AU     LIG 2640  18.938  16.312   4.954
    6AU    AUSL 2641  17.722  14.463   6.574
    6AU    AUSL 2642  18.171  14.413   6.927
    6AU     AUL 2643  18.140  14.592   6.615
    6AU       S 2644  18.290  14.145   6.705
    6AU     LIG 2645  18.389  13.748   6.419
    6AU     LIG 2646  18.618  13.368   6.280
    6AU     LIG 2647  18.855  13.120   5.955
    6AU     LIG 2648  19.146  13.089   5.579
    6AU     LIG 2649  19.590  13.106   5.399
    6AU       S 2650  17.851  14.573   6.251
    6AU     LIG 2651  18.046  14.255   6.009
    6AU     LIG 2652  18.078  14.139   5.538
    6AU     LIG 2653  18.078  14.110   5.058
    6AU     LIG 2654  17.951  13.930   4.619
    6AU     LIG 2655  18.043  13.704   4.196
    6AU    AUSL 2656  17.563  14.870   6.681
    6AU    AUSL 2657  17.327  14.491   6.733
    6AU     AUL 2658  17.434  14.518   6.421
    6AU       S 2659  16.976  14.533   6.308
    6AU     LIG 2660  17.144  14.222   6.084
    6AU     LIG 2661  16.951  14.048   5.701
    6AU     LIG 2662  16.726  13.908   5.311
    6AU     LIG 2663  16.587  13.778   4.874
    6AU     LIG 2664  16.727  13.741   4.420
    6AU       S 2665  17.620  14.937   6.365
    6AU     LIG 2666  17.495  14.721   5.939
    6AU     LIG 2667  17.882  14.612   5.663
    6AU     LIG 2668  18.134  14.598   5.249
    6AU     LIG 2669  18.140  14.788   4.795
    6AU     LIG 2670  18.091  15.007   4.353
    6AU    AUSL 2671  16.915  14.827   8.247
    6AU    AUSL 2672  17.216  15.183   8.134
    6AU     AUL 2673  17.075  15.110   8.475
    6AU       S 2674  16.907  14.706   8.667
    6AU     LIG 2675  16.675  14.393   8.898
    6AU     LIG 2676  16.434  14.331   9.319
    6AU     LIG 2677  16.208  14.276   9.753
    6AU     LIG 2678  15.942  14.317  10.158
    6AU     LIG 2679  15.541  14.476  10.394
    6AU       S 2680  16.843  15.432   8.218
    6AU     LIG 2681  16.768  15.582   8.623
    6AU     LIG 2682  16.615  15.792   9.027
    6AU     LIG 2683  16.405  15.998   9.394
    6AU     LIG 2684  16.376  16.216   9.818
    6AU     LIG 2685  16.267  16.433  10.233
    6AU    AUSL 2686  17.212  14.538   8.161
    6AU    AUSL 2687  16.797  14.411   8.135
    6AU     AUL 2688  16.693  14.646   8.266
    6AU       S 2689  16.710  14.196   8.397
    6AU     LIG 2690  16.278  14.172   8.266
    6AU     LIG 2691  16.018  13.802   8.381
    6AU     LIG 2692  15.773  13.463   8.611
    6AU     LIG 2693  15.544  13.129   8.862
    6AU     LIG 2694  15.350  12.931   9.244
    6AU       S 2695  17.097  14.480   8.541
    6AU     LIG 2696  17.136  14.159   8.870
    6AU     LIG 2697  16.908  14.095   9.265
    6AU     LIG 2698  16.692  14.081   9.690
    6AU     LIG 2699  16.497  14.017  10.111
    6AU     LIG 2700  16.606  13.777  10.512
    6AU    AUSL 2701  16.915  14.596   6.780
    6AU    AUSL 2702  17.089  14.207   6.934
    6AU     AUL 2703  17.124  14.219   6.611
    6AU       S 2704  16.783  14.504   6.459
    6AU     LIG 2705  16.620  14.194   6.154
    6AU     LIG 2706  16.452  14.177   5.704
    6AU     LIG 2707  16.241  14.071   5.286
    6AU     LIG 2708  15.992  14.063   4.892
    6AU     LIG 2709  15.567  14.186   4.729
    6AU       S 2710  16.706  14.097   6.764
    6AU     LIG 2711  16.428  13.823   6.545
    6AU     LIG 2712  16.206  13.417   6.479
    6AU     LIG 2713  16.014  13.153   6.138
    6AU     LIG 2714  15.923  13.079   5.684
    6AU     LIG 2715  15.612  12.830   5.464
    6AU    AUSL 2716  17.165  14.884   6.563
    6AU    AUSL 2717  16.713  14.942   6.930
    6AU     AUL 2718  16.822  14.941   6.601
    6AU       S 2719  16.421  15.134   6.758
    6AU     LIG 2720  16.319  15.378   6.331
    6AU     LIG 2721  16.160  15.607   5.953
    6AU     LIG 2722  15.958  15.624   5.515
    6AU     LIG 2723  15.531  15.678   5.297
    6AU     LIG 2724  15.163  15.990   5.263
    6AU       S 2725  17.055  14.749   6.241
    6AU     LIG 2726  16.839  14.553   5.830
    6AU     LIG 2727  16.763  14.440   5.373
    6AU     LIG 2728  16.767  14.650   4.937
    6AU     LIG 2729  16.808  14.985   4.585
    6AU     LIG 2730  16.797  15.153   4.142
    6AU    AUSL 2731  18.240  15.145   7.511
    6AU    AUSL 2732  18.172  14.963   7.090
    6AU     AUL 2733  18.531  15.203   7.297
    6AU       S 2734  18.288  15.079   6.946
    6AU     LIG 2735  18.511  15.031   6.576
    6AU     LIG 2736  18.761  15.300   6.287
    6AU     LIG 2737  18.978  15.596   5.992
    6AU     LIG 2738  19.199  15.880   5.697
    6AU     LIG 2739  19.431  16.125   5.378
    6AU       S 2740  18.650  15.035   7.733
    6AU     LIG 2741  19.009  15.268   7.684
    6AU     LIG 2742  19.424  15.331   7.488
    6AU     LIG 2743  19.747  15.657   7.424
    6AU     LIG 2744  19.997  16.020   7.595
    6AU     LIG 2745  20.145  16.457   7.535
    6AU    AUSL 2746  18.401  14.752   7.372
    6AU    AUSL 2747  18.352  14.418   7.691
    6AU     AUL 2748  18.664  14.483   7.424
    6AU       S 2749  18.612  14.874   7.648
    6AU     LIG 2750  19.067  14.834   7.434
    6AU     LIG 2751  19.571  14.855   7.350
    6AU     LIG 2752  20.020  14.983   7.223
    6AU     LIG 2753  20.438  15.193   7.183
    6AU     LIG 2754  20.833  15.311   6.945
    6AU       S 2755  18.605  14.085   7.682
    6AU     LIG 2756  19.036  13.954   7.809
    6AU     LIG 2757  19.524  13.927   7.739
    6AU     LIG 2758  19.904  13.639   7.708
    6AU     LIG 2759  20.334  13.667   7.860
    6AU     LIG 2760  20.701  13.770   8.155
    6AU    AUSL 2761  18.138  14.782   7.722
    6AU    AUSL 2762  17.902  15.186   7.768
    6AU     AUL 2763  18.236  15.202   7.824
    6AU       S 2764  18.227  15.393   8.241
    6AU     LIG 2765  18.586  15.601   8.395
    6AU     LIG 2766  18.874  15.817   8.674
    6AU     LIG 2767  19.178  16.086   8.874
    6AU     LIG 2768  19.413  16.484   8.778
    6AU     LIG 2769  19.434  16.931   8.905
    6AU       S 2770  18.494  14.808   7.897
    6AU     LIG 2771  18.996  14.741   7.942
    6AU     LIG 2772  19.426  14.936   7.830
    6AU     LIG 2773  19.922  15.015   7.748
    6AU     LIG 2774  20.366  15.065   8.024
    6AU     LIG 2775  20.809  15.320   8.156
    6AU    AUSL 2776  16.785  15.261   7.520
    6AU    AUSL 2777  16.865  15.063   7.907
    6AU     AUL 2778  16.557  15.372   7.758
    6AU       S 2779  16.718  15.234   8.164
    6AU     LIG 2780  16.564  15.100   8.540
    6AU     LIG 2781  16.350  15.376   8.857
    6AU     LIG 2782  16.100  15.684   9.112
    6AU     LIG 2783  15.746  15.729   9.437
    6AU     LIG 2784  15.329  15.647   9.675
    6AU       S 2785  16.792  15.644   7.443
    6AU     LIG 2786  16.321  15.614   7.375
    6AU     LIG 2787  15.897  15.859   7.414
    6AU     LIG 2788  15.551  16.218   7.430
    6AU     LIG 2789  15.110  16.424   7.485
    6AU     LIG 2790  14.672  16.421   7.661
    6AU    AUSL 2791  16.729  14.868   7.337
    6AU    AUSL 2792  16.857  15.311   7.110
    6AU     AUL 2793  16.547  15.189   7.217
    6AU       S 2794  16.338  14.687   6.997
    6AU     LIG 2795  16.022  15.067   7.095
    6AU     LIG 2796  15.556  15.288   7.031
    6AU     LIG 2797  15.070  15.446   6.913
    6AU     LIG 2798  14.617  15.604   6.727
    6AU     LIG 2799  14.221  15.900   6.730
    6AU       S 2800  16.685  15.570   6.944
    6AU     LIG 2801  16.528  15.819   6.534
    6AU     LIG 2802  16.318  16.091   6.178
    6AU     LIG 2803  16.127  16.548   6.065
    6AU     LIG 2804  15.926  17.015   6.101
    6AU     LIG 2805  15.585  17.356   6.174
    6AU    AUSL 2806  16.525  14.916   7.718
    6AU    AUSL 2807  16.479  14.542   7.416
    6AU     AUL 2808  16.326  14.857   7.445
    6AU       S 2809  16.288  14.450   7.698
    6AU     LIG 2810  15.912  14.389   7.390
    6AU     LIG 2811  15.440  14.194   7.332
    6AU     LIG 2812  14.954  14.107   7.223
    6AU     LIG 2813  14.491  13.933   7.207
    6AU     LIG 2814  14.003  13.854   7.176
    6AU       S 2815  16.383  14.953   7.939
    6AU     LIG 2816  16.063  15.222   7.716
    6AU     LIG 2817  15.584  15.306   7.820
    6AU     LIG 2818  15.134  15.445   8.011
    6AU     LIG 2819  14.672  15.588   8.147
    6AU     LIG 2820  14.228  15.802   8.193
    6AU    AUSL 2821  18.116  14.084   7.541
    6AU    AUSL 2822  17.971  14.341   7.872
    6AU     AUL 2823  18.274  14.252   7.953
    6AU       S 2824  18.297  13.933   7.550
    6AU     LIG 2825  18.570  13.578   7.728
    6AU     LIG 2826  19.028  13.513   7.555
    6AU     LIG 2827  19.494  13.387   7.542
    6AU     LIG 2828  19.944  13.160   7.477
    6AU     LIG 2829  20.249  12.785   7.350
    6AU       S 2830  18.166  13.816   7.997
    6AU     LIG 2831  18.445  13.518   8.251
    6AU     LIG 2832  18.662  13.237   8.566
    6AU     LIG 2833  18.912  12.975   8.866
    6AU     LIG 2834  19.124  12.892   9.283
    6AU     LIG 2835  19.433  13.002   9.635
    6AU    AUSL 2836  18.103  14.461   7.335
    6AU    AUSL 2837  18.046  14.041   7.123
    6AU     AUL 2838  18.337  14.247   7.186
    6AU       S 2839  18.572  14.012   7.489
    6AU     LIG 2840  18.977  13.988   7.296
    6AU     LIG 2841  19.421  13.831   7.254
    6AU     LIG 2842  19.824  13.575   7.197
    6AU     LIG 2843  20.284  13.649   7.311
    6AU     LIG 2844  20.626  13.791   7.008
    6AU       S 2845  18.243  13.913   6.861
    6AU     LIG 2846  18.107  13.479   6.810
    6AU     LIG 2847  18.350  13.090   6.629
    6AU     LIG 2848  18.691  12.843   6.374
    6AU     LIG 2849  19.095  12.541   6.326
    6AU     LIG 2850  19.530  12.266   6.330
    6AU    AUSL 2851  16.682  14.180   7.560
    6AU    AUSL 2852  16.772  14.421   7.140
    6AU     AUL 2853  16.425  14.238   7.293
    6AU       S 2854  16.603  14.262   6.869
    6AU     LIG 2855  16.173  14.179   6.847
    6AU     LIG 2856  15.918  13.830   6.661
    6AU     LIG 2857  15.727  13.545   6.332
    6AU     LIG 2858  15.552  13.338   5.942
    6AU     LIG 2859  15.193  13.359   5.635
    6AU       S 2860  16.251  14.243   7.741
    6AU     LIG 2861  16.068  13.907   7.496
    6AU     LIG 2862  15.635  13.720   7.393
    6AU     LIG 2863  15.143  13.718   7.495
    6AU     LIG 2864  14.680  13.527   7.512
    6AU     LIG 2865  14.347  13.192   7.667
    6AU    AUSL 2866  16.753  14.564   7.750
    6AU    AUSL 2867  17.003  14.183   7.838
    6AU     AUL 2868  16.672  14.150   7.901
    6AU       S 2869  16.728  13.975   8.321
    6AU     LIG 2870  16.455  13.716   8.082
    6AU     LIG 2871  16.122  13.376   8.111
    6AU     LIG 2872  15.895  13.037   8.350
    6AU     LIG 2873  15.744  12.700   8.650
    6AU     LIG 2874  15.508  12.489   8.989
    6AU       S 2875  16.355  14.487   7.875
    6AU     LIG 2876  15.914  14.734   7.786
    6AU     LIG 2877  15.475  14.610   7.648
    6AU     LIG 2878  15.072  14.332   7.677
    6AU     LIG 2879  14.705  14.020   7.678
    6AU     LIG 2880  14.260  13.826   7.655
    6AU    AUSL 2881  17.496  15.387   7.885
    6AU    AUSL 2882  17.063  15.426   7.802
    6AU     AUL 2883  17.307  15.496   8.174
    6AU       S 2884  16.928  15.623   7.925
    6AU     LIG 2885  16.542  15.809   8.170
    6AU     LIG 2886  16.354  15.920   8.604
    6AU     LIG 2887  16.209  16.266   8.909
    6AU     LIG 2888  16.002  16.716   8.958
    6AU     LIG 2889  15.727  17.105   9.049
    6AU       S 2890  17.528  15.814   7.930
    6AU     LIG 2891  17.681  15.844   8.316
    6AU     LIG 2892  17.684  16.280   8.510
    6AU     LIG 2893  17.700  16.714   8.709
    6AU     LIG 2894  17.619  16.989   9.094
    6AU     LIG 2895  17.541  17.324   9.428
    6AU    AUSL 2896  17.336  15.620   7.546
    6AU    AUSL 2897  17.614  15.538   7.187
    6AU     AUL 2898  17.563  15.884   7.331
    6AU       S 2899  17.344  15.848   7.758
    6AU     LIG 2900  17.375  16.260   8.065
    6AU     LIG 2901  17.444  16.707   8.253
    6AU     LIG 2902  17.269  17.161   8.388
    6AU     LIG 2903  17.176  17.645   8.456
    6AU     LIG 2904  17.133  18.090   8.635
    6AU       S 2905  17.345  15.756   6.951
    6AU     LIG 2906  17.718  16.073   6.895
    6AU     LIG 2907  17.997  16.475   6.823
    6AU     LIG 2908  18.381  16.806   6.892
    6AU     LIG 2909  18.599  17.227   6.783
    6AU     LIG 2910  18.542  17.648   6.597
    6AU    AUSL 2911  17.774  15.544   7.591
    6AU    AUSL 2912  17.764  15.256   8.177
    6AU     AUL 2913  17.880  15.505   7.945
    6AU       S 2914  18.002  15.337   8.391
    6AU     LIG 2915  18.355  15.279   8.727
    6AU     LIG 2916  18.634  15.516   9.013
    6AU     LIG 2917  18.865  15.836   9.281
    6AU     LIG 2918  18.820  16.041   9.717
    6AU     LIG 2919  18.748  16.455   9.948
    6AU       S 2920  17.702  15.898   7.773
    6AU     LIG 2921  17.889  16.226   8.030
    6AU     LIG 2922  17.983  16.629   8.256
    6AU     LIG 2923  18.288  16.984   8.347
    6AU     LIG 2924  18.285  17.421   8.513
    6AU     LIG 2925  18.287  17.898   8.576
    6AU    AUSL 2926  17.373  13.955   7.926
    6AU    AUSL 2927  17.781  13.964   7.767
    6AU     AUL 2928  17.592  13.852   8.162
    6AU       S 2929  17.363  13.499   7.964
    6AU     LIG 2930  17.328  13.179   8.255
    6AU     LIG 2931  17.142  12.767   8.337
    6AU     LIG 2932  17.156  12.299   8.349
    6AU     LIG 2933  17.119  11.955   8.686
    6AU     LIG 2934  17.037  11.730   9.113
    6AU       S 2935  17.923  13.744   7.829
    6AU     LIG 2936  18.074  13.301   7.922
    6AU     LIG 2937  18.302  13.018   8.253
    6AU     LIG 2938  18.594  12.711   8.511
    6AU     LIG 2939  18.908  12.453   8.776
    6AU     LIG 2940  19.273  12.125   8.809
    6AU    AUSL 2941  17.055  13.822   7.638
    6AU    AUSL 2942  17.171  14.135   8.244
    6AU     AUL 2943  17.038  13.846   8.005
    6AU       S 2944  17.163  13.434   7.805
    6AU     LIG 2945  17.053  12.971   7.857
    6AU     LIG 2946  16.885  12.521   7.952
    6AU     LIG 2947  16.608  12.118   8.037
    6AU     LIG 2948  16.528  11.663   8.208
    6AU     LIG 2949  16.551  11.182   8.208
    6AU       S 2950  16.955  14.025   8.442
    6AU     LIG 2951  16.602  13.745   8.715
    6AU     LIG 2952  16.289  13.404   8.608
    6AU     LIG 2953  16.060  13.071   8.836
    6AU     LIG 2954  15.854  12.836   9.179
    6AU     LIG 2955  15.710  12.874   9.634
    6AU    AUSL 2956  17.483  13.735   7.575
    6AU    AUSL 2957  17.251  13.977   7.290
    6AU     AUL 2958  17.131  13.631   7.381
    6AU       S 2959  17.503  13.556   7.130
    6AU     LIG 2960  17.200  13.158   7.122
    6AU     LIG 2961  16.990  12.697   7.039
    6AU     LIG 2962  16.724  12.273   6.937
    6AU     LIG 2963  16.615  11.801   6.840
    6AU     LIG 2964  16.575  11.326   6.809
    6AU       S 2965  17.490  13.519   7.701
    6AU     LIG 2966  17.560  13.055   7.798
    6AU     LIG 2967  17.434  12.590   7.945
    6AU     LIG 2968  17.552  12.098   8.001
    6AU     LIG 2969  17.744  11.651   8.111
    6AU     LIG 2970  18.005  11.385   8.421
    6AU    AUSL 2971  17.428  15.311   6.847
    6AU    AUSL 2972  17.929  15.277   7.261
    6AU     AUL 2973  17.768  15.500   6.894
    6AU       S 2974  17.353  15.679   6.746
    6AU     LIG 2975  17.600  15.886   6.447
    6AU     LIG 2976  17.735  16.328   6.363
    6AU     LIG 2977  17.795  16.589   5.963
    6AU     LIG 2978  17.693  16.915   5.634
    6AU     LIG 2979  17.657  17.258   5.316
    6AU       S 2980  18.167  15.454   7.136
    6AU     LIG 2981  18.627  15.619   6.889
    6AU     LIG 2982  18.789  15.798   6.454
    6AU     LIG 2983  18.995  16.107   6.123
    6AU     LIG 2984  19.310  16.378   5.865
    6AU     LIG 2985  19.640  16.739   5.898
    6AU    AUSL 2986  17.243  15.343   7.247
    6AU    AUSL 2987  17.142  15.019   6.955
    6AU     AUL 2988  17.077  15.319   6.820
    6AU       S 2989  17.161  15.696   7.100
    6AU     LIG 2990  17.238  16.207   7.073
    6AU     LIG 2991  17.460  16.540   6.806
    6AU     LIG 2992  17.402  17.017   6.706
    6AU     LIG 2993  17.195  17.465   6.698
    6AU     LIG 2994  16.977  17.855   6.532
    6AU       S 2995  16.627  15.356   6.715
    6AU     LIG 2996  16.846  15.438   6.363
    6AU     LIG 2997  16.666  15.716   6.026
    6AU     LIG 2998  16.431  15.933   5.664
    6AU     LIG 2999  16.321  16.155   5.254
    6AU     LIG 3000  16.197  16.528   4.980
    6AU    AUSL 3001  17.448  13.981   6.901
    6AU    AUSL 3002  16.841  13.990   7.216
    6AU     AUL 3003  17.102  13.840   6.951
    6AU       S 3004  16.647  13.959   6.989
    6AU     LIG 3005  16.277  13.722   7.051
    6AU     LIG 3006  15.954  13.397   6.936
    6AU     LIG 3007  15.777  13.106   6.603
    6AU     LIG 3008  15.477  12.832   6.343
    6AU     LIG 3009  15.105  12.502   6.312
    6AU       S 3010  17.498  13.576   6.962
    6AU     LIG 3011  17.573  13.178   6.762
    6AU     LIG 3012  17.284  12.826   6.633
    6AU     LIG 3013  17.155  12.365   6.642
    6AU     LIG 3014  17.138  11.920   6.446
    6AU     LIG 3015  17.103  11.547   6.127
    6AU    AUSL 3016  17.675  13.968   7.287
    6AU    AUSL 3017  17.734  14.290   6.950
    6AU     AUL 3018  17.781  13.930   6.891
    6AU       S 3019  17.770  13.607   7.229
    6AU     LIG 3020  17.690  13.125   7.281
    6AU     LIG 3021  17.524  12.711   7.072
    6AU     LIG 3022  17.588  12.237   6.916
    6AU     LIG 3023  17.831  11.869   6.716
    6AU     LIG 3024  17.929  11.449   6.548
    6AU       S 3025  18.050  14.115   6.576
    6AU     LIG 3026  17.871  13.734   6.434
    6AU     LIG 3027  18.072  13.341   6.283
    6AU     LIG 3028  18.328  13.044   6.010
    6AU     LIG 3029  18.526  12.985   5.577
    6AU     LIG 3030  18.808  12.905   5.209
    7AU     AUC 3031  21.507  39.448   7.497
    7AU     AUC 3032  21.791  39.455   7.323
    7AU     AUC 3033  21.771  39.430   7.671
    7AU     AUC 3034  21.222  39.441   7.333
    7AU     AUC 3035  21.240  39.482   7.683
    7AU     AUC 3036  21.339  39.732   7.492
    7AU     AUC 3037  21.695  39.725   7.483
    7AU     AUC 3038  21.317  39.179   7.505
    7AU     AUC 3039  21.670  39.154   7.496
    7AU     AUC 3040  21.506  39.269   7.774
    7AU     AUC 3041  21.505  39.637   7.758
    7AU     AUC 3042  21.505  39.284   7.222
    7AU     AUC 3043  21.527  39.604   7.218
    7AU     AUC 3044  22.108  39.461   7.160
    7AU     AUC 3045  22.114  39.414   7.518
    7AU     AUC 3046  22.058  39.400   7.868
    7AU     AUC 3047  20.918  39.434   7.168
    7AU     AUC 3048  20.901  39.473   7.533
    7AU     AUC 3049  20.955  39.515   7.871
    7AU     AUC 3050  21.178  40.033   7.467
    7AU     AUC 3051  21.544  40.057   7.445
    7AU     AUC 3052  21.884  40.002   7.473
    7AU     AUC 3053  21.120  38.907   7.509
    7AU     AUC 3054  21.468  38.846   7.487
    7AU     AUC 3055  21.834  38.851   7.477
    7AU     AUC 3056  21.488  39.089   8.066
    7AU     AUC 3057  21.506  39.455   8.094
    7AU     AUC 3058  21.535  39.814   8.047
    7AU     AUC 3059  21.534  39.113   6.943
    7AU     AUC 3060  21.527  39.440   6.885
    7AU     AUC 3061  21.509  39.755   6.924
    7AU     AUC 3062  21.773  39.216   7.991
    7AU     AUC 3063  21.814  39.600   7.984
    7AU     AUC 3064  21.850  39.305   6.997
    7AU     AUC 3065  21.842  39.630   7.032
    7AU     AUC 3066  21.205  39.323   8.015
    7AU     AUC 3067  21.232  39.697   7.987
    7AU     AUC 3068  21.207  39.262   7.037
    7AU     AUC 3069  21.184  39.572   6.994
    7AU     AUC 3070  22.047  39.734   7.345
    7AU     AUC 3071  21.984  39.702   7.693
    7AU     AUC 3072  21.014  39.741   7.328
    7AU     AUC 3073  21.042  39.800   7.681
    7AU     AUC 3074  21.988  39.138   7.329
    7AU     AUC 3075  21.950  39.090   7.682
    7AU     AUC 3076  20.983  39.147   7.359
    7AU     AUC 3077  21.038  39.196   7.719
    7AU     AUC 3078  21.363  39.977   7.753
    7AU     AUC 3079  21.704  39.930   7.767
    7AU     AUC 3080  21.309  38.973   7.803
    7AU     AUC 3081  21.629  38.917   7.771
    7AU     AUC 3082  21.325  39.881   7.180
    7AU     AUC 3083  21.712  39.920   7.187
    7AU     AUC 3084  21.308  38.980   7.204
    7AU     AUC 3085  21.704  38.994   7.202
    7AU    AUSL 3086  22.035  39.335   8.230
    7AU    AUSL 3087  21.765  38.924   8.150
    7AU     AUL 3088  22.058  38.933   8.370
    7AU       S 3089  22.142  38.579   8.097
    7AU     LIG 3090  22.018  38.426   8.488
    7AU     LIG 3091  22.138  38.098   8.772
    7AU     LIG 3092  22.325  37.716   8.951
    7AU     LIG 3093  22.545  37.406   9.203
    7AU     LIG 3094  22.651  37.316   9.648
    7AU       S 3095  22.261  39.336   8.350
    7AU     LIG 3096  22.132  39.342   8.785
    7AU     LIG 3097  22.281  39.309   9.229
    7AU     LIG 3098  22.609  39.217   9.570
    7AU     LIG 3099  22.979  39.246   9.876
    7AU     LIG 3100  23.230  39.347  10.267
    7AU    AUSL 3101  21.633  39.254   8.397
    7AU    AUSL 3102  21.382  39.642   8.420
    7AU     AUL 3103  21.576  39.560   8.737
    7AU       S 3104  21.716  39.175   8.547
    7AU     LIG 3105  21.701  39.132   8.989
    7AU     LIG 3106  21.787  38.895   9.381
    7AU     LIG 3107  21.927  38.761   9.818
    7AU     LIG 3108  22.088  38.625  10.238
    7AU     LIG 3109  22.092  38.692  10.700
    7AU       S 3110  21.169  39.379   8.634
    7AU     LIG 3111  21.215  39.368   9.103
    7AU     LIG 3112  20.931  39.331   9.480
    7AU     LIG 3113  20.707  39.373   9.896
    7AU     LIG 3114  20.616  39.688  10.254
    7AU     LIG 3115  20.535  40.021  10.590
    7AU    AUSL 3116  21.703  39.624   8.156
    7AU    AUSL 3117  22.140  39.731   8.101
    7AU     AUL 3118  21.927  39.639   8.441
    7AU       S 3119  21.607  40.013   8.586
    7AU     LIG 3120  21.957  39.873   8.885
    7AU     LIG 3121  22.242  39.955   9.263
    7AU     LIG 3122  22.274  40.112   9.726
    7AU     LIG 3123  22.237  40.094  10.210
    7AU     LIG 3124  22.393  40.122  10.657
    7AU       S 3125  22.301  39.871   8.287
    7AU     LIG 3126  22.690  39.792   8.405
    7AU     LIG 3127  22.951  40.016   8.730
    7AU     LIG 3128  23.186  40.291   9.044
    7AU     LIG 3129  23.373  40.555   9.377
    7AU     LIG 3130  23.625  40.533   9.780
    7AU    AUSL 3131  22.069  39.583   6.766
    7AU    AUSL 3132  21.856  39.919   6.954
    7AU     AUL 3133  21.980  39.958   6.623
    7AU       S 3134  22.024  39.625   6.314
    7AU     LIG 3135  22.384  39.431   6.109
    7AU     LIG 3136  22.408  39.202   5.713
    7AU     LIG 3137  22.617  39.102   5.313
    7AU     LIG 3138  22.957  39.088   4.990
    7AU     LIG 3139  23.375  39.218   4.799
    7AU       S 3140  22.313  40.148   6.869
    7AU     LIG 3141  22.345  40.340   6.447
    7AU     LIG 3142  22.537  40.511   6.019
    7AU     LIG 3143  22.818  40.676   5.653
    7AU     LIG 3144  22.901  40.979   5.290
    7AU     LIG 3145  22.873  41.243   4.897
    7AU    AUSL 3146  21.836  39.255   6.606
    7AU    AUSL 3147  22.193  39.207   6.927
    7AU     AUL 3148  22.252  39.338   6.614
    7AU       S 3149  22.333  38.885   6.701
    7AU     LIG 3150  22.437  38.522   6.387
    7AU     LIG 3151  22.645  38.109   6.260
    7AU     LIG 3152  22.880  37.859   5.928
    7AU     LIG 3153  23.280  37.881   5.650
    7AU     LIG 3154  23.656  37.904   5.339
    7AU       S 3155  21.928  39.481   6.300
    7AU     LIG 3156  21.969  39.102   6.056
    7AU     LIG 3157  22.014  38.896   5.597
    7AU     LIG 3158  22.217  38.806   5.170
    7AU     LIG 3159  22.273  38.649   4.723
    7AU     LIG 3160  22.260  38.586   4.246
    7AU    AUSL 3161  21.644  39.627   6.721
    7AU    AUSL 3162  21.417  39.239   6.717
    7AU     AUL 3163  21.575  39.235   6.444
    7AU       S 3164  21.133  39.276   6.288
    7AU     LIG 3165  21.259  39.078   5.917
    7AU     LIG 3166  21.016  38.852   5.591
    7AU     LIG 3167  20.789  38.893   5.182
    7AU     LIG 3168  20.594  38.700   4.795
    7AU     LIG 3169  20.644  38.559   4.339
    7AU       S 3170  21.697  39.686   6.375
    7AU     LIG 3171  21.587  39.480   5.955
    7AU     LIG 3172  21.909  39.396   5.628
    7AU     LIG 3173  22.145  39.318   5.233
    7AU     LIG 3174  22.208  39.449   4.779
    7AU     LIG 3175  22.137  39.676   4.364
    7AU    AUSL 3176  20.983  39.590   8.249
    7AU    AUSL 3177  21.277  39.941   8.136
    7AU     AUL 3178  21.137  39.874   8.476
    7AU       S 3179  20.975  39.468   8.670
    7AU     LIG 3180  20.780  39.134   8.903
    7AU     LIG 3181  20.539  39.041   9.301
    7AU     LIG 3182  20.322  39.052   9.725
    7AU     LIG 3183  20.066  39.020  10.120
    7AU     LIG 3184  19.669  39.155  10.340
    7AU       S 3185  20.889  40.184   8.219
    7AU     LIG 3186  20.871  40.337   8.638
    7AU     LIG 3187  20.734  40.538   9.056
    7AU     LIG 3188  20.468  40.794   9.352
    7AU     LIG 3189  20.348  40.913   9.803
    7AU     LIG 3190  20.304  41.132  10.231
    7AU    AUSL 3191  21.282  39.302   8.165
    7AU    AUSL 3192  20.866  39.175   8.140
    7AU     AUL 3193  20.761  39.412   8.268
    7AU       S 3194  20.779  38.962   8.400
    7AU     LIG 3195  20.339  38.899   8.245
    7AU     LIG 3196  20.110  38.498   8.343
    7AU     LIG 3197  19.883  38.166   8.588
    7AU     LIG 3198  19.610  37.877   8.852
    7AU     LIG 3199  19.374  37.778   9.254
    7AU       S 3200  21.165  39.245   8.545
    7AU     LIG 3201  21.252  38.926   8.865
    7AU     LIG 3202  21.047  38.868   9.285
    7AU     LIG 3203  20.809  38.869   9.712
    7AU     LIG 3204  20.521  38.712  10.070
    7AU     LIG 3205  20.425  38.408  10.435
    7AU    AUSL 3206  21.004  39.344   6.767
    7AU    AUSL 3207  21.181  38.976   6.948
    7AU     AUL 3208  21.217  38.964   6.616
    7AU       S 3209  20.906  39.254   6.424
    7AU     LIG 3210  20.751  39.121   5.994
    7AU     LIG 3211  20.537  39.086   5.590
    7AU     LIG 3212  20.257  38.928   5.246
    7AU     LIG 3213  19.837  38.964   5.027
    7AU     LIG 3214  19.606  39.020   4.617
    7AU       S 3215  20.798  38.847   6.763
    7AU     LIG 3216  20.774  38.381   6.656
    7AU     LIG 3217  20.453  38.089   6.467
    7AU     LIG 3218  20.144  37.997   6.109
    7AU     LIG 3219  19.978  37.899   5.663
    7AU     LIG 3220  19.928  37.816   5.188
    7AU    AUSL 3221  21.259  39.639   6.566
    7AU    AUSL 3222  20.792  39.682   6.923
    7AU     AUL 3223  20.900  39.683   6.594
    7AU       S 3224  20.499  39.880   6.744
    7AU     LIG 3225  20.379  40.150   6.329
    7AU     LIG 3226  20.292  40.348   5.912
    7AU     LIG 3227  20.058  40.483   5.521
    7AU     LIG 3228  19.606  40.539   5.395
    7AU     LIG 3229  19.232  40.839   5.449
    7AU       S 3230  21.215  39.510   6.298
    7AU     LIG 3231  21.037  39.552   5.879
    7AU     LIG 3232  20.977  39.345   5.471
    7AU     LIG 3233  21.002  39.348   4.998
    7AU     LIG 3234  21.050  39.590   4.582
    7AU     LIG 3235  20.856  39.755   4.178
    7AU    AUSL 3236  22.304  39.919   7.531
    7AU    AUSL 3237  22.219  39.746   7.128
    7AU     AUL 3238  22.555  40.035   7.323
    7AU       S 3239  22.356  39.905   6.935
    7AU     LIG 3240  22.469  39.823   6.503
    7AU     LIG 3241  22.762  40.099   6.248
    7AU     LIG 3242  23.054  40.409   6.033
    7AU     LIG 3243  23.356  40.542   5.694
    7AU     LIG 3244  23.710  40.515   5.359
    7AU       S 3245  22.692  39.779   7.702
    7AU     LIG 3246  23.126  39.779   7.564
    7AU     LIG 3247  23.558  39.958   7.517
    7AU     LIG 3248  23.986  40.171   7.499
    7AU     LIG 3249  24.225  40.594   7.572
    7AU     LIG 3250  24.541  40.900   7.766
    7AU    AUSL 3251  22.479  39.521   7.375
    7AU    AUSL 3252  22.420  39.190   7.707
    7AU     AUL 3253  22.785  39.267   7.635
    7AU       S 3254  22.607  39.587   7.388
    7AU     LIG 3255  23.021  39.445   7.199
    7AU     LIG 3256  23.435  39.668   7.092
    7AU     LIG 3257  23.898  39.688   7.243
    7AU     LIG 3258  24.326  39.875   7.200
    7AU     LIG 3259  24.676  40.165   7.138
    7AU       S 3260  22.660  38.801   7.683
    7AU     LIG 3261  23.119  38.673   7.648
    7AU     LIG 3262  23.542  38.457   7.684
    7AU     LIG 3263  23.964  38.247   7.695
    7AU     LIG 3264  24.374  38.423   7.814
    7AU     LIG 3265  24.833  38.381   7.954
    7AU    AUSL 3266  22.212  39.555   7.731
    7AU    AUSL 3267  21.962  39.962   7.779
    7AU     AUL 3268  22.297  39.994   7.834
    7AU       S 3269  22.279  40.170   8.258
    7AU     LIG 3270  22.675  40.313   8.389
    7AU     LIG 3271  22.874  40.547   8.732
    7AU     LIG 3272  23.215  40.852   8.861
    7AU     LIG 3273  23.391  41.309   8.833
    7AU     LIG 3274  23.443  41.748   8.613
    7AU       S 3275  22.548  39.610   7.857
    7AU     LIG 3276  23.007  39.568   8.027
    7AU     LIG 3277  23.474  39.684   7.953
    7AU     LIG 3278  23.929  39.704   7.784
    7AU     LIG 3279  24.365  39.944   7.763
    7AU     LIG 3280  24.804  39.972   7.925
    7AU    AUSL 3281  20.855  40.021   7.516
    7AU    AUSL 3282  20.929  39.819   7.904
    7AU     AUL 3283  20.620  40.127   7.752
    7AU       S 3284  20.777  39.989   8.161
    7AU     LIG 3285  20.630  39.873   8.554
    7AU     LIG 3286  20.424  40.172   8.864
    7AU     LIG 3287  20.191  40.372   9.228
    7AU     LIG 3288  19.844  40.383   9.567
    7AU     LIG 3289  19.419  40.465   9.767
    7AU       S 3290  20.857  40.398   7.437
    7AU     LIG 3291  20.392  40.354   7.355
    7AU     LIG 3292  19.967  40.570   7.399
    7AU     LIG 3293  19.680  40.966   7.446
    7AU     LIG 3294  19.279  41.242   7.437
    7AU     LIG 3295  18.812  41.178   7.432
    7AU    AUSL 3296  20.799  39.629   7.334
    7AU    AUSL 3297  20.913  40.060   7.102
    7AU     AUL 3298  20.614  39.933   7.207
    7AU       S 3299  20.407  39.447   6.999
    7AU     LIG 3300  20.123  39.841   7.090
    7AU     LIG 3301  19.735  40.108   6.984
    7AU     LIG 3302  19.271  40.182   6.830
    7AU     LIG 3303  18.784  40.206   6.742
    7AU     LIG 3304  18.321  40.303   6.643
    7AU       S 3305  20.746  40.317   6.940
    7AU     LIG 3306  20.675  40.558   6.511
    7AU     LIG 3307  20.481  40.786   6.137
    7AU     LIG 3308  20.277  41.201   5.988
    7AU     LIG 3309  20.050  41.646   6.035
    7AU     LIG 3310  19.773  42.058   6.071
    7AU    AUSL 3311  20.592  39.673   7.713
    7AU    AUSL 3312  20.556  39.298   7.413
    7AU     AUL 3313  20.393  39.609   7.447
    7AU       S 3314  20.358  39.203   7.697
    7AU     LIG 3315  19.955  39.132   7.424
    7AU     LIG 3316  19.482  38.978   7.331
    7AU     LIG 3317  19.003  38.851   7.237
    7AU     LIG 3318  18.569  38.616   7.231
    7AU     LIG 3319  18.136  38.375   7.223
    7AU       S 3320  20.446  39.708   7.936
    7AU     LIG 3321  20.099  39.959   7.734
    7AU     LIG 3322  19.595  39.964   7.840
    7AU     LIG 3323  19.100  40.066   7.994
    7AU     LIG 3324  18.619  40.195   8.146
    7AU     LIG 3325  18.187  40.390   8.358
    7AU    AUSL 3326  22.191  38.860   7.541
    7AU    AUSL 3327  22.038  39.113   7.875
    7AU     AUL 3328  22.344  39.012   7.953
    7AU       S 3329  22.395  38.706   7.517
    7AU     LIG 3330  22.763  38.408   7.313
    7AU     LIG 3331  23.177  38.207   7.414
    7AU     LIG 3332  23.605  38.006   7.411
    7AU     LIG 3333  23.975  37.732   7.542
    7AU     LIG 3334  24.273  37.619   7.904
    7AU       S 3335  22.252  38.566   7.960
    7AU     LIG 3336  22.463  38.254   8.276
    7AU     LIG 3337  22.628  38.004   8.629
    7AU     LIG 3338  22.860  37.716   8.917
    7AU     LIG 3339  23.207  37.715   9.241
    7AU     LIG 3340  23.582  37.837   9.513
    7AU    AUSL 3341  22.176  39.239   7.343
    7AU    AUSL 3342  22.118  38.826   7.126
    7AU     AUL 3343  22.408  39.054   7.171
    7AU       S 3344  22.657  38.844   7.474
    7AU     LIG 3345  23.019  38.914   7.214
    7AU     LIG 3346  23.353  38.605   7.129
    7AU     LIG 3347  23.778  38.463   7.233
    7AU     LIG 3348  24.225  38.365   7.258
    7AU     LIG 3349  24.580  38.247   6.980
    7AU       S 3350  22.322  38.682   6.873
    7AU     LIG 3351  22.336  38.201   6.777
    7AU     LIG 3352  22.464  37.759   6.591
    7AU     LIG 3353  22.774  37.533   6.323
    7AU     LIG 3354  22.895  37.081   6.238
    7AU     LIG 3355  23.130  36.665   6.138
    7AU    AUSL 3356  20.757  38.938   7.562
    7AU    AUSL 3357  20.847  39.186   7.130
    7AU     AUL 3358  20.500  39.011   7.282
    7AU       S 3359  20.681  39.014   6.855
    7AU     LIG 3360  20.323  38.686   6.709
    7AU     LIG 3361  20.025  38.372   6.504
    7AU     LIG 3362  19.684  38.127   6.301
    7AU     LIG 3363  19.532  37.898   5.928
    7AU     LIG 3364  19.338  37.891   5.495
    7AU       S 3365  20.332  38.992   7.732
    7AU     LIG 3366  20.179  38.660   7.470
    7AU     LIG 3367  19.728  38.530   7.401
    7AU     LIG 3368  19.255  38.530   7.538
    7AU     LIG 3369  18.835  38.283   7.543
    7AU     LIG 3370  18.693  37.832   7.597
    7AU    AUSL 3371  20.823  39.323   7.753
    7AU    AUSL 3372  21.075  38.948   7.843
    7AU     AUL 3373  20.747  38.910   7.909
    7AU       S 3374  20.796  38.746   8.339
    7AU     LIG 3375  20.557  38.452   8.072
    7AU     LIG 3376  20.260  38.054   8.114
    7AU     LIG 3377  19.986  37.713   8.367
    7AU     LIG 3378  19.753  37.382   8.674
    7AU     LIG 3379  19.426  37.019   8.799
    7AU       S 3380  20.427  39.241   7.873
    7AU     LIG 3381  19.978  39.471   7.821
    7AU     LIG 3382  19.534  39.370   7.683
    7AU     LIG 3383  19.131  39.089   7.690
    7AU     LIG 3384  18.770  38.772   7.698
    7AU     LIG 3385  18.354  38.519   7.686
    7AU    AUSL 3386  21.553  40.159   7.895
    7AU    AUSL 3387  21.120  40.189   7.809
    7AU     AUL 3388  21.353  40.252   8.188
    7AU       S 3389  20.983  40.386   7.928
    7AU     LIG 3390  20.656  40.611   8.226
    7AU     LIG 3391  20.457  40.705   8.657
    7AU     LIG 3392  20.276  41.075   8.926
    7AU     LIG 3393  20.055  41.532   8.949
    7AU     LIG 3394  19.818  41.969   8.866
    7AU       S 3395  21.565  40.573   7.941
    7AU     LIG 3396  21.727  40.584   8.332
    7AU     LIG 3397  21.780  41.017   8.521
    7AU     LIG 3398  21.785  41.432   8.751
    7AU     LIG 3399  21.708  41.698   9.148
    7AU     LIG 3400  21.688  42.094   9.412
    7AU    AUSL 3401  21.392  40.378   7.548
    7AU    AUSL 3402  21.673  40.283   7.203
    7AU     AUL 3403  21.620  40.637   7.329
    7AU       S 3404  21.397  40.616   7.756
    7AU     LIG 3405  21.504  41.041   8.051
    7AU     LIG 3406  21.587  41.462   8.264
    7AU     LIG 3407  21.371  41.904   8.340
    7AU     LIG 3408  21.239  42.376   8.358
    7AU     LIG 3409  20.861  42.674   8.391
    7AU       S 3410  21.396  40.526   6.947
    7AU     LIG 3411  21.808  40.811   6.906
    7AU     LIG 3412  22.042  41.226   6.830
    7AU     LIG 3413  22.050  41.690   6.720
    7AU     LIG 3414  22.344  42.076   6.632
    7AU     LIG 3415  22.630  42.489   6.677
    7AU    AUSL 3416  21.830  40.319   7.605
    7AU    AUSL 3417  21.820  40.024   8.187
    7AU     AUL 3418  21.932  40.282   7.961
    7AU       S 3419  22.057  40.109   8.404
    7AU     LIG 3420  22.405  40.076   8.754
    7AU     LIG 3421  22.671  40.221   9.117
    7AU     LIG 3422  22.921  40.329   9.501
    7AU     LIG 3423  23.103  40.609   9.835
    7AU     LIG 3424  23.024  40.996  10.097
    7AU       S 3425  21.749  40.666   7.775
    7AU     LIG 3426  22.010  40.919   8.061
    7AU     LIG 3427  22.135  41.334   8.284
    7AU     LIG 3428  22.456  41.703   8.348
    7AU     LIG 3429  22.549  42.176   8.400
    7AU     LIG 3430  22.521  42.612   8.542
    7AU    AUSL 3431  21.449  38.727   7.934
    7AU    AUSL 3432  21.857  38.736   7.768
    7AU     AUL 3433  21.680  38.610   8.155
    7AU       S 3434  21.423  38.265   7.984
    7AU     LIG 3435  21.319  37.920   8.255
    7AU     LIG 3436  21.318  37.481   8.384
    7AU     LIG 3437  21.343  37.103   8.642
    7AU     LIG 3438  21.418  36.938   9.083
    7AU     LIG 3439  21.377  36.548   9.324
    7AU       S 3440  22.009  38.515   7.819
    7AU     LIG 3441  21.950  38.121   8.073
    7AU     LIG 3442  22.212  37.806   8.351
    7AU     LIG 3443  22.539  37.499   8.545
    7AU     LIG 3444  22.776  37.171   8.796
    7AU     LIG 3445  23.040  36.753   8.825
    7AU    AUSL 3446  21.129  38.586   7.650
    7AU    AUSL 3447  21.242  38.900   8.251
    7AU     AUL 3448  21.107  38.614   8.016
    7AU       S 3449  21.244  38.207   7.820
    7AU     LIG 3450  20.891  38.061   8.007
    7AU     LIG 3451  20.879  37.619   8.128
    7AU     LIG 3452  20.925  37.163   8.242
    7AU     LIG 3453  20.995  36.689   8.215
    7AU     LIG 3454  20.791  36.243   8.161
    7AU       S 3455  21.035  38.781   8.452
    7AU     LIG 3456  20.844  38.288   8.480
    7AU     LIG 3457  20.410  38.077   8.598
    7AU     LIG 3458  20.118  37.779   8.859
    7AU     LIG 3459  19.852  37.549   9.190
    7AU     LIG 3460  19.815  37.315   9.617
    7AU    AUSL 3461  21.558  38.497   7.590
    7AU    AUSL 3462  21.330  38.742   7.305
    7AU     AUL 3463  21.202  38.403   7.401
    7AU       S 3464  21.559  38.312   7.138
    7AU     LIG 3465  21.136  38.078   7.037
    7AU     LIG 3466  20.989  37.649   7.032
    7AU     LIG 3467  21.017  37.186   6.961
    7AU     LIG 3468  20.887  36.760   6.801
    7AU     LIG 3469  20.526  36.424   6.807
    7AU       S 3470  21.565  38.287   7.722
    7AU     LIG 3471  21.600  37.822   7.825
    7AU     LIG 3472  21.412  37.407   7.881
    7AU     LIG 3473  21.397  37.023   8.131
    7AU     LIG 3474  21.612  36.656   8.261
    7AU     LIG 3475  22.055  36.565   8.392
    7AU    AUSL 3476  21.489  40.086   6.840
    7AU    AUSL 3477  22.057  40.132   7.265
    7AU     AUL 3478  21.831  40.289   6.919
    7AU       S 3479  21.419  40.436   6.740
    7AU     LIG 3480  21.683  40.655   6.451
    7AU     LIG 3481  21.782  41.117   6.384
    7AU     LIG 3482  21.753  41.471   6.054
    7AU     LIG 3483  21.694  41.835   5.737
    7AU     LIG 3484  21.578  42.209   5.461
    7AU       S 3485  22.253  40.286   7.093
    7AU     LIG 3486  22.632  40.515   6.857
    7AU     LIG 3487  22.823  40.641   6.436
    7AU     LIG 3488  23.072  40.977   6.173
    7AU     LIG 3489  23.404  41.351   6.154
    7AU     LIG 3490  23.743  41.704   6.098
    7AU    AUSL 3491  21.294  40.110   7.243
    7AU    AUSL 3492  21.215  39.782   6.953
    7AU     AUL 3493  21.140  40.076   6.815
    7AU       S 3494  21.223  40.455   7.095
    7AU     LIG 3495  21.340  40.991   7.043
    7AU     LIG 3496  21.541  41.378   6.796
    7AU     LIG 3497  21.465  41.856   6.655
    7AU     LIG 3498  21.180  42.282   6.583
    7AU     LIG 3499  20.969  42.741   6.651
    7AU       S 3500  20.695  40.095   6.699
    7AU     LIG 3501  20.913  40.137   6.318
    7AU     LIG 3502  20.804  40.420   5.940
    7AU     LIG 3503  20.547  40.681   5.604
    7AU     LIG 3504  20.382  40.929   5.215
    7AU     LIG 3505  20.316  41.304   4.923
    7AU    AUSL 3506  21.518  38.719   6.911
    7AU    AUSL 3507  20.922  38.757   7.218
    7AU     AUL 3508  21.181  38.597   6.966
    7AU       S 3509  20.734  38.723   7.006
    7AU     LIG 3510  20.472  38.373   7.092
    7AU     LIG 3511  20.161  38.063   6.894
    7AU     LIG 3512  19.973  37.767   6.547
    7AU     LIG 3513  19.765  37.359   6.328
    7AU     LIG 3514  19.462  36.995   6.173
    7AU       S 3515  21.568  38.312   6.930
    7AU     LIG 3516  21.532  37.868   6.794
    7AU     LIG 3517  21.304  37.482   6.646
    7AU     LIG 3518  21.255  37.042   6.501
    7AU     LIG 3519  21.396  36.773   6.152
    7AU     LIG 3520  21.248  36.684   5.703
    7AU    AUSL 3521  21.756  38.717   7.296
    7AU    AUSL 3522  21.782  39.040   6.957
    7AU     AUL 3523  21.859  38.670   6.928
    7AU       S 3524  21.802  38.321   7.232
    7AU     LIG 3525  21.577  37.871   7.320
    7AU     LIG 3526  21.460  37.465   7.136
    7AU     LIG 3527  21.516  37.055   6.940
    7AU     LIG 3528  21.671  36.731   6.650
    7AU     LIG 3529  22.059  36.471   6.691
    7AU       S 3530  22.095  38.863   6.593
    7AU     LIG 3531  21.948  38.421   6.511
    7AU     LIG 3532  22.132  38.039   6.309
    7AU     LIG 3533  22.372  37.711   6.051
    7AU     LIG 3534  22.517  37.505   5.647
    7AU     LIG 3535  22.616  37.394   5.185
    8AU     AUC 3536  28.704   6.166   7.500
    8AU     AUC 3537  28.979   6.177   7.321
    8AU     AUC 3538  28.969   6.151   7.671
    8AU     AUC 3539  28.421   6.162   7.334
    8AU     AUC 3540  28.438   6.200   7.685
    8AU     AUC 3541  28.539   6.448   7.497
    8AU     AUC 3542  28.892   6.448   7.486
    8AU     AUC 3543  28.518   5.898   7.509
    8AU     AUC 3544  28.868   5.872   7.497
    8AU     AUC 3545  28.706   5.989   7.776
    8AU     AUC 3546  28.704   6.357   7.762
    8AU     AUC 3547  28.700   5.998   7.223
    8AU     AUC 3548  28.718   6.322   7.220
    8AU     AUC 3549  29.291   6.184   7.153
    8AU     AUC 3550  29.306   6.134   7.513
    8AU     AUC 3551  29.258   6.120   7.864
    8AU     AUC 3552  28.122   6.149   7.165
    8AU     AUC 3553  28.101   6.196   7.530
    8AU     AUC 3554  28.156   6.233   7.873
    8AU     AUC 3555  28.379   6.752   7.478
    8AU     AUC 3556  28.744   6.786   7.453
    8AU     AUC 3557  29.077   6.730   7.479
    8AU     AUC 3558  28.321   5.623   7.519
    8AU     AUC 3559  28.672   5.563   7.493
    8AU     AUC 3560  29.032   5.570   7.479
    8AU     AUC 3561  28.690   5.811   8.069
    8AU     AUC 3562  28.708   6.176   8.096
    8AU     AUC 3563  28.734   6.533   8.054
    8AU     AUC 3564  28.725   5.824   6.947
    8AU     AUC 3565  28.711   6.159   6.887
    8AU     AUC 3566  28.698   6.487   6.919
    8AU     AUC 3567  28.973   5.938   7.991
    8AU     AUC 3568  29.018   6.323   7.983
    8AU     AUC 3569  29.033   6.028   6.991
    8AU     AUC 3570  29.023   6.350   7.026
    8AU     AUC 3571  28.406   6.043   8.019
    8AU     AUC 3572  28.431   6.419   7.993
    8AU     AUC 3573  28.401   5.972   7.043
    8AU     AUC 3574  28.383   6.295   6.993
    8AU     AUC 3575  29.237   6.453   7.341
    8AU     AUC 3576  29.184   6.423   7.689
    8AU     AUC 3577  28.226   6.461   7.311
    8AU     AUC 3578  28.239   6.513   7.677
    8AU     AUC 3579  29.177   5.860   7.322
    8AU     AUC 3580  29.146   5.808   7.682
    8AU     AUC 3581  28.185   5.863   7.369
    8AU     AUC 3582  28.238   5.917   7.723
    8AU     AUC 3583  28.557   6.694   7.763
    8AU     AUC 3584  28.908   6.649   7.770
    8AU     AUC 3585  28.511   5.693   7.808
    8AU     AUC 3586  28.830   5.635   7.774
    8AU     AUC 3587  28.532   6.603   7.181
    8AU     AUC 3588  28.906   6.648   7.195
    8AU     AUC 3589  28.509   5.691   7.211
    8AU     AUC 3590  28.904   5.708   7.200
    8AU    AUSL 3591  29.238   6.055   8.228
    8AU    AUSL 3592  28.965   5.647   8.153
    8AU     AUL 3593  29.264   5.650   8.355
    8AU       S 3594  29.335   5.273   8.110
    8AU     LIG 3595  29.163   5.020   8.443
    8AU     LIG 3596  29.304   4.697   8.724
    8AU     LIG 3597  29.523   4.541   9.104
    8AU     LIG 3598  29.767   4.276   9.400
    8AU     LIG 3599  29.863   4.182   9.865
    8AU       S 3600  29.468   6.054   8.358
    8AU     LIG 3601  29.337   6.081   8.800
    8AU     LIG 3602  29.434   6.108   9.258
    8AU     LIG 3603  29.673   5.959   9.647
    8AU     LIG 3604  29.851   5.822  10.064
    8AU     LIG 3605  30.284   5.799  10.273
    8AU    AUSL 3606  28.838   5.977   8.399
    8AU    AUSL 3607  28.588   6.364   8.422
    8AU     AUL 3608  28.784   6.281   8.736
    8AU       S 3609  28.935   5.892   8.558
    8AU     LIG 3610  28.910   5.862   9.002
    8AU     LIG 3611  29.127   5.716   9.390
    8AU     LIG 3612  29.319   5.628   9.812
    8AU     LIG 3613  29.437   5.537  10.258
    8AU     LIG 3614  29.365   5.302  10.676
    8AU       S 3615  28.377   6.097   8.641
    8AU     LIG 3616  28.433   6.101   9.106
    8AU     LIG 3617  28.175   6.027   9.495
    8AU     LIG 3618  27.929   6.018   9.904
    8AU     LIG 3619  27.888   6.249  10.324
    8AU     LIG 3620  27.884   6.510  10.735
    8AU    AUSL 3621  28.908   6.347   8.157
    8AU    AUSL 3622  29.347   6.448   8.096
    8AU     AUL 3623  29.134   6.359   8.439
    8AU       S 3624  28.816   6.735   8.583
    8AU     LIG 3625  29.165   6.589   8.886
    8AU     LIG 3626  29.442   6.631   9.272
    8AU     LIG 3627  29.446   6.677   9.761
    8AU     LIG 3628  29.408   6.750  10.244
    8AU     LIG 3629  29.550   6.950  10.656
    8AU       S 3630  29.510   6.577   8.270
    8AU     LIG 3631  29.926   6.566   8.310
    8AU     LIG 3632  30.188   6.755   8.660
    8AU     LIG 3633  30.443   6.983   8.996
    8AU     LIG 3634  30.645   7.246   9.337
    8AU     LIG 3635  30.863   7.273   9.762
    8AU    AUSL 3636  29.239   6.308   6.759
    8AU    AUSL 3637  29.018   6.626   6.963
    8AU     AUL 3638  29.155   6.687   6.624
    8AU       S 3639  29.176   6.357   6.311
    8AU     LIG 3640  29.566   6.250   6.108
    8AU     LIG 3641  29.702   5.975   5.791
    8AU     LIG 3642  29.840   5.891   5.366
    8AU     LIG 3643  30.091   5.861   4.975
    8AU     LIG 3644  30.525   5.767   4.808
    8AU       S 3645  29.494   6.877   6.882
    8AU     LIG 3646  29.608   7.062   6.487
    8AU     LIG 3647  29.819   7.259   6.097
    8AU     LIG 3648  30.071   7.480   5.755
    8AU     LIG 3649  30.285   7.781   5.444
    8AU     LIG 3650  30.434   7.946   5.009
    8AU    AUSL 3651  29.012   5.978   6.603
    8AU    AUSL 3652  29.380   5.939   6.923
    8AU     AUL 3653  29.426   6.070   6.604
    8AU       S 3654  29.539   5.625   6.696
    8AU     LIG 3655  29.659   5.231   6.409
    8AU     LIG 3656  29.849   4.782   6.326
    8AU     LIG 3657  30.077   4.527   5.990
    8AU     LIG 3658  30.308   4.588   5.555
    8AU     LIG 3659  30.707   4.544   5.287
    8AU       S 3660  29.104   6.205   6.290
    8AU     LIG 3661  29.239   5.835   6.085
    8AU     LIG 3662  29.339   5.660   5.625
    8AU     LIG 3663  29.495   5.560   5.174
    8AU     LIG 3664  29.606   5.397   4.731
    8AU     LIG 3665  29.522   5.148   4.317
    8AU    AUSL 3666  28.815   6.357   6.692
    8AU    AUSL 3667  28.601   5.954   6.731
    8AU     AUL 3668  28.744   5.973   6.438
    8AU       S 3669  28.305   5.982   6.297
    8AU     LIG 3670  28.437   5.769   5.942
    8AU     LIG 3671  28.213   5.485   5.640
    8AU     LIG 3672  28.036   5.466   5.210
    8AU     LIG 3673  27.807   5.293   4.838
    8AU     LIG 3674  27.769   5.284   4.367
    8AU       S 3675  28.847   6.428   6.382
    8AU     LIG 3676  28.779   6.226   5.940
    8AU     LIG 3677  29.191   6.158   5.678
    8AU     LIG 3678  29.381   6.084   5.239
    8AU     LIG 3679  29.466   6.220   4.774
    8AU     LIG 3680  29.480   6.405   4.323
    8AU    AUSL 3681  28.186   6.309   8.260
    8AU    AUSL 3682  28.463   6.669   8.154
    8AU     AUL 3683  28.342   6.589   8.494
    8AU       S 3684  28.179   6.177   8.672
    8AU     LIG 3685  27.987   5.870   8.939
    8AU     LIG 3686  27.751   5.773   9.347
    8AU     LIG 3687  27.534   5.688   9.765
    8AU     LIG 3688  27.166   5.741  10.062
    8AU     LIG 3689  26.858   5.974  10.348
    8AU       S 3690  28.103   6.897   8.233
    8AU     LIG 3691  28.113   7.096   8.634
    8AU     LIG 3692  27.989   7.379   9.004
    8AU     LIG 3693  27.915   7.727   9.324
    8AU     LIG 3694  27.795   7.883   9.766
    8AU     LIG 3695  27.758   8.120  10.184
    8AU    AUSL 3696  28.486   6.024   8.167
    8AU    AUSL 3697  28.071   5.895   8.146
    8AU     AUL 3698  27.963   6.133   8.270
    8AU       S 3699  27.984   5.684   8.410
    8AU     LIG 3700  27.542   5.575   8.235
    8AU     LIG 3701  27.296   5.186   8.337
    8AU     LIG 3702  26.996   4.962   8.623
    8AU     LIG 3703  26.830   4.740   8.997
    8AU     LIG 3704  26.519   4.754   9.351
    8AU       S 3705  28.373   5.967   8.551
    8AU     LIG 3706  28.458   5.652   8.877
    8AU     LIG 3707  28.244   5.564   9.279
    8AU     LIG 3708  28.044   5.549   9.706
    8AU     LIG 3709  27.863   5.514  10.134
    8AU     LIG 3710  27.876   5.268  10.542
    8AU    AUSL 3711  28.176   6.020   6.777
    8AU    AUSL 3712  28.378   5.672   6.955
    8AU     AUL 3713  28.419   5.665   6.622
    8AU       S 3714  28.124   5.909   6.361
    8AU     LIG 3715  27.917   5.784   5.968
    8AU     LIG 3716  27.705   5.626   5.574
    8AU     LIG 3717  27.536   5.651   5.135
    8AU     LIG 3718  27.129   5.704   4.871
    8AU     LIG 3719  26.693   5.797   4.688
    8AU       S 3720  28.003   5.555   6.785
    8AU     LIG 3721  28.045   5.144   6.614
    8AU     LIG 3722  27.689   4.872   6.465
    8AU     LIG 3723  27.363   4.752   6.130
    8AU     LIG 3724  27.285   4.636   5.667
    8AU     LIG 3725  27.265   4.381   5.259
    8AU    AUSL 3726  28.406   6.332   6.596
    8AU    AUSL 3727  28.049   6.418   6.902
    8AU     AUL 3728  27.970   6.250   6.621
    8AU       S 3729  28.083   6.690   6.633
    8AU     LIG 3730  27.739   6.858   6.441
    8AU     LIG 3731  27.568   7.138   6.097
    8AU     LIG 3732  27.365   7.205   5.662
    8AU     LIG 3733  27.019   7.270   5.334
    8AU     LIG 3734  26.653   7.487   5.106
    8AU       S 3735  28.360   6.256   6.343
    8AU     LIG 3736  28.200   6.230   5.886
    8AU     LIG 3737  28.090   5.968   5.502
    8AU     LIG 3738  27.964   5.965   5.041
    8AU     LIG 3739  28.002   6.229   4.627
    8AU     LIG 3740  28.008   6.593   4.297
    8AU    AUSL 3741  29.510   6.642   7.517
    8AU    AUSL 3742  29.406   6.470   7.113
    8AU     AUL 3743  29.785   6.732   7.282
    8AU       S 3744  29.511   6.643   6.937
    8AU     LIG 3745  29.652   6.541   6.528
    8AU     LIG 3746  29.958   6.763   6.238
    8AU     LIG 3747  30.277   7.041   6.008
    8AU     LIG 3748  30.551   7.298   5.710
    8AU     LIG 3749  30.969   7.405   5.509
    8AU       S 3750  29.883   6.495   7.680
    8AU     LIG 3751  30.273   6.670   7.529
    8AU     LIG 3752  30.727   6.864   7.502
    8AU     LIG 3753  31.173   6.977   7.599
    8AU     LIG 3754  31.484   7.349   7.654
    8AU     LIG 3755  31.696   7.719   7.474
    8AU    AUSL 3756  29.665   6.239   7.357
    8AU    AUSL 3757  29.614   5.909   7.697
    8AU     AUL 3758  29.972   5.978   7.614
    8AU       S 3759  29.778   6.288   7.371
    8AU     LIG 3760  30.188   6.272   7.208
    8AU     LIG 3761  30.645   6.425   7.257
    8AU     LIG 3762  31.114   6.543   7.285
    8AU     LIG 3763  31.550   6.557   7.087
    8AU     LIG 3764  31.891   6.887   6.917
    8AU       S 3765  29.852   5.514   7.673
    8AU     LIG 3766  30.313   5.403   7.644
    8AU     LIG 3767  30.720   5.185   7.745
    8AU     LIG 3768  31.172   5.147   7.697
    8AU     LIG 3769  31.494   5.348   7.960
    8AU     LIG 3770  31.891   5.212   8.122
    8AU    AUSL 3771  29.412   6.279   7.721
    8AU    AUSL 3772  29.172   6.685   7.776
    8AU     AUL 3773  29.498   6.719   7.824
    8AU       S 3774  29.491   6.890   8.248
    8AU     LIG 3775  29.862   7.077   8.417
    8AU     LIG 3776  30.133   7.290   8.729
    8AU     LIG 3777  30.482   7.547   8.930
    8AU     LIG 3778  30.764   7.960   8.904
    8AU     LIG 3779  31.053   8.367   8.848
    8AU       S 3780  29.749   6.331   7.837
    8AU     LIG 3781  30.241   6.294   7.942
    8AU     LIG 3782  30.659   6.451   7.790
    8AU     LIG 3783  31.113   6.423   7.786
    8AU     LIG 3784  31.527   6.620   7.711
    8AU     LIG 3785  31.802   6.976   7.843
    8AU    AUSL 3786  28.057   6.729   7.513
    8AU    AUSL 3787  28.124   6.529   7.910
    8AU     AUL 3788  27.825   6.846   7.754
    8AU       S 3789  27.963   6.701   8.172
    8AU     LIG 3790  27.854   6.616   8.598
    8AU     LIG 3791  27.722   6.912   8.948
    8AU     LIG 3792  27.386   7.099   9.236
    8AU     LIG 3793  26.978   7.184   9.483
    8AU     LIG 3794  26.650   7.353   9.788
    8AU       S 3795  28.066   7.124   7.439
    8AU     LIG 3796  27.587   7.089   7.373
    8AU     LIG 3797  27.163   7.377   7.445
    8AU     LIG 3798  26.793   7.745   7.490
    8AU     LIG 3799  26.335   7.958   7.566
    8AU     LIG 3800  25.954   8.074   7.865
    8AU    AUSL 3801  27.994   6.350   7.309
    8AU    AUSL 3802  28.132   6.795   7.106
    8AU     AUL 3803  27.833   6.656   7.160
    8AU       S 3804  27.656   6.174   6.984
    8AU     LIG 3805  27.351   6.543   6.982
    8AU     LIG 3806  26.873   6.683   6.877
    8AU     LIG 3807  26.374   6.729   6.770
    8AU     LIG 3808  25.933   6.895   6.606
    8AU     LIG 3809  25.472   7.030   6.575
    8AU       S 3810  27.945   7.053   6.894
    8AU     LIG 3811  27.799   7.355   6.553
    8AU     LIG 3812  27.789   7.753   6.304
    8AU     LIG 3813  27.563   8.154   6.142
    8AU     LIG 3814  27.233   8.473   5.975
    8AU     LIG 3815  26.986   8.889   6.012
    8AU    AUSL 3816  27.795   6.394   7.696
    8AU    AUSL 3817  27.755   6.023   7.416
    8AU     AUL 3818  27.596   6.352   7.421
    8AU       S 3819  27.547   5.950   7.689
    8AU     LIG 3820  27.104   5.827   7.497
    8AU     LIG 3821  26.622   5.717   7.453
    8AU     LIG 3822  26.182   5.826   7.307
    8AU     LIG 3823  25.735   5.757   7.273
    8AU     LIG 3824  25.482   5.418   7.141
    8AU       S 3825  27.644   6.427   7.919
    8AU     LIG 3826  27.315   6.674   7.734
    8AU     LIG 3827  26.857   6.770   7.876
    8AU     LIG 3828  26.453   6.948   8.102
    8AU     LIG 3829  26.034   7.146   8.234
    8AU     LIG 3830  25.602   6.976   8.181
    8AU    AUSL 3831  29.382   5.579   7.535
    8AU    AUSL 3832  29.235   5.835   7.873
    8AU     AUL 3833  29.541   5.728   7.945
    8AU       S 3834  29.585   5.418   7.508
    8AU     LIG 3835  29.978   5.119   7.310
    8AU     LIG 3836  30.436   4.964   7.372
    8AU     LIG 3837  30.841   4.726   7.527
    8AU     LIG 3838  31.258   4.470   7.526
    8AU     LIG 3839  31.688   4.231   7.481
    8AU       S 3840  29.460   5.282   7.963
    8AU     LIG 3841  29.669   4.979   8.317
    8AU     LIG 3842  29.809   4.636   8.640
    8AU     LIG 3843  30.048   4.530   9.032
    8AU     LIG 3844  30.366   4.681   9.369
    8AU     LIG 3845  30.705   4.727   9.710
    8AU    AUSL 3846  29.360   5.959   7.340
    8AU    AUSL 3847  29.316   5.553   7.118
    8AU     AUL 3848  29.602   5.786   7.174
    8AU       S 3849  29.843   5.550   7.464
    8AU     LIG 3850  30.214   5.688   7.233
    8AU     LIG 3851  30.554   5.401   7.090
    8AU     LIG 3852  30.917   5.149   7.245
    8AU     LIG 3853  31.390   5.223   7.219
    8AU     LIG 3854  31.848   5.240   7.040
    8AU       S 3855  29.522   5.435   6.862
    8AU     LIG 3856  29.514   4.983   6.831
    8AU     LIG 3857  29.532   4.522   6.674
    8AU     LIG 3858  29.764   4.245   6.359
    8AU     LIG 3859  30.100   3.990   6.132
    8AU     LIG 3860  30.430   3.632   6.098
    8AU    AUSL 3861  27.952   5.660   7.572
    8AU    AUSL 3862  28.059   5.889   7.159
    8AU     AUL 3863  27.702   5.728   7.297
    8AU       S 3864  27.866   5.685   6.868
    8AU     LIG 3865  27.551   5.331   6.719
    8AU     LIG 3866  27.218   5.112   6.486
    8AU     LIG 3867  26.864   4.936   6.232
    8AU     LIG 3868  26.477   4.810   5.994
    8AU     LIG 3869  26.177   4.701   5.636
    8AU       S 3870  27.535   5.737   7.748
    8AU     LIG 3871  27.390   5.388   7.529
    8AU     LIG 3872  26.949   5.307   7.362
    8AU     LIG 3873  26.472   5.214   7.361
    8AU     LIG 3874  26.149   4.904   7.515
    8AU     LIG 3875  25.836   4.533   7.537
    8AU    AUSL 3876  28.019   6.045   7.760
    8AU    AUSL 3877  28.276   5.669   7.847
    8AU     AUL 3878  27.948   5.634   7.919
    8AU       S 3879  28.004   5.470   8.352
    8AU     LIG 3880  27.828   5.167   8.049
    8AU     LIG 3881  27.506   4.857   8.001
    8AU     LIG 3882  27.223   4.639   8.293
    8AU     LIG 3883  26.926   4.430   8.590
    8AU     LIG 3884  26.660   4.078   8.751
    8AU       S 3885  27.626   5.962   7.878
    8AU     LIG 3886  27.161   6.186   7.869
    8AU     LIG 3887  26.676   6.106   7.789
    8AU     LIG 3888  26.228   5.883   7.828
    8AU     LIG 3889  25.760   5.789   7.796
    8AU     LIG 3890  25.520   5.385   7.699
    8AU    AUSL 3891  28.750   6.854   7.900
    8AU    AUSL 3892  28.311   6.897   7.816
    8AU     AUL 3893  28.568   6.984   8.181
    8AU       S 3894  28.190   7.088   7.929
    8AU     LIG 3895  27.880   7.327   8.208
    8AU     LIG 3896  27.925   7.614   8.554
    8AU     LIG 3897  27.941   7.966   8.856
    8AU     LIG 3898  27.711   8.338   9.010
    8AU     LIG 3899  27.375   8.671   8.959
    8AU       S 3900  28.787   7.323   7.950
    8AU     LIG 3901  28.901   7.406   8.340
    8AU     LIG 3902  28.784   7.812   8.550
    8AU     LIG 3903  28.782   8.058   8.942
    8AU     LIG 3904  28.801   8.418   9.243
    8AU     LIG 3905  28.817   8.738   9.595
    8AU    AUSL 3906  28.582   7.108   7.583
    8AU    AUSL 3907  28.871   7.054   7.220
    8AU     AUL 3908  28.617   7.335   7.327
    8AU       S 3909  28.641   7.325   7.802
    8AU     LIG 3910  28.698   7.790   8.047
    8AU     LIG 3911  28.678   8.238   8.254
    8AU     LIG 3912  28.413   8.644   8.330
    8AU     LIG 3913  28.220   9.120   8.274
    8AU     LIG 3914  28.025   9.596   8.273
    8AU       S 3915  28.775   7.359   6.887
    8AU     LIG 3916  29.093   7.544   7.069
    8AU     LIG 3917  29.145   8.024   6.990
    8AU     LIG 3918  29.219   8.487   6.840
    8AU     LIG 3919  29.335   8.947   6.708
    8AU     LIG 3920  29.267   9.409   6.589
    8AU    AUSL 3921  29.022   7.043   7.619
    8AU    AUSL 3922  29.033   6.745   8.186
    8AU     AUL 3923  29.123   7.007   7.969
    8AU       S 3924  29.274   6.823   8.401
    8AU     LIG 3925  29.628   6.743   8.733
    8AU     LIG 3926  29.901   6.946   9.051
    8AU     LIG 3927  30.133   7.301   9.262
    8AU     LIG 3928  30.301   7.537   9.632
    8AU     LIG 3929  30.173   7.804  10.012
    8AU       S 3930  28.988   7.346   7.658
    8AU     LIG 3931  29.186   7.626   7.960
    8AU     LIG 3932  29.141   8.018   8.212
    8AU     LIG 3933  29.157   8.499   8.270
    8AU     LIG 3934  29.375   8.947   8.296
    8AU     LIG 3935  29.544   9.398   8.399
    8AU    AUSL 3936  28.651   5.447   7.938
    8AU    AUSL 3937  29.062   5.450   7.778
    8AU     AUL 3938  28.877   5.332   8.165
    8AU       S 3939  28.621   4.990   7.985
    8AU     LIG 3940  28.649   4.857   8.356
    8AU     LIG 3941  28.543   4.440   8.504
    8AU     LIG 3942  28.555   3.992   8.589
    8AU     LIG 3943  28.623   3.639   8.856
    8AU     LIG 3944  28.686   3.533   9.309
    8AU       S 3945  29.208   5.240   7.827
    8AU     LIG 3946  29.213   4.811   7.987
    8AU     LIG 3947  29.518   4.505   8.238
    8AU     LIG 3948  29.811   4.131   8.311
    8AU     LIG 3949  30.047   3.853   8.620
    8AU     LIG 3950  30.342   3.523   8.845
    8AU    AUSL 3951  28.332   5.302   7.660
    8AU    AUSL 3952  28.446   5.623   8.255
    8AU     AUL 3953  28.310   5.339   8.024
    8AU       S 3954  28.427   4.924   7.841
    8AU     LIG 3955  28.240   4.608   8.112
    8AU     LIG 3956  28.266   4.129   8.179
    8AU     LIG 3957  28.199   3.641   8.282
    8AU     LIG 3958  27.987   3.163   8.265
    8AU     LIG 3959  27.925   2.666   8.329
    8AU       S 3960  28.257   5.508   8.457
    8AU     LIG 3961  28.143   5.014   8.430
    8AU     LIG 3962  27.684   4.843   8.494
    8AU     LIG 3963  27.358   4.641   8.802
    8AU     LIG 3964  27.209   4.456   9.218
    8AU     LIG 3965  27.298   4.315   9.668
    8AU    AUSL 3966  28.763   5.213   7.598
    8AU    AUSL 3967  28.536   5.460   7.318
    8AU     AUL 3968  28.412   5.116   7.418
    8AU       S 3969  28.771   5.009   7.165
    8AU     LIG 3970  28.335   4.756   7.086
    8AU     LIG 3971  28.187   4.306   7.010
    8AU     LIG 3972  28.239   3.848   6.844
    8AU     LIG 3973  28.046   3.391   6.843
    8AU     LIG 3974  27.867   2.953   6.726
    8AU       S 3975  28.763   4.989   7.749
    8AU     LIG 3976  28.711   4.507   7.929
    8AU     LIG 3977  28.789   4.076   8.147
    8AU     LIG 3978  29.036   3.656   8.202
    8AU     LIG 3979  29.330   3.251   8.162
    8AU     LIG 3980  29.423   2.752   8.128
    8AU    AUSL 3981  28.698   6.876   6.859
    8AU    AUSL 3982  29.223   6.833   7.277
    8AU     AUL 3983  29.049   7.001   6.944
    8AU       S 3984  28.679   7.089   6.657
    8AU     LIG 3985  28.670   7.463   6.361
    8AU     LIG 3986  28.783   7.906   6.208
    8AU     LIG 3987  28.918   8.262   5.917
    8AU     LIG 3988  28.952   8.552   5.531
    8AU     LIG 3989  29.042   9.018   5.423
    8AU       S 3990  29.441   7.012   7.175
    8AU     LIG 3991  29.890   7.141   6.945
    8AU     LIG 3992  30.119   7.209   6.515
    8AU     LIG 3993  30.339   7.516   6.203
    8AU     LIG 3994  30.599   7.919   6.101
    8AU     LIG 3995  30.845   8.339   6.197
    8AU    AUSL 3996  28.511   6.838   7.278
    8AU    AUSL 3997  28.455   6.554   6.946
    8AU     AUL 3998  28.385   6.997   7.033
    8AU       S 3999  28.597   7.346   6.850
    8AU     LIG 4000  28.731   7.814   6.731
    8AU     LIG 4001  28.849   8.229   6.596
    8AU     LIG 4002  28.642   8.628   6.649
    8AU     LIG 4003  28.341   9.006   6.630
    8AU     LIG 4004  28.002   9.358   6.658
    8AU       S 4005  28.265   6.783   6.642
    8AU     LIG 4006  28.241   7.150   6.412
    8AU     LIG 4007  28.029   7.356   6.064
    8AU     LIG 4008  27.778   7.533   5.701
    8AU     LIG 4009  27.689   7.724   5.258
    8AU     LIG 4010  27.532   7.996   4.889
    8AU    AUSL 4011  28.719   5.420   6.926
    8AU    AUSL 4012  28.125   5.461   7.240
    8AU     AUL 4013  28.377   5.302   6.983
    8AU       S 4014  27.932   5.424   7.033
    8AU     LIG 4015  27.806   5.013   7.049
    8AU     LIG 4016  27.403   4.825   6.889
    8AU     LIG 4017  27.116   4.611   6.571
    8AU     LIG 4018  26.729   4.446   6.338
    8AU     LIG 4019  26.378   4.126   6.276
    8AU       S 4020  28.763   5.042   7.004
    8AU     LIG 4021  28.566   4.900   6.669
    8AU     LIG 4022  28.526   4.435   6.655
    8AU     LIG 4023  28.662   4.041   6.448
    8AU     LIG 4024  28.714   3.792   6.042
    8AU     LIG 4025  28.524   3.580   5.649
    8AU    AUSL 4026  28.964   5.429   7.301
    8AU    AUSL 4027  28.973   5.752   6.950
    8AU     AUL 4028  29.064   5.380   6.927
    8AU       S 4029  29.006   5.034   7.239
    8AU     LIG 4030  28.792   4.530   7.110
    8AU     LIG 4031  28.664   4.090   7.028
    8AU     LIG 4032  28.791   3.679   6.840
    8AU     LIG 4033  28.990   3.221   6.875
    8AU     LIG 4034  29.088   2.738   6.933
    8AU       S 4035  29.287   5.594   6.594
    8AU     LIG 4036  29.152   5.172   6.476
    8AU     LIG 4037  29.348   4.793   6.281
    8AU     LIG 4038  29.542   4.499   5.963
    8AU     LIG 4039  29.804   4.398   5.569
    8AU     LIG 4040  30.055   4.240   5.194
    9AU     AUC 4041  15.076   4.205   7.501
    9AU     AUC 4042  15.366   4.204   7.327
    9AU     AUC 4043  15.343   4.184   7.674
    9AU     AUC 4044  14.789   4.201   7.337
    9AU     AUC 4045  14.808   4.243   7.686
    9AU     AUC 4046  14.910   4.490   7.494
    9AU     AUC 4047  15.268   4.480   7.486
    9AU     AUC 4048  14.881   3.939   7.510
    9AU     AUC 4049  15.235   3.910   7.499
    9AU     AUC 4050  15.073   4.029   7.778
    9AU     AUC 4051  15.076   4.397   7.759
    9AU     AUC 4052  15.070   4.038   7.226
    9AU     AUC 4053  15.097   4.358   7.222
    9AU     AUC 4054  15.682   4.206   7.162
    9AU     AUC 4055  15.687   4.165   7.521
    9AU     AUC 4056  15.629   4.154   7.871
    9AU     AUC 4057  14.484   4.196   7.172
    9AU     AUC 4058  14.468   4.238   7.537
    9AU     AUC 4059  14.525   4.281   7.876
    9AU     AUC 4060  14.751   4.795   7.466
    9AU     AUC 4061  15.119   4.814   7.445
    9AU     AUC 4062  15.459   4.756   7.475
    9AU     AUC 4063  14.676   3.669   7.518
    9AU     AUC 4064  15.023   3.604   7.495
    9AU     AUC 4065  15.390   3.607   7.480
    9AU     AUC 4066  15.052   3.853   8.072
    9AU     AUC 4067  15.076   4.217   8.097
    9AU     AUC 4068  15.106   4.577   8.048
    9AU     AUC 4069  15.092   3.863   6.949
    9AU     AUC 4070  15.093   4.191   6.891
    9AU     AUC 4071  15.081   4.508   6.929
    9AU     AUC 4072  15.343   3.974   7.992
    9AU     AUC 4073  15.383   4.359   7.987
    9AU     AUC 4074  15.412   4.050   7.001
    9AU     AUC 4075  15.414   4.378   7.038
    9AU     AUC 4076  14.772   4.090   8.019
    9AU     AUC 4077  14.805   4.462   7.989
    9AU     AUC 4078  14.771   4.019   7.042
    9AU     AUC 4079  14.752   4.330   6.997
    9AU     AUC 4080  15.622   4.485   7.350
    9AU     AUC 4081  15.556   4.457   7.697
    9AU     AUC 4082  14.583   4.503   7.330
    9AU     AUC 4083  14.614   4.564   7.681
    9AU     AUC 4084  15.549   3.890   7.324
    9AU     AUC 4085  15.523   3.853   7.675
    9AU     AUC 4086  14.546   3.909   7.365
    9AU     AUC 4087  14.604   3.962   7.723
    9AU     AUC 4088  14.937   4.740   7.751
    9AU     AUC 4089  15.278   4.689   7.768
    9AU     AUC 4090  14.869   3.738   7.810
    9AU     AUC 4091  15.192   3.679   7.776
    9AU     AUC 4092  14.898   4.638   7.182
    9AU     AUC 4093  15.286   4.672   7.190
    9AU     AUC 4094  14.866   3.735   7.211
    9AU     AUC 4095  15.260   3.742   7.205
    9AU    AUSL 4096  15.607   4.095   8.228
    9AU    AUSL 4097  15.331   3.684   8.153
    9AU     AUL 4098  15.631   3.691   8.365
    9AU       S 4099  15.708   3.340   8.086
    9AU     LIG 4100  15.598   3.182   8.476
    9AU     LIG 4101  15.770   2.872   8.756
    9AU     LIG 4102  15.998   2.510   8.938
    9AU     LIG 4103  16.202   2.283   9.303
    9AU     LIG 4104  16.099   2.050   9.716
    9AU       S 4105  15.832   4.095   8.347
    9AU     LIG 4106  15.702   4.108   8.797
    9AU     LIG 4107  15.823   4.077   9.259
    9AU     LIG 4108  16.112   3.905   9.617
    9AU     LIG 4109  16.524   3.827   9.884
    9AU     LIG 4110  16.843   3.836  10.249
    9AU    AUSL 4111  15.205   4.016   8.399
    9AU    AUSL 4112  14.958   4.411   8.422
    9AU     AUL 4113  15.146   4.321   8.738
    9AU       S 4114  15.294   3.936   8.551
    9AU     LIG 4115  15.265   3.899   8.992
    9AU     LIG 4116  15.386   3.858   9.435
    9AU     LIG 4117  15.592   3.660   9.808
    9AU     LIG 4118  15.650   3.313  10.129
    9AU     LIG 4119  15.750   3.194  10.565
    9AU       S 4120  14.736   4.148   8.640
    9AU     LIG 4121  14.784   4.120   9.119
    9AU     LIG 4122  14.527   4.055   9.523
    9AU     LIG 4123  14.308   4.050   9.954
    9AU     LIG 4124  14.184   4.319  10.344
    9AU     LIG 4125  14.017   4.625  10.692
    9AU    AUSL 4126  15.275   4.383   8.156
    9AU    AUSL 4127  15.708   4.495   8.108
    9AU     AUL 4128  15.500   4.400   8.444
    9AU       S 4129  15.185   4.777   8.594
    9AU     LIG 4130  15.522   4.630   8.900
    9AU     LIG 4131  15.675   4.666   9.354
    9AU     LIG 4132  15.618   4.838   9.814
    9AU     LIG 4133  15.618   4.982  10.283
    9AU     LIG 4134  15.781   5.049  10.733
    9AU       S 4135  15.868   4.633   8.279
    9AU     LIG 4136  16.283   4.626   8.334
    9AU     LIG 4137  16.563   4.822   8.660
    9AU     LIG 4138  16.789   5.057   9.008
    9AU     LIG 4139  16.969   5.307   9.361
    9AU     LIG 4140  17.286   5.277   9.721
    9AU    AUSL 4141  15.638   4.327   6.775
    9AU    AUSL 4142  15.430   4.666   6.959
    9AU     AUL 4143  15.539   4.703   6.622
    9AU       S 4144  15.597   4.370   6.314
    9AU     LIG 4145  15.922   4.152   6.068
    9AU     LIG 4146  15.972   3.927   5.648
    9AU     LIG 4147  16.274   3.745   5.311
    9AU     LIG 4148  16.678   3.708   5.025
    9AU     LIG 4149  17.053   3.768   4.722
    9AU       S 4150  15.874   4.896   6.865
    9AU     LIG 4151  15.950   5.113   6.463
    9AU     LIG 4152  16.146   5.341   6.060
    9AU     LIG 4153  16.422   5.566   5.720
    9AU     LIG 4154  16.468   5.812   5.317
    9AU     LIG 4155  16.621   6.111   4.985
    9AU    AUSL 4156  15.396   4.007   6.612
    9AU    AUSL 4157  15.740   3.935   6.914
    9AU     AUL 4158  15.819   4.080   6.614
    9AU       S 4159  15.798   3.618   6.663
    9AU     LIG 4160  15.959   3.328   6.311
    9AU     LIG 4161  16.245   2.964   6.205
    9AU     LIG 4162  16.508   2.618   6.001
    9AU     LIG 4163  16.869   2.498   5.705
    9AU     LIG 4164  17.331   2.488   5.570
    9AU       S 4165  15.487   4.235   6.312
    9AU     LIG 4166  15.511   3.837   6.092
    9AU     LIG 4167  15.554   3.615   5.654
    9AU     LIG 4168  15.659   3.539   5.185
    9AU     LIG 4169  15.751   3.310   4.760
    9AU     LIG 4170  16.048   3.310   4.371
    9AU    AUSL 4171  15.211   4.378   6.729
    9AU    AUSL 4172  14.978   3.992   6.722
    9AU     AUL 4173  15.136   3.984   6.451
    9AU       S 4174  14.693   4.031   6.296
    9AU     LIG 4175  14.823   3.795   5.967
    9AU     LIG 4176  14.565   3.556   5.663
    9AU     LIG 4177  14.355   3.559   5.255
    9AU     LIG 4178  14.300   3.578   4.803
    9AU     LIG 4179  14.028   3.533   4.424
    9AU       S 4180  15.262   4.431   6.368
    9AU     LIG 4181  15.160   4.204   5.949
    9AU     LIG 4182  15.463   4.113   5.587
    9AU     LIG 4183  15.691   4.078   5.161
    9AU     LIG 4184  15.718   4.268   4.710
    9AU     LIG 4185  15.798   4.474   4.275
    9AU    AUSL 4186  14.559   4.364   8.253
    9AU    AUSL 4187  14.850   4.711   8.137
    9AU     AUL 4188  14.718   4.646   8.479
    9AU       S 4189  14.555   4.250   8.687
    9AU     LIG 4190  14.349   3.911   8.900
    9AU     LIG 4191  14.115   3.827   9.296
    9AU     LIG 4192  13.901   3.830   9.712
    9AU     LIG 4193  13.608   3.668  10.032
    9AU     LIG 4194  13.259   3.804  10.303
    9AU       S 4195  14.472   4.951   8.215
    9AU     LIG 4196  14.465   5.103   8.637
    9AU     LIG 4197  14.318   5.329   9.048
    9AU     LIG 4198  14.107   5.524   9.430
    9AU     LIG 4199  13.855   5.640   9.814
    9AU     LIG 4200  13.774   5.907  10.196
    9AU    AUSL 4201  14.852   4.069   8.171
    9AU    AUSL 4202  14.432   3.953   8.147
    9AU     AUL 4203  14.342   4.189   8.284
    9AU       S 4204  14.334   3.739   8.410
    9AU     LIG 4205  13.889   3.661   8.237
    9AU     LIG 4206  13.671   3.258   8.318
    9AU     LIG 4207  13.453   2.988   8.635
    9AU     LIG 4208  13.203   2.702   8.913
    9AU     LIG 4209  12.859   2.575   9.199
    9AU       S 4210  14.739   4.016   8.551
    9AU     LIG 4211  14.819   3.689   8.864
    9AU     LIG 4212  14.594   3.611   9.267
    9AU     LIG 4213  14.358   3.584   9.688
    9AU     LIG 4214  14.121   3.530  10.098
    9AU     LIG 4215  14.089   3.286  10.504
    9AU    AUSL 4216  14.566   4.101   6.771
    9AU    AUSL 4217  14.742   3.731   6.955
    9AU     AUL 4218  14.776   3.715   6.623
    9AU       S 4219  14.469   4.008   6.426
    9AU     LIG 4220  14.305   3.878   5.994
    9AU     LIG 4221  14.047   3.746   5.614
    9AU     LIG 4222  13.861   3.755   5.170
    9AU     LIG 4223  13.496   3.895   4.883
    9AU     LIG 4224  13.268   3.976   4.465
    9AU       S 4225  14.355   3.612   6.772
    9AU     LIG 4226  14.368   3.177   6.637
    9AU     LIG 4227  14.031   2.889   6.512
    9AU     LIG 4228  13.739   2.749   6.171
    9AU     LIG 4229  13.620   2.575   5.752
    9AU     LIG 4230  13.750   2.401   5.325
    9AU    AUSL 4231  14.827   4.392   6.570
    9AU    AUSL 4232  14.363   4.445   6.926
    9AU     AUL 4233  14.471   4.438   6.596
    9AU       S 4234  14.074   4.637   6.752
    9AU     LIG 4235  13.879   4.885   6.391
    9AU     LIG 4236  13.895   5.156   6.010
    9AU     LIG 4237  13.691   5.279   5.590
    9AU     LIG 4238  13.320   5.359   5.292
    9AU     LIG 4239  13.049   5.646   5.012
    9AU       S 4240  14.780   4.261   6.295
    9AU     LIG 4241  14.630   4.269   5.858
    9AU     LIG 4242  14.464   4.033   5.495
    9AU     LIG 4243  14.289   4.035   5.059
    9AU     LIG 4244  14.214   4.215   4.627
    9AU     LIG 4245  14.095   4.484   4.244
    9AU    AUSL 4246  15.881   4.674   7.535
    9AU    AUSL 4247  15.797   4.488   7.133
    9AU     AUL 4248  16.145   4.759   7.300
    9AU       S 4249  15.922   4.665   6.918
    9AU     LIG 4250  16.031   4.585   6.485
    9AU     LIG 4251  16.303   4.849   6.190
    9AU     LIG 4252  16.614   5.143   5.982
    9AU     LIG 4253  17.010   5.221   5.747
    9AU     LIG 4254  17.368   5.204   5.433
    9AU       S 4255  16.260   4.561   7.716
    9AU     LIG 4256  16.695   4.746   7.598
    9AU     LIG 4257  17.178   4.885   7.583
    9AU     LIG 4258  17.656   5.032   7.589
    9AU     LIG 4259  17.886   5.414   7.401
    9AU     LIG 4260  18.029   5.875   7.311
    9AU    AUSL 4261  16.057   4.277   7.399
    9AU    AUSL 4262  15.986   3.949   7.706
    9AU     AUL 4263  16.353   4.041   7.753
    9AU       S 4264  16.198   4.328   7.444
    9AU     LIG 4265  16.669   4.271   7.420
    9AU     LIG 4266  17.124   4.455   7.306
    9AU     LIG 4267  17.564   4.688   7.229
    9AU     LIG 4268  18.000   4.950   7.156
    9AU     LIG 4269  18.487   5.023   7.038
    9AU       S 4270  16.214   3.666   7.522
    9AU     LIG 4271  16.466   3.532   7.838
    9AU     LIG 4272  16.862   3.278   7.777
    9AU     LIG 4273  17.316   3.123   7.702
    9AU     LIG 4274  17.777   3.213   7.818
    9AU     LIG 4275  18.242   3.147   7.959
    9AU    AUSL 4276  15.780   4.315   7.741
    9AU    AUSL 4277  15.534   4.720   7.780
    9AU     AUL 4278  15.854   4.768   7.830
    9AU       S 4279  15.847   4.938   8.256
    9AU     LIG 4280  16.218   5.136   8.430
    9AU     LIG 4281  16.515   5.367   8.709
    9AU     LIG 4282  16.802   5.653   8.961
    9AU     LIG 4283  16.954   6.113   8.977
    9AU     LIG 4284  17.229   6.501   9.042
    9AU       S 4285  16.104   4.391   7.879
    9AU     LIG 4286  16.615   4.394   7.997
    9AU     LIG 4287  17.051   4.423   7.811
    9AU     LIG 4288  17.519   4.529   7.735
    9AU     LIG 4289  17.893   4.668   7.990
    9AU     LIG 4290  18.371   4.662   8.108
    9AU    AUSL 4291  14.425   4.787   7.515
    9AU    AUSL 4292  14.507   4.583   7.901
    9AU     AUL 4293  14.193   4.892   7.756
    9AU       S 4294  14.351   4.762   8.166
    9AU     LIG 4295  14.212   4.645   8.561
    9AU     LIG 4296  14.020   4.940   8.878
    9AU     LIG 4297  13.781   5.246   9.151
    9AU     LIG 4298  13.511   5.351   9.543
    9AU     LIG 4299  13.115   5.392   9.823
    9AU       S 4300  14.425   5.160   7.435
    9AU     LIG 4301  13.959   5.129   7.352
    9AU     LIG 4302  13.496   5.303   7.390
    9AU     LIG 4303  13.076   5.569   7.448
    9AU     LIG 4304  12.648   5.817   7.497
    9AU     LIG 4305  12.266   6.121   7.522
    9AU    AUSL 4306  14.367   4.394   7.337
    9AU    AUSL 4307  14.487   4.822   7.101
    9AU     AUL 4308  14.186   4.702   7.209
    9AU       S 4309  13.978   4.208   6.999
    9AU     LIG 4310  13.671   4.570   7.071
    9AU     LIG 4311  13.208   4.711   6.988
    9AU     LIG 4312  12.858   4.991   6.824
    9AU     LIG 4313  12.407   5.168   6.901
    9AU     LIG 4314  11.943   5.285   6.971
    9AU       S 4315  14.322   5.078   6.936
    9AU     LIG 4316  14.131   5.323   6.556
    9AU     LIG 4317  14.113   5.608   6.170
    9AU     LIG 4318  14.092   6.054   5.977
    9AU     LIG 4319  13.893   6.492   5.916
    9AU     LIG 4320  13.713   6.920   5.785
    9AU    AUSL 4321  14.161   4.441   7.719
    9AU    AUSL 4322  14.120   4.066   7.417
    9AU     AUL 4323  13.962   4.382   7.448
    9AU       S 4324  13.905   3.974   7.688
    9AU     LIG 4325  13.562   3.837   7.348
    9AU     LIG 4326  13.133   3.599   7.315
    9AU     LIG 4327  12.676   3.524   7.164
    9AU     LIG 4328  12.207   3.596   7.223
    9AU     LIG 4329  11.813   3.363   7.027
    9AU       S 4330  14.041   4.454   7.946
    9AU     LIG 4331  13.603   4.531   7.940
    9AU     LIG 4332  13.222   4.648   8.226
    9AU     LIG 4333  12.742   4.734   8.320
    9AU     LIG 4334  12.283   4.818   8.201
    9AU     LIG 4335  11.857   5.002   8.117
    9AU    AUSL 4336  15.752   3.616   7.535
    9AU    AUSL 4337  15.612   3.862   7.881
    9AU     AUL 4338  15.936   3.752   7.933
    9AU       S 4339  16.025   3.491   7.517
    9AU     LIG 4340  16.412   3.193   7.455
    9AU     LIG 4341  16.769   2.860   7.484
    9AU     LIG 4342  17.204   2.651   7.494
    9AU     LIG 4343  17.582   2.480   7.724
    9AU     LIG 4344  17.989   2.284   7.800
    9AU       S 4345  15.814   3.313   7.934
    9AU     LIG 4346  16.075   3.081   8.288
    9AU     LIG 4347  16.279   2.841   8.645
    9AU     LIG 4348  16.517   2.537   8.937
    9AU     LIG 4349  16.871   2.446   9.242
    9AU     LIG 4350  17.226   2.624   9.507
    9AU    AUSL 4351  15.764   3.992   7.327
    9AU    AUSL 4352  15.662   3.559   7.125
    9AU     AUL 4353  15.923   3.733   7.127
    9AU       S 4354  16.294   3.815   7.354
    9AU     LIG 4355  16.717   3.608   7.382
    9AU     LIG 4356  17.030   3.252   7.281
    9AU     LIG 4357  17.437   3.003   7.197
    9AU     LIG 4358  17.837   3.006   6.944
    9AU     LIG 4359  18.236   3.232   6.794
    9AU       S 4360  15.848   3.403   6.800
    9AU     LIG 4361  15.991   2.965   6.688
    9AU     LIG 4362  16.145   2.548   6.484
    9AU     LIG 4363  16.472   2.217   6.352
    9AU     LIG 4364  16.802   1.853   6.404
    9AU     LIG 4365  17.028   1.454   6.319
    9AU    AUSL 4366  14.314   3.703   7.569
    9AU    AUSL 4367  14.415   3.951   7.138
    9AU     AUL 4368  14.068   3.790   7.280
    9AU       S 4369  14.241   3.768   6.852
    9AU     LIG 4370  13.878   3.401   6.776
    9AU     LIG 4371  13.570   3.132   6.522
    9AU     LIG 4372  13.248   2.892   6.252
    9AU     LIG 4373  12.922   2.663   5.982
    9AU     LIG 4374  12.600   2.650   5.615
    9AU       S 4375  13.885   3.726   7.713
    9AU     LIG 4376  13.815   3.377   7.390
    9AU     LIG 4377  13.426   3.185   7.202
    9AU     LIG 4378  12.956   3.099   7.297
    9AU     LIG 4379  12.593   2.860   7.483
    9AU     LIG 4380  12.238   2.553   7.483
    9AU    AUSL 4381  14.386   4.090   7.756
    9AU    AUSL 4382  14.632   3.718   7.851
    9AU     AUL 4383  14.295   3.704   7.921
    9AU       S 4384  14.345   3.527   8.347
    9AU     LIG 4385  14.145   3.232   8.043
    9AU     LIG 4386  13.862   2.845   8.061
    9AU     LIG 4387  13.548   2.582   8.333
    9AU     LIG 4388  13.281   2.278   8.620
    9AU     LIG 4389  12.957   1.910   8.701
    9AU       S 4390  13.942   4.000   7.855
    9AU     LIG 4391  13.418   4.077   7.773
    9AU     LIG 4392  12.957   4.005   7.568
    9AU     LIG 4393  12.581   3.668   7.632
    9AU     LIG 4394  12.140   3.616   7.852
    9AU     LIG 4395  11.802   3.239   7.923
    9AU    AUSL 4396  15.127   4.920   7.891
    9AU    AUSL 4397  14.697   4.952   7.802
    9AU     AUL 4398  14.936   5.024   8.179
    9AU       S 4399  14.566   5.145   7.916
    9AU     LIG 4400  14.247   5.379   8.198
    9AU     LIG 4401  14.040   5.415   8.625
    9AU     LIG 4402  13.951   5.722   8.971
    9AU     LIG 4403  13.814   6.178   9.053
    9AU     LIG 4404  13.492   6.522   8.978
    9AU       S 4405  15.134   5.359   7.933
    9AU     LIG 4406  15.313   5.361   8.330
    9AU     LIG 4407  15.360   5.782   8.549
    9AU     LIG 4408  15.294   6.223   8.696
    9AU     LIG 4409  15.093   6.549   8.981
    9AU     LIG 4410  15.078   6.815   9.378
    9AU    AUSL 4411  14.973   5.141   7.544
    9AU    AUSL 4412  15.251   5.032   7.205
    9AU     AUL 4413  15.223   5.388   7.308
    9AU       S 4414  14.972   5.364   7.715
    9AU     LIG 4415  15.009   5.838   7.841
    9AU     LIG 4416  15.092   6.137   8.213
    9AU     LIG 4417  14.926   6.520   8.472
    9AU     LIG 4418  14.804   6.957   8.606
    9AU     LIG 4419  14.450   7.268   8.538
    9AU       S 4420  14.952   5.279   6.957
    9AU     LIG 4421  15.302   5.621   6.875
    9AU     LIG 4422  15.506   6.050   6.798
    9AU     LIG 4423  15.712   6.484   6.724
    9AU     LIG 4424  15.959   6.908   6.750
    9AU     LIG 4425  16.138   7.323   6.940
    9AU    AUSL 4426  15.410   5.078   7.605
    9AU    AUSL 4427  15.387   4.784   8.188
    9AU     AUL 4428  15.490   5.047   7.967
    9AU       S 4429  15.628   4.873   8.404
    9AU     LIG 4430  15.976   4.804   8.739
    9AU     LIG 4431  16.256   5.037   9.017
    9AU     LIG 4432  16.459   5.388   9.242
    9AU     LIG 4433  16.557   5.765   9.499
    9AU     LIG 4434  16.509   6.039   9.893
    9AU       S 4435  15.326   5.430   7.761
    9AU     LIG 4436  15.481   5.771   8.048
    9AU     LIG 4437  15.616   6.186   8.270
    9AU     LIG 4438  15.864   6.626   8.289
    9AU     LIG 4439  16.138   7.054   8.237
    9AU     LIG 4440  16.270   7.533   8.125
    9AU    AUSL 4441  15.006   3.496   7.943
    9AU    AUSL 4442  15.414   3.498   7.765
    9AU     AUL 4443  15.247   3.367   8.151
    9AU       S 4444  14.962   3.033   8.002
    9AU     LIG 4445  14.833   2.758   8.323
    9AU     LIG 4446  14.733   2.320   8.447
    9AU     LIG 4447  14.809   1.848   8.490
    9AU     LIG 4448  14.922   1.377   8.565
    9AU     LIG 4449  14.853   1.006   8.874
    9AU       S 4450  15.568   3.267   7.809
    9AU     LIG 4451  15.581   2.860   8.067
    9AU     LIG 4452  15.900   2.599   8.340
    9AU     LIG 4453  16.261   2.339   8.521
    9AU     LIG 4454  16.576   2.013   8.660
    9AU     LIG 4455  16.771   1.653   8.886
    9AU    AUSL 4456  14.681   3.350   7.666
    9AU    AUSL 4457  14.797   3.668   8.259
    9AU     AUL 4458  14.654   3.392   8.025
    9AU       S 4459  14.773   2.978   7.844
    9AU     LIG 4460  14.423   2.766   8.013
    9AU     LIG 4461  14.402   2.301   8.054
    9AU     LIG 4462  14.510   1.837   8.072
    9AU     LIG 4463  14.579   1.380   8.187
    9AU     LIG 4464  14.558   0.977   8.440
    9AU       S 4465  14.585   3.559   8.460
    9AU     LIG 4466  14.408   3.062   8.456
    9AU     LIG 4467  13.971   2.857   8.559
    9AU     LIG 4468  13.695   2.564   8.828
    9AU     LIG 4469  13.528   2.388   9.236
    9AU     LIG 4470  13.670   2.241   9.679
    9AU    AUSL 4471  15.108   3.254   7.607
    9AU    AUSL 4472  14.881   3.498   7.318
    9AU     AUL 4473  14.745   3.163   7.419
    9AU       S 4474  15.099   3.052   7.161
    9AU     LIG 4475  14.679   2.813   7.069
    9AU     LIG 4476  14.613   2.343   6.994
    9AU     LIG 4477  14.619   1.852   6.892
    9AU     LIG 4478  14.598   1.368   6.734
    9AU     LIG 4479  14.453   0.990   6.442
    9AU       S 4480  15.106   3.045   7.745
    9AU     LIG 4481  15.058   2.563   7.810
    9AU     LIG 4482  14.935   2.131   8.008
    9AU     LIG 4483  15.018   1.647   8.069
    9AU     LIG 4484  15.290   1.263   8.176
    9AU     LIG 4485  15.559   0.862   8.269
    9AU    AUSL 4486  15.066   4.841   6.844
    9AU    AUSL 4487  15.633   4.878   7.267
    9AU     AUL 4488  15.406   5.041   6.922
    9AU       S 4489  14.995   5.198   6.752
    9AU     LIG 4490  15.182   5.446   6.422
    9AU     LIG 4491  15.323   5.889   6.320
    9AU     LIG 4492  15.441   6.139   5.916
    9AU     LIG 4493  15.442   6.431   5.528
    9AU     LIG 4494  15.356   6.880   5.397
    9AU       S 4495  15.820   5.023   7.119
    9AU     LIG 4496  16.255   5.184   6.910
    9AU     LIG 4497  16.450   5.282   6.482
    9AU     LIG 4498  16.591   5.636   6.196
    9AU     LIG 4499  16.694   6.093   6.043
    9AU     LIG 4500  16.995   6.456   5.940
    9AU    AUSL 4501  14.867   4.868   7.246
    9AU    AUSL 4502  14.788   4.540   6.956
    9AU     AUL 4503  14.718   4.834   6.816
    9AU       S 4504  14.798   5.208   7.104
    9AU     LIG 4505  14.863   5.729   7.125
    9AU     LIG 4506  14.991   6.100   6.823
    9AU     LIG 4507  15.021   6.545   6.614
    9AU     LIG 4508  14.735   6.939   6.496
    9AU     LIG 4509  14.393   7.312   6.454
    9AU       S 4510  14.277   4.857   6.690
    9AU     LIG 4511  14.390   4.977   6.271
    9AU     LIG 4512  14.385   5.258   5.889
    9AU     LIG 4513  14.173   5.469   5.523
    9AU     LIG 4514  14.080   5.753   5.150
    9AU     LIG 4515  14.032   6.215   5.046
    9AU    AUSL 4516  15.067   3.458   6.924
    9AU    AUSL 4517  14.475   3.520   7.225
    9AU     AUL 4518  14.734   3.349   6.979
    9AU       S 4519  14.295   3.488   7.018
    9AU     LIG 4520  14.154   3.091   7.099
    9AU     LIG 4521  13.762   2.884   6.946
    9AU     LIG 4522  13.516   2.626   6.623
    9AU     LIG 4523  13.218   2.377   6.331
    9AU     LIG 4524  12.884   2.030   6.249
    9AU       S 4525  15.106   3.043   6.932
    9AU     LIG 4526  15.014   2.606   6.739
    9AU     LIG 4527  14.848   2.189   6.554
    9AU     LIG 4528  14.812   1.727   6.427
    9AU     LIG 4529  14.932   1.265   6.346
    9AU     LIG 4530  15.141   1.099   5.963
    9AU    AUSL 4531  15.304   3.467   7.307
    9AU    AUSL 4532  15.330   3.779   6.956
    9AU     AUL 4533  15.407   3.396   6.952
    9AU       S 4534  15.324   3.045   7.246
    9AU     LIG 4535  15.121   2.562   7.241
    9AU     LIG 4536  15.075   2.103   7.012
    9AU     LIG 4537  15.088   1.609   6.848
    9AU     LIG 4538  15.281   1.148   6.744
    9AU     LIG 4539  15.571   0.753   6.696
    9AU       S 4540  15.586   3.589   6.581
    9AU     LIG 4541  15.514   3.142   6.518
    9AU     LIG 4542  15.740   2.821   6.262
    9AU     LIG 4543  15.996   2.556   5.974
    9AU     LIG 4544  16.191   2.424   5.566
    9AU     LIG 4545  16.557   2.306   5.295
   10AU     AUC 4546  23.441  19.205   7.494
   10AU     AUC 4547  23.726  19.209   7.319
   10AU     AUC 4548  23.706  19.184   7.666
   10AU     AUC 4549  23.154  19.202   7.332
   10AU     AUC 4550  23.174  19.241   7.681
   10AU     AUC 4551  23.275  19.489   7.492
   10AU     AUC 4552  23.632  19.481   7.482
   10AU     AUC 4553  23.248  18.939   7.502
   10AU     AUC 4554  23.601  18.911   7.490
   10AU     AUC 4555  23.440  19.025   7.770
   10AU     AUC 4556  23.441  19.393   7.756
   10AU     AUC 4557  23.436  19.041   7.218
   10AU     AUC 4558  23.462  19.362   7.217
   10AU     AUC 4559  24.043  19.212   7.154
   10AU     AUC 4560  24.049  19.165   7.512
   10AU     AUC 4561  23.992  19.150   7.862
   10AU     AUC 4562  22.849  19.199   7.167
   10AU     AUC 4563  22.834  19.234   7.532
   10AU     AUC 4564  22.890  19.274   7.870
   10AU     AUC 4565  23.115  19.795   7.468
   10AU     AUC 4566  23.483  19.815   7.445
   10AU     AUC 4567  23.822  19.756   7.473
   10AU     AUC 4568  23.046  18.667   7.506
   10AU     AUC 4569  23.394  18.605   7.483
   10AU     AUC 4570  23.760  18.607   7.469
   10AU     AUC 4571  23.422  18.845   8.061
   10AU     AUC 4572  23.441  19.209   8.090
   10AU     AUC 4573  23.471  19.568   8.045
   10AU     AUC 4574  23.460  18.871   6.939
   10AU     AUC 4575  23.458  19.199   6.883
   10AU     AUC 4576  23.445  19.515   6.925
   10AU     AUC 4577  23.707  18.968   7.983
   10AU     AUC 4578  23.749  19.353   7.980
   10AU     AUC 4579  23.778  19.058   6.992
   10AU     AUC 4580  23.778  19.385   7.031
   10AU     AUC 4581  23.140  19.081   8.012
   10AU     AUC 4582  23.168  19.455   7.986
   10AU     AUC 4583  23.137  19.025   7.035
   10AU     AUC 4584  23.117  19.337   6.994
   10AU     AUC 4585  23.984  19.486   7.343
   10AU     AUC 4586  23.921  19.454   7.690
   10AU     AUC 4587  22.946  19.504   7.330
   10AU     AUC 4588  22.978  19.559   7.680
   10AU     AUC 4589  23.915  18.892   7.316
   10AU     AUC 4590  23.884  18.845   7.669
   10AU     AUC 4591  22.912  18.908   7.355
   10AU     AUC 4592  22.971  18.956   7.716
   10AU     AUC 4593  23.301  19.735   7.752
   10AU     AUC 4594  23.643  19.685   7.766
   10AU     AUC 4595  23.240  18.732   7.799
   10AU     AUC 4596  23.559  18.673   7.764
   10AU     AUC 4597  23.262  19.641   7.182
   10AU     AUC 4598  23.650  19.676   7.188
   10AU     AUC 4599  23.234  18.740   7.201
   10AU     AUC 4600  23.629  18.747   7.194
   10AU    AUSL 4601  23.971  19.083   8.221
   10AU    AUSL 4602  23.701  18.675   8.142
   10AU     AUL 4603  23.998  18.678   8.351
   10AU       S 4604  24.073  18.321   8.078
   10AU     LIG 4605  23.954  18.162   8.464
   10AU     LIG 4606  24.129  17.849   8.739
   10AU     LIG 4607  24.416  17.758   9.092
   10AU     LIG 4608  24.648  17.511   9.413
   10AU     LIG 4609  24.899  17.308   9.741
   10AU       S 4610  24.199  19.083   8.346
   10AU     LIG 4611  24.079  19.103   8.789
   10AU     LIG 4612  24.204  19.105   9.245
   10AU     LIG 4613  24.483  18.963   9.616
   10AU     LIG 4614  24.873  18.941   9.908
   10AU     LIG 4615  25.201  18.970  10.260
   10AU    AUSL 4616  23.568  19.003   8.391
   10AU    AUSL 4617  23.320  19.398   8.417
   10AU     AUL 4618  23.512  19.304   8.730
   10AU       S 4619  23.667  18.919   8.549
   10AU     LIG 4620  23.651  18.891   8.994
   10AU     LIG 4621  23.845  18.754   9.391
   10AU     LIG 4622  24.031  18.779   9.826
   10AU     LIG 4623  24.098  18.701  10.291
   10AU     LIG 4624  24.079  18.452  10.693
   10AU       S 4625  23.101  19.136   8.630
   10AU     LIG 4626  23.168  19.123   9.095
   10AU     LIG 4627  22.907  19.066   9.477
   10AU     LIG 4628  22.623  19.076   9.849
   10AU     LIG 4629  22.586  19.312  10.263
   10AU     LIG 4630  22.625  19.708  10.542
   10AU    AUSL 4631  23.639  19.374   8.152
   10AU    AUSL 4632  24.075  19.481   8.099
   10AU     AUL 4633  23.864  19.385   8.437
   10AU       S 4634  23.551  19.760   8.590
   10AU     LIG 4635  23.901  19.609   8.885
   10AU     LIG 4636  24.194  19.652   9.263
   10AU     LIG 4637  24.176  19.705   9.751
   10AU     LIG 4638  24.134  19.855  10.212
   10AU     LIG 4639  24.050  20.130  10.604
   10AU       S 4640  24.236  19.614   8.277
   10AU     LIG 4641  24.641  19.571   8.336
   10AU     LIG 4642  24.902  19.774   8.670
   10AU     LIG 4643  25.148  20.018   8.991
   10AU     LIG 4644  25.348  20.299   9.307
   10AU     LIG 4645  25.716  20.415   9.568
   10AU    AUSL 4646  24.002  19.336   6.765
   10AU    AUSL 4647  23.794  19.676   6.952
   10AU     AUL 4648  23.909  19.711   6.618
   10AU       S 4649  23.964  19.385   6.302
   10AU     LIG 4650  24.296  19.201   6.066
   10AU     LIG 4651  24.341  18.944   5.673
   10AU     LIG 4652  24.565  18.818   5.272
   10AU     LIG 4653  24.951  18.704   4.995
   10AU     LIG 4654  25.264  18.745   4.632
   10AU       S 4655  24.234  19.905   6.870
   10AU     LIG 4656  24.314  20.041   6.454
   10AU     LIG 4657  24.498  20.209   6.049
   10AU     LIG 4658  24.717  20.346   5.663
   10AU     LIG 4659  24.908  20.702   5.444
   10AU     LIG 4660  25.068  21.028   5.144
   10AU    AUSL 4661  23.762  19.015   6.601
   10AU    AUSL 4662  24.112  18.951   6.912
   10AU     AUL 4663  24.174  19.084   6.599
   10AU       S 4664  24.234  18.627   6.677
   10AU     LIG 4665  24.381  18.306   6.352
   10AU     LIG 4666  24.646  17.923   6.263
   10AU     LIG 4667  24.916  17.674   5.960
   10AU     LIG 4668  25.191  17.614   5.566
   10AU     LIG 4669  25.555  17.680   5.241
   10AU       S 4670  23.847  19.263   6.304
   10AU     LIG 4671  23.900  18.860   6.115
   10AU     LIG 4672  23.955  18.597   5.718
   10AU     LIG 4673  24.113  18.548   5.274
   10AU     LIG 4674  24.042  18.404   4.818
   10AU     LIG 4675  24.118  18.152   4.406
   10AU    AUSL 4676  23.576  19.385   6.725
   10AU    AUSL 4677  23.344  19.002   6.709
   10AU     AUL 4678  23.500  19.002   6.440
   10AU       S 4679  23.050  19.050   6.302
   10AU     LIG 4680  23.229  18.771   6.052
   10AU     LIG 4681  23.023  18.627   5.668
   10AU     LIG 4682  22.763  18.579   5.272
   10AU     LIG 4683  22.517  18.566   4.866
   10AU     LIG 4684  22.561  18.429   4.414
   10AU       S 4685  23.624  19.449   6.362
   10AU     LIG 4686  23.515  19.201   5.953
   10AU     LIG 4687  23.832  19.087   5.627
   10AU     LIG 4688  24.087  19.076   5.229
   10AU     LIG 4689  24.114  19.318   4.808
   10AU     LIG 4690  24.175  19.686   4.496
   10AU    AUSL 4691  22.920  19.349   8.247
   10AU    AUSL 4692  23.214  19.701   8.136
   10AU     AUL 4693  23.077  19.634   8.473
   10AU       S 4694  22.914  19.231   8.672
   10AU     LIG 4695  22.727  18.891   8.908
   10AU     LIG 4696  22.494  18.801   9.316
   10AU     LIG 4697  22.260  18.691   9.714
   10AU     LIG 4698  22.026  18.674  10.123
   10AU     LIG 4699  21.715  18.936  10.359
   10AU       S 4700  22.830  19.952   8.215
   10AU     LIG 4701  22.819  20.082   8.640
   10AU     LIG 4702  22.671  20.312   9.027
   10AU     LIG 4703  22.554  20.383   9.475
   10AU     LIG 4704  22.415  20.663   9.815
   10AU     LIG 4705  22.162  21.010  10.004
   10AU    AUSL 4706  23.217  19.059   8.161
   10AU    AUSL 4707  22.800  18.934   8.138
   10AU     AUL 4708  22.700  19.171   8.270
   10AU       S 4709  22.705  18.718   8.392
   10AU     LIG 4710  22.271  18.575   8.207
   10AU     LIG 4711  22.100  18.146   8.314
   10AU     LIG 4712  21.836  17.952   8.654
   10AU     LIG 4713  21.575  17.685   8.944
   10AU     LIG 4714  21.329  17.325   9.139
   10AU       S 4715  23.100  19.002   8.542
   10AU     LIG 4716  23.205  18.685   8.852
   10AU     LIG 4717  22.991  18.604   9.266
   10AU     LIG 4718  22.776  18.597   9.703
   10AU     LIG 4719  22.560  18.642  10.134
   10AU     LIG 4720  22.314  18.447  10.493
   10AU    AUSL 4721  22.937  19.118   6.772
   10AU    AUSL 4722  23.111  18.742   6.945
   10AU     AUL 4723  23.144  18.726   6.614
   10AU       S 4724  22.833  19.028   6.446
   10AU     LIG 4725  22.701  18.760   6.094
   10AU     LIG 4726  22.538  18.832   5.672
   10AU     LIG 4727  22.293  18.796   5.277
   10AU     LIG 4728  21.956  18.844   4.959
   10AU     LIG 4729  21.668  19.164   4.769
   10AU       S 4730  22.717  18.618   6.749
   10AU     LIG 4731  22.520  18.191   6.617
   10AU     LIG 4732  22.288  17.827   6.438
   10AU     LIG 4733  22.026  17.587   6.138
   10AU     LIG 4734  21.825  17.307   5.829
   10AU     LIG 4735  21.838  17.141   5.383
   10AU    AUSL 4736  23.193  19.410   6.566
   10AU    AUSL 4737  22.723  19.456   6.924
   10AU     AUL 4738  22.839  19.464   6.593
   10AU       S 4739  22.436  19.657   6.748
   10AU     LIG 4740  22.306  19.974   6.367
   10AU     LIG 4741  22.259  20.151   5.939
   10AU     LIG 4742  22.033  20.228   5.536
   10AU     LIG 4743  21.608  20.319   5.373
   10AU     LIG 4744  21.178  20.320   5.184
   10AU       S 4745  23.134  19.271   6.284
   10AU     LIG 4746  22.950  19.161   5.839
   10AU     LIG 4747  22.917  19.059   5.399
   10AU     LIG 4748  22.747  19.025   4.976
   10AU     LIG 4749  22.785  19.240   4.554
   10AU     LIG 4750  22.814  19.511   4.160
   10AU    AUSL 4751  24.247  19.670   7.530
   10AU    AUSL 4752  24.158  19.496   7.125
   10AU     AUL 4753  24.506  19.772   7.307
   10AU       S 4754  24.286  19.668   6.925
   10AU     LIG 4755  24.405  19.539   6.517
   10AU     LIG 4756  24.637  19.725   6.168
   10AU     LIG 4757  24.967  19.989   5.959
   10AU     LIG 4758  25.242  20.298   5.721
   10AU     LIG 4759  25.667  20.287   5.520
   10AU       S 4760  24.632  19.537   7.700
   10AU     LIG 4761  25.094  19.581   7.537
   10AU     LIG 4762  25.598  19.675   7.490
   10AU     LIG 4763  26.068  19.830   7.484
   10AU     LIG 4764  26.382  20.219   7.535
   10AU     LIG 4765  26.460  20.710   7.610
   10AU    AUSL 4766  24.416  19.272   7.378
   10AU    AUSL 4767  24.352  18.940   7.697
   10AU     AUL 4768  24.722  19.027   7.673
   10AU       S 4769  24.543  19.326   7.398
   10AU     LIG 4770  24.961  19.162   7.261
   10AU     LIG 4771  25.429  19.230   7.292
   10AU     LIG 4772  25.812  19.425   7.081
   10AU     LIG 4773  26.250  19.558   7.081
   10AU     LIG 4774  26.604  19.778   7.322
   10AU       S 4775  24.580  18.576   7.637
   10AU     LIG 4776  24.956  18.556   7.834
   10AU     LIG 4777  25.391  18.438   7.763
   10AU     LIG 4778  25.837  18.350   7.668
   10AU     LIG 4779  26.282  18.395   7.808
   10AU     LIG 4780  26.682  18.171   7.922
   10AU    AUSL 4781  24.147  19.307   7.729
   10AU    AUSL 4782  23.903  19.716   7.777
   10AU     AUL 4783  24.232  19.751   7.829
   10AU       S 4784  24.217  19.917   8.257
   10AU     LIG 4785  24.593  20.087   8.389
   10AU     LIG 4786  24.806  20.297   8.730
   10AU     LIG 4787  25.136  20.567   8.915
   10AU     LIG 4788  25.323  21.003   8.930
   10AU     LIG 4789  25.336  21.475   8.822
   10AU       S 4790  24.477  19.365   7.863
   10AU     LIG 4791  24.978  19.337   7.990
   10AU     LIG 4792  25.444  19.322   7.828
   10AU     LIG 4793  25.909  19.492   7.882
   10AU     LIG 4794  26.375  19.635   7.848
   10AU     LIG 4795  26.744  19.921   7.806
   10AU    AUSL 4796  22.788  19.782   7.518
   10AU    AUSL 4797  22.866  19.581   7.904
   10AU     AUL 4798  22.557  19.887   7.756
   10AU       S 4799  22.714  19.752   8.166
   10AU     LIG 4800  22.576  19.619   8.566
   10AU     LIG 4801  22.431  19.853   8.963
   10AU     LIG 4802  22.170  20.065   9.321
   10AU     LIG 4803  21.798  20.160   9.630
   10AU     LIG 4804  21.368  20.350   9.748
   10AU       S 4805  22.792  20.163   7.442
   10AU     LIG 4806  22.322  20.127   7.366
   10AU     LIG 4807  21.896  20.372   7.413
   10AU     LIG 4808  21.570  20.755   7.458
   10AU     LIG 4809  21.220  21.116   7.444
   10AU     LIG 4810  20.793  21.350   7.478
   10AU    AUSL 4811  22.732  19.391   7.333
   10AU    AUSL 4812  22.853  19.829   7.106
   10AU     AUL 4813  22.549  19.703   7.211
   10AU       S 4814  22.342  19.214   6.997
   10AU     LIG 4815  22.048  19.600   7.092
   10AU     LIG 4816  21.602  19.814   7.033
   10AU     LIG 4817  21.106  19.888   6.945
   10AU     LIG 4818  20.599  19.894   6.907
   10AU     LIG 4819  20.114  19.973   6.810
   10AU       S 4820  22.691  20.088   6.950
   10AU     LIG 4821  22.753  20.434   6.621
   10AU     LIG 4822  22.668  20.797   6.302
   10AU     LIG 4823  22.495  21.245   6.254
   10AU     LIG 4824  22.250  21.647   6.115
   10AU     LIG 4825  21.784  21.815   6.053
   10AU    AUSL 4826  22.528  19.432   7.715
   10AU    AUSL 4827  22.488  19.060   7.414
   10AU     AUL 4828  22.331  19.373   7.445
   10AU       S 4829  22.293  18.968   7.698
   10AU     LIG 4830  21.940  18.979   7.389
   10AU     LIG 4831  21.476  18.777   7.351
   10AU     LIG 4832  21.011  18.625   7.246
   10AU     LIG 4833  20.602  18.407   7.059
   10AU     LIG 4834  20.195  18.163   6.939
   10AU       S 4835  22.392  19.460   7.940
   10AU     LIG 4836  22.060  19.688   7.733
   10AU     LIG 4837  21.600  19.679   7.839
   10AU     LIG 4838  21.172  19.770   8.049
   10AU     LIG 4839  20.687  19.801   8.081
   10AU     LIG 4840  20.333  20.091   8.181
   10AU    AUSL 4841  24.121  18.612   7.525
   10AU    AUSL 4842  23.970  18.863   7.865
   10AU     AUL 4843  24.277  18.757   7.941
   10AU       S 4844  24.351  18.461   7.498
   10AU     LIG 4845  24.815  18.190   7.438
   10AU     LIG 4846  25.252  18.005   7.524
   10AU     LIG 4847  25.707  17.839   7.588
   10AU     LIG 4848  26.082  17.520   7.543
   10AU     LIG 4849  26.408  17.185   7.463
   10AU       S 4850  24.185  18.311   7.933
   10AU     LIG 4851  24.425  18.042   8.276
   10AU     LIG 4852  24.627  17.781   8.612
   10AU     LIG 4853  24.846  17.505   8.927
   10AU     LIG 4854  25.163  17.462   9.284
   10AU     LIG 4855  25.632  17.379   9.375
   10AU    AUSL 4856  24.115  18.991   7.328
   10AU    AUSL 4857  24.036  18.571   7.112
   10AU     AUL 4858  24.320  18.789   7.141
   10AU       S 4859  24.621  18.640   7.428
   10AU     LIG 4860  25.108  18.649   7.356
   10AU     LIG 4861  25.493  18.366   7.245
   10AU     LIG 4862  25.895  18.115   7.200
   10AU     LIG 4863  26.358  18.129   7.113
   10AU     LIG 4864  26.811  18.142   7.002
   10AU       S 4865  24.230  18.420   6.843
   10AU     LIG 4866  24.326  17.955   6.730
   10AU     LIG 4867  24.464  17.525   6.535
   10AU     LIG 4868  24.766  17.264   6.282
   10AU     LIG 4869  24.981  16.833   6.278
   10AU     LIG 4870  25.350  16.523   6.222
   10AU    AUSL 4871  22.689  18.698   7.557
   10AU    AUSL 4872  22.775  18.951   7.127
   10AU     AUL 4873  22.428  18.767   7.281
   10AU       S 4874  22.613  18.795   6.857
   10AU     LIG 4875  22.203  18.592   6.757
   10AU     LIG 4876  21.977  18.199   6.617
   10AU     LIG 4877  21.696  17.916   6.353
   10AU     LIG 4878  21.535  17.725   5.948
   10AU     LIG 4879  21.385  17.747   5.496
   10AU       S 4880  22.259  18.746   7.724
   10AU     LIG 4881  21.973  18.471   7.464
   10AU     LIG 4882  21.514  18.273   7.438
   10AU     LIG 4883  21.035  18.192   7.524
   10AU     LIG 4884  20.683  17.906   7.673
   10AU     LIG 4885  20.284  17.686   7.578
   10AU    AUSL 4886  22.758  19.082   7.751
   10AU    AUSL 4887  23.007  18.707   7.841
   10AU     AUL 4888  22.679  18.668   7.903
   10AU       S 4889  22.730  18.502   8.334
   10AU     LIG 4890  22.575  18.169   8.031
   10AU     LIG 4891  22.332  17.746   8.061
   10AU     LIG 4892  21.967  17.582   8.326
   10AU     LIG 4893  21.699  17.306   8.614
   10AU     LIG 4894  21.675  16.893   8.847
   10AU       S 4895  22.355  18.995   7.873
   10AU     LIG 4896  21.888  19.196   7.855
   10AU     LIG 4897  21.418  19.043   7.788
   10AU     LIG 4898  21.056  18.691   7.755
   10AU     LIG 4899  20.689  18.394   7.879
   10AU     LIG 4900  20.219  18.360   7.930
   10AU    AUSL 4901  23.492  19.911   7.893
   10AU    AUSL 4902  23.061  19.946   7.805
   10AU     AUL 4903  23.298  20.012   8.184
   10AU       S 4904  22.934  20.136   7.916
   10AU     LIG 4905  22.832  20.453   8.254
   10AU     LIG 4906  22.678  20.692   8.650
   10AU     LIG 4907  22.537  21.112   8.867
   10AU     LIG 4908  22.222  21.448   9.017
   10AU     LIG 4909  21.788  21.638   8.995
   10AU       S 4910  23.508  20.340   7.942
   10AU     LIG 4911  23.501  20.474   8.334
   10AU     LIG 4912  23.475  20.910   8.485
   10AU     LIG 4913  23.360  21.341   8.630
   10AU     LIG 4914  23.457  21.754   8.826
   10AU     LIG 4915  23.659  21.943   9.211
   10AU    AUSL 4916  23.334  20.141   7.549
   10AU    AUSL 4917  23.613  20.041   7.204
   10AU     AUL 4918  23.573  20.396   7.317
   10AU       S 4919  23.350  20.361   7.746
   10AU     LIG 4920  23.394  20.822   7.946
   10AU     LIG 4921  23.384  21.275   8.113
   10AU     LIG 4922  23.326  21.725   8.273
   10AU     LIG 4923  23.154  22.148   8.402
   10AU     LIG 4924  22.928  22.550   8.472
   10AU       S 4925  23.311  20.278   6.962
   10AU     LIG 4926  23.703  20.548   6.847
   10AU     LIG 4927  23.794  20.998   6.774
   10AU     LIG 4928  23.746  21.441   6.582
   10AU     LIG 4929  23.666  21.939   6.550
   10AU     LIG 4930  23.826  22.416   6.500
   10AU    AUSL 4931  23.771  20.076   7.607
   10AU    AUSL 4932  23.757  19.773   8.186
   10AU     AUL 4933  23.865  20.035   7.968
   10AU       S 4934  24.000  19.853   8.405
   10AU     LIG 4935  24.357  19.784   8.738
   10AU     LIG 4936  24.620  19.950   9.076
   10AU     LIG 4937  24.827  20.321   9.263
   10AU     LIG 4938  25.006  20.598   9.594
   10AU     LIG 4939  24.900  20.822  10.005
   10AU       S 4940  23.693  20.415   7.765
   10AU     LIG 4941  23.893  20.671   8.059
   10AU     LIG 4942  23.864  21.100   8.202
   10AU     LIG 4943  23.784  21.520   8.382
   10AU     LIG 4944  23.828  21.993   8.361
   10AU     LIG 4945  24.050  22.419   8.367
   10AU    AUSL 4946  23.379  18.485   7.928
   10AU    AUSL 4947  23.787  18.488   7.755
   10AU     AUL 4948  23.612  18.357   8.139
   10AU       S 4949  23.350  18.014   7.967
   10AU     LIG 4950  23.228  17.817   8.321
   10AU     LIG 4951  22.968  17.451   8.432
   10AU     LIG 4952  22.958  16.978   8.392
   10AU     LIG 4953  23.150  16.599   8.587
   10AU     LIG 4954  23.263  16.365   8.980
   10AU       S 4955  23.937  18.261   7.797
   10AU     LIG 4956  23.925  17.849   8.048
   10AU     LIG 4957  24.242  17.560   8.316
   10AU     LIG 4958  24.627  17.279   8.476
   10AU     LIG 4959  24.869  16.892   8.678
   10AU     LIG 4960  25.176  16.529   8.824
   10AU    AUSL 4961  23.052  18.342   7.650
   10AU    AUSL 4962  23.176  18.658   8.249
   10AU     AUL 4963  23.047  18.375   8.019
   10AU       S 4964  23.143  17.970   7.810
   10AU     LIG 4965  22.848  17.703   7.994
   10AU     LIG 4966  22.743  17.255   8.009
   10AU     LIG 4967  22.700  16.789   7.954
   10AU     LIG 4968  22.548  16.332   8.026
   10AU     LIG 4969  22.379  15.990   8.311
   10AU       S 4970  22.963  18.541   8.453
   10AU     LIG 4971  22.792  18.043   8.477
   10AU     LIG 4972  22.399  17.777   8.566
   10AU     LIG 4973  22.093  17.548   8.841
   10AU     LIG 4974  21.845  17.293   9.142
   10AU     LIG 4975  21.626  17.315   9.564
   10AU    AUSL 4976  23.479  18.255   7.585
   10AU    AUSL 4977  23.250  18.506   7.307
   10AU     AUL 4978  23.124  18.165   7.388
   10AU       S 4979  23.502  18.056   7.158
   10AU     LIG 4980  23.174  17.689   7.223
   10AU     LIG 4981  22.910  17.282   7.138
   10AU     LIG 4982  22.749  16.846   6.996
   10AU     LIG 4983  22.666  16.370   6.944
   10AU     LIG 4984  22.584  15.950   6.718
   10AU       S 4985  23.482  18.042   7.709
   10AU     LIG 4986  23.422  17.567   7.734
   10AU     LIG 4987  23.269  17.230   8.034
   10AU     LIG 4988  23.423  16.794   8.186
   10AU     LIG 4989  23.752  16.428   8.259
   10AU     LIG 4990  23.866  15.997   8.423
   10AU    AUSL 4991  23.427  19.846   6.844
   10AU    AUSL 4992  23.992  19.879   7.270
   10AU     AUL 4993  23.764  20.045   6.920
   10AU       S 4994  23.350  20.210   6.741
   10AU     LIG 4995  23.266  20.645   6.554
   10AU     LIG 4996  23.481  21.025   6.365
   10AU     LIG 4997  23.611  21.367   6.071
   10AU     LIG 4998  23.577  21.662   5.690
   10AU     LIG 4999  23.633  22.082   5.452
   10AU       S 5000  24.179  20.028   7.118
   10AU     LIG 5001  24.640  20.148   6.908
   10AU     LIG 5002  24.822  20.165   6.460
   10AU     LIG 5003  24.959  20.474   6.126
   10AU     LIG 5004  25.253  20.812   5.985
   10AU     LIG 5005  25.464  21.235   6.079
   10AU    AUSL 5006  23.234  19.868   7.250
   10AU    AUSL 5007  23.150  19.544   6.956
   10AU     AUL 5008  23.081  19.843   6.821
   10AU       S 5009  23.160  20.223   7.105
   10AU     LIG 5010  23.284  20.751   7.049
   10AU     LIG 5011  23.315  21.185   6.830
   10AU     LIG 5012  23.258  21.588   6.591
   10AU     LIG 5013  23.040  21.974   6.638
   10AU     LIG 5014  22.821  22.356   6.579
   10AU       S 5015  22.638  19.877   6.704
   10AU     LIG 5016  22.853  20.008   6.353
   10AU     LIG 5017  22.730  20.349   6.036
   10AU     LIG 5018  22.475  20.529   5.651
   10AU     LIG 5019  22.209  20.627   5.252
   10AU     LIG 5020  22.042  20.851   4.866
   10AU    AUSL 5021  23.434  18.467   6.915
   10AU    AUSL 5022  22.845  18.520   7.207
   10AU     AUL 5023  23.100  18.362   6.959
   10AU       S 5024  22.657  18.501   6.977
   10AU     LIG 5025  22.333  18.243   7.112
   10AU     LIG 5026  22.141  17.841   6.946
   10AU     LIG 5027  21.903  17.550   6.650
   10AU     LIG 5028  21.583  17.379   6.334
   10AU     LIG 5029  21.132  17.216   6.241
   10AU       S 5030  23.478  18.073   6.993
   10AU     LIG 5031  23.447  17.670   6.787
   10AU     LIG 5032  23.158  17.313   6.677
   10AU     LIG 5033  23.091  16.883   6.507
   10AU     LIG 5034  23.092  16.658   6.073
   10AU     LIG 5035  23.174  16.561   5.605
   10AU    AUSL 5036  23.676  18.478   7.292
   10AU    AUSL 5037  23.700  18.789   6.944
   10AU     AUL 5038  23.768  18.423   6.910
   10AU       S 5039  23.770  18.107   7.252
   10AU     LIG 5040  23.679  17.615   7.272
   10AU     LIG 5041  23.447  17.231   7.094
   10AU     LIG 5042  23.501  16.788   6.880
   10AU     LIG 5043  23.783  16.368   6.829
   10AU     LIG 5044  24.003  16.024   6.539
   10AU       S 5045  24.005  18.613   6.575
   10AU     LIG 5046  23.909  18.166   6.499
   10AU     LIG 5047  24.132  17.822   6.261
   10AU     LIG 5048  24.409  17.540   5.994
   10AU     LIG 5049  24.619  17.519   5.564
   10AU     LIG 5050  24.703  17.559   5.101
   11POPC   NC3 5051  21.672  34.658   9.732
   11POPC   PO4 5052  21.070  34.888   9.436
   11POPC   GL1 5053  21.336  34.712   9.110
   11POPC   GL2 5054  21.680  34.748   9.173
   11POPC   C1A 5055  21.421  34.342   8.798
   11POPC   D2A 5056  21.454  34.157   8.383
   11POPC   C3A 5057  21.170  34.236   8.102
   11POPC   C4A 5058  21.361  34.374   7.744
   11POPC   C1B 5059  21.685  34.767   8.729
   11POPC   C2B 5060  21.711  34.615   8.329
   11POPC   C3B 5061  21.662  34.783   7.919
   11POPC   C4B 5062  21.595  34.865   7.492
   12POPC   NC3 5063  30.822  14.666   9.594
   12POPC   PO4 5064  30.788  15.411   9.545
   12POPC   GL1 5065  30.900  15.071   9.248
   12POPC   GL2 5066  30.607  14.958   9.065
   12POPC   C1A 5067  31.057  14.995   8.818
   12POPC   D2A 5068  30.860  15.126   8.431
   12POPC   C3A 5069  31.000  15.114   8.006
   12POPC   C4A 5070  30.699  15.080   7.676
   12POPC   C1B 5071  30.508  15.364   8.939
   12POPC   C2B 5072  30.479  15.455   8.500
   12POPC   C3B 5073  30.557  15.387   8.082
   12POPC   C4B 5074  30.300  15.535   7.770
   13POPC   NC3 5075  24.462  24.012   9.507
   13POPC   PO4 5076  24.563  23.354   9.388
   13POPC   GL1 5077  24.789  23.563   9.073
   13POPC   GL2 5078  24.843  23.914   9.137
   13POPC   C1A 5079  24.852  23.688   8.640
   13POPC   D2A 5080  24.491  23.726   8.372
   13POPC   C3A 5081  24.524  23.648   7.928
   13POPC   C4A 5082  24.531  23.693   7.490
   13POPC   C1B 5083  24.498  23.996   8.828
   13POPC   C2B 5084  24.239  24.179   8.481
   13POPC   C3B 5085  24.147  23.946   8.084
   13POPC   C4B 5086  24.206  24.039   7.658
   14POPC   NC3 5087   3.446  23.279   9.755
   14POPC   PO4 5088   3.800  23.820   9.578
   14POPC   GL1 5089   3.556  23.585   9.293
   14POPC   GL2 5090   3.829  23.427   9.118
   14POPC   C1A 5091   3.385  23.584   8.858
   14POPC   D2A 5092   3.557  23.667   8.444
   14POPC   C3A 5093   3.382  23.659   8.037
   14POPC   C4A 5094   3.595  23.517   7.683
   14POPC   C1B 5095   3.865  23.832   8.874
   14POPC   C2B 5096   3.813  24.101   8.504
   14POPC   C3B 5097   3.558  24.128   8.151
   14POPC   C4B 5098   3.617  24.030   7.737
   15POPC   NC3 5099  25.027  37.259   9.335
   15POPC   PO4 5100  25.585  36.799   9.565
   15POPC   GL1 5101  25.367  36.883   9.238
   15POPC   GL2 5102  25.548  37.174   9.191
   15POPC   C1A 5103  25.256  36.874   8.819
   15POPC   D2A 5104  24.967  36.986   8.518
   15POPC   C3A 5105  25.095  36.993   8.100
   15POPC   C4A 5106  25.109  37.189   7.711
   15POPC   C1B 5107  25.654  37.250   8.788
   15POPC   C2B 5108  25.528  37.045   8.415
   15POPC   C3B 5109  25.568  37.139   7.964
   15POPC   C4B 5110  25.412  36.769   7.745
   16POPC   NC3 5111  12.408  16.389   9.613
   16POPC   PO4 5112  11.883  15.969   9.486
   16POPC   GL1 5113  11.953  16.147   9.117
   16POPC   GL2 5114  12.329  16.117   9.150
   16POPC   C1A 5115  12.058  16.066   8.690
   16POPC   D2A 5116  12.339  15.975   8.360
   16POPC   C3A 5117  12.125  16.208   8.028
   16POPC   C4A 5118  11.894  15.928   7.773
   16POPC   C1B 5119  12.427  15.762   8.851
   16POPC   C2B 5120  12.231  15.461   8.547
   16POPC   C3B 5121  12.285  15.512   8.102
   16POPC   C4B 5122  12.429  15.861   7.821
   17POPC   NC3 5123   6.862   7.440   9.647
   17POPC   PO4 5124   6.220   7.181   9.472
   17POPC   GL1 5125   6.634   7.260   9.233
   17POPC   GL2 5126   6.691   7.635   9.217
   17POPC   C1A 5127   6.698   7.287   8.794
   17POPC   D2A 5128   6.362   7.523   8.564
   17POPC   C3A 5129   6.419   7.627   8.128
   17POPC   C4A 5130   6.473   7.395   7.761
   17POPC   C1B 5131   6.752   7.787   8.817
   17POPC   C2B 5132   6.850   7.661   8.408
   17POPC   C3B 5133   7.024   7.865   8.069
   17POPC   C4B 5134   6.849   7.737   7.703
   18POPC   NC3 5135  31.214  34.998   9.356
   18POPC   PO4 5136  31.750  35.342   9.629
   18POPC   GL1 5137  31.520  35.394   9.208
   18POPC   GL2 5138  31.286  35.709   9.145
   18POPC   C1A 5139  31.565  35.252   8.816
   18POPC   D2A 5140  31.468  35.468   8.454
   18POPC   C3A 5141  31.557  35.344   8.064
   18POPC   C4A 5142  31.512  35.507   7.672
   18POPC   C1B 5143  31.082  35.471   8.806
   18POPC   C2B 5144  31.153  35.082   8.578
   18POPC   C3B 5145  31.165  35.037   8.159
   18POPC   C4B 5146  31.111  35.212   7.762
   19POPC   NC3 5147  12.919  34.870   9.548
   19POPC   PO4 5148  12.683  35.482   9.487
   19POPC   GL1 5149  12.705  35.143   9.174
   19POPC   GL2 5150  13.007  35.227   9.066
   19POPC   C1A 5151  12.550  35.167   8.763
   19POPC   D2A 5152  12.720  35.156   8.337
   19POPC   C3A 5153  12.572  35.386   7.988
   19POPC   C4A 5154  12.656  35.350   7.559
   19POPC   C1B 5155  13.181  35.474   8.734
   19POPC   C2B 5156  13.184  35.408   8.281
   19POPC   C3B 5157  13.066  35.330   7.835
   19POPC   C4B 5158  13.083  35.539   7.384
   20POPC   NC3 5159  32.828  40.394   9.536
   20POPC   PO4 5160  32.930  41.081   9.563
   20POPC   GL1 5161  32.827  40.857   9.194
   20POPC   GL2 5162  33.047  40.582   9.127
   20POPC   C1A 5163  32.787  40.785   8.737
   20POPC   D2A 5164  32.879  40.592   8.371
   20POPC   C3A 5165  32.803  40.797   7.962
   20POPC   C4A 5166  33.013  40.701   7.559
   20POPC   C1B 5167  33.276  40.378   8.807
   20POPC   C2B 5168  33.411  40.427   8.386
   20POPC   C3B 5169  33.258  40.543   8.003
   20POPC   C4B 5170  33.341  40.970   7.867
   21POPC   NC3 5171   1.906   2.006   9.596
   21POPC   PO4 5172   2.284   1.500   9.551
   21POPC   GL1 5173   2.109   1.856   9.171
   21POPC   GL2 5174   2.018   2.231   9.148
   21POPC   C1A 5175   2.191   1.993   8.723
   21POPC   D2A 5176   2.329   1.854   8.301
   21POPC   C3A 5177   2.124   1.590   7.980
   21POPC   C4A 5178   2.122   1.845   7.614
   21POPC   C1B 5179   1.689   2.050   8.848
   21POPC   C2B 5180   1.759   1.895   8.427
   21POPC   C3B 5181   1.928   2.050   8.049
   21POPC   C4B 5182   1.767   2.193   7.671
   22POPC   NC3 5183  43.092  19.310   9.530
   22POPC   PO4 5184  43.139  18.617   9.579
   22POPC   GL1 5185  43.238  19.030   9.100
   22POPC   GL2 5186  43.351  19.373   9.110
   22POPC   C1A 5187  43.142  19.093   8.663
   22POPC   D2A 5188  43.291  18.844   8.303
   22POPC   C3A 5189  43.064  18.823   7.919
   22POPC   C4A 5190  42.879  19.127   7.651
   22POPC   C1B 5191  43.582  19.353   8.748
   22POPC   C2B 5192  43.457  19.388   8.375
   22POPC   C3B 5193  43.213  19.293   8.035
   22POPC   C4B 5194  43.316  19.360   7.605
   23POPC   NC3 5195  10.536  29.016   9.607
   23POPC   PO4 5196  10.059  28.723   9.434
   23POPC   GL1 5197  10.292  29.013   9.145
   23POPC   GL2 5198  10.643  28.895   9.105
   23POPC   C1A 5199  10.438  29.222   8.744
   23POPC   D2A 5200  10.517  29.429   8.314
   23POPC   C3A 5201  10.394  29.198   7.933
   23POPC   C4A 5202  10.426  28.824   7.712
   23POPC   C1B 5203  10.855  28.949   8.675
   23POPC   C2B 5204  10.798  28.956   8.200
   23POPC   C3B 5205  10.909  29.081   7.755
   23POPC   C4B 5206  10.996  28.864   7.326
   24POPC   NC3 5207  43.181   2.897   9.386
   24POPC   PO4 5208  42.814   2.292   9.396
   24POPC   GL1 5209  43.015   2.513   9.066
   24POPC   GL2 5210  43.379   2.478   9.151
   24POPC   C1A 5211  43.015   2.886   8.756
   24POPC   D2A 5212  43.322   3.115   8.510
   24POPC   C3A 5213  43.318   2.883   8.119
   24POPC   C4A 5214  42.914   2.714   7.956
   24POPC   C1B 5215  43.399   2.528   8.731
   24POPC   C2B 5216  43.153   2.476   8.370
   24POPC   C3B 5217  43.307   2.379   7.940
   24POPC   C4B 5218  43.488   2.550   7.529
   25POPC   NC3 5219  29.696  15.826   9.636
   25POPC   PO4 5220  30.252  16.192   9.554
   25POPC   GL1 5221  29.982  16.035   9.241
   25POPC   GL2 5222  29.993  15.663   9.169
   25POPC   C1A 5223  30.071  16.037   8.798
   25POPC   D2A 5224  30.165  15.841   8.424
   25POPC   C3A 5225  30.063  16.045   8.078
   25POPC   C4A 5226  29.939  15.875   7.712
   25POPC   C1B 5227  29.624  15.807   8.920
   25POPC   C2B 5228  29.506  15.915   8.499
   25POPC   C3B 5229  29.655  15.722   8.132
   25POPC   C4B 5230  29.496  15.647   7.731
   26POPC   NC3 5231  31.096  37.483   9.290
   26POPC   PO4 5232  30.512  37.771   9.492
   26POPC   GL1 5233  30.651  37.890   9.094
   26POPC   GL2 5234  30.365  38.084   9.056
   26POPC   C1A 5235  30.963  37.861   8.779
   26POPC   D2A 5236  30.998  37.575   8.432
   26POPC   C3A 5237  30.606  37.591   8.196
   26POPC   C4A 5238  30.659  37.573   7.762
   26POPC   C1B 5239  30.376  37.985   8.625
   26POPC   C2B 5240  30.310  38.055   8.189
   26POPC   C3B 5241  30.218  37.860   7.806
   26POPC   C4B 5242  30.414  37.866   7.406
   27POPC   NC3 5243  12.171  44.150   9.520
   27POPC   PO4 5244  11.674  43.549   9.529
   27POPC   GL1 5245  11.792  43.670   9.085
   27POPC   GL2 5246  12.117  43.809   9.105
   27POPC   C1A 5247  12.048  43.510   8.696
   27POPC   D2A 5248  12.407  43.597   8.372
   27POPC   C3A 5249  12.260  43.971   8.116
   27POPC   C4A 5250  11.849  44.004   7.858
   27POPC   C1B 5251  12.276  43.975   8.696
   27POPC   C2B 5252  12.362  44.360   8.473
   27POPC   C3B 5253  12.504  44.415   8.068
   27POPC   C4B 5254  12.556  44.129   7.725
   28POPC   NC3 5255   6.509  33.194   9.524
   28POPC   PO4 5256   6.371  32.535   9.225
   28POPC   GL1 5257   6.535  32.917   9.095
   28POPC   GL2 5258   6.852  33.009   9.183
   28POPC   C1A 5259   6.392  33.192   8.783
   28POPC   D2A 5260   6.611  33.084   8.392
   28POPC   C3A 5261   6.479  33.202   8.002
   28POPC   C4A 5262   6.388  32.823   7.729
   28POPC   C1B 5263   6.907  33.245   8.783
   28POPC   C2B 5264   6.909  33.506   8.398
   28POPC   C3B 5265   6.956  33.356   7.987
   28POPC   C4B 5266   6.829  33.078   7.666
   29POPC   NC3 5267  44.213  11.892   9.432
   29POPC   PO4 5268  43.568  11.905   9.451
   29POPC   GL1 5269  43.728  12.212   9.142
   29POPC   GL2 5270  44.105  12.206   9.036
   29POPC   C1A 5271  43.745  12.126   8.707
   29POPC   D2A 5272  43.589  11.898   8.394
   29POPC   C3A 5273  43.755  12.026   7.980
   29POPC   C4A 5274  43.522  12.273   7.640
   29POPC   C1B 5275  44.138  11.810   8.804
   29POPC   C2B 5276  44.077  11.776   8.381
   29POPC   C3B 5277  44.203  11.738   7.981
   29POPC   C4B 5278  44.350  11.766   7.574
   30POPC   NC3 5279   8.084  29.744   9.416
   30POPC   PO4 5280   8.371  29.132   9.510
   30POPC   GL1 5281   8.157  28.976   9.180
   30POPC   GL2 5282   8.043  29.319   9.138
   30POPC   C1A 5283   8.262  28.912   8.756
   30POPC   D2A 5284   8.369  29.184   8.412
   30POPC   C3A 5285   8.437  28.955   8.027
   30POPC   C4A 5286   8.184  28.885   7.665
   30POPC   C1B 5287   7.783  29.542   8.835
   30POPC   C2B 5288   7.874  29.380   8.441
   30POPC   C3B 5289   8.018  29.277   8.024
   30POPC   C4B 5290   7.768  29.210   7.659
   31POPC   NC3 5291  30.656  30.581   9.436
   31POPC   PO4 5292  31.078  31.070   9.515
   31POPC   GL1 5293  30.864  30.921   9.093
   31POPC   GL2 5294  30.540  30.725   8.973
   31POPC   C1A 5295  30.942  30.595   8.741
   31POPC   D2A 5296  30.646  30.580   8.404
   31POPC   C3A 5297  30.659  30.773   8.011
   31POPC   C4A 5298  30.772  30.448   7.713
   31POPC   C1B 5299  30.279  30.820   8.646
   31POPC   C2B 5300  30.146  30.787   8.225
   31POPC   C3B 5301  30.212  30.640   7.792
   31POPC   C4B 5302  30.411  30.908   7.452
   32POPC   NC3 5303   6.521   6.818   9.483
   32POPC   PO4 5304   7.120   7.079   9.502
   32POPC   GL1 5305   6.925   6.772   9.178
   32POPC   GL2 5306   6.553   6.816   8.990
   32POPC   C1A 5307   6.891   6.537   8.775
   32POPC   D2A 5308   6.558   6.596   8.493
   32POPC   C3A 5309   6.670   6.453   8.109
   32POPC   C4A 5310   6.948   6.364   7.759
   32POPC   C1B 5311   6.293   7.008   8.677
   32POPC   C2B 5312   6.400   7.080   8.225
   32POPC   C3B 5313   6.376   6.884   7.797
   32POPC   C4B 5314   6.414   7.079   7.365
   33POPC   NC3 5315  22.434  44.120   9.635
   33POPC   PO4 5316  23.076  43.783   9.526
   33POPC   GL1 5317  22.995  43.811   9.118
   33POPC   GL2 5318  22.666  43.802   9.159
   33POPC   C1A 5319  23.220  43.899   8.741
   33POPC   D2A 5320  23.413  44.044   8.359
   33POPC   C3A 5321  23.147  43.915   8.035
   33POPC   C4A 5322  22.870  43.718   7.758
   33POPC   C1B 5323  22.698  44.032   8.763
   33POPC   C2B 5324  22.632  44.061   8.316
   33POPC   C3B 5325  22.667  44.221   7.882
   33POPC   C4B 5326  22.593  44.012   7.474
   34POPC   NC3 5327  10.428  23.189   9.746
   34POPC   PO4 5328  10.769  22.668   9.760
   34POPC   GL1 5329  10.528  22.736   9.340
   34POPC   GL2 5330  10.382  23.067   9.257
   34POPC   C1A 5331  10.397  22.687   8.893
   34POPC   D2A 5332  10.551  22.867   8.486
   34POPC   C3A 5333  10.449  22.674   8.077
   34POPC   C4A 5334  10.663  22.802   7.718
   34POPC   C1B 5335  10.335  23.207   8.827
   34POPC   C2B 5336  10.161  23.244   8.408
   34POPC   C3B 5337  10.269  23.165   7.970
   34POPC   C4B 5338  10.171  23.424   7.620
   35POPC   NC3 5339  32.939  24.135   9.567
   35POPC   PO4 5340  33.200  24.733   9.560
   35POPC   GL1 5341  33.081  24.454   9.202
   35POPC   GL2 5342  33.337  24.181   9.212
   35POPC   C1A 5343  32.937  24.376   8.768
   35POPC   D2A 5344  33.034  24.629   8.434
   35POPC   C3A 5345  32.864  24.462   8.098
   35POPC   C4A 5346  32.921  24.511   7.686
   35POPC   C1B 5347  33.424  24.418   8.811
   35POPC   C2B 5348  33.401  24.298   8.355
   35POPC   C3B 5349  33.367  24.480   7.917
   35POPC   C4B 5350  33.275  24.209   7.486
   36POPC   NC3 5351   1.257  25.669   9.461
   36POPC   PO4 5352   0.895  25.084   9.244
   36POPC   GL1 5353   1.236  25.078   9.027
   36POPC   GL2 5354   1.316  25.409   9.036
   36POPC   C1A 5355   1.286  25.114   8.602
   36POPC   D2A 5356   1.585  25.102   8.292
   36POPC   C3A 5357   1.324  24.927   7.961
   36POPC   C4A 5358   0.884  24.995   7.875
   36POPC   C1B 5359   1.595  25.499   8.716
   36POPC   C2B 5360   1.371  25.588   8.376
   36POPC   C3B 5361   1.303  25.450   7.980
   36POPC   C4B 5362   1.512  25.637   7.639
   37POPC   NC3 5363  31.837  29.995   9.502
   37POPC   PO4 5364  31.390  29.499   9.495
   37POPC   GL1 5365  31.508  29.775   9.164
   37POPC   GL2 5366  31.690  29.532   9.016
   37POPC   C1A 5367  31.372  29.943   8.774
   37POPC   D2A 5368  31.237  29.755   8.397
   37POPC   C3A 5369  31.343  29.832   7.968
   37POPC   C4A 5370  31.211  30.179   7.772
   37POPC   C1B 5371  31.689  29.583   8.561
   37POPC   C2B 5372  31.751  29.578   8.117
   37POPC   C3B 5373  31.687  29.505   7.648
   37POPC   C4B 5374  31.752  29.666   7.202
   38POPC   NC3 5375  34.503  27.293   9.592
   38POPC   PO4 5376  34.593  26.594   9.695
   38POPC   GL1 5377  34.568  26.692   9.257
   38POPC   GL2 5378  34.325  26.939   9.199
   38POPC   C1A 5379  34.602  26.672   8.805
   38POPC   D2A 5380  34.520  26.841   8.373
   38POPC   C3A 5381  34.815  26.745   8.025
   38POPC   C4A 5382  34.630  26.809   7.622
   38POPC   C1B 5383  34.182  27.082   8.775
   38POPC   C2B 5384  34.190  27.238   8.333
   38POPC   C3B 5385  34.146  26.971   7.952
   38POPC   C4B 5386  34.179  26.972   7.480
   39POPC   NC3 5387  14.270  34.255   9.536
   39POPC   PO4 5388  14.077  34.921   9.444
   39POPC   GL1 5389  14.260  34.787   9.068
   39POPC   GL2 5390  14.424  34.506   9.127
   39POPC   C1A 5391  14.477  34.797   8.667
   39POPC   D2A 5392  14.493  34.660   8.224
   39POPC   C3A 5393  14.694  34.831   7.835
   39POPC   C4A 5394  14.375  34.877   7.445
   39POPC   C1B 5395  14.694  34.321   8.847
   39POPC   C2B 5396  14.730  34.174   8.409
   39POPC   C3B 5397  14.788  34.265   7.994
   39POPC   C4B 5398  14.442  34.397   7.784
   40POPC   NC3 5399  33.941  12.227   9.524
   40POPC   PO4 5400  33.604  11.671   9.364
   40POPC   GL1 5401  33.770  11.931   9.088
   40POPC   GL2 5402  33.735  12.304   9.062
   40POPC   C1A 5403  33.594  11.979   8.684
   40POPC   D2A 5404  33.583  12.250   8.338
   40POPC   C3A 5405  33.728  12.008   8.000
   40POPC   C4A 5406  33.831  11.822   7.620
   40POPC   C1B 5407  34.070  12.204   8.780
   40POPC   C2B 5408  34.224  12.389   8.395
   40POPC   C3B 5409  33.975  12.470   8.048
   40POPC   C4B 5410  33.959  12.303   7.646
   41POPC   NC3 5411  28.394  42.303   9.677
   41POPC   PO4 5412  28.323  41.561   9.635
   41POPC   GL1 5413  28.286  41.600   9.145
   41POPC   GL2 5414  28.159  41.919   8.945
   41POPC   C1A 5415  28.387  41.532   8.704
   41POPC   D2A 5416  28.270  41.714   8.332
   41POPC   C3A 5417  28.325  41.526   7.938
   41POPC   C4A 5418  28.062  41.686   7.610
   41POPC   C1B 5419  28.574  42.000   8.692
   41POPC   C2B 5420  28.784  41.820   8.387
   41POPC   C3B 5421  28.640  41.917   8.029
   41POPC   C4B 5422  28.480  41.948   7.677
   42POPC   NC3 5423  11.286  31.813   9.492
   42POPC   PO4 5424  11.070  31.188   9.699
   42POPC   GL1 5425  11.057  31.241   9.235
   42POPC   GL2 5426  11.197  31.542   9.063
   42POPC   C1A 5427  10.936  31.212   8.779
   42POPC   D2A 5428  11.212  31.375   8.423
   42POPC   C3A 5429  11.124  31.289   7.989
   42POPC   C4A 5430  10.931  31.579   7.722
   42POPC   C1B 5431  11.527  31.617   8.754
   42POPC   C2B 5432  11.697  31.732   8.359
   42POPC   C3B 5433  11.468  31.663   8.006
   42POPC   C4B 5434  11.608  31.701   7.612
   43POPC   NC3 5435  35.940  10.878   9.452
   43POPC   PO4 5436  36.063  10.259   9.533
   43POPC   GL1 5437  36.112  10.506   9.135
   43POPC   GL2 5438  35.755  10.641   9.040
   43POPC   C1A 5439  36.284  10.701   8.747
   43POPC   D2A 5440  36.214  10.830   8.322
   43POPC   C3A 5441  36.330  10.511   8.007
   43POPC   C4A 5442  36.520  10.547   7.620
   43POPC   C1B 5443  35.833  10.433   8.663
   43POPC   C2B 5444  35.848  10.477   8.212
   43POPC   C3B 5445  35.902  10.775   7.902
   43POPC   C4B 5446  36.028  10.666   7.485
   44POPC   NC3 5447  39.477   4.953   9.586
   44POPC   PO4 5448  39.101   5.485   9.743
   44POPC   GL1 5449  39.217   5.444   9.321
   44POPC   GL2 5450  39.421   5.188   9.150
   44POPC   C1A 5451  39.066   5.454   8.896
   44POPC   D2A 5452  39.235   5.191   8.569
   44POPC   C3A 5453  39.249   5.394   8.179
   44POPC   C4A 5454  39.045   5.256   7.809
   44POPC   C1B 5455  39.674   5.016   8.800
   44POPC   C2B 5456  39.639   4.929   8.366
   44POPC   C3B 5457  39.367   4.887   8.010
   44POPC   C4B 5458  39.529   4.802   7.598
   45POPC   NC3 5459  10.906  10.373   9.677
   45POPC   PO4 5460  11.487  10.755   9.542
   45POPC   GL1 5461  11.306  10.785   9.193
   45POPC   GL2 5462  11.201  10.419   9.189
   45POPC   C1A 5463  11.486  10.668   8.816
   45POPC   D2A 5464  11.451  10.329   8.570
   45POPC   C3A 5465  11.415  10.535   8.186
   45POPC   C4A 5466  11.413  10.398   7.792
   45POPC   C1B 5467  10.868  10.188   8.937
   45POPC   C2B 5468  10.982  10.150   8.483
   45POPC   C3B 5469  10.898  10.183   8.020
   45POPC   C4B 5470  11.041  10.134   7.608
   46POPC   NC3 5471  12.253  36.155   9.552
   46POPC   PO4 5472  11.758  35.724   9.624
   46POPC   GL1 5473  11.905  35.781   9.178
   46POPC   GL2 5474  12.271  35.868   9.156
   46POPC   C1A 5475  11.934  36.032   8.786
   46POPC   D2A 5476  12.093  36.341   8.474
   46POPC   C3A 5477  11.969  36.159   8.092
   46POPC   C4A 5478  11.942  36.008   7.697
   46POPC   C1B 5479  12.451  36.043   8.777
   46POPC   C2B 5480  12.375  35.932   8.357
   46POPC   C3B 5481  12.482  36.129   7.984
   46POPC   C4B 5482  12.281  36.404   7.703
   47POPC   NC3 5483  24.258   5.979   9.565
   47POPC   PO4 5484  24.788   6.268   9.698
   47POPC   GL1 5485  24.606   6.216   9.245
   47POPC   GL2 5486  24.571   5.865   9.169
   47POPC   C1A 5487  24.355   6.203   8.828
   47POPC   D2A 5488  24.453   6.117   8.391
   47POPC   C3A 5489  24.204   6.173   8.009
   47POPC   C4A 5490  24.265   5.938   7.606
   47POPC   C1B 5491  24.226   5.709   8.895
   47POPC   C2B 5492  24.185   5.676   8.456
   47POPC   C3B 5493  24.378   5.676   8.043
   47POPC   C4B 5494  24.229   5.444   7.659
   48POPC   NC3 5495  19.985  10.957   9.632
   48POPC   PO4 5496  19.709  11.548   9.564
   48POPC   GL1 5497  19.838  11.322   9.208
   48POPC   GL2 5498  20.092  11.096   9.173
   48POPC   C1A 5499  20.025  11.444   8.809
   48POPC   D2A 5500  19.867  11.302   8.465
   48POPC   C3A 5501  19.982  11.286   8.061
   48POPC   C4A 5502  19.694  11.318   7.746
   48POPC   C1B 5503  20.243  10.986   8.790
   48POPC   C2B 5504  20.305  11.029   8.375
   48POPC   C3B 5505  20.323  10.883   7.963
   48POPC   C4B 5506  19.981  10.905   7.678
   49POPC   NC3 5507  41.445   0.798   9.954
   49POPC   PO4 5508  41.765   0.331   9.543
   49POPC   GL1 5509  41.579   0.348   9.158
   49POPC   GL2 5510  41.735   0.579   9.023
   49POPC   C1A 5511  41.706   0.148   8.774
   49POPC   D2A 5512  41.509   0.077   8.380
   49POPC   C3A 5513  41.476   0.324   7.964
   49POPC   C4A 5514  41.289   0.116   7.548
   49POPC   C1B 5515  41.737   0.772   8.686
   49POPC   C2B 5516  41.796   0.503   8.376
   49POPC   C3B 5517  41.952   0.352   8.025
   49POPC   C4B 5518  41.905   0.704   7.774
   50POPC   NC3 5519  18.077  34.812   9.424
   50POPC   PO4 5520  18.535  34.346   9.339
   50POPC   GL1 5521  18.225  34.458   9.086
   50POPC   GL2 5522  18.404  34.791   9.034
   50POPC   C1A 5523  17.888  34.470   8.800
   50POPC   D2A 5524  17.866  34.464   8.362
   50POPC   C3A 5525  18.151  34.373   8.018
   50POPC   C4A 5526  18.012  34.615   7.651
   50POPC   C1B 5527  18.356  34.652   8.634
   50POPC   C2B 5528  18.317  34.810   8.252
   50POPC   C3B 5529  18.462  34.773   7.849
   50POPC   C4B 5530  18.691  34.385   7.760
   51POPC   NC3 5531  38.141  10.411   9.532
   51POPC   PO4 5532  38.730  10.232   9.570
   51POPC   GL1 5533  38.552  10.413   9.205
   51POPC   GL2 5534  38.571  10.757   9.272
   51POPC   C1A 5535  38.489  10.268   8.766
   51POPC   D2A 5536  38.468  10.052   8.359
   51POPC   C3A 5537  38.464  10.365   8.014
   51POPC   C4A 5538  38.158  10.742   7.971
   51POPC   C1B 5539  38.424  10.804   8.857
   51POPC   C2B 5540  38.440  10.684   8.432
   51POPC   C3B 5541  38.717  10.793   8.095
   51POPC   C4B 5542  38.562  10.818   7.677
   52POPC   NC3 5543  14.760  40.521   9.344
   52POPC   PO4 5544  15.303  40.885   9.594
   52POPC   GL1 5545  15.268  40.808   9.152
   52POPC   GL2 5546  14.973  40.804   9.005
   52POPC   C1A 5547  15.396  40.642   8.735
   52POPC   D2A 5548  15.225  40.523   8.327
   52POPC   C3A 5549  14.948  40.780   8.052
   52POPC   C4A 5550  15.264  40.746   7.742
   52POPC   C1B 5551  14.910  40.440   8.728
   52POPC   C2B 5552  14.852  40.165   8.394
   52POPC   C3B 5553  14.937  40.267   7.968
   52POPC   C4B 5554  14.897  40.464   7.585
   53POPC   NC3 5555   4.833  42.224   9.460
   53POPC   PO4 5556   5.449  42.522   9.462
   53POPC   GL1 5557   5.119  42.509   9.160
   53POPC   GL2 5558   4.929  42.215   8.971
   53POPC   C1A 5559   5.206  42.616   8.783
   53POPC   D2A 5560   5.264  42.393   8.438
   53POPC   C3A 5561   5.365  42.626   8.079
   53POPC   C4A 5562   5.037  42.502   7.853
   53POPC   C1B 5563   5.298  41.988   8.831
   53POPC   C2B 5564   5.518  41.923   8.442
   53POPC   C3B 5565   5.285  42.028   8.059
   53POPC   C4B 5566   4.927  41.997   7.765
   54POPC   NC3 5567  16.899  39.937   9.738
   54POPC   PO4 5568  17.569  39.905   9.520
   54POPC   GL1 5569  17.207  40.014   9.320
   54POPC   GL2 5570  16.981  39.771   9.201
   54POPC   C1A 5571  17.235  40.129   8.909
   54POPC   D2A 5572  17.463  40.289   8.558
   54POPC   C3A 5573  17.443  40.175   8.126
   54POPC   C4A 5574  17.720  39.971   7.792
   54POPC   C1B 5575  17.105  39.658   8.771
   54POPC   C2B 5576  17.288  39.753   8.376
   54POPC   C3B 5577  17.303  39.724   7.944
   54POPC   C4B 5578  17.265  40.047   7.618
   55POPC   NC3 5579  41.590  25.520   9.552
   55POPC   PO4 5580  41.103  25.082   9.501
   55POPC   GL1 5581  41.395  25.212   9.185
   55POPC   GL2 5582  41.799  25.165   9.198
   55POPC   C1A 5583  41.521  25.059   8.791
   55POPC   D2A 5584  41.496  24.951   8.413
   55POPC   C3A 5585  41.498  25.208   8.046
   55POPC   C4A 5586  41.582  24.993   7.663
   55POPC   C1B 5587  41.715  25.511   8.888
   55POPC   C2B 5588  41.718  25.496   8.454
   55POPC   C3B 5589  41.836  25.603   8.045
   55POPC   C4B 5590  41.546  25.619   7.704
   56POPC   NC3 5591   9.170  23.552   9.584
   56POPC   PO4 5592   9.765  23.758   9.532
   56POPC   GL1 5593   9.845  23.883   9.130
   56POPC   GL2 5594   9.536  24.056   9.069
   56POPC   C1A 5595   9.998  23.718   8.728
   56POPC   D2A 5596  10.035  23.827   8.312
   56POPC   C3A 5597   9.874  23.526   8.051
   56POPC   C4A 5598   9.652  23.578   7.663
   56POPC   C1B 5599   9.505  23.700   8.778
   56POPC   C2B 5600   9.431  23.607   8.350
   56POPC   C3B 5601   9.394  23.277   8.082
   56POPC   C4B 5602   9.298  23.213   7.676
   57POPC   NC3 5603  21.149  24.709   9.412
   57POPC   PO4 5604  21.271  25.344   9.460
   57POPC   GL1 5605  21.427  25.230   9.083
   57POPC   GL2 5606  21.449  24.892   9.055
   57POPC   C1A 5607  21.557  25.257   8.661
   57POPC   D2A 5608  21.497  25.485   8.265
   57POPC   C3A 5609  21.466  25.217   7.901
   57POPC   C4A 5610  21.535  25.361   7.491
   57POPC   C1B 5611  21.116  24.937   8.764
   57POPC   C2B 5612  21.129  25.148   8.364
   57POPC   C3B 5613  21.049  24.955   7.996
   57POPC   C4B 5614  21.261  24.756   7.681
   58POPC   NC3 5615   6.400  38.848   9.494
   58POPC   PO4 5616   6.877  39.310   9.549
   58POPC   GL1 5617   6.604  39.268   9.173
   58POPC   GL2 5618   6.308  39.513   9.150
   58POPC   C1A 5619   6.663  39.067   8.765
   58POPC   D2A 5620   6.824  38.972   8.348
   58POPC   C3A 5621   6.645  39.069   7.941
   58POPC   C4A 5622   6.540  39.311   7.569
   58POPC   C1B 5623   6.461  39.540   8.727
   58POPC   C2B 5624   6.389  39.296   8.369
   58POPC   C3B 5625   6.363  39.521   7.995
   58POPC   C4B 5626   6.764  39.701   7.822
   59POPC   NC3 5627   6.808  20.560   9.757
   59POPC   PO4 5628   6.406  21.000   9.433
   59POPC   GL1 5629   6.540  20.797   9.074
   59POPC   GL2 5630   6.823  20.593   9.164
   59POPC   C1A 5631   6.463  20.620   8.665
   59POPC   D2A 5632   6.722  20.523   8.308
   59POPC   C3A 5633   6.517  20.615   7.913
   59POPC   C4A 5634   6.348  20.367   7.566
   59POPC   C1B 5635   6.989  20.735   8.747
   59POPC   C2B 5636   7.133  20.886   8.332
   59POPC   C3B 5637   7.062  20.679   7.935
   59POPC   C4B 5638   6.915  20.260   7.820
   60POPC   NC3 5639  36.642  25.703   9.381
   60POPC   PO4 5640  36.153  26.149   9.476
   60POPC   GL1 5641  36.283  26.009   9.084
   60POPC   GL2 5642  36.599  26.127   9.065
   60POPC   C1A 5643  36.084  25.989   8.671
   60POPC   D2A 5644  36.169  25.964   8.216
   60POPC   C3A 5645  35.902  25.809   7.890
   60POPC   C4A 5646  35.698  25.693   7.497
   60POPC   C1B 5647  36.476  26.337   8.705
   60POPC   C2B 5648  36.268  26.444   8.296
   60POPC   C3B 5649  36.148  26.438   7.838
   60POPC   C4B 5650  36.280  26.406   7.359
   61POPC   NC3 5651   4.504  44.397   9.440
   61POPC   PO4 5652   4.329  43.743   9.634
   61POPC   GL1 5653   4.220  43.722   9.172
   61POPC   GL2 5654   4.316  44.034   9.150
   61POPC   C1A 5655   4.321  43.612   8.685
   61POPC   D2A 5656   4.608  43.654   8.284
   61POPC   C3A 5657   4.405  43.756   7.846
   61POPC   C4A 5658   4.382  43.711   7.361
   61POPC   C1B 5659   4.191  44.096   8.759
   61POPC   C2B 5660   4.363  44.078   8.381
   61POPC   C3B 5661   4.184  44.189   8.018
   61POPC   C4B 5662   4.326  44.186   7.593
   62POPC   NC3 5663  33.735  17.906   9.891
   62POPC   PO4 5664  33.945  17.306   9.666
   62POPC   GL1 5665  33.989  17.289   9.182
   62POPC   GL2 5666  33.972  17.611   9.073
   62POPC   C1A 5667  33.667  17.324   8.777
   62POPC   D2A 5668  33.723  17.413   8.322
   62POPC   C3A 5669  34.109  17.496   8.133
   62POPC   C4A 5670  34.229  17.361   7.734
   62POPC   C1B 5671  34.027  17.688   8.617
   62POPC   C2B 5672  33.890  17.930   8.240
   62POPC   C3B 5673  33.745  17.714   7.847
   62POPC   C4B 5674  33.564  17.816   7.437
   63POPC   NC3 5675  13.597  27.645   9.518
   63POPC   PO4 5676  13.911  28.196   9.597
   63POPC   GL1 5677  13.852  27.953   9.194
   63POPC   GL2 5678  13.968  27.590   9.163
   63POPC   C1A 5679  13.580  27.737   8.873
   63POPC   D2A 5680  13.665  27.717   8.466
   63POPC   C3A 5681  13.453  27.472   8.136
   63POPC   C4A 5682  13.446  27.554   7.708
   63POPC   C1B 5683  13.957  27.372   8.746
   63POPC   C2B 5684  13.887  27.262   8.294
   63POPC   C3B 5685  13.917  27.430   7.855
   63POPC   C4B 5686  14.060  27.443   7.399
   64POPC   NC3 5687   9.834  12.141   9.527
   64POPC   PO4 5688   9.300  11.681   9.379
   64POPC   GL1 5689   9.599  11.859   9.124
   64POPC   GL2 5690   9.580  12.236   9.117
   64POPC   C1A 5691   9.684  11.971   8.697
   64POPC   D2A 5692   9.852  12.065   8.318
   64POPC   C3A 5693   9.748  11.856   7.968
   64POPC   C4A 5694   9.568  12.002   7.605
   64POPC   C1B 5695   9.974  12.359   8.867
   64POPC   C2B 5696  10.232  12.357   8.474
   64POPC   C3B 5697  10.006  12.518   8.116
   64POPC   C4B 5698   9.875  12.379   7.703
   65POPC   NC3 5699   0.153  42.103   9.517
   65POPC   PO4 5700   0.243  42.794   9.452
   65POPC   GL1 5701   0.216  42.480   9.149
   65POPC   GL2 5702   0.530  42.280   9.146
   65POPC   C1A 5703   0.357  42.500   8.712
   65POPC   D2A 5704   0.584  42.531   8.326
   65POPC   C3A 5705   0.345  42.646   7.974
   65POPC   C4A 5706   0.333  42.499   7.567
   65POPC   C1B 5707   0.621  42.026   8.758
   65POPC   C2B 5708   0.594  42.011   8.280
   65POPC   C3B 5709   0.344  42.005   7.870
   65POPC   C4B 5710   0.557  42.048   7.436
   66POPC   NC3 5711   8.111  28.084   9.449
   66POPC   PO4 5712   8.242  27.383   9.326
   66POPC   GL1 5713   8.297  27.649   8.983
   66POPC   GL2 5714   8.291  28.003   9.002
   66POPC   C1A 5715   8.293  27.584   8.542
   66POPC   D2A 5716   8.288  27.622   8.094
   66POPC   C3A 5717   8.324  27.266   7.882
   66POPC   C4A 5718   8.233  27.267   7.466
   66POPC   C1B 5719   7.948  27.971   8.748
   66POPC   C2B 5720   7.878  27.806   8.358
   66POPC   C3B 5721   7.953  27.986   7.969
   66POPC   C4B 5722   8.207  27.861   7.612
   67POPC   NC3 5723  39.405  16.087   9.521
   67POPC   PO4 5724  38.901  16.450   9.309
   67POPC   GL1 5725  39.149  16.082   9.092
   67POPC   GL2 5726  39.495  16.197   9.044
   67POPC   C1A 5727  39.361  15.840   8.708
   67POPC   D2A 5728  39.176  15.729   8.286
   67POPC   C3A 5729  39.349  15.604   7.863
   67POPC   C4A 5730  39.059  15.769   7.493
   67POPC   C1B 5731  39.248  16.324   8.670
   67POPC   C2B 5732  39.408  16.232   8.305
   67POPC   C3B 5733  39.478  16.081   7.944
   67POPC   C4B 5734  39.185  16.224   7.714
   68POPC   NC3 5735  12.670  20.809   9.522
   68POPC   PO4 5736  13.085  20.390   9.282
   68POPC   GL1 5737  12.792  20.520   9.021
   68POPC   GL2 5738  12.498  20.692   9.064
   68POPC   C1A 5739  12.632  20.332   8.663
   68POPC   D2A 5740  12.711  20.095   8.292
   68POPC   C3A 5741  12.844  20.400   7.980
   68POPC   C4A 5742  13.095  20.653   7.695
   68POPC   C1B 5743  12.504  20.831   8.654
   68POPC   C2B 5744  12.465  20.717   8.237
   68POPC   C3B 5745  12.596  20.846   7.826
   68POPC   C4B 5746  12.805  20.977   7.442
   69POPC   NC3 5747   1.882  16.538   9.519
   69POPC   PO4 5748   2.348  16.362   9.151
   69POPC   GL1 5749   2.093  16.745   9.043
   69POPC   GL2 5750   1.763  16.902   9.107
   69POPC   C1A 5751   2.018  16.979   8.656
   69POPC   D2A 5752   1.893  16.808   8.235
   69POPC   C3A 5753   2.155  16.749   7.871
   69POPC   C4A 5754   2.111  16.865   7.431
   69POPC   C1B 5755   1.704  16.580   8.745
   69POPC   C2B 5756   1.507  16.505   8.318
   69POPC   C3B 5757   1.713  16.477   7.856
   69POPC   C4B 5758   1.750  16.528   7.341
   70POPC   NC3 5759  21.953   9.368   9.494
   70POPC   PO4 5760  22.359   9.913   9.485
   70POPC   GL1 5761  22.155   9.944   9.114
   70POPC   GL2 5762  22.112   9.591   9.043
   70POPC   C1A 5763  21.941   9.950   8.719
   70POPC   D2A 5764  22.051   9.701   8.375
   70POPC   C3A 5765  22.054   9.972   8.033
   70POPC   C4A 5766  21.820   9.861   7.691
   70POPC   C1B 5767  22.431   9.532   8.716
   70POPC   C2B 5768  22.445   9.390   8.295
   70POPC   C3B 5769  22.215   9.489   7.901
   70POPC   C4B 5770  22.513   9.504   7.560
   71POPC   NC3 5771   3.252  44.245   9.617
   71POPC   PO4 5772   2.559  43.965   9.648
   71POPC   GL1 5773   2.570  44.013   9.215
   71POPC   GL2 5774   2.318  44.241   9.160
   71POPC   C1A 5775   2.822  43.952   8.832
   71POPC   D2A 5776   2.992  44.190   8.467
   71POPC   C3A 5777   3.067  44.036   8.027
   71POPC   C4A 5778   3.068  43.697   7.715
   71POPC   C1B 5779   2.272  44.017   8.778
   71POPC   C2B 5780   2.519  43.965   8.405
   71POPC   C3B 5781   2.384  43.979   7.980
   71POPC   C4B 5782   2.301  44.318   7.722
   72POPC   NC3 5783  28.504  34.430   9.594
   72POPC   PO4 5784  29.170  34.489   9.554
   72POPC   GL1 5785  29.203  34.578   9.132
   72POPC   GL2 5786  29.118  34.240   9.078
   72POPC   C1A 5787  29.342  34.868   8.790
   72POPC   D2A 5788  29.283  34.767   8.349
   72POPC   C3A 5789  29.444  34.813   7.930
   72POPC   C4A 5790  29.122  34.881   7.620
   72POPC   C1B 5791  28.926  34.462   8.708
   72POPC   C2B 5792  28.913  34.422   8.254
   72POPC   C3B 5793  29.159  34.394   7.864
   72POPC   C4B 5794  28.970  34.290   7.449
   73POPC   NC3 5795  32.500  26.528   9.390
   73POPC   PO4 5796  31.877  26.841   9.537
   73POPC   GL1 5797  32.133  26.829   9.157
   73POPC   GL2 5798  32.261  27.147   9.022
   73POPC   C1A 5799  32.296  26.711   8.758
   73POPC   D2A 5800  32.258  26.641   8.339
   73POPC   C3A 5801  32.160  26.986   8.104
   73POPC   C4A 5802  32.023  26.744   7.763
   73POPC   C1B 5803  32.651  27.126   8.730
   73POPC   C2B 5804  32.749  26.870   8.381
   73POPC   C3B 5805  32.594  26.753   7.961
   73POPC   C4B 5806  32.453  27.006   7.645
   74POPC   NC3 5807  28.052  15.831   9.533
   74POPC   PO4 5808  27.398  16.153   9.392
   74POPC   GL1 5809  27.561  16.095   9.024
   74POPC   GL2 5810  27.832  15.877   9.090
   74POPC   C1A 5811  27.526  15.733   8.741
   74POPC   D2A 5812  27.370  15.578   8.393
   74POPC   C3A 5813  27.473  15.710   8.009
   74POPC   C4A 5814  27.450  15.954   7.651
   74POPC   C1B 5815  27.948  16.081   8.707
   74POPC   C2B 5816  27.822  15.896   8.343
   74POPC   C3B 5817  27.943  15.951   7.924
   74POPC   C4B 5818  27.892  15.651   7.679
   75POPC   NC3 5819  20.267  22.717   9.796
   75POPC   PO4 5820  20.789  23.107   9.667
   75POPC   GL1 5821  20.517  22.935   9.331
   75POPC   GL2 5822  20.796  22.844   9.165
   75POPC   C1A 5823  20.369  22.849   8.869
   75POPC   D2A 5824  20.246  23.022   8.439
   75POPC   C3A 5825  20.485  22.910   8.057
   75POPC   C4A 5826  20.625  22.817   7.659
   75POPC   C1B 5827  20.881  23.098   8.824
   75POPC   C2B 5828  20.783  23.028   8.429
   75POPC   C3B 5829  21.009  22.947   8.011
   75POPC   C4B 5830  21.036  23.149   7.616
   76POPC   NC3 5831   9.474  40.403   9.354
   76POPC   PO4 5832   9.134  39.826   9.459
   76POPC   GL1 5833   8.839  39.654   9.167
   76POPC   GL2 5834   8.691  39.902   9.035
   76POPC   C1A 5835   8.808  39.568   8.688
   76POPC   D2A 5836   8.936  39.809   8.300
   76POPC   C3A 5837   8.858  39.793   7.835
   76POPC   C4A 5838   8.677  39.731   7.394
   76POPC   C1B 5839   8.993  40.139   8.816
   76POPC   C2B 5840   8.978  40.390   8.445
   76POPC   C3B 5841   9.100  40.267   8.041
   76POPC   C4B 5842   9.228  40.510   7.695
   77POPC   NC3 5843  29.529   0.447   9.501
   77POPC   PO4 5844  30.167   0.602   9.258
   77POPC   GL1 5845  29.867   0.312   9.094
   77POPC   GL2 5846  29.541   0.346   9.005
   77POPC   C1A 5847  29.929   0.186   8.651
   77POPC   D2A 5848  30.051   0.417   8.241
   77POPC   C3A 5849  29.934   0.206   7.844
   77POPC   C4A 5850  29.945   0.233   7.394
   77POPC   C1B 5851  29.749   0.647   8.738
   77POPC   C2B 5852  29.701   0.788   8.348
   77POPC   C3B 5853  29.902   0.904   7.998
   77POPC   C4B 5854  29.850   0.688   7.654
   78POPC   NC3 5855  23.820  13.947   9.541
   78POPC   PO4 5856  23.576  13.447   9.286
   78POPC   GL1 5857  23.768  13.580   8.949
   78POPC   GL2 5858  23.981  13.698   9.100
   78POPC   C1A 5859  23.677  13.671   8.553
   78POPC   D2A 5860  23.355  13.622   8.252
   78POPC   C3A 5861  23.541  13.692   7.896
   78POPC   C4A 5862  23.554  13.598   7.486
   78POPC   C1B 5863  24.162  13.852   8.754
   78POPC   C2B 5864  24.056  13.987   8.386
   78POPC   C3B 5865  24.157  13.939   7.984
   78POPC   C4B 5866  24.019  13.626   7.733
   79POPC   NC3 5867  31.071  29.170   9.538
   79POPC   PO4 5868  31.665  28.812   9.563
   79POPC   GL1 5869  31.679  29.032   9.187
   79POPC   GL2 5870  31.358  29.132   9.128
   79POPC   C1A 5871  31.739  29.102   8.749
   79POPC   D2A 5872  31.842  29.111   8.322
   79POPC   C3A 5873  31.539  29.103   8.011
   79POPC   C4A 5874  31.476  28.962   7.611
   79POPC   C1B 5875  31.241  29.398   8.806
   79POPC   C2B 5876  31.232  29.251   8.397
   79POPC   C3B 5877  31.019  29.441   8.068
   79POPC   C4B 5878  31.189  29.388   7.704
   80POPC   NC3 5879  29.287  33.066   9.485
   80POPC   PO4 5880  28.551  32.999   9.465
   80POPC   GL1 5881  28.852  32.947   9.104
   80POPC   GL2 5882  29.242  32.951   9.010
   80POPC   C1A 5883  28.884  33.149   8.680
   80POPC   D2A 5884  29.067  33.420   8.384
   80POPC   C3A 5885  28.968  33.247   7.958
   80POPC   C4A 5886  29.215  33.210   7.521
   80POPC   C1B 5887  29.169  32.736   8.659
   80POPC   C2B 5888  29.166  32.897   8.276
   80POPC   C3B 5889  29.373  32.887   7.884
   80POPC   C4B 5890  29.395  32.722   7.465
   81POPC   NC3 5891   3.906  31.707   9.685
   81POPC   PO4 5892   3.636  32.249   9.614
   81POPC   GL1 5893   3.552  32.392   9.184
   81POPC   GL2 5894   3.840  32.374   8.978
   81POPC   C1A 5895   3.407  32.126   8.825
   81POPC   D2A 5896   3.337  31.897   8.449
   81POPC   C3A 5897   3.565  32.053   8.093
   81POPC   C4A 5898   3.431  31.937   7.674
   81POPC   C1B 5899   3.499  32.610   8.735
   81POPC   C2B 5900   3.379  32.517   8.308
   81POPC   C3B 5901   3.327  32.654   7.875
   81POPC   C4B 5902   3.537  32.537   7.477
   82POPC   NC3 5903   9.811  32.761   9.500
   82POPC   PO4 5904   9.273  33.192   9.507
   82POPC   GL1 5905   9.509  33.063   9.164
   82POPC   GL2 5906   9.866  33.183   9.220
   82POPC   C1A 5907   9.670  32.980   8.766
   82POPC   D2A 5908   9.772  32.660   8.513
   82POPC   C3A 5909   9.810  32.845   8.132
   82POPC   C4A 5910   9.974  32.645   7.781
   82POPC   C1B 5911  10.058  33.300   8.846
   82POPC   C2B 5912  10.102  33.123   8.476
   82POPC   C3B 5913  10.101  33.267   8.085
   82POPC   C4B 5914   9.923  33.137   7.714
   83POPC   NC3 5915  40.184  19.427   9.461
   83POPC   PO4 5916  39.848  20.061   9.360
   83POPC   GL1 5917  39.882  19.788   9.059
   83POPC   GL2 5918  40.195  19.787   9.099
   83POPC   C1A 5919  40.017  19.748   8.639
   83POPC   D2A 5920  40.061  20.054   8.377
   83POPC   C3A 5921  39.960  19.855   8.066
   83POPC   C4A 5922  40.001  19.665   7.713
   83POPC   C1B 5923  40.339  20.113   8.818
   83POPC   C2B 5924  40.525  20.310   8.449
   83POPC   C3B 5925  40.414  20.208   8.056
   83POPC   C4B 5926  40.570  20.070   7.675
   84POPC   NC3 5927   9.009   6.361   9.505
   84POPC   PO4 5928   9.032   5.666   9.570
   84POPC   GL1 5929   8.852   5.831   9.206
   84POPC   GL2 5930   9.114   6.045   9.132
   84POPC   C1A 5931   8.751   5.895   8.768
   84POPC   D2A 5932   8.609   6.077   8.379
   84POPC   C3A 5933   8.846   5.889   8.048
   84POPC   C4A 5934   8.838   5.943   7.611
   84POPC   C1B 5935   9.239   5.717   8.852
   84POPC   C2B 5936   9.056   5.585   8.462
   84POPC   C3B 5937   9.291   5.604   8.089
   84POPC   C4B 5938   9.333   5.807   7.713
   85POPC   NC3 5939  27.981  20.102   9.598
   85POPC   PO4 5940  28.643  19.846   9.506
   85POPC   GL1 5941  28.288  19.748   9.216
   85POPC   GL2 5942  28.562  19.561   9.079
   85POPC   C1A 5943  28.012  19.835   8.863
   85POPC   D2A 5944  27.841  19.752   8.454
   85POPC   C3A 5945  28.053  19.714   8.059
   85POPC   C4A 5946  28.108  19.921   7.668
   85POPC   C1B 5947  28.479  19.978   8.811
   85POPC   C2B 5948  28.408  19.991   8.337
   85POPC   C3B 5949  28.562  19.802   7.914
   85POPC   C4B 5950  28.526  19.745   7.437
   86POPC   NC3 5951   0.220  14.151   9.843
   86POPC   PO4 5952  44.770  14.555   9.465
   86POPC   GL1 5953  44.527  14.519   9.097
   86POPC   GL2 5954  44.685  14.211   9.037
   86POPC   C1A 5955  44.656  14.570   8.651
   86POPC   D2A 5956  44.784  14.819   8.283
   86POPC   C3A 5957  44.668  14.629   7.884
   86POPC   C4A 5958  44.845  14.382   7.557
   86POPC   C1B 5959   0.021  14.012   8.741
   86POPC   C2B 5960   0.123  14.087   8.296
   86POPC   C3B 5961  44.802  14.089   7.995
   86POPC   C4B 5962  44.417  14.183   7.808
   87POPC   NC3 5963  19.460  43.003   9.460
   87POPC   PO4 5964  18.820  42.927   9.574
   87POPC   GL1 5965  18.991  43.230   9.270
   87POPC   GL2 5966  19.318  43.333   9.113
   87POPC   C1A 5967  18.895  43.238   8.835
   87POPC   D2A 5968  18.699  42.991   8.490
   87POPC   C3A 5969  18.826  42.991   8.047
   87POPC   C4A 5970  19.030  43.216   7.709
   87POPC   C1B 5971  19.371  43.314   8.682
   87POPC   C2B 5972  19.223  43.229   8.284
   87POPC   C3B 5973  19.391  42.986   7.983
   87POPC   C4B 5974  19.246  42.698   7.749
   88POPC   NC3 5975  36.387  21.269   9.645
   88POPC   PO4 5976  36.163  21.828   9.491
   88POPC   GL1 5977  36.270  21.505   9.214
   88POPC   GL2 5978  36.073  21.203   9.207
   88POPC   C1A 5979  36.431  21.473   8.835
   88POPC   D2A 5980  36.260  21.309   8.442
   88POPC   C3A 5981  36.340  21.518   8.044
   88POPC   C4A 5982  36.317  21.171   7.787
   88POPC   C1B 5983  35.926  21.475   8.838
   88POPC   C2B 5984  35.775  21.583   8.436
   88POPC   C3B 5985  35.862  21.371   8.051
   88POPC   C4B 5986  35.971  21.531   7.652
   89POPC   NC3 5987   8.446  34.291   9.487
   89POPC   PO4 5988   8.017  34.879   9.400
   89POPC   GL1 5989   8.161  34.581   9.141
   89POPC   GL2 5990   8.506  34.686   9.132
   89POPC   C1A 5991   8.001  34.507   8.724
   89POPC   D2A 5992   8.222  34.459   8.332
   89POPC   C3A 5993   8.022  34.326   7.994
   89POPC   C4A 5994   7.949  34.638   7.699
   89POPC   C1B 5995   8.523  34.429   8.738
   89POPC   C2B 5996   8.638  34.154   8.387
   89POPC   C3B 5997   8.575  34.317   7.960
   89POPC   C4B 5998   8.334  34.372   7.558
   90POPC   NC3 5999  30.007  25.625   9.416
   90POPC   PO4 6000  29.631  25.049   9.507
   90POPC   GL1 6001  29.866  25.200   9.115
   90POPC   GL2 6002  30.227  25.197   8.977
   90POPC   C1A 6003  29.851  25.425   8.719
   90POPC   D2A 6004  30.005  25.366   8.296
   90POPC   C3A 6005  29.872  25.168   7.909
   90POPC   C4A 6006  29.761  25.169   7.463
   90POPC   C1B 6007  30.370  25.511   8.636
   90POPC   C2B 6008  30.254  25.806   8.321
   90POPC   C3B 6009  30.116  25.682   7.911
   90POPC   C4B 6010  30.189  25.404   7.577
   91POPC   NC3 6011   2.401  27.732   9.481
   91POPC   PO4 6012   2.027  27.216   9.383
   91POPC   GL1 6013   1.996  27.594   9.097
   91POPC   GL2 6014   2.295  27.775   8.980
   91POPC   C1A 6015   1.907  27.699   8.646
   91POPC   D2A 6016   1.710  27.762   8.225
   91POPC   C3A 6017   1.973  27.702   7.864
   91POPC   C4A 6018   2.304  27.977   7.716
   91POPC   C1B 6019   2.391  27.355   8.826
   91POPC   C2B 6020   2.280  27.264   8.401
   91POPC   C3B 6021   2.442  27.545   8.091
   91POPC   C4B 6022   2.420  27.467   7.677
   92POPC   NC3 6023  32.473   9.893   9.553
   92POPC   PO4 6024  31.902   9.598   9.323
   92POPC   GL1 6025  32.124   9.885   9.101
   92POPC   GL2 6026  31.852   9.919   8.889
   92POPC   C1A 6027  32.328   9.901   8.689
   92POPC   D2A 6028  32.178   9.698   8.300
   92POPC   C3A 6029  32.381   9.690   7.906
   92POPC   C4A 6030  32.573   9.936   7.601
   92POPC   C1B 6031  31.975   9.471   8.708
   92POPC   C2B 6032  31.900   9.263   8.326
   92POPC   C3B 6033  31.899   9.488   7.931
   92POPC   C4B 6034  32.014   9.381   7.500
   93POPC   NC3 6035  27.748  16.480   9.469
   93POPC   PO4 6036  27.355  17.072   9.697
   93POPC   GL1 6037  27.665  16.911   9.263
   93POPC   GL2 6038  27.412  16.630   9.115
   93POPC   C1A 6039  27.826  16.672   8.851
   93POPC   D2A 6040  27.672  16.485   8.487
   93POPC   C3A 6041  27.797  16.644   8.085
   93POPC   C4A 6042  28.090  16.436   7.847
   93POPC   C1B 6043  27.225  16.390   8.763
   93POPC   C2B 6044  27.329  16.089   8.438
   93POPC   C3B 6045  27.538  16.209   8.082
   93POPC   C4B 6046  27.452  16.440   7.764
   94POPC   NC3 6047  23.265   1.283   9.476
   94POPC   PO4 6048  23.820   1.404   9.711
   94POPC   GL1 6049  23.859   1.235   9.281
   94POPC   GL2 6050  23.548   1.133   9.081
   94POPC   C1A 6051  24.022   1.137   8.861
   94POPC   D2A 6052  23.799   1.018   8.480
   94POPC   C3A 6053  23.903   1.264   8.128
   94POPC   C4A 6054  23.931   1.234   7.701
   94POPC   C1B 6055  23.351   1.244   8.670
   94POPC   C2B 6056  23.387   1.285   8.208
   94POPC   C3B 6057  23.362   1.167   7.738
   94POPC   C4B 6058  23.290   1.394   7.300
   95POPC   NC3 6059  41.518   3.242   9.572
   95POPC   PO4 6060  41.406   3.898   9.482
   95POPC   GL1 6061  41.463   3.592   9.178
   95POPC   GL2 6062  41.821   3.524   9.238
   95POPC   C1A 6063  41.300   3.573   8.758
   95POPC   D2A 6064  41.293   3.901   8.413
   95POPC   C3A 6065  41.327   3.772   7.989
   95POPC   C4A 6066  41.572   3.930   7.617
   95POPC   C1B 6067  41.827   3.580   8.790
   95POPC   C2B 6068  41.690   3.538   8.368
   95POPC   C3B 6069  41.584   3.278   8.041
   95POPC   C4B 6070  41.466   3.428   7.641
   96POPC   NC3 6071  28.561   1.817   9.638
   96POPC   PO4 6072  27.932   1.968   9.792
   96POPC   GL1 6073  28.170   1.972   9.314
   96POPC   GL2 6074  28.318   1.622   9.212
   96POPC   C1A 6075  28.200   1.907   8.806
   96POPC   D2A 6076  28.459   1.936   8.397
   96POPC   C3A 6077  28.257   1.961   7.981
   96POPC   C4A 6078  28.333   2.341   7.721
   96POPC   C1B 6079  28.624   1.506   8.851
   96POPC   C2B 6080  28.847   1.596   8.439
   96POPC   C3B 6081  28.610   1.580   8.020
   96POPC   C4B 6082  28.549   1.508   7.555
   97POPC   NC3 6083  16.305  11.773   9.581
   97POPC   PO4 6084  15.695  11.812   9.747
   97POPC   GL1 6085  15.859  11.742   9.298
   97POPC   GL2 6086  15.813  12.067   9.114
   97POPC   C1A 6087  16.096  11.721   8.877
   97POPC   D2A 6088  16.005  11.641   8.418
   97POPC   C3A 6089  16.113  11.906   8.048
   97POPC   C4A 6090  16.253  11.779   7.633
   97POPC   C1B 6091  15.690  11.982   8.658
   97POPC   C2B 6092  15.616  11.907   8.183
   97POPC   C3B 6093  15.743  12.095   7.753
   97POPC   C4B 6094  15.787  12.282   7.320
   98POPC   NC3 6095  37.476  12.224   9.591
   98POPC   PO4 6096  38.110  11.834   9.510
   98POPC   GL1 6097  37.804  11.989   9.214
   98POPC   GL2 6098  37.941  12.244   9.136
   98POPC   C1A 6099  37.662  12.051   8.737
   98POPC   D2A 6100  37.675  12.062   8.248
   98POPC   C3A 6101  37.661  12.010   7.784
   98POPC   C4A 6102  37.655  12.212   7.344
   98POPC   C1B 6103  38.026  12.394   8.781
   98POPC   C2B 6104  38.110  12.247   8.416
   98POPC   C3B 6105  38.147  12.121   8.004
   98POPC   C4B 6106  38.063  12.316   7.642
   99POPC   NC3 6107   8.613  25.339   9.481
   99POPC   PO4 6108   7.977  25.114   9.583
   99POPC   GL1 6109   8.042  25.203   9.165
   99POPC   GL2 6110   8.373  25.370   9.040
   99POPC   C1A 6111   8.151  24.984   8.771
   99POPC   D2A 6112   8.345  25.294   8.517
   99POPC   C3A 6113   8.384  25.254   8.082
   99POPC   C4A 6114   8.094  25.002   7.834
   99POPC   C1B 6115   8.061  25.601   8.847
   99POPC   C2B 6116   7.885  25.679   8.473
   99POPC   C3B 6117   8.005  25.627   8.081
   99POPC   C4B 6118   8.174  25.504   7.687
  100POPC   NC3 6119  32.909  12.504   9.549
  100POPC   PO4 6120  33.248  13.114   9.308
  100POPC   GL1 6121  33.016  12.874   9.040
  100POPC   GL2 6122  32.750  12.686   9.103
  100POPC   C1A 6123  32.972  12.856   8.630
  100POPC   D2A 6124  32.703  13.048   8.335
  100POPC   C3A 6125  32.915  12.878   8.001
  100POPC   C4A 6126  32.918  13.023   7.594
  100POPC   C1B 6127  32.708  12.405   8.741
  100POPC   C2B 6128  32.677  12.536   8.345
  100POPC   C3B 6129  32.671  12.358   7.982
  100POPC   C4B 6130  32.865  12.515   7.639
  101POPC   NC3 6131  37.319   3.578   9.678
  101POPC   PO4 6132  38.036   3.595   9.504
  101POPC   GL1 6133  37.786   3.473   9.148
  101POPC   GL2 6134  37.880   3.170   8.952
  101POPC   C1A 6135  37.778   3.664   8.751
  101POPC   D2A 6136  37.988   3.969   8.521
  101POPC   C3A 6137  38.021   3.763   8.137
  101POPC   C4A 6138  37.841   3.444   7.826
  101POPC   C1B 6139  37.663   3.175   8.570
  101POPC   C2B 6140  37.586   3.511   8.292
  101POPC   C3B 6141  37.351   3.591   7.942
  101POPC   C4B 6142  37.414   3.226   7.669
  102POPC   NC3 6143   1.840   8.453   9.394
  102POPC   PO4 6144   2.411   8.106   9.524
  102POPC   GL1 6145   2.181   8.182   9.132
  102POPC   GL2 6146   2.122   7.835   9.097
  102POPC   C1A 6147   1.901   8.413   8.753
  102POPC   D2A 6148   1.672   8.503   8.336
  102POPC   C3A 6149   1.764   8.211   8.001
  102POPC   C4A 6150   2.063   8.305   7.692
  102POPC   C1B 6151   2.168   7.986   8.668
  102POPC   C2B 6152   2.188   8.129   8.251
  102POPC   C3B 6153   2.185   7.850   7.865
  102POPC   C4B 6154   2.257   7.923   7.425
  103POPC   NC3 6155  44.696  35.580   9.668
  103POPC   PO4 6156  44.654  36.195   9.699
  103POPC   GL1 6157  44.763  35.981   9.345
  103POPC   GL2 6158  44.439  35.936   9.200
  103POPC   C1A 6159  44.920  36.002   8.924
  103POPC   D2A 6160  44.763  35.938   8.496
  103POPC   C3A 6161  44.826  36.198   8.152
  103POPC   C4A 6162  44.994  35.979   7.813
  103POPC   C1B 6163  44.453  36.190   8.844
  103POPC   C2B 6164  44.406  36.415   8.461
  103POPC   C3B 6165  44.320  36.343   8.042
  103POPC   C4B 6166  44.558  36.198   7.678
  104POPC   NC3 6167  42.199   0.166   9.642
  104POPC   PO4 6168  42.347  44.519   9.508
  104POPC   GL1 6169  42.314  44.778   9.179
  104POPC   GL2 6170  42.409  44.489   8.994
  104POPC   C1A 6171  42.277  44.933   8.754
  104POPC   D2A 6172  42.046   0.058   8.418
  104POPC   C3A 6173  42.142  44.872   8.043
  104POPC   C4A 6174  42.486   0.019   7.839
  104POPC   C1B 6175  42.688  44.603   8.665
  104POPC   C2B 6176  42.516  44.598   8.263
  104POPC   C3B 6177  42.468  44.488   7.826
  104POPC   C4B 6178  42.214  44.229   7.532
  105POPC   NC3 6179   6.256  38.151   9.390
  105POPC   PO4 6180   6.809  38.589   9.516
  105POPC   GL1 6181   6.649  38.458   9.130
  105POPC   GL2 6182   6.410  38.721   9.015
  105POPC   C1A 6183   6.792  38.537   8.703
  105POPC   D2A 6184   6.630  38.506   8.304
  105POPC   C3A 6185   6.871  38.571   7.959
  105POPC   C4A 6186   6.891  38.520   7.528
  105POPC   C1B 6187   6.302  38.791   8.557
  105POPC   C2B 6188   6.120  38.526   8.246
  105POPC   C3B 6189   6.365  38.615   7.886
  105POPC   C4B 6190   6.406  38.751   7.499
  106POPC   NC3 6191  34.523  13.134   9.343
  106POPC   PO4 6192  34.751  13.781   9.511
  106POPC   GL1 6193  34.772  13.553   9.141
  106POPC   GL2 6194  34.414  13.589   9.123
  106POPC   C1A 6195  34.715  13.407   8.712
  106POPC   D2A 6196  34.575  13.699   8.379
  106POPC   C3A 6197  34.665  13.602   7.978
  106POPC   C4A 6198  35.016  13.755   7.810
  106POPC   C1B 6199  34.206  13.406   8.775
  106POPC   C2B 6200  34.319  13.284   8.340
  106POPC   C3B 6201  34.157  13.489   8.009
  106POPC   C4B 6202  34.292  13.547   7.574
  107POPC   NC3 6203  16.802  31.271   9.456
  107POPC   PO4 6204  16.664  31.910   9.555
  107POPC   GL1 6205  16.732  31.683   9.177
  107POPC   GL2 6206  17.096  31.589   9.168
  107POPC   C1A 6207  16.469  31.487   8.856
  107POPC   D2A 6208  16.441  31.596   8.393
  107POPC   C3A 6209  16.689  31.359   8.099
  107POPC   C4A 6210  16.698  31.445   7.670
  107POPC   C1B 6211  16.964  31.550   8.745
  107POPC   C2B 6212  17.119  31.489   8.367
  107POPC   C3B 6213  17.079  31.686   7.966
  107POPC   C4B 6214  17.255  31.507   7.642
  108POPC   NC3 6215  26.994  41.335   9.477
  108POPC   PO4 6216  26.940  40.610   9.413
  108POPC   GL1 6217  26.841  40.952   9.144
  108POPC   GL2 6218  27.148  40.958   8.952
  108POPC   C1A 6219  26.680  40.956   8.734
  108POPC   D2A 6220  26.856  40.887   8.323
  108POPC   C3A 6221  26.670  40.568   8.007
  108POPC   C4A 6222  26.578  40.936   7.796
  108POPC   C1B 6223  26.996  40.545   8.754
  108POPC   C2B 6224  27.045  40.428   8.333
  108POPC   C3B 6225  27.142  40.683   7.933
  108POPC   C4B 6226  27.034  40.515   7.540
  109POPC   NC3 6227  31.566  13.998   9.567
  109POPC   PO4 6228  31.012  13.609   9.366
  109POPC   GL1 6229  31.436  13.754   9.131
  109POPC   GL2 6230  31.810  13.955   9.137
  109POPC   C1A 6231  31.496  13.506   8.759
  109POPC   D2A 6232  31.256  13.291   8.435
  109POPC   C3A 6233  31.390  13.428   8.035
  109POPC   C4A 6234  31.624  13.541   7.683
  109POPC   C1B 6235  31.622  14.031   8.743
  109POPC   C2B 6236  31.443  13.930   8.342
  109POPC   C3B 6237  31.639  13.996   7.926
  109POPC   C4B 6238  31.594  13.989   7.418
  110POPC   NC3 6239  44.785   1.013   9.481
  110POPC   PO4 6240  44.213   1.373   9.465
  110POPC   GL1 6241  44.445   1.464   9.065
  110POPC   GL2 6242  44.764   1.273   9.055
  110POPC   C1A 6243  44.616   1.451   8.623
  110POPC   D2A 6244  44.877   1.187   8.393
  110POPC   C3A 6245  44.741   1.184   8.012
  110POPC   C4A 6246  44.563   1.545   7.826
  110POPC   C1B 6247  44.732   0.905   8.793
  110POPC   C2B 6248  44.946   0.675   8.446
  110POPC   C3B 6249   0.053   0.769   8.023
  110POPC   C4B 6250  44.940   0.821   7.591
  111POPC   NC3 6251   7.166  41.335   9.480
  111POPC   PO4 6252   7.536  41.833   9.453
  111POPC   GL1 6253   7.504  41.558   9.109
  111POPC   GL2 6254   7.592  41.216   9.211
  111POPC   C1A 6255   7.513  41.653   8.670
  111POPC   D2A 6256   7.496  42.004   8.351
  111POPC   C3A 6257   7.594  41.887   7.925
  111POPC   C4A 6258   7.456  41.692   7.532
  111POPC   C1B 6259   7.381  41.128   8.835
  111POPC   C2B 6260   7.423  41.159   8.397
  111POPC   C3B 6261   7.447  41.358   7.968
  111POPC   C4B 6262   7.678  41.239   7.557
  112POPC   NC3 6263   4.978   4.532   9.601
  112POPC   PO4 6264   5.048   3.914   9.435
  112POPC   GL1 6265   5.152   4.242   9.164
  112POPC   GL2 6266   4.814   4.256   9.165
  112POPC   C1A 6267   5.020   4.316   8.722
  112POPC   D2A 6268   4.982   4.427   8.319
  112POPC   C3A 6269   5.244   4.223   8.072
  112POPC   C4A 6270   5.116   4.183   7.679
  112POPC   C1B 6271   4.569   4.023   8.870
  112POPC   C2B 6272   4.585   4.076   8.421
  112POPC   C3B 6273   4.784   3.899   8.052
  112POPC   C4B 6274   4.699   3.928   7.589
  113POPC   NC3 6275   9.013  37.061   9.529
  113POPC   PO4 6276   9.077  36.407   9.545
  113POPC   GL1 6277   9.102  36.692   9.151
  113POPC   GL2 6278   8.816  36.906   9.083
  113POPC   C1A 6279   9.287  36.748   8.696
  113POPC   D2A 6280   9.385  36.669   8.214
  113POPC   C3A 6281   9.090  36.899   7.909
  113POPC   C4A 6282   8.715  37.139   7.741
  113POPC   C1B 6283   8.693  36.906   8.671
  113POPC   C2B 6284   8.656  36.966   8.242
  113POPC   C3B 6285   8.601  36.643   7.964
  113POPC   C4B 6286   8.778  36.626   7.611
  114POPC   NC3 6287  21.664  12.356   9.430
  114POPC   PO4 6288  22.284  12.312   9.384
  114POPC   GL1 6289  21.980  12.095   9.105
  114POPC   GL2 6290  21.897  11.715   9.132
  114POPC   C1A 6291  22.158  11.902   8.749
  114POPC   D2A 6292  22.393  11.963   8.421
  114POPC   C3A 6293  22.160  11.951   8.041
  114POPC   C4A 6294  22.096  12.096   7.642
  114POPC   C1B 6295  21.853  11.484   8.737
  114POPC   C2B 6296  21.928  11.560   8.274
  114POPC   C3B 6297  21.915  11.598   7.757
  114POPC   C4B 6298  21.808  11.530   7.284
  115POPC   NC3 6299   8.846   4.496   9.565
  115POPC   PO4 6300   9.142   3.873   9.502
  115POPC   GL1 6301   8.993   4.186   9.192
  115POPC   GL2 6302   9.308   4.334   9.085
  115POPC   C1A 6303   8.868   4.401   8.806
  115POPC   D2A 6304   8.990   4.354   8.371
  115POPC   C3A 6305   8.652   4.284   8.068
  115POPC   C4A 6306   8.812   4.395   7.706
  115POPC   C1B 6307   9.317   4.617   8.716
  115POPC   C2B 6308   9.426   4.609   8.301
  115POPC   C3B 6309   9.223   4.634   7.940
  115POPC   C4B 6310   9.040   4.954   7.732
  116POPC   NC3 6311  32.844  38.760   9.362
  116POPC   PO4 6312  33.289  39.138   9.680
  116POPC   GL1 6313  33.272  39.381   9.296
  116POPC   GL2 6314  33.095  39.126   9.100
  116POPC   C1A 6315  33.197  39.600   8.888
  116POPC   D2A 6316  33.150  39.523   8.427
  116POPC   C3A 6317  33.224  39.649   7.986
  116POPC   C4A 6318  33.151  39.441   7.596
  116POPC   C1B 6319  32.816  39.232   8.766
  116POPC   C2B 6320  32.684  39.289   8.364
  116POPC   C3B 6321  32.841  39.273   7.968
  116POPC   C4B 6322  32.841  39.051   7.581
  117POPC   NC3 6323  32.217  31.647   9.477
  117POPC   PO4 6324  31.731  32.057   9.319
  117POPC   GL1 6325  32.051  31.848   9.025
  117POPC   GL2 6326  32.178  31.462   9.027
  117POPC   C1A 6327  32.180  31.790   8.600
  117POPC   D2A 6328  32.342  31.570   8.221
  117POPC   C3A 6329  32.290  31.735   7.800
  117POPC   C4A 6330  32.480  31.632   7.386
  117POPC   C1B 6331  32.458  31.328   8.678
  117POPC   C2B 6332  32.613  31.137   8.259
  117POPC   C3B 6333  32.579  31.277   7.798
  117POPC   C4B 6334  32.607  31.143   7.322
  118POPC   NC3 6335  42.015   5.818   9.520
  118POPC   PO4 6336  42.749   5.796   9.430
  118POPC   GL1 6337  42.372   5.899   9.162
  118POPC   GL2 6338  42.034   5.725   9.015
  118POPC   C1A 6339  42.438   6.074   8.784
  118POPC   D2A 6340  42.564   5.900   8.392
  118POPC   C3A 6341  42.430   5.996   7.973
  118POPC   C4A 6342  42.617   5.784   7.639
  118POPC   C1B 6343  42.161   5.649   8.618
  118POPC   C2B 6344  42.066   5.697   8.203
  118POPC   C3B 6345  42.143   5.601   7.769
  118POPC   C4B 6346  42.217   5.705   7.340
  119POPC   NC3 6347  29.013  19.537   9.475
  119POPC   PO4 6348  29.240  20.187   9.383
  119POPC   GL1 6349  28.995  19.885   9.124
  119POPC   GL2 6350  29.280  19.657   9.065
  119POPC   C1A 6351  28.889  19.723   8.709
  119POPC   D2A 6352  28.860  20.173   8.545
  119POPC   C3A 6353  28.836  20.219   8.121
  119POPC   C4A 6354  29.096  19.951   7.899
  119POPC   C1B 6355  29.323  19.971   8.753
  119POPC   C2B 6356  29.264  19.825   8.365
  119POPC   C3B 6357  29.507  19.634   8.095
  119POPC   C4B 6358  29.503  19.722   7.663
  120POPC   NC3 6359   6.033   0.244   9.615
  120POPC   PO4 6360   5.416  44.988   9.411
  120POPC   GL1 6361   5.801   0.108   9.149
  120POPC   GL2 6362   6.067   0.397   9.136
  120POPC   C1A 6363   5.759   0.262   8.746
  120POPC   D2A 6364   5.689   0.097   8.355
  120POPC   C3A 6365   5.497   0.357   8.001
  120POPC   C4A 6366   5.512   0.618   7.628
  120POPC   C1B 6367   6.257   0.160   8.766
  120POPC   C2B 6368   6.213   0.194   8.319
  120POPC   C3B 6369   6.013   0.253   7.910
  120POPC   C4B 6370   6.215   0.172   7.509
  121POPC   NC3 6371  20.028   2.837   9.582
  121POPC   PO4 6372  19.459   2.990   9.483
  121POPC   GL1 6373  19.695   2.709   9.181
  121POPC   GL2 6374  20.027   2.748   9.070
  121POPC   C1A 6375  19.532   2.509   8.867
  121POPC   D2A 6376  19.467   2.700   8.521
  121POPC   C3A 6377  19.667   2.530   8.195
  121POPC   C4A 6378  19.846   2.747   7.832
  121POPC   C1B 6379  19.964   2.659   8.661
  121POPC   C2B 6380  20.020   2.885   8.314
  121POPC   C3B 6381  20.319   2.810   8.015
  121POPC   C4B 6382  20.263   3.101   7.757
  122POPC   NC3 6383  35.096   2.368   9.365
  122POPC   PO4 6384  34.672   1.856   9.464
  122POPC   GL1 6385  34.469   1.869   9.070
  122POPC   GL2 6386  34.198   1.680   9.056
  122POPC   C1A 6387  34.550   2.031   8.663
  122POPC   D2A 6388  34.702   1.810   8.313
  122POPC   C3A 6389  34.717   1.990   7.922
  122POPC   C4A 6390  34.953   1.974   7.525
  122POPC   C1B 6391  34.284   1.602   8.641
  122POPC   C2B 6392  34.196   1.833   8.277
  122POPC   C3B 6393  34.178   1.733   7.847
  122POPC   C4B 6394  34.504   1.744   7.534
  123POPC   NC3 6395  19.158  23.004   9.472
  123POPC   PO4 6396  18.530  23.254   9.451
  123POPC   GL1 6397  18.814  23.053   9.129
  123POPC   GL2 6398  18.744  23.324   8.951
  123POPC   C1A 6399  19.088  22.993   8.735
  123POPC   D2A 6400  19.199  23.041   8.292
  123POPC   C3A 6401  19.227  22.782   7.936
  123POPC   C4A 6402  19.131  22.857   7.503
  123POPC   C1B 6403  18.569  22.961   8.705
  123POPC   C2B 6404  18.706  22.961   8.318
  123POPC   C3B 6405  18.712  22.763   7.974
  123POPC   C4B 6406  18.637  22.939   7.591
  124POPC   NC3 6407  30.376  15.708   9.517
  124POPC   PO4 6408  31.027  15.939   9.521
  124POPC   GL1 6409  30.762  15.820   9.197
  124POPC   GL2 6410  30.483  16.037   9.106
  124POPC   C1A 6411  30.783  15.748   8.772
  124POPC   D2A 6412  30.663  16.004   8.457
  124POPC   C3A 6413  30.564  15.896   8.048
  124POPC   C4A 6414  30.402  16.075   7.664
  124POPC   C1B 6415  30.807  16.272   8.878
  124POPC   C2B 6416  31.049  16.358   8.509
  124POPC   C3B 6417  30.891  16.304   8.114
  124POPC   C4B 6418  30.917  16.106   7.727
  125POPC   NC3 6419  27.041  39.173   9.611
  125POPC   PO4 6420  26.399  38.978   9.476
  125POPC   GL1 6421  26.743  39.186   9.194
  125POPC   GL2 6422  27.118  39.368   9.160
  125POPC   C1A 6423  26.871  39.069   8.800
  125POPC   D2A 6424  26.701  39.282   8.451
  125POPC   C3A 6425  26.858  39.113   8.091
  125POPC   C4A 6426  27.106  39.181   7.748
  125POPC   C1B 6427  26.946  39.579   8.835
  125POPC   C2B 6428  27.005  39.711   8.440
  125POPC   C3B 6429  27.148  39.587   8.064
  125POPC   C4B 6430  26.909  39.667   7.713
  126POPC   NC3 6431  35.164  36.332   9.562
  126POPC   PO4 6432  35.649  35.919   9.459
  126POPC   GL1 6433  35.318  35.926   9.095
  126POPC   GL2 6434  35.090  36.202   9.092
  126POPC   C1A 6435  35.098  35.934   8.676
  126POPC   D2A 6436  35.223  36.096   8.282
  126POPC   C3A 6437  35.254  35.886   7.878
  126POPC   C4A 6438  35.388  35.912   7.415
  126POPC   C1B 6439  35.136  36.436   8.711
  126POPC   C2B 6440  34.890  36.476   8.328
  126POPC   C3B 6441  35.114  36.443   7.893
  126POPC   C4B 6442  34.994  36.220   7.516
  127POPC   NC3 6443  34.258   6.166   9.590
  127POPC   PO4 6444  33.624   5.882   9.501
  127POPC   GL1 6445  33.854   5.912   9.142
  127POPC   GL2 6446  33.708   6.168   8.972
  127POPC   C1A 6447  33.676   5.667   8.820
  127POPC   D2A 6448  33.537   5.793   8.425
  127POPC   C3A 6449  33.818   5.826   8.100
  127POPC   C4A 6450  33.698   6.096   7.773
  127POPC   C1B 6451  33.959   6.052   8.611
  127POPC   C2B 6452  34.043   6.278   8.224
  127POPC   C3B 6453  34.188   6.092   7.836
  127POPC   C4B 6454  34.262   5.671   7.825
  128POPC   NC3 6455  40.540  23.955   9.727
  128POPC   PO4 6456  41.137  23.773   9.402
  128POPC   GL1 6457  40.950  23.541   9.101
  128POPC   GL2 6458  40.576  23.505   9.167
  128POPC   C1A 6459  40.961  23.684   8.669
  128POPC   D2A 6460  41.034  23.431   8.326
  128POPC   C3A 6461  40.867  23.574   7.942
  128POPC   C4A 6462  40.629  23.910   7.799
  128POPC   C1B 6463  40.447  23.627   8.743
  128POPC   C2B 6464  40.527  23.702   8.299
  128POPC   C3B 6465  40.361  23.474   7.918
  128POPC   C4B 6466  40.377  23.510   7.446
  129POPC   NC3 6467  16.496  37.546   9.517
  129POPC   PO4 6468  17.021  38.050   9.405
  129POPC   GL1 6469  16.725  37.833   9.173
  129POPC   GL2 6470  16.971  37.550   9.131
  129POPC   C1A 6471  16.589  37.624   8.793
  129POPC   D2A 6472  16.815  37.582   8.402
  129POPC   C3A 6473  16.609  37.650   8.012
  129POPC   C4A 6474  16.465  37.695   7.614
  129POPC   C1B 6475  17.052  37.841   8.783
  129POPC   C2B 6476  17.054  38.029   8.386
  129POPC   C3B 6477  17.089  37.821   7.990
  129POPC   C4B 6478  16.993  37.760   7.563
  130POPC   NC3 6479  33.051  15.215   9.649
  130POPC   PO4 6480  32.985  14.537   9.689
  130POPC   GL1 6481  32.932  14.897   9.283
  130POPC   GL2 6482  32.808  15.276   9.217
  130POPC   C1A 6483  33.196  15.055   8.911
  130POPC   D2A 6484  33.073  15.071   8.459
  130POPC   C3A 6485  33.264  15.118   8.052
  130POPC   C4A 6486  33.062  15.087   7.623
  130POPC   C1B 6487  32.889  15.445   8.805
  130POPC   C2B 6488  32.856  15.525   8.354
  130POPC   C3B 6489  32.924  15.490   7.911
  130POPC   C4B 6490  32.754  15.500   7.488
  131POPC   NC3 6491  32.092   5.769   9.881
  131POPC   PO4 6492  32.632   5.990   9.557
  131POPC   GL1 6493  32.394   5.777   9.237
  131POPC   GL2 6494  32.557   5.504   9.068
  131POPC   C1A 6495  32.268   5.829   8.774
  131POPC   D2A 6496  32.486   5.955   8.370
  131POPC   C3A 6497  32.360   5.872   7.935
  131POPC   C4A 6498  32.210   6.162   7.635
  131POPC   C1B 6499  32.629   5.514   8.602
  131POPC   C2B 6500  32.310   5.475   8.267
  131POPC   C3B 6501  32.279   5.362   7.818
  131POPC   C4B 6502  32.274   5.636   7.466
  132POPC   NC3 6503  21.162   7.317   9.564
  132POPC   PO4 6504  20.616   7.681   9.413
  132POPC   GL1 6505  20.672   7.253   9.231
  132POPC   GL2 6506  20.983   7.287   9.086
  132POPC   C1A 6507  20.564   7.232   8.780
  132POPC   D2A 6508  20.413   7.508   8.434
  132POPC   C3A 6509  20.616   7.393   8.025
  132POPC   C4A 6510  20.433   7.248   7.624
  132POPC   C1B 6511  20.871   7.660   8.776
  132POPC   C2B 6512  20.799   7.879   8.350
  132POPC   C3B 6513  20.982   7.746   7.929
  132POPC   C4B 6514  20.922   7.412   7.579
  133POPC   NC3 6515   0.915  16.294   9.585
  133POPC   PO4 6516   1.142  15.707   9.302
  133POPC   GL1 6517   0.996  15.897   8.971
  133POPC   GL2 6518   1.087  16.191   9.122
  133POPC   C1A 6519   1.187  15.789   8.595
  133POPC   D2A 6520   1.543  16.000   8.413
  133POPC   C3A 6521   1.451  16.072   8.021
  133POPC   C4A 6522   1.485  15.686   7.796
  133POPC   C1B 6523   1.283  16.292   8.760
  133POPC   C2B 6524   1.045  16.244   8.395
  133POPC   C3B 6525   0.800  16.123   8.064
  133POPC   C4B 6526   1.028  15.961   7.767
  134POPC   NC3 6527   7.050  29.282   9.478
  134POPC   PO4 6528   6.385  29.208   9.701
  134POPC   GL1 6529   6.542  29.169   9.256
  134POPC   GL2 6530   6.849  29.305   9.030
  134POPC   C1A 6531   6.421  29.132   8.840
  134POPC   D2A 6532   6.669  29.291   8.487
  134POPC   C3A 6533   6.510  29.230   8.067
  134POPC   C4A 6534   6.349  29.229   7.646
  134POPC   C1B 6535   6.896  28.895   8.834
  134POPC   C2B 6536   6.984  28.866   8.404
  134POPC   C3B 6537   7.034  29.173   8.072
  134POPC   C4B 6538   6.859  29.196   7.684
  135POPC   NC3 6539  39.857  16.975   9.614
  135POPC   PO4 6540  40.475  16.704   9.585
  135POPC   GL1 6541  40.150  16.777   9.246
  135POPC   GL2 6542  39.863  16.529   9.260
  135POPC   C1A 6543  40.091  16.925   8.817
  135POPC   D2A 6544  40.300  16.831   8.427
  135POPC   C3A 6545  40.273  16.580   8.083
  135POPC   C4A 6546  40.066  16.613   7.673
  135POPC   C1B 6547  39.705  16.588   8.802
  135POPC   C2B 6548  39.826  16.541   8.345
  135POPC   C3B 6549  39.626  16.560   7.914
  135POPC   C4B 6550  39.576  16.399   7.462
  136POPC   NC3 6551   2.685   4.446  10.040
  136POPC   PO4 6552   2.390   4.009   9.579
  136POPC   GL1 6553   2.587   4.116   9.183
  136POPC   GL2 6554   2.871   4.321   9.267
  136POPC   C1A 6555   2.666   4.282   8.767
  136POPC   D2A 6556   2.694   4.114   8.351
  136POPC   C3A 6557   2.666   4.332   7.963
  136POPC   C4A 6558   2.674   3.991   7.689
  136POPC   C1B 6559   3.068   4.572   8.918
  136POPC   C2B 6560   3.055   4.476   8.455
  136POPC   C3B 6561   3.181   4.645   8.051
  136POPC   C4B 6562   3.119   4.736   7.608
  137POPC   NC3 6563  25.237   6.166   9.643
  137POPC   PO4 6564  25.534   5.619   9.547
  137POPC   GL1 6565  25.428   5.953   9.201
  137POPC   GL2 6566  25.077   6.031   9.176
  137POPC   C1A 6567  25.370   6.089   8.737
  137POPC   D2A 6568  25.416   6.298   8.306
  137POPC   C3A 6569  25.286   6.035   7.927
  137POPC   C4A 6570  25.275   5.780   7.520
  137POPC   C1B 6571  24.856   6.103   8.784
  137POPC   C2B 6572  24.918   5.913   8.362
  137POPC   C3B 6573  24.748   6.049   7.963
  137POPC   C4B 6574  24.760   5.840   7.573
  138POPC   NC3 6575  12.575  11.482   9.439
  138POPC   PO4 6576  13.180  11.279   9.498
  138POPC   GL1 6577  12.955  11.270   9.140
  138POPC   GL2 6578  12.748  10.972   9.254
  138POPC   C1A 6579  13.029  11.372   8.695
  138POPC   D2A 6580  12.946  11.562   8.306
  138POPC   C3A 6581  12.955  11.367   7.881
  138POPC   C4A 6582  13.081  11.485   7.458
  138POPC   C1B 6583  12.748  10.955   8.793
  138POPC   C2B 6584  12.655  11.135   8.374
  138POPC   C3B 6585  12.566  11.069   7.939
  138POPC   C4B 6586  12.596  11.244   7.498
  139POPC   NC3 6587  42.441   4.920   9.410
  139POPC   PO4 6588  42.016   5.350   9.622
  139POPC   GL1 6589  42.298   5.368   9.240
  139POPC   GL2 6590  42.676   5.333   9.237
  139POPC   C1A 6591  42.288   5.177   8.817
  139POPC   D2A 6592  42.099   5.187   8.390
  139POPC   C3A 6593  42.264   5.021   8.018
  139POPC   C4A 6594  41.982   5.034   7.667
  139POPC   C1B 6595  42.613   5.558   8.840
  139POPC   C2B 6596  42.580   5.376   8.441
  139POPC   C3B 6597  42.547   5.486   8.057
  139POPC   C4B 6598  42.553   5.283   7.662
  140POPC   NC3 6599  38.154   7.132   9.471
  140POPC   PO4 6600  37.650   7.608   9.583
  140POPC   GL1 6601  37.678   7.475   9.175
  140POPC   GL2 6602  37.631   7.812   9.073
  140POPC   C1A 6603  37.551   7.440   8.743
  140POPC   D2A 6604  37.571   7.703   8.385
  140POPC   C3A 6605  37.473   7.486   8.004
  140POPC   C4A 6606  37.575   7.157   7.740
  140POPC   C1B 6607  37.966   7.767   8.789
  140POPC   C2B 6608  38.067   7.537   8.412
  140POPC   C3B 6609  37.953   7.666   8.001
  140POPC   C4B 6610  37.723   7.710   7.611
  141POPC   NC3 6611  41.250  29.686   9.343
  141POPC   PO4 6612  41.726  30.026   9.647
  141POPC   GL1 6613  41.695  29.927   9.175
  141POPC   GL2 6614  41.751  29.566   9.160
  141POPC   C1A 6615  41.589  30.108   8.716
  141POPC   D2A 6616  41.628  30.041   8.238
  141POPC   C3A 6617  41.367  30.162   7.875
  141POPC   C4A 6618  41.201  30.092   7.454
  141POPC   C1B 6619  41.479  29.601   8.765
  141POPC   C2B 6620  41.251  29.526   8.405
  141POPC   C3B 6621  41.361  29.655   8.043
  141POPC   C4B 6622  41.457  29.692   7.648
  142POPC   NC3 6623  40.975  16.542   9.683
  142POPC   PO4 6624  41.052  17.116   9.401
  142POPC   GL1 6625  40.854  16.733   9.212
  142POPC   GL2 6626  41.038  16.357   9.228
  142POPC   C1A 6627  40.647  16.828   8.823
  142POPC   D2A 6628  40.706  17.152   8.484
  142POPC   C3A 6629  40.672  16.927   8.101
  142POPC   C4A 6630  40.469  16.886   7.730
  142POPC   C1B 6631  40.807  16.335   8.873
  142POPC   C2B 6632  40.648  16.427   8.487
  142POPC   C3B 6633  40.786  16.393   8.111
  142POPC   C4B 6634  40.893  16.580   7.757
  143POPC   NC3 6635   1.504  21.892   9.314
  143POPC   PO4 6636   0.912  21.910   9.685
  143POPC   GL1 6637   0.975  22.037   9.250
  143POPC   GL2 6638   0.930  21.756   9.022
  143POPC   C1A 6639   1.023  22.243   8.832
  143POPC   D2A 6640   1.299  22.453   8.486
  143POPC   C3A 6641   1.232  22.206   8.094
  143POPC   C4A 6642   1.344  22.111   7.665
  143POPC   C1B 6643   1.032  21.737   8.580
  143POPC   C2B 6644   0.812  21.906   8.227
  143POPC   C3B 6645   0.860  21.982   7.803
  143POPC   C4B 6646   0.928  22.090   7.379
  144POPC   NC3 6647  14.204  30.110   9.471
  144POPC   PO4 6648  14.708  30.381   9.767
  144POPC   GL1 6649  14.681  30.061   9.283
  144POPC   GL2 6650  14.394  29.835   9.098
  144POPC   C1A 6651  14.687  30.096   8.800
  144POPC   D2A 6652  14.501  29.783   8.541
  144POPC   C3A 6653  14.485  29.810   8.120
  144POPC   C4A 6654  14.695  29.874   7.769
  144POPC   C1B 6655  14.111  29.984   8.784
  144POPC   C2B 6656  14.100  30.110   8.362
  144POPC   C3B 6657  13.991  29.876   8.006
  144POPC   C4B 6658  14.137  29.448   7.925
  145POPC   NC3 6659  43.687   6.371   9.554
  145POPC   PO4 6660  44.353   6.491   9.325
  145POPC   GL1 6661  43.958   6.540   9.126
  145POPC   GL2 6662  43.599   6.645   9.130
  145POPC   C1A 6663  43.810   6.473   8.724
  145POPC   D2A 6664  43.618   6.484   8.353
  145POPC   C3A 6665  43.874   6.760   8.155
  145POPC   C4A 6666  43.852   6.543   7.777
  145POPC   C1B 6667  43.327   6.700   8.766
  145POPC   C2B 6668  43.339   6.918   8.375
  145POPC   C3B 6669  43.412   6.800   7.962
  145POPC   C4B 6670  43.668   7.040   7.733
  146POPC   NC3 6671  40.199  33.949   9.585
  146POPC   PO4 6672  39.971  33.315   9.484
  146POPC   GL1 6673  40.183  33.582   9.186
  146POPC   GL2 6674  39.971  33.878   9.136
  146POPC   C1A 6675  40.069  33.597   8.735
  146POPC   D2A 6676  40.030  33.431   8.334
  146POPC   C3A 6677  40.023  33.713   7.973
  146POPC   C4A 6678  40.167  33.629   7.561
  146POPC   C1B 6679  40.005  34.105   8.776
  146POPC   C2B 6680  39.877  34.005   8.383
  146POPC   C3B 6681  39.874  34.220   8.003
  146POPC   C4B 6682  39.923  34.108   7.602
  147POPC   NC3 6683  10.742  42.257   9.417
  147POPC   PO4 6684  10.001  42.438   9.490
  147POPC   GL1 6685  10.287  42.291   9.176
  147POPC   GL2 6686  10.475  42.600   9.095
  147POPC   C1A 6687  10.507  42.181   8.781
  147POPC   D2A 6688  10.646  42.321   8.370
  147POPC   C3A 6689  10.456  42.245   7.991
  147POPC   C4A 6690  10.192  41.889   7.851
  147POPC   C1B 6691  10.763  42.662   8.762
  147POPC   C2B 6692  10.723  42.841   8.370
  147POPC   C3B 6693  10.774  42.651   7.992
  147POPC   C4B 6694  10.426  42.701   7.742
  148POPC   NC3 6695  36.786  20.075   9.558
  148POPC   PO4 6696  36.807  19.436   9.478
  148POPC   GL1 6697  37.069  19.628   9.133
  148POPC   GL2 6698  37.142  20.024   9.166
  148POPC   C1A 6699  36.944  19.636   8.686
  148POPC   D2A 6700  36.686  19.863   8.383
  148POPC   C3A 6701  36.845  19.792   7.970
  148POPC   C4A 6702  37.167  19.527   7.820
  148POPC   C1B 6703  36.975  20.128   8.748
  148POPC   C2B 6704  37.145  20.075   8.344
  148POPC   C3B 6705  37.012  20.293   7.972
  148POPC   C4B 6706  36.859  20.158   7.585
  149POPC   NC3 6707  44.546   6.142   9.543
  149POPC   PO4 6708  44.635   5.415   9.549
  149POPC   GL1 6709  44.624   5.749   9.218
  149POPC   GL2 6710  44.887   6.043   9.196
  149POPC   C1A 6711  44.500   5.748   8.806
  149POPC   D2A 6712  44.531   5.591   8.396
  149POPC   C3A 6713  44.402   5.825   8.086
  149POPC   C4A 6714  44.586   5.873   7.710
  149POPC   C1B 6715  44.950   5.994   8.789
  149POPC   C2B 6716  44.721   6.062   8.445
  149POPC   C3B 6717  44.766   6.201   8.064
  149POPC   C4B 6718  44.728   6.338   7.652
  150POPC   NC3 6719  23.055   8.899   9.555
  150POPC   PO4 6720  22.536   9.019   9.186
  150POPC   GL1 6721  22.881   9.178   9.136
  150POPC   GL2 6722  23.033   8.862   9.045
  150POPC   C1A 6723  22.930   9.323   8.734
  150POPC   D2A 6724  22.979   9.126   8.331
  150POPC   C3A 6725  22.831   9.313   7.952
  150POPC   C4A 6726  23.177   9.220   7.720
  150POPC   C1B 6727  23.028   8.551   8.683
  150POPC   C2B 6728  23.174   8.625   8.244
  150POPC   C3B 6729  22.977   8.736   7.819
  150POPC   C4B 6730  22.814   8.550   7.406
  151POPC   NC3 6731  17.768  32.497   9.566
  151POPC   PO4 6732  17.366  31.983   9.423
  151POPC   GL1 6733  17.560  32.236   9.166
  151POPC   GL2 6734  17.332  32.470   9.180
  151POPC   C1A 6735  17.729  32.198   8.784
  151POPC   D2A 6736  17.911  32.356   8.431
  151POPC   C3A 6737  17.747  32.238   8.081
  151POPC   C4A 6738  17.828  32.238   7.683
  151POPC   C1B 6739  17.361  32.574   8.786
  151POPC   C2B 6740  17.344  32.321   8.426
  151POPC   C3B 6741  17.232  32.211   8.007
  151POPC   C4B 6742  17.366  32.442   7.688
  152POPC   NC3 6743  24.508  42.820   9.552
  152POPC   PO4 6744  24.244  43.406   9.573
  152POPC   GL1 6745  24.368  43.200   9.191
  152POPC   GL2 6746  24.134  42.911   9.218
  152POPC   C1A 6747  24.586  43.266   8.757
  152POPC   D2A 6748  24.511  43.494   8.329
  152POPC   C3A 6749  24.631  43.237   7.955
  152POPC   C4A 6750  24.823  43.203   7.509
  152POPC   C1B 6751  24.097  43.054   8.790
  152POPC   C2B 6752  24.289  43.037   8.381
  152POPC   C3B 6753  24.193  42.969   7.952
  152POPC   C4B 6754  24.415  42.913   7.571
  153POPC   NC3 6755  15.931  20.290   9.538
  153POPC   PO4 6756  16.213  19.706   9.496
  153POPC   GL1 6757  15.993  19.908   9.174
  153POPC   GL2 6758  16.204  20.180   9.109
  153POPC   C1A 6759  15.747  19.843   8.799
  153POPC   D2A 6760  15.538  20.077   8.456
  153POPC   C3A 6761  15.607  19.920   8.066
  153POPC   C4A 6762  15.875  19.721   7.800
  153POPC   C1B 6763  16.108  20.151   8.642
  153POPC   C2B 6764  16.112  20.006   8.232
  153POPC   C3B 6765  16.236  20.076   7.813
  153POPC   C4B 6766  16.039  20.171   7.430
  154POPC   NC3 6767  26.752  43.549   9.608
  154POPC   PO4 6768  27.011  42.841   9.451
  154POPC   GL1 6769  26.923  43.095   9.114
  154POPC   GL2 6770  26.628  43.250   9.144
  154POPC   C1A 6771  26.840  43.078   8.648
  154POPC   D2A 6772  27.149  43.064   8.321
  154POPC   C3A 6773  27.067  42.968   7.907
  154POPC   C4A 6774  26.658  43.056   7.777
  154POPC   C1B 6775  26.463  43.402   8.742
  154POPC   C2B 6776  26.495  43.327   8.272
  154POPC   C3B 6777  26.468  43.537   7.866
  154POPC   C4B 6778  26.336  43.488   7.376
  155POPC   NC3 6779  24.594   3.220   9.269
  155POPC   PO4 6780  24.020   3.488   9.672
  155POPC   GL1 6781  24.276   3.588   9.182
  155POPC   GL2 6782  24.267   3.336   8.896
  155POPC   C1A 6783  24.596   3.693   8.820
  155POPC   D2A 6784  24.742   3.424   8.523
  155POPC   C3A 6785  24.497   3.478   8.164
  155POPC   C4A 6786  24.604   3.485   7.731
  155POPC   C1B 6787  24.005   3.503   8.656
  155POPC   C2B 6788  23.966   3.474   8.281
  155POPC   C3B 6789  24.064   3.166   8.005
  155POPC   C4B 6790  24.171   3.240   7.621
  156POPC   NC3 6791   7.798  25.552   9.497
  156POPC   PO4 6792   7.292  25.083   9.491
  156POPC   GL1 6793   7.458  25.250   9.153
  156POPC   GL2 6794   7.620  24.939   9.052
  156POPC   C1A 6795   7.241  25.337   8.746
  156POPC   D2A 6796   7.427  25.389   8.345
  156POPC   C3A 6797   7.242  25.122   8.066
  156POPC   C4A 6798   7.111  25.227   7.652
  156POPC   C1B 6799   7.737  25.243   8.728
  156POPC   C2B 6800   7.893  25.174   8.296
  156POPC   C3B 6801   7.688  25.284   7.883
  156POPC   C4B 6802   7.459  25.605   7.708
  157POPC   NC3 6803   0.720   8.525   9.442
  157POPC   PO4 6804   0.101   8.674   9.447
  157POPC   GL1 6805   0.399   8.863   9.090
  157POPC   GL2 6806   0.509   9.231   9.056
  157POPC   C1A 6807   0.572   8.937   8.653
  157POPC   D2A 6808   0.827   8.867   8.296
  157POPC   C3A 6809   0.555   8.908   7.964
  157POPC   C4A 6810   0.084   8.859   7.853
  157POPC   C1B 6811   0.220   9.316   8.725
  157POPC   C2B 6812   0.185   9.133   8.300
  157POPC   C3B 6813   0.284   9.311   7.881
  157POPC   C4B 6814   0.615   9.429   7.649
  158POPC   NC3 6815  23.806   5.507   9.831
  158POPC   PO4 6816  23.707   4.982   9.411
  158POPC   GL1 6817  23.566   5.116   8.994
  158POPC   GL2 6818  23.406   5.472   9.016
  158POPC   C1A 6819  23.784   5.275   8.663
  158POPC   D2A 6820  23.923   4.978   8.359
  158POPC   C3A 6821  24.052   5.037   7.943
  158POPC   C4A 6822  23.870   5.097   7.532
  158POPC   C1B 6823  23.331   5.489   8.624
  158POPC   C2B 6824  23.434   5.202   8.307
  158POPC   C3B 6825  23.586   5.300   7.910
  158POPC   C4B 6826  23.403   5.277   7.498
  159POPC   NC3 6827  42.604  39.637   9.753
  159POPC   PO4 6828  42.214  40.216   9.623
  159POPC   GL1 6829  42.376  40.149   9.187
  159POPC   GL2 6830  42.580  39.886   9.304
  159POPC   C1A 6831  42.329  40.133   8.702
  159POPC   D2A 6832  42.534  40.158   8.282
  159POPC   C3A 6833  42.283  40.224   7.886
  159POPC   C4A 6834  42.063  39.967   7.547
  159POPC   C1B 6835  42.649  39.779   8.847
  159POPC   C2B 6836  42.489  39.658   8.404
  159POPC   C3B 6837  42.287  39.719   7.969
  159POPC   C4B 6838  42.475  39.691   7.518
  160POPC   NC3 6839  25.410  37.978   9.600
  160POPC   PO4 6840  25.497  38.579   9.641
  160POPC   GL1 6841  25.339  38.544   9.232
  160POPC   GL2 6842  25.447  38.200   9.146
  160POPC   C1A 6843  25.402  38.683   8.792
  160POPC   D2A 6844  25.218  38.534   8.392
  160POPC   C3A 6845  25.279  38.715   7.992
  160POPC   C4A 6846  25.131  38.625   7.579
  160POPC   C1B 6847  25.235  38.168   8.771
  160POPC   C2B 6848  25.383  38.044   8.368
  160POPC   C3B 6849  25.310  38.202   7.989
  160POPC   C4B 6850  25.127  38.118   7.600
  161POPC   NC3 6851  41.921  33.809   9.291
  161POPC   PO4 6852  42.641  33.800   9.455
  161POPC   GL1 6853  42.478  33.703   9.064
  161POPC   GL2 6854  42.264  34.005   8.976
  161POPC   C1A 6855  42.470  33.743   8.609
  161POPC   D2A 6856  42.109  33.788   8.358
  161POPC   C3A 6857  42.249  33.708   7.975
  161POPC   C4A 6858  42.467  33.428   7.753
  161POPC   C1B 6859  41.860  34.092   8.699
  161POPC   C2B 6860  41.816  34.205   8.250
  161POPC   C3B 6861  42.026  34.149   7.847
  161POPC   C4B 6862  42.390  34.095   7.579
  162POPC   NC3 6863  20.315  33.681   9.570
  162POPC   PO4 6864  20.959  33.583   9.407
  162POPC   GL1 6865  20.755  33.962   9.211
  162POPC   GL2 6866  20.430  33.886   9.128
  162POPC   C1A 6867  20.689  34.114   8.770
  162POPC   D2A 6868  20.836  33.893   8.422
  162POPC   C3A 6869  20.704  34.019   8.027
  162POPC   C4A 6870  20.637  33.679   7.777
  162POPC   C1B 6871  20.233  33.833   8.735
  162POPC   C2B 6872  20.326  33.928   8.350
  162POPC   C3B 6873  20.211  33.915   7.932
  162POPC   C4B 6874  20.458  34.098   7.527
  163POPC   NC3 6875  41.952  22.691   9.342
  163POPC   PO4 6876  42.528  23.103   9.578
  163POPC   GL1 6877  42.276  23.046   9.263
  163POPC   GL2 6878  42.517  22.936   9.062
  163POPC   C1A 6879  42.114  23.137   8.848
  163POPC   D2A 6880  42.095  23.221   8.415
  163POPC   C3A 6881  42.219  22.813   8.195
  163POPC   C4A 6882  42.204  22.750   7.744
  163POPC   C1B 6883  42.513  22.880   8.630
  163POPC   C2B 6884  42.594  23.167   8.320
  163POPC   C3B 6885  42.783  23.289   7.957
  163POPC   C4B 6886  42.753  23.072   7.627
  164POPC   NC3 6887  11.074   8.819   9.575
  164POPC   PO4 6888  11.561   9.239   9.500
  164POPC   GL1 6889  11.507   9.034   9.130
  164POPC   GL2 6890  11.387   8.699   9.191
  164POPC   C1A 6891  11.600   9.062   8.692
  164POPC   D2A 6892  11.711   9.292   8.333
  164POPC   C3A 6893  11.508   9.013   8.049
  164POPC   C4A 6894  11.387   8.888   7.637
  164POPC   C1B 6895  11.135   8.861   8.838
  164POPC   C2B 6896  11.215   8.818   8.422
  164POPC   C3B 6897  11.036   8.770   8.034
  164POPC   C4B 6898  10.909   8.672   7.648
  165POPC   NC3 6899  28.022  35.222   9.475
  165POPC   PO4 6900  28.543  35.589   9.489
  165POPC   GL1 6901  28.331  35.500   9.150
  165POPC   GL2 6902  28.489  35.186   9.048
  165POPC   C1A 6903  28.403  35.571   8.718
  165POPC   D2A 6904  28.710  35.672   8.407
  165POPC   C3A 6905  28.577  35.449   8.052
  165POPC   C4A 6906  28.413  35.431   7.629
  165POPC   C1B 6907  28.108  35.136   8.827
  165POPC   C2B 6908  27.951  35.180   8.408
  165POPC   C3B 6909  28.133  35.159   8.017
  165POPC   C4B 6910  28.305  34.926   7.707
  166POPC   NC3 6911   6.656  32.641   9.558
  166POPC   PO4 6912   6.942  31.946   9.526
  166POPC   GL1 6913   6.937  32.134   9.123
  166POPC   GL2 6914   6.893  32.489   9.142
  166POPC   C1A 6915   6.767  32.178   8.732
  166POPC   D2A 6916   6.473  31.991   8.473
  166POPC   C3A 6917   6.603  32.159   8.094
  166POPC   C4A 6918   6.460  32.034   7.709
  166POPC   C1B 6919   7.024  32.662   8.798
  166POPC   C2B 6920   7.003  32.539   8.389
  166POPC   C3B 6921   6.795  32.706   8.047
  166POPC   C4B 6922   6.744  32.468   7.692
  167POPC   NC3 6923  16.854  42.940   9.543
  167POPC   PO4 6924  16.567  43.484   9.682
  167POPC   GL1 6925  16.629  43.311   9.227
  167POPC   GL2 6926  16.920  43.137   9.046
  167POPC   C1A 6927  16.473  43.024   8.862
  167POPC   D2A 6928  16.350  42.981   8.413
  167POPC   C3A 6929  16.619  42.979   8.039
  167POPC   C4A 6930  16.536  42.879   7.616
  167POPC   C1B 6931  17.181  43.235   8.677
  167POPC   C2B 6932  17.187  43.130   8.231
  167POPC   C3B 6933  17.061  43.375   7.942
  167POPC   C4B 6934  16.888  43.248   7.616
  168POPC   NC3 6935  12.605  44.935   9.227
  168POPC   PO4 6936  12.058  44.752   9.604
  168POPC   GL1 6937  12.146  44.634   9.163
  168POPC   GL2 6938  12.167  44.313   9.047
  168POPC   C1A 6939  11.982  44.645   8.719
  168POPC   D2A 6940  12.128  44.930   8.402
  168POPC   C3A 6941  12.235  44.896   7.964
  168POPC   C4A 6942  12.335  44.590   7.637
  168POPC   C1B 6943  11.817  44.147   8.766
  168POPC   C2B 6944  11.860  44.176   8.358
  168POPC   C3B 6945  11.991  44.458   8.057
  168POPC   C4B 6946  11.826  44.499   7.649
  169POPC   NC3 6947  41.568  11.713   9.488
  169POPC   PO4 6948  41.260  12.357   9.392
  169POPC   GL1 6949  41.527  12.245   9.028
  169POPC   GL2 6950  41.574  11.853   8.993
  169POPC   C1A 6951  41.430  12.186   8.574
  169POPC   D2A 6952  41.492  11.805   8.313
  169POPC   C3A 6953  41.347  11.885   7.876
  169POPC   C4A 6954  41.395  12.261   7.666
  169POPC   C1B 6955  41.852  11.952   8.672
  169POPC   C2B 6956  41.903  12.219   8.325
  169POPC   C3B 6957  41.844  12.265   7.916
  169POPC   C4B 6958  41.833  11.889   7.688
  170POPC   NC3 6959  12.911  32.554   9.344
  170POPC   PO4 6960  13.310  32.012   9.577
  170POPC   GL1 6961  13.061  32.056   9.226
  170POPC   GL2 6962  12.767  31.909   9.391
  170POPC   C1A 6963  13.057  32.227   8.780
  170POPC   D2A 6964  13.155  32.003   8.380
  170POPC   C3A 6965  13.075  32.198   7.950
  170POPC   C4A 6966  12.808  32.556   7.765
  170POPC   C1B 6967  12.614  32.064   8.999
  170POPC   C2B 6968  12.586  32.346   8.624
  170POPC   C3B 6969  12.619  32.269   8.166
  170POPC   C4B 6970  12.580  32.108   7.721
  171POPC   NC3 6971  28.377  19.391   9.546
  171POPC   PO4 6972  27.971  18.732   9.536
  171POPC   GL1 6973  28.256  18.971   9.258
  171POPC   GL2 6974  28.081  19.281   9.138
  171POPC   C1A 6975  28.494  19.028   8.874
  171POPC   D2A 6976  28.378  18.970   8.443
  171POPC   C3A 6977  28.629  18.885   8.095
  171POPC   C4A 6978  28.447  18.679   7.757
  171POPC   C1B 6979  28.247  19.436   8.720
  171POPC   C2B 6980  28.515  19.472   8.376
  171POPC   C3B 6981  28.380  19.312   7.983
  171POPC   C4B 6982  28.186  19.406   7.606
  172POPC   NC3 6983  31.848   9.140   9.348
  172POPC   PO4 6984  32.388   8.672   9.448
  172POPC   GL1 6985  32.273   8.878   9.078
  172POPC   GL2 6986  32.007   8.643   9.058
  172POPC   C1A 6987  32.393   9.125   8.671
  172POPC   D2A 6988  32.551   9.334   8.272
  172POPC   C3A 6989  32.320   9.178   7.930
  172POPC   C4A 6990  31.915   8.998   7.868
  172POPC   C1B 6991  31.980   8.813   8.661
  172POPC   C2B 6992  32.175   8.830   8.279
  172POPC   C3B 6993  32.315   8.654   7.897
  172POPC   C4B 6994  32.669   8.636   7.665
  173POPC   NC3 6995   2.932  26.494   9.597
  173POPC   PO4 6996   2.502  25.842   9.606
  173POPC   GL1 6997   2.772  26.041   9.329
  173POPC   GL2 6998   2.646  26.329   9.174
  173POPC   C1A 6999   2.866  25.962   8.918
  173POPC   D2A 7000   2.918  25.974   8.499
  173POPC   C3A 7001   2.574  25.836   8.240
  173POPC   C4A 7002   2.580  25.737   7.808
  173POPC   C1B 7003   2.749  26.434   8.734
  173POPC   C2B 7004   2.846  26.429   8.289
  173POPC   C3B 7005   2.725  26.239   7.904
  173POPC   C4B 7006   2.462  26.410   7.553
  174POPC   NC3 7007  28.625  29.143   9.367
  174POPC   PO4 7008  29.279  29.109   9.569
  174POPC   GL1 7009  29.111  29.142   9.171
  174POPC   GL2 7010  28.974  28.827   9.131
  174POPC   C1A 7011  29.052  29.191   8.731
  174POPC   D2A 7012  29.030  29.423   8.333
  174POPC   C3A 7013  29.195  29.170   7.966
  174POPC   C4A 7014  29.274  29.238   7.519
  174POPC   C1B 7015  28.819  28.697   8.722
  174POPC   C2B 7016  28.841  28.911   8.349
  174POPC   C3B 7017  28.862  28.777   7.968
  174POPC   C4B 7018  28.799  28.970   7.576
  175POPC   NC3 7019  14.441  20.824   9.312
  175POPC   PO4 7020  14.058  20.235   9.223
  175POPC   GL1 7021  14.375  20.143   9.000
  175POPC   GL2 7022  14.506  20.425   9.020
  175POPC   C1A 7023  14.469  20.239   8.545
  175POPC   D2A 7024  14.150  20.443   8.261
  175POPC   C3A 7025  14.367  20.554   7.926
  175POPC   C4A 7026  14.716  20.557   7.690
  175POPC   C1B 7027  14.232  20.661   8.719
  175POPC   C2B 7028  14.376  20.909   8.357
  175POPC   C3B 7029  14.618  20.995   7.990
  175POPC   C4B 7030  14.413  20.961   7.581
  176POPC   NC3 7031  37.173  14.703   9.263
  176POPC   PO4 7032  36.557  14.435   9.425
  176POPC   GL1 7033  36.806  14.377   9.058
  176POPC   GL2 7034  36.851  14.016   8.957
  176POPC   C1A 7035  36.735  14.441   8.626
  176POPC   D2A 7036  36.758  14.220   8.245
  176POPC   C3A 7037  36.744  14.471   7.864
  176POPC   C4A 7038  36.953  14.346   7.498
  176POPC   C1B 7039  37.186  14.225   8.731
  176POPC   C2B 7040  37.272  14.599   8.541
  176POPC   C3B 7041  37.185  14.606   8.125
  176POPC   C4B 7042  37.306  14.647   7.711
  177POPC   NC3 7043   2.951  21.130   9.392
  177POPC   PO4 7044   2.586  21.716   9.514
  177POPC   GL1 7045   2.656  21.460   9.176
  177POPC   GL2 7046   2.954  21.575   9.128
  177POPC   C1A 7047   2.759  21.253   8.778
  177POPC   D2A 7048   2.584  21.355   8.392
  177POPC   C3A 7049   2.813  21.182   8.063
  177POPC   C4A 7050   2.669  21.254   7.637
  177POPC   C1B 7051   3.225  21.496   8.840
  177POPC   C2B 7052   3.087  21.480   8.432
  177POPC   C3B 7053   2.933  21.670   8.060
  177POPC   C4B 7054   3.120  21.446   7.754
  178POPC   NC3 7055  11.054  27.879   9.550
  178POPC   PO4 7056  11.451  27.320   9.523
  178POPC   GL1 7057  11.456  27.570   9.127
  178POPC   GL2 7058  11.312  27.886   9.125
  178POPC   C1A 7059  11.351  27.630   8.675
  178POPC   D2A 7060  11.506  27.783   8.298
  178POPC   C3A 7061  11.444  27.525   7.950
  178POPC   C4A 7062  11.332  27.416   7.521
  178POPC   C1B 7063  11.019  27.999   8.807
  178POPC   C2B 7064  10.969  27.898   8.362
  178POPC   C3B 7065  11.165  27.947   7.975
  178POPC   C4B 7066  10.903  28.068   7.707
  179POPC   NC3 7067  31.616  37.648   9.605
  179POPC   PO4 7068  31.130  38.029   9.453
  179POPC   GL1 7069  31.469  37.886   9.165
  179POPC   GL2 7070  31.765  38.052   9.340
  179POPC   C1A 7071  31.491  37.764   8.703
  179POPC   D2A 7072  31.320  37.957   8.321
  179POPC   C3A 7073  31.381  37.760   7.923
  179POPC   C4A 7074  31.711  37.493   7.784
  179POPC   C1B 7075  31.882  38.054   8.890
  179POPC   C2B 7076  32.109  37.930   8.518
  179POPC   C3B 7077  31.843  37.826   8.155
  179POPC   C4B 7078  31.803  38.059   7.750
  180POPC   NC3 7079  30.589  31.267   9.547
  180POPC   PO4 7080  30.747  31.893   9.384
  180POPC   GL1 7081  30.657  31.561   9.127
  180POPC   GL2 7082  31.006  31.435   9.157
  180POPC   C1A 7083  30.442  31.272   8.838
  180POPC   D2A 7084  30.550  31.160   8.367
  180POPC   C3A 7085  30.569  31.513   8.042
  180POPC   C4A 7086  30.476  31.889   7.811
  180POPC   C1B 7087  30.918  31.341   8.730
  180POPC   C2B 7088  30.984  31.439   8.312
  180POPC   C3B 7089  30.992  31.254   7.922
  180POPC   C4B 7090  31.138  31.380   7.508
  181POPC   NC3 7091  27.546  27.346   9.496
  181POPC   PO4 7092  28.095  27.654   9.469
  181POPC   GL1 7093  27.783  27.770   9.199
  181POPC   GL2 7094  27.845  27.455   9.068
  181POPC   C1A 7095  27.493  27.769   8.877
  181POPC   D2A 7096  27.379  27.580   8.484
  181POPC   C3A 7097  27.357  27.709   8.054
  181POPC   C4A 7098  27.368  27.315   7.853
  181POPC   C1B 7099  27.889  27.566   8.659
  181POPC   C2B 7100  27.997  27.662   8.289
  181POPC   C3B 7101  27.832  27.520   7.954
  181POPC   C4B 7102  27.661  27.695   7.612
  182POPC   NC3 7103  34.988  14.648   9.311
  182POPC   PO4 7104  35.401  14.186   9.650
  182POPC   GL1 7105  35.385  14.193   9.201
  182POPC   GL2 7106  35.115  13.965   9.097
  182POPC   C1A 7107  35.541  14.114   8.778
  182POPC   D2A 7108  35.521  14.090   8.313
  182POPC   C3A 7109  35.625  14.407   7.972
  182POPC   C4A 7110  35.546  14.349   7.492
  182POPC   C1B 7111  34.883  13.907   8.723
  182POPC   C2B 7112  34.982  13.990   8.290
  182POPC   C3B 7113  35.137  14.238   7.980
  182POPC   C4B 7114  35.071  14.168   7.520
  183POPC   NC3 7115  40.584  17.223   9.437
  183POPC   PO4 7116  41.022  17.762   9.413
  183POPC   GL1 7117  41.041  17.570   9.026
  183POPC   GL2 7118  40.790  17.305   8.982
  183POPC   C1A 7119  40.943  17.658   8.606
  183POPC   D2A 7120  40.682  17.840   8.304
  183POPC   C3A 7121  40.492  17.549   8.081
  183POPC   C4A 7122  40.518  17.388   7.696
  183POPC   C1B 7123  41.147  17.150   8.764
  183POPC   C2B 7124  41.205  17.280   8.388
  183POPC   C3B 7125  40.950  17.343   8.040
  183POPC   C4B 7126  40.924  17.075   7.650
  184POPC   NC3 7127  41.260  20.400   9.365
  184POPC   PO4 7128  41.740  20.846   9.402
  184POPC   GL1 7129  41.657  20.648   9.057
  184POPC   GL2 7130  41.335  20.768   8.935
  184POPC   C1A 7131  41.827  20.615   8.671
  184POPC   D2A 7132  41.841  20.494   8.271
  184POPC   C3A 7133  41.560  20.642   7.961
  184POPC   C4A 7134  41.180  20.829   7.798
  184POPC   C1B 7135  41.388  20.369   8.692
  184POPC   C2B 7136  41.487  20.106   8.325
  184POPC   C3B 7137  41.286  20.217   7.954
  184POPC   C4B 7138  41.487  20.299   7.553
  185POPC   NC3 7139  11.160  22.442   9.552
  185POPC   PO4 7140  10.955  21.814   9.784
  185POPC   GL1 7141  11.166  21.889   9.340
  185POPC   GL2 7142  11.447  22.099   9.249
  185POPC   C1A 7143  11.151  21.926   8.865
  185POPC   D2A 7144  11.426  21.779   8.523
  185POPC   C3A 7145  11.453  21.988   8.103
  185POPC   C4A 7146  11.175  22.035   7.793
  185POPC   C1B 7147  11.525  22.238   8.794
  185POPC   C2B 7148  11.197  22.259   8.460
  185POPC   C3B 7149  11.147  22.461   8.061
  185POPC   C4B 7150  11.449  22.454   7.730
  186POPC   NC3 7151  40.655  28.139   9.746
  186POPC   PO4 7152  40.928  28.667   9.532
  186POPC   GL1 7153  40.797  28.480   9.157
  186POPC   GL2 7154  40.767  28.114   9.208
  186POPC   C1A 7155  40.885  28.390   8.697
  186POPC   D2A 7156  40.758  28.593   8.294
  186POPC   C3A 7157  40.996  28.560   7.894
  186POPC   C4A 7158  41.007  28.444   7.423
  186POPC   C1B 7159  40.693  27.930   8.787
  186POPC   C2B 7160  40.818  27.985   8.342
  186POPC   C3B 7161  40.622  28.203   7.973
  186POPC   C4B 7162  40.570  28.183   7.529
  187POPC   NC3 7163  42.557  26.540   9.538
  187POPC   PO4 7164  41.992  26.819   9.789
  187POPC   GL1 7165  41.981  26.836   9.254
  187POPC   GL2 7166  42.325  26.875   9.229
  187POPC   C1A 7167  42.017  26.948   8.781
  187POPC   D2A 7168  42.228  26.684   8.440
  187POPC   C3A 7169  42.161  26.642   8.016
  187POPC   C4A 7170  42.375  26.807   7.711
  187POPC   C1B 7171  42.460  26.666   8.876
  187POPC   C2B 7172  42.681  26.484   8.517
  187POPC   C3B 7173  42.629  26.453   8.090
  187POPC   C4B 7174  42.838  26.620   7.742
  188POPC   NC3 7175  26.565  38.485   9.439
  188POPC   PO4 7176  27.222  38.693   9.512
  188POPC   GL1 7177  26.947  38.703   9.159
  188POPC   GL2 7178  27.134  38.560   8.876
  188POPC   C1A 7179  26.646  38.601   8.801
  188POPC   D2A 7180  26.862  38.658   8.408
  188POPC   C3A 7181  26.636  38.624   8.016
  188POPC   C4A 7182  26.696  38.869   7.649
  188POPC   C1B 7183  26.920  38.190   8.661
  188POPC   C2B 7184  26.840  38.175   8.199
  188POPC   C3B 7185  26.910  38.287   7.737
  188POPC   C4B 7186  26.906  38.147   7.280
  189POPC   NC3 7187  11.482  12.497   9.434
  189POPC   PO4 7188  10.936  12.960   9.487
  189POPC   GL1 7189  11.268  12.934   9.169
  189POPC   GL2 7190  11.398  12.618   8.952
  189POPC   C1A 7191  11.269  13.085   8.763
  189POPC   D2A 7192  11.409  12.900   8.384
  189POPC   C3A 7193  11.378  13.155   8.031
  189POPC   C4A 7194  11.152  13.089   7.699
  189POPC   C1B 7195  10.960  12.624   8.833
  189POPC   C2B 7196  10.817  12.553   8.418
  189POPC   C3B 7197  11.010  12.723   8.035
  189POPC   C4B 7198  11.448  12.671   7.876
  190POPC   NC3 7199  16.637  35.953   9.778
  190POPC   PO4 7200  16.988  36.513   9.556
  190POPC   GL1 7201  16.757  36.305   9.174
  190POPC   GL2 7202  16.902  36.026   8.971
  190POPC   C1A 7203  16.636  36.377   8.713
  190POPC   D2A 7204  16.812  36.610   8.344
  190POPC   C3A 7205  16.963  36.444   7.933
  190POPC   C4A 7206  16.953  36.022   7.756
  190POPC   C1B 7207  16.704  35.850   8.623
  190POPC   C2B 7208  16.807  36.069   8.269
  190POPC   C3B 7209  16.524  36.209   8.000
  190POPC   C4B 7210  16.225  35.984   7.848
  191POPC   NC3 7211  27.856   9.020   9.317
  191POPC   PO4 7212  27.653   9.563   9.492
  191POPC   GL1 7213  27.427   9.509   9.111
  191POPC   GL2 7214  27.720   9.542   8.944
  191POPC   C1A 7215  27.389   9.160   8.765
  191POPC   D2A 7216  27.464   8.817   8.453
  191POPC   C3A 7217  27.379   8.894   7.989
  191POPC   C4A 7218  27.363   9.249   7.715
  191POPC   C1B 7219  27.863   9.245   8.634
  191POPC   C2B 7220  27.707   9.204   8.212
  191POPC   C3B 7221  27.859   9.358   7.826
  191POPC   C4B 7222  27.998   9.385   7.384
  192POPC   NC3 7223  41.294  41.932   9.489
  192POPC   PO4 7224  41.271  41.242   9.516
  192POPC   GL1 7225  41.530  41.542   9.255
  192POPC   GL2 7226  41.894  41.627   9.241
  192POPC   C1A 7227  41.558  41.643   8.834
  192POPC   D2A 7228  41.431  41.458   8.455
  192POPC   C3A 7229  41.306  41.703   8.168
  192POPC   C4A 7230  41.507  41.644   7.817
  192POPC   C1B 7231  42.014  41.855   8.798
  192POPC   C2B 7232  41.847  41.771   8.372
  192POPC   C3B 7233  42.011  41.766   7.926
  192POPC   C4B 7234  41.855  41.775   7.473
  193POPC   NC3 7235   8.726  40.095   9.495
  193POPC   PO4 7236   9.168  40.724   9.531
  193POPC   GL1 7237   8.963  40.492   9.209
  193POPC   GL2 7238   9.198  40.615   8.981
  193POPC   C1A 7239   8.684  40.568   8.839
  193POPC   D2A 7240   8.650  40.848   8.462
  193POPC   C3A 7241   8.705  40.647   8.067
  193POPC   C4A 7242   8.705  40.819   7.663
  193POPC   C1B 7243   9.029  40.970   8.800
  193POPC   C2B 7244   9.146  40.952   8.368
  193POPC   C3B 7245   9.095  40.976   7.951
  193POPC   C4B 7246   9.414  41.125   7.717
  194POPC   NC3 7247   4.441   5.684   9.540
  194POPC   PO4 7248   4.496   6.321   9.650
  194POPC   GL1 7249   4.502   6.099   9.209
  194POPC   GL2 7250   4.332   5.759   9.042
  194POPC   C1A 7251   4.596   6.096   8.750
  194POPC   D2A 7252   4.731   6.208   8.330
  194POPC   C3A 7253   4.418   6.034   8.032
  194POPC   C4A 7254   4.263   6.234   7.680
  194POPC   C1B 7255   4.047   5.504   8.704
  194POPC   C2B 7256   3.908   5.503   8.230
  194POPC   C3B 7257   4.072   5.645   7.817
  194POPC   C4B 7258   4.518   5.592   7.755
  195POPC   NC3 7259   8.724  27.379   9.294
  195POPC   PO4 7260   9.104  27.748   9.684
  195POPC   GL1 7261   9.125  27.805   9.230
  195POPC   GL2 7262   8.781  27.853   9.117
  195POPC   C1A 7263   9.145  27.753   8.761
  195POPC   D2A 7264   9.048  27.427   8.454
  195POPC   C3A 7265   9.257  27.394   8.060
  195POPC   C4A 7266   9.136  27.517   7.632
  195POPC   C1B 7267   8.662  27.906   8.693
  195POPC   C2B 7268   8.859  27.931   8.310
  195POPC   C3B 7269   8.795  27.622   8.016
  195POPC   C4B 7270   8.627  27.608   7.620
  196POPC   NC3 7271  19.440   7.356   9.554
  196POPC   PO4 7272  18.797   7.508   9.496
  196POPC   GL1 7273  19.085   7.347   9.178
  196POPC   GL2 7274  19.316   7.613   9.125
  196POPC   C1A 7275  19.172   7.319   8.733
  196POPC   D2A 7276  18.927   7.137   8.437
  196POPC   C3A 7277  18.954   7.284   8.036
  196POPC   C4A 7278  18.658   7.105   7.766
  196POPC   C1B 7279  19.195   7.813   8.753
  196POPC   C2B 7280  19.325   7.665   8.333
  196POPC   C3B 7281  19.211   7.712   7.919
  196POPC   C4B 7282  19.358   7.417   7.655
  197POPC   NC3 7283  27.232  34.403   9.712
  197POPC   PO4 7284  27.605  34.197   9.156
  197POPC   GL1 7285  27.455  34.653   9.201
  197POPC   GL2 7286  27.747  34.890   9.142
  197POPC   C1A 7287  27.293  34.792   8.818
  197POPC   D2A 7288  27.410  34.519   8.479
  197POPC   C3A 7289  27.410  34.559   8.043
  197POPC   C4A 7290  27.744  34.290   7.862
  197POPC   C1B 7291  27.810  34.745   8.701
  197POPC   C2B 7292  27.878  34.693   8.242
  197POPC   C3B 7293  27.835  34.782   7.805
  197POPC   C4B 7294  28.002  34.661   7.368
  198POPC   NC3 7295  28.067  21.801   9.427
  198POPC   PO4 7296  27.889  22.520   9.541
  198POPC   GL1 7297  28.050  22.591   9.133
  198POPC   GL2 7298  28.327  22.339   9.087
  198POPC   C1A 7299  27.997  22.495   8.725
  198POPC   D2A 7300  28.374  22.333   8.516
  198POPC   C3A 7301  28.362  22.286   8.084
  198POPC   C4A 7302  28.493  22.345   7.674
  198POPC   C1B 7303  28.211  21.956   8.806
  198POPC   C2B 7304  28.249  21.852   8.340
  198POPC   C3B 7305  28.407  21.827   7.853
  198POPC   C4B 7306  28.423  21.968   7.359
  199POPC   NC3 7307  21.277  23.093   9.759
  199POPC   PO4 7308  21.564  23.737   9.722
  199POPC   GL1 7309  21.512  23.836   9.271
  199POPC   GL2 7310  21.169  23.728   9.243
  199POPC   C1A 7311  21.409  23.947   8.838
  199POPC   D2A 7312  21.518  23.716   8.491
  199POPC   C3A 7313  21.463  23.938   8.131
  199POPC   C4A 7314  21.445  23.770   7.721
  199POPC   C1B 7315  21.002  23.627   8.820
  199POPC   C2B 7316  21.024  23.748   8.406
  199POPC   C3B 7317  20.994  23.897   8.007
  199POPC   C4B 7318  20.949  23.679   7.675
  200POPC   NC3 7319  31.713  10.078   9.391
  200POPC   PO4 7320  31.012   9.923   9.453
  200POPC   GL1 7321  31.355   9.742   9.215
  200POPC   GL2 7322  31.361  10.029   9.023
  200POPC   C1A 7323  31.488   9.591   8.800
  200POPC   D2A 7324  31.641   9.738   8.396
  200POPC   C3A 7325  31.425   9.651   8.006
  200POPC   C4A 7326  31.605   9.690   7.579
  200POPC   C1B 7327  31.196   9.992   8.620
  200POPC   C2B 7328  31.324  10.120   8.200
  200POPC   C3B 7329  31.162  10.042   7.789
  200POPC   C4B 7330  31.258   9.958   7.372
  201POPC   NC3 7331  41.130  19.146   9.463
  201POPC   PO4 7332  41.862  19.087   9.553
  201POPC   GL1 7333  41.565  19.026   9.208
  201POPC   GL2 7334  41.550  19.350   9.162
  201POPC   C1A 7335  41.427  19.002   8.771
  201POPC   D2A 7336  41.369  19.181   8.335
  201POPC   C3A 7337  41.502  18.911   7.992
  201POPC   C4A 7338  41.737  18.882   7.617
  201POPC   C1B 7339  41.682  19.478   8.768
  201POPC   C2B 7340  41.698  19.606   8.360
  201POPC   C3B 7341  41.689  19.386   7.961
  201POPC   C4B 7342  41.667  19.389   7.506
  202POPC   NC3 7343   4.258   7.127   9.583
  202POPC   PO4 7344   4.592   7.667   9.633
  202POPC   GL1 7345   4.229   7.514   9.293
  202POPC   GL2 7346   4.501   7.272   9.147
  202POPC   C1A 7347   4.105   7.456   8.823
  202POPC   D2A 7348   3.991   7.335   8.409
  202POPC   C3A 7349   4.313   7.496   8.144
  202POPC   C4A 7350   4.367   7.493   7.724
  202POPC   C1B 7351   4.700   7.132   8.752
  202POPC   C2B 7352   4.835   7.241   8.333
  202POPC   C3B 7353   4.695   7.151   7.922
  202POPC   C4B 7354   4.507   7.034   7.510
  203POPC   NC3 7355  42.999  27.437   9.540
  203POPC   PO4 7356  43.066  28.069   9.386
  203POPC   GL1 7357  43.245  27.798   9.050
  203POPC   GL2 7358  43.168  27.438   9.068
  203POPC   C1A 7359  43.361  27.899   8.614
  203POPC   D2A 7360  43.264  27.638   8.228
  203POPC   C3A 7361  42.807  27.548   8.116
  203POPC   C4A 7362  42.634  27.710   7.709
  203POPC   C1B 7363  43.330  27.388   8.684
  203POPC   C2B 7364  43.188  27.127   8.381
  203POPC   C3B 7365  43.275  27.158   8.002
  203POPC   C4B 7366  43.103  27.448   7.726
  204POPC   NC3 7367  44.869   2.688   9.515
  204POPC   PO4 7368  44.316   2.928   9.083
  204POPC   GL1 7369  44.720   2.758   9.025
  204POPC   GL2 7370  44.822   2.439   9.050
  204POPC   C1A 7371  44.902   2.973   8.703
  204POPC   D2A 7372  44.700   3.210   8.407
  204POPC   C3A 7373  44.661   2.980   8.041
  204POPC   C4A 7374  44.737   3.136   7.657
  204POPC   C1B 7375  44.565   2.457   8.646
  204POPC   C2B 7376  44.455   2.506   8.201
  204POPC   C3B 7377  44.670   2.498   7.793
  204POPC   C4B 7378  44.463   2.466   7.392
  205POPC   NC3 7379  44.675  38.406   9.447
  205POPC   PO4 7380  44.265  38.845   9.148
  205POPC   GL1 7381  44.551  38.501   8.962
  205POPC   GL2 7382  44.549  38.137   9.032
  205POPC   C1A 7383  44.919  38.483   8.713
  205POPC   D2A 7384  44.825  38.597   8.307
  205POPC   C3A 7385  44.572  38.427   7.975
  205POPC   C4A 7386  44.255  38.660   7.744
  205POPC   C1B 7387  44.847  37.985   8.734
  205POPC   C2B 7388  44.807  38.089   8.312
  205POPC   C3B 7389  44.898  38.008   7.895
  205POPC   C4B 7390  44.786  38.002   7.474
  206POPC   NC3 7391  11.385  34.977   9.484
  206POPC   PO4 7392  11.414  34.289   9.556
  206POPC   GL1 7393  11.337  34.557   9.177
  206POPC   GL2 7394  11.071  34.847   9.116
  206POPC   C1A 7395  11.476  34.569   8.758
  206POPC   D2A 7396  11.300  34.490   8.351
  206POPC   C3A 7397  11.336  34.713   7.937
  206POPC   C4A 7398  11.501  34.605   7.513
  206POPC   C1B 7399  10.984  34.707   8.703
  206POPC   C2B 7400  10.943  34.878   8.282
  206POPC   C3B 7401  10.985  35.091   7.903
  206POPC   C4B 7402  11.228  35.028   7.518
  207POPC   NC3 7403  10.584  21.916   9.533
  207POPC   PO4 7404  10.708  21.242   9.378
  207POPC   GL1 7405  10.732  21.634   9.128
  207POPC   GL2 7406  10.358  21.706   9.115
  207POPC   C1A 7407  10.723  21.752   8.676
  207POPC   D2A 7408  10.671  21.475   8.325
  207POPC   C3A 7409  10.374  21.655   8.076
  207POPC   C4A 7410  10.484  21.853   7.716
  207POPC   C1B 7411  10.375  21.398   8.774
  207POPC   C2B 7412  10.179  21.122   8.491
  207POPC   C3B 7413  10.379  21.061   8.112
  207POPC   C4B 7414  10.541  21.284   7.767
  208POPC   NC3 7415  33.492  12.741   9.168
  208POPC   PO4 7416  34.013  12.888   9.552
  208POPC   GL1 7417  34.005  12.777   9.122
  208POPC   GL2 7418  33.848  13.085   9.015
  208POPC   C1A 7419  33.921  12.688   8.666
  208POPC   D2A 7420  33.942  12.956   8.296
  208POPC   C3A 7421  33.912  12.928   7.854
  208POPC   C4A 7422  33.754  12.709   7.446
  208POPC   C1B 7423  33.563  13.053   8.629
  208POPC   C2B 7424  33.456  12.752   8.315
  208POPC   C3B 7425  33.410  12.848   7.882
  208POPC   C4B 7426  33.512  13.151   7.576
  209POPC   NC3 7427  32.560  24.642   9.236
  209POPC   PO4 7428  32.339  24.251   9.724
  209POPC   GL1 7429  32.105  24.445   9.238
  209POPC   GL2 7430  32.299  24.342   8.887
  209POPC   C1A 7431  32.042  24.737   8.790
  209POPC   D2A 7432  32.104  24.446   8.407
  209POPC   C3A 7433  32.045  24.548   7.984
  209POPC   C4A 7434  32.099  24.738   7.591
  209POPC   C1B 7435  32.527  24.629   8.594
  209POPC   C2B 7436  32.580  24.870   8.246
  209POPC   C3B 7437  32.521  24.770   7.863
  209POPC   C4B 7438  32.458  24.304   7.758
  210POPC   NC3 7439  17.081  30.537   9.383
  210POPC   PO4 7440  16.488  30.933   9.433
  210POPC   GL1 7441  16.727  30.795   9.102
  210POPC   GL2 7442  16.851  31.107   8.969
  210POPC   C1A 7443  16.843  30.528   8.759
  210POPC   D2A 7444  17.015  30.513   8.349
  210POPC   C3A 7445  16.775  30.687   7.976
  210POPC   C4A 7446  16.471  30.989   7.779
  210POPC   C1B 7447  17.133  30.951   8.646
  210POPC   C2B 7448  17.121  31.005   8.203
  210POPC   C3B 7449  17.024  31.077   7.787
  210POPC   C4B 7450  17.040  31.102   7.347
  211POPC   NC3 7451   4.114  42.492   9.421
  211POPC   PO4 7452   4.468  41.905   9.484
  211POPC   GL1 7453   4.403  42.167   9.120
  211POPC   GL2 7454   4.033  42.144   9.058
  211POPC   C1A 7455   4.343  42.509   8.799
  211POPC   D2A 7456   4.292  42.702   8.401
  211POPC   C3A 7457   4.240  42.486   8.020
  211POPC   C4A 7458   4.570  42.379   7.749
  211POPC   C1B 7459   4.131  42.075   8.660
  211POPC   C2B 7460   4.465  42.152   8.409
  211POPC   C3B 7461   4.463  41.975   8.035
  211POPC   C4B 7462   4.197  42.063   7.671
  212POPC   NC3 7463  39.669  26.763   9.444
  212POPC   PO4 7464  40.245  27.065   9.585
  212POPC   GL1 7465  40.074  26.927   9.184
  212POPC   GL2 7466  40.099  26.573   9.174
  212POPC   C1A 7467  39.877  26.899   8.767
  212POPC   D2A 7468  40.027  27.070   8.375
  212POPC   C3A 7469  39.827  26.895   8.010
  212POPC   C4A 7470  39.929  27.088   7.638
  212POPC   C1B 7471  40.173  26.473   8.766
  212POPC   C2B 7472  40.031  26.559   8.387
  212POPC   C3B 7473  40.047  26.418   8.005
  212POPC   C4B 7474  39.952  26.584   7.611
  213POPC   NC3 7475  34.099  24.789   9.815
  213POPC   PO4 7476  33.600  25.268   9.620
  213POPC   GL1 7477  33.818  25.278   9.191
  213POPC   GL2 7478  34.217  25.278   9.194
  213POPC   C1A 7479  33.605  25.196   8.786
  213POPC   D2A 7480  33.454  25.333   8.394
  213POPC   C3A 7481  33.649  25.336   7.994
  213POPC   C4A 7482  33.603  25.051   7.644
  213POPC   C1B 7483  34.100  25.135   8.786
  213POPC   C2B 7484  33.960  25.424   8.460
  213POPC   C3B 7485  34.143  25.504   8.074
  213POPC   C4B 7486  34.127  25.157   7.809
  214POPC   NC3 7487   4.886  35.696   9.493
  214POPC   PO4 7488   4.988  35.083   9.507
  214POPC   GL1 7489   5.067  35.312   9.141
  214POPC   GL2 7490   5.359  35.511   9.097
  214POPC   C1A 7491   5.018  35.175   8.724
  214POPC   D2A 7492   5.162  35.009   8.340
  214POPC   C3A 7493   5.001  35.189   7.954
  214POPC   C4A 7494   5.059  35.255   7.528
  214POPC   C1B 7495   5.176  35.667   8.709
  214POPC   C2B 7496   5.219  35.548   8.249
  214POPC   C3B 7497   5.475  35.472   7.831
  214POPC   C4B 7498   5.489  35.509   7.367
  215POPC   NC3 7499  22.342  13.555   9.503
  215POPC   PO4 7500  22.735  13.871   9.151
  215POPC   GL1 7501  22.294  13.770   9.003
  215POPC   GL2 7502  21.971  13.624   9.154
  215POPC   C1A 7503  22.079  13.884   8.629
  215POPC   D2A 7504  22.050  13.821   8.210
  215POPC   C3A 7505  22.422  13.697   8.024
  215POPC   C4A 7506  22.607  13.366   7.762
  215POPC   C1B 7507  21.906  13.416   8.767
  215POPC   C2B 7508  21.992  13.266   8.387
  215POPC   C3B 7509  22.048  13.343   7.994
  215POPC   C4B 7510  21.820  13.065   7.789
  216POPC   NC3 7511  41.871  14.191   9.560
  216POPC   PO4 7512  41.276  14.589   9.451
  216POPC   GL1 7513  41.381  14.356   9.077
  216POPC   GL2 7514  41.623  14.089   9.141
  216POPC   C1A 7515  41.550  14.434   8.659
  216POPC   D2A 7516  41.787  14.619   8.285
  216POPC   C3A 7517  41.703  14.410   7.897
  216POPC   C4A 7518  41.371  14.374   7.560
  216POPC   C1B 7519  41.821  14.016   8.753
  216POPC   C2B 7520  41.653  14.052   8.336
  216POPC   C3B 7521  41.893  13.961   7.979
  216POPC   C4B 7522  41.749  13.959   7.598
  217POPC   NC3 7523  13.150  29.438   9.498
  217POPC   PO4 7524  12.577  29.195   9.381
  217POPC   GL1 7525  12.828  29.409   9.083
  217POPC   GL2 7526  13.064  29.123   9.065
  217POPC   C1A 7527  12.741  29.467   8.634
  217POPC   D2A 7528  12.667  29.223   8.285
  217POPC   C3A 7529  12.822  29.379   7.912
  217POPC   C4A 7530  12.488  29.397   7.609
  217POPC   C1B 7531  13.026  29.028   8.635
  217POPC   C2B 7532  13.206  29.192   8.255
  217POPC   C3B 7533  13.264  29.078   7.822
  217POPC   C4B 7534  13.103  28.787   7.500
  218POPC   NC3 7535  39.529  42.442   9.519
  218POPC   PO4 7536  38.903  42.294   9.494
  218POPC   GL1 7537  39.114  42.467   9.156
  218POPC   GL2 7538  39.291  42.787   9.223
  218POPC   C1A 7539  39.126  42.335   8.747
  218POPC   D2A 7540  39.184  42.551   8.385
  218POPC   C3A 7541  39.181  42.326   7.996
  218POPC   C4A 7542  39.083  42.411   7.562
  218POPC   C1B 7543  39.456  42.770   8.811
  218POPC   C2B 7544  39.678  42.675   8.424
  218POPC   C3B 7545  39.488  42.731   8.020
  218POPC   C4B 7546  39.598  42.884   7.636
  219POPC   NC3 7547   6.632  30.937   9.357
  219POPC   PO4 7548   6.458  30.300   9.419
  219POPC   GL1 7549   6.633  30.482   9.077
  219POPC   GL2 7550   6.975  30.565   9.176
  219POPC   C1A 7551   6.458  30.569   8.671
  219POPC   D2A 7552   6.223  30.758   8.332
  219POPC   C3A 7553   6.405  30.683   7.934
  219POPC   C4A 7554   6.800  30.676   7.729
  219POPC   C1B 7555   6.908  30.803   8.782
  219POPC   C2B 7556   6.750  30.896   8.363
  219POPC   C3B 7557   7.001  31.056   8.032
  219POPC   C4B 7558   7.247  30.930   7.667
  220POPC   NC3 7559  32.846   7.171   9.329
  220POPC   PO4 7560  32.895   7.813   9.527
  220POPC   GL1 7561  33.074   7.602   9.159
  220POPC   GL2 7562  33.332   7.316   9.121
  220POPC   C1A 7563  32.992   7.474   8.748
  220POPC   D2A 7564  32.709   7.451   8.416
  220POPC   C3A 7565  32.952   7.439   8.056
  220POPC   C4A 7566  32.943   7.603   7.656
  220POPC   C1B 7567  33.467   7.267   8.670
  220POPC   C2B 7568  33.337   7.149   8.233
  220POPC   C3B 7569  33.300   7.209   7.763
  220POPC   C4B 7570  33.173   7.281   7.317
  221POPC   NC3 7571  30.582  10.056   9.356
  221POPC   PO4 7572  30.617  10.688   9.596
  221POPC   GL1 7573  30.719  10.597   9.158
  221POPC   GL2 7574  30.923  10.310   9.065
  221POPC   C1A 7575  30.543  10.627   8.749
  221POPC   D2A 7576  30.623  10.574   8.306
  221POPC   C3A 7577  30.362  10.637   7.913
  221POPC   C4A 7578  30.262  10.617   7.445
  221POPC   C1B 7579  30.704  10.145   8.672
  221POPC   C2B 7580  30.825  10.128   8.226
  221POPC   C3B 7581  30.892  10.464   7.898
  221POPC   C4B 7582  30.956  10.380   7.455
  222POPC   NC3 7583  18.855  35.357   9.478
  222POPC   PO4 7584  19.409  35.707   9.397
  222POPC   GL1 7585  19.266  35.402   9.088
  222POPC   GL2 7586  18.996  35.581   9.053
  222POPC   C1A 7587  19.190  35.293   8.634
  222POPC   D2A 7588  19.352  35.345   8.250
  222POPC   C3A 7589  19.136  35.216   7.920
  222POPC   C4A 7590  19.137  35.276   7.460
  222POPC   C1B 7591  18.780  35.526   8.724
  222POPC   C2B 7592  18.892  35.665   8.310
  222POPC   C3B 7593  18.648  35.606   7.958
  222POPC   C4B 7594  18.679  35.234   7.709
  223POPC   NC3 7595  23.636  34.336   9.602
  223POPC   PO4 7596  23.793  34.973   9.512
  223POPC   GL1 7597  23.563  34.791   9.163
  223POPC   GL2 7598  23.650  34.454   9.091
  223POPC   C1A 7599  23.664  34.807   8.715
  223POPC   D2A 7600  23.598  34.496   8.416
  223POPC   C3A 7601  23.636  34.468   7.986
  223POPC   C4A 7602  23.681  34.561   7.579
  223POPC   C1B 7603  23.964  34.376   8.754
  223POPC   C2B 7604  24.099  34.370   8.278
  223POPC   C3B 7605  24.078  34.319   7.806
  223POPC   C4B 7606  23.781  34.072   7.548
  224POPC   NC3 7607   0.447   4.584   9.614
  224POPC   PO4 7608   0.426   5.277   9.554
  224POPC   GL1 7609   0.429   5.196   9.134
  224POPC   GL2 7610   0.399   4.868   9.174
  224POPC   C1A 7611   0.416   5.405   8.740
  224POPC   D2A 7612   0.527   5.564   8.290
  224POPC   C3A 7613   0.367   5.402   7.908
  224POPC   C4A 7614   0.576   5.147   7.612
  224POPC   C1B 7615   0.346   4.895   8.722
  224POPC   C2B 7616   0.290   5.089   8.324
  224POPC   C3B 7617   0.210   4.915   7.913
  224POPC   C4B 7618   0.199   4.695   7.526
  225POPC   NC3 7619  13.132  35.688   9.451
  225POPC   PO4 7620  12.702  36.239   9.465
  225POPC   GL1 7621  12.805  35.927   9.141
  225POPC   GL2 7622  12.687  35.624   8.997
  225POPC   C1A 7623  12.968  36.002   8.730
  225POPC   D2A 7624  12.783  36.299   8.413
  225POPC   C3A 7625  12.977  36.307   8.006
  225POPC   C4A 7626  12.813  36.348   7.621
  225POPC   C1B 7627  12.709  35.607   8.559
  225POPC   C2B 7628  12.857  35.815   8.214
  225POPC   C3B 7629  12.847  35.809   7.778
  225POPC   C4B 7630  12.747  35.952   7.325
  226POPC   NC3 7631  31.375  19.867   9.510
  226POPC   PO4 7632  31.885  20.135   9.261
  226POPC   GL1 7633  31.553  19.927   9.052
  226POPC   GL2 7634  31.586  19.548   9.139
  226POPC   C1A 7635  31.430  20.119   8.684
  226POPC   D2A 7636  31.653  20.208   8.345
  226POPC   C3A 7637  31.448  20.095   7.988
  226POPC   C4A 7638  31.327  19.857   7.661
  226POPC   C1B 7639  31.670  19.625   8.683
  226POPC   C2B 7640  31.376  19.723   8.371
  226POPC   C3B 7641  31.276  19.500   8.034
  226POPC   C4B 7642  31.576  19.387   7.727
  227POPC   NC3 7643  32.851  13.350   9.253
  227POPC   PO4 7644  32.739  13.972   9.376
  227POPC   GL1 7645  32.967  13.775   9.015
  227POPC   GL2 7646  33.270  13.609   9.103
  227POPC   C1A 7647  33.248  13.875   8.643
  227POPC   D2A 7648  33.140  14.080   8.229
  227POPC   C3A 7649  32.893  13.769   7.986
  227POPC   C4A 7650  32.511  13.751   7.758
  227POPC   C1B 7651  33.159  13.370   8.695
  227POPC   C2B 7652  33.201  13.196   8.288
  227POPC   C3B 7653  33.171  13.348   7.903
  227POPC   C4B 7654  33.369  13.764   7.818
  228POPC   NC3 7655  42.078  20.522   9.420
  228POPC   PO4 7656  42.433  21.010   9.638
  228POPC   GL1 7657  42.451  20.827   9.218
  228POPC   GL2 7658  42.151  20.946   9.119
  228POPC   C1A 7659  42.328  20.634   8.782
  228POPC   D2A 7660  42.364  20.698   8.330
  228POPC   C3A 7661  42.271  20.383   8.009
  228POPC   C4A 7662  42.497  20.209   7.654
  228POPC   C1B 7663  42.008  21.083   8.759
  228POPC   C2B 7664  41.940  20.989   8.322
  228POPC   C3B 7665  42.032  20.861   7.921
  228POPC   C4B 7666  42.310  20.724   7.613
  229POPC   NC3 7667  24.288  10.402   9.359
  229POPC   PO4 7668  24.903  10.771   9.312
  229POPC   GL1 7669  24.728  10.429   9.032
  229POPC   GL2 7670  24.525  10.119   8.999
  229POPC   C1A 7671  24.622  10.392   8.591
  229POPC   D2A 7672  24.312  10.623   8.415
  229POPC   C3A 7673  24.392  10.688   8.024
  229POPC   C4A 7674  24.478  10.616   7.620
  229POPC   C1B 7675  24.177  10.188   8.712
  229POPC   C2B 7676  24.251  10.130   8.265
  229POPC   C3B 7677  24.098  10.274   7.883
  229POPC   C4B 7678  24.225  10.229   7.417
  230POPC   NC3 7679   8.890  30.317   9.565
  230POPC   PO4 7680   9.145  29.616   9.613
  230POPC   GL1 7681   9.052  29.912   9.249
  230POPC   GL2 7682   8.701  29.937   9.192
  230POPC   C1A 7683   9.187  30.118   8.840
  230POPC   D2A 7684   9.095  30.338   8.438
  230POPC   C3A 7685   9.128  30.162   8.027
  230POPC   C4A 7686   8.863  29.836   7.854
  230POPC   C1B 7687   8.668  30.139   8.779
  230POPC   C2B 7688   8.618  30.149   8.311
  230POPC   C3B 7689   8.601  30.262   7.865
  230POPC   C4B 7690   8.699  30.097   7.405
  231POPC   NC3 7691  13.832  44.212   9.490
  231POPC   PO4 7692  13.571  44.768   9.592
  231POPC   GL1 7693  13.638  44.641   9.164
  231POPC   GL2 7694  13.939  44.608   9.146
  231POPC   C1A 7695  13.695  44.525   8.710
  231POPC   D2A 7696  13.440  44.567   8.368
  231POPC   C3A 7697  13.636  44.400   8.005
  231POPC   C4A 7698  13.599  44.534   7.568
  231POPC   C1B 7699  13.978  44.927   8.793
  231POPC   C2B 7700  13.918  44.817   8.312
  231POPC   C3B 7701  14.019  44.942   7.868
  231POPC   C4B 7702  14.053  44.789   7.384
  232POPC   NC3 7703  26.490   9.089   9.585
  232POPC   PO4 7704  25.950   8.796   9.508
  232POPC   GL1 7705  25.985   9.147   9.174
  232POPC   GL2 7706  26.253   9.379   9.225
  232POPC   C1A 7707  25.976   9.301   8.731
  232POPC   D2A 7708  26.214   9.387   8.317
  232POPC   C3A 7709  25.970   9.194   7.945
  232POPC   C4A 7710  25.718   8.785   7.805
  232POPC   C1B 7711  26.470   9.361   8.835
  232POPC   C2B 7712  26.707   9.209   8.496
  232POPC   C3B 7713  26.678   9.159   8.050
  232POPC   C4B 7714  26.455   9.438   7.827
  233POPC   NC3 7715   5.311   5.850   9.508
  233POPC   PO4 7716   5.901   5.622   9.507
  233POPC   GL1 7717   5.793   5.832   9.165
  233POPC   GL2 7718   5.799   5.505   9.003
  233POPC   C1A 7719   5.817   6.034   8.778
  233POPC   D2A 7720   6.032   6.035   8.382
  233POPC   C3A 7721   5.790   6.019   7.988
  233POPC   C4A 7722   5.530   5.669   7.873
  233POPC   C1B 7723   6.031   5.555   8.617
  233POPC   C2B 7724   5.990   5.560   8.158
  233POPC   C3B 7725   6.061   5.689   7.704
  233POPC   C4B 7726   6.118   5.615   7.233
  234POPC   NC3 7727  33.182  18.928   9.586
  234POPC   PO4 7728  32.584  19.158   9.488
  234POPC   GL1 7729  32.801  19.051   9.099
  234POPC   GL2 7730  33.149  19.054   9.087
  234POPC   C1A 7731  32.799  18.938   8.642
  234POPC   D2A 7732  32.592  18.686   8.278
  234POPC   C3A 7733  32.834  18.731   7.895
  234POPC   C4A 7734  32.920  19.154   7.700
  234POPC   C1B 7735  33.325  19.089   8.694
  234POPC   C2B 7736  33.138  19.178   8.315
  234POPC   C3B 7737  33.281  18.971   7.985
  234POPC   C4B 7738  33.472  19.115   7.656
  235POPC   NC3 7739  11.544   9.700   9.523
  235POPC   PO4 7740  10.825   9.907   9.605
  235POPC   GL1 7741  11.116   9.915   9.299
  235POPC   GL2 7742  11.153   9.576   9.234
  235POPC   C1A 7743  11.337   9.946   8.907
  235POPC   D2A 7744  11.340   9.776   8.502
  235POPC   C3A 7745  11.367  10.023   8.142
  235POPC   C4A 7746  11.489   9.904   7.711
  235POPC   C1B 7747  11.221   9.379   8.845
  235POPC   C2B 7748  11.172   9.312   8.395
  235POPC   C3B 7749  11.356   9.521   8.036
  235POPC   C4B 7750  11.625   9.375   7.713
  236POPC   NC3 7751  32.607  33.686   9.443
  236POPC   PO4 7752  31.935  33.882   9.403
  236POPC   GL1 7753  32.268  33.951   9.158
  236POPC   GL2 7754  32.255  33.596   9.085
  236POPC   C1A 7755  32.438  33.978   8.757
  236POPC   D2A 7756  32.255  34.011   8.320
  236POPC   C3A 7757  32.443  33.797   7.942
  236POPC   C4A 7758  32.707  34.027   7.655
  236POPC   C1B 7759  31.952  33.788   8.730
  236POPC   C2B 7760  31.776  33.831   8.292
  236POPC   C3B 7761  31.937  33.846   7.849
  236POPC   C4B 7762  32.185  33.852   7.456
  237POPC   NC3 7763  32.908   5.625   9.414
  237POPC   PO4 7764  33.115   6.237   9.652
  237POPC   GL1 7765  33.009   6.092   9.220
  237POPC   GL2 7766  33.277   5.879   9.087
  237POPC   C1A 7767  32.795   5.954   8.827
  237POPC   D2A 7768  32.991   5.959   8.398
  237POPC   C3A 7769  32.865   5.832   8.014
  237POPC   C4A 7770  33.213   5.906   7.757
  237POPC   C1B 7771  33.159   5.610   8.705
  237POPC   C2B 7772  33.174   5.497   8.219
  237POPC   C3B 7773  33.232   5.401   7.757
  237POPC   C4B 7774  33.466   5.478   7.339
  238POPC   NC3 7775  22.893  15.653   9.820
  238POPC   PO4 7776  22.898  15.010   9.599
  238POPC   GL1 7777  22.883  14.960   9.161
  238POPC   GL2 7778  23.107  14.747   9.007
  238POPC   C1A 7779  22.753  15.187   8.793
  238POPC   D2A 7780  22.566  15.076   8.398
  238POPC   C3A 7781  22.675  15.351   8.028
  238POPC   C4A 7782  22.733  15.273   7.571
  238POPC   C1B 7783  23.244  15.002   8.709
  238POPC   C2B 7784  23.074  15.038   8.305
  238POPC   C3B 7785  23.142  15.129   7.898
  238POPC   C4B 7786  23.066  14.887   7.573
  239POPC   NC3 7787  36.673  12.240   9.825
  239POPC   PO4 7788  36.115  12.014   9.457
  239POPC   GL1 7789  36.106  11.790   9.090
  239POPC   GL2 7790  35.880  11.565   9.010
  239POPC   C1A 7791  36.356  11.776   8.689
  239POPC   D2A 7792  36.354  12.046   8.344
  239POPC   C3A 7793  36.316  11.886   7.942
  239POPC   C4A 7794  36.213  12.238   7.718
  239POPC   C1B 7795  35.862  11.872   8.668
  239POPC   C2B 7796  35.888  11.868   8.261
  239POPC   C3B 7797  35.798  12.061   7.925
  239POPC   C4B 7798  35.836  11.806   7.640
  240POPC   NC3 7799  39.270  13.863   9.518
  240POPC   PO4 7800  38.988  13.294   9.486
  240POPC   GL1 7801  39.094  13.507   9.133
  240POPC   GL2 7802  39.456  13.481   9.188
  240POPC   C1A 7803  38.953  13.602   8.688
  240POPC   D2A 7804  38.895  13.846   8.296
  240POPC   C3A 7805  39.094  13.633   7.958
  240POPC   C4A 7806  39.377  13.283   7.840
  240POPC   C1B 7807  39.390  13.826   8.858
  240POPC   C2B 7808  39.410  13.830   8.409
  240POPC   C3B 7809  39.563  13.898   7.986
  240POPC   C4B 7810  39.627  13.710   7.556
  241POPC   NC3 7811   8.046  38.627   9.554
  241POPC   PO4 7812   8.278  37.929   9.493
  241POPC   GL1 7813   8.134  38.200   9.184
  241POPC   GL2 7814   8.349  38.482   9.184
  241POPC   C1A 7815   7.956  38.193   8.771
  241POPC   D2A 7816   7.984  38.464   8.401
  241POPC   C3A 7817   7.956  38.297   8.014
  241POPC   C4A 7818   8.070  38.505   7.691
  241POPC   C1B 7819   8.340  38.588   8.782
  241POPC   C2B 7820   8.596  38.668   8.437
  241POPC   C3B 7821   8.401  38.605   8.052
  241POPC   C4B 7822   8.544  38.709   7.620
  242POPC   NC3 7823  24.823  25.629   9.556
  242POPC   PO4 7824  25.239  26.154   9.690
  242POPC   GL1 7825  25.307  25.893   9.288
  242POPC   GL2 7826  25.221  26.129   9.032
  242POPC   C1A 7827  25.465  25.734   8.847
  242POPC   D2A 7828  25.387  25.634   8.411
  242POPC   C3A 7829  25.482  25.947   8.078
  242POPC   C4A 7830  25.242  26.003   7.704
  242POPC   C1B 7831  25.202  26.368   8.652
  242POPC   C2B 7832  25.233  26.388   8.216
  242POPC   C3B 7833  25.221  26.572   7.841
  242POPC   C4B 7834  25.203  26.475   7.411
  243POPC   NC3 7835   1.061  20.199   9.642
  243POPC   PO4 7836   1.187  19.555   9.460
  243POPC   GL1 7837   1.099  19.883   9.194
  243POPC   GL2 7838   1.384  20.023   8.993
  243POPC   C1A 7839   0.958  19.884   8.779
  243POPC   D2A 7840   1.187  19.780   8.416
  243POPC   C3A 7841   1.031  19.914   8.047
  243POPC   C4A 7842   1.037  19.748   7.645
  243POPC   C1B 7843   1.419  19.562   8.843
  243POPC   C2B 7844   1.525  19.384   8.426
  243POPC   C3B 7845   1.410  19.491   7.985
  243POPC   C4B 7846   1.443  19.513   7.500
  244POPC   NC3 7847  23.784   5.424   9.317
  244POPC   PO4 7848  23.818   5.955   9.696
  244POPC   GL1 7849  23.630   5.936   9.242
  244POPC   GL2 7850  23.473   6.266   9.111
  244POPC   C1A 7851  23.704   5.812   8.773
  244POPC   D2A 7852  23.703   5.650   8.318
  244POPC   C3A 7853  23.889   5.754   7.917
  244POPC   C4A 7854  23.830   5.692   7.453
  244POPC   C1B 7855  23.854   6.295   8.875
  244POPC   C2B 7856  23.926   6.129   8.446
  244POPC   C3B 7857  23.595   6.126   8.125
  244POPC   C4B 7858  23.565   6.306   7.724
  245POPC   NC3 7859  13.772  42.185   9.410
  245POPC   PO4 7860  13.370  42.675   9.481
  245POPC   GL1 7861  13.418  42.492   9.084
  245POPC   GL2 7862  13.772  42.403   8.934
  245POPC   C1A 7863  13.340  42.293   8.697
  245POPC   D2A 7864  13.691  42.202   8.418
  245POPC   C3A 7865  13.551  42.349   8.027
  245POPC   C4A 7866  13.328  42.234   7.667
  245POPC   C1B 7867  14.025  42.007   8.840
  245POPC   C2B 7868  14.056  41.637   8.619
  245POPC   C3B 7869  13.848  41.741   8.232
  245POPC   C4B 7870  13.850  41.965   7.839
  246POPC   NC3 7871   0.577   1.026   9.497
  246POPC   PO4 7872  44.979   1.448   9.500
  246POPC   GL1 7873   0.274   1.310   9.164
  246POPC   GL2 7874   0.198   0.944   9.154
  246POPC   C1A 7875   0.565   1.374   8.776
  246POPC   D2A 7876   0.753   1.448   8.325
  246POPC   C3A 7877   0.503   1.368   7.913
  246POPC   C4A 7878   0.457   1.445   7.440
  246POPC   C1B 7879   0.224   1.007   8.735
  246POPC   C2B 7880   0.391   1.055   8.347
  246POPC   C3B 7881   0.566   0.837   8.010
  246POPC   C4B 7882   0.451   0.939   7.593
  247POPC   NC3 7883  42.965  24.198   9.409
  247POPC   PO4 7884  43.436  24.509   9.694
  247POPC   GL1 7885  43.420  24.361   9.179
  247POPC   GL2 7886  43.265  24.097   8.951
  247POPC   C1A 7887  43.322  24.509   8.679
  247POPC   D2A 7888  43.427  24.725   8.278
  247POPC   C3A 7889  43.322  24.514   7.878
  247POPC   C4A 7890  43.136  24.147   7.686
  247POPC   C1B 7891  42.865  24.292   8.778
  247POPC   C2B 7892  42.634  24.198   8.414
  247POPC   C3B 7893  42.752  24.262   8.014
  247POPC   C4B 7894  42.829  24.561   7.729
  248POPC   NC3 7895  18.984  30.064   9.514
  248POPC   PO4 7896  19.229  29.529   9.314
  248POPC   GL1 7897  19.169  29.871   9.068
  248POPC   GL2 7898  18.838  29.789   9.088
  248POPC   C1A 7899  19.240  30.059   8.681
  248POPC   D2A 7900  19.314  29.819   8.318
  248POPC   C3A 7901  19.221  30.018   7.960
  248POPC   C4A 7902  19.290  29.932   7.567
  248POPC   C1B 7903  18.743  30.047   8.786
  248POPC   C2B 7904  18.842  30.040   8.354
  248POPC   C3B 7905  18.758  29.858   7.980
  248POPC   C4B 7906  18.773  29.957   7.560
  249POPC   NC3 7907  13.552  34.781   9.457
  249POPC   PO4 7908  13.796  34.124   9.465
  249POPC   GL1 7909  13.875  34.461   9.190
  249POPC   GL2 7910  13.547  34.443   9.079
  249POPC   C1A 7911  13.918  34.620   8.744
  249POPC   D2A 7912  13.797  34.786   8.335
  249POPC   C3A 7913  13.639  34.500   8.025
  249POPC   C4A 7914  13.932  34.322   7.752
  249POPC   C1B 7915  13.400  34.586   8.689
  249POPC   C2B 7916  13.275  34.783   8.310
  249POPC   C3B 7917  13.437  34.974   7.955
  249POPC   C4B 7918  13.379  35.070   7.507
  250POPC   NC3 7919   3.904  36.924   9.520
  250POPC   PO4 7920   4.472  37.225   9.552
  250POPC   GL1 7921   4.298  37.026   9.171
  250POPC   GL2 7922   4.533  36.790   9.125
  250POPC   C1A 7923   4.042  37.000   8.780
  250POPC   D2A 7924   4.204  36.935   8.353
  250POPC   C3A 7925   3.992  36.788   7.978
  250POPC   C4A 7926   4.147  36.904   7.547
  250POPC   C1B 7927   4.592  36.802   8.672
  250POPC   C2B 7928   4.707  36.901   8.211
  250POPC   C3B 7929   4.654  36.821   7.749
  250POPC   C4B 7930   4.605  37.022   7.327
  251POPC   NC3 7931   6.726   9.097   9.665
  251POPC   PO4 7932   6.119   8.819   9.519
  251POPC   GL1 7933   6.468   8.792   9.143
  251POPC   GL2 7934   6.789   9.016   9.160
  251POPC   C1A 7935   6.335   8.668   8.704
  251POPC   D2A 7936   6.502   8.568   8.272
  251POPC   C3A 7937   6.392   8.822   7.881
  251POPC   C4A 7938   6.540   9.217   7.543
  251POPC   C1B 7939   6.973   9.189   8.768
  251POPC   C2B 7940   6.951   9.049   8.330
  251POPC   C3B 7941   6.921   9.077   7.887
  251POPC   C4B 7942   6.773   8.776   7.579
  252POPC   NC3 7943  17.954  41.231   9.515
  252POPC   PO4 7944  17.493  41.805   9.504
  252POPC   GL1 7945  17.538  41.553   9.184
  252POPC   GL2 7946  17.837  41.612   9.103
  252POPC   C1A 7947  17.418  41.407   8.781
  252POPC   D2A 7948  17.544  41.459   8.350
  252POPC   C3A 7949  17.474  41.439   7.914
  252POPC   C4A 7950  17.186  41.653   7.664
  252POPC   C1B 7951  17.812  41.797   8.683
  252POPC   C2B 7952  18.010  41.614   8.302
  252POPC   C3B 7953  17.967  41.549   7.890
  252POPC   C4B 7954  17.693  41.746   7.587
  253POPC   NC3 7955  16.442  17.551   9.510
  253POPC   PO4 7956  16.708  18.167   9.561
  253POPC   GL1 7957  16.627  17.899   9.161
  253POPC   GL2 7958  16.832  17.586   9.147
  253POPC   C1A 7959  16.702  17.811   8.695
  253POPC   D2A 7960  16.493  17.905   8.297
  253POPC   C3A 7961  16.665  17.721   7.931
  253POPC   C4A 7962  16.663  17.307   7.717
  253POPC   C1B 7963  16.866  17.328   8.751
  253POPC   C2B 7964  16.785  17.367   8.293
  253POPC   C3B 7965  17.103  17.451   7.958
  253POPC   C4B 7966  17.327  17.338   7.570
  254POPC   NC3 7967  15.364  32.830   9.584
  254POPC   PO4 7968  15.081  33.490   9.512
  254POPC   GL1 7969  15.228  33.310   9.165
  254POPC   GL2 7970  15.192  32.996   9.153
  254POPC   C1A 7971  15.049  33.283   8.757
  254POPC   D2A 7972  14.915  32.945   8.477
  254POPC   C3A 7973  14.916  33.032   8.031
  254POPC   C4A 7974  15.046  32.793   7.668
  254POPC   C1B 7975  15.431  32.955   8.788
  254POPC   C2B 7976  15.400  32.746   8.409
  254POPC   C3B 7977  15.404  32.918   8.046
  254POPC   C4B 7978  15.662  33.013   7.780
  255POPC   NC3 7979  35.962   6.006   9.446
  255POPC   PO4 7980  36.678   6.192   9.462
  255POPC   GL1 7981  36.357   6.125   9.124
  255POPC   GL2 7982  36.225   5.772   9.030
  255POPC   C1A 7983  36.199   6.154   8.701
  255POPC   D2A 7984  36.312   5.958   8.315
  255POPC   C3A 7985  36.084   6.081   7.943
  255POPC   C4A 7986  36.174   5.937   7.546
  255POPC   C1B 7987  36.038   5.594   8.645
  255POPC   C2B 7988  35.952   5.594   8.198
  255POPC   C3B 7989  35.909   5.573   7.766
  255POPC   C4B 7990  35.749   5.539   7.332
  256POPC   NC3 7991  35.812   8.404   9.457
  256POPC   PO4 7992  35.387   7.933   9.824
  256POPC   GL1 7993  35.439   8.054   9.350
  256POPC   GL2 7994  35.472   7.825   9.063
  256POPC   C1A 7995  35.432   8.343   8.947
  256POPC   D2A 7996  35.642   8.235   8.555
  256POPC   C3A 7997  35.419   8.266   8.170
  256POPC   C4A 7998  35.535   8.310   7.758
  256POPC   C1B 7999  35.172   7.975   8.716
  256POPC   C2B 8000  34.973   8.040   8.315
  256POPC   C3B 8001  35.021   7.741   7.991
  256POPC   C4B 8002  35.173   7.804   7.553
  257POPC   NC3 8003  18.661   2.554   9.566
  257POPC   PO4 8004  18.481   3.102   9.312
  257POPC   GL1 8005  18.585   2.814   9.010
  257POPC   GL2 8006  18.584   2.451   9.043
  257POPC   C1A 8007  18.424   2.756   8.601
  257POPC   D2A 8008  18.548   2.503   8.270
  257POPC   C3A 8009  18.427   2.649   7.905
  257POPC   C4A 8010  18.504   2.940   7.576
  257POPC   C1B 8011  18.313   2.262   8.695
  257POPC   C2B 8012  18.028   2.352   8.328
  257POPC   C3B 8013  17.927   2.719   8.062
  257POPC   C4B 8014  18.008   2.812   7.636
  258POPC   NC3 8015  33.883  34.287   9.394
  258POPC   PO4 8016  33.415  34.658   9.723
  258POPC   GL1 8017  33.565  34.685   9.223
  258POPC   GL2 8018  33.899  34.657   9.021
  258POPC   C1A 8019  33.483  34.649   8.720
  258POPC   D2A 8020  33.425  34.377   8.328
  258POPC   C3A 8021  33.690  34.479   7.950
  258POPC   C4A 8022  33.697  34.830   7.678
  258POPC   C1B 8023  33.927  34.402   8.606
  258POPC   C2B 8024  34.076  34.238   8.184
  258POPC   C3B 8025  34.190  34.440   7.783
  258POPC   C4B 8026  33.928  34.368   7.431
  259POPC   NC3 8027  12.979   4.102   9.626
  259POPC   PO4 8028  12.406   4.335   9.873
  259POPC   GL1 8029  12.517   4.293   9.363
  259POPC   GL2 8030  12.631   3.984   9.234
  259POPC   C1A 8031  12.719   4.382   8.869
  259POPC   D2A 8032  12.899   4.241   8.402
  259POPC   C3A 8033  12.873   4.428   7.940
  259POPC   C4A 8034  12.608   4.794   7.795
  259POPC   C1B 8035  12.742   3.877   8.788
  259POPC   C2B 8036  13.044   3.742   8.461
  259POPC   C3B 8037  12.993   3.869   8.048
  259POPC   C4B 8038  12.581   4.028   7.968
  260POPC   NC3 8039   6.023  30.472   9.473
  260POPC   PO4 8040   5.547  30.895   9.542
  260POPC   GL1 8041   5.833  30.882   9.209
  260POPC   GL2 8042   5.715  30.563   9.084
  260POPC   C1A 8043   6.056  30.915   8.807
  260POPC   D2A 8044   5.929  31.158   8.435
  260POPC   C3A 8045   5.881  30.996   7.994
  260POPC   C4A 8046   6.081  30.888   7.579
  260POPC   C1B 8047   5.437  30.406   8.768
  260POPC   C2B 8048   5.444  30.207   8.336
  260POPC   C3B 8049   5.450  30.300   7.881
  260POPC   C4B 8050   5.855  30.430   7.696
  261POPC   NC3 8051  44.960   8.185   9.454
  261POPC   PO4 8052   0.681   8.039   9.427
  261POPC   GL1 8053   0.383   8.142   9.155
  261POPC   GL2 8054   0.197   8.395   9.047
  261POPC   C1A 8055   0.310   7.993   8.741
  261POPC   D2A 8056   0.166   7.778   8.414
  261POPC   C3A 8057   0.419   7.934   8.124
  261POPC   C4A 8058   0.362   8.027   7.691
  261POPC   C1B 8059   0.560   8.450   8.802
  261POPC   C2B 8060   0.579   8.354   8.397
  261POPC   C3B 8061   0.409   8.427   8.018
  261POPC   C4B 8062   0.569   8.490   7.648
  262POPC   NC3 8063  31.530  22.309   9.555
  262POPC   PO4 8064  31.659  21.629   9.501
  262POPC   GL1 8065  31.601  21.970   9.150
  262POPC   GL2 8066  31.365  22.280   9.092
  262POPC   C1A 8067  31.570  21.995   8.694
  262POPC   D2A 8068  31.859  21.919   8.367
  262POPC   C3A 8069  31.718  22.175   8.088
  262POPC   C4A 8070  31.399  22.094   7.831
  262POPC   C1B 8071  31.369  22.466   8.704
  262POPC   C2B 8072  31.280  22.372   8.279
  262POPC   C3B 8073  31.432  22.582   7.901
  262POPC   C4B 8074  31.640  22.531   7.514
  263POPC   NC3 8075  34.121   9.547   9.485
  263POPC   PO4 8076  33.654  10.016   9.655
  263POPC   GL1 8077  33.737   9.777   9.262
  263POPC   GL2 8078  34.015   9.812   9.030
  263POPC   C1A 8079  33.641   9.472   8.965
  263POPC   D2A 8080  33.719   9.617   8.540
  263POPC   C3A 8081  33.480   9.578   8.137
  263POPC   C4A 8082  33.644   9.721   7.726
  263POPC   C1B 8083  34.121   9.416   8.846
  263POPC   C2B 8084  34.116   9.307   8.438
  263POPC   C3B 8085  33.981   9.528   8.079
  263POPC   C4B 8086  34.156   9.484   7.671
  264POPC   NC3 8087  15.062  18.494   9.500
  264POPC   PO4 8088  15.417  19.144   9.482
  264POPC   GL1 8089  15.375  18.952   9.120
  264POPC   GL2 8090  15.147  19.160   9.023
  264POPC   C1A 8091  15.372  18.885   8.662
  264POPC   D2A 8092  15.289  19.037   8.254
  264POPC   C3A 8093  15.447  18.922   7.840
  264POPC   C4A 8094  15.075  18.864   7.558
  264POPC   C1B 8095  15.013  19.257   8.633
  264POPC   C2B 8096  14.838  19.290   8.213
  264POPC   C3B 8097  15.062  19.269   7.842
  264POPC   C4B 8098  15.091  19.347   7.381
  265POPC   NC3 8099   5.686  33.157   9.557
  265POPC   PO4 8100   6.247  32.821   9.679
  265POPC   GL1 8101   6.050  32.973   9.237
  265POPC   GL2 8102   5.687  32.840   9.154
  265POPC   C1A 8103   6.013  32.818   8.775
  265POPC   D2A 8104   5.782  32.759   8.407
  265POPC   C3A 8105   6.093  32.916   8.142
  265POPC   C4A 8106   6.041  33.188   7.768
  265POPC   C1B 8107   5.724  33.217   8.878
  265POPC   C2B 8108   5.919  33.282   8.471
  265POPC   C3B 8109   5.690  33.229   8.107
  265POPC   C4B 8110   5.473  33.170   7.730
  266POPC   NC3 8111  24.761  14.074   9.351
  266POPC   PO4 8112  24.769  14.778   9.443
  266POPC   GL1 8113  24.522  14.669   9.080
  266POPC   GL2 8114  24.421  14.319   9.070
  266POPC   C1A 8115  24.628  14.642   8.624
  266POPC   D2A 8116  24.476  14.824   8.229
  266POPC   C3A 8117  24.566  14.627   7.855
  266POPC   C4A 8118  24.522  14.240   7.627
  266POPC   C1B 8119  24.563  14.144   8.665
  266POPC   C2B 8120  24.568  14.186   8.209
  266POPC   C3B 8121  24.852  13.987   7.903
  266POPC   C4B 8122  24.972  14.095   7.436
  267POPC   NC3 8123  40.732  23.990   9.252
  267POPC   PO4 8124  40.213  23.630   9.554
  267POPC   GL1 8125  40.072  23.597   9.133
  267POPC   GL2 8126  40.022  23.950   9.067
  267POPC   C1A 8127  39.926  23.521   8.718
  267POPC   D2A 8128  40.004  23.626   8.301
  267POPC   C3A 8129  39.693  23.627   7.977
  267POPC   C4A 8130  39.858  23.522   7.585
  267POPC   C1B 8131  40.309  24.110   8.720
  267POPC   C2B 8132  40.193  24.095   8.298
  267POPC   C3B 8133  40.133  23.926   7.890
  267POPC   C4B 8134  40.123  23.931   7.450
  268POPC   NC3 8135  32.864  17.978   9.557
  268POPC   PO4 8136  33.282  18.513   9.799
  268POPC   GL1 8137  33.077  18.458   9.391
  268POPC   GL2 8138  33.280  18.226   9.198
  268POPC   C1A 8139  32.993  18.566   8.931
  268POPC   D2A 8140  33.071  18.558   8.446
  268POPC   C3A 8141  32.975  18.174   8.215
  268POPC   C4A 8142  33.033  18.051   7.792
  268POPC   C1B 8143  33.426  18.313   8.739
  268POPC   C2B 8144  33.480  18.255   8.244
  268POPC   C3B 8145  33.314  18.465   7.825
  268POPC   C4B 8146  33.327  18.279   7.383
  269POPC   NC3 8147  10.780  15.781   9.578
  269POPC   PO4 8148  10.489  16.378   9.610
  269POPC   GL1 8149  10.667  16.125   9.196
  269POPC   GL2 8150  10.568  15.773   9.125
  269POPC   C1A 8151  10.514  16.048   8.707
  269POPC   D2A 8152  10.567  16.096   8.244
  269POPC   C3A 8153  10.184  16.040   8.009
  269POPC   C4A 8154  10.225  15.816   7.614
  269POPC   C1B 8155  10.737  15.602   8.727
  269POPC   C2B 8156  10.780  15.637   8.302
  269POPC   C3B 8157  10.638  15.617   7.880
  269POPC   C4B 8158  10.878  15.718   7.509
  270POPC   NC3 8159   3.161  36.950   9.381
  270POPC   PO4 8160   2.613  36.583   9.587
  270POPC   GL1 8161   2.711  36.747   9.186
  270POPC   GL2 8162   3.001  36.709   8.978
  270POPC   C1A 8163   2.564  36.904   8.800
  270POPC   D2A 8164   2.799  36.806   8.435
  270POPC   C3A 8165   2.763  37.095   8.104
  270POPC   C4A 8166   2.584  37.060   7.737
  270POPC   C1B 8167   3.164  36.459   8.686
  270POPC   C2B 8168   3.053  36.381   8.296
  270POPC   C3B 8169   3.045  36.662   7.981
  270POPC   C4B 8170   3.179  36.993   7.754
  271POPC   NC3 8171   4.495  40.220   9.431
  271POPC   PO4 8172   4.252  39.675   9.253
  271POPC   GL1 8173   4.275  40.002   9.002
  271POPC   GL2 8174   4.098  39.822   8.776
  271POPC   C1A 8175   4.603  40.145   8.754
  271POPC   D2A 8176   4.754  40.368   8.371
  271POPC   C3A 8177   4.686  40.114   8.031
  271POPC   C4A 8178   4.419  39.913   7.804
  271POPC   C1B 8179   3.798  40.137   8.796
  271POPC   C2B 8180   3.665  40.138   8.385
  271POPC   C3B 8181   3.944  39.954   8.091
  271POPC   C4B 8182   3.937  40.087   7.695
  272POPC   NC3 8183  27.324  13.269   9.721
  272POPC   PO4 8184  27.740  13.784   9.482
  272POPC   GL1 8185  27.740  13.574   9.096
  272POPC   GL2 8186  27.526  13.273   9.185
  272POPC   C1A 8187  27.628  13.507   8.654
  272POPC   D2A 8188  27.567  13.778   8.304
  272POPC   C3A 8189  27.699  13.726   7.900
  272POPC   C4A 8190  27.753  13.834   7.494
  272POPC   C1B 8191  27.178  13.262   8.863
  272POPC   C2B 8192  27.281  13.128   8.481
  272POPC   C3B 8193  27.521  13.256   8.114
  272POPC   C4B 8194  27.335  13.405   7.727
  273POPC   NC3 8195   3.833   0.707   9.675
  273POPC   PO4 8196   3.371   0.287   9.449
  273POPC   GL1 8197   3.631   0.382   9.136
  273POPC   GL2 8198   3.801   0.100   8.993
  273POPC   C1A 8199   3.445   0.453   8.745
  273POPC   D2A 8200   3.259   0.431   8.340
  273POPC   C3A 8201   3.502   0.548   7.970
  273POPC   C4A 8202   3.453   0.265   7.641
  273POPC   C1B 8203   3.957   0.428   8.740
  273POPC   C2B 8204   3.812   0.418   8.353
  273POPC   C3B 8205   3.885   0.204   7.996
  273POPC   C4B 8206   3.982   0.547   7.721
  274POPC   NC3 8207  22.138   6.372   9.485
  274POPC   PO4 8208  22.442   7.048   9.423
  274POPC   GL1 8209  22.209   6.746   9.167
  274POPC   GL2 8210  21.841   6.644   9.081
  274POPC   C1A 8211  22.195   6.458   8.786
  274POPC   D2A 8212  22.264   6.354   8.358
  274POPC   C3A 8213  22.167   6.295   7.877
  274POPC   C4A 8214  22.549   6.202   7.623
  274POPC   C1B 8215  22.066   6.942   8.753
  274POPC   C2B 8216  22.313   6.897   8.420
  274POPC   C3B 8217  22.141   6.766   8.066
  274POPC   C4B 8218  21.945   6.722   7.653
  275POPC   NC3 8219  17.164  38.542   9.479
  275POPC   PO4 8220  17.717  38.210   9.514
  275POPC   GL1 8221  17.448  38.352   9.112
  275POPC   GL2 8222  17.310  38.747   9.056
  275POPC   C1A 8223  17.129  38.364   8.772
  275POPC   D2A 8224  17.024  38.561   8.349
  275POPC   C3A 8225  17.249  38.335   8.002
  275POPC   C4A 8226  17.400  38.068   7.660
  275POPC   C1B 8227  17.453  38.722   8.629
  275POPC   C2B 8228  17.430  38.888   8.217
  275POPC   C3B 8229  17.640  38.919   7.803
  275POPC   C4B 8230  17.874  38.808   7.414
  276POPC   NC3 8231  31.827  42.571   9.577
  276POPC   PO4 8232  31.165  42.635   9.511
  276POPC   GL1 8233  31.436  42.326   9.274
  276POPC   GL2 8234  31.798  42.172   9.272
  276POPC   C1A 8235  31.376  42.222   8.858
  276POPC   D2A 8236  31.094  42.320   8.540
  276POPC   C3A 8237  31.254  42.346   8.154
  276POPC   C4A 8238  31.112  42.095   7.837
  276POPC   C1B 8239  31.898  42.321   8.858
  276POPC   C2B 8240  31.705  42.219   8.452
  276POPC   C3B 8241  31.734  42.145   8.019
  276POPC   C4B 8242  31.554  41.844   7.789
  277POPC   NC3 8243  16.432  39.079   9.522
  277POPC   PO4 8244  15.738  38.800   9.563
  277POPC   GL1 8245  16.013  39.076   9.230
  277POPC   GL2 8246  16.177  39.435   9.240
  277POPC   C1A 8247  16.227  39.144   8.821
  277POPC   D2A 8248  16.026  39.035   8.469
  277POPC   C3A 8249  16.176  39.182   8.117
  277POPC   C4A 8250  15.866  39.230   7.797
  277POPC   C1B 8251  15.849  39.470   8.893
  277POPC   C2B 8252  15.664  39.454   8.471
  277POPC   C3B 8253  15.485  39.487   8.063
  277POPC   C4B 8254  15.609  39.718   7.692
  278POPC   NC3 8255  27.042  27.083   9.343
  278POPC   PO4 8256  26.735  26.516   9.454
  278POPC   GL1 8257  26.809  26.645   9.064
  278POPC   GL2 8258  26.528  26.436   8.988
  278POPC   C1A 8259  26.906  26.929   8.716
  278POPC   D2A 8260  27.163  27.122   8.395
  278POPC   C3A 8261  26.952  27.044   8.040
  278POPC   C4A 8262  26.667  26.809   7.787
  278POPC   C1B 8263  26.429  26.740   8.704
  278POPC   C2B 8264  26.523  26.879   8.288
  278POPC   C3B 8265  26.486  27.245   7.972
  278POPC   C4B 8266  26.553  27.235   7.496
  279POPC   NC3 8267   4.817  37.216   9.236
  279POPC   PO4 8268   5.337  37.523   9.615
  279POPC   GL1 8269   5.217  37.601   9.111
  279POPC   GL2 8270   4.884  37.572   8.901
  279POPC   C1A 8271   5.203  37.918   8.748
  279POPC   D2A 8272   5.387  38.038   8.353
  279POPC   C3A 8273   5.260  37.822   8.005
  279POPC   C4A 8274   5.388  37.422   7.780
  279POPC   C1B 8275   4.688  37.768   8.557
  279POPC   C2B 8276   4.768  37.850   8.126
  279POPC   C3B 8277   4.867  37.736   7.725
  279POPC   C4B 8278   4.737  37.509   7.426
  280POPC   NC3 8279  33.666  39.901   9.519
  280POPC   PO4 8280  34.248  40.098   9.349
  280POPC   GL1 8281  33.916  40.017   9.070
  280POPC   GL2 8282  33.778  39.696   9.052
  280POPC   C1A 8283  33.682  40.082   8.691
  280POPC   D2A 8284  33.488  39.936   8.308
  280POPC   C3A 8285  33.645  40.093   7.923
  280POPC   C4A 8286  34.009  40.351   7.772
  280POPC   C1B 8287  33.636  39.576   8.637
  280POPC   C2B 8288  33.632  39.452   8.218
  280POPC   C3B 8289  33.715  39.591   7.799
  280POPC   C4B 8290  34.011  39.535   7.469
  281POPC   NC3 8291  25.669  33.898   9.638
  281POPC   PO4 8292  25.191  34.222   9.724
  281POPC   GL1 8293  25.451  34.202   9.273
  281POPC   GL2 8294  25.439  33.824   9.165
  281POPC   C1A 8295  25.516  34.146   8.772
  281POPC   D2A 8296  25.534  33.832   8.388
  281POPC   C3A 8297  25.467  33.908   7.905
  281POPC   C4A 8298  25.165  33.694   7.566
  281POPC   C1B 8299  25.512  33.439   8.876
  281POPC   C2B 8300  25.676  33.329   8.454
  281POPC   C3B 8301  25.416  33.420   8.080
  281POPC   C4B 8302  25.575  33.434   7.679
  282POPC   NC3 8303  16.205  32.003   9.478
  282POPC   PO4 8304  15.588  32.415   9.535
  282POPC   GL1 8305  15.651  32.211   9.160
  282POPC   GL2 8306  15.976  32.328   9.144
  282POPC   C1A 8307  15.780  32.075   8.741
  282POPC   D2A 8308  16.096  31.983   8.424
  282POPC   C3A 8309  15.926  31.898   8.052
  282POPC   C4A 8310  15.974  32.151   7.665
  282POPC   C1B 8311  16.243  32.307   8.789
  282POPC   C2B 8312  16.461  32.354   8.422
  282POPC   C3B 8313  16.256  32.314   8.055
  282POPC   C4B 8314  16.466  32.390   7.705
  283POPC   NC3 8315   0.454  37.147   9.510
  283POPC   PO4 8316   0.285  36.494   9.575
  283POPC   GL1 8317   0.565  36.678   9.269
  283POPC   GL2 8318   0.239  36.819   9.158
  283POPC   C1A 8319   0.800  36.652   8.870
  283POPC   D2A 8320   0.592  36.610   8.466
  283POPC   C3A 8321   0.611  36.888   8.108
  283POPC   C4A 8322   0.479  36.780   7.735
  283POPC   C1B 8323   0.427  37.008   8.810
  283POPC   C2B 8324   0.298  37.177   8.411
  283POPC   C3B 8325   0.107  37.009   8.055
  283POPC   C4B 8326   0.035  37.080   7.638
  284POPC   NC3 8327  14.767  35.850   9.687
  284POPC   PO4 8328  14.540  36.470   9.678
  284POPC   GL1 8329  14.360  36.261   9.341
  284POPC   GL2 8330  14.487  36.467   9.084
  284POPC   C1A 8331  14.304  36.006   8.968
  284POPC   D2A 8332  14.132  35.931   8.560
  284POPC   C3A 8333  14.325  36.121   8.178
  284POPC   C4A 8334  14.127  36.068   7.786
  284POPC   C1B 8335  14.508  36.382   8.637
  284POPC   C2B 8336  14.745  36.433   8.259
  284POPC   C3B 8337  14.645  36.643   7.881
  284POPC   C4B 8338  14.235  36.565   7.751
  285POPC   NC3 8339  40.043  13.958   9.850
  285POPC   PO4 8340  39.980  13.415   9.483
  285POPC   GL1 8341  39.950  13.539   9.047
  285POPC   GL2 8342  39.816  13.846   9.105
  285POPC   C1A 8343  39.711  13.463   8.692
  285POPC   D2A 8344  39.577  13.320   8.310
  285POPC   C3A 8345  39.863  13.424   7.960
  285POPC   C4A 8346  40.241  13.428   7.675
  285POPC   C1B 8347  39.926  13.931   8.692
  285POPC   C2B 8348  40.033  13.822   8.248
  285POPC   C3B 8349  40.036  13.896   7.782
  285POPC   C4B 8350  39.990  14.010   7.331
  286POPC   NC3 8351   3.646  13.621   9.514
  286POPC   PO4 8352   3.111  14.169   9.460
  286POPC   GL1 8353   3.280  13.786   9.164
  286POPC   GL2 8354   3.386  13.371   9.162
  286POPC   C1A 8355   3.516  13.665   8.761
  286POPC   D2A 8356   3.869  13.822   8.476
  286POPC   C3A 8357   3.943  13.695   8.032
  286POPC   C4A 8358   3.768  13.896   7.623
  286POPC   C1B 8359   3.541  13.154   8.774
  286POPC   C2B 8360   3.689  13.343   8.382
  286POPC   C3B 8361   3.458  13.606   8.105
  286POPC   C4B 8362   3.348  13.583   7.696
  287POPC   NC3 8363  11.226  14.126   9.481
  287POPC   PO4 8364  11.815  14.440   9.514
  287POPC   GL1 8365  11.568  14.323   9.127
  287POPC   GL2 8366  11.258  14.522   9.119
  287POPC   C1A 8367  11.414  14.389   8.654
  287POPC   D2A 8368  11.247  14.643   8.304
  287POPC   C3A 8369  11.219  14.367   7.956
  287POPC   C4A 8370  11.520  14.145   7.747
  287POPC   C1B 8371  10.973  14.247   8.859
  287POPC   C2B 8372  10.887  14.275   8.400
  287POPC   C3B 8373  10.868  13.991   8.064
  287POPC   C4B 8374  11.037  13.957   7.677
  288POPC   NC3 8375  25.372   3.299   9.529
  288POPC   PO4 8376  24.734   3.651   9.458
  288POPC   GL1 8377  25.033   3.460   9.165
  288POPC   GL2 8378  25.348   3.634   9.107
  288POPC   C1A 8379  25.134   3.224   8.812
  288POPC   D2A 8380  25.282   3.294   8.389
  288POPC   C3A 8381  24.995   3.387   8.068
  288POPC   C4A 8382  25.014   3.183   7.683
  288POPC   C1B 8383  25.187   3.734   8.661
  288POPC   C2B 8384  25.321   3.762   8.178
  288POPC   C3B 8385  25.399   3.529   7.764
  288POPC   C4B 8386  25.544   3.700   7.353
  289POPC   NC3 8387  32.981  37.152   9.478
  289POPC   PO4 8388  33.000  36.572   9.500
  289POPC   GL1 8389  32.979  36.710   9.129
  289POPC   GL2 8390  33.292  36.842   9.130
  289POPC   C1A 8391  33.089  36.547   8.739
  289POPC   D2A 8392  32.986  36.750   8.358
  289POPC   C3A 8393  33.193  36.728   7.992
  289POPC   C4A 8394  32.843  36.972   7.853
  289POPC   C1B 8395  33.215  37.046   8.717
  289POPC   C2B 8396  33.310  37.192   8.313
  289POPC   C3B 8397  33.267  37.251   7.886
  289POPC   C4B 8398  33.454  37.368   7.501
  290POPC   NC3 8399   7.310   2.334   9.649
  290POPC   PO4 8400   7.783   2.606   9.289
  290POPC   GL1 8401   7.595   2.921   9.035
  290POPC   GL2 8402   7.271   2.802   9.113
  290POPC   C1A 8403   7.612   2.979   8.604
  290POPC   D2A 8404   7.402   2.651   8.374
  290POPC   C3A 8405   7.620   2.495   8.031
  290POPC   C4A 8406   7.462   2.722   7.761
  290POPC   C1B 8407   7.118   2.925   8.723
  290POPC   C2B 8408   7.205   3.139   8.350
  290POPC   C3B 8409   7.149   3.069   7.951
  290POPC   C4B 8410   6.970   2.734   7.692
  291POPC   NC3 8411  40.939  35.027   9.508
  291POPC   PO4 8412  41.051  35.668   9.629
  291POPC   GL1 8413  41.034  35.503   9.231
  291POPC   GL2 8414  40.697  35.459   9.195
  291POPC   C1A 8415  41.004  35.401   8.798
  291POPC   D2A 8416  40.830  35.220   8.440
  291POPC   C3A 8417  41.002  35.291   8.036
  291POPC   C4A 8418  40.714  35.524   7.819
  291POPC   C1B 8419  40.586  35.099   8.903
  291POPC   C2B 8420  40.341  35.064   8.489
  291POPC   C3B 8421  40.539  35.012   8.068
  291POPC   C4B 8422  40.492  34.920   7.649
  292POPC   NC3 8423  43.548  22.634   9.571
  292POPC   PO4 8424  44.201  22.720   9.526
  292POPC   GL1 8425  44.113  22.892   9.175
  292POPC   GL2 8426  43.768  23.008   9.235
  292POPC   C1A 8427  44.269  23.021   8.786
  292POPC   D2A 8428  44.051  23.104   8.416
  292POPC   C3A 8429  44.114  23.036   8.012
  292POPC   C4A 8430  43.767  23.281   7.784
  292POPC   C1B 8431  43.751  22.898   8.794
  292POPC   C2B 8432  43.794  22.648   8.410
  292POPC   C3B 8433  43.680  22.735   7.982
  292POPC   C4B 8434  43.532  22.576   7.563
  293POPC   NC3 8435   0.026   9.849   9.269
  293POPC   PO4 8436  44.485   9.950   9.587
  293POPC   GL1 8437  44.526   9.787   9.108
  293POPC   GL2 8438  44.802   9.590   8.919
  293POPC   C1A 8439  44.447   9.794   8.634
  293POPC   D2A 8440  44.649  10.014   8.293
  293POPC   C3A 8441  44.683   9.823   7.910
  293POPC   C4A 8442  44.424   9.554   7.664
  293POPC   C1B 8443  44.988   9.792   8.619
  293POPC   C2B 8444   0.028   9.631   8.242
  293POPC   C3B 8445  44.798   9.340   7.989
  293POPC   C4B 8446  44.885   9.404   7.575
  294POPC   NC3 8447  11.975  28.293   9.566
  294POPC   PO4 8448  11.639  28.877   9.525
  294POPC   GL1 8449  11.800  28.603   9.165
  294POPC   GL2 8450  12.154  28.438   9.128
  294POPC   C1A 8451  11.836  28.490   8.736
  294POPC   D2A 8452  11.919  28.324   8.372
  294POPC   C3A 8453  12.129  28.595   8.120
  294POPC   C4A 8454  11.948  28.439   7.780
  294POPC   C1B 8455  12.225  28.143   8.780
  294POPC   C2B 8456  12.414  28.214   8.368
  294POPC   C3B 8457  12.326  28.158   7.951
  294POPC   C4B 8458  12.241  28.150   7.487
  295POPC   NC3 8459   5.245  10.987   9.636
  295POPC   PO4 8460   5.060  10.376   9.497
  295POPC   GL1 8461   4.914  10.481   9.123
  295POPC   GL2 8462   5.049  10.799   9.170
  295POPC   C1A 8463   4.943  10.369   8.727
  295POPC   D2A 8464   5.199  10.400   8.400
  295POPC   C3A 8465   5.002  10.476   8.024
  295POPC   C4A 8466   4.786  10.300   7.697
  295POPC   C1B 8467   5.227  10.807   8.762
  295POPC   C2B 8468   5.402  10.864   8.343
  295POPC   C3B 8469   5.233  10.919   7.921
  295POPC   C4B 8470   5.012  11.057   7.569
  296POPC   NC3 8471  10.719  35.198   9.622
  296POPC   PO4 8472  10.173  35.566   9.660
  296POPC   GL1 8473  10.378  35.465   9.257
  296POPC   GL2 8474  10.696  35.645   9.193
  296POPC   C1A 8475  10.383  35.336   8.797
  296POPC   D2A 8476  10.446  35.014   8.443
  296POPC   C3A 8477  10.464  35.166   8.003
  296POPC   C4A 8478  10.317  35.065   7.595
  296POPC   C1B 8479  10.750  35.733   8.713
  296POPC   C2B 8480  10.637  35.844   8.258
  296POPC   C3B 8481  10.629  35.701   7.836
  296POPC   C4B 8482  10.801  35.917   7.428
  297POPC   NC3 8483   7.838  12.903   9.460
  297POPC   PO4 8484   8.374  12.617   9.843
  297POPC   GL1 8485   8.338  12.717   9.337
  297POPC   GL2 8486   8.122  12.872   9.044
  297POPC   C1A 8487   8.445  12.478   8.950
  297POPC   D2A 8488   8.541  12.308   8.502
  297POPC   C3A 8489   8.514  12.645   8.187
  297POPC   C4A 8490   8.449  12.684   7.729
  297POPC   C1B 8491   8.144  12.711   8.603
  297POPC   C2B 8492   7.805  12.568   8.339
  297POPC   C3B 8493   7.635  12.726   7.957
  297POPC   C4B 8494   8.007  12.930   7.756
  298POPC   NC3 8495  23.167  13.743   9.268
  298POPC   PO4 8496  22.784  13.176   9.450
  298POPC   GL1 8497  23.063  13.189   9.043
  298POPC   GL2 8498  23.275  13.478   8.857
  298POPC   C1A 8499  22.921  13.232   8.614
  298POPC   D2A 8500  22.856  13.638   8.403
  298POPC   C3A 8501  22.926  13.681   7.973
  298POPC   C4A 8502  22.692  13.891   7.641
  298POPC   C1B 8503  23.218  13.894   8.648
  298POPC   C2B 8504  23.078  14.093   8.227
  298POPC   C3B 8505  23.206  14.042   7.778
  298POPC   C4B 8506  23.087  14.068   7.355
  299POPC   NC3 8507  31.007  17.961   9.378
  299POPC   PO4 8508  31.533  18.406   9.482
  299POPC   GL1 8509  31.450  18.227   9.116
  299POPC   GL2 8510  31.142  18.394   9.123
  299POPC   C1A 8511  31.342  18.120   8.704
  299POPC   D2A 8512  31.557  18.083   8.334
  299POPC   C3A 8513  31.458  18.119   7.905
  299POPC   C4A 8514  31.542  18.044   7.453
  299POPC   C1B 8515  31.111  18.569   8.730
  299POPC   C2B 8516  31.020  18.372   8.335
  299POPC   C3B 8517  30.972  18.616   7.996
  299POPC   C4B 8518  31.200  18.610   7.677
  300POPC   NC3 8519   1.908  29.849   9.458
  300POPC   PO4 8520   2.068  30.482   9.523
  300POPC   GL1 8521   1.977  30.222   9.147
  300POPC   GL2 8522   2.230  29.978   9.099
  300POPC   C1A 8523   1.853  29.965   8.744
  300POPC   D2A 8524   1.947  29.716   8.335
  300POPC   C3A 8525   1.741  29.756   7.913
  300POPC   C4A 8526   1.753  29.735   7.443
  300POPC   C1B 8527   2.316  29.695   8.730
  300POPC   C2B 8528   2.454  29.673   8.292
  300POPC   C3B 8529   2.472  29.606   7.874
  300POPC   C4B 8530   2.181  29.882   7.677
  301POPC   NC3 8531  32.535   1.673   9.495
  301POPC   PO4 8532  32.188   2.157   9.432
  301POPC   GL1 8533  32.413   2.039   9.100
  301POPC   GL2 8534  32.551   1.735   9.010
  301POPC   C1A 8535  32.515   2.188   8.724
  301POPC   D2A 8536  32.271   2.147   8.365
  301POPC   C3A 8537  32.411   2.117   7.984
  301POPC   C4A 8538  32.111   2.051   7.738
  301POPC   C1B 8539  32.236   1.741   8.710
  301POPC   C2B 8540  32.366   1.592   8.357
  301POPC   C3B 8541  32.242   1.618   7.969
  301POPC   C4B 8542  32.402   1.683   7.548
  302POPC   NC3 8543  41.804   9.087   9.316
  302POPC   PO4 8544  41.287   8.699   9.435
  302POPC   GL1 8545  41.501   8.720   9.029
  302POPC   GL2 8546  41.841   8.807   8.894
  302POPC   C1A 8547  41.369   8.719   8.587
  302POPC   D2A 8548  41.295   9.030   8.255
  302POPC   C3A 8549  41.228   8.885   7.835
  302POPC   C4A 8550  41.432   9.047   7.477
  302POPC   C1B 8551  41.928   9.217   8.660
  302POPC   C2B 8552  41.883   9.460   8.265
  302POPC   C3B 8553  41.692   9.189   7.939
  302POPC   C4B 8554  41.719   8.766   7.940
  303POPC   NC3 8555  37.498  20.744   9.636
  303POPC   PO4 8556  37.882  20.400   9.250
  303POPC   GL1 8557  37.701  20.672   9.030
  303POPC   GL2 8558  37.358  20.670   9.124
  303POPC   C1A 8559  37.821  20.654   8.635
  303POPC   D2A 8560  37.607  20.728   8.324
  303POPC   C3A 8561  37.882  20.687   7.997
  303POPC   C4A 8562  37.750  21.014   7.822
  303POPC   C1B 8563  37.416  20.347   8.785
  303POPC   C2B 8564  37.650  20.171   8.453
  303POPC   C3B 8565  37.524  20.316   8.067
  303POPC   C4B 8566  37.376  20.661   7.842
  304POPC   NC3 8567  25.357  37.158   9.784
  304POPC   PO4 8568  25.075  37.680   9.514
  304POPC   GL1 8569  25.363  37.657   9.163
  304POPC   GL2 8570  25.202  37.426   8.890
  304POPC   C1A 8571  25.559  37.772   8.776
  304POPC   D2A 8572  25.494  37.545   8.389
  304POPC   C3A 8573  25.322  37.651   7.981
  304POPC   C4A 8574  25.294  37.644   7.539
  304POPC   C1B 8575  25.044  37.719   8.575
  304POPC   C2B 8576  24.909  37.888   8.152
  304POPC   C3B 8577  24.822  37.716   7.725
  304POPC   C4B 8578  24.817  37.879   7.275
  305POPC   NC3 8579  44.006  27.184   9.409
  305POPC   PO4 8580  43.447  27.582   9.477
  305POPC   GL1 8581  43.734  27.649   9.175
  305POPC   GL2 8582  43.673  27.331   9.064
  305POPC   C1A 8583  43.915  27.731   8.781
  305POPC   D2A 8584  44.168  27.554   8.462
  305POPC   C3A 8585  43.995  27.749   8.134
  305POPC   C4A 8586  44.024  27.738   7.731
  305POPC   C1B 8587  43.859  27.204   8.719
  305POPC   C2B 8588  43.717  27.247   8.317
  305POPC   C3B 8589  43.705  27.387   7.922
  305POPC   C4B 8590  43.504  27.740   7.784
  306POPC   NC3 8591  41.316  38.520   9.460
  306POPC   PO4 8592  42.000  38.394   9.360
  306POPC   GL1 8593  41.709  38.524   9.083
  306POPC   GL2 8594  41.439  38.306   9.016
  306POPC   C1A 8595  41.605  38.685   8.674
  306POPC   D2A 8596  41.274  38.829   8.387
  306POPC   C3A 8597  41.417  38.705   7.996
  306POPC   C4A 8598  41.854  38.685   7.966
  306POPC   C1B 8599  41.777  38.205   8.709
  306POPC   C2B 8600  41.742  38.300   8.282
  306POPC   C3B 8601  41.632  38.235   7.840
  306POPC   C4B 8602  41.415  38.143   7.419
  307POPC   NC3 8603  15.828  35.223   9.593
  307POPC   PO4 8604  16.067  35.776   9.416
  307POPC   GL1 8605  16.003  35.429   9.168
  307POPC   GL2 8606  16.321  35.286   9.229
  307POPC   C1A 8607  15.774  35.474   8.791
  307POPC   D2A 8608  15.623  35.561   8.410
  307POPC   C3A 8609  15.682  35.239   8.123
  307POPC   C4A 8610  15.658  35.370   7.740
  307POPC   C1B 8611  16.298  35.471   8.776
  307POPC   C2B 8612  16.103  35.356   8.391
  307POPC   C3B 8613  16.137  35.448   7.942
  307POPC   C4B 8614  16.434  35.227   7.717
  308POPC   NC3 8615  16.988   7.809   9.513
  308POPC   PO4 8616  17.110   7.153   9.524
  308POPC   GL1 8617  16.896   7.397   9.207
  308POPC   GL2 8618  17.026   7.722   9.027
  308POPC   C1A 8619  16.723   7.398   8.801
  308POPC   D2A 8620  16.937   7.640   8.515
  308POPC   C3A 8621  17.022   7.528   8.120
  308POPC   C4A 8622  16.930   7.563   7.715
  308POPC   C1B 8623  16.634   7.901   8.875
  308POPC   C2B 8624  16.596   8.022   8.459
  308POPC   C3B 8625  16.657   7.884   8.032
  308POPC   C4B 8626  16.429   7.852   7.643
  309POPC   NC3 8627  14.207   9.550   9.439
  309POPC   PO4 8628  14.818   9.389   9.340
  309POPC   GL1 8629  14.562   9.680   9.064
  309POPC   GL2 8630  14.331   9.972   9.160
  309POPC   C1A 8631  14.598   9.937   8.694
  309POPC   D2A 8632  14.673  10.119   8.298
  309POPC   C3A 8633  14.690   9.803   8.053
  309POPC   C4A 8634  14.865   9.817   7.688
  309POPC   C1B 8635  14.096   9.907   8.763
  309POPC   C2B 8636  14.221   9.856   8.295
  309POPC   C3B 8637  14.264   9.962   7.835
  309POPC   C4B 8638  14.106  10.095   7.425
  310POPC   NC3 8639  14.872  33.920   9.505
  310POPC   PO4 8640  15.494  34.136   9.526
  310POPC   GL1 8641  15.210  34.119   9.188
  310POPC   GL2 8642  15.154  33.806   9.063
  310POPC   C1A 8643  15.188  34.274   8.780
  310POPC   D2A 8644  15.229  34.212   8.339
  310POPC   C3A 8645  15.285  33.856   8.087
  310POPC   C4A 8646  14.926  33.784   7.826
  310POPC   C1B 8647  15.202  33.753   8.606
  310POPC   C2B 8648  15.218  33.388   8.291
  310POPC   C3B 8649  15.238  33.376   7.839
  310POPC   C4B 8650  15.340  33.182   7.461
  311POPC   NC3 8651  29.586  38.664   9.434
  311POPC   PO4 8652  30.200  38.333   9.471
  311POPC   GL1 8653  30.014  38.549   9.162
  311POPC   GL2 8654  30.301  38.787   9.137
  311POPC   C1A 8655  29.777  38.387   8.797
  311POPC   D2A 8656  29.603  38.230   8.385
  311POPC   C3A 8657  29.456  38.557   8.098
  311POPC   C4A 8658  29.704  38.754   7.760
  311POPC   C1B 8659  30.323  38.505   8.783
  311POPC   C2B 8660  30.115  38.486   8.418
  311POPC   C3B 8661  30.152  38.727   8.060
  311POPC   C4B 8662  30.216  38.417   7.782
  312POPC   NC3 8663  29.215  30.232   9.545
  312POPC   PO4 8664  29.481  30.905   9.496
  312POPC   GL1 8665  29.374  30.805   9.106
  312POPC   GL2 8666  29.373  30.454   9.108
  312POPC   C1A 8667  29.094  30.776   8.770
  312POPC   D2A 8668  29.300  30.666   8.423
  312POPC   C3A 8669  29.213  30.906   8.090
  312POPC   C4A 8670  28.864  31.026   7.867
  312POPC   C1B 8671  29.211  30.258   8.725
  312POPC   C2B 8672  28.916  30.328   8.370
  312POPC   C3B 8673  28.929  30.483   7.935
  312POPC   C4B 8674  29.190  30.700   7.622
  313POPC   NC3 8675  35.606  15.098   9.423
  313POPC   PO4 8676  34.968  15.074   9.495
  313POPC   GL1 8677  35.208  15.246   9.118
  313POPC   GL2 8678  35.505  15.514   9.154
  313POPC   C1A 8679  35.334  15.132   8.678
  313POPC   D2A 8680  35.496  14.771   8.426
  313POPC   C3A 8681  35.517  14.908   8.002
  313POPC   C4A 8682  35.345  15.093   7.661
  313POPC   C1B 8683  35.292  15.634   8.802
  313POPC   C2B 8684  35.132  15.529   8.441
  313POPC   C3B 8685  35.312  15.377   8.091
  313POPC   C4B 8686  35.440  15.561   7.721
  314POPC   NC3 8687   3.995  30.844   9.734
  314POPC   PO4 8688   3.538  31.143   9.375
  314POPC   GL1 8689   3.420  30.780   9.149
  314POPC   GL2 8690   3.232  30.475   9.246
  314POPC   C1A 8691   3.537  30.817   8.733
  314POPC   D2A 8692   3.553  31.009   8.320
  314POPC   C3A 8693   3.789  30.783   8.049
  314POPC   C4A 8694   3.889  30.897   7.654
  314POPC   C1B 8695   3.178  30.361   8.809
  314POPC   C2B 8696   3.248  30.247   8.364
  314POPC   C3B 8697   3.303  30.522   8.013
  314POPC   C4B 8698   3.364  30.903   7.760
  315POPC   NC3 8699  23.601  39.514   9.533
  315POPC   PO4 8700  23.098  39.643   9.328
  315POPC   GL1 8701  23.432  39.365   9.073
  315POPC   GL2 8702  23.832  39.373   9.078
  315POPC   C1A 8703  23.576  39.148   8.688
  315POPC   D2A 8704  23.641  39.325   8.280
  315POPC   C3A 8705  23.734  39.219   7.849
  315POPC   C4A 8706  23.522  39.427   7.516
  315POPC   C1B 8707  24.057  39.364   8.645
  315POPC   C2B 8708  24.142  39.363   8.169
  315POPC   C3B 8709  24.241  39.077   7.810
  315POPC   C4B 8710  24.014  38.741   7.595
  316POPC   NC3 8711  12.996  13.294   9.398
  316POPC   PO4 8712  12.653  12.644   9.427
  316POPC   GL1 8713  12.768  12.911   9.123
  316POPC   GL2 8714  12.950  12.664   8.981
  316POPC   C1A 8715  12.735  13.053   8.699
  316POPC   D2A 8716  12.511  13.094   8.308
  316POPC   C3A 8717  12.759  13.002   7.927
  316POPC   C4A 8718  12.877  12.720   7.606
  316POPC   C1B 8719  13.153  12.417   8.656
  316POPC   C2B 8720  13.165  12.526   8.228
  316POPC   C3B 8721  13.172  12.356   7.838
  316POPC   C4B 8722  13.244  12.401   7.380
  317POPC   NC3 8723  33.642   6.930   9.494
  317POPC   PO4 8724  34.089   7.340   9.323
  317POPC   GL1 8725  33.826   7.573   9.082
  317POPC   GL2 8726  33.559   7.767   9.265
  317POPC   C1A 8727  33.904   7.548   8.634
  317POPC   D2A 8728  33.807   7.339   8.244
  317POPC   C3A 8729  33.891   7.455   7.808
  317POPC   C4A 8730  34.161   7.607   7.481
  317POPC   C1B 8731  33.426   7.766   8.823
  317POPC   C2B 8732  33.539   7.813   8.390
  317POPC   C3B 8733  33.454   7.656   7.979
  317POPC   C4B 8734  33.495   7.609   7.503
  318POPC   NC3 8735   6.071  25.559   9.248
  318POPC   PO4 8736   5.892  26.140   9.461
  318POPC   GL1 8737   5.716  25.861   9.084
  318POPC   GL2 8738   5.980  25.851   8.836
  318POPC   C1A 8739   5.571  25.643   8.690
  318POPC   D2A 8740   5.903  25.751   8.311
  318POPC   C3A 8741   5.792  25.952   7.901
  318POPC   C4A 8742   5.709  26.405   7.852
  318POPC   C1B 8743   6.083  26.286   8.746
  318POPC   C2B 8744   6.383  26.391   8.428
  318POPC   C3B 8745   6.240  26.183   8.111
  318POPC   C4B 8746   6.169  26.258   7.728
  319POPC   NC3 8747   9.597  21.771   9.577
  319POPC   PO4 8748   9.762  21.066   9.416
  319POPC   GL1 8749   9.788  21.460   9.186
  319POPC   GL2 8750   9.470  21.684   9.098
  319POPC   C1A 8751   9.860  21.462   8.762
  319POPC   D2A 8752   9.658  21.207   8.457
  319POPC   C3A 8753   9.857  21.147   8.074
  319POPC   C4A 8754  10.016  21.412   7.777
  319POPC   C1B 8755   9.363  21.334   8.854
  319POPC   C2B 8756   9.116  21.194   8.500
  319POPC   C3B 8757   9.308  21.123   8.104
  319POPC   C4B 8758   9.473  21.529   7.938
  320POPC   NC3 8759  34.893  12.216   9.483
  320POPC   PO4 8760  34.252  11.873   9.515
  320POPC   GL1 8761  34.558  11.979   9.156
  320POPC   GL2 8762  34.904  11.795   9.178
  320POPC   C1A 8763  34.563  12.119   8.698
  320POPC   D2A 8764  34.504  11.984   8.276
  320POPC   C3A 8765  34.440  12.245   7.923
  320POPC   C4A 8766  34.334  11.928   7.643
  320POPC   C1B 8767  35.036  12.029   8.815
  320POPC   C2B 8768  34.993  12.091   8.382
  320POPC   C3B 8769  34.908  11.913   7.956
  320POPC   C4B 8770  34.817  11.794   7.520
  321POPC   NC3 8771   8.894  20.184   9.264
  321POPC   PO4 8772   8.845  20.758   9.669
  321POPC   GL1 8773   8.902  20.680   9.147
  321POPC   GL2 8774   9.134  20.468   8.938
  321POPC   C1A 8775   8.775  20.747   8.694
  321POPC   D2A 8776   8.704  20.582   8.244
  321POPC   C3A 8777   8.934  20.826   7.924
  321POPC   C4A 8778   8.952  20.853   7.453
  321POPC   C1B 8779   8.896  20.258   8.616
  321POPC   C2B 8780   8.731  20.061   8.267
  321POPC   C3B 8781   8.688  20.201   7.868
  321POPC   C4B 8782   9.030  20.369   7.724
  322POPC   NC3 8783  12.023  21.984   9.489
  322POPC   PO4 8784  11.638  22.497   9.529
  322POPC   GL1 8785  11.899  22.320   9.136
  322POPC   GL2 8786  11.876  21.931   8.998
  322POPC   C1A 8787  12.041  22.305   8.703
  322POPC   D2A 8788  11.874  22.031   8.383
  322POPC   C3A 8789  11.850  22.336   8.033
  322POPC   C4A 8790  11.930  22.549   7.607
  322POPC   C1B 8791  12.254  21.855   8.763
  322POPC   C2B 8792  12.375  22.048   8.353
  322POPC   C3B 8793  12.181  21.943   7.945
  322POPC   C4B 8794  12.160  21.692   7.566
  323POPC   NC3 8795  24.339  14.978   9.508
  323POPC   PO4 8796  24.634  15.490   9.397
  323POPC   GL1 8797  24.623  15.180   9.117
  323POPC   GL2 8798  24.287  15.235   9.056
  323POPC   C1A 8799  24.643  15.141   8.727
  323POPC   D2A 8800  24.384  15.268   8.463
  323POPC   C3A 8801  24.538  15.299   8.065
  323POPC   C4A 8802  24.354  15.475   7.751
  323POPC   C1B 8803  24.197  14.888   8.765
  323POPC   C2B 8804  24.000  14.944   8.396
  323POPC   C3B 8805  24.032  15.175   8.069
  323POPC   C4B 8806  24.106  14.961   7.756
  324POPC   NC3 8807  19.275   0.951   9.412
  324POPC   PO4 8808  18.656   1.331   9.481
  324POPC   GL1 8809  18.894   1.161   9.153
  324POPC   GL2 8810  19.201   1.353   9.051
  324POPC   C1A 8811  18.982   0.941   8.770
  324POPC   D2A 8812  19.015   1.169   8.368
  324POPC   C3A 8813  18.733   1.033   8.015
  324POPC   C4A 8814  18.727   1.186   7.554
  324POPC   C1B 8815  19.475   1.109   8.791
  324POPC   C2B 8816  19.494   0.924   8.393
  324POPC   C3B 8817  19.283   0.923   7.994
  324POPC   C4B 8818  19.096   0.810   7.607
  325POPC   NC3 8819  20.577   6.249   9.461
  325POPC   PO4 8820  20.538   5.720   9.910
  325POPC   GL1 8821  20.535   5.744   9.390
  325POPC   GL2 8822  20.289   5.532   9.173
  325POPC   C1A 8823  20.655   5.824   8.901
  325POPC   D2A 8824  20.846   5.551   8.538
  325POPC   C3A 8825  20.738   5.589   8.093
  325POPC   C4A 8826  20.824   5.831   7.716
  325POPC   C1B 8827  20.148   5.748   8.805
  325POPC   C2B 8828  20.363   5.768   8.429
  325POPC   C3B 8829  20.281   5.804   7.996
  325POPC   C4B 8830  20.332   5.997   7.653
  326POPC   NC3 8831  23.294  25.487   9.561
  326POPC   PO4 8832  23.882  25.260   9.277
  326POPC   GL1 8833  23.487  25.264   9.104
  326POPC   GL2 8834  23.423  25.602   9.051
  326POPC   C1A 8835  23.326  25.292   8.670
  326POPC   D2A 8836  23.509  25.471   8.259
  326POPC   C3A 8837  23.418  25.321   7.823
  326POPC   C4A 8838  23.402  25.164   7.373
  326POPC   C1B 8839  23.763  25.557   8.734
  326POPC   C2B 8840  24.028  25.485   8.397
  326POPC   C3B 8841  23.947  25.285   8.006
  326POPC   C4B 8842  24.058  25.305   7.569
  327POPC   NC3 8843  34.009  22.493   9.554
  327POPC   PO4 8844  33.490  22.030   9.649
  327POPC   GL1 8845  33.742  21.948   9.259
  327POPC   GL2 8846  33.737  22.276   9.196
  327POPC   C1A 8847  33.797  21.950   8.810
  327POPC   D2A 8848  33.559  21.936   8.435
  327POPC   C3A 8849  33.749  22.041   8.046
  327POPC   C4A 8850  33.877  21.818   7.700
  327POPC   C1B 8851  33.964  22.450   8.852
  327POPC   C2B 8852  33.948  22.314   8.442
  327POPC   C3B 8853  34.039  22.504   8.050
  327POPC   C4B 8854  34.082  22.384   7.665
  328POPC   NC3 8855   7.881  40.962   9.575
  328POPC   PO4 8856   8.058  40.293   9.523
  328POPC   GL1 8857   8.067  40.575   9.151
  328POPC   GL2 8858   8.070  40.949   9.113
  328POPC   C1A 8859   8.183  40.667   8.725
  328POPC   D2A 8860   8.349  40.457   8.435
  328POPC   C3A 8861   8.170  40.529   8.068
  328POPC   C4A 8862   8.290  40.512   7.670
  328POPC   C1B 8863   8.385  41.137   8.810
  328POPC   C2B 8864   8.335  41.248   8.365
  328POPC   C3B 8865   8.329  41.003   7.992
  328POPC   C4B 8866   8.121  40.987   7.582
  329POPC   NC3 8867   2.245   6.806   9.490
  329POPC   PO4 8868   1.603   6.661   9.511
  329POPC   GL1 8869   1.866   6.681   9.161
  329POPC   GL2 8870   2.099   6.396   9.223
  329POPC   C1A 8871   1.991   6.656   8.740
  329POPC   D2A 8872   2.003   6.662   8.284
  329POPC   C3A 8873   1.810   6.872   7.944
  329POPC   C4A 8874   1.670   6.728   7.542
  329POPC   C1B 8875   2.409   6.368   8.901
  329POPC   C2B 8876   2.420   6.482   8.505
  329POPC   C3B 8877   2.432   6.542   8.042
  329POPC   C4B 8878   2.063   6.415   7.791
  330POPC   NC3 8879   7.342  36.309   9.483
  330POPC   PO4 8880   6.688  36.198   9.497
  330POPC   GL1 8881   6.480  36.192   9.137
  330POPC   GL2 8882   6.614  36.505   9.046
  330POPC   C1A 8883   6.658  36.095   8.739
  330POPC   D2A 8884   6.864  35.935   8.401
  330POPC   C3A 8885   6.545  35.905   8.103
  330POPC   C4A 8886   6.415  35.942   7.693
  330POPC   C1B 8887   6.341  36.489   8.668
  330POPC   C2B 8888   6.409  36.398   8.218
  330POPC   C3B 8889   6.809  36.334   7.993
  330POPC   C4B 8890   7.185  36.568   7.831
  331POPC   NC3 8891  23.747  24.007   9.483
  331POPC   PO4 8892  24.274  23.658   9.755
  331POPC   GL1 8893  24.120  23.697   9.277
  331POPC   GL2 8894  23.746  23.593   9.165
  331POPC   C1A 8895  24.019  23.841   8.828
  331POPC   D2A 8896  23.992  23.589   8.470
  331POPC   C3A 8897  23.811  23.565   8.085
  331POPC   C4A 8898  24.057  23.559   7.723
  331POPC   C1B 8899  23.501  23.799   8.781
  331POPC   C2B 8900  23.235  23.979   8.444
  331POPC   C3B 8901  23.311  23.890   8.017
  331POPC   C4B 8902  23.696  23.971   7.810
  332POPC   NC3 8903  43.349  26.534   9.790
  332POPC   PO4 8904  43.976  26.741   9.582
  332POPC   GL1 8905  43.755  26.766   9.174
  332POPC   GL2 8906  43.400  26.911   9.248
  332POPC   C1A 8907  43.920  26.678   8.724
  332POPC   D2A 8908  43.983  26.452   8.280
  332POPC   C3A 8909  44.158  26.733   7.935
  332POPC   C4A 8910  44.212  27.226   7.936
  332POPC   C1B 8911  43.443  26.906   8.790
  332POPC   C2B 8912  43.563  26.761   8.364
  332POPC   C3B 8913  43.666  26.855   7.930
  332POPC   C4B 8914  43.499  27.063   7.557
  333POPC   NC3 8915  26.409  11.264   9.471
  333POPC   PO4 8916  26.015  11.760   9.672
  333POPC   GL1 8917  26.180  11.615   9.194
  333POPC   GL2 8918  25.927  11.526   8.909
  333POPC   C1A 8919  26.410  11.500   8.807
  333POPC   D2A 8920  26.379  11.278   8.414
  333POPC   C3A 8921  26.111  11.364   8.095
  333POPC   C4A 8922  26.332  11.480   7.738
  333POPC   C1B 8923  25.965  11.144   8.685
  333POPC   C2B 8924  25.740  10.988   8.359
  333POPC   C3B 8925  25.684  11.095   7.974
  333POPC   C4B 8926  25.977  11.093   7.688
  334POPC   NC3 8927  20.331  29.581   9.558
  334POPC   PO4 8928  19.710  29.894   9.640
  334POPC   GL1 8929  19.657  29.838   9.225
  334POPC   GL2 8930  19.974  29.976   9.148
  334POPC   C1A 8931  19.669  29.832   8.767
  334POPC   D2A 8932  19.725  30.092   8.388
  334POPC   C3A 8933  19.711  29.869   7.982
  334POPC   C4A 8934  19.976  29.879   7.651
  334POPC   C1B 8935  20.047  30.220   8.776
  334POPC   C2B 8936  20.194  30.286   8.348
  334POPC   C3B 8937  20.236  30.297   7.871
  334POPC   C4B 8938  20.443  30.004   7.536
  335POPC   NC3 8939   9.589  28.741   9.440
  335POPC   PO4 8940   9.970  29.234   9.600
  335POPC   GL1 8941   9.750  29.209   9.186
  335POPC   GL2 8942   9.809  28.882   9.018
  335POPC   C1A 8943   9.513  29.203   8.784
  335POPC   D2A 8944   9.581  29.364   8.371
  335POPC   C3A 8945   9.512  29.223   7.964
  335POPC   C4A 8946   9.785  29.494   7.722
  335POPC   C1B 8947   9.974  29.018   8.635
  335POPC   C2B 8948   9.953  29.042   8.202
  335POPC   C3B 8949   9.931  28.969   7.783
  335POPC   C4B 8950   9.711  28.669   7.536
  336POPC   NC3 8951   3.516   8.356   9.479
  336POPC   PO4 8952   3.160   7.748   9.503
  336POPC   GL1 8953   3.383   7.959   9.142
  336POPC   GL2 8954   3.473   8.340   8.992
  336POPC   C1A 8955   3.570   7.894   8.740
  336POPC   D2A 8956   3.771   7.789   8.348
  336POPC   C3A 8957   3.625   7.944   7.980
  336POPC   C4A 8958   3.648   8.154   7.595
  336POPC   C1B 8959   3.742   8.410   8.664
  336POPC   C2B 8960   3.872   8.308   8.259
  336POPC   C3B 8961   3.637   8.512   7.945
  336POPC   C4B 8962   3.344   8.569   7.560
  337POPC   NC3 8963  25.997  41.279   9.521
  337POPC   PO4 8964  25.992  41.998   9.324
  337POPC   GL1 8965  26.119  41.820   8.986
  337POPC   GL2 8966  26.233  41.564   9.160
  337POPC   C1A 8967  25.952  41.601   8.643
  337POPC   D2A 8968  26.000  41.577   8.196
  337POPC   C3A 8969  25.893  41.805   7.828
  337POPC   C4A 8970  25.774  41.597   7.430
  337POPC   C1B 8971  26.394  41.384   8.801
  337POPC   C2B 8972  26.475  41.250   8.375
  337POPC   C3B 8973  26.197  41.133   8.060
  337POPC   C4B 8974  26.133  41.357   7.709
  338POPC   NC3 8975   1.964  10.289   9.398
  338POPC   PO4 8976   2.538  10.423   9.697
  338POPC   GL1 8977   2.363  10.535   9.218
  338POPC   GL2 8978   2.045  10.748   9.185
  338POPC   C1A 8979   2.158  10.469   8.775
  338POPC   D2A 8980   2.313  10.557   8.353
  338POPC   C3A 8981   2.158  10.450   7.925
  338POPC   C4A 8982   1.958  10.293   7.553
  338POPC   C1B 8983   1.693  10.810   8.918
  338POPC   C2B 8984   1.635  10.625   8.541
  338POPC   C3B 8985   1.716  10.371   8.184
  338POPC   C4B 8986   1.657  10.592   7.808
  339POPC   NC3 8987  41.877  39.183   9.261
  339POPC   PO4 8988  42.508  39.245   9.514
  339POPC   GL1 8989  42.379  39.431   9.158
  339POPC   GL2 8990  42.102  39.691   9.228
  339POPC   C1A 8991  42.539  39.291   8.767
  339POPC   D2A 8992  42.493  39.080   8.387
  339POPC   C3A 8993  42.618  39.301   8.039
  339POPC   C4A 8994  42.477  39.224   7.677
  339POPC   C1B 8995  42.115  39.653   8.772
  339POPC   C2B 8996  41.977  39.499   8.366
  339POPC   C3B 8997  42.101  39.255   8.018
  339POPC   C4B 8998  42.017  39.447   7.607
  340POPC   NC3 8999  43.437  14.665   9.535
  340POPC   PO4 9000  42.846  14.806   9.245
  340POPC   GL1 9001  42.968  14.384   9.139
  340POPC   GL2 9002  42.690  14.177   9.102
  340POPC   C1A 9003  43.216  14.263   8.815
  340POPC   D2A 9004  43.249  14.249   8.372
  340POPC   C3A 9005  43.251  14.628   8.088
  340POPC   C4A 9006  43.149  14.476   7.686
  340POPC   C1B 9007  42.587  14.452   8.772
  340POPC   C2B 9008  42.620  14.292   8.410
  340POPC   C3B 9009  42.819  14.331   8.074
  340POPC   C4B 9010  42.725  14.211   7.705
  341POPC   NC3 9011   3.381  11.911   9.744
  341POPC   PO4 9012   3.581  12.479   9.565
  341POPC   GL1 9013   3.461  12.228   9.178
  341POPC   GL2 9014   3.323  11.875   9.194
  341POPC   C1A 9015   3.561  12.067   8.736
  341POPC   D2A 9016   3.439  12.186   8.303
  341POPC   C3A 9017   3.671  12.118   7.925
  341POPC   C4A 9018   3.651  12.149   7.465
  341POPC   C1B 9019   3.188  11.684   8.808
  341POPC   C2B 9020   3.243  11.605   8.362
  341POPC   C3B 9021   3.204  11.864   7.983
  341POPC   C4B 9022   3.133  11.898   7.523
  342POPC   NC3 9023  43.541  30.078   9.577
  342POPC   PO4 9024  44.097  30.377   9.604
  342POPC   GL1 9025  43.977  30.138   9.227
  342POPC   GL2 9026  44.123  29.788   9.220
  342POPC   C1A 9027  43.899  30.173   8.780
  342POPC   D2A 9028  43.815  30.308   8.353
  342POPC   C3A 9029  43.599  30.057   8.081
  342POPC   C4A 9030  43.716  30.157   7.681
  342POPC   C1B 9031  44.019  29.667   8.777
  342POPC   C2B 9032  43.807  29.717   8.393
  342POPC   C3B 9033  43.846  29.622   7.955
  342POPC   C4B 9034  44.023  29.758   7.553
  343POPC   NC3 9035   2.617  40.076   9.660
  343POPC   PO4 9036   3.154  39.786   9.461
  343POPC   GL1 9037   2.921  40.137   9.207
  343POPC   GL2 9038   2.519  40.195   9.198
  343POPC   C1A 9039   2.764  40.172   8.773
  343POPC   D2A 9040   2.757  39.952   8.427
  343POPC   C3A 9041   2.779  40.150   8.067
  343POPC   C4A 9042   2.981  39.912   7.817
  343POPC   C1B 9043   2.360  39.870   8.924
  343POPC   C2B 9044   2.258  39.791   8.502
  343POPC   C3B 9045   2.376  39.833   8.074
  343POPC   C4B 9046   2.484  40.029   7.678
  344POPC   NC3 9047   6.868  34.116   9.376
  344POPC   PO4 9048   6.968  33.431   9.475
  344POPC   GL1 9049   6.655  33.526   9.163
  344POPC   GL2 9050   6.364  33.767   9.246
  344POPC   C1A 9051   6.590  33.679   8.768
  344POPC   D2A 9052   6.393  33.557   8.391
  344POPC   C3A 9053   6.579  33.729   8.005
  344POPC   C4A 9054   6.781  34.056   7.714
  344POPC   C1B 9055   6.266  34.074   8.891
  344POPC   C2B 9056   6.450  34.101   8.492
  344POPC   C3B 9057   6.257  34.110   8.118
  344POPC   C4B 9058   6.233  34.112   7.716
  345POPC   NC3 9059  35.609  43.793   9.570
  345POPC   PO4 9060  35.433  44.417   9.464
  345POPC   GL1 9061  35.436  44.113   9.114
  345POPC   GL2 9062  35.381  43.720   9.128
  345POPC   C1A 9063  35.310  44.024   8.687
  345POPC   D2A 9064  35.539  43.831   8.345
  345POPC   C3A 9065  35.417  43.879   7.942
  345POPC   C4A 9066  35.572  43.862   7.518
  345POPC   C1B 9067  35.388  43.521   8.734
  345POPC   C2B 9068  35.236  43.408   8.309
  345POPC   C3B 9069  35.011  43.539   7.898
  345POPC   C4B 9070  35.111  43.611   7.444
  346POPC   NC3 9071   5.623  22.555   9.454
  346POPC   PO4 9072   6.003  21.908   9.548
  346POPC   GL1 9073   5.848  22.146   9.210
  346POPC   GL2 9074   6.014  22.457   9.125
  346POPC   C1A 9075   5.751  22.095   8.776
  346POPC   D2A 9076   5.553  22.334   8.450
  346POPC   C3A 9077   5.612  22.139   8.044
  346POPC   C4A 9078   6.013  22.141   7.799
  346POPC   C1B 9079   5.915  22.601   8.739
  346POPC   C2B 9080   6.024  22.462   8.316
  346POPC   C3B 9081   5.857  22.593   7.939
  346POPC   C4B 9082   6.006  22.532   7.491
  347POPC   NC3 9083  30.993  20.483   9.781
  347POPC   PO4 9084  30.348  20.601   9.599
  347POPC   GL1 9085  30.640  20.433   9.243
  347POPC   GL2 9086  30.851  20.708   9.130
  347POPC   C1A 9087  30.589  20.520   8.749
  347POPC   D2A 9088  30.514  20.882   8.468
  347POPC   C3A 9089  30.443  20.781   8.027
  347POPC   C4A 9090  30.681  20.671   7.642
  347POPC   C1B 9091  31.029  20.324   8.927
  347POPC   C2B 9092  30.943  20.196   8.492
  347POPC   C3B 9093  30.749  20.353   8.095
  347POPC   C4B 9094  31.050  20.329   7.745
  348POPC   NC3 9095  44.505  41.812   9.891
  348POPC   PO4 9096  44.945  41.404   9.580
  348POPC   GL1 9097  44.825  41.414   9.083
  348POPC   GL2 9098  44.640  41.749   9.036
  348POPC   C1A 9099  44.863  41.569   8.630
  348POPC   D2A 9100  44.972  41.752   8.225
  348POPC   C3A 9101  44.675  41.692   7.898
  348POPC   C4A 9102  44.678  41.542   7.477
  348POPC   C1B 9103  44.569  42.034   8.706
  348POPC   C2B 9104  44.570  42.131   8.279
  348POPC   C3B 9105  44.468  42.149   7.869
  348POPC   C4B 9106  44.796  42.098   7.578
  349POPC   NC3 9107  39.485  14.434   9.355
  349POPC   PO4 9108  38.879  14.162   9.536
  349POPC   GL1 9109  39.055  14.227   9.125
  349POPC   GL2 9110  39.119  14.592   9.048
  349POPC   C1A 9111  39.041  14.156   8.682
  349POPC   D2A 9112  39.215  14.314   8.289
  349POPC   C3A 9113  38.999  14.207   7.948
  349POPC   C4A 9114  39.211  14.012   7.633
  349POPC   C1B 9115  39.433  14.474   8.720
  349POPC   C2B 9116  39.605  14.737   8.367
  349POPC   C3B 9117  39.503  14.641   7.941
  349POPC   C4B 9118  39.193  14.556   7.625
  350POPC   NC3 9119   2.542  29.199   9.577
  350POPC   PO4 9120   2.932  28.674   9.544
  350POPC   GL1 9121   2.954  29.049   9.245
  350POPC   GL2 9122   2.619  29.189   9.072
  350POPC   C1A 9123   3.075  29.326   8.909
  350POPC   D2A 9124   2.782  29.460   8.604
  350POPC   C3A 9125   2.769  29.297   8.185
  350POPC   C4A 9126   2.919  29.325   7.781
  350POPC   C1B 9127   2.639  28.968   8.661
  350POPC   C2B 9128   2.577  28.836   8.235
  350POPC   C3B 9129   2.410  29.055   7.868
  350POPC   C4B 9130   2.516  29.228   7.469
  351POPC   NC3 9131  38.056  21.564   9.511
  351POPC   PO4 9132  38.425  21.116   9.281
  351POPC   GL1 9133  38.323  21.470   9.072
  351POPC   GL2 9134  38.612  21.586   9.014
  351POPC   C1A 9135  38.191  21.407   8.643
  351POPC   D2A 9136  38.177  21.045   8.349
  351POPC   C3A 9137  38.501  21.219   8.066
  351POPC   C4A 9138  38.493  21.591   7.807
  351POPC   C1B 9139  38.708  21.300   8.698
  351POPC   C2B 9140  38.836  21.484   8.350
  351POPC   C3B 9141  38.990  21.407   7.967
  351POPC   C4B 9142  38.880  21.218   7.596
  352POPC   NC3 9143   1.107   3.925   9.544
  352POPC   PO4 9144   1.115   3.261   9.768
  352POPC   GL1 9145   1.318   3.286   9.281
  352POPC   GL2 9146   1.135   3.553   9.158
  352POPC   C1A 9147   1.205   3.200   8.789
  352POPC   D2A 9148   1.065   3.388   8.349
  352POPC   C3A 9149   1.344   3.509   7.989
  352POPC   C4A 9150   1.445   3.602   7.558
  352POPC   C1B 9151   1.207   3.729   8.752
  352POPC   C2B 9152   1.044   3.947   8.382
  352POPC   C3B 9153   1.182   3.971   7.946
  352POPC   C4B 9154   0.969   3.724   7.652
  353POPC   NC3 9155  17.316  34.888   9.470
  353POPC   PO4 9156  17.809  34.394   9.447
  353POPC   GL1 9157  17.516  34.539   9.161
  353POPC   GL2 9158  17.640  34.881   9.055
  353POPC   C1A 9159  17.286  34.576   8.796
  353POPC   D2A 9160  17.419  34.717   8.428
  353POPC   C3A 9161  17.160  34.600   8.059
  353POPC   C4A 9162  17.364  34.468   7.700
  353POPC   C1B 9163  17.946  34.961   8.724
  353POPC   C2B 9164  17.850  34.987   8.309
  353POPC   C3B 9165  17.647  34.787   7.973
  353POPC   C4B 9166  17.606  34.882   7.515
  354POPC   NC3 9167   5.664  42.108   9.453
  354POPC   PO4 9168   6.189  42.623   9.386
  354POPC   GL1 9169   5.949  42.380   9.130
  354POPC   GL2 9170   6.078  42.036   9.149
  354POPC   C1A 9171   5.668  42.346   8.790
  354POPC   D2A 9172   5.760  42.395   8.356
  354POPC   C3A 9173   6.077  42.468   8.050
  354POPC   C4A 9174   5.748  42.537   7.740
  354POPC   C1B 9175   6.130  42.136   8.702
  354POPC   C2B 9176   6.016  41.951   8.307
  354POPC   C3B 9177   5.782  42.058   7.948
  354POPC   C4B 9178   6.014  42.130   7.592
  355POPC   NC3 9179  44.896  43.767   9.648
  355POPC   PO4 9180  44.464  44.120   9.494
  355POPC   GL1 9181  44.477  43.931   9.108
  355POPC   GL2 9182  44.771  43.772   9.138
  355POPC   C1A 9183  44.535  43.883   8.653
  355POPC   D2A 9184  44.718  43.672   8.292
  355POPC   C3A 9185  44.594  43.865   7.892
  355POPC   C4A 9186  44.552  43.743   7.452
  355POPC   C1B 9187   0.013  43.957   8.813
  355POPC   C2B 9188  44.928  44.136   8.408
  355POPC   C3B 9189   0.179  44.200   8.054
  355POPC   C4B 9190   0.029  44.072   7.650
  356POPC   NC3 9191  19.028  31.862   9.396
  356POPC   PO4 9192  18.844  31.254   9.547
  356POPC   GL1 9193  18.932  31.231   9.122
  356POPC   GL2 9194  19.174  31.495   9.049
  356POPC   C1A 9195  18.780  31.406   8.752
  356POPC   D2A 9196  18.851  31.537   8.343
  356POPC   C3A 9197  19.098  31.235   8.188
  356POPC   C4A 9198  19.084  31.390   7.825
  356POPC   C1B 9199  19.216  31.783   8.676
  356POPC   C2B 9200  19.316  31.943   8.224
  356POPC   C3B 9201  19.496  31.698   7.823
  356POPC   C4B 9202  19.757  31.678   7.428
  357POPC   NC3 9203   8.020   6.216   9.550
  357POPC   PO4 9204   8.063   6.872   9.764
  357POPC   GL1 9205   7.974   6.623   9.266
  357POPC   GL2 9206   8.133   6.837   8.998
  357POPC   C1A 9207   8.068   6.367   8.881
  357POPC   D2A 9208   8.072   6.372   8.434
  357POPC   C3A 9209   8.359   6.514   8.127
  357POPC   C4A 9210   8.377   6.467   7.692
  357POPC   C1B 9211   7.849   6.789   8.693
  357POPC   C2B 9212   7.930   6.846   8.263
  357POPC   C3B 9213   7.859   6.687   7.872
  357POPC   C4B 9214   8.003   6.739   7.447
  358POPC   NC3 9215  36.517  10.580   9.579
  358POPC   PO4 9216  37.047  10.194   9.365
  358POPC   GL1 9217  36.672  10.296   9.141
  358POPC   GL2 9218  36.741  10.636   9.130
  358POPC   C1A 9219  36.674  10.388   8.688
  358POPC   D2A 9220  36.834  10.481   8.271
  358POPC   C3A 9221  36.760  10.208   7.925
  358POPC   C4A 9222  37.049  10.135   7.591
  358POPC   C1B 9223  36.961  10.781   8.782
  358POPC   C2B 9224  36.716  10.959   8.410
  358POPC   C3B 9225  36.665  10.896   7.977
  358POPC   C4B 9226  37.003  10.640   7.779
  359POPC   NC3 9227  29.071  11.326   9.528
  359POPC   PO4 9228  28.681  10.836   9.489
  359POPC   GL1 9229  28.976  11.047   9.108
  359POPC   GL2 9230  29.317  11.318   9.081
  359POPC   C1A 9231  29.102  11.157   8.674
  359POPC   D2A 9232  29.357  11.135   8.331
  359POPC   C3A 9233  29.065  11.116   7.998
  359POPC   C4A 9234  28.735  11.013   7.729
  359POPC   C1B 9235  29.313  11.620   8.691
  359POPC   C2B 9236  29.147  11.586   8.252
  359POPC   C3B 9237  29.161  11.580   7.776
  359POPC   C4B 9238  29.213  11.660   7.307
  360POPC   NC3 9239  24.859   0.626   9.392
  360POPC   PO4 9240  24.247   0.715   9.549
  360POPC   GL1 9241  24.376   0.516   9.181
  360POPC   GL2 9242  24.424   0.850   9.083
  360POPC   C1A 9243  24.343   0.193   8.836
  360POPC   D2A 9244  24.281   0.056   8.394
  360POPC   C3A 9245  24.358   0.330   8.042
  360POPC   C4A 9246  24.767   0.313   7.841
  360POPC   C1B 9247  24.609   0.642   8.710
  360POPC   C2B 9248  24.677   0.673   8.241
  360POPC   C3B 9249  24.570   0.775   7.795
  360POPC   C4B 9250  24.570   0.870   7.349
  361POPC   NC3 9251  14.273   0.510   9.432
  361POPC   PO4 9252  14.652   0.058   9.514
  361POPC   GL1 9253  14.623   0.245   9.141
  361POPC   GL2 9254  14.778   0.552   9.277
  361POPC   C1A 9255  14.301   0.337   8.791
  361POPC   D2A 9256  14.234   0.560   8.402
  361POPC   C3A 9257  14.266   0.389   7.996
  361POPC   C4A 9258  14.400   0.682   7.678
  361POPC   C1B 9259  14.953   0.499   8.870
  361POPC   C2B 9260  14.734   0.462   8.540
  361POPC   C3B 9261  14.705   0.576   8.148
  361POPC   C4B 9262  14.797   0.378   7.791
  362POPC   NC3 9263   4.564   4.009   9.553
  362POPC   PO4 9264   4.491   4.737   9.549
  362POPC   GL1 9265   4.376   4.453   9.205
  362POPC   GL2 9266   4.194   4.139   9.198
  362POPC   C1A 9267   4.538   4.502   8.738
  362POPC   D2A 9268   4.513   4.627   8.282
  362POPC   C3A 9269   4.608   4.343   7.912
  362POPC   C4A 9270   4.309   4.247   7.532
  362POPC   C1B 9271   4.058   4.433   8.832
  362POPC   C2B 9272   4.017   4.417   8.408
  362POPC   C3B 9273   4.104   4.384   7.985
  362POPC   C4B 9274   4.292   4.706   7.766
  363POPC   NC3 9275  14.463  42.010   9.414
  363POPC   PO4 9276  14.075  42.513   9.329
  363POPC   GL1 9277  14.326  42.381   9.052
  363POPC   GL2 9278  14.614  42.507   9.243
  363POPC   C1A 9279  14.380  42.281   8.612
  363POPC   D2A 9280  14.239  42.075   8.259
  363POPC   C3A 9281  14.060  42.427   8.068
  363POPC   C4A 9282  13.909  42.433   7.660
  363POPC   C1B 9283  14.799  42.303   8.904
  363POPC   C2B 9284  14.846  42.448   8.503
  363POPC   C3B 9285  14.626  42.402   8.130
  363POPC   C4B 9286  14.440  42.312   7.758
  364POPC   NC3 9287  18.159  23.012   9.521
  364POPC   PO4 9288  18.005  22.404   9.504
  364POPC   GL1 9289  18.053  22.657   9.156
  364POPC   GL2 9290  18.405  22.756   9.142
  364POPC   C1A 9291  18.051  22.847   8.733
  364POPC   D2A 9292  18.262  22.715   8.338
  364POPC   C3A 9293  18.190  22.879   7.922
  364POPC   C4A 9294  17.825  22.951   7.668
  364POPC   C1B 9295  18.349  22.455   8.806
  364POPC   C2B 9296  18.234  22.224   8.442
  364POPC   C3B 9297  18.259  22.287   8.038
  364POPC   C4B 9298  18.400  22.470   7.700
  365POPC   NC3 9299  30.414  32.879   9.255
  365POPC   PO4 9300  29.775  33.066   9.527
  365POPC   GL1 9301  29.945  33.047   9.125
  365POPC   GL2 9302  30.016  32.697   9.053
  365POPC   C1A 9303  29.748  33.084   8.731
  365POPC   D2A 9304  29.679  32.923   8.302
  365POPC   C3A 9305  29.797  33.173   7.913
  365POPC   C4A 9306  29.710  33.119   7.435
  365POPC   C1B 9307  30.178  32.835   8.662
  365POPC   C2B 9308  30.161  33.127   8.347
  365POPC   C3B 9309  30.141  32.828   8.046
  365POPC   C4B 9310  30.104  32.881   7.635
  366POPC   NC3 9311  13.895  37.160   9.700
  366POPC   PO4 9312  14.559  37.229   9.496
  366POPC   GL1 9313  14.380  36.978   9.121
  366POPC   GL2 9314  14.701  36.923   8.953
  366POPC   C1A 9315  14.278  36.854   8.683
  366POPC   D2A 9316  14.246  36.648   8.284
  366POPC   C3A 9317  14.309  36.984   8.047
  366POPC   C4A 9318  14.283  37.088   7.647
  366POPC   C1B 9319  14.798  36.847   8.567
  366POPC   C2B 9320  14.747  37.124   8.273
  366POPC   C3B 9321  14.767  37.154   7.860
  366POPC   C4B 9322  14.724  37.038   7.409
  367POPC   NC3 9323  12.521  37.878   9.499
  367POPC   PO4 9324  11.951  37.583   9.713
  367POPC   GL1 9325  11.894  37.667   9.257
  367POPC   GL2 9326  12.193  37.535   9.150
  367POPC   C1A 9327  11.713  37.706   8.818
  367POPC   D2A 9328  11.818  37.896   8.415
  367POPC   C3A 9329  12.066  37.630   8.128
  367POPC   C4A 9330  11.916  37.378   7.775
  367POPC   C1B 9331  12.208  37.885   8.856
  367POPC   C2B 9332  12.327  38.062   8.455
  367POPC   C3B 9333  12.524  37.888   8.107
  367POPC   C4B 9334  12.253  37.975   7.775
  368POPC   NC3 9335   6.575  28.737   9.552
  368POPC   PO4 9336   6.141  28.239   9.733
  368POPC   GL1 9337   6.458  28.316   9.269
  368POPC   GL2 9338   6.487  28.657   9.044
  368POPC   C1A 9339   6.765  28.277   8.914
  368POPC   D2A 9340   7.019  28.386   8.578
  368POPC   C3A 9341   6.870  28.351   8.169
  368POPC   C4A 9342   6.769  28.315   7.721
  368POPC   C1B 9343   6.525  28.608   8.590
  368POPC   C2B 9344   6.433  28.611   8.153
  368POPC   C3B 9345   6.547  28.775   7.766
  368POPC   C4B 9346   6.410  28.627   7.369
  369POPC   NC3 9347  19.034  11.265   9.669
  369POPC   PO4 9348  18.899  11.830   9.426
  369POPC   GL1 9349  19.130  11.581   9.045
  369POPC   GL2 9350  19.277  11.292   9.195
  369POPC   C1A 9351  19.311  11.255   8.677
  369POPC   D2A 9352  19.437  11.076   8.286
  369POPC   C3A 9353  19.198  11.253   7.939
  369POPC   C4A 9354  19.198  11.619   7.652
  369POPC   C1B 9355  18.899  11.144   8.928
  369POPC   C2B 9356  18.916  10.901   8.500
  369POPC   C3B 9357  18.635  10.756   8.147
  369POPC   C4B 9358  18.470  10.973   7.761
  370POPC   NC3 9359  13.835  16.724   9.654
  370POPC   PO4 9360  13.451  16.916   9.191
  370POPC   GL1 9361  13.733  16.904   8.926
  370POPC   GL2 9362  13.887  17.215   8.976
  370POPC   C1A 9363  13.721  16.667   8.545
  370POPC   D2A 9364  13.499  16.542   8.186
  370POPC   C3A 9365  13.512  16.806   7.806
  370POPC   C4A 9366  13.363  16.658   7.371
  370POPC   C1B 9367  14.001  17.107   8.547
  370POPC   C2B 9368  13.965  16.889   8.136
  370POPC   C3B 9369  13.937  16.485   7.932
  370POPC   C4B 9370  13.584  16.281   7.744
  371POPC   NC3 9371   5.264  42.931   9.405
  371POPC   PO4 9372   4.794  43.348   9.553
  371POPC   GL1 9373   5.042  43.336   9.158
  371POPC   GL2 9374   4.930  42.995   9.048
  371POPC   C1A 9375   5.310  43.238   8.789
  371POPC   D2A 9376   5.396  42.963   8.476
  371POPC   C3A 9377   5.225  43.168   8.143
  371POPC   C4A 9378   5.082  43.014   7.790
  371POPC   C1B 9379   4.745  42.819   8.701
  371POPC   C2B 9380   4.865  42.791   8.279
  371POPC   C3B 9381   4.612  42.860   7.921
  371POPC   C4B 9382   4.753  42.796   7.500
  372POPC   NC3 9383  21.234   2.569   9.583
  372POPC   PO4 9384  21.853   2.912   9.673
  372POPC   GL1 9385  21.636   2.841   9.235
  372POPC   GL2 9386  21.319   2.864   9.193
  372POPC   C1A 9387  21.508   2.566   8.814
  372POPC   D2A 9388  21.649   2.559   8.342
  372POPC   C3A 9389  21.347   2.590   7.935
  372POPC   C4A 9390  21.397   2.382   7.502
  372POPC   C1B 9391  21.299   3.020   8.781
  372POPC   C2B 9392  21.196   2.817   8.416
  372POPC   C3B 9393  21.198   3.061   8.085
  372POPC   C4B 9394  21.323   3.113   7.667
  373POPC   NC3 9395  29.920  13.335   9.457
  373POPC   PO4 9396  29.730  13.952   9.356
  373POPC   GL1 9397  29.867  13.629   9.045
  373POPC   GL2 9398  30.129  13.335   9.006
  373POPC   C1A 9399  29.877  13.617   8.613
  373POPC   D2A 9400  30.129  13.674   8.254
  373POPC   C3A 9401  29.832  13.698   7.992
  373POPC   C4A 9402  29.736  13.931   7.653
  373POPC   C1B 9403  30.309  13.337   8.604
  373POPC   C2B 9404  30.222  13.167   8.197
  373POPC   C3B 9405  30.379  13.311   7.850
  373POPC   C4B 9406  30.220  13.684   7.693
  374POPC   NC3 9407  29.983  36.373   9.525
  374POPC   PO4 9408  30.197  35.707   9.437
  374POPC   GL1 9409  30.095  36.058   9.143
  374POPC   GL2 9410  29.726  36.040   9.209
  374POPC   C1A 9411  29.999  36.294   8.720
  374POPC   D2A 9412  30.192  36.209   8.279
  374POPC   C3A 9413  30.112  36.342   7.821
  374POPC   C4A 9414  29.890  36.409   7.389
  374POPC   C1B 9415  29.564  36.022   8.801
  374POPC   C2B 9416  29.728  35.945   8.384
  374POPC   C3B 9417  29.689  36.156   8.008
  374POPC   C4B 9418  29.504  36.131   7.628
  375POPC   NC3 9419  10.535  12.713   9.496
  375POPC   PO4 9420  10.193  13.308   9.609
  375POPC   GL1 9421  10.297  13.037   9.204
  375POPC   GL2 9422  10.216  13.121   8.894
  375POPC   C1A 9423  10.416  12.672   8.854
  375POPC   D2A 9424  10.379  12.837   8.426
  375POPC   C3A 9425  10.489  12.626   8.042
  375POPC   C4A 9426  10.683  12.511   7.664
  375POPC   C1B 9427  10.677  13.116   8.814
  375POPC   C2B 9428  10.884  13.086   8.418
  375POPC   C3B 9429  10.642  13.114   8.056
  375POPC   C4B 9430  10.645  13.043   7.636
  376POPC   NC3 9431  22.641  10.979   9.506
  376POPC   PO4 9432  22.707  11.646   9.466
  376POPC   GL1 9433  22.902  11.403   9.187
  376POPC   GL2 9434  23.134  11.652   9.083
  376POPC   C1A 9435  22.868  11.228   8.776
  376POPC   D2A 9436  23.074  11.097   8.379
  376POPC   C3A 9437  22.804  11.175   8.030
  376POPC   C4A 9438  22.810  10.937   7.652
  376POPC   C1B 9439  22.802  11.743   8.778
  376POPC   C2B 9440  22.908  11.581   8.375
  376POPC   C3B 9441  23.014  11.672   7.951
  376POPC   C4B 9442  22.825  11.764   7.570
  377POPC   NC3 9443  20.856   3.428   9.550
  377POPC   PO4 9444  20.348   3.031   9.321
  377POPC   GL1 9445  20.610   3.399   9.096
  377POPC   GL2 9446  20.835   3.728   9.139
  377POPC   C1A 9447  20.544   3.512   8.667
  377POPC   D2A 9448  20.454   3.235   8.294
  377POPC   C3A 9449  20.544   3.482   7.939
  377POPC   C4A 9450  20.466   3.829   7.724
  377POPC   C1B 9451  20.890   3.991   8.811
  377POPC   C2B 9452  21.032   3.957   8.418
  377POPC   C3B 9453  20.878   3.920   8.037
  377POPC   C4B 9454  20.949   3.938   7.639
  378POPC   NC3 9455  24.008  44.492   9.461
  378POPC   PO4 9456  23.367  44.618   9.283
  378POPC   GL1 9457  23.741  44.711   9.080
  378POPC   GL2 9458  23.878  44.383   8.970
  378POPC   C1A 9459  23.912  44.867   8.711
  378POPC   D2A 9460  23.960  44.674   8.311
  378POPC   C3A 9461  23.945  44.964   7.986
  378POPC   C4A 9462  23.972   0.277   7.674
  378POPC   C1B 9463  23.552  44.492   8.620
  378POPC   C2B 9464  23.449  44.714   8.212
  378POPC   C3B 9465  23.515  44.779   7.769
  378POPC   C4B 9466  23.555  44.481   7.455
  379POPC   NC3 9467  44.611  18.380   9.494
  379POPC   PO4 9468  44.421  17.712   9.499
  379POPC   GL1 9469  44.610  17.948   9.208
  379POPC   GL2 9470  44.317  18.073   9.083
  379POPC   C1A 9471  44.827  18.139   8.850
  379POPC   D2A 9472  44.972  18.083   8.436
  379POPC   C3A 9473  44.964  18.324   8.018
  379POPC   C4A 9474  44.839  18.134   7.616
  379POPC   C1B 9475  44.360  18.298   8.686
  379POPC   C2B 9476  44.525  18.308   8.276
  379POPC   C3B 9477  44.415  18.395   7.854
  379POPC   C4B 9478  44.102  18.732   7.797
  380POPC   NC3 9479  40.135   8.820   9.511
  380POPC   PO4 9480  39.833   9.370   9.442
  380POPC   GL1 9481  39.928   9.077   9.124
  380POPC   GL2 9482  39.610   8.949   9.065
  380POPC   C1A 9483  40.189   9.049   8.762
  380POPC   D2A 9484  40.466   9.064   8.403
  380POPC   C3A 9485  40.331   8.948   7.988
  380POPC   C4A 9486  40.116   9.089   7.604
  380POPC   C1B 9487  39.742   8.741   8.706
  380POPC   C2B 9488  39.956   8.830   8.354
  380POPC   C3B 9489  39.811   8.881   7.989
  380POPC   C4B 9490  39.749   8.705   7.636
  381POPC   NC3 9491  29.287  29.552   9.444
  381POPC   PO4 9492  28.792  30.005   9.620
  381POPC   GL1 9493  29.003  30.007   9.148
  381POPC   GL2 9494  29.344  29.937   9.110
  381POPC   C1A 9495  28.953  29.803   8.725
  381POPC   D2A 9496  28.667  29.842   8.372
  381POPC   C3A 9497  28.937  29.951   8.023
  381POPC   C4A 9498  29.085  29.647   7.745
  381POPC   C1B 9499  29.516  29.824   8.722
  381POPC   C2B 9500  29.363  29.835   8.309
  381POPC   C3B 9501  29.484  29.931   7.894
  381POPC   C4B 9502  29.232  30.163   7.625
  382POPC   NC3 9503   0.395  13.329   9.680
  382POPC   PO4 9504   0.466  13.942   9.469
  382POPC   GL1 9505   0.471  13.894   9.012
  382POPC   GL2 9506   0.340  13.609   8.958
  382POPC   C1A 9507   0.787  13.676   8.667
  382POPC   D2A 9508   0.925  13.754   8.265
  382POPC   C3A 9509   0.653  13.581   8.007
  382POPC   C4A 9510   0.725  13.388   7.589
  382POPC   C1B 9511   0.321  13.622   8.499
  382POPC   C2B 9512   0.195  13.302   8.209
  382POPC   C3B 9513   0.256  13.371   7.795
  382POPC   C4B 9514   0.210  13.822   7.818
  383POPC   NC3 9515  34.052  44.105   9.604
  383POPC   PO4 9516  33.618  43.590   9.623
  383POPC   GL1 9517  33.713  43.790   9.271
  383POPC   GL2 9518  34.070  43.693   9.282
  383POPC   C1A 9519  33.539  43.883   8.841
  383POPC   D2A 9520  33.398  44.068   8.428
  383POPC   C3A 9521  33.436  43.838   8.054
  383POPC   C4A 9522  33.717  43.867   7.709
  383POPC   C1B 9523  34.068  43.939   8.925
  383POPC   C2B 9524  34.058  43.770   8.525
  383POPC   C3B 9525  34.017  43.699   8.099
  383POPC   C4B 9526  34.062  43.484   7.676
  384POPC   NC3 9527  27.069  16.806   9.453
  384POPC   PO4 9528  26.462  16.647   9.544
  384POPC   GL1 9529  26.559  16.755   9.094
  384POPC   GL2 9530  26.898  16.751   8.986
  384POPC   C1A 9531  26.581  16.736   8.592
  384POPC   D2A 9532  26.848  16.927   8.283
  384POPC   C3A 9533  26.653  17.051   7.941
  384POPC   C4A 9534  26.511  16.745   7.696
  384POPC   C1B 9535  26.715  16.325   8.857
  384POPC   C2B 9536  26.830  16.244   8.429
  384POPC   C3B 9537  27.142  16.515   8.217
  384POPC   C4B 9538  27.026  16.716   7.835
  385POPC   NC3 9539  43.515  42.803   9.517
  385POPC   PO4 9540  43.638  43.471   9.266
  385POPC   GL1 9541  43.881  43.159   9.146
  385POPC   GL2 9542  43.929  42.817   9.232
  385POPC   C1A 9543  44.049  43.145   8.804
  385POPC   D2A 9544  44.017  42.986   8.430
  385POPC   C3A 9545  43.908  43.233   8.066
  385POPC   C4A 9546  44.140  43.018   7.740
  385POPC   C1B 9547  43.630  42.821   8.881
  385POPC   C2B 9548  43.546  42.731   8.478
  385POPC   C3B 9549  43.722  42.750   8.099
  385POPC   C4B 9550  43.543  42.939   7.740
  386POPC   NC3 9551  27.277  43.211   9.485
  386POPC   PO4 9552  27.913  43.267   9.516
  386POPC   GL1 9553  27.667  43.045   9.206
  386POPC   GL2 9554  27.510  42.708   9.326
  386POPC   C1A 9555  27.371  43.158   8.855
  386POPC   D2A 9556  27.455  43.406   8.513
  386POPC   C3A 9557  27.650  43.226   8.130
  386POPC   C4A 9558  27.853  43.295   7.718
  386POPC   C1B 9559  27.609  42.651   8.905
  386POPC   C2B 9560  27.582  42.858   8.507
  386POPC   C3B 9561  27.483  42.743   8.095
  386POPC   C4B 9562  27.535  42.880   7.667
  387POPC   NC3 9563  33.255  25.874   9.457
  387POPC   PO4 9564  32.896  26.439   9.636
  387POPC   GL1 9565  32.943  26.180   9.210
  387POPC   GL2 9566  32.866  25.820   9.134
  387POPC   C1A 9567  33.193  26.183   8.801
  387POPC   D2A 9568  33.140  26.117   8.340
  387POPC   C3A 9569  33.327  26.219   7.963
  387POPC   C4A 9570  33.107  25.942   7.719
  387POPC   C1B 9571  32.720  25.969   8.741
  387POPC   C2B 9572  32.694  25.863   8.331
  387POPC   C3B 9573  32.628  25.875   7.933
  387POPC   C4B 9574  32.668  26.108   7.522
  388POPC   NC3 9575   1.735  42.109   9.307
  388POPC   PO4 9576   2.124  42.565   9.358
  388POPC   GL1 9577   1.983  42.425   8.973
  388POPC   GL2 9578   1.773  42.722   8.992
  388POPC   C1A 9579   1.921  42.090   8.641
  388POPC   D2A 9580   1.601  42.032   8.302
  388POPC   C3A 9581   1.793  42.075   7.921
  388POPC   C4A 9582   2.185  42.251   7.917
  388POPC   C1B 9583   1.934  42.757   8.592
  388POPC   C2B 9584   1.893  42.475   8.289
  388POPC   C3B 9585   1.786  42.612   7.916
  388POPC   C4B 9586   2.162  42.730   7.731
  389POPC   NC3 9587   9.287   8.568   9.455
  389POPC   PO4 9588   9.474   9.119   9.769
  389POPC   GL1 9589   9.625   9.176   9.238
  389POPC   GL2 9590  10.034   9.120   9.162
  389POPC   C1A 9591   9.766   9.240   8.778
  389POPC   D2A 9592   9.857   8.971   8.419
  389POPC   C3A 9593   9.618   8.978   8.039
  389POPC   C4A 9594   9.771   9.217   7.692
  389POPC   C1B 9595  10.150   8.801   8.828
  389POPC   C2B 9596  10.210   8.591   8.404
  389POPC   C3B 9597  10.008   8.613   7.979
  389POPC   C4B 9598   9.889   8.719   7.531
  390POPC   NC3 9599  42.371  41.609   9.783
  390POPC   PO4 9600  42.609  42.105   9.461
  390POPC   GL1 9601  42.665  41.767   9.137
  390POPC   GL2 9602  42.391  41.535   9.181
  390POPC   C1A 9603  42.536  41.575   8.704
  390POPC   D2A 9604  42.687  41.534   8.279
  390POPC   C3A 9605  42.451  41.502   7.864
  390POPC   C4A 9606  42.338  41.709   7.445
  390POPC   C1B 9607  42.082  41.370   8.857
  390POPC   C2B 9608  41.979  41.288   8.425
  390POPC   C3B 9609  41.778  41.266   8.035
  390POPC   C4B 9610  41.999  41.322   7.659
  391POPC   NC3 9611  36.259  15.580   9.649
  391POPC   PO4 9612  36.028  14.964   9.597
  391POPC   GL1 9613  36.053  15.022   9.148
  391POPC   GL2 9614  36.016  15.378   9.179
  391POPC   C1A 9615  36.051  14.888   8.687
  391POPC   D2A 9616  35.976  14.813   8.223
  391POPC   C3A 9617  36.281  15.015   7.938
  391POPC   C4A 9618  36.577  15.186   7.642
  391POPC   C1B 9619  35.886  15.379   8.750
  391POPC   C2B 9620  36.026  15.339   8.294
  391POPC   C3B 9621  35.852  15.316   7.863
  391POPC   C4B 9622  35.891  15.673   7.518
  392POPC   NC3 9623  39.085  30.727   9.757
  392POPC   PO4 9624  39.583  30.922   9.550
  392POPC   GL1 9625  39.312  30.739   9.213
  392POPC   GL2 9626  39.068  30.477   9.280
  392POPC   C1A 9627  39.334  30.696   8.744
  392POPC   D2A 9628  39.316  30.909   8.325
  392POPC   C3A 9629  39.428  30.776   7.901
  392POPC   C4A 9630  39.332  31.017   7.499
  392POPC   C1B 9631  38.871  30.494   8.829
  392POPC   C2B 9632  38.805  30.720   8.398
  392POPC   C3B 9633  38.918  30.803   7.948
  392POPC   C4B 9634  39.081  30.556   7.573
  393POPC   NC3 9635  17.566   7.283   9.539
  393POPC   PO4 9636  17.417   7.998   9.464
  393POPC   GL1 9637  17.507   7.917   9.067
  393POPC   GL2 9638  17.500   7.545   9.091
  393POPC   C1A 9639  17.403   7.827   8.656
  393POPC   D2A 9640  17.459   7.481   8.392
  393POPC   C3A 9641  17.731   7.523   8.051
  393POPC   C4A 9642  17.441   7.562   7.730
  393POPC   C1B 9643  17.225   7.291   8.814
  393POPC   C2B 9644  17.100   7.097   8.407
  393POPC   C3B 9645  17.192   7.088   7.922
  393POPC   C4B 9646  17.460   7.109   7.517
  394POPC   NC3 9647  12.129  17.820   9.518
  394POPC   PO4 9648  11.683  18.310   9.584
  394POPC   GL1 9649  11.979  18.281   9.271
  394POPC   GL2 9650  12.301  18.187   9.183
  394POPC   C1A 9651  11.938  18.307   8.822
  394POPC   D2A 9652  11.876  18.488   8.410
  394POPC   C3A 9653  12.175  18.340   8.099
  394POPC   C4A 9654  12.357  18.534   7.744
  394POPC   C1B 9655  12.363  18.073   8.746
  394POPC   C2B 9656  12.431  17.953   8.332
  394POPC   C3B 9657  12.539  17.978   7.915
  394POPC   C4B 9658  12.289  18.042   7.558
  395POPC   NC3 9659  12.557  34.183   9.466
  395POPC   PO4 9660  13.183  34.480   9.514
  395POPC   GL1 9661  13.127  34.720   9.122
  395POPC   GL2 9662  12.784  34.613   9.115
  395POPC   C1A 9663  12.967  34.864   8.720
  395POPC   D2A 9664  12.754  34.658   8.399
  395POPC   C3A 9665  12.877  34.809   7.994
  395POPC   C4A 9666  13.184  34.585   7.781
  395POPC   C1B 9667  12.435  34.668   8.830
  395POPC   C2B 9668  12.279  34.870   8.448
  395POPC   C3B 9669  12.354  34.701   8.067
  395POPC   C4B 9670  12.453  34.909   7.718
  396POPC   NC3 9671  32.410  18.740   9.555
  396POPC   PO4 9672  31.881  19.175   9.541
  396POPC   GL1 9673  31.922  19.006   9.164
  396POPC   GL2 9674  32.278  18.949   9.082
  396POPC   C1A 9675  31.914  19.144   8.759
  396POPC   D2A 9676  32.072  18.923   8.387
  396POPC   C3A 9677  31.976  19.072   7.962
  396POPC   C4A 9678  32.157  18.842   7.620
  396POPC   C1B 9679  32.437  19.262   8.771
  396POPC   C2B 9680  32.622  19.351   8.391
  396POPC   C3B 9681  32.510  19.137   8.027
  396POPC   C4B 9682  32.412  19.294   7.641
  397POPC   NC3 9683  31.050  10.822   9.480
  397POPC   PO4 9684  31.667  10.568   9.389
  397POPC   GL1 9685  31.410  10.537   9.020
  397POPC   GL2 9686  31.161  10.807   8.989
  397POPC   C1A 9687  31.534  10.381   8.599
  397POPC   D2A 9688  31.718  10.469   8.153
  397POPC   C3A 9689  31.667  10.168   7.793
  397POPC   C4A 9690  31.600  10.384   7.382
  397POPC   C1B 9691  31.044  10.564   8.626
  397POPC   C2B 9692  31.223  10.642   8.227
  397POPC   C3B 9693  31.362  10.576   7.793
  397POPC   C4B 9694  31.304  10.803   7.415
  398POPC   NC3 9695  19.113  10.481   9.745
  398POPC   PO4 9696  19.771  10.537   9.599
  398POPC   GL1 9697  19.829  10.639   9.210
  398POPC   GL2 9698  19.573  10.882   9.259
  398POPC   C1A 9699  19.660  10.455   8.840
  398POPC   D2A 9700  19.810  10.292   8.429
  398POPC   C3A 9701  19.579  10.306   8.057
  398POPC   C4A 9702  19.779  10.437   7.715
  398POPC   C1B 9703  19.710  10.990   8.848
  398POPC   C2B 9704  19.863  10.797   8.511
  398POPC   C3B 9705  19.821  10.759   8.126
  398POPC   C4B 9706  19.485  10.838   7.830
  399POPC   NC3 9707  42.158  42.098   9.374
  399POPC   PO4 9708  42.178  42.778   9.410
  399POPC   GL1 9709  42.259  42.727   9.017
  399POPC   GL2 9710  42.390  42.412   9.077
  399POPC   C1A 9711  42.162  42.525   8.639
  399POPC   D2A 9712  41.983  42.254   8.360
  399POPC   C3A 9713  42.118  42.279   7.941
  399POPC   C4A 9714  42.158  42.628   7.686
  399POPC   C1B 9715  42.464  42.095   8.773
  399POPC   C2B 9716  42.363  41.920   8.359
  399POPC   C3B 9717  42.533  41.988   7.963
  399POPC   C4B 9718  42.574  42.246   7.614
  400POPC   NC3 9719  19.049   1.590   9.479
  400POPC   PO4 9720  19.009   2.264   9.458
  400POPC   GL1 9721  19.175   1.925   9.131
  400POPC   GL2 9722  19.471   2.012   8.971
  400POPC   C1A 9723  19.148   1.705   8.681
  400POPC   D2A 9724  19.127   1.740   8.202
  400POPC   C3A 9725  18.970   1.472   7.917
  400POPC   C4A 9726  18.832   1.699   7.536
  400POPC   C1B 9727  19.123   2.225   8.741
  400POPC   C2B 9728  18.903   2.157   8.374
  400POPC   C3B 9729  19.053   2.199   7.946
  400POPC   C4B 9730  19.377   2.468   7.763
  401POPC   NC3 9731  41.543   1.640   9.423
  401POPC   PO4 9732  41.191   1.037   9.623
  401POPC   GL1 9733  41.389   1.164   9.234
  401POPC   GL2 9734  41.337   0.869   9.079
  401POPC   C1A 9735  41.523   1.246   8.768
  401POPC   D2A 9736  41.519   1.492   8.355
  401POPC   C3A 9737  41.682   1.287   7.994
  401POPC   C4A 9738  41.586   1.327   7.563
  401POPC   C1B 9739  41.235   0.777   8.645
  401POPC   C2B 9740  41.440   0.856   8.223
  401POPC   C3B 9741  41.412   0.875   7.757
  401POPC   C4B 9742  41.278   0.992   7.310
  402POPC   NC3 9743   1.473  34.116   9.256
  402POPC   PO4 9744   2.064  34.034   9.619
  402POPC   GL1 9745   1.962  33.861   9.201
  402POPC   GL2 9746   1.970  33.475   9.149
  402POPC   C1A 9747   1.879  33.837   8.740
  402POPC   D2A 9748   2.029  33.639   8.363
  402POPC   C3A 9749   1.815  33.819   8.026
  402POPC   C4A 9750   1.822  34.126   7.711
  402POPC   C1B 9751   1.799  33.310   8.734
  402POPC   C2B 9752   1.568  33.405   8.327
  402POPC   C3B 9753   1.795  33.318   7.956
  402POPC   C4B 9754   2.117  33.545   7.714
  403POPC   NC3 9755   2.698   1.513   9.755
  403POPC   PO4 9756   2.957   1.185   9.301
  403POPC   GL1 9757   2.796   1.254   8.967
  403POPC   GL2 9758   2.883   1.605   9.002
  403POPC   C1A 9759   2.709   1.089   8.590
  403POPC   D2A 9760   2.984   1.223   8.268
  403POPC   C3A 9761   2.983   0.991   7.895
  403POPC   C4A 9762   2.605   0.740   7.785
  403POPC   C1B 9763   2.589   1.612   8.655
  403POPC   C2B 9764   2.320   1.342   8.380
  403POPC   C3B 9765   2.522   1.221   8.006
  403POPC   C4B 9766   2.802   1.453   7.730
  404POPC   NC3 9767  15.075  30.872   9.358
  404POPC   PO4 9768  14.999  31.608   9.485
  404POPC   GL1 9769  15.143  31.357   9.167
  404POPC   GL2 9770  14.831  31.252   9.083
  404POPC   C1A 9771  15.206  31.353   8.741
  404POPC   D2A 9772  14.956  31.347   8.385
  404POPC   C3A 9773  15.174  31.544   8.056
  404POPC   C4A 9774  15.192  31.455   7.645
  404POPC   C1B 9775  14.850  31.683   8.844
  404POPC   C2B 9776  15.021  31.873   8.453
  404POPC   C3B 9777  15.007  32.015   7.992
  404POPC   C4B 9778  15.078  31.944   7.541
  405POPC   NC3 9779  28.156  42.687   9.411
  405POPC   PO4 9780  28.472  42.068   9.297
  405POPC   GL1 9781  28.437  42.384   9.049
  405POPC   GL2 9782  28.115  42.427   8.994
  405POPC   C1A 9783  28.493  42.502   8.610
  405POPC   D2A 9784  28.360  42.267   8.274
  405POPC   C3A 9785  28.514  42.428   7.890
  405POPC   C4A 9786  28.511  42.367   7.426
  405POPC   C1B 9787  28.038  42.680   8.659
  405POPC   C2B 9788  27.931  42.563   8.271
  405POPC   C3B 9789  27.962  42.835   7.935
  405POPC   C4B 9790  28.137  42.638   7.611
  406POPC   NC3 9791  42.867  15.254   9.408
  406POPC   PO4 9792  43.562  15.127   9.611
  406POPC   GL1 9793  43.367  15.195   9.160
  406POPC   GL2 9794  43.066  15.345   8.965
  406POPC   C1A 9795  43.334  15.002   8.718
  406POPC   D2A 9796  43.562  15.023   8.300
  406POPC   C3A 9797  43.316  15.249   7.987
  406POPC   C4A 9798  43.191  14.991   7.634
  406POPC   C1B 9799  42.792  15.110   8.670
  406POPC   C2B 9800  42.849  14.755   8.381
  406POPC   C3B 9801  42.766  14.825   7.928
  406POPC   C4B 9802  42.819  15.280   7.815
  407POPC   NC3 9803   3.700  21.147   9.641
  407POPC   PO4 9804   3.083  21.508   9.623
  407POPC   GL1 9805   3.446  21.498   9.321
  407POPC   GL2 9806   3.445  21.147   9.175
  407POPC   C1A 9807   3.725  21.507   8.933
  407POPC   D2A 9808   3.588  21.359   8.504
  407POPC   C3A 9809   3.483  21.568   8.100
  407POPC   C4A 9810   3.669  21.505   7.683
  407POPC   C1B 9811   3.261  20.996   8.767
  407POPC   C2B 9812   3.317  20.930   8.310
  407POPC   C3B 9813   3.498  21.038   7.898
  407POPC   C4B 9814   3.376  21.148   7.461
  408POPC   NC3 9815  33.334  42.947   9.569
  408POPC   PO4 9816  32.785  43.098   9.370
  408POPC   GL1 9817  32.914  43.262   9.039
  408POPC   GL2 9818  32.825  42.970   8.872
  408POPC   C1A 9819  33.271  43.266   8.773
  408POPC   D2A 9820  33.348  43.105   8.352
  408POPC   C3A 9821  33.155  43.338   7.997
  408POPC   C4A 9822  33.051  43.175   7.602
  408POPC   C1B 9823  32.857  43.103   8.486
  408POPC   C2B 9824  32.684  43.325   8.189
  408POPC   C3B 9825  32.593  43.159   7.841
  408POPC   C4B 9826  32.389  42.793   7.720
  409POPC   NC3 9827  13.039  18.290   9.366
  409POPC   PO4 9828  12.589  17.896   9.506
  409POPC   GL1 9829  12.768  18.004   9.047
  409POPC   GL2 9830  13.117  18.008   8.956
  409POPC   C1A 9831  12.831  18.202   8.597
  409POPC   D2A 9832  12.677  18.399   8.207
  409POPC   C3A 9833  12.840  18.442   7.788
  409POPC   C4A 9834  12.666  18.484   7.335
  409POPC   C1B 9835  13.164  17.740   8.663
  409POPC   C2B 9836  12.930  17.792   8.303
  409POPC   C3B 9837  13.059  18.068   8.030
  409POPC   C4B 9838  13.317  17.963   7.694
  410POPC   NC3 9839  16.679  10.177   9.806
  410POPC   PO4 9840  16.438  10.597   9.321
  410POPC   GL1 9841  16.816  10.553   9.078
  410POPC   GL2 9842  16.840  10.214   9.082
  410POPC   C1A 9843  16.814  10.605   8.627
  410POPC   D2A 9844  16.870  10.493   8.200
  410POPC   C3A 9845  16.695  10.708   7.839
  410POPC   C4A 9846  16.526  10.639   7.434
  410POPC   C1B 9847  16.970  10.116   8.669
  410POPC   C2B 9848  16.681  10.019   8.359
  410POPC   C3B 9849  16.556  10.178   7.952
  410POPC   C4B 9850  16.815  10.237   7.626
  411POPC   NC3 9851   7.109  38.923   9.369
  411POPC   PO4 9852   7.585  39.287   9.645
  411POPC   GL1 9853   7.515  39.450   9.235
  411POPC   GL2 9854   7.168  39.423   9.145
  411POPC   C1A 9855   7.494  39.197   8.838
  411POPC   D2A 9856   7.276  39.187   8.451
  411POPC   C3A 9857   7.582  39.270   8.147
  411POPC   C4A 9858   7.647  39.220   7.736
  411POPC   C1B 9859   6.974  39.454   8.771
  411POPC   C2B 9860   6.869  39.501   8.348
  411POPC   C3B 9861   7.113  39.400   8.006
  411POPC   C4B 9862   7.047  39.258   7.615
  412POPC   NC3 9863   1.376  17.759   9.393
  412POPC   PO4 9864   1.387  17.324   9.845
  412POPC   GL1 9865   0.970  17.435   9.430
  412POPC   GL2 9866   0.955  17.710   9.159
  412POPC   C1A 9867   0.865  17.213   8.993
  412POPC   D2A 9868   1.063  17.259   8.566
  412POPC   C3A 9869   0.960  17.582   8.259
  412POPC   C4A 9870   1.033  17.590   7.805
  412POPC   C1B 9871   1.182  17.764   8.729
  412POPC   C2B 9872   1.464  17.663   8.350
  412POPC   C3B 9873   1.509  17.466   7.912
  412POPC   C4B 9874   1.540  17.555   7.435
  413POPC   NC3 9875  18.761   7.025   9.453
  413POPC   PO4 9876  18.056   7.244   9.617
  413POPC   GL1 9877  18.372   7.334   9.207
  413POPC   GL2 9878  18.435   7.717   9.183
  413POPC   C1A 9879  18.429   7.296   8.684
  413POPC   D2A 9880  18.467   7.376   8.203
  413POPC   C3A 9881  18.170   7.227   7.881
  413POPC   C4A 9882  17.915   7.439   7.569
  413POPC   C1B 9883  18.743   7.638   8.860
  413POPC   C2B 9884  18.836   7.644   8.428
  413POPC   C3B 9885  18.710   7.813   8.034
  413POPC   C4B 9886  18.390   7.666   7.767
  414POPC   NC3 9887  15.721   1.429   9.955
  414POPC   PO4 9888  16.169   1.167   9.560
  414POPC   GL1 9889  16.082   1.065   9.104
  414POPC   GL2 9890  16.254   0.770   8.957
  414POPC   C1A 9891  15.919   1.034   8.664
  414POPC   D2A 9892  16.045   1.081   8.227
  414POPC   C3A 9893  15.734   1.198   7.904
  414POPC   C4A 9894  15.351   1.198   7.641
  414POPC   C1B 9895  16.446   0.742   8.546
  414POPC   C2B 9896  16.517   0.786   8.100
  414POPC   C3B 9897  16.335   0.960   7.720
  414POPC   C4B 9898  16.371   1.136   7.278
  415POPC   NC3 9899   3.711  35.007   9.520
  415POPC   PO4 9900   3.763  35.719   9.468
  415POPC   GL1 9901   3.672  35.380   9.162
  415POPC   GL2 9902   3.292  35.306   9.175
  415POPC   C1A 9903   3.779  35.265   8.742
  415POPC   D2A 9904   3.650  35.352   8.325
  415POPC   C3A 9905   3.677  35.161   7.920
  415POPC   C4A 9906   3.711  35.536   7.641
  415POPC   C1B 9907   3.276  35.187   8.722
  415POPC   C2B 9908   3.141  35.217   8.270
  415POPC   C3B 9909   3.279  35.476   7.912
  415POPC   C4B 9910   3.281  35.288   7.482
  416POPC   NC3 9911  25.689  42.325   9.433
  416POPC   PO4 9912  25.053  42.017   9.665
  416POPC   GL1 9913  25.232  42.156   9.218
  416POPC   GL2 9914  25.314  42.520   9.154
  416POPC   C1A 9915  25.117  42.265   8.761
  416POPC   D2A 9916  25.295  42.343   8.336
  416POPC   C3A 9917  25.072  42.241   7.918
  416POPC   C4A 9918  25.045  42.128   7.478
  416POPC   C1B 9919  25.364  42.715   8.757
  416POPC   C2B 9920  25.324  42.857   8.349
  416POPC   C3B 9921  25.352  42.663   7.933
  416POPC   C4B 9922  25.435  42.532   7.514
  417POPC   NC3 9923  11.255  32.450   9.473
  417POPC   PO4 9924  10.858  31.890   9.270
  417POPC   GL1 9925  11.260  32.095   9.075
  417POPC   GL2 9926  11.624  31.917   9.144
  417POPC   C1A 9927  11.279  32.368   8.694
  417POPC   D2A 9928  11.306  32.083   8.328
  417POPC   C3A 9929  11.169  32.154   7.895
  417POPC   C4A 9930  11.150  31.962   7.484
  417POPC   C1B 9931  11.710  32.114   8.752
  417POPC   C2B 9932  11.771  32.303   8.343
  417POPC   C3B 9933  11.674  32.120   7.953
  417POPC   C4B 9934  11.574  32.195   7.540
  418POPC   NC3 9935  31.251  12.355   9.520
  418POPC   PO4 9936  31.898  11.925   9.468
  418POPC   GL1 9937  31.655  12.190   9.248
  418POPC   GL2 9938  31.832  12.431   9.075
  418POPC   C1A 9939  31.360  12.123   8.910
  418POPC   D2A 9940  31.452  12.172   8.492
  418POPC   C3A 9941  31.419  11.923   8.140
  418POPC   C4A 9942  31.426  12.139   7.753
  418POPC   C1B 9943  31.866  12.044   8.787
  418POPC   C2B 9944  31.896  11.881   8.334
  418POPC   C3B 9945  31.900  11.967   7.860
  418POPC   C4B 9946  31.851  12.159   7.424
  419POPC   NC3 9947  32.881  20.770   9.444
  419POPC   PO4 9948  32.750  20.143   9.450
  419POPC   GL1 9949  33.123  20.370   9.169
  419POPC   GL2 9950  33.298  20.744   9.180
  419POPC   C1A 9951  33.224  20.518   8.730
  419POPC   D2A 9952  32.936  20.681   8.419
  419POPC   C3A 9953  33.097  20.629   8.031
  419POPC   C4A 9954  33.209  20.455   7.684
  419POPC   C1B 9955  33.381  21.000   8.811
  419POPC   C2B 9956  33.421  20.881   8.404
  419POPC   C3B 9957  33.362  21.078   8.040
  419POPC   C4B 9958  33.387  20.940   7.652
  420POPC   NC3 9959   9.848  38.754   9.743
  420POPC   PO4 9960  10.037  39.435   9.636
  420POPC   GL1 9961   9.963  39.203   9.263
  420POPC   GL2 9962   9.677  39.266   9.183
  420POPC   C1A 9963  10.039  39.275   8.813
  420POPC   D2A 9964  10.203  39.322   8.392
  420POPC   C3A 9965   9.913  39.378   8.033
  420POPC   C4A 9966   9.867  39.141   7.696
  420POPC   C1B 9967   9.617  38.984   8.837
  420POPC   C2B 9968   9.670  39.160   8.445
  420POPC   C3B 9969   9.466  39.000   8.110
  420POPC   C4B 9970   9.506  38.809   7.749
  421POPC   NC3 9971  35.338  34.018   9.931
  421POPC   PO4 9972  35.411  33.594   9.529
  421POPC   GL1 9973  35.364  33.773   9.099
  421POPC   GL2 9974  35.154  34.073   9.052
  421POPC   C1A 9975  35.302  33.702   8.651
  421POPC   D2A 9976  35.369  33.865   8.222
  421POPC   C3A 9977  35.272  33.641   7.799
  421POPC   C4A 9978  35.146  33.499   7.359
  421POPC   C1B 9979  35.334  34.230   8.651
  421POPC   C2B 9980  35.390  34.393   8.209
  421POPC   C3B 9981  35.416  34.144   7.800
  421POPC   C4B 9982  35.098  34.026   7.467
  422POPC   NC3 9983   7.673  30.000   9.785
  422POPC   PO4 9984   8.330  30.132   9.501
  422POPC   GL1 9985   8.214  30.096   9.101
  422POPC   GL2 9986   7.959  30.301   9.150
  422POPC   C1A 9987   8.207  29.867   8.711
  422POPC   D2A 9988   8.238  29.694   8.297
  422POPC   C3A 9989   8.322  29.825   7.910
  422POPC   C4A 9990   7.960  29.697   7.691
  422POPC   C1B 9991   8.237  30.429   8.762
  422POPC   C2B 9992   8.110  30.241   8.374
  422POPC   C3B 9993   8.100  30.348   7.951
  422POPC   C4B 9994   8.208  30.190   7.557
  423POPC   NC3 9995  27.205  38.265   9.317
  423POPC   PO4 9996  27.759  38.243   9.507
  423POPC   GL1 9997  27.914  38.499   9.179
  423POPC   GL2 9998  27.573  38.600   9.122
  423POPC   C1A 9999  27.929  38.763   8.808
  423POPC   D2A10000  27.616  38.769   8.463
  423POPC   C3A10001  27.702  38.503   8.124
  423POPC   C4A10002  27.752  38.446   7.697
  423POPC   C1B10003  27.603  38.352   8.747
  423POPC   C2B10004  27.358  38.200   8.378
  423POPC   C3B10005  27.361  38.144   7.920
  423POPC   C4B10006  27.380  38.217   7.450
  424POPC   NC310007  15.616  41.161   9.797
  424POPC   PO410008  16.156  41.066   9.588
  424POPC   GL110009  16.057  40.778   9.228
  424POPC   GL210010  15.770  40.864   9.202
  424POPC   C1A10011  15.980  40.689   8.748
  424POPC   D2A10012  16.189  40.815   8.316
  424POPC   C3A10013  16.098  40.820   7.872
  424POPC   C4A10014  16.083  40.942   7.451
  424POPC   C1B10015  15.619  41.079   8.876
  424POPC   C2B10016  15.753  41.089   8.456
  424POPC   C3B10017  15.654  40.818   8.100
  424POPC   C4B10018  15.660  41.034   7.696
  425POPC   NC310019  28.199  10.911   9.529
  425POPC   PO410020  28.444  11.599   9.564
  425POPC   GL110021  28.560  11.323   9.244
  425POPC   GL210022  28.199  11.300   9.185
  425POPC   C1A10023  28.705  11.455   8.808
  425POPC   D2A10024  28.720  11.296   8.365
  425POPC   C3A10025  28.697  11.497   7.964
  425POPC   C4A10026  28.528  11.812   7.708
  425POPC   C1B10027  28.258  11.190   8.764
  425POPC   C2B10028  28.207  11.239   8.365
  425POPC   C3B10029  28.305  11.164   7.969
  425POPC   C4B10030  28.262  10.781   7.804
  426POPC   NC310031  30.398  20.920   9.266
  426POPC   PO410032  30.813  21.466   9.410
  426POPC   GL110033  30.861  21.232   9.072
  426POPC   GL210034  30.522  21.332   8.997
  426POPC   C1A10035  30.892  21.308   8.633
  426POPC   D2A10036  31.079  21.234   8.249
  426POPC   C3A10037  31.012  21.530   7.959
  426POPC   C4A10038  30.850  21.432   7.525
  426POPC   C1B10039  30.436  21.617   8.676
  426POPC   C2B10040  30.458  21.370   8.305
  426POPC   C3B10041  30.571  21.272   7.918
  426POPC   C4B10042  30.572  21.713   7.836
  427POPC   NC310043  27.048   0.844   9.567
  427POPC   PO410044  26.500   1.281   9.387
  427POPC   GL110045  26.800   1.192   9.070
  427POPC   GL210046  27.071   0.941   9.048
  427POPC   C1A10047  26.701   1.240   8.645
  427POPC   D2A10048  26.529   1.048   8.293
  427POPC   C3A10049  26.771   1.244   7.980
  427POPC   C4A10050  26.776   1.518   7.619
  427POPC   C1B10051  27.169   1.328   8.764
  427POPC   C2B10052  27.118   1.579   8.399
  427POPC   C3B10053  27.224   1.489   7.984
  427POPC   C4B10054  27.225   1.068   7.799
  428POPC   NC310055  19.480  33.648   9.312
  428POPC   PO410056  18.956  33.942   9.678
  428POPC   GL110057  18.843  33.935   9.224
  428POPC   GL210058  19.133  34.091   9.111
  428POPC   C1A10059  18.762  33.999   8.752
  428POPC   D2A10060  18.988  34.096   8.348
  428POPC   C3A10061  18.923  33.898   7.937
  428POPC   C4A10062  18.791  33.620   7.571
  428POPC   C1B10063  19.261  33.887   8.757
  428POPC   C2B10064  19.464  33.818   8.426
  428POPC   C3B10065  19.421  33.875   8.053
  428POPC   C4B10066  19.303  33.695   7.665
  429POPC   NC310067  26.548  42.728   9.535
  429POPC   PO410068  26.844  42.139   9.667
  429POPC   GL110069  26.810  42.334   9.224
  429POPC   GL210070  26.687  42.653   9.052
  429POPC   C1A10071  26.873  42.260   8.773
  429POPC   D2A10072  26.615  42.236   8.420
  429POPC   C3A10073  26.786  42.014   8.111
  429POPC   C4A10074  26.810  42.141   7.716
  429POPC   C1B10075  27.112  42.690   8.798
  429POPC   C2B10076  27.075  42.538   8.347
  429POPC   C3B10077  26.771  42.569   7.989
  429POPC   C4B10078  26.823  42.649   7.504
  430POPC   NC310079  43.246  40.222   9.411
  430POPC   PO410080  43.872  40.192   9.593
  430POPC   GL110081  43.768  39.935   9.242
  430POPC   GL210082  43.706  40.244   9.084
  430POPC   C1A10083  43.816  39.736   8.833
  430POPC   D2A10084  43.576  39.625   8.462
  430POPC   C3A10085  43.694  39.975   8.209
  430POPC   C4A10086  43.887  40.013   7.815
  430POPC   C1B10087  43.923  40.237   8.669
  430POPC   C2B10088  44.163  40.221   8.257
  430POPC   C3B10089  44.302  40.314   7.819
  430POPC   C4B10090  44.268  40.289   7.357
  431POPC   NC310091  39.636  33.621   9.410
  431POPC   PO410092  39.345  34.068   9.696
  431POPC   GL110093  39.458  34.063   9.235
  431POPC   GL210094  39.181  33.932   9.121
  431POPC   C1A10095  39.563  33.848   8.804
  431POPC   D2A10096  39.384  33.811   8.418
  431POPC   C3A10097  39.476  33.922   8.026
  431POPC   C4A10098  39.578  33.733   7.672
  431POPC   C1B10099  39.099  34.132   8.748
  431POPC   C2B10100  38.920  33.964   8.377
  431POPC   C3B10101  38.978  33.829   7.981
  431POPC   C4B10102  38.948  34.197   7.766
  432POPC   NC310103   8.728  10.808   9.492
  432POPC   PO410104   9.151  10.297   9.679
  432POPC   GL110105   9.217  10.238   9.230
  432POPC   GL210106   9.556  10.230   9.099
  432POPC   C1A10107   9.136  10.421   8.817
  432POPC   D2A10108   8.829  10.496   8.488
  432POPC   C3A10109   9.013  10.629   8.102
  432POPC   C4A10110   8.870  10.541   7.706
  432POPC   C1B10111   9.534  10.137   8.669
  432POPC   C2B10112   9.306  10.257   8.314
  432POPC   C3B10113   9.143  10.163   7.897
  432POPC   C4B10114   9.152  10.261   7.401
  433POPC   NC310115  28.120  41.140   9.618
  433POPC   PO410116  28.454  40.575   9.528
  433POPC   GL110117  28.282  40.732   9.181
  433POPC   GL210118  28.337  41.077   9.161
  433POPC   C1A10119  28.230  40.657   8.754
  433POPC   D2A10120  28.336  40.497   8.371
  433POPC   C3A10121  28.390  40.692   7.984
  433POPC   C4A10122  28.755  40.857   7.781
  433POPC   C1B10123  28.093  41.144   8.800
  433POPC   C2B10124  28.245  41.159   8.356
  433POPC   C3B10125  28.078  41.087   7.951
  433POPC   C4B10126  28.312  41.084   7.612
  434POPC   NC310127  41.899   0.845   9.398
  434POPC   PO410128  42.480   0.528   9.628
  434POPC   GL110129  42.466   0.318   9.205
  434POPC   GL210130  42.104   0.242   9.136
  434POPC   C1A10131  42.635   0.286   8.768
  434POPC   D2A10132  42.560   0.126   8.351
  434POPC   C3A10133  42.799   0.354   8.059
  434POPC   C4A10134  42.743   0.429   7.608
  434POPC   C1B10135  42.162   0.478   8.756
  434POPC   C2B10136  42.340   0.606   8.364
  434POPC   C3B10137  42.377   0.554   7.923
  434POPC   C4B10138  42.183   0.306   7.562
  435POPC   NC310139  20.018  11.920   9.613
  435POPC   PO410140  20.666  11.840   9.548
  435POPC   GL110141  20.641  11.726   9.150
  435POPC   GL210142  20.303  11.590   9.206
  435POPC   C1A10143  20.807  11.790   8.700
  435POPC   D2A10144  21.002  11.805   8.255
  435POPC   C3A10145  20.682  11.862   7.957
  435POPC   C4A10146  20.427  12.214   7.875
  435POPC   C1B10147  20.286  11.888   8.828
  435POPC   C2B10148  20.378  12.009   8.377
  435POPC   C3B10149  20.195  11.755   8.023
  435POPC   C4B10150  20.281  11.784   7.617
  436POPC   NC310151  42.374  30.912   9.376
  436POPC   PO410152  42.034  30.341   9.246
  436POPC   GL110153  42.449  30.376   9.033
  436POPC   GL210154  42.580  30.742   8.956
  436POPC   C1A10155  42.452  30.437   8.581
  436POPC   D2A10156  42.305  30.859   8.414
  436POPC   C3A10157  42.342  30.862   7.989
  436POPC   C4A10158  42.217  30.576   7.678
  436POPC   C1B10159  42.777  30.828   8.600
  436POPC   C2B10160  42.822  30.610   8.250
  436POPC   C3B10161  42.742  30.369   7.934
  436POPC   C4B10162  42.714  30.649   7.655
  437POPC   NC310163  40.434  33.205   9.543
  437POPC   PO410164  41.114  33.077   9.660
  437POPC   GL110165  40.858  32.968   9.288
  437POPC   GL210166  40.651  33.213   9.089
  437POPC   C1A10167  40.999  32.876   8.873
  437POPC   D2A10168  40.806  32.864   8.476
  437POPC   C3A10169  40.979  32.924   8.085
  437POPC   C4A10170  40.789  32.900   7.721
  437POPC   C1B10171  40.428  33.167   8.702
  437POPC   C2B10172  40.549  33.312   8.285
  437POPC   C3B10173  40.461  33.281   7.835
  437POPC   C4B10174  40.554  33.239   7.396
  438POPC   NC310175  18.712  20.712   9.492
  438POPC   PO410176  19.301  20.456   9.558
  438POPC   GL110177  19.164  20.743   9.198
  438POPC   GL210178  18.856  20.731   8.998
  438POPC   C1A10179  19.266  20.755   8.742
  438POPC   D2A10180  19.310  20.528   8.367
  438POPC   C3A10181  19.153  20.752   8.026
  438POPC   C4A10182  19.380  20.928   7.715
  438POPC   C1B10183  18.774  20.434   8.664
  438POPC   C2B10184  18.600  20.411   8.231
  438POPC   C3B10185  18.686  20.608   7.818
  438POPC   C4B10186  19.035  20.602   7.508
  439POPC   NC310187   1.562  33.238   9.473
  439POPC   PO410188   2.229  33.152   9.497
  439POPC   GL110189   2.137  32.971   9.118
  439POPC   GL210190   1.781  32.941   9.114
  439POPC   C1A10191   2.294  32.984   8.711
  439POPC   D2A10192   2.134  33.139   8.336
  439POPC   C3A10193   2.308  32.944   7.994
  439POPC   C4A10194   2.413  33.140   7.618
  439POPC   C1B10195   1.538  32.848   8.753
  439POPC   C2B10196   1.682  32.908   8.374
  439POPC   C3B10197   1.779  32.800   7.970
  439POPC   C4B10198   1.824  32.977   7.583
  440POPC   NC310199  13.807  42.865   9.463
  440POPC   PO410200  13.250  43.304   9.409
  440POPC   GL110201  13.519  43.084   9.113
  440POPC   GL210202  13.841  43.225   9.039
  440POPC   C1A10203  13.563  42.846   8.732
  440POPC   D2A10204  13.402  42.760   8.313
  440POPC   C3A10205  13.729  42.837   8.001
  440POPC   C4A10206  13.813  42.911   7.565
  440POPC   C1B10207  14.064  43.097   8.691
  440POPC   C2B10208  13.835  43.217   8.331
  440POPC   C3B10209  13.410  43.267   8.128
  440POPC   C4B10210  13.316  43.374   7.680
  441POPC   NC310211  37.869  13.196   9.450
  441POPC   PO410212  37.833  12.503   9.576
  441POPC   GL110213  37.567  12.573   9.219
  441POPC   GL210214  37.602  12.898   9.126
  441POPC   C1A10215  37.525  12.552   8.773
  441POPC   D2A10216  37.743  12.590   8.383
  441POPC   C3A10217  37.607  12.516   7.973
  441POPC   C4A10218  37.813  12.801   7.695
  441POPC   C1B10219  37.930  12.904   8.760
  441POPC   C2B10220  37.941  13.092   8.320
  441POPC   C3B10221  37.695  13.250   7.967
  441POPC   C4B10222  37.316  13.096   7.812
  442POPC   NC310223  44.535  30.237   9.608
  442POPC   PO410224  44.797  29.711   9.347
  442POPC   GL110225  44.801  30.162   9.151
  442POPC   GL210226  44.484  30.330   9.114
  442POPC   C1A10227  44.786  30.286   8.710
  442POPC   D2A10228  44.765  29.889   8.487
  442POPC   C3A10229  44.681  29.980   8.093
  442POPC   C4A10230  44.835  29.767   7.765
  442POPC   C1B10231  44.393  29.997   8.846
  442POPC   C2B10232  44.246  30.000   8.423
  442POPC   C3B10233  44.123  30.047   8.005
  442POPC   C4B10234  44.402  30.067   7.670
  443POPC   NC310235  43.426  25.707   9.372
  443POPC   PO410236  42.859  26.140   9.433
  443POPC   GL110237  43.044  25.920   9.123
  443POPC   GL210238  42.846  25.626   9.142
  443POPC   C1A10239  43.221  25.995   8.718
  443POPC   D2A10240  43.011  26.126   8.345
  443POPC   C3A10241  43.212  25.956   8.004
  443POPC   C4A10242  42.907  26.144   7.783
  443POPC   C1B10243  42.746  25.827   8.730
  443POPC   C2B10244  42.886  25.649   8.377
  443POPC   C3B10245  42.771  25.729   7.997
  443POPC   C4B10246  43.002  25.729   7.531
  444POPC   NC310247  32.420  32.626   9.441
  444POPC   PO410248  32.393  33.322   9.607
  444POPC   GL110249  32.324  33.070   9.224
  444POPC   GL210250  32.051  33.084   9.130
  444POPC   C1A10251  32.314  32.814   8.800
  444POPC   D2A10252  32.347  33.022   8.398
  444POPC   C3A10253  32.355  32.842   7.976
  444POPC   C4A10254  32.561  33.104   7.683
  444POPC   C1B10255  32.067  33.279   8.755
  444POPC   C2B10256  31.985  33.390   8.368
  444POPC   C3B10257  32.199  33.344   8.006
  444POPC   C4B10258  32.124  33.376   7.594
  445POPC   NC310259   4.181  35.626   9.296
  445POPC   PO410260   4.065  34.938   9.231
  445POPC   GL110261   4.234  35.244   8.998
  445POPC   GL210262   4.554  35.265   9.216
  445POPC   C1A10263   4.230  35.572   8.648
  445POPC   D2A10264   4.217  35.737   8.234
  445POPC   C3A10265   4.096  35.452   7.947
  445POPC   C4A10266   4.109  35.126   7.631
  445POPC   C1B10267   4.687  35.531   8.880
  445POPC   C2B10268   4.731  35.511   8.437
  445POPC   C3B10269   4.542  35.291   8.125
  445POPC   C4B10270   4.544  35.380   7.698
  446POPC   NC310271   6.320  29.671   9.764
  446POPC   PO410272   6.871  29.707   9.375
  446POPC   GL110273   6.762  29.982   9.059
  446POPC   GL210274   6.660  29.743   8.844
  446POPC   C1A10275   6.863  30.193   8.702
  446POPC   D2A10276   6.783  29.941   8.350
  446POPC   C3A10277   6.759  30.236   8.041
  446POPC   C4A10278   6.722  30.164   7.632
  446POPC   C1B10279   6.381  30.057   8.641
  446POPC   C2B10280   6.279  30.248   8.266
  446POPC   C3B10281   6.269  30.115   7.859
  446POPC   C4B10282   6.264  29.926   7.458
  447POPC   NC310283  12.465  30.039   9.643
  447POPC   PO410284  13.148  29.869   9.647
  447POPC   GL110285  12.849  29.922   9.308
  447POPC   GL210286  12.976  30.240   9.180
  447POPC   C1A10287  12.879  29.897   8.846
  447POPC   D2A10288  12.676  30.079   8.491
  447POPC   C3A10289  12.749  29.840   8.149
  447POPC   C4A10290  12.811  29.857   7.729
  447POPC   C1B10291  13.035  30.377   8.727
  447POPC   C2B10292  13.145  30.190   8.295
  447POPC   C3B10293  13.113  30.272   7.835
  447POPC   C4B10294  13.146  30.048   7.407
  448POPC   NC310295   0.617  43.087   9.515
  448POPC   PO410296   0.051  43.418   9.390
  448POPC   GL110297   0.365  43.156   9.077
  448POPC   GL210298   0.593  42.823   9.080
  448POPC   C1A10299   0.440  43.040   8.643
  448POPC   D2A10300   0.627  43.174   8.264
  448POPC   C3A10301   0.382  43.148   7.911
  448POPC   C4A10302   0.508  42.976   7.516
  448POPC   C1B10303   0.849  42.722   8.732
  448POPC   C2B10304   1.001  42.819   8.325
  448POPC   C3B10305   0.833  42.796   7.913
  448POPC   C4B10306   0.872  42.639   7.481
  449POPC   NC310307  17.904  33.240   9.338
  449POPC   PO410308  17.341  32.830   9.521
  449POPC   GL110309  17.472  32.986   9.156
  449POPC   GL210310  17.738  32.782   9.125
  449POPC   C1A10311  17.455  33.115   8.750
  449POPC   D2A10312  17.436  32.877   8.369
  449POPC   C3A10313  17.416  33.132   8.034
  449POPC   C4A10314  17.290  32.929   7.702
  449POPC   C1B10315  17.814  32.765   8.691
  449POPC   C2B10316  17.959  32.873   8.283
  449POPC   C3B10317  17.750  32.723   7.928
  449POPC   C4B10318  17.760  32.757   7.496
  450POPC   NC310319  41.818   4.186   9.429
  450POPC   PO410320  41.316   4.741   9.561
  450POPC   GL110321  41.584   4.601   9.230
  450POPC   GL210322  41.346   4.318   9.159
  450POPC   C1A10323  41.706   4.482   8.802
  450POPC   D2A10324  41.369   4.453   8.487
  450POPC   C3A10325  41.412   4.386   8.041
  450POPC   C4A10326  41.772   4.557   7.812
  450POPC   C1B10327  41.523   4.017   8.857
  450POPC   C2B10328  41.805   4.021   8.525
  450POPC   C3B10329  41.772   4.024   8.089
  450POPC   C4B10330  42.032   4.118   7.739
  451POPC   NC310331  27.172   0.139   9.667
  451POPC   PO410332  26.688   0.538   9.727
  451POPC   GL110333  26.595   0.490   9.251
  451POPC   GL210334  26.549   0.796   9.263
  451POPC   C1A10335  26.484   0.287   8.822
  451POPC   D2A10336  26.450   0.430   8.355
  451POPC   C3A10337  26.714   0.267   7.984
  451POPC   C4A10338  27.175   0.217   7.974
  451POPC   C1B10339  26.619   0.776   8.820
  451POPC   C2B10340  26.975   0.811   8.542
  451POPC   C3B10341  26.951   0.754   8.104
  451POPC   C4B10342  26.561   0.762   7.850
  452POPC   NC310343  16.518  35.875   9.279
  452POPC   PO410344  16.933  35.305   9.568
  452POPC   GL110345  16.858  35.193   9.185
  452POPC   GL210346  16.775  35.498   9.044
  452POPC   C1A10347  17.098  35.048   8.829
  452POPC   D2A10348  16.949  34.898   8.424
  452POPC   C3A10349  17.029  35.109   8.017
  452POPC   C4A10350  16.895  34.986   7.601
  452POPC   C1B10351  16.746  35.328   8.616
  452POPC   C2B10352  16.579  35.352   8.209
  452POPC   C3B10353  16.643  35.646   7.882
  452POPC   C4B10354  16.817  35.466   7.463
  453POPC   NC310355  17.393   1.979   9.584
  453POPC   PO410356  18.090   2.152   9.556
  453POPC   GL110357  17.885   1.935   9.169
  453POPC   GL210358  17.527   1.895   9.111
  453POPC   C1A10359  17.836   2.015   8.720
  453POPC   D2A10360  17.525   2.120   8.424
  453POPC   C3A10361  17.597   2.011   8.021
  453POPC   C4A10362  17.689   1.872   7.634
  453POPC   C1B10363  17.242   1.831   8.746
  453POPC   C2B10364  17.269   1.664   8.300
  453POPC   C3B10365  17.204   1.731   7.827
  453POPC   C4B10366  17.245   2.123   7.551
  454POPC   NC310367   8.424  33.031   9.617
  454POPC   PO410368   7.874  33.369   9.629
  454POPC   GL110369   7.854  33.186   9.209
  454POPC   GL210370   8.221  33.257   9.169
  454POPC   C1A10371   7.973  32.998   8.785
  454POPC   D2A10372   7.883  32.847   8.351
  454POPC   C3A10373   8.183  32.866   7.999
  454POPC   C4A10374   8.111  32.766   7.544
  454POPC   C1B10375   8.035  33.512   8.843
  454POPC   C2B10376   7.910  33.381   8.440
  454POPC   C3B10377   7.987  33.507   8.054
  454POPC   C4B10378   8.013  33.250   7.712
  455POPC   NC310379  40.379   5.370   9.471
  455POPC   PO410380  39.694   5.367   9.596
  455POPC   GL110381  39.926   5.166   9.256
  455POPC   GL210382  39.947   4.823   9.351
  455POPC   C1A10383  40.123   5.259   8.842
  455POPC   D2A10384  39.921   5.365   8.450
  455POPC   C3A10385  40.116   5.218   8.118
  455POPC   C4A10386  40.058   5.197   7.705
  455POPC   C1B10387  40.086   4.737   8.921
  455POPC   C2B10388  40.155   4.865   8.478
  455POPC   C3B10389  39.979   4.720   8.034
  455POPC   C4B10390  40.024   4.711   7.558
  456POPC   NC310391  30.651  25.142   9.280
  456POPC   PO410392  31.219  25.393   9.610
  456POPC   GL110393  31.088  25.376   9.142
  456POPC   GL210394  30.936  25.079   8.873
  456POPC   C1A10395  30.913  25.589   8.759
  456POPC   D2A10396  30.792  25.358   8.392
  456POPC   C3A10397  30.601  25.530   8.028
  456POPC   C4A10398  30.700  25.421   7.627
  456POPC   C1B10399  30.519  24.948   8.627
  456POPC   C2B10400  30.227  24.910   8.256
  456POPC   C3B10401  30.404  25.047   7.868
  456POPC   C4B10402  30.861  24.943   7.717
  457POPC   NC310403  20.740  19.149   9.717
  457POPC   PO410404  21.146  18.907   9.399
  457POPC   GL110405  20.763  19.133   9.171
  457POPC   GL210406  20.412  19.013   9.179
  457POPC   C1A10407  20.550  19.332   8.775
  457POPC   D2A10408  20.316  19.223   8.362
  457POPC   C3A10409  20.329  19.433   7.922
  457POPC   C4A10410  20.525  19.597   7.516
  457POPC   C1B10411  20.487  18.826   8.747
  457POPC   C2B10412  20.469  18.714   8.291
  457POPC   C3B10413  20.456  18.871   7.877
  457POPC   C4B10414  20.545  18.667   7.487
  458POPC   NC310415   4.642  10.719   9.481
  458POPC   PO410416   4.151  10.193   9.561
  458POPC   GL110417   4.398  10.386   9.175
  458POPC   GL210418   4.338  10.739   9.075
  458POPC   C1A10419   4.444  10.410   8.699
  458POPC   D2A10420   4.620  10.234   8.300
  458POPC   C3A10421   4.354  10.216   7.909
  458POPC   C4A10422   4.349  10.323   7.412
  458POPC   C1B10423   4.688  10.866   8.818
  458POPC   C2B10424   4.837  10.771   8.414
  458POPC   C3B10425   4.716  10.887   8.001
  458POPC   C4B10426   4.405  10.690   7.773
  459POPC   NC310427  33.654  18.408   9.536
  459POPC   PO410428  33.407  17.825   9.569
  459POPC   GL110429  33.758  18.056   9.185
  459POPC   GL210430  33.868  18.457   9.098
  459POPC   C1A10431  33.913  18.163   8.715
  459POPC   D2A10432  34.091  18.491   8.420
  459POPC   C3A10433  34.129  18.344   8.003
  459POPC   C4A10434  33.774  18.220   7.757
  459POPC   C1B10435  33.757  18.728   8.729
  459POPC   C2B10436  33.546  18.740   8.348
  459POPC   C3B10437  33.742  18.733   7.918
  459POPC   C4B10438  33.643  18.691   7.432
  460POPC   NC310439  31.483  25.030   9.440
  460POPC   PO410440  31.814  25.536   9.445
  460POPC   GL110441  31.783  25.215   9.088
  460POPC   GL210442  31.447  25.039   8.948
  460POPC   C1A10443  31.818  25.174   8.649
  460POPC   D2A10444  31.769  25.486   8.359
  460POPC   C3A10445  31.678  25.388   7.965
  460POPC   C4A10446  31.721  25.081   7.661
  460POPC   C1B10447  31.454  25.500   8.807
  460POPC   C2B10448  31.312  25.722   8.458
  460POPC   C3B10449  31.154  25.584   8.079
  460POPC   C4B10450  31.212  25.334   7.701
  461POPC   NC310451   6.863  34.860   9.530
  461POPC   PO410452   6.450  34.336   9.455
  461POPC   GL110453   6.692  34.557   9.158
  461POPC   GL210454   6.506  34.835   9.106
  461POPC   C1A10455   6.909  34.680   8.784
  461POPC   D2A10456   7.071  34.477   8.429
  461POPC   C3A10457   7.014  34.735   8.082
  461POPC   C4A10458   6.826  34.575   7.738
  461POPC   C1B10459   6.406  34.579   8.715
  461POPC   C2B10460   6.486  34.566   8.234
  461POPC   C3B10461   6.343  34.619   7.780
  461POPC   C4B10462   6.263  34.452   7.335
  462POPC   NC310463   3.802  20.505   9.485
  462POPC   PO410464   3.257  20.826   9.552
  462POPC   GL110465   3.381  20.616   9.146
  462POPC   GL210466   3.712  20.613   9.013
  462POPC   C1A10467   3.348  20.496   8.686
  462POPC   D2A10468   3.664  20.542   8.369
  462POPC   C3A10469   3.528  20.475   7.936
  462POPC   C4A10470   3.410  20.628   7.522
  462POPC   C1B10471   3.800  20.978   8.796
  462POPC   C2B10472   3.917  20.984   8.367
  462POPC   C3B10473   3.981  20.735   7.997
  462POPC   C4B10474   3.872  20.821   7.586
  463POPC   NC310475  16.536  36.672   9.488
  463POPC   PO410476  16.883  37.233   9.543
  463POPC   GL110477  17.001  37.032   9.136
  463POPC   GL210478  16.785  36.788   9.042
  463POPC   C1A10479  16.904  37.173   8.716
  463POPC   D2A10480  16.688  37.105   8.328
  463POPC   C3A10481  16.901  36.994   7.960
  463POPC   C4A10482  16.607  37.168   7.650
  463POPC   C1B10483  16.468  36.886   8.751
  463POPC   C2B10484  16.278  36.806   8.360
  463POPC   C3B10485  16.466  36.718   7.962
  463POPC   C4B10486  16.302  36.626   7.577
  464POPC   NC310487   7.581   0.015   9.551
  464POPC   PO410488   7.455   0.628   9.499
  464POPC   GL110489   7.575   0.393   9.185
  464POPC   GL210490   7.296   0.242   9.075
  464POPC   C1A10491   7.662   0.601   8.801
  464POPC   D2A10492   7.351   0.667   8.528
  464POPC   C3A10493   7.407   0.628   8.083
  464POPC   C4A10494   7.340   0.828   7.673
  464POPC   C1B10495   7.290   0.020   8.697
  464POPC   C2B10496   7.391  44.872   8.280
  464POPC   C3B10497   7.300   0.131   7.939
  464POPC   C4B10498   7.054  44.945   7.677
  465POPC   NC310499   6.546  37.418  10.005
  465POPC   PO410500   7.027  37.025   9.642
  465POPC   GL110501   6.896  36.913   9.216
  465POPC   GL210502   6.562  37.007   9.316
  465POPC   C1A10503   6.862  36.900   8.749
  465POPC   D2A10504   6.821  36.702   8.352
  465POPC   C3A10505   6.712  36.853   7.940
  465POPC   C4A10506   6.456  36.559   7.714
  465POPC   C1B10507   6.402  36.941   8.939
  465POPC   C2B10508   6.396  36.974   8.514
  465POPC   C3B10509   6.517  37.227   8.235
  465POPC   C4B10510   6.377  37.270   7.809
  466POPC   NC310511  11.515  14.822   9.555
  466POPC   PO410512  11.125  15.394   9.543
  466POPC   GL110513  11.238  15.060   9.221
  466POPC   GL210514  11.537  15.198   9.172
  466POPC   C1A10515  11.431  14.889   8.797
  466POPC   D2A10516  11.523  15.123   8.415
  466POPC   C3A10517  11.350  15.050   8.018
  466POPC   C4A10518  11.621  15.104   7.722
  466POPC   C1B10519  11.472  15.446   8.826
  466POPC   C2B10520  11.265  15.587   8.459
  466POPC   C3B10521  11.172  15.523   8.006
  466POPC   C4B10522  11.381  15.549   7.626
  467POPC   NC310523  14.859  40.566   9.842
  467POPC   PO410524  14.336  40.749   9.377
  467POPC   GL110525  14.469  40.696   8.984
  467POPC   GL210526  14.213  40.696   8.835
  467POPC   C1A10527  14.646  40.855   8.617
  467POPC   D2A10528  14.434  40.907   8.265
  467POPC   C3A10529  14.490  40.538   8.088
  467POPC   C4A10530  14.457  40.683   7.716
  467POPC   C1B10531  14.105  41.075   8.644
  467POPC   C2B10532  13.957  41.107   8.228
  467POPC   C3B10533  13.904  40.925   7.776
  467POPC   C4B10534  14.007  41.157   7.369
  468POPC   NC310535  42.723   7.219   9.378
  468POPC   PO410536  43.216   7.660   9.475
  468POPC   GL110537  43.086   7.452   9.101
  468POPC   GL210538  42.744   7.571   9.042
  468POPC   C1A10539  43.305   7.280   8.753
  468POPC   D2A10540  43.475   7.424   8.363
  468POPC   C3A10541  43.248   7.297   7.999
  468POPC   C4A10542  43.204   7.186   7.599
  468POPC   C1B10543  42.753   7.469   8.661
  468POPC   C2B10544  42.925   7.275   8.377
  468POPC   C3B10545  42.732   7.421   8.060
  468POPC   C4B10546  42.792   7.480   7.663
  469POPC   NC310547  24.165  36.733   9.513
  469POPC   PO410548  24.865  36.838   9.420
  469POPC   GL110549  24.716  36.769   9.005
  469POPC   GL210550  24.465  36.529   9.120
  469POPC   C1A10551  24.710  36.540   8.606
  469POPC   D2A10552  24.621  36.434   8.158
  469POPC   C3A10553  24.681  36.764   7.883
  469POPC   C4A10554  24.646  37.240   7.900
  469POPC   C1B10555  24.137  36.556   8.834
  469POPC   C2B10556  24.074  36.552   8.386
  469POPC   C3B10557  24.054  36.531   7.923
  469POPC   C4B10558  24.293  36.570   7.520
  470POPC   NC310559  40.936   9.417   9.477
  470POPC   PO410560  40.618   9.989   9.409
  470POPC   GL110561  40.873   9.818   9.121
  470POPC   GL210562  40.707   9.527   9.031
  470POPC   C1A10563  41.049   9.765   8.718
  470POPC   D2A10564  41.107   9.952   8.315
  470POPC   C3A10565  40.884   9.738   7.979
  470POPC   C4A10566  40.849   9.651   7.529
  470POPC   C1B10567  40.462   9.510   8.666
  470POPC   C2B10568  40.435   9.603   8.216
  470POPC   C3B10569  40.481   9.419   7.807
  470POPC   C4B10570  40.415   9.451   7.364
  471POPC   NC310571   4.034  12.552   9.417
  471POPC   PO410572   4.437  11.963   9.524
  471POPC   GL110573   4.447  12.079   9.136
  471POPC   GL210574   4.540  12.400   9.187
  471POPC   C1A10575   4.334  12.105   8.722
  471POPC   D2A10576   4.563  12.060   8.365
  471POPC   C3A10577   4.408  12.124   7.986
  471POPC   C4A10578   4.106  11.987   7.717
  471POPC   C1B10579   4.774  12.415   8.816
  471POPC   C2B10580   4.893  12.686   8.486
  471POPC   C3B10581   4.752  12.621   8.053
  471POPC   C4B10582   4.538  12.497   7.688
  472POPC   NC310583  24.595  39.616   9.589
  472POPC   PO410584  24.048  39.474   9.558
  472POPC   GL110585  24.372  39.350   9.196
  472POPC   GL210586  24.768  39.275   9.228
  472POPC   C1A10587  24.577  39.397   8.770
  472POPC   D2A10588  24.640  39.248   8.341
  472POPC   C3A10589  24.579  39.474   7.921
  472POPC   C4A10590  24.325  39.500   7.534
  472POPC   C1B10591  25.003  39.076   8.862
  472POPC   C2B10592  25.144  39.069   8.397
  472POPC   C3B10593  24.940  39.087   7.970
  472POPC   C4B10594  24.687  38.823   7.739
  473POPC   NC310595  40.023  30.898   9.452
  473POPC   PO410596  40.410  30.371   9.434
  473POPC   GL110597  40.173  30.531   9.076
  473POPC   GL210598  39.809  30.649   9.046
  473POPC   C1A10599  40.113  30.430   8.643
  473POPC   D2A10600  40.232  30.665   8.277
  473POPC   C3A10601  39.997  30.563   7.874
  473POPC   C4A10602  40.106  30.667   7.421
  473POPC   C1B10603  39.815  30.850   8.613
  473POPC   C2B10604  39.839  30.975   8.165
  473POPC   C3B10605  39.837  31.042   7.729
  473POPC   C4B10606  39.665  31.416   7.540
  474POPC   NC310607  18.522  10.520   9.889
  474POPC   PO410608  18.083  10.423   9.405
  474POPC   GL110609  18.212  10.487   9.006
  474POPC   GL210610  17.995  10.756   8.993
  474POPC   C1A10611  18.332  10.257   8.632
  474POPC   D2A10612  18.243  10.171   8.204
  474POPC   C3A10613  18.238  10.511   7.934
  474POPC   C4A10614  18.325  10.554   7.503
  474POPC   C1B10615  18.189  10.781   8.578
  474POPC   C2B10616  18.095  10.942   8.162
  474POPC   C3B10617  17.974  10.925   7.730
  474POPC   C4B10618  18.130  10.967   7.271
  475POPC   NC310619  36.484  14.857   9.577
  475POPC   PO410620  36.710  15.477   9.566
  475POPC   GL110621  36.836  15.177   9.237
  475POPC   GL210622  36.518  15.274   9.109
  475POPC   C1A10623  36.785  14.971   8.789
  475POPC   D2A10624  36.767  15.128   8.338
  475POPC   C3A10625  36.953  15.009   7.928
  475POPC   C4A10626  36.908  14.856   7.483
  475POPC   C1B10627  36.397  15.306   8.672
  475POPC   C2B10628  36.553  15.599   8.360
  475POPC   C3B10629  36.763  15.536   7.967
  475POPC   C4B10630  36.721  15.783   7.579
  476POPC   NC310631  25.298  44.083   9.618
  476POPC   PO410632  25.596  43.489   9.553
  476POPC   GL110633  25.304  43.741   9.251
  476POPC   GL210634  25.048  43.557   9.063
  476POPC   C1A10635  25.235  44.043   8.880
  476POPC   D2A10636  25.423  43.966   8.457
  476POPC   C3A10637  25.300  44.140   8.053
  476POPC   C4A10638  25.061  43.996   7.720
  476POPC   C1B10639  25.442  43.569   8.799
  476POPC   C2B10640  25.534  43.441   8.373
  476POPC   C3B10641  25.333  43.613   8.014
  476POPC   C4B10642  25.245  43.529   7.592
  477POPC   NC310643  18.808   5.192   9.604
  477POPC   PO410644  19.266   4.711   9.556
  477POPC   GL110645  19.342   4.894   9.186
  477POPC   GL210646  19.343   5.256   9.243
  477POPC   C1A10647  19.124   4.910   8.780
  477POPC   D2A10648  19.062   5.080   8.335
  477POPC   C3A10649  19.055   4.913   7.880
  477POPC   C4A10650  18.888   4.675   7.503
  477POPC   C1B10651  19.272   5.399   8.807
  477POPC   C2B10652  19.169   5.577   8.412
  477POPC   C3B10653  19.300   5.424   8.021
  477POPC   C4B10654  19.293   5.349   7.599
  478POPC   NC310655  13.708  28.633   9.625
  478POPC   PO410656  13.090  28.345   9.497
  478POPC   GL110657  13.470  28.305   9.217
  478POPC   GL210658  13.545  28.639   9.136
  478POPC   C1A10659  13.677  28.224   8.787
  478POPC   D2A10660  13.497  28.208   8.352
  478POPC   C3A10661  13.629  27.936   8.019
  478POPC   C4A10662  13.537  28.071   7.624
  478POPC   C1B10663  13.849  28.692   8.786
  478POPC   C2B10664  13.903  28.491   8.361
  478POPC   C3B10665  13.876  28.348   7.899
  478POPC   C4B10666  13.958  28.338   7.392
  479POPC   NC310667  41.688   2.622   9.295
  479POPC   PO410668  41.211   2.914   9.672
  479POPC   GL110669  41.244   2.923   9.194
  479POPC   GL210670  41.561   3.082   9.089
  479POPC   C1A10671  41.250   2.747   8.744
  479POPC   D2A10672  41.201   2.512   8.343
  479POPC   C3A10673  41.389   2.738   8.005
  479POPC   C4A10674  41.709   2.531   7.821
  479POPC   C1B10675  41.602   3.121   8.669
  479POPC   C2B10676  41.759   2.874   8.352
  479POPC   C3B10677  41.985   2.933   8.008
  479POPC   C4B10678  41.752   3.001   7.644
  480POPC   NC310679  11.969  39.688   9.327
  480POPC   PO410680  12.065  40.266   9.731
  480POPC   GL110681  12.122  40.203   9.234
  480POPC   GL210682  11.821  40.041   8.977
  480POPC   C1A10683  12.204  40.295   8.786
  480POPC   D2A10684  11.951  40.247   8.426
  480POPC   C3A10685  12.141  40.256   8.026
  480POPC   C4A10686  12.063  40.472   7.660
  480POPC   C1B10687  11.929  39.759   8.668
  480POPC   C2B10688  12.178  39.813   8.326
  480POPC   C3B10689  11.874  39.836   8.003
  480POPC   C4B10690  11.821  39.597   7.682
  481POPC   NC310691  24.710  27.259   9.552
  481POPC   PO410692  24.089  27.387   9.535
  481POPC   GL110693  24.367  27.311   9.161
  481POPC   GL210694  24.511  26.965   9.180
  481POPC   C1A10695  24.467  27.505   8.739
  481POPC   D2A10696  24.461  27.799   8.403
  481POPC   C3A10697  24.441  27.679   7.977
  481POPC   C4A10698  24.312  27.803   7.540
  481POPC   C1B10699  24.568  27.016   8.719
  481POPC   C2B10700  24.595  27.237   8.293
  481POPC   C3B10701  24.573  27.101   7.865
  481POPC   C4B10702  24.350  26.969   7.450
  482POPC   NC310703  44.051  33.478   9.351
  482POPC   PO410704  43.935  32.824   9.460
  482POPC   GL110705  43.690  33.085   9.142
  482POPC   GL210706  43.508  33.406   9.258
  482POPC   C1A10707  43.776  33.083   8.682
  482POPC   D2A10708  43.933  32.851   8.273
  482POPC   C3A10709  44.016  33.082   7.875
  482POPC   C4A10710  44.103  33.096   7.395
  482POPC   C1B10711  43.392  33.532   8.814
  482POPC   C2B10712  43.474  33.389   8.377
  482POPC   C3B10713  43.508  33.233   7.940
  482POPC   C4B10714  43.751  33.413   7.582
  483POPC   NC310715  20.866  11.416   9.518
  483POPC   PO410716  20.428  10.827   9.583
  483POPC   GL110717  20.593  11.095   9.236
  483POPC   GL210718  20.826  10.908   9.109
  483POPC   C1A10719  20.587  11.347   8.842
  483POPC   D2A10720  20.410  11.516   8.458
  483POPC   C3A10721  20.536  11.366   8.045
  483POPC   C4A10722  20.320  11.286   7.643
  483POPC   C1B10723  20.736  10.913   8.650
  483POPC   C2B10724  20.778  10.941   8.224
  483POPC   C3B10725  20.834  10.990   7.817
  483POPC   C4B10726  20.712  10.780   7.523
  484POPC   NC310727  10.347  41.396   9.639
  484POPC   PO410728  10.882  41.818   9.422
  484POPC   GL110729  10.461  41.701   9.194
  484POPC   GL210730  10.250  41.369   9.152
  484POPC   C1A10731  10.237  41.708   8.773
  484POPC   D2A10732  10.248  41.958   8.385
  484POPC   C3A10733  10.626  41.821   8.171
  484POPC   C4A10734  10.759  41.751   7.759
  484POPC   C1B10735  10.610  41.307   8.882
  484POPC   C2B10736  10.726  41.451   8.494
  484POPC   C3B10737  10.645  41.309   8.071
  484POPC   C4B10738  10.827  41.001   7.809
  485POPC   NC310739  13.962  29.419   9.476
  485POPC   PO410740  13.347  29.012   9.472
  485POPC   GL110741  13.546  29.310   9.199
  485POPC   GL210742  13.795  29.076   9.142
  485POPC   C1A10743  13.751  29.519   8.820
  485POPC   D2A10744  13.945  29.492   8.424
  485POPC   C3A10745  13.645  29.429   8.112
  485POPC   C4A10746  13.685  29.577   7.722
  485POPC   C1B10747  13.514  29.059   8.774
  485POPC   C2B10748  13.695  28.993   8.398
  485POPC   C3B10749  13.697  28.828   8.018
  485POPC   C4B10750  13.791  29.087   7.729
  486POPC   NC310751  44.117  30.821   9.761
  486POPC   PO410752  43.962  31.460   9.527
  486POPC   GL110753  43.945  31.611   9.135
  486POPC   GL210754  43.640  31.806   9.077
  486POPC   C1A10755  43.954  31.503   8.726
  486POPC   D2A10756  43.972  31.318   8.357
  486POPC   C3A10757  43.882  31.272   7.941
  486POPC   C4A10758  43.966  31.608   7.651
  486POPC   C1B10759  43.464  31.626   8.711
  486POPC   C2B10760  43.677  31.783   8.374
  486POPC   C3B10761  43.592  31.689   8.001
  486POPC   C4B10762  43.300  31.740   7.701
  487POPC   NC310763  22.992   5.997   9.525
  487POPC   PO410764  22.536   5.367   9.640
  487POPC   GL110765  22.602   5.600   9.229
  487POPC   GL210766  22.954   5.602   9.199
  487POPC   C1A10767  22.704   5.685   8.753
  487POPC   D2A10768  22.706   6.079   8.465
  487POPC   C3A10769  22.820   5.971   8.037
  487POPC   C4A10770  22.913   5.607   7.751
  487POPC   C1B10771  23.163   5.907   8.896
  487POPC   C2B10772  23.206   5.941   8.452
  487POPC   C3B10773  23.243   5.667   8.122
  487POPC   C4B10774  23.414   5.764   7.734
  488POPC   NC310775  22.435   0.725   9.482
  488POPC   PO410776  21.927   0.293   9.731
  488POPC   GL110777  21.983   0.414   9.277
  488POPC   GL210778  22.258   0.328   9.162
  488POPC   C1A10779  22.022   0.565   8.799
  488POPC   D2A10780  22.083   0.391   8.395
  488POPC   C3A10781  22.151   0.630   8.067
  488POPC   C4A10782  22.171   0.651   7.638
  488POPC   C1B10783  22.480   0.257   8.817
  488POPC   C2B10784  22.434  44.996   8.495
  488POPC   C3B10785  22.456   0.144   8.118
  488POPC   C4B10786  22.494   0.241   7.729
  489POPC   NC310787  38.676  39.605   9.334
  489POPC   PO410788  39.145  39.298   9.420
  489POPC   GL110789  39.335  39.539   9.122
  489POPC   GL210790  39.057  39.680   8.957
  489POPC   C1A10791  39.482  39.469   8.707
  489POPC   D2A10792  39.280  39.345   8.326
  489POPC   C3A10793  39.520  39.199   7.975
  489POPC   C4A10794  39.410  38.993   7.604
  489POPC   C1B10795  38.841  39.475   8.601
  489POPC   C2B10796  38.777  39.174   8.270
  489POPC   C3B10797  39.002  39.160   7.892
  489POPC   C4B10798  39.035  39.343   7.504
  490POPC   NC310799   2.962   6.963   9.699
  490POPC   PO410800   2.581   6.439   9.501
  490POPC   GL110801   2.823   6.699   9.208
  490POPC   GL210802   2.660   6.995   9.262
  490POPC   C1A10803   2.900   6.659   8.751
  490POPC   D2A10804   2.882   6.456   8.334
  490POPC   C3A10805   2.953   6.686   7.985
  490POPC   C4A10806   2.776   6.792   7.556
  490POPC   C1B10807   2.448   6.880   8.856
  490POPC   C2B10808   2.609   6.936   8.406
  490POPC   C3B10809   2.563   7.039   7.969
  490POPC   C4B10810   2.274   6.888   7.651
  491POPC   NC310811  14.204  11.752   9.524
  491POPC   PO410812  14.826  11.789   9.253
  491POPC   GL110813  14.464  12.046   9.096
  491POPC   GL210814  14.170  11.879   9.044
  491POPC   C1A10815  14.268  12.186   8.662
  491POPC   D2A10816  14.176  11.973   8.255
  491POPC   C3A10817  14.328  12.201   7.872
  491POPC   C4A10818  14.225  12.655   7.789
  491POPC   C1B10819  14.402  11.685   8.748
  491POPC   C2B10820  14.658  11.836   8.443
  491POPC   C3B10821  14.595  11.776   8.012
  491POPC   C4B10822  14.828  11.962   7.658
  492POPC   NC310823   4.844  43.687   9.862
  492POPC   PO410824   5.169  44.275   9.532
  492POPC   GL110825   4.971  44.087   9.203
  492POPC   GL210826   4.756  43.787   9.261
  492POPC   C1A10827   5.180  43.967   8.827
  492POPC   D2A10828   5.158  43.645   8.490
  492POPC   C3A10829   5.073  43.723   8.061
  492POPC   C4A10830   5.237  43.490   7.734
  492POPC   C1B10831   4.685  43.939   8.805
  492POPC   C2B10832   4.882  44.113   8.418
  492POPC   C3B10833   4.749  44.117   7.988
  492POPC   C4B10834   4.824  44.300   7.588
  493POPC   NC310835  13.202  44.564   9.413
  493POPC   PO410836  12.670  44.511   9.070
  493POPC   GL110837  13.027  44.758   8.973
  493POPC   GL210838  13.238  44.495   8.894
  493POPC   C1A10839  13.006  44.833   8.551
  493POPC   D2A10840  12.641  44.853   8.307
  493POPC   C3A10841  12.746  44.856   7.896
  493POPC   C4A10842  13.081  44.935   7.579
  493POPC   C1B10843  12.979  44.321   8.567
  493POPC   C2B10844  12.979  44.451   8.193
  493POPC   C3B10845  13.161  44.519   7.860
  493POPC   C4B10846  12.866  44.484   7.592
  494POPC   NC310847  24.053   7.153   9.405
  494POPC   PO410848  23.761   7.788   9.596
  494POPC   GL110849  23.710   7.512   9.255
  494POPC   GL210850  24.025   7.588   9.153
  494POPC   C1A10851  23.575   7.285   8.861
  494POPC   D2A10852  23.537   7.057   8.460
  494POPC   C3A10853  23.642   7.202   8.028
  494POPC   C4A10854  23.280   7.293   7.754
  494POPC   C1B10855  24.047   7.428   8.769
  494POPC   C2B10856  23.821   7.489   8.421
  494POPC   C3B10857  23.896   7.670   8.036
  494POPC   C4B10858  23.666   7.604   7.660
  495POPC   NC310859   5.001  28.880   9.329
  495POPC   PO410860   5.174  28.399   9.930
  495POPC   GL110861   5.106  28.327   9.413
  495POPC   GL210862   5.400  28.333   9.160
  495POPC   C1A10863   4.939  28.322   8.931
  495POPC   D2A10864   4.796  28.226   8.495
  495POPC   C3A10865   4.733  28.492   8.113
  495POPC   C4A10866   4.914  28.333   7.729
  495POPC   C1B10867   5.346  28.071   8.756
  495POPC   C2B10868   5.264  27.990   8.314
  495POPC   C3B10869   5.351  28.109   7.893
  495POPC   C4B10870   5.585  27.961   7.522
  496POPC   NC310871   7.149  21.993   9.598
  496POPC   PO410872   7.679  21.984   9.194
  496POPC   GL110873   7.262  22.102   9.094
  496POPC   GL210874   7.043  21.821   9.121
  496POPC   C1A10875   7.224  22.281   8.691
  496POPC   D2A10876   7.487  22.420   8.377
  496POPC   C3A10877   7.347  22.268   7.975
  496POPC   C4A10878   7.628  22.057   7.738
  496POPC   C1B10879   7.186  21.753   8.717
  496POPC   C2B10880   7.133  21.885   8.310
  496POPC   C3B10881   7.293  21.700   7.945
  496POPC   C4B10882   7.113  21.883   7.633
  497POPC   NC310883  30.364  36.920   9.456
  497POPC   PO410884  30.995  37.041   9.381
  497POPC   GL110885  30.725  36.796   9.096
  497POPC   GL210886  30.360  36.647   9.005
  497POPC   C1A10887  30.500  37.056   8.768
  497POPC   D2A10888  30.316  37.091   8.360
  497POPC   C3A10889  30.643  37.065   8.025
  497POPC   C4A10890  30.711  37.078   7.577
  497POPC   C1B10891  30.693  36.541   8.666
  497POPC   C2B10892  30.681  36.506   8.209
  497POPC   C3B10893  30.638  36.590   7.762
  497POPC   C4B10894  30.787  36.626   7.310
  498POPC   NC310895  20.983  12.198   9.519
  498POPC   PO410896  21.631  11.911   9.516
  498POPC   GL110897  21.448  11.986   9.145
  498POPC   GL210898  21.151  11.778   9.237
  498POPC   C1A10899  21.650  11.993   8.713
  498POPC   D2A10900  21.736  12.133   8.275
  498POPC   C3A10901  21.342  12.198   8.042
  498POPC   C4A10902  21.112  11.971   7.727
  498POPC   C1B10903  21.294  11.631   8.836
  498POPC   C2B10904  21.433  11.558   8.435
  498POPC   C3B10905  21.489  11.711   8.030
  498POPC   C4B10906  21.414  11.575   7.628
  499POPC   NC310907  44.920  11.853   9.560
  499POPC   PO410908  44.436  12.301   9.401
  499POPC   GL110909  44.683  12.076   9.151
  499POPC   GL210910  44.956  12.259   9.045
  499POPC   C1A10911  44.620  11.955   8.733
  499POPC   D2A10912  44.603  11.694   8.353
  499POPC   C3A10913  44.681  11.947   7.989
  499POPC   C4A10914  44.397  12.226   7.814
  499POPC   C1B10915   0.136  12.031   8.709
  499POPC   C2B10916   0.106  12.059   8.283
  499POPC   C3B10917   0.018  12.357   7.935
  499POPC   C4B10918  44.847  12.386   7.531
  500POPC   NC310919  10.864  37.370   9.480
  500POPC   PO410920  10.826  38.020   9.585
  500POPC   GL110921  10.746  37.815   9.182
  500POPC   GL210922  10.469  37.563   9.177
  500POPC   C1A10923  10.563  37.900   8.774
  500POPC   D2A10924  10.349  37.807   8.395
  500POPC   C3A10925  10.591  37.832   8.030
  500POPC   C4A10926  10.666  37.984   7.645
  500POPC   C1B10927  10.522  37.374   8.754
  500POPC   C2B10928  10.676  37.398   8.330
  500POPC   C3B10929  10.376  37.380   8.016
  500POPC   C4B10930  10.070  37.180   7.811
  501POPC   NC310931  40.164  12.220   9.447
  501POPC   PO410932  39.571  11.913   9.224
  501POPC   GL110933  40.007  11.962   9.045
  501POPC   GL210934  40.301  12.213   8.978
  501POPC   C1A10935  40.184  11.855   8.677
  501POPC   D2A10936  40.036  11.713   8.331
  501POPC   C3A10937  40.164  11.966   7.994
  501POPC   C4A10938  39.798  11.980   7.741
  501POPC   C1B10939  40.013  12.366   8.685
  501POPC   C2B10940  40.027  12.399   8.266
  501POPC   C3B10941  40.353  12.546   8.003
  501POPC   C4B10942  40.571  12.274   7.770
  502POPC   NC310943  15.004   9.814   9.338
  502POPC   PO410944  15.566  10.128   9.458
  502POPC   GL110945  15.442   9.979   9.053
  502POPC   GL210946  15.263   9.626   8.974
  502POPC   C1A10947  15.405   9.946   8.621
  502POPC   D2A10948  15.083   9.847   8.386
  502POPC   C3A10949  15.235   9.904   8.029
  502POPC   C4A10950  15.631   9.948   7.830
  502POPC   C1B10951  14.900   9.501   8.703
  502POPC   C2B10952  14.762   9.342   8.301
  502POPC   C3B10953  14.983   9.405   7.939
  502POPC   C4B10954  15.320   9.559   7.685
  503POPC   NC310955   7.416  33.295   9.535
  503POPC   PO410956   7.098  32.753   9.568
  503POPC   GL110957   7.353  32.871   9.165
  503POPC   GL210958   7.311  33.225   9.069
  503POPC   C1A10959   7.445  32.918   8.681
  503POPC   D2A10960   7.140  33.034   8.349
  503POPC   C3A10961   7.249  32.931   7.926
  503POPC   C4A10962   7.672  32.867   7.802
  503POPC   C1B10963   7.540  33.415   8.790
  503POPC   C2B10964   7.418  33.490   8.378
  503POPC   C3B10965   7.481  33.372   7.976
  503POPC   C4B10966   7.255  33.427   7.574
  504POPC   NC310967   9.628   3.880   9.483
  504POPC   PO410968   9.948   4.417   9.735
  504POPC   GL110969   9.790   4.366   9.289
  504POPC   GL210970   9.947   4.072   9.124
  504POPC   C1A10971   9.788   4.451   8.819
  504POPC   D2A10972   9.945   4.438   8.368
  504POPC   C3A10973   9.722   4.376   7.948
  504POPC   C4A10974   9.336   4.160   7.779
  504POPC   C1B10975   9.943   3.936   8.687
  504POPC   C2B10976   9.870   3.937   8.233
  504POPC   C3B10977  10.083   4.007   7.872
  504POPC   C4B10978  10.091   3.922   7.431
  505POPC   NC310979   7.074  44.499   9.474
  505POPC   PO410980   7.762  44.582   9.527
  505POPC   GL110981   7.726  44.740   9.141
  505POPC   GL210982   7.366  44.740   9.123
  505POPC   C1A10983   7.650  44.637   8.715
  505POPC   D2A10984   7.896  44.771   8.399
  505POPC   C3A10985   7.722  44.506   8.102
  505POPC   C4A10986   7.600  44.748   7.774
  505POPC   C1B10987   7.110  44.555   8.774
  505POPC   C2B10988   7.234  44.378   8.365
  505POPC   C3B10989   7.161  44.512   7.928
  505POPC   C4B10990   6.837  44.395   7.606
  506POPC   NC310991  20.638   6.869   9.664
  506POPC   PO410992  21.032   6.273   9.392
  506POPC   GL110993  20.717   6.635   9.179
  506POPC   GL210994  20.847   6.831   8.900
  506POPC   C1A10995  20.366   6.741   8.868
  506POPC   D2A10996  20.365   6.898   8.421
  506POPC   C3A10997  20.602   6.707   8.076
  506POPC   C4A10998  20.497   6.695   7.641
  506POPC   C1B10999  20.781   6.370   8.761
  506POPC   C2B11000  20.767   6.081   8.423
  506POPC   C3B11001  20.650   6.189   8.021
  506POPC   C4B11002  20.823   6.324   7.621
  507POPC   NC311003  37.201  19.165   9.563
  507POPC   PO411004  36.656  18.758   9.472
  507POPC   GL111005  36.862  19.012   9.196
  507POPC   GL211006  37.081  18.765   9.103
  507POPC   C1A11007  37.050  19.158   8.805
  507POPC   D2A11008  37.275  19.087   8.445
  507POPC   C3A11009  37.054  19.099   8.062
  507POPC   C4A11010  36.723  19.267   7.814
  507POPC   C1B11011  36.740  18.727   8.802
  507POPC   C2B11012  36.780  18.837   8.401
  507POPC   C3B11013  36.691  18.735   7.971
  507POPC   C4B11014  36.767  18.800   7.529
  508POPC   NC311015   7.921   1.705   9.552
  508POPC   PO411016   8.454   2.093   9.393
  508POPC   GL111017   8.204   1.864   9.141
  508POPC   GL211018   7.943   2.100   9.200
  508POPC   C1A11019   7.936   1.628   8.838
  508POPC   D2A11020   7.674   1.539   8.444
  508POPC   C3A11021   7.851   1.628   8.017
  508POPC   C4A11022   8.249   1.787   7.846
  508POPC   C1B11023   7.988   2.166   8.779
  508POPC   C2B11024   8.018   1.930   8.428
  508POPC   C3B11025   7.969   2.134   8.099
  508POPC   C4B11026   8.024   2.250   7.713
  509POPC   NC311027   4.878   1.843   9.392
  509POPC   PO411028   5.368   2.301   9.451
  509POPC   GL111029   5.123   2.190   9.076
  509POPC   GL211030   4.869   2.457   9.001
  509POPC   C1A11031   5.160   1.843   8.743
  509POPC   D2A11032   5.085   1.624   8.348
  509POPC   C3A11033   5.267   1.814   7.983
  509POPC   C4A11034   5.055   1.833   7.625
  509POPC   C1B11035   4.822   2.216   8.633
  509POPC   C2B11036   5.116   2.161   8.318
  509POPC   C3B11037   5.175   2.329   7.871
  509POPC   C4B11038   5.236   2.247   7.414
  510POPC   NC311039  20.487  23.462   9.590
  510POPC   PO411040  20.814  24.093   9.508
  510POPC   GL111041  20.642  23.785   9.204
  510POPC   GL211042  20.766  23.404   9.199
  510POPC   C1A11043  20.568  23.874   8.780
  510POPC   D2A11044  20.633  24.044   8.364
  510POPC   C3A11045  20.508  23.807   7.992
  510POPC   C4A11046  20.472  23.828   7.549
  510POPC   C1B11047  20.456  23.382   8.871
  510POPC   C2B11048  20.565  23.492   8.447
  510POPC   C3B11049  20.777  23.393   8.078
  510POPC   C4B11050  20.555  23.325   7.710
  511POPC   NC311051  24.396   3.207   9.722
  511POPC   PO411052  24.296   2.538   9.523
  511POPC   GL111053  24.282   2.613   9.078
  511POPC   GL211054  24.619   2.722   9.121
  511POPC   C1A11055  24.446   2.442   8.661
  511POPC   D2A11056  24.629   2.566   8.258
  511POPC   C3A11057  24.345   2.611   7.873
  511POPC   C4A11058  24.527   2.515   7.433
  511POPC   C1B11059  24.508   2.929   8.727
  511POPC   C2B11060  24.397   3.029   8.367
  511POPC   C3B11061  24.629   3.021   7.999
  511POPC   C4B11062  24.573   2.976   7.594
  512POPC   NC311063  42.490   1.958   9.402
  512POPC   PO411064  41.984   2.319   9.515
  512POPC   GL111065  42.138   2.332   9.107
  512POPC   GL211066  42.153   1.982   9.043
  512POPC   C1A11067  42.210   2.304   8.651
  512POPC   D2A11068  42.299   1.914   8.398
  512POPC   C3A11069  42.371   2.012   7.958
  512POPC   C4A11070  42.686   2.291   7.708
  512POPC   C1B11071  42.206   1.604   8.828
  512POPC   C2B11072  42.007   1.482   8.473
  512POPC   C3B11073  42.140   1.524   8.062
  512POPC   C4B11074  42.149   1.656   7.656
  513POPC   NC311075  37.802   9.793   9.603
  513POPC   PO411076  37.349   9.308   9.264
  513POPC   GL111077  37.601   9.690   9.116
  513POPC   GL211078  37.543  10.051   9.202
  513POPC   C1A11079  37.719   9.791   8.726
  513POPC   D2A11080  37.650   9.955   8.333
  513POPC   C3A11081  37.601   9.631   8.062
  513POPC   C4A11082  37.751   9.597   7.674
  513POPC   C1B11083  37.438  10.200   8.809
  513POPC   C2B11084  37.168  10.100   8.471
  513POPC   C3B11085  37.192   9.950   8.058
  513POPC   C4B11086  37.533  10.072   7.773
  514POPC   NC311087  38.789   7.585  10.021
  514POPC   PO411088  38.691   7.162   9.457
  514POPC   GL111089  38.473   7.408   9.158
  514POPC   GL211090  38.178   7.585   9.210
  514POPC   C1A11091  38.472   7.481   8.734
  514POPC   D2A11092  38.485   7.206   8.356
  514POPC   C3A11093  38.438   7.445   7.991
  514POPC   C4A11094  38.666   7.488   7.603
  514POPC   C1B11095  38.032   7.259   8.863
  514POPC   C2B11096  38.042   7.018   8.495
  514POPC   C3B11097  37.985   7.143   8.077
  514POPC   C4B11098  38.072   7.286   7.673
  515POPC   NC311099  11.356  33.404   9.658
  515POPC   PO411100  10.987  32.857   9.489
  515POPC   GL111101  11.162  33.183   9.202
  515POPC   GL211102  10.898  33.323   9.002
  515POPC   C1A11103  11.505  33.162   8.862
  515POPC   D2A11104  11.624  32.777   8.573
  515POPC   C3A11105  11.471  32.832   8.128
  515POPC   C4A11106  11.248  33.184   7.920
  515POPC   C1B11107  11.038  32.925   8.749
  515POPC   C2B11108  10.988  32.696   8.326
  515POPC   C3B11109  11.039  32.682   7.849
  515POPC   C4B11110  10.923  32.973   7.500
  516POPC   NC311111  20.440  27.088   9.606
  516POPC   PO411112  20.897  26.684   9.744
  516POPC   GL111113  20.840  26.838   9.288
  516POPC   GL211114  20.505  26.789   9.169
  516POPC   C1A11115  20.845  26.896   8.802
  516POPC   D2A11116  20.737  27.069   8.374
  516POPC   C3A11117  20.740  26.921   7.931
  516POPC   C4A11118  20.650  27.096   7.480
  516POPC   C1B11119  20.429  26.598   8.761
  516POPC   C2B11120  20.508  26.618   8.312
  516POPC   C3B11121  20.431  26.396   7.930
  516POPC   C4B11122  20.137  26.454   7.605
  517POPC   NC311123   7.837  11.216   9.492
  517POPC   PO411124   7.304  11.690   9.415
  517POPC   GL111125   7.250  11.353   9.109
  517POPC   GL211126   7.556  11.152   9.085
  517POPC   C1A11127   7.297  11.232   8.670
  517POPC   D2A11128   7.456  11.026   8.298
  517POPC   C3A11129   7.524  11.348   7.981
  517POPC   C4A11130   7.105  11.317   7.823
  517POPC   C1B11131   7.786  11.017   8.711
  517POPC   C2B11132   7.937  11.159   8.324
  517POPC   C3B11133   7.870  10.999   7.897
  517POPC   C4B11134   7.679  11.131   7.466
  518POPC   NC311135  40.929  25.490   9.353
  518POPC   PO411136  40.396  25.165   9.423
  518POPC   GL111137  40.629  25.177   9.070
  518POPC   GL211138  40.487  24.884   8.943
  518POPC   C1A11139  40.782  25.441   8.709
  518POPC   D2A11140  41.116  25.334   8.396
  518POPC   C3A11141  40.890  25.240   8.029
  518POPC   C4A11142  40.648  25.576   7.768
  518POPC   C1B11143  40.303  25.236   8.678
  518POPC   C2B11144  40.424  25.390   8.253
  518POPC   C3B11145  40.423  25.147   7.862
  518POPC   C4B11146  40.342  24.833   7.608
  519POPC   NC311147  21.544   0.677   9.293
  519POPC   PO411148  21.313   1.431   9.373
  519POPC   GL111149  21.209   1.352   8.977
  519POPC   GL211150  21.265   0.996   8.967
  519POPC   C1A11151  21.382   1.317   8.602
  519POPC   D2A11152  21.594   1.222   8.274
  519POPC   C3A11153  21.354   1.138   7.958
  519POPC   C4A11154  21.428   1.145   7.545
  519POPC   C1B11155  21.622   0.865   8.678
  519POPC   C2B11156  21.664   0.705   8.258
  519POPC   C3B11157  21.731   0.841   7.849
  519POPC   C4B11158  21.698   0.723   7.429
  520POPC   NC311159   2.785  17.061   9.595
  520POPC   PO411160   2.967  17.651   9.613
  520POPC   GL111161   2.669  17.453   9.284
  520POPC   GL211162   2.942  17.244   9.138
  520POPC   C1A11163   2.552  17.351   8.830
  520POPC   D2A11164   2.338  17.306   8.436
  520POPC   C3A11165   2.540  17.530   8.120
  520POPC   C4A11166   2.791  17.533   7.749
  520POPC   C1B11167   2.999  17.591   8.818
  520POPC   C2B11168   2.998  17.544   8.355
  520POPC   C3B11169   3.239  17.472   7.969
  520POPC   C4B11170   3.307  17.318   7.538
  521POPC   NC311171  28.436  32.553   9.453
  521POPC   PO411172  28.208  31.874   9.537
  521POPC   GL111173  28.369  32.100   9.205
  521POPC   GL211174  28.097  32.340   9.166
  521POPC   C1A11175  28.660  31.942   8.840
  521POPC   D2A11176  28.628  31.860   8.406
  521POPC   C3A11177  28.246  32.036   8.197
  521POPC   C4A11178  28.186  32.096   7.758
  521POPC   C1B11179  28.286  32.300   8.752
  521POPC   C2B11180  28.425  32.477   8.396
  521POPC   C3B11181  28.284  32.545   8.008
  521POPC   C4B11182  28.510  32.505   7.615
  522POPC   NC311183   0.800  43.918   9.362
  522POPC   PO411184   0.237  44.085   9.703
  522POPC   GL111185   0.263  43.904   9.277
  522POPC   GL211186   0.426  44.135   9.073
  522POPC   C1A11187   0.416  43.635   8.891
  522POPC   D2A11188   0.263  43.540   8.457
  522POPC   C3A11189   0.503  43.647   8.075
  522POPC   C4A11190   0.525  43.954   7.721
  522POPC   C1B11191   0.552  44.053   8.628
  522POPC   C2B11192   0.681  44.113   8.193
  522POPC   C3B11193   0.662  44.406   7.871
  522POPC   C4B11194   0.760  44.424   7.453
  523POPC   NC311195  20.915  34.459   9.387
  523POPC   PO411196  20.341  34.210   9.530
  523POPC   GL111197  20.399  34.437   9.149
  523POPC   GL211198  20.083  34.581   9.037
  523POPC   C1A11199  20.601  34.626   8.770
  523POPC   D2A11200  20.756  34.755   8.340
  523POPC   C3A11201  20.659  34.728   7.922
  523POPC   C4A11202  20.836  34.401   7.722
  523POPC   C1B11203  20.181  34.341   8.692
  523POPC   C2B11204  20.382  34.422   8.327
  523POPC   C3B11205  20.282  34.400   7.924
  523POPC   C4B11206  20.324  34.593   7.544
  524POPC   NC311207  12.351  37.317   9.632
  524POPC   PO411208  12.174  36.633   9.495
  524POPC   GL111209  12.141  37.010   9.248
  524POPC   GL211210  12.454  37.094   9.139
  524POPC   C1A11211  12.042  37.026   8.793
  524POPC   D2A11212  11.786  36.784   8.460
  524POPC   C3A11213  11.987  36.681   8.051
  524POPC   C4A11214  11.868  36.880   7.666
  524POPC   C1B11215  12.476  37.313   8.734
  524POPC   C2B11216  12.391  37.101   8.337
  524POPC   C3B11217  12.291  37.084   7.903
  524POPC   C4B11218  12.352  37.263   7.475
  525POPC   NC311219  41.404   6.607   9.577
  525POPC   PO411220  41.903   6.336   9.743
  525POPC   GL111221  41.753   6.618   9.240
  525POPC   GL211222  41.425   6.446   9.086
  525POPC   C1A11223  41.568   6.864   8.838
  525POPC   D2A11224  41.359   6.739   8.415
  525POPC   C3A11225  41.644   6.730   8.048
  525POPC   C4A11226  41.768   6.801   7.610
  525POPC   C1B11227  41.628   6.373   8.662
  525POPC   C2B11228  41.724   6.262   8.246
  525POPC   C3B11229  41.443   6.292   7.889
  525POPC   C4B11230  41.485   6.389   7.446
  526POPC   NC311231  41.393  28.707   9.489
  526POPC   PO411232  41.755  28.128   9.464
  526POPC   GL111233  41.604  28.385   9.146
  526POPC   GL211234  41.263  28.277   9.223
  526POPC   C1A11235  41.356  28.593   8.814
  526POPC   D2A11236  41.258  28.653   8.363
  526POPC   C3A11237  41.553  28.494   8.029
  526POPC   C4A11238  41.828  28.437   7.649
  526POPC   C1B11239  41.314  28.065   8.818
  526POPC   C2B11240  41.350  27.900   8.382
  526POPC   C3B11241  41.200  28.105   7.997
  526POPC   C4B11242  41.419  28.178   7.587
  527POPC   NC311243  34.319   7.012   9.536
  527POPC   PO411244  34.611   6.450   9.685
  527POPC   GL111245  34.454   6.549   9.251
  527POPC   GL211246  34.199   6.306   9.117
  527POPC   C1A11247  34.532   6.836   8.893
  527POPC   D2A11248  34.817   6.786   8.557
  527POPC   C3A11249  34.606   6.895   8.219
  527POPC   C4A11250  34.626   6.831   7.783
  527POPC   C1B11251  34.227   6.470   8.737
  527POPC   C2B11252  34.509   6.404   8.433
  527POPC   C3B11253  34.484   6.438   8.045
  527POPC   C4B11254  34.155   6.601   7.743
  528POPC   NC311255  33.280   5.847   9.818
  528POPC   PO411256  33.144   5.241   9.557
  528POPC   GL111257  33.288   4.995   9.175
  528POPC   GL211258  33.356   5.344   9.090
  528POPC   C1A11259  33.175   4.800   8.758
  528POPC   D2A11260  33.100   4.631   8.333
  528POPC   C3A11261  33.140   4.950   8.030
  528POPC   C4A11262  32.897   5.013   7.671
  528POPC   C1B11263  32.937   5.212   8.895
  528POPC   C2B11264  32.907   5.121   8.451
  528POPC   C3B11265  32.738   5.299   8.057
  528POPC   C4B11266  32.741   5.514   7.641
  529POPC   NC311267  16.675  21.652   9.465
  529POPC   PO411268  16.846  21.036   9.544
  529POPC   GL111269  16.646  21.148   9.179
  529POPC   GL211270  16.762  21.448   8.981
  529POPC   C1A11271  16.487  21.057   8.790
  529POPC   D2A11272  16.731  21.243   8.475
  529POPC   C3A11273  16.531  21.211   8.108
  529POPC   C4A11274  16.654  21.361   7.720
  529POPC   C1B11275  17.138  21.491   8.656
  529POPC   C2B11276  17.195  21.545   8.196
  529POPC   C3B11277  17.020  21.733   7.801
  529POPC   C4B11278  16.681  21.832   7.499
  530POPC   NC311279  34.544   0.208   9.414
  530POPC   PO411280  34.737   0.893   9.203
  530POPC   GL111281  34.487   0.534   9.005
  530POPC   GL211282  34.584   0.191   8.916
  530POPC   C1A11283  34.221   0.368   8.633
  530POPC   D2A11284  33.980   0.425   8.274
  530POPC   C3A11285  34.228   0.660   8.000
  530POPC   C4A11286  34.619   0.799   7.841
  530POPC   C1B11287  34.750   0.058   8.538
  530POPC   C2B11288  34.672   0.366   8.241
  530POPC   C3B11289  34.859   0.338   7.867
  530POPC   C4B11290  35.099  44.969   7.820
  531POPC   NC311291  24.923  36.401   9.296
  531POPC   PO411292  24.326  36.290   9.578
  531POPC   GL111293  24.495  35.990   9.256
  531POPC   GL211294  24.239  36.082   9.041
  531POPC   C1A11295  24.742  35.891   8.844
  531POPC   D2A11296  24.872  36.062   8.397
  531POPC   C3A11297  24.748  35.885   7.961
  531POPC   C4A11298  24.684  35.933   7.484
  531POPC   C1B11299  24.383  36.162   8.621
  531POPC   C2B11300  24.249  36.104   8.230
  531POPC   C3B11301  24.354  36.147   7.798
  531POPC   C4B11302  24.130  36.059   7.423
  532POPC   NC311303  10.758  11.809   9.494
  532POPC   PO411304  10.277  12.322   9.471
  532POPC   GL111305  10.571  12.199   9.181
  532POPC   GL211306  10.386  11.889   9.137
  532POPC   C1A11307  10.654  12.179   8.750
  532POPC   D2A11308  10.811  11.942   8.412
  532POPC   C3A11309  10.676  12.147   8.044
  532POPC   C4A11310  10.580  11.985   7.593
  532POPC   C1B11311  10.186  11.901   8.728
  532POPC   C2B11312  10.321  11.846   8.297
  532POPC   C3B11313  10.201  12.074   7.925
  532POPC   C4B11314  10.057  11.928   7.511
  533POPC   NC311315   8.385   6.846   9.432
  533POPC   PO411316   9.033   6.828   9.545
  533POPC   GL111317   8.853   6.682   9.150
  533POPC   GL211318   9.193   6.568   9.067
  533POPC   C1A11319   8.814   6.408   8.771
  533POPC   D2A11320   9.009   6.473   8.355
  533POPC   C3A11321   8.839   6.396   7.942
  533POPC   C4A11322   8.781   6.783   7.735
  533POPC   C1B11323   9.200   6.877   8.744
  533POPC   C2B11324   9.389   6.828   8.338
  533POPC   C3B11325   9.246   6.757   7.952
  533POPC   C4B11326   9.234   6.561   7.574
  534POPC   NC311327  40.805  41.379   9.431
  534POPC   PO411328  40.851  42.003   9.384
  534POPC   GL111329  41.073  41.762   9.067
  534POPC   GL211330  40.820  41.545   8.929
  534POPC   C1A11331  41.120  41.827   8.631
  534POPC   D2A11332  40.853  41.546   8.382
  534POPC   C3A11333  41.012  41.283   8.068
  534POPC   C4A11334  41.080  41.409   7.649
  534POPC   C1B11335  40.630  41.916   8.681
  534POPC   C2B11336  40.739  42.027   8.222
  534POPC   C3B11337  40.696  41.685   7.888
  534POPC   C4B11338  40.506  41.272   7.825
  535POPC   NC311339   7.883  39.991   9.812
  535POPC   PO411340   8.441  39.679   9.549
  535POPC   GL111341   8.225  39.914   9.249
  535POPC   GL211342   7.872  39.861   9.190
  535POPC   C1A11343   8.309  40.180   8.883
  535POPC   D2A11344   8.533  39.992   8.545
  535POPC   C3A11345   8.584  40.147   8.120
  535POPC   C4A11346   8.359  40.022   7.773
  535POPC   C1B11347   7.869  39.992   8.734
  535POPC   C2B11348   8.050  40.067   8.301
  535POPC   C3B11349   7.876  40.165   7.884
  535POPC   C4B11350   7.942  40.169   7.436
  536POPC   NC311351   2.232  32.371   9.610
  536POPC   PO411352   1.640  32.085   9.376
  536POPC   GL111353   1.990  32.144   9.142
  536POPC   GL211354   2.005  32.473   9.169
  536POPC   C1A11355   2.073  32.047   8.729
  536POPC   D2A11356   1.891  32.173   8.346
  536POPC   C3A11357   2.034  31.957   7.982
  536POPC   C4A11358   2.060  32.158   7.576
  536POPC   C1B11359   1.977  32.576   8.757
  536POPC   C2B11360   2.115  32.627   8.365
  536POPC   C3B11361   2.136  32.457   7.977
  536POPC   C4B11362   2.211  32.658   7.587
  537POPC   NC311363   4.117  19.445   9.397
  537POPC   PO411364   3.877  20.048   9.501
  537POPC   GL111365   4.095  20.032   9.089
  537POPC   GL211366   4.196  19.719   8.963
  537POPC   C1A11367   4.425  20.128   8.774
  537POPC   D2A11368   4.446  20.123   8.335
  537POPC   C3A11369   4.035  20.239   8.161
  537POPC   C4A11370   3.792  20.037   7.820
  537POPC   C1B11371   4.057  19.819   8.514
  537POPC   C2B11372   4.173  19.762   8.060
  537POPC   C3B11373   4.473  19.603   7.758
  537POPC   C4B11374   4.471  19.528   7.312
  538POPC   NC311375  36.528  33.064   9.700
  538POPC   PO411376  36.276  32.720   9.483
  538POPC   GL111377  36.148  32.819   9.045
  538POPC   GL211378  36.458  32.949   8.898
  538POPC   C1A11379  36.045  32.992   8.614
  538POPC   D2A11380  36.198  32.955   8.198
  538POPC   C3A11381  36.054  33.135   7.789
  538POPC   C4A11382  36.092  33.288   7.345
  538POPC   C1B11383  36.372  32.574   8.639
  538POPC   C2B11384  36.298  32.418   8.231
  538POPC   C3B11385  36.167  32.609   7.838
  538POPC   C4B11386  36.378  32.847   7.467
  539POPC   NC311387  30.947  17.244   9.596
  539POPC   PO411388  30.346  17.109   9.436
  539POPC   GL111389  30.635  17.398   9.174
  539POPC   GL211390  30.945  17.319   9.067
  539POPC   C1A11391  30.587  17.696   8.804
  539POPC   D2A11392  30.366  17.594   8.424
  539POPC   C3A11393  30.550  17.671   8.034
  539POPC   C4A11394  30.745  17.729   7.654
  539POPC   C1B11395  30.709  17.226   8.666
  539POPC   C2B11396  30.704  17.225   8.207
  539POPC   C3B11397  30.847  17.240   7.776
  539POPC   C4B11398  31.000  17.399   7.345
  540POPC   NC311399  24.263  25.503   9.316
  540POPC   PO411400  24.403  24.917   9.551
  540POPC   GL111401  24.670  25.104   9.259
  540POPC   GL211402  24.713  25.366   9.124
  540POPC   C1A11403  24.671  24.995   8.790
  540POPC   D2A11404  24.326  25.094   8.514
  540POPC   C3A11405  24.450  25.246   8.114
  540POPC   C4A11406  24.527  25.103   7.713
  540POPC   C1B11407  24.629  25.492   8.693
  540POPC   C2B11408  24.868  25.500   8.303
  540POPC   C3B11409  24.857  25.550   7.864
  540POPC   C4B11410  24.464  25.612   7.653
  541POPC   NC311411  36.876  35.742   9.428
  541POPC   PO411412  37.480  35.418   9.506
  541POPC   GL111413  37.166  35.381   9.158
  541POPC   GL211414  36.855  35.224   9.215
  541POPC   C1A11415  36.993  35.555   8.766
  541POPC   D2A11416  37.191  35.647   8.374
  541POPC   C3A11417  36.945  35.600   8.002
  541POPC   C4A11418  36.536  35.539   7.839
  541POPC   C1B11419  36.874  35.070   8.777
  541POPC   C2B11420  36.821  35.240   8.359
  541POPC   C3B11421  36.837  35.106   7.916
  541POPC   C4B11422  36.908  34.906   7.491
  542POPC   NC311423  29.070  25.970   9.473
  542POPC   PO411424  29.721  26.018   9.340
  542POPC   GL111425  29.358  26.028   9.007
  542POPC   GL211426  29.052  25.808   9.009
  542POPC   C1A11427  29.202  25.956   8.553
  542POPC   D2A11428  29.136  25.758   8.156
  542POPC   C3A11429  29.345  26.035   7.847
  542POPC   C4A11430  29.436  26.145   7.418
  542POPC   C1B11431  28.825  26.167   8.843
  542POPC   C2B11432  28.717  26.291   8.420
  542POPC   C3B11433  28.829  26.168   7.990
  542POPC   C4B11434  28.898  26.106   7.531
  543POPC   NC311435  29.303  43.561   9.344
  543POPC   PO411436  29.849  43.866   9.596
  543POPC   GL111437  29.823  44.059   9.245
  543POPC   GL211438  29.457  44.072   9.281
  543POPC   C1A11439  29.981  44.186   8.853
  543POPC   D2A11440  29.967  43.908   8.508
  543POPC   C3A11441  29.867  44.028   8.109
  543POPC   C4A11442  29.862  43.687   7.831
  543POPC   C1B11443  29.555  43.895   8.849
  543POPC   C2B11444  29.449  44.014   8.431
  543POPC   C3B11445  29.373  43.972   7.993
  543POPC   C4B11446  29.501  43.977   7.582
  544POPC   NC311447  20.602  14.739   9.405
  544POPC   PO411448  20.836  14.121   9.459
  544POPC   GL111449  20.877  14.367   9.109
  544POPC   GL211450  20.541  14.250   9.030
  544POPC   C1A11451  20.827  14.434   8.660
  544POPC   D2A11452  20.838  14.267   8.259
  544POPC   C3A11453  20.668  14.538   7.952
  544POPC   C4A11454  20.832  14.500   7.519
  544POPC   C1B11455  20.488  14.051   8.595
  544POPC   C2B11456  20.369  14.150   8.153
  544POPC   C3B11457  20.568  14.096   7.740
  544POPC   C4B11458  20.425  14.168   7.328
  545POPC   NC311459  34.304  24.147   9.502
  545POPC   PO411460  34.103  24.814   9.359
  545POPC   GL111461  34.296  24.446   9.096
  545POPC   GL211462  34.655  24.323   8.959
  545POPC   C1A11463  34.244  24.250   8.719
  545POPC   D2A11464  34.477  24.237   8.350
  545POPC   C3A11465  34.295  24.188   7.942
  545POPC   C4A11466  34.397  24.344   7.534
  545POPC   C1B11467  34.879  24.521   8.626
  545POPC   C2B11468  34.892  24.584   8.172
  545POPC   C3B11469  34.835  24.479   7.744
  545POPC   C4B11470  34.873  24.689   7.323
  546POPC   NC311471   3.376   7.418   9.737
  546POPC   PO411472   2.707   7.339   9.697
  546POPC   GL111473   2.813   7.475   9.247
  546POPC   GL211474   2.777   7.840   9.158
  546POPC   C1A11475   2.772   7.265   8.845
  546POPC   D2A11476   2.829   7.389   8.430
  546POPC   C3A11477   3.093   7.143   8.178
  546POPC   C4A11478   3.198   7.053   7.735
  546POPC   C1B11479   2.593   7.735   8.778
  546POPC   C2B11480   2.439   7.695   8.340
  546POPC   C3B11481   2.573   7.542   7.983
  546POPC   C4B11482   2.844   7.391   7.663
  547POPC   NC311483   6.415  44.678   9.636
  547POPC   PO411484   7.088  44.972   9.487
  547POPC   GL111485   6.839  44.871   9.132
  547POPC   GL211486   6.647  44.560   9.191
  547POPC   C1A11487   6.762  44.963   8.687
  547POPC   D2A11488   6.897  44.770   8.304
  547POPC   C3A11489   6.643  44.754   7.927
  547POPC   C4A11490   6.608  44.841   7.457
  547POPC   C1B11491   6.407  44.630   8.847
  547POPC   C2B11492   6.373  44.702   8.421
  547POPC   C3B11493   6.320  44.396   8.087
  547POPC   C4B11494   6.311  44.463   7.644
  548POPC   NC311495  12.804  21.545   9.671
  548POPC   PO411496  13.073  20.994   9.637
  548POPC   GL111497  12.940  21.018   9.148
  548POPC   GL211498  12.608  21.187   9.171
  548POPC   C1A11499  12.853  21.195   8.700
  548POPC   D2A11500  12.610  21.209   8.292
  548POPC   C3A11501  12.852  21.282   7.879
  548POPC   C4A11502  13.084  21.666   7.767
  548POPC   C1B11503  12.701  21.606   8.978
  548POPC   C2B11504  12.691  21.683   8.523
  548POPC   C3B11505  12.621  21.692   8.067
  548POPC   C4B11506  12.625  21.905   7.669
  549POPC   NC311507  17.787  30.827   9.478
  549POPC   PO411508  17.158  31.006   9.368
  549POPC   GL111509  17.449  30.821   9.073
  549POPC   GL211510  17.819  31.016   9.028
  549POPC   C1A11511  17.405  30.489   8.715
  549POPC   D2A11512  17.504  30.335   8.269
  549POPC   C3A11513  17.297  30.592   7.941
  549POPC   C4A11514  17.190  30.638   7.556
  549POPC   C1B11515  17.690  30.910   8.647
  549POPC   C2B11516  17.608  30.867   8.259
  549POPC   C3B11517  17.776  30.675   7.932
  549POPC   C4B11518  17.699  30.570   7.505
  550POPC   NC311519   3.673  44.953   9.463
  550POPC   PO411520   3.696  44.399   9.790
  550POPC   GL111521   3.562  44.499   9.302
  550POPC   GL211522   3.246  44.470   9.164
  550POPC   C1A11523   3.587  44.672   8.857
  550POPC   D2A11524   3.567   0.010   8.543
  550POPC   C3A11525   3.417   0.004   8.118
  550POPC   C4A11526   3.577  44.800   7.781
  550POPC   C1B11527   3.098  44.595   8.791
  550POPC   C2B11528   3.332  44.568   8.424
  550POPC   C3B11529   3.161  44.555   8.075
  550POPC   C4B11530   3.279  44.418   7.716
  551POPC   NC311531  36.341   4.813   9.565
  551POPC   PO411532  36.104   5.539   9.472
  551POPC   GL111533  36.201   5.176   9.219
  551POPC   GL211534  35.950   4.901   9.211
  551POPC   C1A11535  36.306   4.945   8.841
  551POPC   D2A11536  36.104   5.040   8.469
  551POPC   C3A11537  36.259   4.942   8.072
  551POPC   C4A11538  36.253   5.198   7.711
  551POPC   C1B11539  35.791   5.207   8.901
  551POPC   C2B11540  35.650   5.268   8.473
  551POPC   C3B11541  35.781   5.121   8.067
  551POPC   C4B11542  35.694   5.136   7.652
  552POPC   NC311543   1.308  10.932   9.579
  552POPC   PO411544   0.762  11.282   9.480
  552POPC   GL111545   1.025  11.397   9.160
  552POPC   GL211546   1.298  11.167   9.119
  552POPC   C1A11547   1.058  11.517   8.734
  552POPC   D2A11548   1.196  11.453   8.321
  552POPC   C3A11549   0.943  11.604   8.000
  552POPC   C4A11550   1.019  11.393   7.648
  552POPC   C1B11551   1.478  11.240   8.725
  552POPC   C2B11552   1.615  11.177   8.327
  552POPC   C3B11553   1.460  11.174   7.886
  552POPC   C4B11554   1.557  10.979   7.470
  553POPC   NC311555  23.718  27.141   9.596
  553POPC   PO411556  23.635  26.496   9.536
  553POPC   GL111557  23.683  26.789   9.200
  553POPC   GL211558  23.983  26.983   9.181
  553POPC   C1A11559  23.775  26.741   8.753
  553POPC   D2A11560  23.856  26.546   8.338
  553POPC   C3A11561  23.626  26.619   7.932
  553POPC   C4A11562  23.742  26.537   7.502
  553POPC   C1B11563  24.022  27.195   8.768
  553POPC   C2B11564  23.731  27.093   8.387
  553POPC   C3B11565  23.897  27.059   7.967
  553POPC   C4B11566  24.143  27.350   7.737
  554POPC   NC311567  40.328   9.613   9.360
  554POPC   PO411568  40.008  10.197   9.497
  554POPC   GL111569  39.986   9.899   9.123
  554POPC   GL211570  40.319   9.933   8.957
  554POPC   C1A11571  39.955   9.526   8.820
  554POPC   D2A11572  39.766   9.300   8.477
  554POPC   C3A11573  40.008   9.346   8.093
  554POPC   C4A11574  40.040   9.645   7.743
  554POPC   C1B11575  39.971  10.002   8.632
  554POPC   C2B11576  39.957   9.891   8.209
  554POPC   C3B11577  40.208  10.101   7.922
  554POPC   C4B11578  40.493   9.945   7.677
  555POPC   NC311579  32.292  25.611   9.401
  555POPC   PO411580  32.246  24.956   9.363
  555POPC   GL111581  32.285  25.235   9.003
  555POPC   GL211582  32.477  25.538   8.950
  555POPC   C1A11583  32.317  25.131   8.592
  555POPC   D2A11584  32.070  24.984   8.250
  555POPC   C3A11585  32.192  25.174   7.869
  555POPC   C4A11586  32.281  25.184   7.426
  555POPC   C1B11587  32.698  25.453   8.618
  555POPC   C2B11588  32.578  25.375   8.201
  555POPC   C3B11589  32.695  25.315   7.812
  555POPC   C4B11590  32.507  25.613   7.540
  556POPC   NC311591  27.226   9.764   9.538
  556POPC   PO411592  26.656   9.504   9.534
  556POPC   GL111593  26.664   9.737   9.111
  556POPC   GL211594  26.997   9.876   9.078
  556POPC   C1A11595  26.665   9.778   8.606
  556POPC   D2A11596  27.102   9.908   8.371
  556POPC   C3A11597  27.021  10.018   7.943
  556POPC   C4A11598  26.588   9.928   7.872
  556POPC   C1B11599  27.074   9.539   8.730
  556POPC   C2B11600  27.101   9.409   8.239
  556POPC   C3B11601  26.959   9.537   7.785
  556POPC   C4B11602  27.128   9.513   7.340
  557POPC   NC311603  42.501  11.351   9.477
  557POPC   PO411604  42.412  10.823   9.848
  557POPC   GL111605  42.318  10.922   9.295
  557POPC   GL211606  42.223  11.240   9.065
  557POPC   C1A11607  42.510  10.931   8.814
  557POPC   D2A11608  42.487  11.228   8.423
  557POPC   C3A11609  42.375  11.037   8.004
  557POPC   C4A11610  41.925  11.072   7.812
  557POPC   C1B11611  41.995  11.463   8.712
  557POPC   C2B11612  42.036  11.645   8.278
  557POPC   C3B11613  42.348  11.532   7.934
  557POPC   C4B11614  42.600  11.438   7.532
  558POPC   NC311615  26.072   0.947   9.449
  558POPC   PO411616  25.667   1.566   9.374
  558POPC   GL111617  25.960   1.269   9.084
  558POPC   GL211618  26.282   1.152   8.964
  558POPC   C1A11619  25.824   1.066   8.768
  558POPC   D2A11620  25.767   1.237   8.360
  558POPC   C3A11621  25.896   1.048   8.004
  558POPC   C4A11622  25.835   1.085   7.557
  558POPC   C1B11623  26.224   1.376   8.584
  558POPC   C2B11624  26.192   1.451   8.141
  558POPC   C3B11625  26.317   1.231   7.757
  558POPC   C4B11626  26.424   1.311   7.321
  559POPC   NC311627  20.446   2.543   9.336
  559POPC   PO411628  20.858   2.942   9.614
  559POPC   GL111629  20.818   2.921   9.148
  559POPC   GL211630  20.808   2.575   8.973
  559POPC   C1A11631  20.778   3.026   8.700
  559POPC   D2A11632  20.657   2.697   8.397
  559POPC   C3A11633  20.838   2.678   8.004
  559POPC   C4A11634  20.780   3.048   7.788
  559POPC   C1B11635  20.402   2.410   8.729
  559POPC   C2B11636  20.226   2.359   8.315
  559POPC   C3B11637  20.453   2.327   7.927
  559POPC   C4B11638  20.654   2.436   7.568
  560POPC   NC311639  43.666  35.093   9.516
  560POPC   PO411640  44.245  35.561   9.575
  560POPC   GL111641  44.006  35.380   9.255
  560POPC   GL211642  44.079  35.102   9.127
  560POPC   C1A11643  43.769  35.404   8.871
  560POPC   D2A11644  43.946  35.401   8.489
  560POPC   C3A11645  43.798  35.157   8.156
  560POPC   C4A11646  43.813  35.288   7.703
  560POPC   C1B11647  44.346  35.146   8.787
  560POPC   C2B11648  44.345  35.097   8.350
  560POPC   C3B11649  44.260  35.265   7.951
  560POPC   C4B11650  44.187  34.946   7.599
  561POPC   NC311651   6.898  21.080   9.342
  561POPC   PO411652   6.710  21.712   9.498
  561POPC   GL111653   6.568  21.657   9.091
  561POPC   GL211654   6.527  21.321   9.060
  561POPC   C1A11655   6.687  21.598   8.671
  561POPC   D2A11656   6.503  21.502   8.293
  561POPC   C3A11657   6.775  21.624   7.938
  561POPC   C4A11658   6.651  21.595   7.500
  561POPC   C1B11659   6.629  21.102   8.655
  561POPC   C2B11660   6.638  21.020   8.213
  561POPC   C3B11661   6.521  21.194   7.817
  561POPC   C4B11662   6.706  21.097   7.406
  562POPC   NC311663  29.195  23.173   9.423
  562POPC   PO411664  28.727  22.685   9.438
  562POPC   GL111665  29.097  22.702   9.150
  562POPC   GL211666  29.001  22.971   8.947
  562POPC   C1A11667  29.373  22.667   8.771
  562POPC   D2A11668  29.181  22.833   8.404
  562POPC   C3A11669  29.268  22.938   7.999
  562POPC   C4A11670  29.414  23.267   7.784
  562POPC   C1B11671  28.850  22.584   8.700
  562POPC   C2B11672  28.770  22.559   8.248
  562POPC   C3B11673  28.907  22.645   7.816
  562POPC   C4B11674  28.973  23.071   7.592
  563POPC   NC311675   0.616  44.341   9.827
  563POPC   PO411676   0.249  44.666   9.489
  563POPC   GL111677   0.174  44.602   9.116
  563POPC   GL211678   0.491  44.637   9.048
  563POPC   C1A11679   0.188  44.438   8.714
  563POPC   D2A11680   0.484  44.523   8.413
  563POPC   C3A11681   0.314  44.711   8.065
  563POPC   C4A11682   0.217  44.554   7.666
  563POPC   C1B11683   0.327  44.955   8.780
  563POPC   C2B11684   0.523   0.028   8.417
  563POPC   C3B11685   0.802  44.838   8.121
  563POPC   C4B11686   0.616  44.887   7.675
  564POPC   NC311687  28.752  11.952   9.475
  564POPC   PO411688  28.138  12.230   9.589
  564POPC   GL111689  28.337  12.116   9.193
  564POPC   GL211690  28.398  11.775   9.091
  564POPC   C1A11691  28.502  12.149   8.799
  564POPC   D2A11692  28.563  12.311   8.472
  564POPC   C3A11693  28.443  12.192   8.097
  564POPC   C4A11694  28.584  12.374   7.713
  564POPC   C1B11695  28.256  11.693   8.661
  564POPC   C2B11696  28.274  11.701   8.184
  564POPC   C3B11697  28.070  11.599   7.812
  564POPC   C4B11698  28.003  11.732   7.389
  565POPC   NC311699  19.635   5.713   9.395
  565POPC   PO411700  18.976   5.667   9.561
  565POPC   GL111701  19.106   5.719   9.163
  565POPC   GL211702  19.287   5.980   9.163
  565POPC   C1A11703  18.962   5.903   8.771
  565POPC   D2A11704  18.920   6.110   8.386
  565POPC   C3A11705  18.739   5.831   8.087
  565POPC   C4A11706  18.848   5.545   7.768
  565POPC   C1B11707  19.465   5.868   8.788
  565POPC   C2B11708  19.424   6.010   8.393
  565POPC   C3B11709  19.235   5.938   8.027
  565POPC   C4B11710  19.303   5.848   7.645
  566POPC   NC311711  17.922  20.758   9.453
  566POPC   PO411712  18.441  20.998   9.743
  566POPC   GL111713  18.327  20.765   9.195
  566POPC   GL211714  18.471  20.435   9.110
  566POPC   C1A11715  18.295  20.956   8.768
  566POPC   D2A11716  18.457  20.918   8.344
  566POPC   C3A11717  18.146  20.960   8.010
  566POPC   C4A11718  18.220  20.737   7.639
  566POPC   C1B11719  18.142  20.478   8.782
  566POPC   C2B11720  18.024  20.585   8.356
  566POPC   C3B11721  17.880  20.447   7.950
  566POPC   C4B11722  17.996  20.298   7.538
  567POPC   NC311723  18.012  30.174   9.389
  567POPC   PO411724  18.592  29.711   9.513
  567POPC   GL111725  18.333  29.869   9.135
  567POPC   GL211726  18.048  29.656   9.098
  567POPC   C1A11727  18.255  30.158   8.753
  567POPC   D2A11728  18.500  30.418   8.420
  567POPC   C3A11729  18.444  30.264   7.962
  567POPC   C4A11730  18.311  29.877   7.759
  567POPC   C1B11731  18.010  29.709   8.645
  567POPC   C2B11732  18.083  29.980   8.286
  567POPC   C3B11733  17.934  30.206   7.942
  567POPC   C4B11734  18.030  30.203   7.524
  568POPC   NC311735   6.231   2.069   9.578
  568POPC   PO411736   6.901   2.166   9.460
  568POPC   GL111737   6.907   2.001   9.076
  568POPC   GL211738   6.540   2.013   9.120
  568POPC   C1A11739   6.736   1.705   8.755
  568POPC   D2A11740   6.503   1.795   8.380
  568POPC   C3A11741   6.776   1.972   8.066
  568POPC   C4A11742   6.748   2.070   7.640
  568POPC   C1B11743   6.619   2.216   8.730
  568POPC   C2B11744   6.458   2.293   8.357
  568POPC   C3B11745   6.294   2.098   7.969
  568POPC   C4B11746   6.112   2.136   7.587
  569POPC   NC311747  27.892  24.778   9.796
  569POPC   PO411748  27.571  24.335   9.359
  569POPC   GL111749  27.389  24.587   9.069
  569POPC   GL211750  27.195  24.879   9.142
  569POPC   C1A11751  27.543  24.581   8.652
  569POPC   D2A11752  27.521  24.360   8.260
  569POPC   C3A11753  27.945  24.361   8.065
  569POPC   C4A11754  28.044  24.463   7.646
  569POPC   C1B11755  27.351  25.050   8.743
  569POPC   C2B11756  27.593  25.028   8.356
  569POPC   C3B11757  27.412  24.972   7.962
  569POPC   C4B11758  27.558  24.568   7.793
  570POPC   NC311759  40.274  20.249   9.438
  570POPC   PO411760  40.005  20.915   9.505
  570POPC   GL111761  40.221  20.717   9.191
  570POPC   GL211762  39.949  20.502   9.121
  570POPC   C1A11763  40.314  20.622   8.783
  570POPC   D2A11764  40.093  20.583   8.404
  570POPC   C3A11765  40.213  20.672   7.986
  570POPC   C4A11766  39.922  20.734   7.636
  570POPC   C1B11767  39.815  20.281   8.761
  570POPC   C2B11768  39.638  20.344   8.369
  570POPC   C3B11769  39.724  20.293   7.972
  570POPC   C4B11770  40.053  20.205   7.708
  571POPC   NC311771  21.804   3.381   9.710
  571POPC   PO411772  21.246   3.742   9.508
  571POPC   GL111773  21.475   3.449   9.256
  571POPC   GL211774  21.159   3.335   9.144
  571POPC   C1A11775  21.598   3.451   8.814
  571POPC   D2A11776  21.422   3.588   8.397
  571POPC   C3A11777  21.551   3.439   8.002
  571POPC   C4A11778  21.581   3.577   7.575
  571POPC   C1B11779  21.057   3.495   8.739
  571POPC   C2B11780  20.930   3.457   8.298
  571POPC   C3B11781  21.058   3.495   7.852
  571POPC   C4B11782  20.872   3.403   7.443
  572POPC   NC311783   4.762   6.540   9.961
  572POPC   PO411784   5.338   6.478   9.527
  572POPC   GL111785   5.183   6.650   9.106
  572POPC   GL211786   4.872   6.468   8.948
  572POPC   C1A11787   5.117   6.784   8.671
  572POPC   D2A11788   5.204   6.548   8.343
  572POPC   C3A11789   5.201   6.881   8.020
  572POPC   C4A11790   4.966   6.859   7.612
  572POPC   C1B11791   4.605   6.627   8.641
  572POPC   C2B11792   4.765   6.734   8.246
  572POPC   C3B11793   4.946   6.448   7.916
  572POPC   C4B11794   4.783   6.144   7.675
  573POPC   NC311795  24.677  36.043   9.755
  573POPC   PO411796  24.429  35.490   9.548
  573POPC   GL111797  24.372  35.389   9.142
  573POPC   GL211798  24.100  35.612   9.142
  573POPC   C1A11799  24.473  35.212   8.742
  573POPC   D2A11800  24.301  35.232   8.319
  573POPC   C3A11801  24.619  35.285   8.055
  573POPC   C4A11802  24.622  35.081   7.694
  573POPC   C1B11803  24.268  35.679   8.740
  573POPC   C2B11804  24.507  35.689   8.391
  573POPC   C3B11805  24.294  35.663   8.003
  573POPC   C4B11806  24.331  35.605   7.639
  574POPC   NC311807  17.233  21.300   9.635
  574POPC   PO411808  17.823  21.552   9.576
  574POPC   GL111809  17.582  21.257   9.252
  574POPC   GL211810  17.225  21.326   9.148
  574POPC   C1A11811  17.555  21.151   8.805
  574POPC   D2A11812  17.643  21.355   8.416
  574POPC   C3A11813  17.565  21.243   8.000
  574POPC   C4A11814  17.516  21.606   7.780
  574POPC   C1B11815  17.070  21.029   8.862
  574POPC   C2B11816  17.235  20.986   8.433
  574POPC   C3B11817  17.031  21.062   8.041
  574POPC   C4B11818  17.140  21.240   7.653
  575POPC   NC311819  41.647   8.383   9.510
  575POPC   PO411820  41.332   7.701   9.484
  575POPC   GL111821  41.348   7.819   9.108
  575POPC   GL211822  41.606   8.030   9.169
  575POPC   C1A11823  41.437   7.939   8.719
  575POPC   D2A11824  41.477   8.218   8.437
  575POPC   C3A11825  41.504   8.005   8.068
  575POPC   C4A11826  41.391   8.017   7.671
  575POPC   C1B11827  41.778   8.293   8.853
  575POPC   C2B11828  41.982   8.214   8.440
  575POPC   C3B11829  41.892   8.292   8.003
  575POPC   C4B11830  42.076   8.042   7.683
  576POPC   NC311831   9.581  29.468   9.615
  576POPC   PO411832  10.034  29.928   9.339
  576POPC   GL111833   9.838  29.748   9.027
  576POPC   GL211834   9.532  29.737   9.162
  576POPC   C1A11835   9.828  29.997   8.643
  576POPC   D2A11836   9.654  29.904   8.248
  576POPC   C3A11837   9.858  30.005   7.859
  576POPC   C4A11838   9.724  29.942   7.449
  576POPC   C1B11839   9.418  29.693   8.714
  576POPC   C2B11840   9.185  29.716   8.303
  576POPC   C3B11841   9.360  29.718   7.865
  576POPC   C4B11842   9.380  29.554   7.411
  577POPC   NC311843   5.710   2.915   9.464
  577POPC   PO411844   6.179   2.456   9.339
  577POPC   GL111845   5.867   2.678   9.053
  577POPC   GL211846   5.757   2.372   8.943
  577POPC   C1A11847   5.724   2.792   8.591
  577POPC   D2A11848   6.051   2.981   8.256
  577POPC   C3A11849   5.906   3.048   7.804
  577POPC   C4A11850   5.791   3.092   7.327
  577POPC   C1B11851   6.145   2.539   8.672
  577POPC   C2B11852   5.990   2.474   8.256
  577POPC   C3B11853   6.117   2.587   7.874
  577POPC   C4B11854   6.031   2.667   7.454
  578POPC   NC311855  27.255  42.258   9.480
  578POPC   PO411856  27.930  42.280   9.523
  578POPC   GL111857  27.690  42.180   9.146
  578POPC   GL211858  27.342  42.227   8.995
  578POPC   C1A11859  27.769  42.187   8.703
  578POPC   D2A11860  27.799  41.893   8.386
  578POPC   C3A11861  27.957  42.045   7.988
  578POPC   C4A11862  27.734  42.398   7.808
  578POPC   C1B11863  27.309  41.905   8.679
  578POPC   C2B11864  27.319  41.774   8.232
  578POPC   C3B11865  27.287  42.089   7.911
  578POPC   C4B11866  27.223  42.478   7.747
  579POPC   NC311867  11.963  38.819   9.659
  579POPC   PO411868  12.334  38.279   9.610
  579POPC   GL111869  12.085  38.220   9.246
  579POPC   GL211870  11.858  38.519   9.228
  579POPC   C1A11871  12.190  38.401   8.838
  579POPC   D2A11872  12.130  38.532   8.415
  579POPC   C3A11873  11.918  38.309   8.122
  579POPC   C4A11874  12.091  38.469   7.772
  579POPC   C1B11875  11.721  38.647   8.804
  579POPC   C2B11876  11.673  38.773   8.370
  579POPC   C3B11877  11.715  38.792   7.926
  579POPC   C4B11878  11.814  38.741   7.467
  580POPC   NC311879  43.732   4.059   9.560
  580POPC   PO411880  44.082   4.591   9.673
  580POPC   GL111881  44.002   4.429   9.234
  580POPC   GL211882  43.902   4.089   9.083
  580POPC   C1A11883  43.786   4.519   8.838
  580POPC   D2A11884  43.806   4.214   8.493
  580POPC   C3A11885  43.880   4.381   8.103
  580POPC   C4A11886  43.869   4.201   7.732
  580POPC   C1B11887  43.506   4.063   8.877
  580POPC   C2B11888  43.285   4.185   8.512
  580POPC   C3B11889  43.460   4.067   8.114
  580POPC   C4B11890  43.377   4.061   7.678
  581POPC   NC311891  37.874  16.184   9.806
  581POPC   PO411892  38.549  16.184   9.668
  581POPC   GL111893  38.634  16.024   9.206
  581POPC   GL211894  38.804  15.693   9.190
  581POPC   C1A11895  38.446  16.102   8.792
  581POPC   D2A11896  38.345  15.823   8.478
  581POPC   C3A11897  38.337  15.919   8.057
  581POPC   C4A11898  38.127  15.665   7.806
  581POPC   C1B11899  38.861  15.828   8.753
  581POPC   C2B11900  38.820  16.081   8.385
  581POPC   C3B11901  38.846  15.948   7.944
  581POPC   C4B11902  38.731  16.176   7.507
  582POPC   NC311903  11.282  43.823   9.576
  582POPC   PO411904  11.752  44.255   9.373
  582POPC   GL111905  11.364  44.151   9.181
  582POPC   GL211906  11.047  44.313   9.284
  582POPC   C1A11907  11.354  43.891   8.846
  582POPC   D2A11908  11.594  43.754   8.514
  582POPC   C3A11909  11.433  43.820   8.102
  582POPC   C4A11910  11.393  43.873   7.640
  582POPC   C1B11911  10.945  44.200   8.844
  582POPC   C2B11912  10.856  44.099   8.381
  582POPC   C3B11913  11.018  44.099   7.928
  582POPC   C4B11914  10.980  44.133   7.451
  583POPC   NC311915  35.237  11.037   9.575
  583POPC   PO411916  35.878  11.352   9.496
  583POPC   GL111917  35.514  11.276   9.207
  583POPC   GL211918  35.138  11.246   9.139
  583POPC   C1A11919  35.445  11.203   8.772
  583POPC   D2A11920  35.274  11.327   8.400
  583POPC   C3A11921  35.523  11.194   8.051
  583POPC   C4A11922  35.567  11.357   7.678
  583POPC   C1B11923  34.918  11.230   8.789
  583POPC   C2B11924  34.825  11.043   8.430
  583POPC   C3B11925  35.024  11.053   8.051
  583POPC   C4B11926  35.045  11.418   7.808
  584POPC   NC311927  27.673  22.923   9.422
  584POPC   PO411928  27.065  23.135   9.634
  584POPC   GL111929  27.369  23.131   9.087
  584POPC   GL211930  27.707  22.954   8.935
  584POPC   C1A11931  27.337  23.129   8.644
  584POPC   D2A11932  27.658  22.801   8.455
  584POPC   C3A11933  27.544  22.703   8.064
  584POPC   C4A11934  27.441  23.064   7.850
  584POPC   C1B11935  28.028  23.136   8.651
  584POPC   C2B11936  28.195  23.240   8.240
  584POPC   C3B11937  27.951  22.987   7.938
  584POPC   C4B11938  27.997  22.534   7.790
  585POPC   NC311939  33.409  21.619   9.450
  585POPC   PO411940  33.977  21.158   9.610
  585POPC   GL111941  33.887  21.414   9.232
  585POPC   GL211942  33.601  21.194   9.220
  585POPC   C1A11943  34.062  21.519   8.785
  585POPC   D2A11944  34.054  21.739   8.357
  585POPC   C3A11945  34.199  21.504   7.925
  585POPC   C4A11946  34.151  21.479   7.429
  585POPC   C1B11947  33.547  21.479   8.844
  585POPC   C2B11948  33.489  21.407   8.436
  585POPC   C3B11949  33.686  21.485   8.063
  585POPC   C4B11950  33.473  21.448   7.684
  586POPC   NC311951  18.541  32.474   9.257
  586POPC   PO411952  18.058  32.157   9.699
  586POPC   GL111953  18.085  32.205   9.203
  586POPC   GL211954  18.119  32.484   8.969
  586POPC   C1A11955  18.217  32.056   8.737
  586POPC   D2A11956  17.988  31.854   8.346
  586POPC   C3A11957  18.160  31.901   7.895
  586POPC   C4A11958  18.158  31.934   7.415
  586POPC   C1B11959  18.329  32.629   8.577
  586POPC   C2B11960  18.319  32.458   8.130
  586POPC   C3B11961  18.328  32.347   7.687
  586POPC   C4B11962  18.556  32.485   7.301
  587POPC   NC311963  25.319  32.482   9.560
  587POPC   PO411964  25.166  31.950   9.286
  587POPC   GL111965  25.269  32.368   9.035
  587POPC   GL211966  25.558  32.565   9.110
  587POPC   C1A11967  25.186  32.573   8.611
  587POPC   D2A11968  24.996  32.396   8.257
  587POPC   C3A11969  25.121  32.397   7.829
  587POPC   C4A11970  25.370  32.080   7.620
  587POPC   C1B11971  25.665  32.434   8.666
  587POPC   C2B11972  25.515  32.338   8.228
  587POPC   C3B11973  25.614  32.507   7.802
  587POPC   C4B11974  25.415  32.546   7.377
  588POPC   NC311975  36.535  16.020   9.426
  588POPC   PO411976  35.849  15.748   9.517
  588POPC   GL111977  36.085  15.887   9.219
  588POPC   GL211978  36.012  16.210   9.283
  588POPC   C1A11979  36.264  15.762   8.845
  588POPC   D2A11980  36.108  15.855   8.445
  588POPC   C3A11981  36.287  15.908   8.043
  588POPC   C4A11982  36.292  15.569   7.787
  588POPC   C1B11983  36.078  16.255   8.839
  588POPC   C2B11984  35.800  16.256   8.481
  588POPC   C3B11985  35.801  16.362   8.062
  588POPC   C4B11986  36.019  16.221   7.725
  589POPC   NC311987  44.843  21.638   9.474
  589POPC   PO411988  44.738  21.000   9.543
  589POPC   GL111989  44.788  21.224   9.150
  589POPC   GL211990  44.430  21.324   9.082
  589POPC   C1A11991  44.839  21.250   8.699
  589POPC   D2A11992  44.504  21.306   8.382
  589POPC   C3A11993  44.664  21.384   7.999
  589POPC   C4A11994  44.904  21.102   7.744
  589POPC   C1B11995  44.626  21.693   8.834
  589POPC   C2B11996  44.822  21.699   8.416
  589POPC   C3B11997  44.852  21.903   8.042
  589POPC   C4B11998  44.730  21.755   7.641
  590POPC   NC311999  44.319  20.791   9.568
  590POPC   PO412000  44.835  20.384   9.517
  590POPC   GL112001  44.813  20.612   9.112
  590POPC   GL212002  44.554  20.775   9.106
  590POPC   C1A12003  44.905  20.733   8.674
  590POPC   D2A12004  44.921  20.937   8.252
  590POPC   C3A12005  44.765  20.643   7.920
  590POPC   C4A12006  44.811  20.423   7.519
  590POPC   C1B12007  44.427  20.940   8.727
  590POPC   C2B12008  44.432  20.780   8.329
  590POPC   C3B12009  44.373  20.963   7.939
  590POPC   C4B12010  44.457  20.898   7.511
  591POPC   NC312011  27.190  23.409  10.022
  591POPC   PO412012  26.880  23.742   9.445
  591POPC   GL112013  26.973  23.714   9.048
  591POPC   GL212014  26.928  23.369   9.001
  591POPC   C1A12015  27.167  23.644   8.648
  591POPC   D2A12016  26.938  23.762   8.303
  591POPC   C3A12017  27.133  23.951   7.981
  591POPC   C4A12018  26.888  23.887   7.606
  591POPC   C1B12019  26.656  23.523   8.675
  591POPC   C2B12020  26.563  23.410   8.248
  591POPC   C3B12021  26.833  23.446   7.875
  591POPC   C4B12022  26.873  23.347   7.431
  592POPC   NC312023  17.056  20.639   9.429
  592POPC   PO412024  16.388  20.423   9.542
  592POPC   GL112025  16.597  20.605   9.207
  592POPC   GL212026  16.744  20.311   9.173
  592POPC   C1A12027  16.773  20.636   8.803
  592POPC   D2A12028  16.789  20.753   8.438
  592POPC   C3A12029  17.014  20.554   8.186
  592POPC   C4A12030  16.997  20.605   7.757
  592POPC   C1B12031  16.593  20.163   8.777
  592POPC   C2B12032  16.569  20.282   8.390
  592POPC   C3B12033  16.673  20.243   7.991
  592POPC   C4B12034  16.521  20.459   7.611
  593POPC   NC312035  41.074  36.019   9.343
  593POPC   PO412036  41.706  36.093   9.530
  593POPC   GL112037  41.548  36.106   9.159
  593POPC   GL212038  41.462  35.789   9.139
  593POPC   C1A12039  41.503  36.325   8.771
  593POPC   D2A12040  41.476  36.142   8.376
  593POPC   C3A12041  41.801  36.173   8.098
  593POPC   C4A12042  41.614  36.143   7.745
  593POPC   C1B12043  41.290  35.815   8.729
  593POPC   C2B12044  41.176  35.711   8.278
  593POPC   C3B12045  41.195  35.795   7.815
  593POPC   C4B12046  41.477  35.787   7.418
  594POPC   NC312047  33.180  25.133   9.794
  594POPC   PO412048  32.874  25.672   9.666
  594POPC   GL112049  33.022  25.371   9.347
  594POPC   GL212050  32.757  25.150   9.196
  594POPC   C1A12051  33.140  25.398   8.908
  594POPC   D2A12052  33.137  25.687   8.574
  594POPC   C3A12053  33.082  25.594   8.112
  594POPC   C4A12054  33.204  25.431   7.690
  594POPC   C1B12055  32.846  24.995   8.757
  594POPC   C2B12056  33.003  25.128   8.337
  594POPC   C3B12057  33.101  24.957   7.913
  594POPC   C4B12058  33.149  24.891   7.443
  595POPC   NC312059  31.206  33.135   9.452
  595POPC   PO412060  31.830  32.898   9.548
  595POPC   GL112061  31.578  32.951   9.180
  595POPC   GL212062  31.670  32.633   9.110
  595POPC   C1A12063  31.284  32.878   8.832
  595POPC   D2A12064  31.184  33.024   8.420
  595POPC   C3A12065  31.274  32.800   8.026
  595POPC   C4A12066  31.408  33.034   7.675
  595POPC   C1B12067  31.798  32.853   8.729
  595POPC   C2B12068  31.704  32.975   8.318
  595POPC   C3B12069  31.844  32.898   7.921
  595POPC   C4B12070  31.644  32.594   7.645
  596POPC   NC312071  13.041  31.686   9.791
  596POPC   PO412072  12.546  31.380   9.430
  596POPC   GL112073  12.801  31.485   9.111
  596POPC   GL212074  12.491  31.545   8.925
  596POPC   C1A12075  12.949  31.742   8.806
  596POPC   D2A12076  12.665  31.844   8.481
  596POPC   C3A12077  12.807  31.763   8.051
  596POPC   C4A12078  13.092  31.732   7.706
  596POPC   C1B12079  12.720  31.319   8.612
  596POPC   C2B12080  12.770  31.274   8.175
  596POPC   C3B12081  12.850  31.283   7.737
  596POPC   C4B12082  12.958  31.047   7.395
  597POPC   NC312083   9.215  38.704   9.360
  597POPC   PO412084   9.466  38.099   9.542
  597POPC   GL112085   9.637  38.383   9.213
  597POPC   GL212086   9.734  38.726   9.253
  597POPC   C1A12087   9.756  38.465   8.790
  597POPC   D2A12088   9.669  38.647   8.416
  597POPC   C3A12089   9.769  38.453   8.034
  597POPC   C4A12090   9.668  38.360   7.594
  597POPC   C1B12091  10.094  38.788   8.984
  597POPC   C2B12092  10.166  38.771   8.535
  597POPC   C3B12093  10.030  38.886   8.114
  597POPC   C4B12094  10.056  38.667   7.698
  598POPC   NC312095  36.655  12.406   9.286
  598POPC   PO412096  36.746  11.832   9.620
  598POPC   GL112097  36.899  11.990   9.227
  598POPC   GL212098  36.577  11.948   9.109
  598POPC   C1A12099  37.173  12.151   8.883
  598POPC   D2A12100  37.255  12.286   8.439
  598POPC   C3A12101  37.197  12.102   8.042
  598POPC   C4A12102  37.239  12.312   7.643
  598POPC   C1B12103  36.686  12.204   8.696
  598POPC   C2B12104  36.770  12.360   8.271
  598POPC   C3B12105  36.740  12.269   7.823
  598POPC   C4B12106  36.582  11.995   7.479
  599POPC   NC312107  37.061   3.020   9.384
  599POPC   PO412108  36.560   2.623   9.340
  599POPC   GL112109  36.823   2.739   9.011
  599POPC   GL212110  36.768   3.018   8.838
  599POPC   C1A12111  36.980   2.473   8.660
  599POPC   D2A12112  36.950   2.701   8.301
  599POPC   C3A12113  36.777   2.776   7.919
  599POPC   C4A12114  36.899   2.947   7.503
  599POPC   C1B12115  36.507   2.683   8.605
  599POPC   C2B12116  36.412   2.376   8.299
  599POPC   C3B12117  36.550   2.301   7.881
  599POPC   C4B12118  36.586   2.538   7.525
  600POPC   NC312119  20.662  30.470   9.492
  600POPC   PO412120  20.111  30.777   9.450
  600POPC   GL112121  20.354  30.606   9.078
  600POPC   GL212122  20.472  30.263   9.061
  600POPC   C1A12123  20.481  30.707   8.639
  600POPC   D2A12124  20.274  30.792   8.252
  600POPC   C3A12125  20.458  30.759   7.835
  600POPC   C4A12126  20.467  30.496   7.437
  600POPC   C1B12127  20.713  30.260   8.652
  600POPC   C2B12128  20.650  30.410   8.198
  600POPC   C3B12129  20.816  30.386   7.780
  600POPC   C4B12130  20.908  30.157   7.383
  601POPC   NC312131   1.435  13.247   9.510
  601POPC   PO412132   0.737  13.115   9.453
  601POPC   GL112133   0.980  12.818   9.172
  601POPC   GL212134   1.271  12.976   9.122
  601POPC   C1A12135   1.218  12.612   8.772
  601POPC   D2A12136   1.430  12.459   8.350
  601POPC   C3A12137   1.379  12.707   7.949
  601POPC   C4A12138   1.247  12.611   7.498
  601POPC   C1B12139   1.019  13.107   8.755
  601POPC   C2B12140   0.907  13.258   8.382
  601POPC   C3B12141   1.071  13.283   8.010
  601POPC   C4B12142   1.107  13.065   7.655
  602POPC   NC312143  19.017  42.515   9.700
  602POPC   PO412144  19.390  42.027   9.494
  602POPC   GL112145  19.131  42.342   9.232
  602POPC   GL212146  19.137  42.720   9.180
  602POPC   C1A12147  18.956  42.381   8.809
  602POPC   D2A12148  18.822  42.046   8.537
  602POPC   C3A12149  18.954  41.998   8.116
  602POPC   C4A12150  19.233  42.166   7.789
  602POPC   C1B12151  19.191  42.833   8.724
  602POPC   C2B12152  19.125  42.682   8.310
  602POPC   C3B12153  18.886  42.484   7.985
  602POPC   C4B12154  18.574  42.664   7.749
  603POPC   NC312155   2.920  10.566   9.494
  603POPC   PO412156   2.556  11.016   9.254
  603POPC   GL112157   2.801  10.691   9.023
  603POPC   GL212158   3.070  10.690   8.768
  603POPC   C1A12159   2.669  10.411   8.699
  603POPC   D2A12160   2.818  10.588   8.295
  603POPC   C3A12161   2.660  10.357   7.999
  603POPC   C4A12162   2.526   9.973   7.818
  603POPC   C1B12163   2.688  10.956   8.608
  603POPC   C2B12164   2.473  11.015   8.228
  603POPC   C3B12165   2.522  10.824   7.829
  603POPC   C4B12166   2.902  10.701   7.539
  604POPC   NC312167   1.412  41.394   9.495
  604POPC   PO412168   1.306  41.995   9.244
  604POPC   GL112169   1.244  41.652   9.067
  604POPC   GL212170   1.607  41.510   9.053
  604POPC   C1A12171   1.078  41.774   8.678
  604POPC   D2A12172   0.870  41.574   8.404
  604POPC   C3A12173   1.003  41.470   8.033
  604POPC   C4A12174   1.149  41.389   7.671
  604POPC   C1B12175   1.581  41.692   8.693
  604POPC   C2B12176   1.398  41.550   8.357
  604POPC   C3B12177   1.529  41.543   7.987
  604POPC   C4B12178   1.820  41.629   7.665
  605POPC   NC312179  27.378  22.352   9.542
  605POPC   PO412180  27.630  21.830   9.267
  605POPC   GL112181  27.769  22.148   9.033
  605POPC   GL212182  27.570  22.456   9.084
  605POPC   C1A12183  27.763  22.071   8.582
  605POPC   D2A12184  27.873  22.326   8.244
  605POPC   C3A12185  27.610  22.209   7.904
  605POPC   C4A12186  27.264  21.960   7.845
  605POPC   C1B12187  27.307  22.227   8.789
  605POPC   C2B12188  27.241  22.181   8.344
  605POPC   C3B12189  27.107  22.423   7.998
  605POPC   C4B12190  27.284  22.542   7.651
  606POPC   NC312191  35.893  44.383   9.495
  606POPC   PO412192  36.328  44.901   9.502
  606POPC   GL112193  36.151  44.735   9.159
  606POPC   GL212194  35.794  44.728   9.145
  606POPC   C1A12195  36.221  44.788   8.747
  606POPC   D2A12196  36.353  44.463   8.481
  606POPC   C3A12197  36.158  44.595   8.116
  606POPC   C4A12198  36.260  44.868   7.781
  606POPC   C1B12199  35.892  44.401   8.834
  606POPC   C2B12200  35.867  44.257   8.432
  606POPC   C3B12201  35.832  44.221   8.000
  606POPC   C4B12202  35.827  44.585   7.710
  607POPC   NC312203  44.942  37.751   9.472
  607POPC   PO412204   0.528  37.514   9.769
  607POPC   GL112205   0.442  37.613   9.291
  607POPC   GL212206   0.680  37.841   9.112
  607POPC   C1A12207   0.325  37.509   8.834
  607POPC   D2A12208   0.569  37.624   8.409
  607POPC   C3A12209   0.451  37.428   7.970
  607POPC   C4A12210   0.179  37.567   7.574
  607POPC   C1B12211   0.373  38.003   8.800
  607POPC   C2B12212   0.296  38.078   8.397
  607POPC   C3B12213   0.405  37.946   7.970
  607POPC   C4B12214   0.292  38.060   7.529
  608POPC   NC312215  34.217   1.846   9.533
  608POPC   PO412216  33.850   2.396   9.646
  608POPC   GL112217  33.961   2.187   9.217
  608POPC   GL212218  33.758   1.875   9.190
  608POPC   C1A12219  34.021   2.073   8.759
  608POPC   D2A12220  33.724   2.003   8.404
  608POPC   C3A12221  33.862   2.121   8.012
  608POPC   C4A12222  33.840   2.405   7.655
  608POPC   C1B12223  33.793   1.606   8.765
  608POPC   C2B12224  33.833   1.474   8.357
  608POPC   C3B12225  33.664   1.598   7.996
  608POPC   C4B12226  33.699   1.804   7.623
  609POPC   NC312227  25.438   0.880   9.611
  609POPC   PO412228  25.159   0.270   9.392
  609POPC   GL112229  25.366   0.604   9.177
  609POPC   GL212230  25.124   0.829   9.022
  609POPC   C1A12231  25.601   0.523   8.827
  609POPC   D2A12232  25.421   0.210   8.535
  609POPC   C3A12233  25.166   0.352   8.187
  609POPC   C4A12234  25.274   0.276   7.767
  609POPC   C1B12235  25.137   0.666   8.611
  609POPC   C2B12236  25.134   0.892   8.227
  609POPC   C3B12237  25.080   0.757   7.819
  609POPC   C4B12238  25.398   0.738   7.499
  610POPC   NC312239   1.548  38.274   9.507
  610POPC   PO412240   0.903  38.424   9.594
  610POPC   GL112241   1.176  38.420   9.186
  610POPC   GL212242   1.346  38.725   9.052
  610POPC   C1A12243   1.316  38.320   8.763
  610POPC   D2A12244   1.181  38.190   8.353
  610POPC   C3A12245   1.199  38.536   8.076
  610POPC   C4A12246   1.272  38.464   7.660
  610POPC   C1B12247   0.969  38.702   8.796
  610POPC   C2B12248   0.805  38.845   8.421
  610POPC   C3B12249   0.743  38.745   7.986
  610POPC   C4B12250   0.845  38.729   7.520
  611POPC   NC312251  13.314  11.710   9.429
  611POPC   PO412252  13.597  12.313   9.426
  611POPC   GL112253  13.746  12.150   9.072
  611POPC   GL212254  13.675  11.816   9.095
  611POPC   C1A12255  13.770  12.044   8.642
  611POPC   D2A12256  13.614  12.329   8.378
  611POPC   C3A12257  13.891  12.361   8.054
  611POPC   C4A12258  13.663  12.383   7.697
  611POPC   C1B12259  13.415  11.698   8.767
  611POPC   C2B12260  13.351  11.862   8.361
  611POPC   C3B12261  13.569  11.990   8.013
  611POPC   C4B12262  13.914  11.929   7.707
  612POPC   NC312263  33.617   8.656   9.559
  612POPC   PO412264  34.124   9.107   9.584
  612POPC   GL112265  33.875   8.983   9.210
  612POPC   GL212266  33.983   8.655   9.191
  612POPC   C1A12267  33.819   9.024   8.767
  612POPC   D2A12268  33.621   9.133   8.379
  612POPC   C3A12269  33.889   9.050   8.011
  612POPC   C4A12270  33.722   9.232   7.608
  612POPC   C1B12271  33.844   8.527   8.794
  612POPC   C2B12272  33.754   8.634   8.371
  612POPC   C3B12273  33.944   8.525   7.981
  612POPC   C4B12274  33.901   8.759   7.591
  613POPC   NC312275  10.973  36.609   9.557
  613POPC   PO412276  10.512  37.092   9.390
  613POPC   GL112277  10.449  36.765   9.162
  613POPC   GL212278  10.751  36.628   9.118
  613POPC   C1A12279  10.473  36.826   8.731
  613POPC   D2A12280  10.243  37.038   8.427
  613POPC   C3A12281  10.412  36.868   8.056
  613POPC   C4A12282  10.386  36.776   7.639
  613POPC   C1B12283  10.890  36.512   8.742
  613POPC   C2B12284  10.744  36.600   8.351
  613POPC   C3B12285  10.931  36.850   8.073
  613POPC   C4B12286  10.890  36.673   7.701
  614POPC   NC312287   8.412   7.415   9.694
  614POPC   PO412288   7.874   7.105   9.342
  614POPC   GL112289   8.196   7.327   9.114
  614POPC   GL212290   8.369   7.628   9.227
  614POPC   C1A12291   8.118   7.349   8.659
  614POPC   D2A12292   7.827   7.402   8.305
  614POPC   C3A12293   8.010   7.244   7.940
  614POPC   C4A12294   8.304   6.955   7.819
  614POPC   C1B12295   8.102   7.798   8.924
  614POPC   C2B12296   8.104   7.860   8.484
  614POPC   C3B12297   8.112   7.765   8.050
  614POPC   C4B12298   8.314   7.597   7.692
  615POPC   NC312299  12.504  13.855   9.722
  615POPC   PO412300  13.145  13.798   9.542
  615POPC   GL112301  12.993  13.739   9.092
  615POPC   GL212302  12.695  13.731   9.216
  615POPC   C1A12303  13.083  13.420   8.735
  615POPC   D2A12304  13.055  13.229   8.298
  615POPC   C3A12305  13.047  13.424   7.859
  615POPC   C4A12306  12.987  13.340   7.382
  615POPC   C1B12307  12.597  13.515   8.854
  615POPC   C2B12308  12.667  13.564   8.452
  615POPC   C3B12309  12.590  13.536   8.037
  615POPC   C4B12310  12.599  13.528   7.618
  616POPC   NC312311  22.553  12.724   9.475
  616POPC   PO412312  22.012  13.206   9.495
  616POPC   GL112313  21.945  13.016   9.101
  616POPC   GL212314  22.001  12.631   9.103
  616POPC   C1A12315  22.117  12.907   8.709
  616POPC   D2A12316  22.479  12.824   8.482
  616POPC   C3A12317  22.331  12.911   8.065
  616POPC   C4A12318  22.413  12.907   7.638
  616POPC   C1B12319  22.254  12.414   8.734
  616POPC   C2B12320  22.206  12.427   8.251
  616POPC   C3B12321  22.030  12.574   7.816
  616POPC   C4B12322  21.761  12.483   7.428
  617POPC   NC312323  32.515  23.724   9.315
  617POPC   PO412324  33.187  23.734   9.609
  617POPC   GL112325  33.104  23.714   9.166
  617POPC   GL212326  33.470  23.682   9.057
  617POPC   C1A12327  32.813  23.704   8.763
  617POPC   D2A12328  32.633  23.465   8.420
  617POPC   C3A12329  32.812  23.598   8.030
  617POPC   C4A12330  32.919  23.396   7.646
  617POPC   C1B12331  33.253  23.949   8.739
  617POPC   C2B12332  32.958  24.029   8.387
  617POPC   C3B12333  33.124  24.030   7.987
  617POPC   C4B12334  33.313  23.755   7.717
  618POPC   NC312335  31.951  28.127   9.475
  618POPC   PO412336  32.509  28.338   9.767
  618POPC   GL112337  32.403  28.209   9.268
  618POPC   GL212338  32.126  28.426   9.087
  618POPC   C1A12339  32.175  28.032   8.813
  618POPC   D2A12340  32.229  28.289   8.453
  618POPC   C3A12341  32.150  28.194   8.023
  618POPC   C4A12342  32.347  28.267   7.619
  618POPC   C1B12343  31.908  28.596   8.704
  618POPC   C2B12344  31.876  28.594   8.228
  618POPC   C3B12345  31.806  28.533   7.765
  618POPC   C4B12346  31.656  28.553   7.322
  619POPC   NC312347  32.561  37.947   9.297
  619POPC   PO412348  32.065  37.713   9.614
  619POPC   GL112349  32.056  37.665   9.166
  619POPC   GL212350  32.366  37.517   9.032
  619POPC   C1A12351  31.959  37.502   8.741
  619POPC   D2A12352  32.312  37.417   8.439
  619POPC   C3A12353  32.312  37.640   8.079
  619POPC   C4A12354  32.159  37.694   7.693
  619POPC   C1B12355  32.617  37.722   8.709
  619POPC   C2B12356  32.610  37.943   8.375
  619POPC   C3B12357  32.694  37.994   7.969
  619POPC   C4B12358  32.641  37.787   7.596
  620POPC   NC312359  38.287  17.454   9.531
  620POPC   PO412360  38.748  17.038   9.592
  620POPC   GL112361  38.697  17.378   9.222
  620POPC   GL212362  38.729  17.729   9.136
  620POPC   C1A12363  38.438  17.413   8.828
  620POPC   D2A12364  38.430  17.233   8.405
  620POPC   C3A12365  38.209  17.361   8.045
  620POPC   C4A12366  38.442  17.343   7.708
  620POPC   C1B12367  38.507  17.910   8.758
  620POPC   C2B12368  38.382  17.733   8.375
  620POPC   C3B12369  38.297  17.860   7.960
  620POPC   C4B12370  38.169  17.749   7.523
  621POPC   NC312371  11.135  21.442   9.557
  621POPC   PO412372  11.702  21.675   9.394
  621POPC   GL112373  11.466  21.588   9.063
  621POPC   GL212374  11.437  21.269   9.154
  621POPC   C1A12375  11.124  21.436   8.797
  621POPC   D2A12376  11.156  21.282   8.400
  621POPC   C3A12377  11.250  21.519   8.037
  621POPC   C4A12378  10.899  21.625   7.861
  621POPC   C1B12379  11.356  20.984   8.829
  621POPC   C2B12380  11.496  20.915   8.421
  621POPC   C3B12381  11.360  21.005   8.018
  621POPC   C4B12382  11.543  20.908   7.652
  622POPC   NC312383  42.912  28.504   9.401
  622POPC   PO412384  43.642  28.552   9.360
  622POPC   GL112385  43.327  28.618   9.085
  622POPC   GL212386  43.304  28.298   8.985
  622POPC   C1A12387  43.142  28.680   8.692
  622POPC   D2A12388  43.189  28.362   8.379
  622POPC   C3A12389  43.136  28.517   8.002
  622POPC   C4A12390  43.487  28.692   7.764
  622POPC   C1B12391  42.915  28.203   8.767
  622POPC   C2B12392  42.855  27.990   8.364
  622POPC   C3B12393  43.004  28.009   7.931
  622POPC   C4B12394  42.766  28.185   7.573
  623POPC   NC312395  43.749  41.467   9.654
  623POPC   PO412396  43.108  41.580   9.526
  623POPC   GL112397  43.178  41.502   9.127
  623POPC   GL212398  43.483  41.323   9.222
  623POPC   C1A12399  43.044  41.478   8.706
  623POPC   D2A12400  43.239  41.551   8.315
  623POPC   C3A12401  43.019  41.578   7.919
  623POPC   C4A12402  42.809  41.765   7.598
  623POPC   C1B12403  43.448  41.164   8.809
  623POPC   C2B12404  43.498  41.081   8.380
  623POPC   C3B12405  43.378  41.178   7.946
  623POPC   C4B12406  43.127  41.218   7.574
  624POPC   NC312407  41.589  30.384   9.379
  624POPC   PO412408  41.207  30.951   9.449
  624POPC   GL112409  41.479  30.910   9.102
  624POPC   GL212410  41.856  30.803   9.092
  624POPC   C1A12411  41.534  30.808   8.684
  624POPC   D2A12412  41.392  30.505   8.357
  624POPC   C3A12413  41.335  30.677   7.949
  624POPC   C4A12414  41.362  31.088   7.756
  624POPC   C1B12415  41.960  30.570   8.663
  624POPC   C2B12416  41.893  30.557   8.202
  624POPC   C3B12417  41.752  30.461   7.773
  624POPC   C4B12418  41.695  30.130   7.470
  625POPC   NC312419   5.555   0.459   9.402
  625POPC   PO412420   4.933   0.649   9.473
  625POPC   GL112421   4.950   0.317   9.165
  625POPC   GL212422   5.285   0.289   9.025
  625POPC   C1A12423   4.901   0.429   8.731
  625POPC   D2A12424   4.740   0.755   8.455
  625POPC   C3A12425   4.813   0.555   8.078
  625POPC   C4A12426   5.016   0.598   7.694
  625POPC   C1B12427   5.297   0.011   8.722
  625POPC   C2B12428   5.126   0.110   8.323
  625POPC   C3B12429   4.999   0.100   7.900
  625POPC   C4B12430   5.232   0.185   7.546
  626POPC   NC312431  37.891   6.415   9.514
  626POPC   PO412432  37.708   6.996   9.380
  626POPC   GL112433  37.971   6.754   9.094
  626POPC   GL212434  37.714   6.509   9.025
  626POPC   C1A12435  38.043   6.533   8.660
  626POPC   D2A12436  37.717   6.329   8.380
  626POPC   C3A12437  37.841   6.368   7.943
  626POPC   C4A12438  37.936   6.754   7.744
  626POPC   C1B12439  37.621   6.918   8.761
  626POPC   C2B12440  37.547   7.099   8.363
  626POPC   C3B12441  37.555   6.781   8.074
  626POPC   C4B12442  37.309   6.712   7.694
  627POPC   NC312443   1.595   2.933   9.515
  627POPC   PO412444   2.159   2.492   9.574
  627POPC   GL112445   2.263   2.702   9.151
  627POPC   GL212446   1.951   2.836   9.144
  627POPC   C1A12447   2.236   2.866   8.693
  627POPC   D2A12448   1.950   2.945   8.317
  627POPC   C3A12449   2.098   2.967   7.877
  627POPC   C4A12450   2.258   2.741   7.513
  627POPC   C1B12451   1.818   2.552   8.785
  627POPC   C2B12452   1.808   2.444   8.344
  627POPC   C3B12453   1.725   2.620   7.934
  627POPC   C4B12454   1.782   2.641   7.461
  628POPC   NC312455  21.983  23.764   9.534
  628POPC   PO412456  22.491  23.363   9.655
  628POPC   GL112457  22.204  23.384   9.255
  628POPC   GL212458  21.794  23.359   9.271
  628POPC   C1A12459  22.280  23.400   8.780
  628POPC   D2A12460  22.361  23.403   8.314
  628POPC   C3A12461  22.306  23.745   8.019
  628POPC   C4A12462  22.418  23.455   7.731
  628POPC   C1B12463  21.832  23.630   8.889
  628POPC   C2B12464  22.023  23.746   8.485
  628POPC   C3B12465  21.829  23.606   8.089
  628POPC   C4B12466  21.930  23.628   7.667
  629POPC   NC312467  42.274  18.865   9.629
  629POPC   PO412468  42.837  18.959   9.366
  629POPC   GL112469  42.519  19.062   9.089
  629POPC   GL212470  42.216  19.146   9.207
  629POPC   C1A12471  42.434  18.932   8.682
  629POPC   D2A12472  42.716  18.923   8.327
  629POPC   C3A12473  42.513  19.106   7.993
  629POPC   C4A12474  42.426  18.848   7.640
  629POPC   C1B12475  41.951  19.052   8.876
  629POPC   C2B12476  41.873  19.105   8.444
  629POPC   C3B12477  42.015  18.996   8.043
  629POPC   C4B12478  42.113  19.236   7.676
  630POPC   NC312479  38.992  26.404   9.601
  630POPC   PO412480  39.161  27.133   9.501
  630POPC   GL112481  39.333  26.991   9.122
  630POPC   GL212482  39.039  26.867   9.067
  630POPC   C1A12483  39.358  26.781   8.698
  630POPC   D2A12484  39.525  26.620   8.341
  630POPC   C3A12485  39.302  26.750   7.980
  630POPC   C4A12486  39.496  26.773   7.560
  630POPC   C1B12487  38.855  27.059   8.718
  630POPC   C2B12488  38.977  27.201   8.332
  630POPC   C3B12489  38.867  27.063   7.965
  630POPC   C4B12490  39.037  26.957   7.597
  631POPC   NC312491   2.295  33.632   9.556
  631POPC   PO412492   2.987  33.771   9.483
  631POPC   GL112493   2.800  33.959   9.135
  631POPC   GL212494   2.503  34.174   9.281
  631POPC   C1A12495   2.905  33.850   8.722
  631POPC   D2A12496   2.726  33.757   8.334
  631POPC   C3A12497   2.829  33.988   7.963
  631POPC   C4A12498   2.941  34.021   7.525
  631POPC   C1B12499   2.368  33.952   8.889
  631POPC   C2B12500   2.326  34.057   8.466
  631POPC   C3B12501   2.321  33.923   8.048
  631POPC   C4B12502   2.343  34.023   7.651
  632POPC   NC312503  40.283   3.677   9.410
  632POPC   PO412504  39.621   3.670   9.483
  632POPC   GL112505  39.843   3.488   9.167
  632POPC   GL212506  39.944   3.814   9.047
  632POPC   C1A12507  39.837   3.438   8.738
  632POPC   D2A12508  39.692   3.654   8.416
  632POPC   C3A12509  39.940   3.466   8.140
  632POPC   C4A12510  39.993   3.336   7.737
  632POPC   C1B12511  40.092   3.970   8.649
  632POPC   C2B12512  40.325   3.860   8.294
  632POPC   C3B12513  40.123   3.872   7.898
  632POPC   C4B12514  39.637   3.832   7.916
  633POPC   NC312515  12.837  42.893   9.445
  633POPC   PO412516  12.550  43.534   9.249
  633POPC   GL112517  12.842  43.238   9.060
  633POPC   GL212518  13.060  42.898   9.007
  633POPC   C1A12519  12.821  43.202   8.632
  633POPC   D2A12520  12.863  43.364   8.202
  633POPC   C3A12521  12.587  43.147   7.877
  633POPC   C4A12522  12.371  43.256   7.499
  633POPC   C1B12523  12.951  42.663   8.649
  633POPC   C2B12524  12.885  42.861   8.265
  633POPC   C3B12525  13.066  42.960   7.889
  633POPC   C4B12526  13.353  42.723   7.700
  634POPC   NC312527   5.379  40.529   9.593
  634POPC   PO412528   5.072  41.191   9.582
  634POPC   GL112529   5.088  40.912   9.255
  634POPC   GL212530   4.879  41.084   9.038
  634POPC   C1A12531   5.329  40.660   8.972
  634POPC   D2A12532   5.469  40.643   8.584
  634POPC   C3A12533   5.165  40.701   8.240
  634POPC   C4A12534   5.197  40.798   7.801
  634POPC   C1B12535   5.120  41.047   8.674
  634POPC   C2B12536   4.901  41.184   8.314
  634POPC   C3B12537   4.782  41.050   7.937
  634POPC   C4B12538   4.718  40.606   7.910
  635POPC   NC312539  28.201  25.630   9.372
  635POPC   PO412540  28.644  26.066   9.665
  635POPC   GL112541  28.441  26.074   9.254
  635POPC   GL212542  28.541  25.809   9.057
  635POPC   C1A12543  28.309  26.183   8.790
  635POPC   D2A12544  28.258  26.086   8.325
  635POPC   C3A12545  28.107  26.327   7.917
  635POPC   C4A12546  28.248  26.447   7.437
  635POPC   C1B12547  28.261  25.602   8.743
  635POPC   C2B12548  28.111  25.587   8.338
  635POPC   C3B12549  28.127  25.785   7.939
  635POPC   C4B12550  28.420  25.997   7.691
  636POPC   NC312551   4.739  21.811   9.580
  636POPC   PO412552   5.278  22.192   9.439
  636POPC   GL112553   4.911  22.102   9.171
  636POPC   GL212554   4.899  21.756   9.091
  636POPC   C1A12555   4.866  22.374   8.820
  636POPC   D2A12556   5.054  22.308   8.429
  636POPC   C3A12557   5.231  22.591   8.128
  636POPC   C4A12558   5.083  22.269   7.877
  636POPC   C1B12559   5.240  21.919   8.823
  636POPC   C2B12560   5.381  21.846   8.418
  636POPC   C3B12561   5.155  21.786   8.041
  636POPC   C4B12562   5.293  21.867   7.621
  637POPC   NC312563  19.641  26.825   9.608
  637POPC   PO412564  20.263  26.578   9.578
  637POPC   GL112565  19.994  26.840   9.214
  637POPC   GL212566  19.594  26.861   9.119
  637POPC   C1A12567  19.930  26.736   8.763
  637POPC   D2A12568  19.764  26.809   8.365
  637POPC   C3A12569  20.025  26.674   8.056
  637POPC   C4A12570  20.267  26.913   7.768
  637POPC   C1B12571  19.406  26.662   8.779
  637POPC   C2B12572  19.408  26.443   8.403
  637POPC   C3B12573  19.389  26.653   8.035
  637POPC   C4B12574  19.648  26.646   7.724
  638POPC   NC312575  23.525   3.544   9.527
  638POPC   PO412576  24.139   3.135   9.326
  638POPC   GL112577  23.795   3.275   9.126
  638POPC   GL212578  23.786   3.619   9.101
  638POPC   C1A12579  23.536   3.297   8.747
  638POPC   D2A12580  23.474   3.542   8.361
  638POPC   C3A12581  23.562   3.393   7.934
  638POPC   C4A12582  23.752   3.574   7.581
  638POPC   C1B12583  23.620   3.828   8.764
  638POPC   C2B12584  23.792   3.984   8.410
  638POPC   C3B12585  23.912   3.993   8.017
  638POPC   C4B12586  24.135   3.672   7.858
  639POPC   NC312587   0.731  27.286   9.413
  639POPC   PO412588   1.384  26.988   9.474
  639POPC   GL112589   1.350  26.783   9.100
  639POPC   GL212590   0.982  26.898   9.158
  639POPC   C1A12591   1.604  26.750   8.728
  639POPC   D2A12592   1.495  26.607   8.302
  639POPC   C3A12593   1.639  26.842   7.956
  639POPC   C4A12594   1.551  27.296   7.798
  639POPC   C1B12595   1.139  27.181   8.870
  639POPC   C2B12596   1.259  27.049   8.491
  639POPC   C3B12597   1.163  26.973   8.091
  639POPC   C4B12598   1.076  26.606   7.904
  640POPC   NC312599  26.646  21.820   9.693
  640POPC   PO412600  26.970  21.273   9.602
  640POPC   GL112601  26.902  21.509   9.191
  640POPC   GL212602  26.607  21.727   9.166
  640POPC   C1A12603  27.158  21.538   8.798
  640POPC   D2A12604  27.084  21.689   8.367
  640POPC   C3A12605  27.018  21.511   7.926
  640POPC   C4A12606  27.074  21.658   7.496
  640POPC   C1B12607  26.646  21.520   8.721
  640POPC   C2B12608  26.627  21.461   8.248
  640POPC   C3B12609  26.517  21.273   7.811
  640POPC   C4B12610  26.404  21.179   7.349
  641POPC   NC312611  12.687   0.690   9.427
  641POPC   PO412612  13.028   0.030   9.450
  641POPC   GL112613  12.943   0.312   9.055
  641POPC   GL212614  12.727   0.641   8.932
  641POPC   C1A12615  12.714   0.238   8.650
  641POPC   D2A12616  12.676   0.394   8.246
  641POPC   C3A12617  12.995   0.286   7.974
  641POPC   C4A12618  13.315   0.377   7.705
  641POPC   C1B12619  12.461   0.760   8.574
  641POPC   C2B12620  12.407   0.799   8.112
  641POPC   C3B12621  12.786   0.763   7.837
  641POPC   C4B12622  12.987   0.864   7.440
  642POPC   NC312623  26.368  39.465   9.438
  642POPC   PO412624  25.695  39.232   9.559
  642POPC   GL112625  25.782  39.088   9.112
  642POPC   GL212626  26.087  39.160   9.133
  642POPC   C1A12627  25.963  39.345   8.685
  642POPC   D2A12628  26.096  39.590   8.283
  642POPC   C3A12629  25.952  39.421   7.894
  642POPC   C4A12630  26.014  39.079   7.649
  642POPC   C1B12631  26.358  39.024   8.818
  642POPC   C2B12632  26.399  38.874   8.403
  642POPC   C3B12633  26.349  39.056   8.019
  642POPC   C4B12634  26.493  39.343   7.715
  643POPC   NC312635   7.629   6.800   9.600
  643POPC   PO412636   7.546   6.174   9.511
  643POPC   GL112637   7.475   6.495   9.177
  643POPC   GL212638   7.477   6.869   9.112
  643POPC   C1A12639   7.399   6.530   8.750
  643POPC   D2A12640   7.570   6.426   8.397
  643POPC   C3A12641   7.305   6.544   8.096
  643POPC   C4A12642   7.454   6.385   7.738
  643POPC   C1B12643   7.145   6.996   8.801
  643POPC   C2B12644   6.905   6.997   8.404
  643POPC   C3B12645   6.893   6.882   7.955
  643POPC   C4B12646   7.224   6.830   7.656
  644POPC   NC312647  29.612  19.860   9.408
  644POPC   PO412648  30.303  19.611   9.552
  644POPC   GL112649  30.072  19.765   9.197
  644POPC   GL212650  29.797  19.548   9.053
  644POPC   C1A12651  30.172  19.759   8.786
  644POPC   D2A12652  30.146  19.548   8.412
  644POPC   C3A12653  30.010  19.763   8.116
  644POPC   C4A12654  30.010  19.790   7.706
  644POPC   C1B12655  29.704  19.669   8.636
  644POPC   C2B12656  29.745  20.055   8.427
  644POPC   C3B12657  29.653  20.103   7.995
  644POPC   C4B12658  29.768  20.231   7.601
  645POPC   NC312659  36.789  44.823   9.546
  645POPC   PO412660  37.022  44.147   9.619
  645POPC   GL112661  36.894  44.431   9.261
  645POPC   GL212662  37.154  44.618   9.164
  645POPC   C1A12663  36.700  44.686   8.894
  645POPC   D2A12664  36.684  44.872   8.469
  645POPC   C3A12665  36.654  44.677   8.061
  645POPC   C4A12666  36.726  44.535   7.631
  645POPC   C1B12667  37.185  44.807   8.741
  645POPC   C2B12668  37.168  44.988   8.328
  645POPC   C3B12669  37.137  44.830   7.910
  645POPC   C4B12670  37.049  44.898   7.471
  646POPC   NC312671   3.556  14.238   9.599
  646POPC   PO412672   3.263  14.858   9.638
  646POPC   GL112673   3.263  14.738   9.204
  646POPC   GL212674   3.444  14.428   9.148
  646POPC   C1A12675   3.240  14.650   8.737
  646POPC   D2A12676   3.517  14.471   8.434
  646POPC   C3A12677   3.494  14.564   8.003
  646POPC   C4A12678   3.743  14.415   7.645
  646POPC   C1B12679   3.366  14.154   8.820
  646POPC   C2B12680   3.333  13.994   8.418
  646POPC   C3B12681   3.620  14.084   8.096
  646POPC   C4B12682   3.334  14.077   7.813
  647POPC   NC312683  15.169  41.427   9.439
  647POPC   PO412684  15.633  41.839   9.230
  647POPC   GL112685  15.370  41.540   8.969
  647POPC   GL212686  14.973  41.469   8.964
  647POPC   C1A12687  15.395  41.528   8.530
  647POPC   D2A12688  15.122  41.593   8.188
  647POPC   C3A12689  15.241  41.793   7.802
  647POPC   C4A12690  15.376  41.697   7.367
  647POPC   C1B12691  15.133  41.135   8.690
  647POPC   C2B12692  15.272  41.099   8.267
  647POPC   C3B12693  15.227  41.248   7.839
  647POPC   C4B12694  15.282  41.189   7.395
  648POPC   NC312695  40.502  20.936   9.564
  648POPC   PO412696  40.808  20.321   9.464
  648POPC   GL112697  40.713  20.540   9.116
  648POPC   GL212698  40.877  20.864   9.183
  648POPC   C1A12699  40.894  20.588   8.711
  648POPC   D2A12700  41.056  20.646   8.286
  648POPC   C3A12701  40.818  20.488   7.944
  648POPC   C4A12702  40.985  20.358   7.555
  648POPC   C1B12703  40.621  21.018   8.856
  648POPC   C2B12704  40.580  20.859   8.403
  648POPC   C3B12705  40.645  20.987   7.969
  648POPC   C4B12706  40.385  21.012   7.631
  649POPC   NC312707  11.301  35.858   9.479
  649POPC   PO412708  11.407  36.509   9.421
  649POPC   GL112709  11.190  36.296   9.094
  649POPC   GL212710  11.123  35.922   9.023
  649POPC   C1A12711  11.308  36.204   8.666
  649POPC   D2A12712  11.016  36.166   8.334
  649POPC   C3A12713  11.174  36.358   7.977
  649POPC   C4A12714  11.557  36.325   7.794
  649POPC   C1B12715  11.502  35.729   8.815
  649POPC   C2B12716  11.761  35.666   8.417
  649POPC   C3B12717  11.594  35.752   7.977
  649POPC   C4B12718  11.242  35.913   7.699
  650POPC   NC312719  19.669  36.712  10.026
  650POPC   PO412720  20.198  36.532   9.687
  650POPC   GL112721  19.893  36.605   9.300
  650POPC   GL212722  19.525  36.681   9.247
  650POPC   C1A12723  19.893  36.821   8.864
  650POPC   D2A12724  19.699  36.799   8.416
  650POPC   C3A12725  19.899  36.933   7.981
  650POPC   C4A12726  19.909  37.170   7.565
  650POPC   C1B12727  19.527  36.462   8.826
  650POPC   C2B12728  19.535  36.285   8.401
  650POPC   C3B12729  19.663  36.484   8.007
  650POPC   C4B12730  20.049  36.412   7.773
  651POPC   NC312731  12.162  43.519   9.524
  651POPC   PO412732  12.401  42.842   9.666
  651POPC   GL112733  12.361  43.026   9.233
  651POPC   GL212734  12.044  43.204   9.136
  651POPC   C1A12735  12.321  42.955   8.769
  651POPC   D2A12736  12.400  43.076   8.340
  651POPC   C3A12737  12.074  43.122   8.014
  651POPC   C4A12738  11.662  42.952   7.956
  651POPC   C1B12739  11.790  43.061   8.765
  651POPC   C2B12740  11.706  43.279   8.367
  651POPC   C3B12741  11.937  43.598   8.184
  651POPC   C4B12742  12.157  43.599   7.790
  652POPC   NC312743  30.232   9.467   9.617
  652POPC   PO412744  30.120  10.121   9.414
  652POPC   GL112745  30.217   9.981   9.027
  652POPC   GL212746  30.094   9.652   9.053
  652POPC   C1A12747  30.175  10.041   8.617
  652POPC   D2A12748  29.852   9.895   8.345
  652POPC   C3A12749  29.955   9.886   7.921
  652POPC   C4A12750  30.053  10.226   7.703
  652POPC   C1B12751  30.073   9.500   8.613
  652POPC   C2B12752  29.998   9.433   8.163
  652POPC   C3B12753  29.628   9.506   7.876
  652POPC   C4B12754  29.415   9.639   7.477
  653POPC   NC312755  10.280  25.598   9.458
  653POPC   PO412756  10.461  26.194   9.584
  653POPC   GL112757  10.313  26.133   9.187
  653POPC   GL212758  10.559  25.878   9.116
  653POPC   C1A12759  10.476  26.270   8.786
  653POPC   D2A12760  10.539  26.139   8.364
  653POPC   C3A12761  10.248  26.267   8.053
  653POPC   C4A12762  10.338  26.087   7.668
  653POPC   C1B12763  10.446  25.741   8.700
  653POPC   C2B12764  10.604  25.634   8.291
  653POPC   C3B12765  10.607  25.691   7.854
  653POPC   C4B12766  10.245  25.487   7.688
  654POPC   NC312767  11.177  28.750   9.616
  654POPC   PO412768  11.496  28.067   9.611
  654POPC   GL112769  11.397  28.354   9.350
  654POPC   GL212770  11.063  28.343   9.305
  654POPC   C1A12771  11.401  28.335   8.909
  654POPC   D2A12772  11.344  28.234   8.473
  654POPC   C3A12773  11.511  28.376   8.082
  654POPC   C4A12774  11.494  28.227   7.682
  654POPC   C1B12775  10.925  28.506   8.904
  654POPC   C2B12776  10.816  28.407   8.484
  654POPC   C3B12777  10.992  28.403   8.096
  654POPC   C4B12778  10.850  28.569   7.734
  655POPC   NC312779   4.629  29.613   9.458
  655POPC   PO412780   3.962  29.782   9.475
  655POPC   GL112781   4.015  29.985   9.098
  655POPC   GL212782   4.366  29.926   9.140
  655POPC   C1A12783   4.122  30.159   8.692
  655POPC   D2A12784   4.250  29.880   8.348
  655POPC   C3A12785   4.028  29.847   7.987
  655POPC   C4A12786   4.084  30.135   7.691
  655POPC   C1B12787   4.568  29.917   8.755
  655POPC   C2B12788   4.623  30.223   8.410
  655POPC   C3B12789   4.504  30.169   7.996
  655POPC   C4B12790   4.491  29.810   7.704
  656POPC   NC312791  43.686   7.484   9.482
  656POPC   PO412792  43.713   6.845   9.722
  656POPC   GL112793  43.847   7.049   9.246
  656POPC   GL212794  43.937   7.400   9.042
  656POPC   C1A12795  43.790   6.996   8.777
  656POPC   D2A12796  43.975   7.317   8.504
  656POPC   C3A12797  43.904   7.307   8.093
  656POPC   C4A12798  43.637   7.575   7.869
  656POPC   C1B12799  44.139   7.745   8.795
  656POPC   C2B12800  44.292   7.768   8.371
  656POPC   C3B12801  44.134   7.754   7.945
  656POPC   C4B12802  44.368   7.702   7.539
  657POPC   NC312803  26.553  40.311   9.442
  657POPC   PO412804  26.847  39.620   9.522
  657POPC   GL112805  26.890  39.928   9.206
  657POPC   GL212806  27.155  40.181   9.201
  657POPC   C1A12807  26.694  40.049   8.823
  657POPC   D2A12808  26.582  40.270   8.462
  657POPC   C3A12809  26.715  40.038   8.096
  657POPC   C4A12810  26.676  40.154   7.661
  657POPC   C1B12811  27.222  40.048   8.765
  657POPC   C2B12812  27.364  40.049   8.315
  657POPC   C3B12813  27.163  40.159   7.903
  657POPC   C4B12814  27.167  40.020   7.451
  658POPC   NC312815  10.162  36.024   9.535
  658POPC   PO412816  10.867  36.122   9.463
  658POPC   GL112817  10.672  36.140   9.050
  658POPC   GL212818  10.365  36.255   9.115
  658POPC   C1A12819  10.503  36.206   8.618
  658POPC   D2A12820  10.162  36.301   8.347
  658POPC   C3A12821  10.282  36.356   7.936
  658POPC   C4A12822  10.707  36.209   7.858
  658POPC   C1B12823  10.290  35.840   8.915
  658POPC   C2B12824  10.212  35.771   8.513
  658POPC   C3B12825  10.149  35.850   8.076
  658POPC   C4B12826  10.149  35.530   7.761
  659POPC   NC312827  28.299  14.988   9.403
  659POPC   PO412828  28.474  15.633   9.652
  659POPC   GL112829  28.664  15.399   9.302
  659POPC   GL212830  28.568  15.122   9.009
  659POPC   C1A12831  28.736  15.558   8.864
  659POPC   D2A12832  28.511  15.347   8.526
  659POPC   C3A12833  28.603  15.246   8.087
  659POPC   C4A12834  28.591  14.987   7.729
  659POPC   C1B12835  28.137  15.072   8.788
  659POPC   C2B12836  27.934  14.818   8.459
  659POPC   C3B12837  28.085  14.873   8.055
  659POPC   C4B12838  28.142  15.232   7.836
  660POPC   NC312839  32.559   2.438   9.392
  660POPC   PO412840  32.243   3.023   9.540
  660POPC   GL112841  32.391   2.851   9.132
  660POPC   GL212842  32.120   2.569   9.143
  660POPC   C1A12843  32.299   2.651   8.681
  660POPC   D2A12844  31.915   2.555   8.405
  660POPC   C3A12845  32.045   2.509   7.971
  660POPC   C4A12846  32.463   2.576   7.758
  660POPC   C1B12847  31.942   2.923   8.914
  660POPC   C2B12848  32.015   3.045   8.472
  660POPC   C3B12849  32.124   3.094   8.047
  660POPC   C4B12850  32.094   2.920   7.643
  661POPC   NC312851  16.302  42.356   9.381
  661POPC   PO412852  16.914  42.487   9.600
  661POPC   GL112853  16.814  42.469   9.166
  661POPC   GL212854  17.121  42.319   9.058
  661POPC   C1A12855  16.761  42.356   8.692
  661POPC   D2A12856  16.841  42.023   8.352
  661POPC   C3A12857  16.556  42.025   7.998
  661POPC   C4A12858  16.568  42.409   7.780
  661POPC   C1B12859  17.134  42.724   8.856
  661POPC   C2B12860  16.862  42.850   8.528
  661POPC   C3B12861  16.880  42.559   8.185
  661POPC   C4B12862  16.985  42.708   7.788
  662POPC   NC312863  36.801  17.524   9.492
  662POPC   PO412864  37.455  17.752   9.698
  662POPC   GL112865  37.283  17.584   9.275
  662POPC   GL212866  37.079  17.827   9.177
  662POPC   C1A12867  37.062  17.372   8.886
  662POPC   D2A12868  37.091  17.429   8.417
  662POPC   C3A12869  36.770  17.617   8.145
  662POPC   C4A12870  36.764  17.580   7.709
  662POPC   C1B12871  37.157  17.850   8.738
  662POPC   C2B12872  37.078  17.975   8.322
  662POPC   C3B12873  37.116  17.924   7.862
  662POPC   C4B12874  36.945  17.938   7.410
  663POPC   NC312875  28.342  17.773   9.431
  663POPC   PO412876  28.209  17.217   9.432
  663POPC   GL112877  28.437  17.350   9.101
  663POPC   GL212878  28.170  17.577   9.012
  663POPC   C1A12879  28.448  17.350   8.662
  663POPC   D2A12880  28.205  17.282   8.327
  663POPC   C3A12881  28.334  17.412   7.909
  663POPC   C4A12882  28.600  17.672   7.631
  663POPC   C1B12883  28.087  17.749   8.650
  663POPC   C2B12884  28.289  17.799   8.291
  663POPC   C3B12885  28.139  17.884   7.892
  663POPC   C4B12886  28.110  17.675   7.526
  664POPC   NC312887   9.313  20.912   9.428
  664POPC   PO412888   9.171  21.536   9.532
  664POPC   GL112889   8.999  21.431   9.163
  664POPC   GL212890   8.811  21.163   9.106
  664POPC   C1A12891   8.910  21.635   8.773
  664POPC   D2A12892   8.667  21.619   8.373
  664POPC   C3A12893   8.956  21.495   8.074
  664POPC   C4A12894   9.020  21.282   7.699
  664POPC   C1B12895   8.628  21.231   8.718
  664POPC   C2B12896   8.669  21.087   8.292
  664POPC   C3B12897   8.488  21.258   7.955
  664POPC   C4B12898   8.595  21.587   7.734
  665POPC   NC312899  40.390  16.250   9.561
  665POPC   PO412900  39.859  15.936   9.409
  665POPC   GL112901  40.019  16.094   9.032
  665POPC   GL212902  40.325  16.327   9.076
  665POPC   C1A12903  39.799  16.100   8.627
  665POPC   D2A12904  39.676  15.784   8.318
  665POPC   C3A12905  39.858  15.686   7.946
  665POPC   C4A12906  40.225  15.746   7.728
  665POPC   C1B12907  40.198  16.423   8.703
  665POPC   C2B12908  40.228  16.155   8.359
  665POPC   C3B12909  39.984  16.170   8.001
  665POPC   C4B12910  39.973  16.136   7.574
  666POPC   NC312911   3.413   9.334   9.561
  666POPC   PO412912   3.264   8.725   9.321
  666POPC   GL112913   3.482   9.007   9.139
  666POPC   GL212914   3.221   9.264   9.097
  666POPC   C1A12915   3.742   8.967   8.759
  666POPC   D2A12916   3.892   8.807   8.349
  666POPC   C3A12917   3.719   9.028   7.988
  666POPC   C4A12918   3.723   8.900   7.591
  666POPC   C1B12919   3.253   9.121   8.710
  666POPC   C2B12920   3.419   9.224   8.346
  666POPC   C3B12921   3.204   9.300   7.964
  666POPC   C4B12922   3.453   9.335   7.619
  667POPC   NC312923  30.075  27.287   9.416
  667POPC   PO412924  29.527  27.601   9.507
  667POPC   GL112925  29.687  27.473   9.120
  667POPC   GL212926  29.951  27.687   9.085
  667POPC   C1A12927  29.617  27.313   8.723
  667POPC   D2A12928  29.568  27.547   8.375
  667POPC   C3A12929  29.652  27.336   8.010
  667POPC   C4A12930  29.897  27.394   7.640
  667POPC   C1B12931  30.110  27.373   8.794
  667POPC   C2B12932  30.031  27.290   8.377
  667POPC   C3B12933  30.070  27.622   8.064
  667POPC   C4B12934  30.347  27.641   7.715
  668POPC   NC312935   0.454  38.608   9.528
  668POPC   PO412936   0.050  38.174   9.323
  668POPC   GL112937   0.302  38.427   9.082
  668POPC   GL212938   0.665  38.362   9.133
  668POPC   C1A12939   0.442  38.574   8.709
  668POPC   D2A12940   0.314  38.708   8.334
  668POPC   C3A12941   0.222  38.428   8.029
  668POPC   C4A12942   0.418  38.509   7.684
  668POPC   C1B12943   0.810  38.230   8.734
  668POPC   C2B12944   0.706  38.348   8.314
  668POPC   C3B12945   0.819  38.244   7.918
  668POPC   C4B12946   0.819  38.212   7.520
  669POPC   NC312947  42.336  36.063   9.507
  669POPC   PO412948  42.255  36.486   8.982
  669POPC   GL112949  42.302  36.020   9.010
  669POPC   GL212950  42.000  35.817   9.194
  669POPC   C1A12951  42.562  35.867   8.693
  669POPC   D2A12952  42.639  36.107   8.297
  669POPC   C3A12953  42.353  36.200   7.917
  669POPC   C4A12954  42.418  36.018   7.470
  669POPC   C1B12955  41.852  35.953   8.803
  669POPC   C2B12956  42.116  36.011   8.464
  669POPC   C3B12957  42.158  35.761   8.118
  669POPC   C4B12958  42.027  35.850   7.725
  670POPC   NC312959  37.189  15.502   9.549
  670POPC   PO412960  37.034  16.146   9.472
  670POPC   GL112961  36.918  16.033   9.094
  670POPC   GL212962  36.874  15.708   9.153
  670POPC   C1A12963  36.676  16.049   8.741
  670POPC   D2A12964  36.899  16.024   8.397
  670POPC   C3A12965  36.774  16.070   7.993
  670POPC   C4A12966  36.949  16.255   7.628
  670POPC   C1B12967  36.862  15.514   8.778
  670POPC   C2B12968  37.077  15.531   8.414
  670POPC   C3B12969  37.186  15.759   8.085
  670POPC   C4B12970  37.220  15.668   7.685
  671POPC   NC312971  11.647  11.854   9.950
  671POPC   PO412972  11.223  12.065   9.441
  671POPC   GL112973  11.114  12.101   9.042
  671POPC   GL212974  10.907  11.825   9.008
  671POPC   C1A12975  11.253  12.077   8.628
  671POPC   D2A12976  11.316  12.384   8.295
  671POPC   C3A12977  11.150  12.230   7.900
  671POPC   C4A12978  10.986  11.800   7.852
  671POPC   C1B12979  11.032  11.551   8.700
  671POPC   C2B12980  11.132  11.549   8.280
  671POPC   C3B12981  11.419  11.858   8.144
  671POPC   C4B12982  11.681  12.187   7.970
  672POPC   NC312983  37.969  19.063   9.417
  672POPC   PO412984  37.441  18.774   9.695
  672POPC   GL112985  37.515  18.991   9.222
  672POPC   GL212986  37.781  18.862   8.974
  672POPC   C1A12987  37.551  19.298   8.863
  672POPC   D2A12988  37.820  19.165   8.510
  672POPC   C3A12989  37.636  18.922   8.128
  672POPC   C4A12990  37.460  19.102   7.723
  672POPC   C1B12991  38.175  18.810   8.748
  672POPC   C2B12992  38.300  18.744   8.326
  672POPC   C3B12993  38.137  18.906   7.919
  672POPC   C4B12994  37.956  19.135   7.590
  673POPC   NC312995   2.913   0.222   9.513
  673POPC   PO412996   2.526   0.770   9.679
  673POPC   GL112997   2.737   0.691   9.216
  673POPC   GL212998   2.678   0.372   9.081
  673POPC   C1A12999   2.965   0.655   8.752
  673POPC   D2A13000   2.831   0.696   8.273
  673POPC   C3A13001   3.018   0.469   7.871
  673POPC   C4A13002   2.839   0.538   7.381
  673POPC   C1B13003   2.461   0.594   8.763
  673POPC   C2B13004   2.549   0.325   8.454
  673POPC   C3B13005   2.396   0.279   8.069
  673POPC   C4B13006   2.620   0.232   7.717
  674POPC   NC313007  22.276  26.998   9.653
  674POPC   PO413008  22.643  26.488   9.547
  674POPC   GL113009  22.324  26.670   9.206
  674POPC   GL213010  22.035  26.924   9.214
  674POPC   C1A13011  22.272  26.898   8.771
  674POPC   D2A13012  22.124  26.882   8.337
  674POPC   C3A13013  22.336  26.931   7.959
  674POPC   C4A13014  22.445  26.721   7.563
  674POPC   C1B13015  21.780  27.134   8.899
  674POPC   C2B13016  21.776  27.251   8.441
  674POPC   C3B13017  21.899  27.230   7.974
  674POPC   C4B13018  22.124  27.136   7.553
  675POPC   NC313019  27.398  30.922   9.619
  675POPC   PO413020  27.971  30.484   9.594
  675POPC   GL113021  27.832  30.486   9.199
  675POPC   GL213022  27.737  30.835   9.242
  675POPC   C1A13023  27.603  30.454   8.814
  675POPC   D2A13024  27.492  30.247   8.409
  675POPC   C3A13025  27.480  30.455   8.028
  675POPC   C4A13026  27.288  30.533   7.595
  675POPC   C1B13027  27.553  30.981   8.857
  675POPC   C2B13028  27.543  30.916   8.385
  675POPC   C3B13029  27.550  30.936   7.923
  675POPC   C4B13030  27.576  30.923   7.472
  676POPC   NC313031  24.432   4.819   9.539
  676POPC   PO413032  24.194   5.477   9.549
  676POPC   GL113033  24.170   5.144   9.159
  676POPC   GL213034  24.379   4.857   9.052
  676POPC   C1A13035  24.267   5.209   8.704
  676POPC   D2A13036  24.575   5.332   8.399
  676POPC   C3A13037  24.566   5.205   7.962
  676POPC   C4A13038  24.735   5.320   7.557
  676POPC   C1B13039  24.586   4.827   8.668
  676POPC   C2B13040  24.408   4.835   8.289
  676POPC   C3B13041  24.721   4.725   8.020
  676POPC   C4B13042  24.839   4.789   7.594
  677POPC   NC313043  40.191  32.251   9.367
  677POPC   PO413044  39.558  32.480   9.362
  677POPC   GL113045  39.900  32.553   9.053
  677POPC   GL213046  40.190  32.767   9.182
  677POPC   C1A13047  39.968  32.465   8.588
  677POPC   D2A13048  39.781  32.463   8.130
  677POPC   C3A13049  39.865  32.094   7.823
  677POPC   C4A13050  40.063  31.734   7.609
  677POPC   C1B13051  40.452  32.649   8.813
  677POPC   C2B13052  40.426  32.549   8.368
  677POPC   C3B13053  40.265  32.403   7.971
  677POPC   C4B13054  39.984  32.560   7.629
  678POPC   NC313055  31.708  43.325   9.329
  678POPC   PO413056  31.104  43.481   9.415
  678POPC   GL113057  31.232  43.099   9.158
  678POPC   GL213058  31.529  42.870   9.268
  678POPC   C1A13059  31.420  43.140   8.749
  678POPC   D2A13060  31.659  43.234   8.386
  678POPC   C3A13061  31.447  43.165   8.047
  678POPC   C4A13062  31.435  43.072   7.666
  678POPC   C1B13063  31.570  42.689   8.913
  678POPC   C2B13064  31.514  42.699   8.487
  678POPC   C3B13065  31.648  42.693   8.089
  678POPC   C4B13066  31.503  42.520   7.717
  679POPC   NC313067  10.800   6.604   9.463
  679POPC   PO413068  10.132   6.825   9.523
  679POPC   GL113069  10.400   6.741   9.175
  679POPC   GL213070  10.471   6.367   9.166
  679POPC   C1A13071  10.585   6.656   8.768
  679POPC   D2A13072  10.522   6.450   8.354
  679POPC   C3A13073  10.741   6.612   8.000
  679POPC   C4A13074  10.816   6.867   7.622
  679POPC   C1B13075  10.364   6.176   8.772
  679POPC   C2B13076  10.141   6.088   8.381
  679POPC   C3B13077  10.117   6.265   7.959
  679POPC   C4B13078  10.415   6.455   7.660
  680POPC   NC313079   5.466  10.153   9.452
  680POPC   PO413080   6.104  10.338   9.601
  680POPC   GL113081   6.066  10.408   9.151
  680POPC   GL213082   5.885  10.735   9.079
  680POPC   C1A13083   6.083  10.432   8.684
  680POPC   D2A13084   5.906  10.748   8.425
  680POPC   C3A13085   6.016  10.620   8.023
  680POPC   C4A13086   6.122  10.480   7.586
  680POPC   C1B13087   5.597  10.449   8.802
  680POPC   C2B13088   5.681  10.276   8.370
  680POPC   C3B13089   5.523  10.463   7.994
  680POPC   C4B13090   5.659  10.749   7.707
  681POPC   NC313091  42.073  29.005   9.538
  681POPC   PO413092  42.484  29.584   9.652
  681POPC   GL113093  42.569  29.235   9.251
  681POPC   GL213094  42.265  29.095   9.087
  681POPC   C1A13095  42.691  28.982   8.820
  681POPC   D2A13096  42.780  29.050   8.354
  681POPC   C3A13097  42.516  28.982   7.998
  681POPC   C4A13098  42.281  29.335   7.819
  681POPC   C1B13099  42.365  29.368   8.755
  681POPC   C2B13100  42.236  29.226   8.358
  681POPC   C3B13101  42.005  28.897   8.167
  681POPC   C4B13102  42.037  28.874   7.750
  682POPC   NC313103   2.737  23.916   9.452
  682POPC   PO413104   2.987  23.276   9.582
  682POPC   GL113105   2.890  23.515   9.177
  682POPC   GL213106   2.535  23.614   9.108
  682POPC   C1A13107   2.905  23.759   8.772
  682POPC   D2A13108   3.054  23.539   8.430
  682POPC   C3A13109   2.915  23.435   8.030
  682POPC   C4A13110   2.685  23.735   7.832
  682POPC   C1B13111   2.443  23.946   8.764
  682POPC   C2B13112   2.603  23.962   8.315
  682POPC   C3B13113   2.575  24.218   7.919
  682POPC   C4B13114   2.321  24.113   7.572
  683POPC   NC313115  44.651   8.803   9.417
  683POPC   PO413116  44.916   9.428   9.403
  683POPC   GL113117  44.591   9.219   9.155
  683POPC   GL213118  44.867   9.028   9.011
  683POPC   C1A13119  44.450   9.225   8.722
  683POPC   D2A13120  44.639   9.005   8.344
  683POPC   C3A13121  44.384   9.040   7.935
  683POPC   C4A13122  44.324   9.092   7.492
  683POPC   C1B13123   0.078   8.774   8.706
  683POPC   C2B13124   0.030   8.598   8.310
  683POPC   C3B13125  44.657   8.547   8.079
  683POPC   C4B13126  44.486   8.598   7.676
  684POPC   NC313127   1.736  43.009   9.743
  684POPC   PO413128   2.327  43.144   9.558
  684POPC   GL113129   2.078  43.112   9.215
  684POPC   GL213130   2.255  43.393   9.102
  684POPC   C1A13131   1.917  43.239   8.770
  684POPC   D2A13132   2.078  43.379   8.420
  684POPC   C3A13133   1.995  43.077   8.102
  684POPC   C4A13134   1.777  43.122   7.736
  684POPC   C1B13135   2.362  43.010   8.817
  684POPC   C2B13136   2.423  43.008   8.382
  684POPC   C3B13137   2.488  43.073   7.946
  684POPC   C4B13138   2.274  43.172   7.536
  685POPC   NC313139  22.686   1.684   9.615
  685POPC   PO413140  22.900   1.029   9.598
  685POPC   GL113141  22.815   1.176   9.163
  685POPC   GL213142  23.032   1.436   9.069
  685POPC   C1A13143  22.816   1.156   8.689
  685POPC   D2A13144  22.983   0.959   8.346
  685POPC   C3A13145  22.900   1.134   7.938
  685POPC   C4A13146  22.930   1.086   7.475
  685POPC   C1B13147  22.759   1.634   8.821
  685POPC   C2B13148  22.924   1.562   8.391
  685POPC   C3B13149  23.077   1.619   7.970
  685POPC   C4B13150  22.881   1.560   7.592
  686POPC   NC313151  20.633  41.812  10.112
  686POPC   PO413152  20.386  42.197   9.595
  686POPC   GL113153  20.480  42.395   9.124
  686POPC   GL213154  20.782  42.643   9.050
  686POPC   C1A13155  20.445  42.568   8.694
  686POPC   D2A13156  20.363  42.349   8.359
  686POPC   C3A13157  20.584  42.489   8.017
  686POPC   C4A13158  20.705  42.594   7.621
  686POPC   C1B13159  20.859  42.282   8.746
  686POPC   C2B13160  20.819  42.114   8.311
  686POPC   C3B13161  20.977  42.200   7.880
  686POPC   C4B13162  20.788  42.116   7.464
  687POPC   NC313163  33.344  14.262   9.569
  687POPC   PO413164  33.970  14.412   9.815
  687POPC   GL113165  34.039  14.296   9.282
  687POPC   GL213166  33.725  14.381   9.085
  687POPC   C1A13167  34.106  14.392   8.781
  687POPC   D2A13168  33.836  14.361   8.396
  687POPC   C3A13169  34.049  14.421   8.061
  687POPC   C4A13170  34.247  14.412   7.702
  687POPC   C1B13171  33.544  14.620   8.717
  687POPC   C2B13172  33.348  14.590   8.325
  687POPC   C3B13173  33.500  14.400   7.950
  687POPC   C4B13174  33.767  14.566   7.625
  688POPC   NC313175   3.956  44.054   9.587
  688POPC   PO413176   3.344  43.742   9.460
  688POPC   GL113177   3.482  44.014   9.181
  688POPC   GL213178   3.805  44.077   9.100
  688POPC   C1A13179   3.427  44.184   8.780
  688POPC   D2A13180   3.463  43.989   8.415
  688POPC   C3A13181   3.588  44.202   8.083
  688POPC   C4A13182   3.493  43.981   7.711
  688POPC   C1B13183   3.811  43.755   8.800
  688POPC   C2B13184   3.936  43.808   8.378
  688POPC   C3B13185   3.901  43.755   7.958
  688POPC   C4B13186   3.936  43.835   7.526
  689POPC   NC313187   0.665   3.082   9.852
  689POPC   PO413188   0.720   3.662   9.453
  689POPC   GL113189   0.594   3.560   9.114
  689POPC   GL213190   0.244   3.507   9.180
  689POPC   C1A13191   0.760   3.471   8.744
  689POPC   D2A13192   0.613   3.647   8.379
  689POPC   C3A13193   0.656   3.501   7.981
  689POPC   C4A13194   0.454   3.739   7.671
  689POPC   C1B13195   0.330   3.216   8.822
  689POPC   C2B13196   0.216   3.292   8.366
  689POPC   C3B13197   0.183   3.277   7.898
  689POPC   C4B13198   0.188   3.208   7.410
  690POPC   NC313199  17.371  34.104   9.442
  690POPC   PO413200  17.912  33.650   9.546
  690POPC   GL113201  17.643  33.713   9.178
  690POPC   GL213202  17.737  34.058   9.085
  690POPC   C1A13203  17.559  33.624   8.702
  690POPC   D2A13204  17.361  33.690   8.267
  690POPC   C3A13205  17.539  33.602   7.846
  690POPC   C4A13206  17.544  33.296   7.499
  690POPC   C1B13207  17.512  34.133   8.714
  690POPC   C2B13208  17.415  34.213   8.293
  690POPC   C3B13209  17.680  34.170   7.955
  690POPC   C4B13210  17.585  34.032   7.577
  691POPC   NC313211   7.320  23.787   9.783
  691POPC   PO413212   6.802  23.890   9.398
  691POPC   GL113213   6.837  23.606   9.065
  691POPC   GL213214   6.564  23.814   8.946
  691POPC   C1A13215   6.978  23.634   8.669
  691POPC   D2A13216   6.914  23.895   8.314
  691POPC   C3A13217   6.925  23.675   7.919
  691POPC   C4A13218   6.801  23.750   7.483
  691POPC   C1B13219   6.449  23.484   8.692
  691POPC   C2B13220   6.570  23.470   8.266
  691POPC   C3B13221   6.453  23.819   7.971
  691POPC   C4B13222   6.142  24.093   7.841
  692POPC   NC313223  14.979  19.402   9.440
  692POPC   PO413224  15.513  19.942   9.486
  692POPC   GL113225  15.162  19.909   9.223
  692POPC   GL213226  14.807  20.035   9.300
  692POPC   C1A13227  15.246  19.779   8.806
  692POPC   D2A13228  15.322  19.605   8.436
  692POPC   C3A13229  15.096  19.712   8.117
  692POPC   C4A13230  15.233  19.726   7.713
  692POPC   C1B13231  14.850  20.090   8.861
  692POPC   C2B13232  15.024  20.105   8.462
  692POPC   C3B13233  15.183  20.197   8.052
  692POPC   C4B13234  14.908  20.094   7.742
  693POPC   NC313235  10.313   1.344   9.560
  693POPC   PO413236  10.654   0.734   9.306
  693POPC   GL113237  10.591   1.086   9.068
  693POPC   GL213238  10.532   1.430   9.111
  693POPC   C1A13239  10.488   1.150   8.673
  693POPC   D2A13240  10.561   1.402   8.346
  693POPC   C3A13241  10.674   1.049   8.136
  693POPC   C4A13242  10.535   0.841   7.781
  693POPC   C1B13243  10.278   1.601   8.790
  693POPC   C2B13244   9.930   1.531   8.491
  693POPC   C3B13245  10.088   1.248   8.190
  693POPC   C4B13246  10.368   1.327   7.825
  694POPC   NC313247   1.593  28.952   9.768
  694POPC   PO413248   2.212  28.782   9.475
  694POPC   GL113249   2.114  29.128   9.232
  694POPC   GL213250   1.834  29.325   9.339
  694POPC   C1A13251   2.153  29.200   8.801
  694POPC   D2A13252   2.260  29.208   8.375
  694POPC   C3A13253   1.957  29.228   8.059
  694POPC   C4A13254   2.058  29.394   7.670
  694POPC   C1B13255   1.698  29.449   8.914
  694POPC   C2B13256   1.609  29.349   8.473
  694POPC   C3B13257   1.454  29.355   8.060
  694POPC   C4B13258   1.590  29.227   7.644
  695POPC   NC313259  36.803  14.043   9.453
  695POPC   PO413260  36.616  13.440   9.512
  695POPC   GL113261  36.896  13.516   9.176
  695POPC   GL213262  37.170  13.736   9.265
  695POPC   C1A13263  36.941  13.459   8.751
  695POPC   D2A13264  36.786  13.782   8.528
  695POPC   C3A13265  36.843  13.722   8.140
  695POPC   C4A13266  36.804  13.946   7.780
  695POPC   C1B13267  37.321  13.757   8.857
  695POPC   C2B13268  37.288  13.790   8.451
  695POPC   C3B13269  37.223  14.077   8.136
  695POPC   C4B13270  37.300  14.047   7.717
  696POPC   NC313271  39.822  35.417   9.663
  696POPC   PO413272  40.508  35.208   9.608
  696POPC   GL113273  40.209  35.378   9.301
  696POPC   GL213274  39.876  35.422   9.168
  696POPC   C1A13275  40.274  35.489   8.859
  696POPC   D2A13276  40.144  35.614   8.456
  696POPC   C3A13277  40.282  35.445   8.103
  696POPC   C4A13278  40.205  35.338   7.703
  696POPC   C1B13279  39.795  35.664   8.834
  696POPC   C2B13280  39.642  35.642   8.431
  696POPC   C3B13281  39.793  35.552   8.028
  696POPC   C4B13282  39.699  35.447   7.652
  697POPC   NC313283  18.025  26.729   9.389
  697POPC   PO413284  18.617  27.124   9.537
  697POPC   GL113285  18.543  26.967   9.132
  697POPC   GL213286  18.416  26.681   9.063
  697POPC   C1A13287  18.599  26.965   8.678
  697POPC   D2A13288  18.497  26.724   8.308
  697POPC   C3A13289  18.462  26.849   7.878
  697POPC   C4A13290  18.475  27.017   7.418
  697POPC   C1B13291  18.126  26.758   8.711
  697POPC   C2B13292  17.992  26.837   8.292
  697POPC   C3B13293  17.982  26.664   7.906
  697POPC   C4B13294  17.813  26.449   7.590
  698POPC   NC313295   9.986  31.147   9.645
  698POPC   PO413296   9.360  31.293   9.565
  698POPC   GL113297   9.623  31.419   9.235
  698POPC   GL213298   9.507  31.168   9.022
  698POPC   C1A13299   9.923  31.491   8.881
  698POPC   D2A13300  10.110  31.373   8.469
  698POPC   C3A13301   9.998  31.481   8.021
  698POPC   C4A13302  10.087  31.804   7.667
  698POPC   C1B13303   9.447  31.409   8.661
  698POPC   C2B13304   9.509  31.425   8.211
  698POPC   C3B13305   9.426  31.484   7.771
  698POPC   C4B13306   9.426  31.292   7.316
  699POPC   NC313307   4.191  23.486   9.504
  699POPC   PO413308   4.740  23.651   9.876
  699POPC   GL113309   4.657  23.691   9.326
  699POPC   GL213310   4.315  23.810   9.143
  699POPC   C1A13311   4.686  23.752   8.807
  699POPC   D2A13312   4.427  23.886   8.431
  699POPC   C3A13313   4.444  23.573   8.124
  699POPC   C4A13314   4.499  23.508   7.701
  699POPC   C1B13315   4.249  23.471   8.809
  699POPC   C2B13316   4.020  23.436   8.406
  699POPC   C3B13317   3.924  23.749   8.074
  699POPC   C4B13318   4.049  23.750   7.624
  700POPC   NC313319  10.156  16.670   9.713
  700POPC   PO413320  10.663  17.104   9.456
  700POPC   GL113321  10.586  16.870   9.086
  700POPC   GL213322  10.403  16.563   9.138
  700POPC   C1A13323  10.401  16.775   8.679
  700POPC   D2A13324  10.285  16.453   8.464
  700POPC   C3A13325  10.412  16.621   8.112
  700POPC   C4A13326  10.419  16.681   7.707
  700POPC   C1B13327  10.757  16.454   8.820
  700POPC   C2B13328  10.846  16.501   8.384
  700POPC   C3B13329  10.859  16.493   7.924
  700POPC   C4B13330  10.560  16.201   7.730
  701POPC   NC313331  13.621  17.300   9.400
  701POPC   PO413332  14.111  17.826   9.514
  701POPC   GL113333  13.865  17.761   9.093
  701POPC   GL213334  13.533  17.635   9.038
  701POPC   C1A13335  13.717  17.762   8.606
  701POPC   D2A13336  13.458  17.740   8.228
  701POPC   C3A13337  13.734  17.699   7.893
  701POPC   C4A13338  13.880  17.265   7.788
  701POPC   C1B13339  13.513  17.312   8.668
  701POPC   C2B13340  13.584  17.220   8.229
  701POPC   C3B13341  13.371  17.331   7.846
  701POPC   C4B13342  13.306  17.157   7.447
  702POPC   NC313343   0.739  40.667   9.358
  702POPC   PO413344   0.118  40.536   9.534
  702POPC   GL113345   0.244  40.778   9.142
  702POPC   GL213346   0.489  41.068   9.161
  702POPC   C1A13347   0.372  40.717   8.702
  702POPC   D2A13348   0.748  40.641   8.412
  702POPC   C3A13349   0.547  40.574   8.018
  702POPC   C4A13350   0.166  40.489   7.768
  702POPC   C1B13351   0.780  41.010   8.800
  702POPC   C2B13352   0.623  41.137   8.410
  702POPC   C3B13353   0.713  41.060   7.979
  702POPC   C4B13354   0.338  40.986   7.762
  703POPC   NC313355   4.464  11.502   9.465
  703POPC   PO413356   4.160  10.879   9.544
  703POPC   GL113357   4.035  11.147   9.171
  703POPC   GL213358   4.191  11.463   9.012
  703POPC   C1A13359   4.038  11.023   8.746
  703POPC   D2A13360   4.319  10.875   8.429
  703POPC   C3A13361   4.249  11.112   8.057
  703POPC   C4A13362   4.006  11.014   7.705
  703POPC   C1B13363   3.962  11.712   8.655
  703POPC   C2B13364   3.878  11.710   8.186
  703POPC   C3B13365   4.024  11.504   7.791
  703POPC   C4B13366   4.400  11.620   7.555
  704POPC   NC313367   5.280  30.482   9.507
  704POPC   PO413368   4.712  30.925   9.604
  704POPC   GL113369   4.955  30.739   9.228
  704POPC   GL213370   5.295  30.855   9.120
  704POPC   C1A13371   4.978  30.669   8.780
  704POPC   D2A13372   5.052  30.518   8.360
  704POPC   C3A13373   4.866  30.578   7.957
  704POPC   C4A13374   5.116  30.595   7.626
  704POPC   C1B13375   5.550  30.904   8.742
  704POPC   C2B13376   5.569  30.735   8.360
  704POPC   C3B13377   5.368  30.827   7.996
  704POPC   C4B13378   5.557  30.896   7.591
  705POPC   NC313379  44.258  26.423   9.390
  705POPC   PO413380  44.257  25.764   9.382
  705POPC   GL113381  44.562  25.993   9.130
  705POPC   GL213382  44.539  26.349   8.980
  705POPC   C1A13383  44.664  25.929   8.709
  705POPC   D2A13384  44.537  25.816   8.317
  705POPC   C3A13385  44.648  26.087   7.988
  705POPC   C4A13386  44.491  25.870   7.655
  705POPC   C1B13387  44.989  26.292   8.859
  705POPC   C2B13388   0.037  26.144   8.436
  705POPC   C3B13389   0.105  26.345   8.062
  705POPC   C4B13390   0.086  26.327   7.627
  706POPC   NC313391  29.310  32.069   9.412
  706POPC   PO413392  28.894  32.599   9.599
  706POPC   GL113393  29.076  32.481   9.196
  706POPC   GL213394  28.868  32.205   9.203
  706POPC   C1A13395  29.258  32.254   8.776
  706POPC   D2A13396  29.414  32.424   8.324
  706POPC   C3A13397  29.202  32.401   7.939
  706POPC   C4A13398  29.116  32.007   7.783
  706POPC   C1B13399  28.776  32.438   8.800
  706POPC   C2B13400  28.908  32.328   8.376
  706POPC   C3B13401  28.690  32.197   7.990
  706POPC   C4B13402  28.669  32.028   7.554
  707POPC   NC313403   1.018  29.668   9.478
  707POPC   PO413404   1.530  30.133   9.360
  707POPC   GL113405   1.287  29.934   9.022
  707POPC   GL213406   1.116  29.601   9.002
  707POPC   C1A13407   1.022  30.079   8.680
  707POPC   D2A13408   1.043  30.280   8.259
  707POPC   C3A13409   1.408  30.165   8.026
  707POPC   C4A13410   1.340  29.965   7.638
  707POPC   C1B13411   0.863  29.439   8.677
  707POPC   C2B13412   1.078  29.630   8.355
  707POPC   C3B13413   0.938  29.847   8.014
  707POPC   C4B13414   0.883  29.704   7.647
  708POPC   NC313415  36.104  35.298   9.905
  708POPC   PO413416  36.495  35.691   9.678
  708POPC   GL113417  36.418  35.516   9.226
  708POPC   GL213418  36.049  35.453   9.142
  708POPC   C1A13419  36.467  35.380   8.763
  708POPC   D2A13420  36.179  35.119   8.443
  708POPC   C3A13421  36.140  35.201   7.972
  708POPC   C4A13422  36.017  34.949   7.609
  708POPC   C1B13423  36.000  35.533   8.678
  708POPC   C2B13424  36.239  35.603   8.287
  708POPC   C3B13425  36.079  35.765   7.904
  708POPC   C4B13426  35.687  35.636   7.727
  709POPC   NC313427  39.996  25.832   9.463
  709POPC   PO413428  39.837  26.421   9.693
  709POPC   GL113429  39.747  26.218   9.220
  709POPC   GL213430  40.044  26.055   9.020
  709POPC   C1A13431  39.686  26.252   8.726
  709POPC   D2A13432  39.958  26.059   8.405
  709POPC   C3A13433  39.847  25.924   8.012
  709POPC   C4A13434  39.912  26.091   7.637
  709POPC   C1B13435  40.367  25.998   8.697
  709POPC   C2B13436  40.447  26.217   8.308
  709POPC   C3B13437  40.357  26.010   7.911
  709POPC   C4B13438  40.295  25.822   7.502
  710POPC   NC313439   2.884  14.614   9.547
  710POPC   PO413440   2.443  14.211   9.693
  710POPC   GL113441   2.604  14.348   9.217
  710POPC   GL213442   2.923  14.394   9.064
  710POPC   C1A13443   2.533  14.426   8.755
  710POPC   D2A13444   2.504  14.643   8.353
  710POPC   C3A13445   2.541  14.387   7.992
  710POPC   C4A13446   2.511  14.537   7.586
  710POPC   C1B13447   2.886  14.021   8.828
  710POPC   C2B13448   2.811  14.127   8.408
  710POPC   C3B13449   3.045  14.362   8.145
  710POPC   C4B13450   3.000  14.442   7.713
  711POPC   NC313451  18.188   9.638   9.555
  711POPC   PO413452  18.708  10.118   9.718
  711POPC   GL113453  18.575   9.860   9.281
  711POPC   GL213454  18.267   9.995   9.153
  711POPC   C1A13455  18.449   9.624   8.854
  711POPC   D2A13456  18.260   9.685   8.414
  711POPC   C3A13457  18.497   9.794   7.989
  711POPC   C4A13458  18.234  10.071   7.676
  711POPC   C1B13459  17.980   9.902   8.816
  711POPC   C2B13460  17.817   9.967   8.393
  711POPC   C3B13461  17.960   9.779   7.997
  711POPC   C4B13462  17.810   9.476   7.699
  712POPC   NC313463  42.156  23.368   9.699
  712POPC   PO413464  42.668  23.839   9.562
  712POPC   GL113465  42.377  23.792   9.252
  712POPC   GL213466  42.523  23.471   9.211
  712POPC   C1A13467  42.367  24.007   8.842
  712POPC   D2A13468  42.132  24.176   8.472
  712POPC   C3A13469  42.291  24.031   8.063
  712POPC   C4A13470  42.230  23.897   7.602
  712POPC   C1B13471  42.550  23.436   8.793
  712POPC   C2B13472  42.424  23.671   8.451
  712POPC   C3B13473  42.351  23.540   8.054
  712POPC   C4B13474  42.129  23.216   7.894
  713POPC   NC313475  44.365  10.381   9.706
  713POPC   PO413476   0.038  10.596   9.557
  713POPC   GL113477  44.852  10.316   9.224
  713POPC   GL213478  44.493  10.311   9.220
  713POPC   C1A13479  44.750  10.235   8.760
  713POPC   D2A13480  44.762  10.623   8.481
  713POPC   C3A13481  44.888  10.752   8.064
  713POPC   C4A13482  44.893  10.614   7.630
  713POPC   C1B13483  44.387  10.577   8.863
  713POPC   C2B13484  44.323  10.372   8.467
  713POPC   C3B13485  44.488  10.441   8.048
  713POPC   C4B13486  44.379  10.613   7.657
  714POPC   NC313487   5.657  31.403   9.490
  714POPC   PO413488   6.276  31.219   9.361
  714POPC   GL113489   6.001  31.446   9.087
  714POPC   GL213490   5.660  31.329   8.999
  714POPC   C1A13491   5.973  31.760   8.767
  714POPC   D2A13492   5.929  31.890   8.342
  714POPC   C3A13493   5.926  31.538   8.050
  714POPC   C4A13494   6.245  31.574   7.732
  714POPC   C1B13495   5.566  31.471   8.609
  714POPC   C2B13496   5.475  31.275   8.231
  714POPC   C3B13497   5.496  31.347   7.826
  714POPC   C4B13498   5.850  31.330   7.562
  715POPC   NC313499  38.055   3.122   9.422
  715POPC   PO413500  38.376   2.522   9.621
  715POPC   GL113501  38.403   2.708   9.195
  715POPC   GL213502  38.078   2.699   9.131
  715POPC   C1A13503  38.393   3.057   8.845
  715POPC   D2A13504  38.576   2.848   8.474
  715POPC   C3A13505  38.462   2.845   8.064
  715POPC   C4A13506  38.670   2.741   7.680
  715POPC   C1B13507  38.186   2.627   8.728
  715POPC   C2B13508  38.062   2.830   8.387
  715POPC   C3B13509  38.045   2.565   8.025
  715POPC   C4B13510  38.278   2.422   7.696
  716POPC   NC313511  16.169  27.205   9.437
  716POPC   PO413512  16.729  26.969   9.433
  716POPC   GL113513  16.400  26.873   9.120
  716POPC   GL213514  16.351  27.167   8.969
  716POPC   C1A13515  16.144  26.799   8.709
  716POPC   D2A13516  15.832  26.867   8.350
  716POPC   C3A13517  15.939  26.673   7.930
  716POPC   C4A13518  15.862  26.469   7.513
  716POPC   C1B13519  16.151  27.333   8.618
  716POPC   C2B13520  16.000  27.347   8.219
  716POPC   C3B13521  15.752  27.152   7.919
  716POPC   C4B13522  15.802  26.976   7.531
  717POPC   NC313523  37.436  34.949   9.563
  717POPC   PO413524  36.909  34.613   9.668
  717POPC   GL113525  36.937  34.699   9.179
  717POPC   GL213526  37.242  34.872   9.083
  717POPC   C1A13527  36.756  34.581   8.728
  717POPC   D2A13528  36.570  34.795   8.344
  717POPC   C3A13529  36.637  34.639   7.899
  717POPC   C4A13530  36.413  34.634   7.478
  717POPC   C1B13531  37.237  34.730   8.641
  717POPC   C2B13532  37.059  34.741   8.227
  717POPC   C3B13533  37.190  34.636   7.804
  717POPC   C4B13534  37.354  34.396   7.408
  718POPC   NC313535  26.029  44.274   9.548
  718POPC   PO413536  26.090  44.906   9.423
  718POPC   GL113537  25.942  44.573   9.131
  718POPC   GL213538  26.199  44.348   9.075
  718POPC   C1A13539  25.964  44.531   8.664
  718POPC   D2A13540  25.753  44.842   8.403
  718POPC   C3A13541  25.787  44.901   7.953
  718POPC   C4A13542  25.988  44.696   7.549
  718POPC   C1B13543  26.370  44.761   8.854
  718POPC   C2B13544  26.278  44.915   8.435
  718POPC   C3B13545  26.246  44.741   8.042
  718POPC   C4B13546  26.450  44.897   7.702
  719POPC   NC313547  11.168  39.637   9.464
  719POPC   PO413548  11.648  40.190   9.405
  719POPC   GL113549  11.279  40.111   9.082
  719POPC   GL213550  11.317  39.848   8.993
  719POPC   C1A13551  11.295  40.175   8.620
  719POPC   D2A13552  11.471  40.060   8.246
  719POPC   C3A13553  11.233  40.227   7.884
  719POPC   C4A13554  11.220  40.133   7.433
  719POPC   C1B13555  11.362  39.635   8.608
  719POPC   C2B13556  11.386  39.548   8.173
  719POPC   C3B13557  11.331  39.744   7.773
  719POPC   C4B13558  11.433  39.635   7.339
  720POPC   NC313559  32.108  40.177   9.636
  720POPC   PO413560  32.689  39.960   9.623
  720POPC   GL113561  32.445  40.150   9.220
  720POPC   GL213562  32.088  40.316   9.139
  720POPC   C1A13563  32.320  40.044   8.782
  720POPC   D2A13564  32.477  40.198   8.404
  720POPC   C3A13565  32.364  39.987   8.035
  720POPC   C4A13566  32.432  40.092   7.621
  720POPC   C1B13567  31.856  40.291   8.734
  720POPC   C2B13568  31.952  40.175   8.280
  720POPC   C3B13569  31.945  40.145   7.817
  720POPC   C4B13570  32.009  39.737   7.726
  721POPC   NC313571  41.547  35.679   9.686
  721POPC   PO413572  41.620  34.996   9.650
  721POPC   GL113573  41.435  35.180   9.314
  721POPC   GL213574  41.714  35.383   9.289
  721POPC   C1A13575  41.359  35.041   8.891
  721POPC   D2A13576  41.349  35.256   8.467
  721POPC   C3A13577  41.535  35.180   8.097
  721POPC   C4A13578  41.409  35.364   7.689
  721POPC   C1B13579  41.661  35.450   8.837
  721POPC   C2B13580  41.675  35.672   8.429
  721POPC   C3B13581  41.650  35.679   8.022
  721POPC   C4B13582  41.910  35.380   7.817
  722POPC   NC313583  23.286  14.791   9.500
  722POPC   PO413584  23.904  14.863   9.604
  722POPC   GL113585  23.900  14.933   9.169
  722POPC   GL213586  23.581  14.905   9.106
  722POPC   C1A13587  23.811  15.220   8.787
  722POPC   D2A13588  23.579  15.226   8.378
  722POPC   C3A13589  23.728  15.573   8.116
  722POPC   C4A13590  23.849  15.515   7.685
  722POPC   C1B13591  23.685  14.709   8.722
  722POPC   C2B13592  23.630  14.610   8.297
  722POPC   C3B13593  23.597  14.855   7.949
  722POPC   C4B13594  23.568  15.092   7.585
  723POPC   NC313595   5.957  29.029   9.599
  723POPC   PO413596   5.957  29.670   9.466
  723POPC   GL113597   6.007  29.293   9.149
  723POPC   GL213598   5.796  28.962   9.120
  723POPC   C1A13599   5.847  29.260   8.704
  723POPC   D2A13600   5.923  29.421   8.277
  723POPC   C3A13601   5.683  29.374   7.926
  723POPC   C4A13602   5.698  29.088   7.604
  723POPC   C1B13603   6.049  28.777   8.766
  723POPC   C2B13604   6.199  28.991   8.406
  723POPC   C3B13605   6.057  28.993   7.994
  723POPC   C4B13606   6.028  28.698   7.689
  724POPC   NC313607  38.568  13.470   9.523
  724POPC   PO413608  38.020  13.657   9.452
  724POPC   GL113609  38.204  13.431   9.116
  724POPC   GL213610  38.566  13.493   9.025
  724POPC   C1A13611  38.182  13.398   8.666
  724POPC   D2A13612  38.472  13.582   8.389
  724POPC   C3A13613  38.558  13.554   7.939
  724POPC   C4A13614  38.467  13.422   7.517
  724POPC   C1B13615  38.362  13.863   8.852
  724POPC   C2B13616  38.220  14.032   8.464
  724POPC   C3B13617  38.441  14.036   8.080
  724POPC   C4B13618  38.281  13.923   7.681
  725POPC   NC313619   3.994  21.911   9.484
  725POPC   PO413620   4.536  22.261   9.551
  725POPC   GL113621   4.382  22.114   9.186
  725POPC   GL213622   4.063  22.304   9.169
  725POPC   C1A13623   4.520  21.955   8.795
  725POPC   D2A13624   4.322  21.884   8.403
  725POPC   C3A13625   4.551  21.945   8.031
  725POPC   C4A13626   4.251  21.862   7.695
  725POPC   C1B13627   4.012  22.082   8.790
  725POPC   C2B13628   4.036  22.333   8.407
  725POPC   C3B13629   4.165  22.287   8.005
  725POPC   C4B13630   3.946  22.380   7.626
  726POPC   NC313631  38.551  11.611   9.476
  726POPC   PO413632  38.729  12.330   9.420
  726POPC   GL113633  38.477  12.259   9.072
  726POPC   GL213634  38.381  11.959   9.120
  726POPC   C1A13635  38.550  12.128   8.666
  726POPC   D2A13636  38.588  12.294   8.285
  726POPC   C3A13637  38.704  12.007   8.015
  726POPC   C4A13638  38.474  12.001   7.588
  726POPC   C1B13639  38.133  11.867   8.783
  726POPC   C2B13640  38.303  11.781   8.361
  726POPC   C3B13641  38.366  11.664   7.936
  726POPC   C4B13642  38.064  11.735   7.585
  727POPC   NC313643  17.385  44.328   9.519
  727POPC   PO413644  17.149   0.007   9.473
  727POPC   GL113645  17.189  44.669   9.209
  727POPC   GL213646  17.574  44.670   9.183
  727POPC   C1A13647  17.235  44.532   8.797
  727POPC   D2A13648  17.490  44.811   8.554
  727POPC   C3A13649  17.469  44.887   8.106
  727POPC   C4A13650  17.463  44.826   7.664
  727POPC   C1B13651  17.754  44.465   8.822
  727POPC   C2B13652  17.927  44.583   8.424
  727POPC   C3B13653  17.854  44.527   7.999
  727POPC   C4B13654  17.979  44.743   7.661
  728POPC   NC313655   3.172  41.728   9.503
  728POPC   PO413656   2.655  41.307   9.587
  728POPC   GL113657   2.620  41.507   9.191
  728POPC   GL213658   2.926  41.570   9.086
  728POPC   C1A13659   2.548  41.363   8.781
  728POPC   D2A13660   2.440  41.590   8.433
  728POPC   C3A13661   2.739  41.613   8.146
  728POPC   C4A13662   2.937  41.580   7.772
  728POPC   C1B13663   2.877  41.744   8.671
  728POPC   C2B13664   3.168  41.828   8.366
  728POPC   C3B13665   3.433  41.834   8.032
  728POPC   C4B13666   3.261  41.924   7.641
  729POPC   NC313667   2.493  22.165   9.418
  729POPC   PO413668   1.902  21.935   9.546
  729POPC   GL113669   2.040  22.042   9.137
  729POPC   GL213670   2.109  22.384   9.147
  729POPC   C1A13671   1.904  22.172   8.698
  729POPC   D2A13672   1.858  22.545   8.374
  729POPC   C3A13673   1.709  22.387   7.972
  729POPC   C4A13674   1.721  21.914   7.937
  729POPC   C1B13675   2.283  22.505   8.738
  729POPC   C2B13676   2.351  22.372   8.304
  729POPC   C3B13677   2.196  22.146   7.960
  729POPC   C4B13678   2.168  22.506   7.747
  730POPC   NC313679  32.706   6.483   9.566
  730POPC   PO413680  33.207   6.872   9.369
  730POPC   GL113681  33.079   6.593   9.076
  730POPC   GL213682  33.370   6.728   8.911
  730POPC   C1A13683  33.186   6.292   8.734
  730POPC   D2A13684  33.055   6.459   8.332
  730POPC   C3A13685  32.773   6.329   7.963
  730POPC   C4A13686  32.719   6.555   7.548
  730POPC   C1B13687  33.047   6.959   8.693
  730POPC   C2B13688  32.856   6.971   8.290
  730POPC   C3B13689  33.052   6.788   7.954
  730POPC   C4B13690  33.266   6.404   7.854
  731POPC   NC313691  26.282   2.524   9.500
  731POPC   PO413692  25.703   2.919   9.551
  731POPC   GL113693  25.983   2.842   9.199
  731POPC   GL213694  25.995   2.491   9.090
  731POPC   C1A13695  25.951   2.836   8.726
  731POPC   D2A13696  26.150   2.905   8.322
  731POPC   C3A13697  26.060   3.039   7.907
  731POPC   C4A13698  26.173   2.854   7.522
  731POPC   C1B13699  26.238   2.423   8.693
  731POPC   C2B13700  26.150   2.392   8.270
  731POPC   C3B13701  25.965   2.553   7.918
  731POPC   C4B13702  25.815   2.482   7.498
  732POPC   NC313703  31.231  36.645   9.424
  732POPC   PO413704  31.573  37.280   9.349
  732POPC   GL113705  31.438  36.968   9.101
  732POPC   GL213706  31.770  36.916   8.980
  732POPC   C1A13707  31.165  36.805   8.759
  732POPC   D2A13708  31.223  36.926   8.333
  732POPC   C3A13709  31.101  36.723   7.955
  732POPC   C4A13710  31.313  36.474   7.657
  732POPC   C1B13711  31.534  37.213   8.680
  732POPC   C2B13712  31.528  37.372   8.266
  732POPC   C3B13713  31.526  37.044   7.935
  732POPC   C4B13714  31.768  36.753   7.712
  733POPC   NC313715  31.989   8.430   9.542
  733POPC   PO413716  31.475   8.864   9.479
  733POPC   GL113717  31.509   8.828   9.086
  733POPC   GL213718  31.521   8.468   9.115
  733POPC   C1A13719  31.562   9.088   8.716
  733POPC   D2A13720  31.381   9.299   8.387
  733POPC   C3A13721  31.340   9.122   7.995
  733POPC   C4A13722  31.524   9.200   7.619
  733POPC   C1B13723  31.529   8.568   8.665
  733POPC   C2B13724  31.645   8.802   8.272
  733POPC   C3B13725  31.641   8.578   7.873
  733POPC   C4B13726  31.472   8.663   7.464
  734POPC   NC313727  20.768  42.470   9.526
  734POPC   PO413728  20.611  43.086   9.565
  734POPC   GL113729  20.542  43.124   9.137
  734POPC   GL213730  20.319  42.879   9.088
  734POPC   C1A13731  20.676  43.036   8.711
  734POPC   D2A13732  20.703  43.213   8.291
  734POPC   C3A13733  20.869  42.979   7.917
  734POPC   C4A13734  21.084  43.026   7.488
  734POPC   C1B13735  20.170  42.999   8.678
  734POPC   C2B13736  20.331  42.870   8.282
  734POPC   C3B13737  20.369  42.914   7.842
  734POPC   C4B13738  20.274  42.780   7.428
  735POPC   NC313739  33.343  22.469   9.534
  735POPC   PO413740  33.003  21.856   9.448
  735POPC   GL113741  33.237  22.089   9.190
  735POPC   GL213742  32.977  22.339   9.164
  735POPC   C1A13743  33.387  22.276   8.816
  735POPC   D2A13744  33.185  22.391   8.434
  735POPC   C3A13745  33.220  22.110   8.074
  735POPC   C4A13746  33.066  22.290   7.706
  735POPC   C1B13747  32.892  22.105   8.777
  735POPC   C2B13748  32.750  22.089   8.319
  735POPC   C3B13749  32.776  21.899   7.901
  735POPC   C4B13750  32.675  21.790   7.449
  736POPC   NC313751   0.790  30.465   9.336
  736POPC   PO413752   0.435  31.005   9.605
  736POPC   GL113753   0.543  30.932   9.191
  736POPC   GL213754   0.295  31.036   9.007
  736POPC   C1A13755   0.684  30.848   8.750
  736POPC   D2A13756   0.624  30.434   8.518
  736POPC   C3A13757   0.596  30.463   8.042
  736POPC   C4A13758   0.652  30.787   7.710
  736POPC   C1B13759   0.193  30.778   8.641
  736POPC   C2B13760   0.386  30.882   8.266
  736POPC   C3B13761   0.183  30.805   7.903
  736POPC   C4B13762  44.829  30.634   7.793
  737POPC   NC313763   6.820  27.050   9.496
  737POPC   PO413764   6.637  26.343   9.495
  737POPC   GL113765   6.855  26.627   9.193
  737POPC   GL213766   6.674  26.939   9.040
  737POPC   C1A13767   7.047  26.704   8.793
  737POPC   D2A13768   6.752  26.764   8.460
  737POPC   C3A13769   6.837  26.798   8.009
  737POPC   C4A13770   6.575  26.572   7.686
  737POPC   C1B13771   6.523  27.213   8.689
  737POPC   C2B13772   6.565  27.199   8.209
  737POPC   C3B13773   6.397  27.029   7.842
  737POPC   C4B13774   6.465  26.945   7.364
  738POPC   NC313775  30.318  20.100   9.506
  738POPC   PO413776  30.971  20.011   9.677
  738POPC   GL113777  30.931  19.926   9.243
  738POPC   GL213778  30.618  19.769   9.179
  738POPC   C1A13779  31.076  19.768   8.837
  738POPC   D2A13780  30.868  19.666   8.442
  738POPC   C3A13781  30.965  19.893   8.066
  738POPC   C4A13782  30.860  19.617   7.740
  738POPC   C1B13783  30.606  20.010   8.821
  738POPC   C2B13784  30.453  19.972   8.388
  738POPC   C3B13785  30.472  19.904   7.949
  738POPC   C4B13786  30.607  20.134   7.612
  739POPC   NC313787   4.734   1.071   9.435
  739POPC   PO413788   5.276   1.585   9.390
  739POPC   GL113789   5.053   1.431   9.043
  739POPC   GL213790   4.991   1.050   8.995
  739POPC   C1A13791   5.312   1.309   8.673
  739POPC   D2A13792   5.189   0.997   8.347
  739POPC   C3A13793   5.361   1.038   7.937
  739POPC   C4A13794   5.393   1.437   7.670
  739POPC   C1B13795   4.805   1.250   8.623
  739POPC   C2B13796   4.726   1.237   8.203
  739POPC   C3B13797   4.861   1.039   7.824
  739POPC   C4B13798   4.745   0.885   7.350
  740POPC   NC313799   4.143  38.676  10.051
  740POPC   PO413800   4.379  38.128   9.786
  740POPC   GL113801   4.435  38.363   9.350
  740POPC   GL213802   4.194  38.332   9.075
  740POPC   C1A13803   4.651  38.365   8.898
  740POPC   D2A13804   4.419  38.398   8.484
  740POPC   C3A13805   4.585  38.499   8.074
  740POPC   C4A13806   4.678  38.216   7.751
  740POPC   C1B13807   3.951  38.357   8.693
  740POPC   C2B13808   3.954  38.432   8.241
  740POPC   C3B13809   4.135  38.499   7.829
  740POPC   C4B13810   4.099  38.736   7.403
  741POPC   NC313811   4.338  43.268   9.524
  741POPC   PO413812   4.588  42.633   9.391
  741POPC   GL113813   4.417  42.969   9.103
  741POPC   GL213814   4.545  43.339   9.076
  741POPC   C1A13815   4.094  43.182   8.860
  741POPC   D2A13816   3.991  43.299   8.437
  741POPC   C3A13817   3.938  42.975   8.146
  741POPC   C4A13818   3.914  43.092   7.725
  741POPC   C1B13819   4.766  43.343   8.697
  741POPC   C2B13820   4.491  43.166   8.397
  741POPC   C3B13821   4.334  43.282   8.016
  741POPC   C4B13822   4.736  43.380   7.843
  742POPC   NC313823  31.870   3.293   9.577
  742POPC   PO413824  31.414   2.646   9.443
  742POPC   GL113825  31.331   2.890   9.101
  742POPC   GL213826  30.957   2.900   9.122
  742POPC   C1A13827  31.507   2.772   8.712
  742POPC   D2A13828  31.401   2.382   8.482
  742POPC   C3A13829  31.529   2.468   8.071
  742POPC   C4A13830  31.665   2.875   8.007
  742POPC   C1B13831  30.999   2.713   8.722
  742POPC   C2B13832  31.216   2.808   8.308
  742POPC   C3B13833  31.156   2.761   7.878
  742POPC   C4B13834  31.155   3.061   7.542
  743POPC   NC313835   1.793  26.778   9.414
  743POPC   PO413836   2.439  26.593   9.560
  743POPC   GL113837   2.163  26.512   9.164
  743POPC   GL213838   2.059  26.858   9.004
  743POPC   C1A13839   2.038  26.446   8.714
  743POPC   D2A13840   2.010  26.780   8.392
  743POPC   C3A13841   2.159  26.674   7.997
  743POPC   C4A13842   1.984  26.525   7.650
  743POPC   C1B13843   1.877  27.184   8.731
  743POPC   C2B13844   1.760  27.233   8.292
  743POPC   C3B13845   2.028  27.189   7.919
  743POPC   C4B13846   1.993  27.302   7.459
  744POPC   NC313847  27.842  24.700   9.287
  744POPC   PO413848  28.237  24.243   9.674
  744POPC   GL113849  28.263  24.393   9.211
  744POPC   GL213850  28.354  24.757   9.201
  744POPC   C1A13851  28.186  24.557   8.741
  744POPC   D2A13852  28.274  24.749   8.305
  744POPC   C3A13853  28.475  24.458   8.014
  744POPC   C4A13854  28.410  24.119   7.728
  744POPC   C1B13855  28.637  24.804   8.833
  744POPC   C2B13856  28.786  24.818   8.395
  744POPC   C3B13857  28.696  24.919   7.962
  744POPC   C4B13858  28.365  24.853   7.657
  745POPC   NC313859  32.426  42.957   9.609
  745POPC   PO413860  32.224  42.294   9.565
  745POPC   GL113861  32.273  42.450   9.182
  745POPC   GL213862  32.546  42.666   9.180
  745POPC   C1A13863  32.424  42.236   8.808
  745POPC   D2A13864  32.220  42.227   8.438
  745POPC   C3A13865  32.416  41.999   8.128
  745POPC   C4A13866  32.244  42.036   7.742
  745POPC   C1B13867  32.396  42.732   8.740
  745POPC   C2B13868  32.294  42.761   8.298
  745POPC   C3B13869  32.112  42.482   7.990
  745POPC   C4B13870  31.977  42.420   7.551
  746POPC   NC313871  25.972  42.902  10.009
  746POPC   PO413872  26.443  43.191   9.616
  746POPC   GL113873  26.210  42.996   9.264
  746POPC   GL213874  26.094  43.231   9.073
  746POPC   C1A13875  26.243  42.845   8.794
  746POPC   D2A13876  26.254  42.595   8.385
  746POPC   C3A13877  26.151  42.804   7.993
  746POPC   C4A13878  26.165  43.168   7.716
  746POPC   C1B13879  25.941  43.555   8.865
  746POPC   C2B13880  26.037  43.487   8.477
  746POPC   C3B13881  25.989  43.448   8.083
  746POPC   C4B13882  25.716  43.421   7.716
  747POPC   NC313883  16.617  19.944   9.531
  747POPC   PO413884  17.217  20.143   9.290
  747POPC   GL113885  16.854  19.846   9.048
  747POPC   GL213886  16.492  19.760   9.063
  747POPC   C1A13887  16.773  19.669   8.653
  747POPC   D2A13888  16.591  19.770   8.266
  747POPC   C3A13889  16.842  19.745   7.884
  747POPC   C4A13890  16.811  20.047   7.555
  747POPC   C1B13891  16.244  19.664   8.670
  747POPC   C2B13892  16.159  19.484   8.246
  747POPC   C3B13893  16.348  19.581   7.854
  747POPC   C4B13894  16.408  19.752   7.441
  748POPC   NC313895  14.708  15.217   9.784
  748POPC   PO413896  14.146  15.326   9.506
  748POPC   GL113897  14.191  15.243   9.084
  748POPC   GL213898  14.491  15.398   9.009
  748POPC   C1A13899  13.963  15.122   8.719
  748POPC   D2A13900  13.875  14.957   8.343
  748POPC   C3A13901  14.166  14.787   8.103
  748POPC   C4A13902  14.072  15.013   7.785
  748POPC   C1B13903  14.325  15.463   8.588
  748POPC   C2B13904  14.238  15.294   8.188
  748POPC   C3B13905  14.333  15.457   7.776
  748POPC   C4B13906  14.757  15.377   7.642
  749POPC   NC313907  22.261  44.998   9.555
  749POPC   PO413908  21.896  44.416   9.761
  749POPC   GL113909  22.023  44.581   9.299
  749POPC   GL213910  21.924  44.914   9.175
  749POPC   C1A13911  22.290  44.688   8.900
  749POPC   D2A13912  22.542  44.494   8.578
  749POPC   C3A13913  22.389  44.597   8.175
  749POPC   C4A13914  22.492  44.716   7.771
  749POPC   C1B13915  21.992   0.060   8.767
  749POPC   C2B13916  21.943  44.907   8.329
  749POPC   C3B13917  22.057  44.950   7.879
  749POPC   C4B13918  22.054   0.200   7.445
  750POPC   NC313919  42.790  21.637  10.016
  750POPC   PO413920  43.310  21.415   9.587
  750POPC   GL113921  43.295  21.232   9.195
  750POPC   GL213922  43.006  21.427   9.120
  750POPC   C1A13923  43.304  21.260   8.729
  750POPC   D2A13924  43.235  21.457   8.304
  750POPC   C3A13925  43.209  21.157   7.934
  750POPC   C4A13926  42.841  21.048   7.706
  750POPC   C1B13927  42.915  21.649   8.745
  750POPC   C2B13928  42.714  21.624   8.346
  750POPC   C3B13929  42.831  21.511   7.948
  750POPC   C4B13930  43.216  21.645   7.779
  751POPC   NC313931   1.931  19.235   9.395
  751POPC   PO413932   2.197  18.671   9.338
  751POPC   GL113933   2.199  18.980   9.035
  751POPC   GL213934   2.371  19.308   9.111
  751POPC   C1A13935   1.832  19.064   8.776
  751POPC   D2A13936   1.749  18.904   8.397
  751POPC   C3A13937   1.862  19.186   8.067
  751POPC   C4A13938   1.745  19.111   7.647
  751POPC   C1B13939   2.264  19.327   8.662
  751POPC   C2B13940   2.434  19.249   8.259
  751POPC   C3B13941   2.341  19.367   7.831
  751POPC   C4B13942   2.228  19.142   7.464
  752POPC   NC313943   8.760  41.226   9.489
  752POPC   PO413944   9.110  41.802   9.574
  752POPC   GL113945   8.932  41.614   9.214
  752POPC   GL213946   9.180  41.306   9.209
  752POPC   C1A13947   8.742  41.591   8.821
  752POPC   D2A13948   8.840  41.334   8.477
  752POPC   C3A13949   8.736  41.341   8.051
  752POPC   C4A13950   8.796  41.677   7.751
  752POPC   C1B13951   9.245  41.450   8.814
  752POPC   C2B13952   9.383  41.431   8.444
  752POPC   C3B13953   9.224  41.465   8.069
  752POPC   C4B13954   9.310  41.625   7.688
  753POPC   NC313955  31.789  14.764   9.482
  753POPC   PO413956  31.227  14.350   9.542
  753POPC   GL113957  31.500  14.357   9.164
  753POPC   GL213958  31.830  14.469   9.091
  753POPC   C1A13959  31.460  14.647   8.788
  753POPC   D2A13960  31.262  14.785   8.377
  753POPC   C3A13961  31.226  14.464   8.048
  753POPC   C4A13962  31.373  14.372   7.654
  753POPC   C1B13963  31.942  14.447   8.702
  753POPC   C2B13964  31.656  14.400   8.374
  753POPC   C3B13965  31.740  14.520   7.995
  753POPC   C4B13966  31.899  14.342   7.669
  754POPC   NC313967   7.838  29.038   9.570
  754POPC   PO413968   7.136  28.814   9.489
  754POPC   GL113969   7.305  29.015   9.127
  754POPC   GL213970   7.549  29.231   9.193
  754POPC   C1A13971   7.292  29.238   8.737
  754POPC   D2A13972   7.460  29.108   8.347
  754POPC   C3A13973   7.520  29.456   8.058
  754POPC   C4A13974   7.309  29.441   7.686
  754POPC   C1B13975   7.766  29.025   8.818
  754POPC   C2B13976   7.911  28.870   8.380
  754POPC   C3B13977   7.738  28.817   7.962
  754POPC   C4B13978   7.749  28.674   7.503
  755POPC   NC313979  22.716  10.176   9.651
  755POPC   PO413980  23.101  10.728   9.495
  755POPC   GL113981  22.821  10.652   9.160
  755POPC   GL213982  22.606  10.326   9.190
  755POPC   C1A13983  22.963  10.718   8.741
  755POPC   D2A13984  23.239  10.597   8.405
  755POPC   C3A13985  23.026  10.643   8.024
  755POPC   C4A13986  23.289  10.718   7.704
  755POPC   C1B13987  22.937  10.236   8.918
  755POPC   C2B13988  22.845  10.279   8.490
  755POPC   C3B13989  22.920  10.150   8.112
  755POPC   C4B13990  23.131  10.169   7.763
  756POPC   NC313991  35.657   6.781   9.395
  756POPC   PO413992  34.985   6.489   9.297
  756POPC   GL113993  35.280   6.673   9.092
  756POPC   GL213994  35.529   6.363   9.117
  756POPC   C1A13995  35.262   6.946   8.758
  756POPC   D2A13996  35.291   6.785   8.349
  756POPC   C3A13997  35.107   6.864   7.980
  756POPC   C4A13998  35.414   6.898   7.680
  756POPC   C1B13999  35.398   6.399   8.687
  756POPC   C2B14000  35.342   6.282   8.268
  756POPC   C3B14001  35.529   6.430   7.878
  756POPC   C4B14002  35.419   6.418   7.434
  757POPC   NC314003   3.640  26.702   9.643
  757POPC   PO414004   3.739  27.348   9.721
  757POPC   GL114005   3.615  27.093   9.265
  757POPC   GL214006   3.471  26.730   9.171
  757POPC   C1A14007   3.499  27.038   8.787
  757POPC   D2A14008   3.449  27.246   8.373
  757POPC   C3A14009   3.505  26.971   8.024
  757POPC   C4A14010   3.828  26.895   7.736
  757POPC   C1B14011   3.258  26.481   8.860
  757POPC   C2B14012   3.317  26.316   8.443
  757POPC   C3B14013   3.259  26.488   8.000
  757POPC   C4B14014   3.396  26.644   7.614
  758POPC   NC314015  29.689  35.598   9.503
  758POPC   PO414016  29.883  35.010   9.284
  758POPC   GL114017  29.772  35.229   8.989
  758POPC   GL214018  29.893  35.551   9.052
  758POPC   C1A14019  29.981  35.266   8.621
  758POPC   D2A14020  30.322  35.196   8.426
  758POPC   C3A14021  30.159  35.241   8.063
  758POPC   C4A14022  29.867  35.172   7.769
  758POPC   C1B14023  30.059  35.760   8.742
  758POPC   C2B14024  30.204  35.695   8.367
  758POPC   C3B14025  30.068  35.786   7.986
  758POPC   C4B14026  29.707  35.687   7.762
  759POPC   NC314027  35.940  20.434   9.953
  759POPC   PO414028  36.055  19.851   9.591
  759POPC   GL114029  35.935  19.873   9.177
  759POPC   GL214030  36.229  19.679   9.077
  759POPC   C1A14031  36.052  20.072   8.787
  759POPC   D2A14032  36.188  19.950   8.382
  759POPC   C3A14033  35.975  19.870   7.978
  759POPC   C4A14034  36.387  19.994   7.773
  759POPC   C1B14035  35.911  19.558   8.759
  759POPC   C2B14036  36.037  19.451   8.349
  759POPC   C3B14037  36.372  19.577   8.071
  759POPC   C4B14038  36.276  19.493   7.678
  760POPC   NC314039  25.730  23.330   9.591
  760POPC   PO414040  26.316  22.884   9.519
  760POPC   GL114041  26.263  22.998   9.121
  760POPC   GL214042  25.918  23.010   9.203
  760POPC   C1A14043  26.185  22.831   8.729
  760POPC   D2A14044  25.880  22.837   8.413
  760POPC   C3A14045  26.029  22.857   7.989
  760POPC   C4A14046  26.065  23.036   7.567
  760POPC   C1B14047  25.734  23.126   8.859
  760POPC   C2B14048  25.673  23.288   8.499
  760POPC   C3B14049  25.650  23.209   8.103
  760POPC   C4B14050  25.655  23.272   7.714
  761POPC   NC314051   1.387  21.618   9.821
  761POPC   PO414052   1.039  21.350   9.319
  761POPC   GL114053   1.218  21.091   9.001
  761POPC   GL214054   0.960  20.845   8.868
  761POPC   C1A14055   1.423  21.243   8.597
  761POPC   D2A14056   1.511  21.614   8.320
  761POPC   C3A14057   1.267  21.663   7.929
  761POPC   C4A14058   1.264  21.341   7.618
  761POPC   C1B14059   0.898  21.230   8.636
  761POPC   C2B14060   1.055  21.294   8.215
  761POPC   C3B14061   0.912  21.058   7.832
  761POPC   C4B14062   0.840  21.223   7.363
  762POPC   NC314063  34.337  13.097   9.819
  762POPC   PO414064  34.755  12.643   9.569
  762POPC   GL114065  34.742  12.622   9.172
  762POPC   GL214066  34.861  12.921   9.027
  762POPC   C1A14067  34.424  12.582   8.875
  762POPC   D2A14068  34.425  12.840   8.538
  762POPC   C3A14069  34.386  12.799   8.078
  762POPC   C4A14070  34.411  13.120   7.792
  762POPC   C1B14071  35.107  13.025   8.698
  762POPC   C2B14072  34.867  13.020   8.331
  762POPC   C3B14073  34.927  13.174   7.942
  762POPC   C4B14074  34.847  13.364   7.536
  763POPC   NC314075  13.971  33.741   9.276
  763POPC   PO414076  13.431  33.512   9.542
  763POPC   GL114077  13.469  33.606   9.121
  763POPC   GL214078  13.514  33.935   9.083
  763POPC   C1A14079  13.587  33.636   8.677
  763POPC   D2A14080  13.538  33.884   8.305
  763POPC   C3A14081  13.762  33.815   7.893
  763POPC   C4A14082  14.063  33.480   7.751
  763POPC   C1B14083  13.291  34.091   8.745
  763POPC   C2B14084  13.114  34.282   8.373
  763POPC   C3B14085  13.256  34.146   8.002
  763POPC   C4B14086  13.463  34.156   7.606
  764POPC   NC314087  10.617  32.548   9.600
  764POPC   PO414088  10.271  33.185   9.567
  764POPC   GL114089  10.402  33.161   9.153
  764POPC   GL214090  10.550  32.873   9.204
  764POPC   C1A14091  10.542  33.053   8.732
  764POPC   D2A14092  10.649  33.270   8.387
  764POPC   C3A14093  10.743  33.096   8.014
  764POPC   C4A14094  10.439  33.156   7.720
  764POPC   C1B14095  10.162  32.779   8.923
  764POPC   C2B14096  10.274  32.644   8.530
  764POPC   C3B14097  10.332  32.792   8.129
  764POPC   C4B14098  10.526  32.664   7.766
  765POPC   NC314099  32.334  16.382   9.778
  765POPC   PO414100  32.048  16.897   9.717
  765POPC   GL114101  32.302  16.638   9.321
  765POPC   GL214102  32.403  16.302   9.223
  765POPC   C1A14103  32.300  16.655   8.824
  765POPC   D2A14104  32.000  16.561   8.437
  765POPC   C3A14105  32.173  16.580   7.991
  765POPC   C4A14106  32.559  16.803   7.843
  765POPC   C1B14107  32.205  16.159   8.796
  765POPC   C2B14108  32.369  16.194   8.382
  765POPC   C3B14109  32.688  16.424   8.184
  765POPC   C4B14110  32.813  16.364   7.772
  766POPC   NC314111  44.540   3.618   9.388
  766POPC   PO414112  44.479   2.983   9.573
  766POPC   GL114113  44.754   3.230   9.171
  766POPC   GL214114  44.492   3.364   8.941
  766POPC   C1A14115  44.919   3.519   8.766
  766POPC   D2A14116  44.749   3.729   8.354
  766POPC   C3A14117  44.653   3.546   7.952
  766POPC   C4A14118  44.969   3.638   7.612
  766POPC   C1B14119  44.438   3.752   8.741
  766POPC   C2B14120  44.234   3.932   8.395
  766POPC   C3B14121  44.317   4.082   7.987
  766POPC   C4B14122  44.601   3.991   7.650
  767POPC   NC314123  33.415   3.101   9.367
  767POPC   PO414124  33.002   2.536   9.453
  767POPC   GL114125  32.936   2.910   9.195
  767POPC   GL214126  33.218   2.733   9.040
  767POPC   C1A14127  32.980   3.011   8.738
  767POPC   D2A14128  33.347   2.799   8.508
  767POPC   C3A14129  33.300   2.962   8.104
  767POPC   C4A14130  32.866   2.918   7.909
  767POPC   C1B14131  33.004   2.449   8.767
  767POPC   C2B14132  33.225   2.243   8.452
  767POPC   C3B14133  33.119   2.461   8.103
  767POPC   C4B14134  33.243   2.630   7.727
  768POPC   NC314135  39.554  39.127   9.368
  768POPC   PO414136  40.047  39.092   9.827
  768POPC   GL114137  40.098  39.269   9.362
  768POPC   GL214138  40.266  39.031   9.142
  768POPC   C1A14139  40.017  39.387   8.866
  768POPC   D2A14140  39.869  39.311   8.385
  768POPC   C3A14141  40.028  39.280   7.929
  768POPC   C4A14142  39.882  39.141   7.525
  768POPC   C1B14143  40.181  38.940   8.680
  768POPC   C2B14144  40.252  38.930   8.222
  768POPC   C3B14145  40.213  38.835   7.756
  768POPC   C4B14146  40.229  38.811   7.288
  769POPC   NC314147  35.551  16.125   9.569
  769POPC   PO414148  34.873  15.923   9.641
  769POPC   GL114149  35.062  15.902   9.214
  769POPC   GL214150  35.416  16.015   9.113
  769POPC   C1A14151  35.019  16.069   8.807
  769POPC   D2A14152  35.313  16.050   8.479
  769POPC   C3A14153  35.234  15.890   8.107
  769POPC   C4A14154  35.074  15.900   7.744
  769POPC   C1B14155  35.729  15.871   8.819
  769POPC   C2B14156  35.639  15.668   8.407
  769POPC   C3B14157  35.772  15.817   8.024
  769POPC   C4B14158  35.562  16.032   7.711
  770POPC   NC314159  13.449  10.106   9.426
  770POPC   PO414160  13.910  10.683   9.484
  770POPC   GL114161  13.652  10.502   9.183
  770POPC   GL214162  13.878  10.225   9.127
  770POPC   C1A14163  13.370  10.507   8.801
  770POPC   D2A14164  13.316  10.300   8.406
  770POPC   C3A14165  13.241  10.292   7.971
  770POPC   C4A14166  13.294  10.514   7.613
  770POPC   C1B14167  13.888  10.497   8.753
  770POPC   C2B14168  13.676  10.743   8.435
  770POPC   C3B14169  13.534  10.710   8.031
  770POPC   C4B14170  13.794  10.587   7.713
  771POPC   NC314171   6.362   9.994   9.414
  771POPC   PO414172   5.691   9.721   9.477
  771POPC   GL114173   5.928   9.889   9.175
  771POPC   GL214174   6.154   9.603   9.151
  771POPC   C1A14175   5.856   9.979   8.764
  771POPC   D2A14176   5.623   9.756   8.465
  771POPC   C3A14177   5.645   9.842   8.082
  771POPC   C4A14178   5.902  10.127   7.869
  771POPC   C1B14179   5.869   9.463   8.829
  771POPC   C2B14180   5.966   9.396   8.397
  771POPC   C3B14181   6.131   9.733   8.129
  771POPC   C4B14182   6.043   9.662   7.691
  772POPC   NC314183   7.112   4.098   9.456
  772POPC   PO414184   7.733   4.474   9.459
  772POPC   GL114185   7.528   4.297   9.133
  772POPC   GL214186   7.724   4.020   9.006
  772POPC   C1A14187   7.493   4.400   8.718
  772POPC   D2A14188   7.606   4.506   8.317
  772POPC   C3A14189   7.423   4.369   7.968
  772POPC   C4A14190   7.247   4.636   7.688
  772POPC   C1B14191   7.288   3.947   8.804
  772POPC   C2B14192   7.120   4.153   8.407
  772POPC   C3B14193   7.083   4.002   7.976
  772POPC   C4B14194   7.220   4.154   7.537
  773POPC   NC314195  43.164  17.489   9.815
  773POPC   PO414196  43.276  16.759   9.668
  773POPC   GL114197  43.096  16.777   9.244
  773POPC   GL214198  43.319  16.978   9.043
  773POPC   C1A14199  42.950  16.734   8.822
  773POPC   D2A14200  43.213  16.702   8.467
  773POPC   C3A14201  43.031  16.810   8.076
  773POPC   C4A14202  42.933  16.730   7.642
  773POPC   C1B14203  43.479  16.588   8.910
  773POPC   C2B14204  43.692  16.525   8.490
  773POPC   C3B14205  43.502  16.501   8.082
  773POPC   C4B14206  43.422  16.527   7.648
  774POPC   NC314207   0.534  25.162   9.508
  774POPC   PO414208  44.904  25.088   9.409
  774POPC   GL114209   0.218  25.339   9.128
  774POPC   GL214210   0.583  25.482   9.127
  774POPC   C1A14211   0.374  25.285   8.716
  774POPC   D2A14212   0.126  25.120   8.422
  774POPC   C3A14213   0.233  25.273   8.043
  774POPC   C4A14214   0.426  25.085   7.677
  774POPC   C1B14215   0.865  25.499   8.735
  774POPC   C2B14216   0.904  25.334   8.296
  774POPC   C3B14217   0.685  25.469   7.896
  774POPC   C4B14218   0.678  25.480   7.440
  775POPC   NC314219  23.799  12.458   9.428
  775POPC   PO414220  23.685  11.817   9.472
  775POPC   GL114221  23.683  12.038   9.055
  775POPC   GL214222  23.980  12.280   8.993
  775POPC   C1A14223  23.908  11.927   8.637
  775POPC   D2A14224  24.039  11.922   8.196
  775POPC   C3A14225  23.691  11.819   7.934
  775POPC   C4A14226  23.621  11.520   7.624
  775POPC   C1B14227  23.679  12.369   8.652
  775POPC   C2B14228  23.692  12.292   8.208
  775POPC   C3B14229  23.673  12.294   7.759
  775POPC   C4B14230  23.449  12.346   7.373
  776POPC   NC314231  41.279  27.716   9.419
  776POPC   PO414232  41.612  27.191   9.766
  776POPC   GL114233  41.731  27.519   9.297
  776POPC   GL214234  41.933  27.781   9.155
  776POPC   C1A14235  41.613  27.618   8.804
  776POPC   D2A14236  41.788  27.365   8.459
  776POPC   C3A14237  41.580  27.469   8.057
  776POPC   C4A14238  41.339  27.682   7.777
  776POPC   C1B14239  42.094  27.713   8.726
  776POPC   C2B14240  41.921  27.864   8.333
  776POPC   C3B14241  41.744  27.993   7.940
  776POPC   C4B14242  41.776  27.760   7.533
  777POPC   NC314243  21.506  44.107   9.871
  777POPC   PO414244  22.078  43.828   9.578
  777POPC   GL114245  22.177  43.955   9.184
  777POPC   GL214246  22.386  44.243   9.132
  777POPC   C1A14247  22.275  43.760   8.795
  777POPC   D2A14248  22.150  43.888   8.389
  777POPC   C3A14249  22.362  43.793   7.980
  777POPC   C4A14250  21.987  43.761   7.775
  777POPC   C1B14251  22.100  44.243   8.781
  777POPC   C2B14252  21.940  44.396   8.414
  777POPC   C3B14253  22.068  44.238   8.030
  777POPC   C4B14254  22.172  44.244   7.638
  778POPC   NC314255  24.351  43.817   9.438
  778POPC   PO414256  24.875  44.177   9.479
  778POPC   GL114257  24.693  44.007   9.116
  778POPC   GL214258  24.381  44.243   9.154
  778POPC   C1A14259  24.780  43.829   8.690
  778POPC   D2A14260  24.921  43.852   8.249
  778POPC   C3A14261  24.622  43.903   7.934
  778POPC   C4A14262  24.420  43.610   7.701
  778POPC   C1B14263  24.270  44.013   8.800
  778POPC   C2B14264  24.392  43.996   8.385
  778POPC   C3B14265  24.128  43.958   8.021
  778POPC   C4B14266  24.175  44.276   7.757
  779POPC   NC314267  28.941  22.286   9.400
  779POPC   PO414268  29.426  21.970   9.417
  779POPC   GL114269  29.164  21.953   9.070
  779POPC   GL214270  28.807  21.860   9.154
  779POPC   C1A14271  29.210  22.181   8.717
  779POPC   D2A14272  29.243  22.328   8.329
  779POPC   C3A14273  29.336  22.023   8.010
  779POPC   C4A14274  29.246  22.270   7.643
  779POPC   C1B14275  28.710  22.084   8.804
  779POPC   C2B14276  28.802  22.073   8.386
  779POPC   C3B14277  28.847  22.131   7.961
  779POPC   C4B14278  28.873  21.962   7.549
  780POPC   NC314279  41.433  21.930   9.487
  780POPC   PO414280  41.441  22.575   9.323
  780POPC   GL114281  41.538  22.211   9.077
  780POPC   GL214282  41.203  22.113   8.939
  780POPC   C1A14283  41.761  22.099   8.707
  780POPC   D2A14284  41.756  21.979   8.294
  780POPC   C3A14285  41.915  22.281   7.991
  780POPC   C4A14286  41.731  22.187   7.593
  780POPC   C1B14287  41.381  22.458   8.664
  780POPC   C2B14288  41.523  22.473   8.273
  780POPC   C3B14289  41.398  22.177   7.991
  780POPC   C4B14290  41.208  22.359   7.699
  781POPC   NC314291  26.686  23.131   9.376
  781POPC   PO414292  27.231  22.749   9.372
  781POPC   GL114293  26.947  22.843   9.062
  781POPC   GL214294  27.196  22.712   8.863
  781POPC   C1A14295  26.726  22.988   8.669
  781POPC   D2A14296  26.448  22.905   8.299
  781POPC   C3A14297  26.488  23.072   7.871
  781POPC   C4A14298  26.546  22.957   7.450
  781POPC   C1B14299  27.152  22.683   8.449
  781POPC   C2B14300  26.975  22.940   8.137
  781POPC   C3B14301  26.979  22.936   7.696
  781POPC   C4B14302  27.092  22.775   7.247
  782POPC   NC314303  41.313  15.902   9.727
  782POPC   PO414304  41.757  15.447   9.629
  782POPC   GL114305  41.643  15.675   9.231
  782POPC   GL214306  41.831  15.999   9.166
  782POPC   C1A14307  41.675  15.689   8.759
  782POPC   D2A14308  41.736  15.592   8.298
  782POPC   C3A14309  41.593  15.945   8.001
  782POPC   C4A14310  41.602  15.889   7.565
  782POPC   C1B14311  41.409  16.116   8.946
  782POPC   C2B14312  41.193  16.227   8.531
  782POPC   C3B14313  41.299  16.378   8.104
  782POPC   C4B14314  41.360  16.336   7.655
  783POPC   NC314315  21.735   3.928   9.355
  783POPC   PO414316  22.120   3.344   9.379
  783POPC   GL114317  22.166   3.424   9.001
  783POPC   GL214318  22.051   3.776   8.987
  783POPC   C1A14319  22.064   3.451   8.591
  783POPC   D2A14320  21.887   3.805   8.409
  783POPC   C3A14321  21.999   3.660   8.018
  783POPC   C4A14322  22.150   3.233   7.985
  783POPC   C1B14323  22.312   3.987   8.680
  783POPC   C2B14324  22.330   3.985   8.225
  783POPC   C3B14325  22.338   3.984   7.786
  783POPC   C4B14326  22.387   4.010   7.358
  784POPC   NC314327  20.019  27.733   9.429
  784POPC   PO414328  19.570  27.264   9.500
  784POPC   GL114329  19.756  27.340   9.124
  784POPC   GL214330  19.702  27.656   9.011
  784POPC   C1A14331  19.787  27.218   8.690
  784POPC   D2A14332  19.790  27.350   8.271
  784POPC   C3A14333  19.775  27.103   7.923
  784POPC   C4A14334  19.728  27.424   7.634
  784POPC   C1B14335  20.003  27.674   8.646
  784POPC   C2B14336  20.032  27.804   8.224
  784POPC   C3B14337  19.694  27.815   7.965
  784POPC   C4B14338  19.481  27.896   7.606
  785POPC   NC314339  10.365  22.441   9.714
  785POPC   PO414340  10.816  22.234   9.301
  785POPC   GL114341  10.366  22.226   9.183
  785POPC   GL214342  10.100  22.442   9.284
  785POPC   C1A14343  10.323  22.087   8.763
  785POPC   D2A14344  10.658  22.254   8.512
  785POPC   C3A14345  10.796  22.039   8.157
  785POPC   C4A14346  10.729  22.297   7.800
  785POPC   C1B14347   9.966  22.424   8.857
  785POPC   C2B14348   9.966  22.232   8.409
  785POPC   C3B14349  10.289  22.181   8.110
  785POPC   C4B14350  10.235  22.313   7.698
  786POPC   NC314351  44.423  23.979   9.497
  786POPC   PO414352  44.848  23.394   9.557
  786POPC   GL114353  44.624  23.555   9.227
  786POPC   GL214354  44.909  23.705   9.089
  786POPC   C1A14355  44.428  23.712   8.827
  786POPC   D2A14356  44.456  23.980   8.457
  786POPC   C3A14357  44.469  23.951   8.001
  786POPC   C4A14358  44.674  23.639   7.728
  786POPC   C1B14359  44.853  24.046   8.788
  786POPC   C2B14360  44.927  24.184   8.359
  786POPC   C3B14361  44.975  23.995   7.955
  786POPC   C4B14362   0.029  23.944   7.484
  787POPC   NC314363  21.359   6.871   9.794
  787POPC   PO414364  21.628   7.527   9.569
  787POPC   GL114365  21.462   7.483   9.172
  787POPC   GL214366  21.430   7.821   9.135
  787POPC   C1A14367  21.324   7.409   8.743
  787POPC   D2A14368  21.522   7.257   8.366
  787POPC   C3A14369  21.281   7.283   7.974
  787POPC   C4A14370  21.445   7.150   7.585
  787POPC   C1B14371  21.324   7.935   8.719
  787POPC   C2B14372  21.287   7.730   8.340
  787POPC   C3B14373  21.483   7.759   7.951
  787POPC   C4B14374  21.368   7.650   7.537
  788POPC   NC314375  39.396   4.079   9.549
  788POPC   PO414376  39.051   4.757   9.505
  788POPC   GL114377  39.269   4.475   9.244
  788POPC   GL214378  39.521   4.663   9.129
  788POPC   C1A14379  39.235   4.134   8.931
  788POPC   D2A14380  39.314   3.993   8.510
  788POPC   C3A14381  39.025   4.101   8.166
  788POPC   C4A14382  38.886   4.167   7.731
  788POPC   C1B14383  39.356   4.605   8.699
  788POPC   C2B14384  39.420   4.447   8.277
  788POPC   C3B14385  39.341   4.388   7.834
  788POPC   C4B14386  39.173   4.486   7.391
  789POPC   NC314387  27.413  15.144   9.728
  789POPC   PO414388  28.037  15.350   9.563
  789POPC   GL114389  27.771  15.262   9.160
  789POPC   GL214390  27.446  15.037   9.167
  789POPC   C1A14391  27.652  15.232   8.693
  789POPC   D2A14392  27.836  15.316   8.277
  789POPC   C3A14393  27.628  15.222   7.896
  789POPC   C4A14394  27.442  15.458   7.551
  789POPC   C1B14395  27.384  14.801   8.761
  789POPC   C2B14396  27.453  14.642   8.350
  789POPC   C3B14397  27.344  14.780   7.929
  789POPC   C4B14398  27.402  14.949   7.505
  790POPC   NC314399  28.568  16.923   9.440
  790POPC   PO414400  27.987  16.759   9.739
  790POPC   GL114401  28.145  16.741   9.244
  790POPC   GL214402  28.461  16.544   9.141
  790POPC   C1A14403  28.282  16.881   8.794
  790POPC   D2A14404  28.206  16.686   8.380
  790POPC   C3A14405  28.276  16.900   7.976
  790POPC   C4A14406  28.644  17.034   7.743
  790POPC   C1B14407  28.409  16.384   8.758
  790POPC   C2B14408  28.675  16.380   8.432
  790POPC   C3B14409  28.639  16.548   8.056
  790POPC   C4B14410  28.543  16.497   7.651
  791POPC   NC314411  35.239  17.805   9.395
  791POPC   PO414412  35.036  18.463   9.460
  791POPC   GL114413  35.150  18.453   9.053
  791POPC   GL214414  35.232  18.811   9.036
  791POPC   C1A14415  35.332  18.194   8.685
  791POPC   D2A14416  35.416  17.978   8.277
  791POPC   C3A14417  35.272  18.173   7.900
  791POPC   C4A14418  35.403  18.133   7.484
  791POPC   C1B14419  35.235  18.702   8.626
  791POPC   C2B14420  35.132  18.490   8.273
  791POPC   C3B14421  35.363  18.680   7.910
  791POPC   C4B14422  35.522  18.621   7.458
  792POPC   NC314423  27.860  37.518   9.424
  792POPC   PO414424  27.240  37.119   9.347
  792POPC   GL114425  27.347  37.428   9.037
  792POPC   GL214426  27.270  37.787   9.078
  792POPC   C1A14427  27.431  37.552   8.607
  792POPC   D2A14428  27.464  37.703   8.183
  792POPC   C3A14429  27.369  37.418   7.841
  792POPC   C4A14430  27.224  37.377   7.396
  792POPC   C1B14431  27.710  37.875   8.871
  792POPC   C2B14432  27.838  38.005   8.423
  792POPC   C3B14433  27.841  37.968   7.956
  792POPC   C4B14434  27.615  37.786   7.620
  793POPC   NC314435  43.028   6.989   9.829
  793POPC   PO414436  43.259   6.565   9.477
  793POPC   GL114437  43.109   6.891   9.198
  793POPC   GL214438  42.912   6.619   9.096
  793POPC   C1A14439  42.885   6.988   8.786
  793POPC   D2A14440  42.875   6.737   8.420
  793POPC   C3A14441  42.906   6.908   8.002
  793POPC   C4A14442  43.056   6.699   7.624
  793POPC   C1B14443  42.913   6.347   8.783
  793POPC   C2B14444  42.952   6.232   8.402
  793POPC   C3B14445  43.098   6.383   8.038
  793POPC   C4B14446  42.890   6.226   7.666
  794POPC   NC314447  43.438  32.690   9.414
  794POPC   PO414448  43.003  33.159   9.598
  794POPC   GL114449  43.045  33.199   9.180
  794POPC   GL214450  42.974  33.516   9.149
  794POPC   C1A14451  43.234  33.043   8.794
  794POPC   D2A14452  43.413  32.842   8.419
  794POPC   C3A14453  43.148  32.851   8.083
  794POPC   C4A14454  43.185  32.947   7.651
  794POPC   C1B14455  42.853  33.417   8.751
  794POPC   C2B14456  42.987  33.272   8.343
  794POPC   C3B14457  42.964  33.318   7.913
  794POPC   C4B14458  42.864  33.310   7.472
  795POPC   NC314459  26.385   0.207   9.601
  795POPC   PO414460  25.793   0.579   9.470
  795POPC   GL114461  26.059   0.380   9.172
  795POPC   GL214462  26.138   0.656   9.001
  795POPC   C1A14463  25.981   0.186   8.746
  795POPC   D2A14464  25.878   0.312   8.289
  795POPC   C3A14465  26.175   0.246   7.963
  795POPC   C4A14466  26.346   0.380   7.575
  795POPC   C1B14467  26.062   0.687   8.574
  795POPC   C2B14468  25.624   0.753   8.384
  795POPC   C3B14469  25.551   0.657   7.992
  795POPC   C4B14470  25.900   0.614   7.735
  796POPC   NC314471  42.048  35.002   9.475
  796POPC   PO414472  42.398  35.576   9.488
  796POPC   GL114473  42.398  35.512   9.090
  796POPC   GL214474  42.148  35.305   9.046
  796POPC   C1A14475  42.582  35.353   8.754
  796POPC   D2A14476  42.518  35.495   8.349
  796POPC   C3A14477  42.550  35.333   7.975
  796POPC   C4A14478  42.654  35.609   7.657
  796POPC   C1B14479  42.122  35.540   8.663
  796POPC   C2B14480  42.009  35.295   8.319
  796POPC   C3B14481  42.156  35.003   8.022
  796POPC   C4B14482  42.290  35.125   7.595
  797POPC   NC314483  19.761  17.598   9.682
  797POPC   PO414484  19.178  17.431   9.531
  797POPC   GL114485  19.434  17.393   9.124
  797POPC   GL214486  19.742  17.601   9.062
  797POPC   C1A14487  19.565  17.364   8.645
  797POPC   D2A14488  19.611  17.575   8.223
  797POPC   C3A14489  19.894  17.417   7.902
  797POPC   C4A14490  19.848  17.460   7.459
  797POPC   C1B14491  19.944  17.712   8.618
  797POPC   C2B14492  20.042  17.856   8.160
  797POPC   C3B14493  19.852  17.901   7.742
  797POPC   C4B14494  19.862  17.959   7.287
  798POPC   NC314495  10.770  30.353   9.533
  798POPC   PO414496  10.185  30.730   9.608
  798POPC   GL114497  10.416  30.645   9.222
  798POPC   GL214498  10.722  30.838   9.116
  798POPC   C1A14499  10.288  30.623   8.800
  798POPC   D2A14500  10.105  30.589   8.396
  798POPC   C3A14501  10.292  30.823   8.052
  798POPC   C4A14502  10.405  30.672   7.637
  798POPC   C1B14503  10.815  30.709   8.690
  798POPC   C2B14504  10.615  30.534   8.379
  798POPC   C3B14505  10.703  30.494   8.006
  798POPC   C4B14506  10.899  30.535   7.652
  799POPC   NC314507  19.646  35.260   9.417
  799POPC   PO414508  20.213  35.698   9.405
  799POPC   GL114509  19.885  35.542   9.088
  799POPC   GL214510  19.900  35.123   8.980
  799POPC   C1A14511  19.644  35.450   8.734
  799POPC   D2A14512  19.712  35.075   8.482
  799POPC   C3A14513  19.829  35.225   8.080
  799POPC   C4A14514  19.604  35.556   7.838
  799POPC   C1B14515  20.145  34.880   8.652
  799POPC   C2B14516  20.296  34.943   8.229
  799POPC   C3B14517  20.303  35.158   7.841
  799POPC   C4B14518  19.959  35.310   7.563
  800POPC   NC314519  22.048   8.735   9.778
  800POPC   PO414520  22.194   8.104   9.570
  800POPC   GL114521  22.088   8.081   9.173
  800POPC   GL214522  21.948   7.728   9.202
  800POPC   C1A14523  22.221   8.196   8.757
  800POPC   D2A14524  22.208   7.975   8.387
  800POPC   C3A14525  22.199   8.198   7.992
  800POPC   C4A14526  22.072   8.063   7.557
  800POPC   C1B14527  21.842   7.859   8.793
  800POPC   C2B14528  21.782   7.693   8.398
  800POPC   C3B14529  21.972   7.745   8.002
  800POPC   C4B14530  21.871   7.576   7.627
  801POPC   NC314531  42.122  10.575   9.608
  801POPC   PO414532  41.523  10.448   9.524
  801POPC   GL114533  41.528  10.361   9.113
  801POPC   GL214534  41.229  10.539   9.107
  801POPC   C1A14535  41.651  10.423   8.685
  801POPC   D2A14536  41.712  10.739   8.373
  801POPC   C3A14537  41.605  10.614   7.977
  801POPC   C4A14538  41.762  10.244   7.755
  801POPC   C1B14539  41.159  10.289   8.748
  801POPC   C2B14540  41.223  10.474   8.345
  801POPC   C3B14541  41.084  10.625   7.966
  801POPC   C4B14542  41.280  10.437   7.646
  802POPC   NC314543   9.572   2.166   9.735
  802POPC   PO414544  10.008   1.694   9.467
  802POPC   GL114545   9.770   1.966   9.159
  802POPC   GL214546   9.492   2.197   9.226
  802POPC   C1A14547   9.578   1.842   8.751
  802POPC   D2A14548   9.469   1.996   8.344
  802POPC   C3A14549   9.755   2.003   8.009
  802POPC   C4A14550  10.047   1.713   7.889
  802POPC   C1B14551   9.612   2.342   8.813
  802POPC   C2B14552   9.876   2.295   8.438
  802POPC   C3B14553  10.147   2.370   8.076
  802POPC   C4B14554   9.998   2.383   7.642
  803POPC   NC314555  41.235  39.282   9.392
  803POPC   PO414556  41.706  38.823   9.498
  803POPC   GL114557  41.467  38.969   9.083
  803POPC   GL214558  41.193  38.786   9.000
  803POPC   C1A14559  41.599  39.201   8.678
  803POPC   D2A14560  41.743  39.028   8.309
  803POPC   C3A14561  41.621  39.168   7.922
  803POPC   C4A14562  41.601  39.592   7.882
  803POPC   C1B14563  41.103  39.163   8.738
  803POPC   C2B14564  41.258  39.349   8.303
  803POPC   C3B14565  41.116  39.141   7.903
  803POPC   C4B14566  41.189  38.911   7.508
  804POPC   NC314567  31.872  18.000   9.432
  804POPC   PO414568  32.527  18.296   9.505
  804POPC   GL114569  32.283  18.435   9.140
  804POPC   GL214570  31.926  18.483   9.165
  804POPC   C1A14571  32.368  18.485   8.697
  804POPC   D2A14572  32.452  18.174   8.342
  804POPC   C3A14573  32.574  18.268   7.905
  804POPC   C4A14574  32.365  18.382   7.516
  804POPC   C1B14575  31.891  18.220   8.779
  804POPC   C2B14576  31.970  18.403   8.378
  804POPC   C3B14577  32.115  18.473   7.974
  804POPC   C4B14578  31.875  18.412   7.562
  805POPC   NC314579  33.244  16.931   9.550
  805POPC   PO414580  32.737  16.485   9.583
  805POPC   GL114581  32.785  16.718   9.182
  805POPC   GL214582  33.119  16.808   9.079
  805POPC   C1A14583  32.803  16.636   8.712
  805POPC   D2A14584  32.854  16.894   8.325
  805POPC   C3A14585  33.090  16.752   7.961
  805POPC   C4A14586  32.955  16.822   7.514
  805POPC   C1B14587  33.278  16.929   8.671
  805POPC   C2B14588  33.280  17.181   8.296
  805POPC   C3B14589  33.495  17.188   7.913
  805POPC   C4B14590  33.515  16.871   7.636
  806POPC   NC314591   0.291  24.193   9.521
  806POPC   PO414592   0.628  24.760   9.727
  806POPC   GL114593   0.587  24.590   9.294
  806POPC   GL214594   0.682  24.212   9.208
  806POPC   C1A14595   0.315  24.660   8.927
  806POPC   D2A14596   0.334  24.505   8.484
  806POPC   C3A14597   0.365  24.760   8.091
  806POPC   C4A14598   0.006  24.865   7.819
  806POPC   C1B14599   0.364  24.127   8.855
  806POPC   C2B14600   0.409  23.995   8.401
  806POPC   C3B14601   0.426  24.253   8.036
  806POPC   C4B14602   0.188  24.401   7.722
  807POPC   NC314603  31.527  30.924   9.518
  807POPC   PO414604  31.400  30.227   9.442
  807POPC   GL114605  31.292  30.376   9.045
  807POPC   GL214606  31.349  30.720   9.105
  807POPC   C1A14607  31.565  30.529   8.695
  807POPC   D2A14608  31.673  30.893   8.460
  807POPC   C3A14609  31.815  30.684   8.144
  807POPC   C4A14610  31.618  30.469   7.817
  807POPC   C1B14611  31.271  30.968   8.764
  807POPC   C2B14612  31.044  30.933   8.367
  807POPC   C3B14613  31.170  30.739   7.983
  807POPC   C4B14614  31.397  30.986   7.722
  808POPC   NC314615  16.340  29.177   9.559
  808POPC   PO414616  15.735  28.972   9.616
  808POPC   GL114617  15.948  29.123   9.229
  808POPC   GL214618  16.199  28.872   9.104
  808POPC   C1A14619  15.826  29.178   8.812
  808POPC   D2A14620  15.736  29.335   8.407
  808POPC   C3A14621  15.734  29.076   8.037
  808POPC   C4A14622  16.035  29.201   7.734
  808POPC   C1B14623  16.151  28.784   8.642
  808POPC   C2B14624  16.197  29.034   8.244
  808POPC   C3B14625  16.434  28.931   7.850
  808POPC   C4B14626  16.311  28.941   7.380
  809POPC   NC314627   1.063   7.830   9.299
  809POPC   PO414628   1.672   8.019   9.292
  809POPC   GL114629   1.351   8.090   8.983
  809POPC   GL214630   0.998   8.276   9.057
  809POPC   C1A14631   1.305   8.282   8.622
  809POPC   D2A14632   1.077   8.428   8.311
  809POPC   C3A14633   1.274   8.327   7.967
  809POPC   C4A14634   1.327   8.433   7.580
  809POPC   C1B14635   0.854   8.013   8.699
  809POPC   C2B14636   0.921   7.945   8.268
  809POPC   C3B14637   0.840   8.089   7.860
  809POPC   C4B14638   1.116   7.989   7.541
  810POPC   NC314639  40.865  19.743   9.662
  810POPC   PO414640  40.265  19.838   9.640
  810POPC   GL114641  40.648  19.879   9.244
  810POPC   GL214642  40.906  19.585   9.140
  810POPC   C1A14643  40.846  20.041   8.842
  810POPC   D2A14644  41.001  20.159   8.432
  810POPC   C3A14645  40.859  19.965   8.084
  810POPC   C4A14646  40.940  19.710   7.726
  810POPC   C1B14647  40.602  19.569   8.817
  810POPC   C2B14648  40.518  19.796   8.444
  810POPC   C3B14649  40.432  19.687   8.031
  810POPC   C4B14650  40.475  19.584   7.620
  811POPC   NC314651   2.921  38.533   9.553
  811POPC   PO414652   2.366  38.161   9.391
  811POPC   GL114653   2.633  38.385   9.106
  811POPC   GL214654   2.974  38.298   9.092
  811POPC   C1A14655   2.758  38.475   8.673
  811POPC   D2A14656   2.591  38.527   8.275
  811POPC   C3A14657   2.776  38.596   7.879
  811POPC   C4A14658   2.824  38.442   7.453
  811POPC   C1B14659   3.123  38.137   8.672
  811POPC   C2B14660   3.112  38.375   8.240
  811POPC   C3B14661   3.244  38.452   7.775
  811POPC   C4B14662   3.295  38.315   7.344
  812POPC   NC314663  34.434  20.054   9.419
  812POPC   PO414664  35.062  19.764   9.508
  812POPC   GL114665  34.850  19.825   9.161
  812POPC   GL214666  34.582  19.597   9.171
  812POPC   C1A14667  34.632  19.996   8.818
  812POPC   D2A14668  34.718  19.902   8.452
  812POPC   C3A14669  34.513  20.051   8.108
  812POPC   C4A14670  34.521  20.270   7.720
  812POPC   C1B14671  34.670  19.476   8.755
  812POPC   C2B14672  34.788  19.413   8.345
  812POPC   C3B14673  34.657  19.415   7.950
  812POPC   C4B14674  34.479  19.756   7.701
  813POPC   NC314675  18.245  21.436   9.686
  813POPC   PO414676  18.661  21.106   9.263
  813POPC   GL114677  18.386  21.365   9.191
  813POPC   GL214678  18.089  21.217   9.258
  813POPC   C1A14679  18.474  21.523   8.799
  813POPC   D2A14680  18.729  21.381   8.455
  813POPC   C3A14681  18.563  21.341   8.047
  813POPC   C4A14682  18.422  21.217   7.656
  813POPC   C1B14683  17.993  21.379   8.863
  813POPC   C2B14684  18.154  21.334   8.449
  813POPC   C3B14685  18.062  21.471   8.077
  813POPC   C4B14686  17.961  21.389   7.702
  814POPC   NC314687  44.030   8.553   9.460
  814POPC   PO414688  43.842   7.917   9.435
  814POPC   GL114689  43.816   8.219   9.112
  814POPC   GL214690  44.161   8.270   9.053
  814POPC   C1A14691  43.830   8.193   8.651
  814POPC   D2A14692  43.783   7.861   8.321
  814POPC   C3A14693  43.630   8.070   7.953
  814POPC   C4A14694  43.553   8.474   7.812
  814POPC   C1B14695  44.351   8.209   8.648
  814POPC   C2B14696  44.172   8.281   8.216
  814POPC   C3B14697  44.053   8.314   7.749
  814POPC   C4B14698  44.289   8.169   7.347
  815POPC   NC314699  28.028  12.666   9.677
  815POPC   PO414700  28.511  13.155   9.530
  815POPC   GL114701  28.387  12.953   9.139
  815POPC   GL214702  28.231  12.623   9.212
  815POPC   C1A14703  28.532  12.790   8.725
  815POPC   D2A14704  28.579  12.762   8.269
  815POPC   C3A14705  28.404  13.071   8.003
  815POPC   C4A14706  28.484  12.941   7.571
  815POPC   C1B14707  28.013  12.709   8.844
  815POPC   C2B14708  28.134  12.585   8.430
  815POPC   C3B14709  28.170  12.624   7.971
  815POPC   C4B14710  27.968  12.964   7.696
  816POPC   NC314711  10.323  10.993   9.387
  816POPC   PO414712   9.943  11.563   9.631
  816POPC   GL114713  10.020  11.488   9.196
  816POPC   GL214714   9.943  11.153   9.105
  816POPC   C1A14715   9.773  11.490   8.800
  816POPC   D2A14716   9.904  11.569   8.401
  816POPC   C3A14717   9.787  11.338   8.031
  816POPC   C4A14718   9.616  11.454   7.627
  816POPC   C1B14719  10.181  11.185   8.723
  816POPC   C2B14720  10.033  10.925   8.408
  816POPC   C3B14721  10.062  10.810   8.004
  816POPC   C4B14722  10.112  11.095   7.686
  817POPC   NC314723  13.751  32.348   9.550
  817POPC   PO414724  13.252  32.871   9.413
  817POPC   GL114725  13.414  32.475   9.141
  817POPC   GL214726  13.569  32.116   9.136
  817POPC   C1A14727  13.527  32.344   8.685
  817POPC   D2A14728  13.321  32.481   8.307
  817POPC   C3A14729  13.632  32.376   7.998
  817POPC   C4A14730  13.922  32.042   7.856
  817POPC   C1B14731  13.482  31.813   8.794
  817POPC   C2B14732  13.634  31.702   8.383
  817POPC   C3B14733  13.477  31.850   8.006
  817POPC   C4B14734  13.459  32.044   7.591
  818POPC   NC314735   8.899  31.314   9.649
  818POPC   PO414736   9.178  31.913   9.484
  818POPC   GL114737   9.194  31.727   9.084
  818POPC   GL214738   9.066  31.408   9.130
  818POPC   C1A14739   8.946  31.646   8.695
  818POPC   D2A14740   8.675  31.640   8.336
  818POPC   C3A14741   8.931  31.629   7.973
  818POPC   C4A14742   8.668  31.655   7.635
  818POPC   C1B14743   8.999  31.140   8.738
  818POPC   C2B14744   9.038  31.272   8.349
  818POPC   C3B14745   9.117  31.140   7.986
  818POPC   C4B14746   8.994  31.286   7.583
  819POPC   NC314747   2.315  20.143   9.473
  819POPC   PO414748   2.940  19.851   9.558
  819POPC   GL114749   2.798  19.759   9.164
  819POPC   GL214750   2.660  20.057   9.054
  819POPC   C1A14751   2.675  19.611   8.795
  819POPC   D2A14752   2.757  19.900   8.468
  819POPC   C3A14753   2.575  19.724   8.128
  819POPC   C4A14754   2.609  19.806   7.725
  819POPC   C1B14755   2.299  20.288   8.828
  819POPC   C2B14756   2.338  20.424   8.417
  819POPC   C3B14757   2.540  20.219   8.082
  819POPC   C4B14758   2.557  20.303   7.659
  820POPC   NC314759  33.291  43.943   9.640
  820POPC   PO414760  32.651  43.715   9.722
  820POPC   GL114761  32.932  43.773   9.294
  820POPC   GL214762  33.198  44.082   9.168
  820POPC   C1A14763  33.008  43.728   8.848
  820POPC   D2A14764  33.089  43.603   8.434
  820POPC   C3A14765  32.915  43.831   8.096
  820POPC   C4A14766  32.790  43.612   7.741
  820POPC   C1B14767  33.040  44.237   8.761
  820POPC   C2B14768  32.811  44.402   8.418
  820POPC   C3B14769  33.101  44.356   8.084
  820POPC   C4B14770  33.203  44.149   7.721
  821POPC   NC314771  19.355  32.794   9.557
  821POPC   PO414772  18.641  32.827   9.577
  821POPC   GL114773  18.922  32.845   9.242
  821POPC   GL214774  19.024  33.164   9.198
  821POPC   C1A14775  19.080  32.802   8.809
  821POPC   D2A14776  19.037  33.044   8.417
  821POPC   C3A14777  19.059  32.860   8.012
  821POPC   C4A14778  18.729  32.630   7.795
  821POPC   C1B14779  19.048  33.405   8.816
  821POPC   C2B14780  19.019  33.571   8.401
  821POPC   C3B14781  19.146  33.384   8.019
  821POPC   C4B14782  19.368  33.174   7.684
  822POPC   NC314783   9.750   6.758   9.785
  822POPC   PO414784   9.468   6.303   9.412
  822POPC   GL114785   9.699   6.619   9.169
  822POPC   GL214786  10.004   6.470   9.003
  822POPC   C1A14787   9.639   6.621   8.721
  822POPC   D2A14788   9.680   6.341   8.368
  822POPC   C3A14789   9.719   6.582   8.021
  822POPC   C4A14790   9.703   6.796   7.656
  822POPC   C1B14791  10.087   6.876   8.787
  822POPC   C2B14792   9.931   6.958   8.359
  822POPC   C3B14793  10.170   6.810   7.981
  822POPC   C4B14794  10.273   6.938   7.581
  823POPC   NC314795  37.280  27.723   9.296
  823POPC   PO414796  37.840  27.821   9.501
  823POPC   GL114797  37.872  28.126   9.178
  823POPC   GL214798  37.532  28.128   9.106
  823POPC   C1A14799  37.861  28.134   8.721
  823POPC   D2A14800  37.801  28.025   8.296
  823POPC   C3A14801  37.692  28.373   8.000
  823POPC   C4A14802  37.632  28.300   7.547
  823POPC   C1B14803  37.340  28.175   8.692
  823POPC   C2B14804  37.287  28.157   8.242
  823POPC   C3B14805  37.186  28.283   7.796
  823POPC   C4B14806  37.170  28.318   7.304
  824POPC   NC314807   6.092  40.336   9.361
  824POPC   PO414808   5.771  40.889   9.581
  824POPC   GL114809   5.854  40.816   9.158
  824POPC   GL214810   5.597  41.061   9.114
  824POPC   C1A14811   5.970  40.654   8.734
  824POPC   D2A14812   5.886  40.479   8.336
  824POPC   C3A14813   6.156  40.594   8.023
  824POPC   C4A14814   5.931  40.467   7.713
  824POPC   C1B14815   5.714  41.083   8.717
  824POPC   C2B14816   5.596  41.031   8.298
  824POPC   C3B14817   5.675  40.843   7.951
  824POPC   C4B14818   5.629  41.177   7.675
  825POPC   NC314819   7.402   5.705   9.564
  825POPC   PO414820   8.065   5.759   9.623
  825POPC   GL114821   7.875   5.887   9.193
  825POPC   GL214822   7.593   5.693   9.116
  825POPC   C1A14823   7.655   6.084   8.818
  825POPC   D2A14824   7.534   5.820   8.482
  825POPC   C3A14825   7.458   6.013   8.096
  825POPC   C4A14826   7.233   5.928   7.727
  825POPC   C1B14827   7.215   5.623   8.883
  825POPC   C2B14828   7.032   5.655   8.484
  825POPC   C3B14829   7.202   5.560   8.091
  825POPC   C4B14830   7.003   5.468   7.735
  826POPC   NC314831   4.880  38.784   9.624
  826POPC   PO414832   5.293  39.256   9.496
  826POPC   GL114833   5.220  39.143   9.118
  826POPC   GL214834   4.880  39.063   9.206
  826POPC   C1A14835   5.007  39.314   8.785
  826POPC   D2A14836   4.887  39.321   8.403
  826POPC   C3A14837   5.257  39.289   8.237
  826POPC   C4A14838   5.266  39.376   7.838
  826POPC   C1B14839   4.783  38.857   8.844
  826POPC   C2B14840   4.827  38.752   8.440
  826POPC   C3B14841   4.839  38.968   8.041
  826POPC   C4B14842   4.943  39.061   7.599
  827POPC   NC314843  13.483  37.972  10.026
  827POPC   PO414844  13.604  37.461   9.456
  827POPC   GL114845  13.742  37.655   9.111
  827POPC   GL214846  13.550  37.434   8.911
  827POPC   C1A14847  13.741  37.867   8.709
  827POPC   D2A14848  14.019  37.971   8.363
  827POPC   C3A14849  14.002  37.813   7.981
  827POPC   C4A14850  13.812  37.989   7.673
  827POPC   C1B14851  13.928  37.384   8.707
  827POPC   C2B14852  13.781  37.517   8.316
  827POPC   C3B14853  13.517  37.720   7.996
  827POPC   C4B14854  13.671  37.408   7.757
  828POPC   NC314855  10.171  34.434   9.539
  828POPC   PO414856   9.682  34.861   9.260
  828POPC   GL114857   9.976  34.633   9.068
  828POPC   GL214858   9.915  34.263   9.127
  828POPC   C1A14859  10.017  34.843   8.677
  828POPC   D2A14860   9.892  34.720   8.301
  828POPC   C3A14861   9.968  34.948   7.954
  828POPC   C4A14862   9.895  34.753   7.600
  828POPC   C1B14863   9.857  34.309   8.679
  828POPC   C2B14864   9.671  34.267   8.255
  828POPC   C3B14865   9.518  34.435   7.840
  828POPC   C4B14866   9.442  34.286   7.401
  829POPC   NC314867  30.889  32.213   9.673
  829POPC   PO414868  30.326  32.515   9.546
  829POPC   GL114869  30.427  32.330   9.149
  829POPC   GL214870  30.747  32.487   9.077
  829POPC   C1A14871  30.455  31.960   8.818
  829POPC   D2A14872  30.659  31.818   8.443
  829POPC   C3A14873  30.852  32.123   8.166
  829POPC   C4A14874  30.838  32.313   7.767
  829POPC   C1B14875  30.511  32.450   8.672
  829POPC   C2B14876  30.386  32.300   8.268
  829POPC   C3B14877  30.329  32.393   7.831
  829POPC   C4B14878  30.533  32.646   7.515
  830POPC   NC314879   4.245  28.011   9.499
  830POPC   PO414880   4.652  28.578   9.456
  830POPC   GL114881   4.481  28.320   9.192
  830POPC   GL214882   4.672  28.035   9.234
  830POPC   C1A14883   4.267  28.312   8.832
  830POPC   D2A14884   4.336  28.490   8.456
  830POPC   C3A14885   4.211  28.304   8.086
  830POPC   C4A14886   4.417  28.349   7.710
  830POPC   C1B14887   4.595  27.905   8.834
  830POPC   C2B14888   4.365  27.933   8.442
  830POPC   C3B14889   4.616  27.999   8.053
  830POPC   C4B14890   4.575  27.856   7.643
  831POPC   NC314891  34.386   1.080   9.433
  831POPC   PO414892  34.970   1.184   9.760
  831POPC   GL114893  34.785   1.393   9.248
  831POPC   GL214894  34.523   1.308   9.012
  831POPC   C1A14895  34.846   1.600   8.782
  831POPC   D2A14896  34.954   1.385   8.356
  831POPC   C3A14897  34.885   1.494   7.904
  831POPC   C4A14898  34.952   1.121   7.643
  831POPC   C1B14899  34.557   1.171   8.595
  831POPC   C2B14900  34.383   1.333   8.206
  831POPC   C3B14901  34.438   1.293   7.769
  831POPC   C4B14902  34.177   1.383   7.400
  832POPC   NC314903   5.458  11.611   9.483
  832POPC   PO414904   4.857  11.188   9.485
  832POPC   GL114905   5.173  11.290   9.160
  832POPC   GL214906   5.116  11.617   9.089
  832POPC   C1A14907   5.199  11.313   8.686
  832POPC   D2A14908   5.035  11.218   8.294
  832POPC   C3A14909   5.199  11.446   7.959
  832POPC   C4A14910   5.399  11.419   7.570
  832POPC   C1B14911   4.733  11.404   8.861
  832POPC   C2B14912   4.421  11.532   8.552
  832POPC   C3B14913   4.403  11.625   8.127
  832POPC   C4B14914   4.694  11.396   7.946
  833POPC   NC314915   9.503  36.190   9.476
  833POPC   PO414916  10.059  36.548   9.564
  833POPC   GL114917   9.881  36.362   9.197
  833POPC   GL214918   9.583  36.525   9.077
  833POPC   C1A14919   9.933  36.183   8.790
  833POPC   D2A14920   9.732  35.938   8.473
  833POPC   C3A14921   9.704  36.201   8.130
  833POPC   C4A14922   9.807  36.048   7.738
  833POPC   C1B14923   9.388  36.223   8.786
  833POPC   C2B14924   9.240  36.090   8.373
  833POPC   C3B14925   9.317  35.928   7.932
  833POPC   C4B14926   9.257  35.999   7.488
  834POPC   NC314927  16.782   6.831   9.487
  834POPC   PO414928  16.420   6.449   9.355
  834POPC   GL114929  16.727   6.582   9.025
  834POPC   GL214930  16.903   6.914   9.000
  834POPC   C1A14931  16.937   6.568   8.601
  834POPC   D2A14932  16.775   6.757   8.194
  834POPC   C3A14933  16.870   6.676   7.749
  834POPC   C4A14934  16.709   6.490   7.340
  834POPC   C1B14935  16.594   6.938   8.659
  834POPC   C2B14936  16.622   7.231   8.319
  834POPC   C3B14937  16.676   7.167   7.885
  834POPC   C4B14938  16.918   7.107   7.470
  835POPC   NC314939  24.769  12.758   9.482
  835POPC   PO414940  24.526  13.391   9.510
  835POPC   GL114941  24.769  13.161   9.151
  835POPC   GL214942  24.575  12.838   9.040
  835POPC   C1A14943  24.604  13.141   8.672
  835POPC   D2A14944  24.342  12.998   8.364
  835POPC   C3A14945  24.625  13.066   8.043
  835POPC   C4A14946  24.602  12.775   7.751
  835POPC   C1B14947  24.554  12.603   8.672
  835POPC   C2B14948  24.643  12.575   8.247
  835POPC   C3B14949  24.783  12.341   7.900
  835POPC   C4B14950  24.608  12.278   7.453
  836POPC   NC314951  30.710  16.276   9.511
  836POPC   PO414952  31.041  16.795   9.678
  836POPC   GL114953  30.791  16.847   9.292
  836POPC   GL214954  30.501  16.626   9.187
  836POPC   C1A14955  30.866  16.784   8.864
  836POPC   D2A14956  30.680  16.730   8.461
  836POPC   C3A14957  30.981  16.802   8.149
  836POPC   C4A14958  30.826  16.660   7.759
  836POPC   C1B14959  30.277  16.594   8.805
  836POPC   C2B14960  30.294  16.356   8.433
  836POPC   C3B14961  30.410  16.462   8.019
  836POPC   C4B14962  30.398  16.888   7.861
  837POPC   NC314963  24.728  23.503   9.790
  837POPC   PO414964  24.738  22.815   9.554
  837POPC   GL114965  24.508  22.722   9.193
  837POPC   GL214966  24.588  23.005   9.037
  837POPC   C1A14967  24.322  22.684   8.756
  837POPC   D2A14968  24.417  22.856   8.340
  837POPC   C3A14969  24.251  23.248   8.150
  837POPC   C4A14970  24.149  23.067   7.779
  837POPC   C1B14971  24.831  23.174   8.735
  837POPC   C2B14972  24.706  23.274   8.385
  837POPC   C3B14973  24.761  23.209   8.013
  837POPC   C4B14974  24.611  23.225   7.637
  838POPC   NC314975  14.727   8.932   9.488
  838POPC   PO414976  14.093   9.116   9.601
  838POPC   GL114977  14.261   8.810   9.280
  838POPC   GL214978  13.961   8.797   9.058
  838POPC   C1A14979  14.425   8.734   8.842
  838POPC   D2A14980  14.343   8.960   8.453
  838POPC   C3A14981  14.463   8.912   8.020
  838POPC   C4A14982  14.614   8.894   7.588
  838POPC   C1B14983  14.232   9.181   8.926
  838POPC   C2B14984  14.352   9.460   8.600
  838POPC   C3B14985  14.259   9.380   8.143
  838POPC   C4B14986  14.485   9.409   7.770
  839POPC   NC314987  41.366  17.444   9.409
  839POPC   PO414988  41.991  17.458   9.434
  839POPC   GL114989  41.746  17.455   9.078
  839POPC   GL214990  41.587  17.133   9.039
  839POPC   C1A14991  41.543  17.510   8.698
  839POPC   D2A14992  41.746  17.344   8.349
  839POPC   C3A14993  41.509  17.238   8.007
  839POPC   C4A14994  41.282  17.432   7.687
  839POPC   C1B14995  41.957  17.072   8.769
  839POPC   C2B14996  42.067  16.935   8.366
  839POPC   C3B14997  42.031  17.176   7.958
  839POPC   C4B14998  41.803  17.608   7.839
  840POPC   NC314999  39.838  17.941   9.523
  840POPC   PO415000  40.121  17.332   9.477
  840POPC   GL115001  40.131  17.678   9.154
  840POPC   GL215002  39.767  17.730   9.076
  840POPC   C1A15003  40.375  17.635   8.752
  840POPC   D2A15004  40.217  17.322   8.443
  840POPC   C3A15005  40.046  17.327   7.997
  840POPC   C4A15006  40.074  17.186   7.560
  840POPC   C1B15007  39.840  17.556   8.698
  840POPC   C2B15008  39.685  17.560   8.292
  840POPC   C3B15009  39.814  17.805   7.944
  840POPC   C4B15010  39.968  17.699   7.525
  841POPC   NC315011  30.601  13.272   9.391
  841POPC   PO415012  30.854  12.629   9.440
  841POPC   GL115013  30.672  12.747   9.099
  841POPC   GL215014  30.444  12.492   8.991
  841POPC   C1A15015  30.796  12.679   8.657
  841POPC   D2A15016  30.770  12.529   8.213
  841POPC   C3A15017  30.730  12.849   7.863
  841POPC   C4A15018  30.732  13.156   7.481
  841POPC   C1B15019  30.310  12.876   8.796
  841POPC   C2B15020  30.336  12.744   8.420
  841POPC   C3B15021  30.292  12.649   8.033
  841POPC   C4B15022  30.401  12.388   7.737
  842POPC   NC315023  29.249  39.429   9.375
  842POPC   PO415024  28.807  38.995   9.588
  842POPC   GL115025  28.927  39.080   9.171
  842POPC   GL215026  28.739  39.372   9.184
  842POPC   C1A15027  29.254  39.082   8.781
  842POPC   D2A15028  29.513  39.289   8.436
  842POPC   C3A15029  29.365  39.066   8.039
  842POPC   C4A15030  28.969  39.194   7.808
  842POPC   C1B15031  28.854  39.404   8.752
  842POPC   C2B15032  29.012  39.329   8.339
  842POPC   C3B15033  29.249  39.551   8.050
  842POPC   C4B15034  29.123  39.677   7.672
  843POPC   NC315035  25.578  40.755   9.716
  843POPC   PO415036  25.475  40.196   9.449
  843POPC   GL115037  25.446  40.618   9.198
  843POPC   GL215038  25.566  40.982   9.208
  843POPC   C1A15039  25.258  40.810   8.782
  843POPC   D2A15040  25.342  40.867   8.308
  843POPC   C3A15041  25.183  40.734   7.889
  843POPC   C4A15042  24.984  40.883   7.518
  843POPC   C1B15043  25.751  40.757   8.816
  843POPC   C2B15044  25.594  40.455   8.518
  843POPC   C3B15045  25.706  40.397   8.075
  843POPC   C4B15046  25.632  40.327   7.640
  844POPC   NC315047  29.855  43.398   9.729
  844POPC   PO415048  29.559  42.921   9.447
  844POPC   GL115049  29.853  43.151   9.118
  844POPC   GL215050  30.198  42.979   9.049
  844POPC   C1A15051  29.890  43.004   8.653
  844POPC   D2A15052  29.800  42.615   8.361
  844POPC   C3A15053  29.805  42.715   7.922
  844POPC   C4A15054  29.787  43.169   7.900
  844POPC   C1B15055  30.259  43.348   8.784
  844POPC   C2B15056  30.107  43.413   8.371
  844POPC   C3B15057  30.263  43.307   7.994
  844POPC   C4B15058  30.534  43.496   7.714
  845POPC   NC315059  38.919  35.164   9.369
  845POPC   PO415060  39.354  35.419   9.788
  845POPC   GL115061  39.415  35.292   9.355
  845POPC   GL215062  39.254  35.555   9.249
  845POPC   C1A15063  39.425  35.284   8.871
  845POPC   D2A15064  39.156  35.214   8.490
  845POPC   C3A15065  39.378  35.296   8.089
  845POPC   C4A15066  39.415  35.039   7.710
  845POPC   C1B15067  39.057  35.629   8.843
  845POPC   C2B15068  39.150  35.703   8.409
  845POPC   C3B15069  39.026  35.618   7.969
  845POPC   C4B15070  39.190  35.476   7.564
  846POPC   NC315071  42.352  21.843   9.450
  846POPC   PO415072  42.314  22.460   9.169
  846POPC   GL115073  42.465  22.107   9.029
  846POPC   GL215074  42.124  21.960   9.027
  846POPC   C1A15075  42.638  22.108   8.629
  846POPC   D2A15076  42.321  22.314   8.411
  846POPC   C3A15077  42.458  22.208   8.057
  846POPC   C4A15078  42.328  22.278   7.680
  846POPC   C1B15079  42.385  21.701   8.740
  846POPC   C2B15080  42.225  21.792   8.331
  846POPC   C3B15081  42.157  21.832   7.900
  846POPC   C4B15082  42.529  21.818   7.670
  847POPC   NC315083   8.522  43.336   9.544
  847POPC   PO415084   7.913  42.976   9.443
  847POPC   GL115085   8.132  43.261   9.217
  847POPC   GL215086   8.437  43.103   9.095
  847POPC   C1A15087   8.136  43.379   8.803
  847POPC   D2A15088   8.380  43.126   8.514
  847POPC   C3A15089   8.146  43.095   8.140
  847POPC   C4A15090   8.105  43.262   7.741
  847POPC   C1B15091   8.660  42.824   8.826
  847POPC   C2B15092   8.836  42.828   8.455
  847POPC   C3B15093   8.701  43.004   8.114
  847POPC   C4B15094   8.501  42.963   7.769
  848POPC   NC315095  38.789  43.423   9.596
  848POPC   PO415096  38.299  43.087   9.416
  848POPC   GL115097  38.617  43.174   9.145
  848POPC   GL215098  38.797  42.897   9.145
  848POPC   C1A15099  38.695  43.304   8.705
  848POPC   D2A15100  38.595  43.373   8.242
  848POPC   C3A15101  38.622  43.147   7.852
  848POPC   C4A15102  38.285  42.989   7.574
  848POPC   C1B15103  38.951  42.821   8.778
  848POPC   C2B15104  38.897  42.973   8.373
  848POPC   C3B15105  38.970  42.804   7.985
  848POPC   C4B15106  38.661  42.653   7.697
  849POPC   NC315107   7.478   7.332   9.354
  849POPC   PO415108   7.077   7.838   9.550
  849POPC   GL115109   7.205   7.701   9.128
  849POPC   GL215110   7.577   7.686   8.976
  849POPC   C1A15111   7.164   7.496   8.762
  849POPC   D2A15112   7.296   7.407   8.365
  849POPC   C3A15113   7.060   7.358   8.019
  849POPC   C4A15114   7.311   7.395   7.677
  849POPC   C1B15115   7.609   7.240   8.741
  849POPC   C2B15116   7.454   6.939   8.411
  849POPC   C3B15117   7.514   7.060   8.007
  849POPC   C4B15118   7.672   7.074   7.580
  850POPC   NC315119  37.605  25.017   9.382
  850POPC   PO415120  38.016  25.520   9.555
  850POPC   GL115121  37.893  25.383   9.151
  850POPC   GL215122  38.068  25.080   9.128
  850POPC   C1A15123  37.734  25.184   8.741
  850POPC   D2A15124  37.520  25.344   8.397
  850POPC   C3A15125  37.394  25.044   8.102
  850POPC   C4A15126  37.269  25.120   7.688
  850POPC   C1B15127  38.198  25.366   8.752
  850POPC   C2B15128  38.216  25.300   8.339
  850POPC   C3B15129  37.889  25.334   8.050
  850POPC   C4B15130  37.832  25.594   7.724
  851POPC   NC315131  28.769  40.255   9.670
  851POPC   PO415132  29.294  39.863   9.500
  851POPC   GL115133  29.082  40.100   9.241
  851POPC   GL215134  28.885  39.844   9.179
  851POPC   C1A15135  29.139  40.072   8.812
  851POPC   D2A15136  29.207  39.829   8.472
  851POPC   C3A15137  29.160  40.045   8.073
  851POPC   C4A15138  29.198  40.174   7.656
  851POPC   C1B15139  28.679  39.877   8.760
  851POPC   C2B15140  28.722  39.732   8.349
  851POPC   C3B15141  28.713  39.843   7.938
  851POPC   C4B15142  28.744  39.975   7.490
  852POPC   NC315143  16.009  31.024   9.417
  852POPC   PO415144  15.596  30.496   9.321
  852POPC   GL115145  15.905  30.582   9.083
  852POPC   GL215146  16.226  30.567   9.206
  852POPC   C1A15147  15.963  30.769   8.712
  852POPC   D2A15148  15.731  30.791   8.325
  852POPC   C3A15149  15.969  30.933   7.987
  852POPC   C4A15150  15.752  30.812   7.645
  852POPC   C1B15151  16.332  30.421   8.795
  852POPC   C2B15152  16.479  30.465   8.370
  852POPC   C3B15153  16.303  30.519   7.958
  852POPC   C4B15154  16.455  30.308   7.612
  853POPC   NC315155  30.942  42.227   9.479
  853POPC   PO415156  30.473  42.709   9.498
  853POPC   GL115157  30.609  42.461   9.131
  853POPC   GL215158  30.969  42.483   9.049
  853POPC   C1A15159  30.613  42.485   8.673
  853POPC   D2A15160  30.718  42.607   8.239
  853POPC   C3A15161  30.643  42.337   7.866
  853POPC   C4A15162  30.473  42.394   7.448
  853POPC   C1B15163  31.068  42.779   8.763
  853POPC   C2B15164  31.088  42.964   8.370
  853POPC   C3B15165  31.101  42.790   7.936
  853POPC   C4B15166  31.025  42.519   7.554
  854POPC   NC315167  20.932  10.637   9.606
  854POPC   PO415168  21.612  10.569   9.593
  854POPC   GL115169  21.531  10.495   9.191
  854POPC   GL215170  21.291  10.727   9.210
  854POPC   C1A15171  21.505  10.252   8.815
  854POPC   D2A15172  21.313  10.280   8.403
  854POPC   C3A15173  21.589  10.342   8.043
  854POPC   C4A15174  21.613  10.336   7.607
  854POPC   C1B15175  21.163  10.639   8.811
  854POPC   C2B15176  21.241  10.809   8.431
  854POPC   C3B15177  21.168  10.652   8.059
  854POPC   C4B15178  21.306  10.726   7.703
  855POPC   NC315179  44.179  16.076   9.436
  855POPC   PO415180  44.858  16.182   9.476
  855POPC   GL115181  44.650  16.085   9.152
  855POPC   GL215182  44.576  15.756   9.256
  855POPC   C1A15183  44.810  16.155   8.758
  855POPC   D2A15184  44.652  16.228   8.356
  855POPC   C3A15185  44.841  16.076   8.008
  855POPC   C4A15186  44.821  15.904   7.620
  855POPC   C1B15187  44.518  15.711   8.802
  855POPC   C2B15188  44.292  15.809   8.448
  855POPC   C3B15189  44.358  15.887   8.034
  855POPC   C4B15190  44.428  15.586   7.724
  856POPC   NC315191  43.336   3.572   9.469
  856POPC   PO415192  42.795   3.163   9.446
  856POPC   GL115193  42.893   3.530   9.228
  856POPC   GL215194  43.153   3.318   9.050
  856POPC   C1A15195  43.026   3.774   8.844
  856POPC   D2A15196  43.191   3.666   8.430
  856POPC   C3A15197  43.093   3.736   8.000
  856POPC   C4A15198  43.282   3.576   7.624
  856POPC   C1B15199  42.724   3.333   8.806
  856POPC   C2B15200  42.617   3.234   8.414
  856POPC   C3B15201  42.950   3.252   8.159
  856POPC   C4B15202  42.992   3.192   7.751
  857POPC   NC315203  30.599  27.147   9.574
  857POPC   PO415204  30.275  27.786   9.479
  857POPC   GL115205  30.650  27.729   9.255
  857POPC   GL215206  30.891  28.024   9.212
  857POPC   C1A15207  30.621  27.654   8.834
  857POPC   D2A15208  30.393  27.667   8.461
  857POPC   C3A15209  30.528  27.366   8.161
  857POPC   C4A15210  30.783  27.337   7.806
  857POPC   C1B15211  31.061  27.916   8.772
  857POPC   C2B15212  30.934  27.653   8.421
  857POPC   C3B15213  30.939  27.788   8.027
  857POPC   C4B15214  30.786  27.876   7.668
  858POPC   NC315215  40.295  34.805   9.457
  858POPC   PO415216  39.881  34.258   9.456
  858POPC   GL115217  39.955  34.580   9.108
  858POPC   GL215218  40.108  34.943   9.024
  858POPC   C1A15219  40.053  34.605   8.669
  858POPC   D2A15220  39.888  34.643   8.278
  858POPC   C3A15221  40.185  34.645   7.946
  858POPC   C4A15222  40.201  34.535   7.498
  858POPC   C1B15223  39.889  35.143   8.735
  858POPC   C2B15224  39.828  35.158   8.336
  858POPC   C3B15225  39.869  35.041   7.924
  858POPC   C4B15226  39.916  35.002   7.435
  859POPC   NC315227  27.886  29.070   9.577
  859POPC   PO415228  27.306  28.814   9.643
  859POPC   GL115229  27.496  28.790   9.178
  859POPC   GL215230  27.669  29.116   9.118
  859POPC   C1A15231  27.435  28.954   8.695
  859POPC   D2A15232  27.572  29.230   8.315
  859POPC   C3A15233  27.460  29.139   7.878
  859POPC   C4A15234  27.270  28.933   7.537
  859POPC   C1B15235  27.909  29.118   8.739
  859POPC   C2B15236  28.058  29.085   8.326
  859POPC   C3B15237  27.948  29.305   7.931
  859POPC   C4B15238  27.800  29.268   7.479
  860POPC   NC315239   4.561  13.915   9.690
  860POPC   PO415240   3.943  13.976   9.574
  860POPC   GL115241   4.228  13.703   9.273
  860POPC   GL215242   4.553  13.829   9.154
  860POPC   C1A15243   4.345  13.474   8.848
  860POPC   D2A15244   4.198  13.429   8.407
  860POPC   C3A15245   4.395  13.448   7.971
  860POPC   C4A15246   4.289  13.698   7.597
  860POPC   C1B15247   4.485  13.931   8.685
  860POPC   C2B15248   4.368  13.899   8.234
  860POPC   C3B15249   4.171  14.123   7.860
  860POPC   C4B15250   4.140  14.149   7.383
  861POPC   NC315251   5.765  24.125   9.550
  861POPC   PO415252   6.355  24.565   9.708
  861POPC   GL115253   6.101  24.576   9.266
  861POPC   GL215254   5.831  24.366   9.114
  861POPC   C1A15255   6.132  24.571   8.768
  861POPC   D2A15256   5.916  24.699   8.375
  861POPC   C3A15257   6.115  24.588   7.981
  861POPC   C4A15258   5.960  24.464   7.548
  861POPC   C1B15259   5.613  24.211   8.763
  861POPC   C2B15260   5.810  24.189   8.362
  861POPC   C3B15261   5.683  24.300   7.948
  861POPC   C4B15262   5.403  24.294   7.609
  862POPC   NC315263   6.430  31.669   9.437
  862POPC   PO415264   7.014  31.193   9.438
  862POPC   GL115265   6.714  31.356   9.091
  862POPC   GL215266   6.666  31.716   9.002
  862POPC   C1A15267   6.477  31.270   8.726
  862POPC   D2A15268   6.297  31.505   8.405
  862POPC   C3A15269   6.354  31.209   8.074
  862POPC   C4A15270   6.585  31.161   7.692
  862POPC   C1B15271   6.869  31.641   8.645
  862POPC   C2B15272   6.787  31.414   8.316
  862POPC   C3B15273   6.697  31.648   7.968
  862POPC   C4B15274   6.999  31.959   7.767
  863POPC   NC315275  10.850  16.607   9.450
  863POPC   PO415276  11.448  16.869   9.527
  863POPC   GL115277  11.269  16.866   9.170
  863POPC   GL215278  11.198  16.533   9.063
  863POPC   C1A15279  11.472  16.844   8.750
  863POPC   D2A15280  11.328  16.457   8.566
  863POPC   C3A15281  11.336  16.441   8.112
  863POPC   C4A15282  11.328  16.822   7.857
  863POPC   C1B15283  10.977  16.888   8.759
  863POPC   C2B15284  10.839  16.993   8.328
  863POPC   C3B15285  10.740  17.018   7.896
  863POPC   C4B15286  10.937  16.829   7.514
  864POPC   NC315287  21.732  25.192   9.500
  864POPC   PO415288  22.344  24.930   9.372
  864POPC   GL115289  22.140  25.259   9.177
  864POPC   GL215290  21.917  25.070   9.047
  864POPC   C1A15291  22.166  25.419   8.776
  864POPC   D2A15292  22.008  25.456   8.378
  864POPC   C3A15293  22.217  25.225   8.069
  864POPC   C4A15294  21.948  25.287   7.787
  864POPC   C1B15295  21.970  24.928   8.646
  864POPC   C2B15296  21.778  24.994   8.256
  864POPC   C3B15297  21.799  24.806   7.867
  864POPC   C4B15298  21.708  24.896   7.458
  865POPC   NC315299  32.466  41.210   9.430
  865POPC   PO415300  32.356  40.549   9.525
  865POPC   GL115301  32.324  40.771   9.123
  865POPC   GL215302  32.443  41.088   8.931
  865POPC   C1A15303  32.313  40.601   8.726
  865POPC   D2A15304  32.416  40.802   8.339
  865POPC   C3A15305  32.346  40.504   8.013
  865POPC   C4A15306  32.454  40.617   7.620
  865POPC   C1B15307  32.147  41.210   8.597
  865POPC   C2B15308  31.980  41.149   8.210
  865POPC   C3B15309  32.205  40.972   7.882
  865POPC   C4B15310  32.524  41.138   7.628
  866POPC   NC315311  16.656  19.002   9.568
  866POPC   PO415312  16.946  19.593   9.570
  866POPC   GL115313  16.803  19.353   9.201
  866POPC   GL215314  16.420  19.296   9.250
  866POPC   C1A15315  16.978  19.194   8.787
  866POPC   D2A15316  17.208  19.017   8.415
  866POPC   C3A15317  16.944  18.934   8.053
  866POPC   C4A15318  16.751  18.776   7.667
  866POPC   C1B15319  16.450  19.221   8.820
  866POPC   C2B15320  16.608  19.228   8.395
  866POPC   C3B15321  16.455  19.098   7.994
  866POPC   C4B15322  16.601  19.254   7.590
  867POPC   NC315323  41.117  32.594   9.539
  867POPC   PO415324  40.553  32.502   9.453
  867POPC   GL115325  40.830  32.430   9.130
  867POPC   GL215326  40.965  32.092   9.186
  867POPC   C1A15327  40.906  32.400   8.704
  867POPC   D2A15328  41.129  32.457   8.351
  867POPC   C3A15329  40.831  32.422   8.088
  867POPC   C4A15330  40.703  32.384   7.725
  867POPC   C1B15331  40.682  31.955   8.847
  867POPC   C2B15332  40.557  32.060   8.413
  867POPC   C3B15333  40.545  31.952   7.968
  867POPC   C4B15334  40.778  31.808   7.624
  868POPC   NC315335   5.661   5.208   9.518
  868POPC   PO415336   6.224   4.799   9.631
  868POPC   GL115337   5.990   4.856   9.252
  868POPC   GL215338   6.118   5.178   9.272
  868POPC   C1A15339   5.723   5.021   8.879
  868POPC   D2A15340   5.844   5.017   8.428
  868POPC   C3A15341   5.677   5.148   8.021
  868POPC   C4A15342   5.859   4.863   7.701
  868POPC   C1B15343   6.228   5.120   8.849
  868POPC   C2B15344   6.337   5.141   8.419
  868POPC   C3B15345   6.191   5.109   8.002
  868POPC   C4B15346   6.217   5.206   7.543
  869POPC   NC315347  33.192  37.960   9.549
  869POPC   PO415348  32.694  37.520   9.417
  869POPC   GL115349  32.990  37.666   9.101
  869POPC   GL215350  33.182  37.373   9.086
  869POPC   C1A15351  33.113  37.587   8.640
  869POPC   D2A15352  33.095  37.800   8.240
  869POPC   C3A15353  33.113  37.738   7.773
  869POPC   C4A15354  33.394  37.891   7.492
  869POPC   C1B15355  32.782  37.257   8.830
  869POPC   C2B15356  32.810  37.271   8.396
  869POPC   C3B15357  32.776  37.453   8.016
  869POPC   C4B15358  32.497  37.302   7.713
  870POPC   NC315359  29.018  31.020   9.423
  870POPC   PO415360  29.153  31.661   9.552
  870POPC   GL115361  28.968  31.632   9.170
  870POPC   GL215362  29.239  31.361   9.104
  870POPC   C1A15363  28.881  31.459   8.766
  870POPC   D2A15364  29.190  31.225   8.517
  870POPC   C3A15365  29.185  31.425   8.126
  870POPC   C4A15366  29.017  31.521   7.749
  870POPC   C1B15367  29.328  31.701   8.783
  870POPC   C2B15368  29.292  31.911   8.369
  870POPC   C3B15369  29.545  31.872   7.996
  870POPC   C4B15370  29.487  31.691   7.571
  871POPC   NC315371  10.866  19.017   9.537
  871POPC   PO415372  11.512  19.284   9.436
  871POPC   GL115373  11.268  19.027   9.196
  871POPC   GL215374  11.023  19.303   9.149
  871POPC   C1A15375  11.310  19.117   8.769
  871POPC   D2A15376  11.312  19.297   8.406
  871POPC   C3A15377  11.585  19.066   8.185
  871POPC   C4A15378  11.657  19.166   7.804
  871POPC   C1B15379  10.846  18.969   8.895
  871POPC   C2B15380  10.891  18.976   8.438
  871POPC   C3B15381  11.088  19.063   8.016
  871POPC   C4B15382  11.383  18.766   7.766
  872POPC   NC315383  13.456  14.151   9.633
  872POPC   PO415384  13.406  14.756   9.423
  872POPC   GL115385  13.507  14.478   9.100
  872POPC   GL215386  13.376  14.116   9.138
  872POPC   C1A15387  13.638  14.616   8.669
  872POPC   D2A15388  13.466  14.684   8.251
  872POPC   C3A15389  13.736  14.585   7.894
  872POPC   C4A15390  13.694  14.402   7.492
  872POPC   C1B15391  13.298  14.236   8.700
  872POPC   C2B15392  13.491  14.175   8.274
  872POPC   C3B15393  13.329  14.245   7.844
  872POPC   C4B15394  13.057  14.303   7.484
  873POPC   NC315395  14.720  44.626   9.692
  873POPC   PO415396  14.289  44.075   9.574
  873POPC   GL115397  14.376  44.389   9.221
  873POPC   GL215398  14.467  44.728   9.174
  873POPC   C1A15399  14.255  44.511   8.755
  873POPC   D2A15400  14.563  44.565   8.383
  873POPC   C3A15401  14.483  44.408   7.982
  873POPC   C4A15402  14.102  44.464   7.748
  873POPC   C1B15403  14.577  44.913   8.756
  873POPC   C2B15404  14.418   0.052   8.350
  873POPC   C3B15405  14.526  44.944   7.902
  873POPC   C4B15406  14.363   0.166   7.523
  874POPC   NC315407  10.822  15.038   9.553
  874POPC   PO415408  10.450  15.461   9.576
  874POPC   GL115409  10.514  15.240   9.175
  874POPC   GL215410  10.818  15.331   9.139
  874POPC   C1A15411  10.548  15.094   8.711
  874POPC   D2A15412  10.427  15.286   8.294
  874POPC   C3A15413  10.307  15.102   7.903
  874POPC   C4A15414  10.281  14.667   7.880
  874POPC   C1B15415  11.039  15.215   8.791
  874POPC   C2B15416  10.991  15.155   8.376
  874POPC   C3B15417  10.825  15.134   7.973
  874POPC   C4B15418  10.972  15.227   7.563
  875POPC   NC315419  35.808   2.176   9.333
  875POPC   PO415420  36.320   1.679   9.430
  875POPC   GL115421  36.239   2.002   9.123
  875POPC   GL215422  35.954   1.814   9.006
  875POPC   C1A15423  36.156   2.251   8.758
  875POPC   D2A15424  35.940   2.140   8.395
  875POPC   C3A15425  36.113   2.080   7.997
  875POPC   C4A15426  35.841   2.132   7.691
  875POPC   C1B15427  36.293   1.683   8.741
  875POPC   C2B15428  36.391   1.808   8.345
  875POPC   C3B15429  36.257   1.585   7.988
  875POPC   C4B15430  36.314   1.758   7.597
  876POPC   NC315431  34.242   7.763   9.455
  876POPC   PO415432  33.723   8.197   9.686
  876POPC   GL115433  33.915   8.145   9.291
  876POPC   GL215434  33.618   8.275   9.186
  876POPC   C1A15435  33.891   8.018   8.842
  876POPC   D2A15436  33.954   8.174   8.419
  876POPC   C3A15437  33.933   7.925   8.058
  876POPC   C4A15438  33.801   7.969   7.647
  876POPC   C1B15439  33.412   8.272   8.810
  876POPC   C2B15440  33.358   8.294   8.416
  876POPC   C3B15441  33.524   8.230   8.055
  876POPC   C4B15442  33.561   8.413   7.662
  877POPC   NC315443  35.967  26.921   9.965
  877POPC   PO415444  36.607  26.748   9.699
  877POPC   GL115445  36.502  26.634   9.211
  877POPC   GL215446  36.168  26.524   9.136
  877POPC   C1A15447  36.405  26.827   8.778
  877POPC   D2A15448  36.124  26.913   8.408
  877POPC   C3A15449  36.366  26.873   8.009
  877POPC   C4A15450  36.343  26.909   7.558
  877POPC   C1B15451  35.965  26.493   8.733
  877POPC   C2B15452  35.726  26.543   8.359
  877POPC   C3B15453  35.793  26.767   7.997
  877POPC   C4B15454  35.909  27.144   7.782
  878POPC   NC315455  14.744  36.815   9.426
  878POPC   PO415456  15.283  36.848   9.827
  878POPC   GL115457  15.265  36.862   9.357
  878POPC   GL215458  15.103  37.154   9.271
  878POPC   C1A15459  15.210  36.755   8.895
  878POPC   D2A15460  15.216  36.539   8.488
  878POPC   C3A15461  15.095  36.776   8.124
  878POPC   C4A15462  15.105  36.838   7.678
  878POPC   C1B15463  15.065  37.252   8.828
  878POPC   C2B15464  15.292  37.111   8.477
  878POPC   C3B15465  15.213  37.360   8.130
  878POPC   C4B15466  15.206  37.352   7.694
  879POPC   NC315467  26.963  14.737   9.469
  879POPC   PO415468  26.971  14.020   9.428
  879POPC   GL115469  26.862  14.353   9.160
  879POPC   GL215470  26.541  14.573   9.215
  879POPC   C1A15471  27.040  14.419   8.775
  879POPC   D2A15472  26.932  14.729   8.457
  879POPC   C3A15473  26.896  14.494   8.057
  879POPC   C4A15474  27.069  14.460   7.647
  879POPC   C1B15475  26.494  14.571   8.782
  879POPC   C2B15476  26.286  14.420   8.392
  879POPC   C3B15477  26.335  14.427   7.932
  879POPC   C4B15478  26.587  14.678   7.638
  880POPC   NC315479  27.702  38.705   9.602
  880POPC   PO415480  27.462  39.347   9.629
  880POPC   GL115481  27.519  39.081   9.289
  880POPC   GL215482  27.868  39.023   9.258
  880POPC   C1A15483  27.402  39.031   8.862
  880POPC   D2A15484  27.229  39.215   8.471
  880POPC   C3A15485  27.447  39.116   8.121
  880POPC   C4A15486  27.627  39.338   7.821
  880POPC   C1B15487  27.879  39.252   8.902
  880POPC   C2B15488  27.821  39.223   8.513
  880POPC   C3B15489  27.971  39.123   8.136
  880POPC   C4B15490  27.943  38.901   7.778
  881POPC   NC315491  12.911  14.178   9.331
  881POPC   PO415492  12.769  14.721   9.620
  881POPC   GL115493  12.777  14.620   9.129
  881POPC   GL215494  12.635  14.301   8.943
  881POPC   C1A15495  12.906  14.638   8.672
  881POPC   D2A15496  13.043  14.416   8.305
  881POPC   C3A15497  12.857  14.457   7.923
  881POPC   C4A15498  12.754  14.738   7.619
  881POPC   C1B15499  12.837  14.012   8.664
  881POPC   C2B15500  12.770  14.003   8.213
  881POPC   C3B15501  12.831  13.950   7.789
  881POPC   C4B15502  12.758  13.937   7.317
  882POPC   NC315503  15.786  27.730   9.535
  882POPC   PO415504  15.725  27.150   9.438
  882POPC   GL115505  15.736  27.449   9.092
  882POPC   GL215506  16.030  27.566   9.071
  882POPC   C1A15507  15.741  27.644   8.655
  882POPC   D2A15508  15.921  27.841   8.279
  882POPC   C3A15509  15.770  27.691   7.868
  882POPC   C4A15510  15.495  27.795   7.493
  882POPC   C1B15511  16.251  27.808   8.785
  882POPC   C2B15512  16.417  27.849   8.369
  882POPC   C3B15513  16.295  27.703   7.953
  882POPC   C4B15514  16.220  27.268   7.756
  883POPC   NC315515  31.255  43.915   9.449
  883POPC   PO415516  31.854  44.145   9.488
  883POPC   GL115517  31.625  44.094   9.122
  883POPC   GL215518  31.574  43.750   9.080
  883POPC   C1A15519  31.377  44.132   8.742
  883POPC   D2A15520  31.456  43.998   8.305
  883POPC   C3A15521  31.224  44.155   7.941
  883POPC   C4A15522  31.435  44.081   7.556
  883POPC   C1B15523  31.453  43.631   8.675
  883POPC   C2B15524  31.202  43.520   8.333
  883POPC   C3B15525  31.320  43.637   7.897
  883POPC   C4B15526  31.327  43.551   7.464
  884POPC   NC315527  32.293  20.260   9.457
  884POPC   PO415528  32.302  20.874   9.375
  884POPC   GL115529  32.297  20.606   9.062
  884POPC   GL215530  32.616  20.507   9.102
  884POPC   C1A15531  32.421  20.679   8.657
  884POPC   D2A15532  32.497  20.463   8.278
  884POPC   C3A15533  32.320  20.680   7.915
  884POPC   C4A15534  31.994  20.872   7.666
  884POPC   C1B15535  32.768  20.317   8.751
  884POPC   C2B15536  32.650  19.967   8.534
  884POPC   C3B15537  32.628  19.999   8.125
  884POPC   C4B15538  32.697  20.360   7.798
  885POPC   NC315539  17.694   0.084   9.540
  885POPC   PO415540  17.353   0.638   9.778
  885POPC   GL115541  17.487   0.619   9.288
  885POPC   GL215542  17.675   0.348   9.118
  885POPC   C1A15543  17.310   0.569   8.852
  885POPC   D2A15544  17.414   0.308   8.504
  885POPC   C3A15545  17.515   0.460   8.111
  885POPC   C4A15546  17.370   0.325   7.730
  885POPC   C1B15547  17.921   0.247   8.761
  885POPC   C2B15548  17.878   0.095   8.356
  885POPC   C3B15549  17.883   0.160   7.941
  885POPC   C4B15550  17.816   0.213   7.512
  886POPC   NC315551   0.870  15.342   9.888
  886POPC   PO415552   0.288  15.351   9.460
  886POPC   GL115553   0.468  15.210   9.054
  886POPC   GL215554   0.734  15.468   8.879
  886POPC   C1A15555   0.175  15.021   8.782
  886POPC   D2A15556  44.991  15.255   8.454
  886POPC   C3A15557   0.155  15.146   8.054
  886POPC   C4A15558   0.328  14.862   7.744
  886POPC   C1B15559   0.481  15.364   8.565
  886POPC   C2B15560   0.548  15.005   8.343
  886POPC   C3B15561   0.724  15.075   7.969
  886POPC   C4B15562   0.521  15.347   7.698
  887POPC   NC315563  13.529  38.685   9.413
  887POPC   PO415564  13.701  38.016   9.594
  887POPC   GL115565  13.678  38.249   9.161
  887POPC   GL215566  13.849  38.615   9.051
  887POPC   C1A15567  13.502  38.322   8.744
  887POPC   D2A15568  13.476  38.110   8.326
  887POPC   C3A15569  13.563  38.369   7.947
  887POPC   C4A15570  13.816  38.728   7.756
  887POPC   C1B15571  13.638  38.833   8.723
  887POPC   C2B15572  13.484  39.019   8.349
  887POPC   C3B15573  13.333  38.848   7.936
  887POPC   C4B15574  13.382  38.855   7.481
  888POPC   NC315575  22.098   2.469   9.643
  888POPC   PO415576  22.227   1.769   9.595
  888POPC   GL115577  22.417   1.896   9.198
  888POPC   GL215578  22.082   1.981   9.141
  888POPC   C1A15579  22.426   2.130   8.784
  888POPC   D2A15580  22.193   2.261   8.375
  888POPC   C3A15581  22.365   2.192   7.930
  888POPC   C4A15582  22.298   1.972   7.504
  888POPC   C1B15583  21.999   1.837   8.727
  888POPC   C2B15584  21.909   1.665   8.323
  888POPC   C3B15585  22.108   1.743   7.946
  888POPC   C4B15586  21.907   1.631   7.566
  889POPC   NC315587   7.079   9.642   9.433
  889POPC   PO415588   7.580  10.092   9.497
  889POPC   GL115589   7.463   9.865   9.165
  889POPC   GL215590   7.103  10.020   9.106
  889POPC   C1A15591   7.722   9.748   8.795
  889POPC   D2A15592   7.526   9.740   8.387
  889POPC   C3A15593   7.639   9.660   7.991
  889POPC   C4A15594   7.631   9.942   7.653
  889POPC   C1B15595   7.189   9.691   8.787
  889POPC   C2B15596   7.053   9.557   8.389
  889POPC   C3B15597   7.130   9.599   7.955
  889POPC   C4B15598   7.049   9.461   7.534
  890POPC   NC315599  17.550  11.628   9.573
  890POPC   PO415600  17.335  11.031   9.412
  890POPC   GL115601  17.539  10.978   9.035
  890POPC   GL215602  17.409  11.316   8.958
  890POPC   C1A15603  17.631  10.867   8.584
  890POPC   D2A15604  17.603  11.143   8.212
  890POPC   C3A15605  17.532  11.178   7.768
  890POPC   C4A15606  17.828  11.342   7.442
  890POPC   C1B15607  17.137  11.001   8.746
  890POPC   C2B15608  17.161  10.883   8.327
  890POPC   C3B15609  17.038  11.088   7.940
  890POPC   C4B15610  17.004  11.446   7.659
  891POPC   NC315611  18.750  21.326   9.643
  891POPC   PO415612  19.332  21.448   9.684
  891POPC   GL115613  19.111  21.349   9.273
  891POPC   GL215614  18.848  21.577   9.189
  891POPC   C1A15615  19.115  21.254   8.810
  891POPC   D2A15616  19.221  21.466   8.403
  891POPC   C3A15617  19.136  21.276   8.017
  891POPC   C4A15618  18.901  21.084   7.692
  891POPC   C1B15619  18.964  21.738   8.809
  891POPC   C2B15620  18.910  21.929   8.421
  891POPC   C3B15621  18.911  21.731   8.052
  891POPC   C4B15622  18.810  21.588   7.638
  892POPC   NC315623  42.535  44.008   9.463
  892POPC   PO415624  41.951  43.726   9.567
  892POPC   GL115625  42.187  43.644   9.199
  892POPC   GL215626  42.231  43.994   9.047
  892POPC   C1A15627  42.304  43.579   8.763
  892POPC   D2A15628  42.300  43.798   8.378
  892POPC   C3A15629  42.481  43.637   8.011
  892POPC   C4A15630  42.262  43.702   7.657
  892POPC   C1B15631  42.586  44.067   8.716
  892POPC   C2B15632  42.719  44.084   8.234
  892POPC   C3B15633  42.720  44.041   7.736
  892POPC   C4B15634  42.539  43.910   7.325
  893POPC   NC315635  37.345  22.563   9.494
  893POPC   PO415636  37.721  21.933   9.485
  893POPC   GL115637  37.718  22.292   9.162
  893POPC   GL215638  37.363  22.222   9.107
  893POPC   C1A15639  37.870  22.381   8.712
  893POPC   D2A15640  37.683  22.400   8.293
  893POPC   C3A15641  37.819  22.388   7.863
  893POPC   C4A15642  37.704  22.029   7.576
  893POPC   C1B15643  37.334  22.361   8.683
  893POPC   C2B15644  37.161  22.388   8.258
  893POPC   C3B15645  37.338  22.226   7.896
  893POPC   C4B15646  37.313  22.291   7.416
  894POPC   NC315647  44.905  44.348   9.486
  894POPC   PO415648  44.690  44.951   9.526
  894POPC   GL115649  44.669  44.700   9.157
  894POPC   GL215650  44.746  44.350   9.017
  894POPC   C1A15651  44.821  44.806   8.766
  894POPC   D2A15652  44.886  44.648   8.349
  894POPC   C3A15653  44.867  44.902   7.976
  894POPC   C4A15654  44.747  44.758   7.594
  894POPC   C1B15655  44.499  44.383   8.675
  894POPC   C2B15656  44.456  44.348   8.258
  894POPC   C3B15657  44.701  44.379   7.921
  894POPC   C4B15658  44.587  44.256   7.506
  895POPC   NC315659   4.088  22.658   9.536
  895POPC   PO415660   4.552  23.187   9.392
  895POPC   GL115661   4.318  22.939   9.154
  895POPC   GL215662   4.479  22.631   9.182
  895POPC   C1A15663   4.141  22.939   8.764
  895POPC   D2A15664   4.293  22.783   8.371
  895POPC   C3A15665   4.269  23.090   8.090
  895POPC   C4A15666   4.045  23.315   7.856
  895POPC   C1B15667   4.356  22.468   8.794
  895POPC   C2B15668   4.547  22.338   8.419
  895POPC   C3B15669   4.666  22.562   8.084
  895POPC   C4B15670   4.363  22.698   7.773
  896POPC   NC315671  10.827  24.947   9.423
  896POPC   PO415672  10.273  24.513   9.539
  896POPC   GL115673  10.416  24.659   9.163
  896POPC   GL215674  10.656  24.474   9.105
  896POPC   C1A15675  10.281  24.546   8.754
  896POPC   D2A15676  10.208  24.696   8.356
  896POPC   C3A15677  10.428  24.575   8.010
  896POPC   C4A15678  10.306  24.356   7.659
  896POPC   C1B15679  10.704  24.818   8.770
  896POPC   C2B15680  10.748  24.848   8.325
  896POPC   C3B15681  10.913  24.688   7.920
  896POPC   C4B15682  10.892  24.776   7.503
  897POPC   NC315683  23.078   2.452   9.370
  897POPC   PO415684  23.124   1.727   9.473
  897POPC   GL115685  22.943   1.978   9.145
  897POPC   GL215686  23.241   2.079   9.066
  897POPC   C1A15687  22.929   2.069   8.667
  897POPC   D2A15688  22.644   1.983   8.349
  897POPC   C3A15689  22.876   2.087   8.037
  897POPC   C4A15690  22.803   2.048   7.655
  897POPC   C1B15691  23.293   1.739   8.770
  897POPC   C2B15692  23.342   1.868   8.350
  897POPC   C3B15693  23.399   2.038   7.944
  897POPC   C4B15694  23.288   1.863   7.546
  898POPC   NC315695  35.984  16.982   9.518
  898POPC   PO415696  36.391  16.424   9.586
  898POPC   GL115697  36.284  16.632   9.198
  898POPC   GL215698  36.585  16.450   9.119
  898POPC   C1A15699  36.027  16.777   8.830
  898POPC   D2A15700  35.980  16.732   8.376
  898POPC   C3A15701  36.321  16.903   8.142
  898POPC   C4A15702  36.386  17.323   7.952
  898POPC   C1B15703  36.492  16.541   8.710
  898POPC   C2B15704  36.343  16.316   8.377
  898POPC   C3B15705  36.402  16.429   7.977
  898POPC   C4B15706  36.466  16.403   7.560
  899POPC   NC315707  27.086  15.822   9.276
  899POPC   PO415708  26.441  15.862   9.378
  899POPC   GL115709  26.641  15.844   9.008
  899POPC   GL215710  26.729  15.516   9.012
  899POPC   C1A15711  26.938  15.779   8.633
  899POPC   D2A15712  26.922  15.738   8.190
  899POPC   C3A15713  27.059  16.087   7.963
  899POPC   C4A15714  27.019  16.270   7.552
  899POPC   C1B15715  26.458  15.575   8.636
  899POPC   C2B15716  26.446  15.886   8.354
  899POPC   C3B15717  26.447  15.981   7.949
  899POPC   C4B15718  26.746  15.813   7.682
  900POPC   NC315719  27.580   1.672   9.767
  900POPC   PO415720  27.556   1.022   9.615
  900POPC   GL115721  27.568   1.025   9.190
  900POPC   GL215722  27.443   1.339   9.177
  900POPC   C1A15723  27.575   1.028   8.742
  900POPC   D2A15724  27.352   1.100   8.333
  900POPC   C3A15725  27.672   1.191   8.022
  900POPC   C4A15726  27.745   1.013   7.645
  900POPC   C1B15727  27.619   1.549   8.798
  900POPC   C2B15728  27.648   1.504   8.410
  900POPC   C3B15729  27.722   1.728   8.042
  900POPC   C4B15730  27.602   1.537   7.658
  901POPC   NC315731   7.142  30.077   9.364
  901POPC   PO415732   7.670  29.585   9.568
  901POPC   GL115733   7.603  29.869   9.224
  901POPC   GL215734   7.309  29.668   9.091
  901POPC   C1A15735   7.681  30.066   8.805
  901POPC   D2A15736   7.744  29.873   8.404
  901POPC   C3A15737   7.686  30.059   8.000
  901POPC   C4A15738   7.513  29.915   7.646
  901POPC   C1B15739   7.237  29.833   8.684
  901POPC   C2B15740   7.263  30.085   8.293
  901POPC   C3B15741   7.092  29.848   7.926
  901POPC   C4B15742   7.039  29.816   7.456
  902POPC   NC315743  41.586  26.774   9.560
  902POPC   PO415744  41.303  27.292   9.240
  902POPC   GL115745  41.554  27.053   9.041
  902POPC   GL215746  41.347  26.785   9.106
  902POPC   C1A15747  41.489  26.904   8.623
  902POPC   D2A15748  41.755  26.781   8.333
  902POPC   C3A15749  41.878  27.059   8.053
  902POPC   C4A15750  41.714  26.872   7.739
  902POPC   C1B15751  41.279  26.454   8.801
  902POPC   C2B15752  41.442  26.383   8.392
  902POPC   C3B15753  41.360  26.627   8.024
  902POPC   C4B15754  41.233  27.063   7.865
  903POPC   NC315755   8.011  41.878   9.366
  903POPC   PO415756   8.298  41.215   9.504
  903POPC   GL115757   8.349  41.505   9.170
  903POPC   GL215758   8.019  41.455   9.105
  903POPC   C1A15759   8.250  41.624   8.706
  903POPC   D2A15760   8.517  41.773   8.376
  903POPC   C3A15761   8.354  41.677   7.991
  903POPC   C4A15762   8.404  41.382   7.663
  903POPC   C1B15763   7.872  41.250   8.744
  903POPC   C2B15764   7.851  41.422   8.349
  903POPC   C3B15765   7.964  41.363   7.960
  903POPC   C4B15766   7.962  41.653   7.643
  904POPC   NC315767  33.277  26.694   9.517
  904POPC   PO415768  32.626  27.037   9.375
  904POPC   GL115769  32.970  26.985   9.129
  904POPC   GL215770  32.938  26.668   9.141
  904POPC   C1A15771  33.159  26.836   8.734
  904POPC   D2A15772  33.198  26.602   8.395
  904POPC   C3A15773  33.131  26.749   8.010
  904POPC   C4A15774  33.380  26.759   7.660
  904POPC   C1B15775  32.764  26.492   8.766
  904POPC   C2B15776  32.692  26.368   8.352
  904POPC   C3B15777  32.841  26.326   7.952
  904POPC   C4B15778  32.907  26.569   7.569
  905POPC   NC315779  13.865  15.694   9.538
  905POPC   PO415780  13.582  16.272   9.625
  905POPC   GL115781  13.375  16.101   9.245
  905POPC   GL215782  13.542  15.837   9.164
  905POPC   C1A15783  13.320  16.130   8.798
  905POPC   D2A15784  13.646  15.993   8.518
  905POPC   C3A15785  13.669  15.912   8.077
  905POPC   C4A15786  14.001  15.874   7.742
  905POPC   C1B15787  13.373  15.615   8.791
  905POPC   C2B15788  13.217  15.631   8.384
  905POPC   C3B15789  13.330  15.542   7.929
  905POPC   C4B15790  13.546  15.747   7.583
  906POPC   NC315791  33.309  23.206   9.600
  906POPC   PO415792  32.861  22.678   9.584
  906POPC   GL115793  33.023  22.844   9.191
  906POPC   GL215794  33.302  23.046   9.129
  906POPC   C1A15795  33.067  22.814   8.738
  906POPC   D2A15796  33.000  23.062   8.376
  906POPC   C3A15797  33.076  22.809   8.033
  906POPC   C4A15798  32.814  22.718   7.701
  906POPC   C1B15799  33.174  23.342   8.804
  906POPC   C2B15800  33.163  23.552   8.396
  906POPC   C3B15801  33.276  23.344   8.020
  906POPC   C4B15802  33.320  23.073   7.676
  907POPC   NC315803  35.070   1.604   9.583
  907POPC   PO415804  35.600   1.188   9.614
  907POPC   GL115805  35.351   1.207   9.241
  907POPC   GL215806  35.627   1.014   9.106
  907POPC   C1A15807  35.309   1.346   8.791
  907POPC   D2A15808  35.443   1.478   8.357
  907POPC   C3A15809  35.351   1.280   7.961
  907POPC   C4A15810  35.367   1.376   7.522
  907POPC   C1B15811  35.843   0.900   8.738
  907POPC   C2B15812  35.783   1.060   8.339
  907POPC   C3B15813  35.859   1.241   7.963
  907POPC   C4B15814  35.780   1.077   7.535
  908POPC   NC315815  39.287   0.069   9.949
  908POPC   PO415816  39.311  44.513   9.548
  908POPC   GL115817  39.374  44.525   9.127
  908POPC   GL215818  39.705  44.442   9.122
  908POPC   C1A15819  39.183  44.648   8.739
  908POPC   D2A15820  39.196  44.502   8.321
  908POPC   C3A15821  39.105  44.822   8.045
  908POPC   C4A15822  39.377   0.028   7.754
  908POPC   C1B15823  39.595  44.354   8.682
  908POPC   C2B15824  39.640  44.203   8.282
  908POPC   C3B15825  39.447  44.261   7.909
  908POPC   C4B15826  39.160  44.489   7.661
  909POPC   NC315827  34.005  43.324   9.628
  909POPC   PO415828  33.746  42.769   9.646
  909POPC   GL115829  33.763  42.970   9.239
  909POPC   GL215830  33.568  43.267   9.226
  909POPC   C1A15831  33.668  42.942   8.781
  909POPC   D2A15832  33.851  43.055   8.375
  909POPC   C3A15833  33.682  42.902   7.925
  909POPC   C4A15834  33.444  42.829   7.487
  909POPC   C1B15835  33.795  43.436   8.869
  909POPC   C2B15836  33.614  43.533   8.457
  909POPC   C3B15837  33.654  43.384   8.041
  909POPC   C4B15838  33.559  43.310   7.652
  910POPC   NC315839  41.481  44.938   9.445
  910POPC   PO415840  41.272  44.335   9.530
  910POPC   GL115841  41.482  44.470   9.184
  910POPC   GL215842  41.851  44.435   9.304
  910POPC   C1A15843  41.386  44.710   8.775
  910POPC   D2A15844  41.151  44.661   8.387
  910POPC   C3A15845  41.186  44.901   8.029
  910POPC   C4A15846  41.280  44.627   7.725
  910POPC   C1B15847  41.883  44.668   8.924
  910POPC   C2B15848  41.880  44.590   8.488
  910POPC   C3B15849  41.646  44.669   8.116
  910POPC   C4B15850  41.723  44.940   7.751
  911POPC   NC315851   0.386   3.994   9.417
  911POPC   PO415852   0.013   4.658   9.519
  911POPC   GL115853   0.175   4.398   9.179
  911POPC   GL215854   0.528   4.382   9.115
  911POPC   C1A15855   0.176   4.409   8.718
  911POPC   D2A15856   0.083   4.569   8.285
  911POPC   C3A15857   0.289   4.355   7.911
  911POPC   C4A15858   0.271   4.180   7.457
  911POPC   C1B15859   0.684   4.495   8.723
  911POPC   C2B15860   0.580   4.666   8.303
  911POPC   C3B15861   0.665   4.690   7.867
  911POPC   C4B15862   0.706   4.697   7.427
  912POPC   NC315863  42.101  32.574   9.391
  912POPC   PO415864  42.537  32.112   9.667
  912POPC   GL115865  42.333  32.117   9.242
  912POPC   GL215866  41.958  32.139   9.171
  912POPC   C1A15867  42.301  32.335   8.828
  912POPC   D2A15868  42.556  32.488   8.514
  912POPC   C3A15869  42.433  32.576   8.116
  912POPC   C4A15870  42.498  32.351   7.726
  912POPC   C1B15871  41.898  32.045   8.754
  912POPC   C2B15872  42.006  32.324   8.400
  912POPC   C3B15873  42.102  32.217   7.991
  912POPC   C4B15874  42.017  32.318   7.542
  913POPC   NC315875   9.912  35.211   9.496
  913POPC   PO415876   9.789  35.853   9.319
  913POPC   GL115877   9.889  35.528   9.071
  913POPC   GL215878   9.609  35.323   9.084
  913POPC   C1A15879   9.892  35.391   8.651
  913POPC   D2A15880  10.027  35.365   8.244
  913POPC   C3A15881   9.704  35.573   7.989
  913POPC   C4A15882   9.514  35.589   7.586
  913POPC   C1B15883   9.452  35.156   8.679
  913POPC   C2B15884   9.556  35.122   8.225
  913POPC   C3B15885   9.467  35.033   7.768
  913POPC   C4B15886   9.280  35.199   7.350
  914POPC   NC315887  33.900   5.500   9.433
  914POPC   PO415888  34.101   4.951   9.537
  914POPC   GL115889  33.800   4.992   9.252
  914POPC   GL215890  34.009   4.793   9.072
  914POPC   C1A15891  33.704   5.102   8.824
  914POPC   D2A15892  33.488   5.268   8.528
  914POPC   C3A15893  33.588   5.197   8.105
  914POPC   C4A15894  33.760   5.432   7.759
  914POPC   C1B15895  34.213   5.072   8.830
  914POPC   C2B15896  34.087   4.919   8.463
  914POPC   C3B15897  34.152   4.773   8.050
  914POPC   C4B15898  33.830   4.892   7.775
  915POPC   NC315899  10.242  28.426   9.754
  915POPC   PO415900   9.678  28.280   9.492
  915POPC   GL115901   9.740  28.340   9.099
  915POPC   GL215902   9.415  28.203   9.053
  915POPC   C1A15903   9.886  28.490   8.716
  915POPC   D2A15904   9.877  28.535   8.309
  915POPC   C3A15905   9.684  28.228   8.082
  915POPC   C4A15906   9.813  28.092   7.639
  915POPC   C1B15907   9.487  28.176   8.604
  915POPC   C2B15908   9.381  27.862   8.298
  915POPC   C3B15909   9.445  27.832   7.858
  915POPC   C4B15910   9.426  27.850   7.393
  916POPC   NC315911  21.005  33.178   9.621
  916POPC   PO415912  20.402  33.251   9.765
  916POPC   GL115913  20.501  33.311   9.282
  916POPC   GL215914  20.760  33.101   9.174
  916POPC   C1A15915  20.601  33.486   8.826
  916POPC   D2A15916  20.449  33.440   8.356
  916POPC   C3A15917  20.669  33.215   7.978
  916POPC   C4A15918  20.524  33.256   7.497
  916POPC   C1B15919  20.686  32.990   8.723
  916POPC   C2B15920  20.893  32.840   8.328
  916POPC   C3B15921  20.821  32.689   7.914
  916POPC   C4B15922  20.450  32.809   7.727
  917POPC   NC315923   3.679  10.921   9.460
  917POPC   PO415924   3.376  11.500   9.559
  917POPC   GL115925   3.373  11.307   9.152
  917POPC   GL215926   3.233  10.961   9.180
  917POPC   C1A15927   3.613  11.351   8.751
  917POPC   D2A15928   3.775  11.215   8.334
  917POPC   C3A15929   3.525  11.375   7.976
  917POPC   C4A15930   3.565  11.685   7.663
  917POPC   C1B15931   3.544  10.848   8.834
  917POPC   C2B15932   3.654  10.705   8.420
  917POPC   C3B15933   3.609  10.862   7.982
  917POPC   C4B15934   3.315  11.010   7.661
  918POPC   NC315935  10.349  43.817   9.516
  918POPC   PO415936  10.903  44.037   9.722
  918POPC   GL115937  10.864  43.828   9.249
  918POPC   GL215938  10.550  43.944   9.061
  918POPC   C1A15939  10.884  43.706   8.766
  918POPC   D2A15940  10.469  43.812   8.546
  918POPC   C3A15941  10.373  43.625   8.145
  918POPC   C4A15942  10.689  43.714   7.821
  918POPC   C1B15943  10.112  43.980   8.865
  918POPC   C2B15944  10.015  44.075   8.479
  918POPC   C3B15945  10.291  44.128   8.138
  918POPC   C4B15946  10.214  43.917   7.763
  919POPC   NC315947   9.742  42.627   9.825
  919POPC   PO415948   9.703  43.255   9.545
  919POPC   GL115949   9.765  43.190   9.149
  919POPC   GL215950  10.080  43.352   9.145
  919POPC   C1A15951   9.879  43.033   8.780
  919POPC   D2A15952   9.770  42.830   8.457
  919POPC   C3A15953   9.711  43.081   8.092
  919POPC   C4A15954   9.880  42.883   7.743
  919POPC   C1B15955  10.098  43.487   8.693
  919POPC   C2B15956   9.880  43.590   8.320
  919POPC   C3B15957   9.930  43.521   7.881
  919POPC   C4B15958   9.672  43.364   7.578
  920POPC   NC315959   0.722   6.043   9.216
  920POPC   PO415960   1.271   5.730   9.452
  920POPC   GL115961   1.124   5.724   9.088
  920POPC   GL215962   0.812   5.526   9.067
  920POPC   C1A15963   1.344   5.859   8.732
  920POPC   D2A15964   1.351   5.628   8.378
  920POPC   C3A15965   1.396   5.882   8.043
  920POPC   C4A15966   1.277   5.786   7.658
  920POPC   C1B15967   0.883   5.649   8.638
  920POPC   C2B15968   0.922   5.961   8.301
  920POPC   C3B15969   0.915   6.111   7.860
  920POPC   C4B15970   0.779   5.778   7.572
  921POPC   NC315971  22.984  35.817   9.553
  921POPC   PO415972  22.825  35.160   9.553
  921POPC   GL115973  23.043  35.324   9.160
  921POPC   GL215974  23.078  34.983   9.115
  921POPC   C1A15975  23.361  35.251   8.779
  921POPC   D2A15976  23.141  35.362   8.376
  921POPC   C3A15977  23.294  35.451   7.974
  921POPC   C4A15978  23.017  35.640   7.687
  921POPC   C1B15979  22.888  35.083   8.726
  921POPC   C2B15980  22.751  35.024   8.311
  921POPC   C3B15981  22.990  35.063   7.938
  921POPC   C4B15982  22.974  35.053   7.483
  922POPC   NC315983  12.789  42.038   9.523
  922POPC   PO415984  12.572  42.537   9.256
  922POPC   GL115985  12.840  42.281   9.027
  922POPC   GL215986  13.140  42.039   9.147
  922POPC   C1A15987  12.605  42.259   8.640
  922POPC   D2A15988  12.481  42.551   8.310
  922POPC   C3A15989  12.718  42.552   7.911
  922POPC   C4A15990  12.421  42.347   7.736
  922POPC   C1B15991  12.993  41.892   8.754
  922POPC   C2B15992  12.987  42.131   8.348
  922POPC   C3B15993  12.756  42.042   8.013
  922POPC   C4B15994  12.949  41.868   7.682
  923POPC   NC315995  22.504   8.571   9.246
  923POPC   PO415996  22.308   9.094   9.659
  923POPC   GL115997  22.055   8.971   9.212
  923POPC   GL215998  21.972   8.619   9.272
  923POPC   C1A15999  22.070   9.145   8.755
  923POPC   D2A16000  21.980   9.085   8.297
  923POPC   C3A16001  22.310   8.994   7.969
  923POPC   C4A16002  22.224   9.082   7.533
  923POPC   C1B16003  21.974   8.654   8.824
  923POPC   C2B16004  22.034   8.559   8.381
  923POPC   C3B16005  21.929   8.656   7.953
  923POPC   C4B16006  22.232   8.567   7.616
  924POPC   NC316007   2.882  30.070   9.499
  924POPC   PO416008   2.349  29.591   9.440
  924POPC   GL116009   2.699  29.754   9.134
  924POPC   GL216010   2.716  30.170   9.046
  924POPC   C1A16011   3.028  29.847   8.830
  924POPC   D2A16012   2.826  29.978   8.457
  924POPC   C3A16013   2.947  29.777   8.085
  924POPC   C4A16014   3.087  30.065   7.796
  924POPC   C1B16015   2.447  30.194   8.719
  924POPC   C2B16016   2.265  30.138   8.343
  924POPC   C3B16017   2.537  30.116   7.990
  924POPC   C4B16018   2.405  30.313   7.617
  925POPC   NC316019  15.695  37.029   9.893
  925POPC   PO416020  16.145  37.219   9.482
  925POPC   GL116021  16.011  37.024   9.105
  925POPC   GL216022  15.635  37.072   9.033
  925POPC   C1A16023  16.026  37.138   8.684
  925POPC   D2A16024  15.844  37.147   8.303
  925POPC   C3A16025  15.996  36.913   7.932
  925POPC   C4A16026  16.097  37.079   7.543
  925POPC   C1B16027  15.700  36.729   8.698
  925POPC   C2B16028  15.647  36.666   8.250
  925POPC   C3B16029  15.508  36.998   7.963
  925POPC   C4B16030  15.581  37.028   7.537
  926POPC   NC316031  38.988  11.014   9.460
  926POPC   PO416032  38.355  11.159   9.531
  926POPC   GL116033  38.436  11.261   9.126
  926POPC   GL216034  38.182  11.486   9.138
  926POPC   C1A16035  38.482  11.472   8.732
  926POPC   D2A16036  38.330  11.274   8.293
  926POPC   C3A16037  38.662  11.268   7.932
  926POPC   C4A16038  38.840  11.629   7.687
  926POPC   C1B16039  37.988  11.367   8.762
  926POPC   C2B16040  37.798  11.611   8.466
  926POPC   C3B16041  37.897  11.597   8.056
  926POPC   C4B16042  38.155  11.240   7.795
  927POPC   NC316043  43.401  20.260   9.494
  927POPC   PO416044  43.014  19.769   9.634
  927POPC   GL116045  42.931  19.700   9.199
  927POPC   GL216046  43.228  19.893   9.150
  927POPC   C1A16047  43.066  19.609   8.745
  927POPC   D2A16048  43.168  19.807   8.342
  927POPC   C3A16049  42.956  19.717   7.946
  927POPC   C4A16050  42.897  19.645   7.488
  927POPC   C1B16051  43.111  20.138   8.793
  927POPC   C2B16052  43.361  20.303   8.458
  927POPC   C3B16053  43.356  20.168   8.052
  927POPC   C4B16054  42.998  20.209   7.800
  928POPC   NC316055  29.416   3.729   9.597
  928POPC   PO416056  29.746   3.301   9.466
  928POPC   GL116057  29.860   3.464   9.073
  928POPC   GL216058  29.838   3.827   9.094
  928POPC   C1A16059  29.922   3.340   8.639
  928POPC   D2A16060  30.234   3.483   8.316
  928POPC   C3A16061  30.224   3.281   7.915
  928POPC   C4A16062  29.850   3.303   7.631
  928POPC   C1B16063  29.563   3.716   8.725
  928POPC   C2B16064  29.673   3.625   8.295
  928POPC   C3B16065  29.928   3.718   7.936
  928POPC   C4B16066  29.898   3.990   7.574
  929POPC   NC316067  25.776   1.810   9.751
  929POPC   PO416068  25.176   2.070   9.596
  929POPC   GL116069  25.367   1.958   9.228
  929POPC   GL216070  25.584   2.214   9.229
  929POPC   C1A16071  25.372   1.825   8.805
  929POPC   D2A16072  25.136   1.875   8.444
  929POPC   C3A16073  25.297   1.918   8.032
  929POPC   C4A16074  25.194   1.624   7.743
  929POPC   C1B16075  25.314   2.324   8.875
  929POPC   C2B16076  25.319   2.356   8.438
  929POPC   C3B16077  25.682   2.211   8.214
  929POPC   C4B16078  25.777   2.063   7.805
  930POPC   NC316079  22.942   5.127   9.766
  930POPC   PO416080  23.407   5.526   9.563
  930POPC   GL116081  23.169   5.137   9.310
  930POPC   GL216082  22.800   5.102   9.265
  930POPC   C1A16083  23.069   5.114   8.825
  930POPC   D2A16084  22.926   5.324   8.393
  930POPC   C3A16085  23.065   5.176   7.964
  930POPC   C4A16086  23.288   4.835   7.738
  930POPC   C1B16087  22.580   4.993   8.890
  930POPC   C2B16088  22.715   4.871   8.497
  930POPC   C3B16089  22.612   4.949   8.095
  930POPC   C4B16090  22.743   4.875   7.720
  931POPC   NC316091   6.865  25.180   9.324
  931POPC   PO416092   6.315  25.477   9.619
  931POPC   GL116093   6.425  25.286   9.086
  931POPC   GL216094   6.411  25.543   8.891
  931POPC   C1A16095   6.399  25.023   8.667
  931POPC   D2A16096   6.500  24.718   8.333
  931POPC   C3A16097   6.695  24.862   7.928
  931POPC   C4A16098   6.657  25.048   7.506
  931POPC   C1B16099   6.740  25.420   8.676
  931POPC   C2B16100   6.851  25.139   8.403
  931POPC   C3B16101   6.798  25.356   8.049
  931POPC   C4B16102   6.698  25.540   7.685
  932POPC   NC316103  13.264  37.237   9.690
  932POPC   PO416104  13.698  36.746   9.656
  932POPC   GL116105  13.545  36.988   9.288
  932POPC   GL216106  13.860  37.097   9.151
  932POPC   C1A16107  13.310  36.973   8.894
  932POPC   D2A16108  13.316  36.658   8.534
  932POPC   C3A16109  13.420  36.764   8.089
  932POPC   C4A16110  13.392  36.991   7.657
  932POPC   C1B16111  13.776  36.891   8.731
  932POPC   C2B16112  13.848  36.999   8.289
  932POPC   C3B16113  13.850  36.915   7.834
  932POPC   C4B16114  13.836  37.105   7.388
  933POPC   NC316115  34.755  34.755   9.587
  933POPC   PO416116  34.141  34.659   9.485
  933POPC   GL116117  34.421  34.738   9.145
  933POPC   GL216118  34.748  34.887   9.112
  933POPC   C1A16119  34.429  34.614   8.717
  933POPC   D2A16120  34.348  34.658   8.268
  933POPC   C3A16121  34.688  34.533   7.984
  933POPC   C4A16122  34.729  34.426   7.534
  933POPC   C1B16123  34.878  35.123   8.804
  933POPC   C2B16124  34.741  34.929   8.447
  933POPC   C3B16125  34.698  35.050   8.058
  933POPC   C4B16126  34.761  34.921   7.660
  934POPC   NC316127  12.245  32.521   9.821
  934POPC   PO416128  11.729  32.352   9.437
  934POPC   GL116129  12.071  32.207   9.148
  934POPC   GL216130  12.330  32.468   9.092
  934POPC   C1A16131  12.201  32.021   8.739
  934POPC   D2A16132  12.187  31.990   8.318
  934POPC   C3A16133  12.150  32.222   7.961
  934POPC   C4A16134  12.097  31.887   7.672
  934POPC   C1B16135  12.080  32.503   8.707
  934POPC   C2B16136  12.229  32.569   8.332
  934POPC   C3B16137  11.987  32.737   8.072
  934POPC   C4B16138  11.783  32.599   7.743
  935POPC   NC316139  31.381  13.299   9.373
  935POPC   PO416140  31.688  12.687   9.519
  935POPC   GL116141  31.599  12.890   9.130
  935POPC   GL216142  31.823  13.160   9.083
  935POPC   C1A16143  31.383  12.848   8.700
  935POPC   D2A16144  31.407  12.623   8.269
  935POPC   C3A16145  31.199  12.638   7.874
  935POPC   C4A16146  31.166  12.886   7.501
  935POPC   C1B16147  31.910  12.896   8.722
  935POPC   C2B16148  31.712  13.027   8.330
  935POPC   C3B16149  31.648  12.964   7.889
  935POPC   C4B16150  32.004  12.829   7.623
  936POPC   NC316151  16.399  39.969   9.424
  936POPC   PO416152  16.891  40.388   9.570
  936POPC   GL116153  16.755  40.260   9.182
  936POPC   GL216154  16.441  40.376   9.077
  936POPC   C1A16155  16.727  40.036   8.806
  936POPC   D2A16156  16.976  40.119   8.467
  936POPC   C3A16157  16.923  40.055   8.060
  936POPC   C4A16158  16.832  40.331   7.727
  936POPC   C1B16159  16.264  40.240   8.681
  936POPC   C2B16160  16.366  40.008   8.278
  936POPC   C3B16161  16.490  39.972   7.817
  936POPC   C4B16162  16.320  39.979   7.405
  937POPC   NC316163   8.503  37.433   9.525
  937POPC   PO416164   7.807  37.333   9.468
  937POPC   GL116165   7.917  37.487   9.072
  937POPC   GL216166   8.243  37.601   9.098
  937POPC   C1A16167   7.992  37.653   8.644
  937POPC   D2A16168   7.830  37.914   8.320
  937POPC   C3A16169   7.944  37.799   7.879
  937POPC   C4A16170   8.290  37.513   7.767
  937POPC   C1B16171   8.401  37.937   8.831
  937POPC   C2B16172   8.389  38.165   8.426
  937POPC   C3B16173   8.402  38.014   7.999
  937POPC   C4B16174   8.315  38.060   7.554
  938POPC   NC316175  31.289  34.063   9.353
  938POPC   PO416176  31.593  34.685   9.351
  938POPC   GL116177  31.437  34.770   8.959
  938POPC   GL216178  31.167  34.523   9.057
  938POPC   C1A16179  31.606  34.803   8.546
  938POPC   D2A16180  31.500  34.614   8.166
  938POPC   C3A16181  31.477  34.847   7.802
  938POPC   C4A16182  31.666  34.793   7.408
  938POPC   C1B16183  31.445  34.308   8.760
  938POPC   C2B16184  31.818  34.288   8.536
  938POPC   C3B16185  31.884  34.294   8.112
  938POPC   C4B16186  31.592  34.296   7.764
  939POPC   NC316187  14.970  44.810   9.278
  939POPC   PO416188  15.472  44.375   9.360
  939POPC   GL116189  15.337  44.546   9.023
  939POPC   GL216190  15.407  44.851   9.004
  939POPC   C1A16191  15.041  44.529   8.694
  939POPC   D2A16192  15.051  44.641   8.286
  939POPC   C3A16193  15.015  44.401   7.945
  939POPC   C4A16194  15.457  44.397   7.829
  939POPC   C1B16195  15.069   0.033   8.665
  939POPC   C2B16196  14.925   0.113   8.226
  939POPC   C3B16197  15.042  44.917   7.819
  939POPC   C4B16198  14.842   0.000   7.444
  940POPC   NC316199   1.249  10.159   9.736
  940POPC   PO416200   1.683  10.629   9.550
  940POPC   GL116201   1.350  10.551   9.246
  940POPC   GL216202   1.153  10.252   9.239
  940POPC   C1A16203   1.114  10.736   8.912
  940POPC   D2A16204   1.130  10.953   8.508
  940POPC   C3A16205   1.333  10.769   8.155
  940POPC   C4A16206   1.187  10.771   7.726
  940POPC   C1B16207   1.311  10.270   8.805
  940POPC   C2B16208   1.092  10.441   8.471
  940POPC   C3B16209   0.877  10.571   8.094
  940POPC   C4B16210   0.884  10.382   7.710
  941POPC   NC316211   3.339  22.649   9.643
  941POPC   PO416212   3.877  23.080   9.579
  941POPC   GL116213   3.802  22.915   9.179
  941POPC   GL216214   3.624  22.625   9.195
  941POPC   C1A16215   3.509  22.985   8.847
  941POPC   D2A16216   3.380  23.166   8.473
  941POPC   C3A16217   3.616  23.186   8.102
  941POPC   C4A16218   3.430  23.020   7.717
  941POPC   C1B16219   3.787  22.547   8.801
  941POPC   C2B16220   3.774  22.797   8.430
  941POPC   C3B16221   3.905  22.742   8.026
  941POPC   C4B16222   3.911  22.902   7.624
  942POPC   NC316223   9.028   5.259   9.346
  942POPC   PO416224   9.279   4.671   9.492
  942POPC   GL116225   9.019   4.766   9.139
  942POPC   GL216226   8.668   4.776   9.182
  942POPC   C1A16227   8.896   4.922   8.735
  942POPC   D2A16228   8.968   4.878   8.322
  942POPC   C3A16229   8.842   5.250   8.119
  942POPC   C4A16230   8.920   5.468   7.753
  942POPC   C1B16231   8.442   4.700   8.836
  942POPC   C2B16232   8.554   4.598   8.430
  942POPC   C3B16233   8.608   4.785   7.981
  942POPC   C4B16234   8.567   5.122   7.683
  943POPC   NC316235  16.538  29.706   9.372
  943POPC   PO416236  16.987  30.069   9.490
  943POPC   GL116237  16.976  30.074   9.089
  943POPC   GL216238  16.649  30.232   9.137
  943POPC   C1A16239  17.056  30.076   8.653
  943POPC   D2A16240  16.801  30.052   8.286
  943POPC   C3A16241  16.952  30.227   7.903
  943POPC   C4A16242  16.933  30.205   7.448
  943POPC   C1B16243  16.569  29.966   8.787
  943POPC   C2B16244  16.306  29.991   8.489
  943POPC   C3B16245  16.345  29.980   8.072
  943POPC   C4B16246  16.615  29.863   7.775
  944POPC   NC316247  43.241  31.023   9.450
  944POPC   PO416248  42.745  30.619   9.417
  944POPC   GL116249  43.078  30.635   9.113
  944POPC   GL216250  43.126  30.935   8.964
  944POPC   C1A16251  43.161  30.498   8.720
  944POPC   D2A16252  43.281  30.761   8.410
  944POPC   C3A16253  43.328  30.473   8.132
  944POPC   C4A16254  43.230  30.354   7.723
  944POPC   C1B16255  43.102  31.194   8.611
  944POPC   C2B16256  42.998  31.107   8.183
  944POPC   C3B16257  43.111  30.845   7.869
  944POPC   C4B16258  43.293  30.910   7.468
  945POPC   NC316259   2.273   2.896   9.791
  945POPC   PO416260   2.840   2.842   9.452
  945POPC   GL116261   2.822   2.853   9.037
  945POPC   GL216262   2.731   2.532   8.944
  945POPC   C1A16263   3.030   3.038   8.703
  945POPC   D2A16264   2.849   3.108   8.320
  945POPC   C3A16265   2.983   3.015   7.939
  945POPC   C4A16266   2.693   2.734   7.751
  945POPC   C1B16267   2.702   2.660   8.518
  945POPC   C2B16268   2.376   2.652   8.191
  945POPC   C3B16269   2.279   2.360   7.837
  945POPC   C4B16270   2.571   2.296   7.478
  946POPC   NC316271   6.498   4.408   9.636
  946POPC   PO416272   5.961   4.118   9.788
  946POPC   GL116273   6.168   4.334   9.279
  946POPC   GL216274   6.587   4.327   9.139
  946POPC   C1A16275   6.259   4.175   8.815
  946POPC   D2A16276   6.588   4.373   8.556
  946POPC   C3A16277   6.639   4.181   8.186
  946POPC   C4A16278   6.355   4.283   7.874
  946POPC   C1B16279   6.988   4.402   8.868
  946POPC   C2B16280   7.120   4.683   8.515
  946POPC   C3B16281   6.961   4.606   8.114
  946POPC   C4B16282   6.819   4.379   7.754
  947POPC   NC316283  34.880  37.257   9.815
  947POPC   PO416284  34.832  36.650   9.630
  947POPC   GL116285  34.732  36.584   9.194
  947POPC   GL216286  34.376  36.707   9.151
  947POPC   C1A16287  34.747  36.748   8.776
  947POPC   D2A16288  34.907  37.062   8.493
  947POPC   C3A16289  34.883  36.915   8.066
  947POPC   C4A16290  34.622  36.567   7.887
  947POPC   C1B16291  34.288  36.953   8.749
  947POPC   C2B16292  34.460  36.836   8.325
  947POPC   C3B16293  34.380  37.022   7.892
  947POPC   C4B16294  34.454  37.073   7.436
  948POPC   NC316295  12.428  12.176   9.421
  948POPC   PO416296  11.782  12.231   9.692
  948POPC   GL116297  11.988  12.199   9.178
  948POPC   GL216298  11.687  12.108   8.931
  948POPC   C1A16299  12.128  12.274   8.745
  948POPC   D2A16300  12.366  12.247   8.368
  948POPC   C3A16301  12.191  12.300   7.986
  948POPC   C4A16302  12.238  11.941   7.785
  948POPC   C1B16303  12.007  11.788   8.725
  948POPC   C2B16304  12.025  11.804   8.253
  948POPC   C3B16305  11.812  11.683   7.868
  948POPC   C4B16306  11.771  11.521   7.442
  949POPC   NC316307  14.110  11.110   9.507
  949POPC   PO416308  14.528  11.560   9.775
  949POPC   GL116309  14.450  11.438   9.226
  949POPC   GL216310  14.120  11.382   9.082
  949POPC   C1A16311  14.475  11.187   8.804
  949POPC   D2A16312  14.499  11.365   8.364
  949POPC   C3A16313  14.545  11.163   8.000
  949POPC   C4A16314  14.194  10.889   7.951
  949POPC   C1B16315  13.909  11.540   8.716
  949POPC   C2B16316  13.828  11.607   8.265
  949POPC   C3B16317  14.124  11.497   7.882
  949POPC   C4B16318  14.106  11.519   7.396
  950POPC   NC316319  38.914  44.205   9.611
  950POPC   PO416320  39.480  43.778   9.574
  950POPC   GL116321  39.407  44.000   9.222
  950POPC   GL216322  39.420  43.686   9.050
  950POPC   C1A16323  39.180  44.139   8.856
  950POPC   D2A16324  39.199  44.000   8.405
  950POPC   C3A16325  39.000  44.067   8.016
  950POPC   C4A16326  39.138  43.943   7.609
  950POPC   C1B16327  39.587  43.832   8.684
  950POPC   C2B16328  39.574  43.636   8.322
  950POPC   C3B16329  39.446  43.762   7.976
  950POPC   C4B16330  39.684  43.896   7.619
  951POPC   NC316331  27.387  40.655   9.321
  951POPC   PO416332  27.691  41.281   9.503
  951POPC   GL116333  27.743  41.003   9.146
  951POPC   GL216334  27.803  40.628   9.023
  951POPC   C1A16335  27.616  40.976   8.727
  951POPC   D2A16336  27.868  40.820   8.428
  951POPC   C3A16337  27.640  40.993   8.143
  951POPC   C4A16338  27.551  40.928   7.766
  951POPC   C1B16339  27.514  40.472   8.670
  951POPC   C2B16340  27.524  40.519   8.214
  951POPC   C3B16341  27.879  40.582   7.927
  951POPC   C4B16342  27.530  40.433   7.675
  952POPC   NC316343   8.743  10.068   9.518
  952POPC   PO416344   9.086   9.430   9.427
  952POPC   GL116345   8.857   9.616   9.114
  952POPC   GL216346   8.768   9.309   8.988
  952POPC   C1A16347   8.911   9.932   8.787
  952POPC   D2A16348   8.863  10.003   8.338
  952POPC   C3A16349   8.885   9.704   7.996
  952POPC   C4A16350   8.979   9.818   7.577
  952POPC   C1B16351   8.889   9.439   8.579
  952POPC   C2B16352   8.601   9.349   8.265
  952POPC   C3B16353   8.565   9.308   7.859
  952POPC   C4B16354   8.802   9.352   7.546
  953POPC   NC316355  36.321  11.560   9.491
  953POPC   PO416356  36.385  10.943   9.340
  953POPC   GL116357  36.156  11.119   9.063
  953POPC   GL216358  36.367  11.370   9.018
  953POPC   C1A16359  35.908  11.046   8.723
  953POPC   D2A16360  35.797  11.394   8.455
  953POPC   C3A16361  36.020  11.391   8.065
  953POPC   C4A16362  36.037  11.198   7.664
  953POPC   C1B16363  36.338  11.277   8.581
  953POPC   C2B16364  36.521  11.453   8.222
  953POPC   C3B16365  36.498  11.389   7.783
  953POPC   C4B16366  36.380  11.495   7.358
  954POPC   NC316367  43.719  21.646   9.646
  954POPC   PO416368  44.009  21.128   9.496
  954POPC   GL116369  43.815  21.354   9.145
  954POPC   GL216370  43.579  21.657   9.157
  954POPC   C1A16371  43.998  21.385   8.726
  954POPC   D2A16372  44.032  21.115   8.348
  954POPC   C3A16373  44.059  21.351   8.014
  954POPC   C4A16374  44.279  21.500   7.685
  954POPC   C1B16375  43.553  21.712   8.717
  954POPC   C2B16376  43.732  21.623   8.302
  954POPC   C3B16377  43.823  21.767   7.861
  954POPC   C4B16378  43.871  21.730   7.394
  955POPC   NC316379   6.983   0.470   9.410
  955POPC   PO416380   6.412   0.078   9.410
  955POPC   GL116381   6.604   0.339   9.102
  955POPC   GL216382   6.505   0.685   9.221
  955POPC   C1A16383   6.926   0.442   8.761
  955POPC   D2A16384   7.045   0.308   8.354
  955POPC   C3A16385   6.703   0.217   8.149
  955POPC   C4A16386   6.651   0.250   7.743
  955POPC   C1B16387   6.469   0.693   8.775
  955POPC   C2B16388   6.601   0.686   8.357
  955POPC   C3B16389   6.378   0.614   7.972
  955POPC   C4B16390   6.494   0.698   7.536
  956POPC   NC316391   9.441  37.734   9.261
  956POPC   PO416392   8.953  37.519   9.661
  956POPC   GL116393   8.971  37.476   9.204
  956POPC   GL216394   9.212  37.262   9.003
  956POPC   C1A16395   8.926  37.749   8.827
  956POPC   D2A16396   8.679  37.741   8.435
  956POPC   C3A16397   8.910  37.809   8.055
  956POPC   C4A16398   8.746  37.721   7.672
  956POPC   C1B16399   9.420  37.512   8.643
  956POPC   C2B16400   9.381  37.579   8.187
  956POPC   C3B16401   9.199  37.471   7.765
  956POPC   C4B16402   9.376  37.627   7.349
  957POPC   NC316403  39.422   9.139   9.501
  957POPC   PO416404  38.841   8.712   9.551
  957POPC   GL116405  39.139   8.783   9.215
  957POPC   GL216406  39.072   9.150   9.148
  957POPC   C1A16407  39.236   8.835   8.740
  957POPC   D2A16408  39.415   8.945   8.322
  957POPC   C3A16409  39.310   8.717   7.929
  957POPC   C4A16410  39.251   8.690   7.455
  957POPC   C1B16411  39.054   9.362   8.748
  957POPC   C2B16412  39.128   9.411   8.302
  957POPC   C3B16413  39.128   9.201   7.915
  957POPC   C4B16414  39.210   9.230   7.485
  958POPC   NC316415  10.334  10.003   9.530
  958POPC   PO416416  10.586  10.702   9.655
  958POPC   GL116417  10.551  10.492   9.298
  958POPC   GL216418  10.797  10.723   9.177
  958POPC   C1A16419  10.435  10.543   8.875
  958POPC   D2A16420  10.513  10.303   8.531
  958POPC   C3A16421  10.437  10.475   8.148
  958POPC   C4A16422  10.516  10.418   7.731
  958POPC   C1B16423  10.962  10.636   8.736
  958POPC   C2B16424  10.928  10.620   8.268
  958POPC   C3B16425  10.960  10.645   7.783
  958POPC   C4B16426  10.822  10.514   7.330
  959POPC   NC316427  34.967  26.834   9.575
  959POPC   PO416428  35.615  26.863   9.648
  959POPC   GL116429  35.362  26.966   9.236
  959POPC   GL216430  35.069  26.814   9.032
  959POPC   C1A16431  35.512  26.892   8.792
  959POPC   D2A16432  35.601  27.072   8.391
  959POPC   C3A16433  35.312  26.958   8.099
  959POPC   C4A16434  35.445  26.921   7.658
  959POPC   C1B16435  35.041  26.822   8.570
  959POPC   C2B16436  35.208  26.506   8.299
  959POPC   C3B16437  35.330  26.481   7.892
  959POPC   C4B16438  35.015  26.477   7.567
  960POPC   NC316439  39.490  18.746   9.695
  960POPC   PO416440  40.040  19.000   9.335
  960POPC   GL116441  40.073  18.979   8.959
  960POPC   GL216442  40.175  19.314   8.932
  960POPC   C1A16443  40.050  19.030   8.525
  960POPC   D2A16444  40.311  18.822   8.234
  960POPC   C3A16445  40.000  18.806   7.946
  960POPC   C4A16446  39.750  19.059   7.709
  960POPC   C1B16447  39.735  19.361   8.838
  960POPC   C2B16448  39.669  19.412   8.438
  960POPC   C3B16449  39.972  19.335   8.107
  960POPC   C4B16450  40.334  19.195   7.890
  961POPC   NC316451  19.134  21.856   9.506
  961POPC   PO416452  18.908  22.586   9.489
  961POPC   GL116453  19.183  22.317   9.225
  961POPC   GL216454  19.246  22.627   9.064
  961POPC   C1A16455  19.250  22.178   8.783
  961POPC   D2A16456  19.230  22.449   8.399
  961POPC   C3A16457  19.330  22.268   7.989
  961POPC   C4A16458  19.158  21.968   7.681
  961POPC   C1B16459  18.862  22.530   8.824
  961POPC   C2B16460  18.700  22.432   8.414
  961POPC   C3B16461  18.773  22.234   8.021
  961POPC   C4B16462  18.939  22.419   7.673
  962POPC   NC316463  40.028   7.306   9.436
  962POPC   PO416464  39.618   7.811   9.342
  962POPC   GL116465  39.917   7.750   9.031
  962POPC   GL216466  40.231   7.720   9.194
  962POPC   C1A16467  39.922   7.362   8.786
  962POPC   D2A16468  39.766   7.086   8.465
  962POPC   C3A16469  39.875   7.311   8.105
  962POPC   C4A16470  39.967   7.167   7.692
  962POPC   C1B16471  40.344   7.657   8.755
  962POPC   C2B16472  40.146   7.708   8.357
  962POPC   C3B16473  40.192   7.665   7.910
  962POPC   C4B16474  40.407   7.392   7.622
  963POPC   NC316475  11.227  40.326   9.531
  963POPC   PO416476  11.398  40.963   9.468
  963POPC   GL116477  11.292  40.882   9.089
  963POPC   GL216478  11.435  40.577   9.125
  963POPC   C1A16479  11.147  40.740   8.699
  963POPC   D2A16480  11.097  40.533   8.310
  963POPC   C3A16481  11.238  40.744   7.940
  963POPC   C4A16482  11.036  40.613   7.517
  963POPC   C1B16483  11.648  40.493   8.789
  963POPC   C2B16484  11.582  40.577   8.383
  963POPC   C3B16485  11.670  40.442   7.986
  963POPC   C4B16486  11.541  40.518   7.589
  964POPC   NC316487  15.385  43.917   9.456
  964POPC   PO416488  14.857  44.352   9.345
  964POPC   GL116489  15.095  44.098   9.055
  964POPC   GL216490  14.959  43.793   8.905
  964POPC   C1A16491  15.381  44.147   8.705
  964POPC   D2A16492  15.459  43.902   8.354
  964POPC   C3A16493  15.160  43.916   8.041
  964POPC   C4A16494  15.168  44.042   7.603
  964POPC   C1B16495  15.424  43.671   8.852
  964POPC   C2B16496  15.641  43.450   8.516
  964POPC   C3B16497  15.549  43.466   8.079
  964POPC   C4B16498  15.253  43.527   7.733
  965POPC   NC316499  22.626  27.928   9.766
  965POPC   PO416500  22.385  27.443   9.695
  965POPC   GL116501  22.237  27.406   9.244
  965POPC   GL216502  22.479  27.181   9.143
  965POPC   C1A16503  22.068  27.541   8.803
  965POPC   D2A16504  21.821  27.775   8.467
  965POPC   C3A16505  21.938  27.749   8.013
  965POPC   C4A16506  21.873  27.587   7.568
  965POPC   C1B16507  22.519  27.340   8.698
  965POPC   C2B16508  22.259  27.398   8.318
  965POPC   C3B16509  22.351  27.463   7.878
  965POPC   C4B16510  22.646  27.214   7.640
  966POPC   NC316511  28.499  25.631   9.809
  966POPC   PO416512  28.020  25.210   9.540
  966POPC   GL116513  28.130  25.210   9.108
  966POPC   GL216514  28.498  25.271   9.116
  966POPC   C1A16515  28.229  25.085   8.709
  966POPC   D2A16516  28.492  25.235   8.405
  966POPC   C3A16517  28.292  25.209   8.054
  966POPC   C4A16518  28.331  25.391   7.717
  966POPC   C1B16519  28.747  25.457   8.783
  966POPC   C2B16520  28.688  25.781   8.505
  966POPC   C3B16521  28.602  25.690   8.098
  966POPC   C4B16522  28.859  25.404   7.893
  967POPC   NC316523  36.021   1.317   9.485
  967POPC   PO416524  36.540   0.878   9.468
  967POPC   GL116525  36.452   1.165   9.142
  967POPC   GL216526  36.120   1.254   9.001
  967POPC   C1A16527  36.543   1.208   8.742
  967POPC   D2A16528  36.251   1.243   8.438
  967POPC   C3A16529  36.336   1.076   8.041
  967POPC   C4A16530  36.245   1.229   7.611
  967POPC   C1B16531  35.826   1.412   8.732
  967POPC   C2B16532  35.919   1.624   8.375
  967POPC   C3B16533  35.736   1.741   8.021
  967POPC   C4B16534  35.832   1.595   7.599
  968POPC   NC316535   9.453  19.529   9.429
  968POPC   PO416536  10.062  19.904   9.486
  968POPC   GL116537   9.934  19.983   9.093
  968POPC   GL216538   9.831  19.651   9.111
  968POPC   C1A16539   9.921  19.978   8.659
  968POPC   D2A16540   9.750  20.159   8.308
  968POPC   C3A16541   9.971  19.972   8.044
  968POPC   C4A16542  10.090  20.117   7.704
  968POPC   C1B16543   9.644  19.552   8.754
  968POPC   C2B16544   9.493  19.702   8.386
  968POPC   C3B16545   9.578  19.663   7.981
  968POPC   C4B16546   9.858  19.669   7.614
  969POPC   NC316547  28.427  29.681   9.589
  969POPC   PO416548  28.319  28.994   9.693
  969POPC   GL116549  28.177  29.047   9.171
  969POPC   GL216550  28.242  29.374   9.071
  969POPC   C1A16551  28.366  28.939   8.721
  969POPC   D2A16552  28.387  28.663   8.379
  969POPC   C3A16553  28.376  28.893   7.999
  969POPC   C4A16554  28.096  28.901   7.659
  969POPC   C1B16555  28.574  29.400   8.740
  969POPC   C2B16556  28.516  29.327   8.333
  969POPC   C3B16557  28.696  29.321   7.956
  969POPC   C4B16558  28.405  29.296   7.677
  970POPC   NC316559  22.094   5.605   9.543
  970POPC   PO416560  22.544   6.116   9.480
  970POPC   GL116561  22.247   5.988   9.157
  970POPC   GL216562  21.994   5.728   9.079
  970POPC   C1A16563  22.269   5.961   8.733
  970POPC   D2A16564  22.160   5.720   8.434
  970POPC   C3A16565  22.319   5.895   8.129
  970POPC   C4A16566  22.307   5.774   7.738
  970POPC   C1B16567  21.769   5.824   8.730
  970POPC   C2B16568  21.630   5.631   8.361
  970POPC   C3B16569  21.889   5.603   8.015
  970POPC   C4B16570  21.929   5.435   7.623
  971POPC   NC316571   1.788  31.605   9.455
  971POPC   PO416572   2.317  31.941   9.485
  971POPC   GL116573   2.190  31.661   9.169
  971POPC   GL216574   2.243  31.319   9.262
  971POPC   C1A16575   1.897  31.546   8.806
  971POPC   D2A16576   1.855  31.669   8.375
  971POPC   C3A16577   1.756  31.481   7.975
  971POPC   C4A16578   1.925  31.636   7.584
  971POPC   C1B16579   2.364  31.358   8.821
  971POPC   C2B16580   2.211  31.298   8.405
  971POPC   C3B16581   2.252  31.471   8.013
  971POPC   C4B16582   2.460  31.319   7.672
  972POPC   NC316583  25.918  38.826   9.533
  972POPC   PO416584  26.171  38.251   9.482
  972POPC   GL116585  26.153  38.560   9.145
  972POPC   GL216586  25.824  38.551   9.091
  972POPC   C1A16587  26.147  38.553   8.697
  972POPC   D2A16588  26.374  38.327   8.380
  972POPC   C3A16589  26.211  38.313   7.955
  972POPC   C4A16590  26.233  38.629   7.645
  972POPC   C1B16591  25.743  38.257   8.720
  972POPC   C2B16592  25.792  38.327   8.266
  972POPC   C3B16593  25.738  38.477   7.838
  972POPC   C4B16594  25.595  38.817   7.604
  973POPC   NC316595   7.522  43.258   9.459
  973POPC   PO416596   7.076  42.721   9.453
  973POPC   GL116597   7.238  43.001   9.099
  973POPC   GL216598   7.633  43.007   9.025
  973POPC   C1A16599   7.310  43.015   8.643
  973POPC   D2A16600   7.315  43.310   8.313
  973POPC   C3A16601   7.183  43.066   7.964
  973POPC   C4A16602   7.254  43.113   7.498
  973POPC   C1B16603   7.854  42.998   8.619
  973POPC   C2B16604   7.651  42.906   8.230
  973POPC   C3B16605   7.712  42.959   7.808
  973POPC   C4B16606   7.741  43.164   7.402
  974POPC   NC316607  23.199  26.287   9.589
  974POPC   PO416608  22.892  25.682   9.440
  974POPC   GL116609  23.060  25.943   9.194
  974POPC   GL216610  22.770  26.147   9.167
  974POPC   C1A16611  23.079  25.852   8.775
  974POPC   D2A16612  22.882  25.826   8.384
  974POPC   C3A16613  23.049  26.098   8.134
  974POPC   C4A16614  23.051  25.963   7.750
  974POPC   C1B16615  22.609  26.062   8.737
  974POPC   C2B16616  22.594  26.324   8.344
  974POPC   C3B16617  22.594  26.176   7.903
  974POPC   C4B16618  22.688  26.286   7.453
  975POPC   NC316619   2.077   0.730   9.716
  975POPC   PO416620   2.409   0.190   9.475
  975POPC   GL116621   2.209   0.534   9.228
  975POPC   GL216622   2.181   0.236   8.991
  975POPC   C1A16623   1.928   0.616   8.843
  975POPC   D2A16624   2.027   0.364   8.452
  975POPC   C3A16625   1.868   0.488   8.027
  975POPC   C4A16626   2.146   0.466   7.672
  975POPC   C1B16627   1.848  44.979   8.795
  975POPC   C2B16628   1.796  44.758   8.430
  975POPC   C3B16629   1.915  44.979   8.067
  975POPC   C4B16630   1.716   0.082   7.694
  976POPC   NC316631   2.396  30.814   9.529
  976POPC   PO416632   1.794  31.097   9.361
  976POPC   GL116633   2.096  30.831   9.107
  976POPC   GL216634   2.350  30.549   9.092
  976POPC   C1A16635   2.272  30.882   8.703
  976POPC   D2A16636   2.021  30.794   8.368
  976POPC   C3A16637   1.946  31.013   8.036
  976POPC   C4A16638   1.978  31.101   7.641
  976POPC   C1B16639   2.023  30.455   8.733
  976POPC   C2B16640   1.780  30.337   8.369
  976POPC   C3B16641   1.923  30.259   7.942
  976POPC   C4B16642   1.778  30.231   7.519
  977POPC   NC316643  17.034   0.483   9.488
  977POPC   PO416644  16.404   0.265   9.443
  977POPC   GL116645  16.693   0.261   9.142
  977POPC   GL216646  16.752   0.619   9.039
  977POPC   C1A16647  16.751   0.155   8.728
  977POPC   D2A16648  16.915   0.406   8.411
  977POPC   C3A16649  16.875   0.252   8.002
  977POPC   C4A16650  16.625   0.486   7.680
  977POPC   C1B16651  16.931   0.855   8.675
  977POPC   C2B16652  17.192   0.809   8.289
  977POPC   C3B16653  17.052   0.696   7.862
  977POPC   C4B16654  17.043   0.535   7.388
  978POPC   NC316655  20.880  44.222   9.538
  978POPC   PO416656  20.560  44.857   9.418
  978POPC   GL116657  20.670  44.512   9.157
  978POPC   GL216658  21.014  44.520   9.133
  978POPC   C1A16659  20.581  44.531   8.731
  978POPC   D2A16660  20.360  44.838   8.466
  978POPC   C3A16661  20.438  44.705   8.068
  978POPC   C4A16662  20.640  44.889   7.737
  978POPC   C1B16663  21.016  44.801   8.753
  978POPC   C2B16664  20.870  44.832   8.339
  978POPC   C3B16665  21.087  44.845   7.963
  978POPC   C4B16666  21.102   0.009   7.540
  979POPC   NC316667   5.662  19.220   9.512
  979POPC   PO416668   5.485  19.693   9.353
  979POPC   GL116669   5.678  19.366   9.012
  979POPC   GL216670   5.779  18.995   9.064
  979POPC   C1A16671   6.012  19.249   8.675
  979POPC   D2A16672   6.100  18.934   8.323
  979POPC   C3A16673   5.950  19.005   7.879
  979POPC   C4A16674   5.825  19.239   7.481
  979POPC   C1B16675   5.685  18.851   8.629
  979POPC   C2B16676   5.721  18.585   8.247
  979POPC   C3B16677   5.662  18.587   7.792
  979POPC   C4B16678   5.893  18.714   7.422
  980POPC   NC316679  16.345  44.108   9.471
  980POPC   PO416680  15.771  43.691   9.586
  980POPC   GL116681  15.811  43.843   9.151
  980POPC   GL216682  16.005  44.133   9.091
  980POPC   C1A16683  15.900  43.854   8.676
  980POPC   D2A16684  15.951  43.919   8.218
  980POPC   C3A16685  15.968  43.655   7.857
  980POPC   C4A16686  15.618  43.910   7.802
  980POPC   C1B16687  16.342  44.158   8.718
  980POPC   C2B16688  16.442  43.942   8.306
  980POPC   C3B16689  16.387  43.948   7.817
  980POPC   C4B16690  16.436  43.789   7.345
  981POPC   NC316691  23.970  35.967   9.486
  981POPC   PO416692  23.718  36.598   9.465
  981POPC   GL116693  23.778  36.301   9.108
  981POPC   GL216694  23.642  35.999   9.073
  981POPC   C1A16695  23.879  36.124   8.661
  981POPC   D2A16696  23.733  36.177   8.260
  981POPC   C3A16697  23.878  36.007   7.891
  981POPC   C4A16698  23.703  36.282   7.605
  981POPC   C1B16699  23.299  35.758   8.791
  981POPC   C2B16700  23.438  35.771   8.372
  981POPC   C3B16701  23.380  35.936   7.962
  981POPC   C4B16702  23.503  35.815   7.575
  982POPC   NC316703   6.204  26.538   9.408
  982POPC   PO416704   5.745  26.928   9.569
  982POPC   GL116705   5.828  26.957   9.155
  982POPC   GL216706   6.168  27.010   9.152
  982POPC   C1A16707   5.824  26.967   8.705
  982POPC   D2A16708   5.843  27.152   8.286
  982POPC   C3A16709   5.647  26.906   7.966
  982POPC   C4A16710   5.566  27.020   7.550
  982POPC   C1B16711   6.293  26.756   8.796
  982POPC   C2B16712   6.245  26.869   8.396
  982POPC   C3B16713   6.106  26.672   8.056
  982POPC   C4B16714   6.032  26.747   7.637
  983POPC   NC316715  30.398  40.056   9.540
  983POPC   PO416716  31.008  40.030   9.326
  983POPC   GL116717  30.627  40.120   9.102
  983POPC   GL216718  30.377  39.811   9.086
  983POPC   C1A16719  30.602  40.309   8.725
  983POPC   D2A16720  30.815  40.313   8.346
  983POPC   C3A16721  30.603  40.284   7.970
  983POPC   C4A16722  30.988  40.193   7.791
  983POPC   C1B16723  30.610  39.775   8.726
  983POPC   C2B16724  30.576  39.605   8.335
  983POPC   C3B16725  30.507  39.783   7.893
  983POPC   C4B16726  30.410  39.640   7.466
  984POPC   NC316727  38.067   4.074   9.496
  984POPC   PO416728  37.389   4.115   9.520
  984POPC   GL116729  37.572   4.322   9.216
  984POPC   GL216730  37.825   4.512   9.396
  984POPC   C1A16731  37.525   4.272   8.787
  984POPC   D2A16732  37.442   3.973   8.461
  984POPC   C3A16733  37.621   4.124   8.099
  984POPC   C4A16734  37.809   3.983   7.731
  984POPC   C1B16735  37.992   4.486   8.952
  984POPC   C2B16736  37.874   4.508   8.503
  984POPC   C3B16737  37.713   4.653   8.098
  984POPC   C4B16738  37.858   4.503   7.713
  985POPC   NC316739   8.811   3.497   9.547
  985POPC   PO416740   9.395   3.056   9.499
  985POPC   GL116741   9.131   3.311   9.163
  985POPC   GL216742   8.945   3.646   9.096
  985POPC   C1A16743   8.953   3.316   8.721
  985POPC   D2A16744   9.044   3.489   8.324
  985POPC   C3A16745   8.975   3.397   7.883
  985POPC   C4A16746   9.263   3.666   7.624
  985POPC   C1B16747   8.971   3.897   8.755
  985POPC   C2B16748   8.753   3.909   8.392
  985POPC   C3B16749   8.958   3.900   7.991
  985POPC   C4B16750   8.818   3.871   7.569
  986POPC   NC316751   5.438  39.710   9.458
  986POPC   PO416752   4.971  40.290   9.540
  986POPC   GL116753   4.995  40.017   9.241
  986POPC   GL216754   5.292  40.141   9.126
  986POPC   C1A16755   4.987  39.800   8.872
  986POPC   D2A16756   4.885  39.862   8.453
  986POPC   C3A16757   5.040  39.748   8.106
  986POPC   C4A16758   4.972  39.799   7.700
  986POPC   C1B16759   5.143  40.257   8.709
  986POPC   C2B16760   5.404  40.214   8.339
  986POPC   C3B16761   5.490  40.367   7.974
  986POPC   C4B16762   5.120  40.271   7.808
  987POPC   NC316763  34.966   6.068   9.510
  987POPC   PO416764  34.351   5.666   9.514
  987POPC   GL116765  34.540   5.909   9.198
  987POPC   GL216766  34.861   5.747   9.124
  987POPC   C1A16767  34.492   6.014   8.760
  987POPC   D2A16768  34.364   5.897   8.304
  987POPC   C3A16769  34.673   5.979   7.922
  987POPC   C4A16770  34.990   6.336   7.883
  987POPC   C1B16771  34.761   5.562   8.696
  987POPC   C2B16772  34.694   5.526   8.237
  987POPC   C3B16773  34.889   5.441   7.845
  987POPC   C4B16774  34.841   5.563   7.400
  988POPC   NC316775  41.206  21.398   9.319
  988POPC   PO416776  41.805  21.653   9.468
  988POPC   GL116777  41.685  21.370   9.153
  988POPC   GL216778  41.508  21.684   9.036
  988POPC   C1A16779  41.527  21.226   8.753
  988POPC   D2A16780  41.455  20.923   8.438
  988POPC   C3A16781  41.526  21.142   8.046
  988POPC   C4A16782  41.588  21.159   7.594
  988POPC   C1B16783  41.404  21.732   8.635
  988POPC   C2B16784  41.301  21.622   8.245
  988POPC   C3B16785  41.545  21.669   7.904
  988POPC   C4B16786  41.382  21.639   7.524
  989POPC   NC316787   1.717   7.563   9.353
  989POPC   PO416788   1.031   7.383   9.415
  989POPC   GL116789   1.321   7.402   9.070
  989POPC   GL216790   1.557   7.107   9.110
  989POPC   C1A16791   1.313   7.612   8.659
  989POPC   D2A16792   1.118   7.462   8.275
  989POPC   C3A16793   1.199   7.585   7.849
  989POPC   C4A16794   1.046   7.326   7.528
  989POPC   C1B16795   1.735   7.097   8.688
  989POPC   C2B16796   1.599   7.269   8.306
  989POPC   C3B16797   1.356   7.108   7.965
  989POPC   C4B16798   1.542   7.219   7.594
  990POPC   NC316799  31.279  21.339   9.485
  990POPC   PO416800  31.808  20.944   9.685
  990POPC   GL116801  31.665  21.098   9.243
  990POPC   GL216802  31.699  21.443   9.042
  990POPC   C1A16803  31.358  21.126   8.860
  990POPC   D2A16804  31.513  21.305   8.494
  990POPC   C3A16805  31.564  21.018   8.126
  990POPC   C4A16806  31.724  21.274   7.796
  990POPC   C1B16807  31.268  21.630   8.882
  990POPC   C2B16808  31.187  21.728   8.444
  990POPC   C3B16809  31.477  21.659   8.097
  990POPC   C4B16810  31.409  21.632   7.641
  991POPC   NC316811   7.340   8.684   9.313
  991POPC   PO416812   7.456   9.362   9.501
  991POPC   GL116813   7.363   9.304   9.101
  991POPC   GL216814   7.603   9.041   9.083
  991POPC   C1A16815   7.494   9.313   8.671
  991POPC   D2A16816   7.434   9.217   8.288
  991POPC   C3A16817   7.756   9.143   8.050
  991POPC   C4A16818   7.477   9.240   7.737
  991POPC   C1B16819   7.435   8.816   8.698
  991POPC   C2B16820   7.614   8.698   8.308
  991POPC   C3B16821   7.365   8.791   7.974
  991POPC   C4B16822   7.261   8.828   7.555
  992POPC   NC316823  33.302   7.992   9.671
  992POPC   PO416824  33.072   8.570   9.489
  992POPC   GL116825  33.034   8.439   9.109
  992POPC   GL216826  33.137   8.118   9.200
  992POPC   C1A16827  32.949   8.496   8.677
  992POPC   D2A16828  32.882   8.369   8.262
  992POPC   C3A16829  33.093   8.469   7.887
  992POPC   C4A16830  33.109   8.473   7.409
  992POPC   C1B16831  32.962   8.008   8.829
  992POPC   C2B16832  33.022   7.875   8.430
  992POPC   C3B16833  33.031   7.952   8.025
  992POPC   C4B16834  33.262   8.015   7.678
  993POPC   NC316835   8.089  13.871   9.456
  993POPC   PO416836   8.149  13.230   9.433
  993POPC   GL116837   8.077  13.478   9.054
  993POPC   GL216838   7.867  13.782   9.020
  993POPC   C1A16839   8.368  13.568   8.716
  993POPC   D2A16840   8.519  13.359   8.335
  993POPC   C3A16841   8.409  13.537   7.981
  993POPC   C4A16842   8.216  13.379   7.656
  993POPC   C1B16843   7.992  13.905   8.635
  993POPC   C2B16844   8.006  13.616   8.304
  993POPC   C3B16845   7.884  13.676   7.883
  993POPC   C4B16846   7.824  14.082   7.632
  994POPC   NC316847   3.847  12.763   9.987
  994POPC   PO416848   4.449  12.686   9.627
  994POPC   GL116849   4.395  12.881   9.244
  994POPC   GL216850   4.370  13.206   9.285
  994POPC   C1A16851   4.341  12.702   8.827
  994POPC   D2A16852   4.408  12.540   8.424
  994POPC   C3A16853   4.138  12.572   8.073
  994POPC   C4A16854   4.015  12.465   7.650
  994POPC   C1B16855   4.025  13.095   8.966
  994POPC   C2B16856   4.026  12.964   8.521
  994POPC   C3B16857   4.024  13.077   8.077
  994POPC   C4B16858   4.353  12.952   7.807
  995POPC   NC316859   2.541  42.734   9.429
  995POPC   PO416860   2.814  42.046   9.560
  995POPC   GL116861   2.832  42.353   9.209
  995POPC   GL216862   2.740  42.052   9.054
  995POPC   C1A16863   2.702  42.577   8.800
  995POPC   D2A16864   2.389  42.516   8.462
  995POPC   C3A16865   2.585  42.565   8.034
  995POPC   C4A16866   3.004  42.714   7.882
  995POPC   C1B16867   2.451  42.053   8.720
  995POPC   C2B16868   2.512  42.065   8.276
  995POPC   C3B16869   2.656  42.035   7.867
  995POPC   C4B16870   2.921  42.289   7.640
  996POPC   NC316871  44.496  41.492   9.443
  996POPC   PO416872  44.050  41.820   9.760
  996POPC   GL116873  43.815  41.823   9.315
  996POPC   GL216874  44.031  41.546   9.172
  996POPC   C1A16875  43.618  41.705   8.900
  996POPC   D2A16876  43.861  41.582   8.538
  996POPC   C3A16877  43.710  41.533   8.134
  996POPC   C4A16878  43.485  41.686   7.772
  996POPC   C1B16879  44.307  41.479   8.784
  996POPC   C2B16880  44.423  41.630   8.376
  996POPC   C3B16881  44.182  41.697   8.015
  996POPC   C4B16882  43.943  41.490   7.676
  997POPC   NC316883   8.794  32.141   9.594
  997POPC   PO416884   9.432  32.478   9.446
  997POPC   GL116885   9.075  32.298   9.173
  997POPC   GL216886   8.758  32.489   9.172
  997POPC   C1A16887   8.734  32.032   8.939
  997POPC   D2A16888   8.584  32.117   8.481
  997POPC   C3A16889   8.798  32.119   8.042
  997POPC   C4A16890   9.229  32.035   7.818
  997POPC   C1B16891   8.849  32.474   8.746
  997POPC   C2B16892   8.872  32.559   8.347
  997POPC   C3B16893   9.093  32.535   7.993
  997POPC   C4B16894   8.995  32.443   7.592
  998POPC   NC316895  41.498  33.127   9.409
  998POPC   PO416896  42.055  33.476   9.580
  998POPC   GL116897  41.898  33.318   9.149
  998POPC   GL216898  41.949  32.993   9.076
  998POPC   C1A16899  41.565  33.159   8.780
  998POPC   D2A16900  41.364  32.923   8.436
  998POPC   C3A16901  41.455  33.132   8.023
  998POPC   C4A16902  41.336  33.003   7.600
  998POPC   C1B16903  42.033  33.316   8.672
  998POPC   C2B16904  41.912  33.326   8.222
  998POPC   C3B16905  41.974  33.255   7.767
  998POPC   C4B16906  41.841  33.251   7.325
  999POPC   NC316907  13.663  33.104   9.614
  999POPC   PO416908  14.027  32.581   9.845
  999POPC   GL116909  13.855  32.768   9.312
  999POPC   GL216910  13.592  33.099   9.117
  999POPC   C1A16911  13.790  32.724   8.874
  999POPC   D2A16912  13.657  33.046   8.576
  999POPC   C3A16913  13.547  32.909   8.158
  999POPC   C4A16914  13.660  32.841   7.736
  999POPC   C1B16915  13.243  33.278   8.781
  999POPC   C2B16916  13.344  33.380   8.295
  999POPC   C3B16917  13.535  33.321   7.857
  999POPC   C4B16918  13.325  33.130   7.469
 1000POPC   NC316919  42.182  29.999   9.525
 1000POPC   PO416920  42.899  29.929   9.678
 1000POPC   GL116921  42.640  29.871   9.241
 1000POPC   GL216922  42.289  29.662   9.164
 1000POPC   C1A16923  42.508  29.912   8.783
 1000POPC   D2A16924  42.346  29.721   8.396
 1000POPC   C3A16925  42.541  29.926   8.100
 1000POPC   C4A16926  42.472  29.810   7.704
 1000POPC   C1B16927  42.013  29.796   8.784
 1000POPC   C2B16928  42.073  30.126   8.441
 1000POPC   C3B16929  42.076  30.107   7.963
 1000POPC   C4B16930  41.966  29.749   7.699
 1001POPC   NC316931  11.381  17.992   9.773
 1001POPC   PO416932  11.171  18.642   9.564
 1001POPC   GL116933  11.244  18.444   9.213
 1001POPC   GL216934  11.545  18.462   9.092
 1001POPC   C1A16935  11.168  18.615   8.805
 1001POPC   D2A16936  11.053  18.448   8.435
 1001POPC   C3A16937  11.014  18.560   8.041
 1001POPC   C4A16938  11.196  18.287   7.742
 1001POPC   C1B16939  11.466  18.237   8.668
 1001POPC   C2B16940  11.467  18.193   8.214
 1001POPC   C3B16941  11.704  18.386   7.915
 1001POPC   C4B16942  11.662  18.395   7.501
 1002POPC   NC316943   2.349  37.707   9.320
 1002POPC   PO416944   2.915  37.333   9.501
 1002POPC   GL116945   2.789  37.478   9.141
 1002POPC   GL216946   2.880  37.813   9.194
 1002POPC   C1A16947   2.934  37.477   8.730
 1002POPC   D2A16948   3.087  37.706   8.401
 1002POPC   C3A16949   2.814  37.624   8.088
 1002POPC   C4A16950   2.997  37.449   7.801
 1002POPC   C1B16951   2.671  37.944   8.799
 1002POPC   C2B16952   2.697  38.042   8.355
 1002POPC   C3B16953   2.638  38.095   7.892
 1002POPC   C4B16954   2.491  38.053   7.460
 1003POPC   NC316955  41.981  37.183   9.586
 1003POPC   PO416956  42.317  36.570   9.552
 1003POPC   GL116957  42.332  36.931   9.189
 1003POPC   GL216958  41.993  37.024   9.111
 1003POPC   C1A16959  42.591  36.989   8.748
 1003POPC   D2A16960  42.763  36.877   8.285
 1003POPC   C3A16961  42.448  36.733   7.957
 1003POPC   C4A16962  41.981  36.651   7.938
 1003POPC   C1B16963  42.160  37.238   8.779
 1003POPC   C2B16964  42.238  37.041   8.382
 1003POPC   C3B16965  42.200  37.203   7.998
 1003POPC   C4B16966  42.530  37.191   7.703
 1004POPC   NC316967   1.627  14.934   9.469
 1004POPC   PO416968   1.892  15.512   9.363
 1004POPC   GL116969   1.991  15.185   9.109
 1004POPC   GL216970   2.332  15.255   9.103
 1004POPC   C1A16971   1.854  15.088   8.692
 1004POPC   D2A16972   1.776  15.376   8.342
 1004POPC   C3A16973   1.921  15.217   7.964
 1004POPC   C4A16974   1.682  14.891   7.806
 1004POPC   C1B16975   2.355  15.022   8.740
 1004POPC   C2B16976   2.269  15.128   8.334
 1004POPC   C3B16977   2.462  15.167   7.938
 1004POPC   C4B16978   2.386  15.025   7.521
 1005POPC   NC316979  19.285  24.744   9.422
 1005POPC   PO416980  19.060  24.120   9.500
 1005POPC   GL116981  19.120  24.354   9.139
 1005POPC   GL216982  19.469  24.340   9.115
 1005POPC   C1A16983  19.078  24.649   8.786
 1005POPC   D2A16984  19.092  24.931   8.401
 1005POPC   C3A16985  19.058  24.771   7.977
 1005POPC   C4A16986  19.053  24.558   7.579
 1005POPC   C1B16987  19.562  24.604   8.758
 1005POPC   C2B16988  19.388  24.494   8.339
 1005POPC   C3B16989  19.234  24.277   7.973
 1005POPC   C4B16990  19.322  24.150   7.544
 1006POPC   NC316991  12.079   4.490   9.580
 1006POPC   PO416992  11.476   4.484   9.538
 1006POPC   GL116993  11.672   4.383   9.132
 1006POPC   GL216994  11.973   4.162   9.162
 1006POPC   C1A16995  11.795   4.353   8.676
 1006POPC   D2A16996  11.889   4.466   8.251
 1006POPC   C3A16997  11.820   4.176   7.909
 1006POPC   C4A16998  11.831   4.321   7.487
 1006POPC   C1B16999  12.265   4.166   8.786
 1006POPC   C2B17000  12.390   4.336   8.352
 1006POPC   C3B17001  12.266   4.400   7.891
 1006POPC   C4B17002  12.226   4.033   7.557
 1007POPC   NC317003  20.881  13.818   9.134
 1007POPC   PO417004  21.252  13.564   9.610
 1007POPC   GL117005  21.441  13.697   9.214
 1007POPC   GL217006  21.516  13.362   9.079
 1007POPC   C1A17007  21.621  13.866   8.822
 1007POPC   D2A17008  21.618  14.071   8.397
 1007POPC   C3A17009  21.237  13.906   8.191
 1007POPC   C4A17010  21.052  13.795   7.784
 1007POPC   C1B17011  21.373  13.457   8.672
 1007POPC   C2B17012  21.609  13.577   8.328
 1007POPC   C3B17013  21.561  13.508   7.897
 1007POPC   C4B17014  21.245  13.315   7.645
 1008POPC   NC317015  18.779  17.695   9.519
 1008POPC   PO417016  18.560  17.142   9.468
 1008POPC   GL117017  18.859  17.335   9.137
 1008POPC   GL217018  19.016  17.689   9.074
 1008POPC   C1A17019  19.080  17.288   8.766
 1008POPC   D2A17020  19.139  17.569   8.431
 1008POPC   C3A17021  19.182  17.377   8.029
 1008POPC   C4A17022  19.448  17.277   7.696
 1008POPC   C1B17023  18.708  17.638   8.738
 1008POPC   C2B17024  18.660  17.682   8.289
 1008POPC   C3B17025  18.948  17.817   8.002
 1008POPC   C4B17026  19.360  17.939   7.897
 1009POPC   NC317027  34.403  39.713   9.544
 1009POPC   PO417028  34.955  39.455   9.492
 1009POPC   GL117029  34.705  39.737   9.130
 1009POPC   GL217030  34.328  39.687   9.037
 1009POPC   C1A17031  34.627  39.867   8.663
 1009POPC   D2A17032  34.485  39.625   8.286
 1009POPC   C3A17033  34.690  39.703   7.893
 1009POPC   C4A17034  34.655  40.117   7.670
 1009POPC   C1B17035  34.110  39.785   8.636
 1009POPC   C2B17036  34.003  39.792   8.192
 1009POPC   C3B17037  34.200  39.867   7.791
 1009POPC   C4B17038  34.471  39.700   7.443
 1010POPC   NC317039  35.905   9.229   9.419
 1010POPC   PO417040  36.237   8.598   9.429
 1010POPC   GL117041  36.246   8.909   9.133
 1010POPC   GL217042  35.984   9.086   8.934
 1010POPC   C1A17043  36.435   8.956   8.745
 1010POPC   D2A17044  36.181   9.040   8.420
 1010POPC   C3A17045  36.328   8.927   8.042
 1010POPC   C4A17046  36.232   9.056   7.641
 1010POPC   C1B17047  35.986   8.653   8.724
 1010POPC   C2B17048  35.809   8.633   8.262
 1010POPC   C3B17049  35.886   8.684   7.783
 1010POPC   C4B17050  35.843   8.920   7.346
 1011POPC   NC317051  21.468  25.728   9.276
 1011POPC   PO417052  21.177  26.333   9.347
 1011POPC   GL117053  21.345  26.190   9.008
 1011POPC   GL217054  21.651  26.041   8.897
 1011POPC   C1A17055  21.189  25.938   8.695
 1011POPC   D2A17056  21.136  26.064   8.284
 1011POPC   C3A17057  21.395  25.897   7.926
 1011POPC   C4A17058  21.380  25.857   7.465
 1011POPC   C1B17059  21.498  26.323   8.539
 1011POPC   C2B17060  21.454  26.389   8.076
 1011POPC   C3B17061  21.696  26.262   7.723
 1011POPC   C4B17062  21.756  26.161   7.301
 1012POPC   NC317063  16.170   0.686   9.458
 1012POPC   PO417064  15.613   0.333   9.534
 1012POPC   GL117065  15.921   0.358   9.153
 1012POPC   GL217066  15.772   0.658   9.076
 1012POPC   C1A17067  16.258   0.311   8.757
 1012POPC   D2A17068  16.439   0.282   8.291
 1012POPC   C3A17069  16.197   0.312   7.889
 1012POPC   C4A17070  16.150   0.527   7.475
 1012POPC   C1B17071  15.817   0.540   8.650
 1012POPC   C2B17072  16.025   0.580   8.293
 1012POPC   C3B17073  15.910   0.717   7.898
 1012POPC   C4B17074  15.534   0.736   7.722
 1013POPC   NC317075  17.115  33.230   9.456
 1013POPC   PO417076  16.443  33.247   9.381
 1013POPC   GL117077  16.766  32.982   9.187
 1013POPC   GL217078  16.836  32.636   9.179
 1013POPC   C1A17079  16.981  32.935   8.784
 1013POPC   D2A17080  17.054  33.219   8.430
 1013POPC   C3A17081  16.897  33.126   8.017
 1013POPC   C4A17082  17.046  33.377   7.682
 1013POPC   C1B17083  16.505  32.736   8.835
 1013POPC   C2B17084  16.255  32.824   8.490
 1013POPC   C3B17085  16.464  32.774   8.100
 1013POPC   C4B17086  16.512  32.946   7.727
 1014POPC   NC317087  18.407  31.425   9.639
 1014POPC   PO417088  18.555  32.041   9.422
 1014POPC   GL117089  18.245  31.719   9.232
 1014POPC   GL217090  18.432  31.409   9.130
 1014POPC   C1A17091  18.028  31.598   8.835
 1014POPC   D2A17092  18.350  31.550   8.526
 1014POPC   C3A17093  18.344  31.468   8.111
 1014POPC   C4A17094  18.614  31.590   7.796
 1014POPC   C1B17095  18.255  31.151   8.809
 1014POPC   C2B17096  18.075  31.095   8.386
 1014POPC   C3B17097  17.990  31.134   7.946
 1014POPC   C4B17098  18.335  31.162   7.658
 1015POPC   NC317099  25.703  11.622   9.336
 1015POPC   PO417100  25.253  11.212   9.663
 1015POPC   GL117101  25.373  11.239   9.184
 1015POPC   GL217102  25.063  11.230   8.969
 1015POPC   C1A17103  25.461  10.959   8.787
 1015POPC   D2A17104  25.208  11.125   8.410
 1015POPC   C3A17105  25.186  11.060   7.953
 1015POPC   C4A17106  25.432  11.168   7.534
 1015POPC   C1B17107  25.434  11.467   8.735
 1015POPC   C2B17108  25.621  11.496   8.327
 1015POPC   C3B17109  25.395  11.534   7.947
 1015POPC   C4B17110  24.965  11.500   7.780
 1016POPC   NC317111  31.359  39.787   9.477
 1016POPC   PO417112  31.717  40.364   9.490
 1016POPC   GL117113  31.473  40.202   9.143
 1016POPC   GL217114  31.594  39.876   9.019
 1016POPC   C1A17115  31.298  40.263   8.730
 1016POPC   D2A17116  31.480  40.378   8.353
 1016POPC   C3A17117  31.452  40.081   8.034
 1016POPC   C4A17118  31.477  40.197   7.619
 1016POPC   C1B17119  31.217  39.753   8.783
 1016POPC   C2B17120  31.029  39.839   8.399
 1016POPC   C3B17121  30.975  39.593   8.026
 1016POPC   C4B17122  31.061  39.707   7.630
 1017POPC   NC317123  30.204  16.686   9.583
 1017POPC   PO417124  29.564  16.713   9.483
 1017POPC   GL117125  29.855  16.563   9.204
 1017POPC   GL217126  29.988  16.885   9.117
 1017POPC   C1A17127  29.760  16.446   8.793
 1017POPC   D2A17128  29.569  16.579   8.422
 1017POPC   C3A17129  29.900  16.548   8.154
 1017POPC   C4A17130  29.956  16.422   7.759
 1017POPC   C1B17131  29.791  16.964   8.698
 1017POPC   C2B17132  29.758  17.038   8.236
 1017POPC   C3B17133  29.892  16.943   7.814
 1017POPC   C4B17134  29.729  17.070   7.415
 1018POPC   NC317135  29.839  24.640   9.578
 1018POPC   PO417136  30.444  24.818   9.527
 1018POPC   GL117137  30.118  24.739   9.165
 1018POPC   GL217138  29.854  24.494   9.094
 1018POPC   C1A17139  30.013  24.777   8.699
 1018POPC   D2A17140  29.955  24.435   8.350
 1018POPC   C3A17141  30.092  24.508   7.916
 1018POPC   C4A17142  30.042  24.763   7.534
 1018POPC   C1B17143  29.596  24.476   8.710
 1018POPC   C2B17144  29.413  24.382   8.312
 1018POPC   C3B17145  29.639  24.272   7.954
 1018POPC   C4B17146  29.678  24.349   7.476
 1019POPC   NC317147  29.386  27.147   9.362
 1019POPC   PO417148  29.283  26.451   9.483
 1019POPC   GL117149  29.123  26.489   9.093
 1019POPC   GL217150  29.043  26.822   9.134
 1019POPC   C1A17151  29.188  26.479   8.620
 1019POPC   D2A17152  29.014  26.657   8.220
 1019POPC   C3A17153  29.189  26.539   7.804
 1019POPC   C4A17154  29.083  26.539   7.360
 1019POPC   C1B17155  29.130  27.049   8.749
 1019POPC   C2B17156  29.372  27.026   8.362
 1019POPC   C3B17157  29.225  27.044   7.941
 1019POPC   C4B17158  29.417  27.215   7.575
 1020POPC   NC317159   3.418   6.525   9.489
 1020POPC   PO417160   3.853   7.040   9.388
 1020POPC   GL117161   3.739   6.638   9.127
 1020POPC   GL217162   3.360   6.674   9.012
 1020POPC   C1A17163   3.674   6.424   8.738
 1020POPC   D2A17164   3.363   6.612   8.435
 1020POPC   C3A17165   3.496   6.548   8.006
 1020POPC   C4A17166   3.945   6.586   7.906
 1020POPC   C1B17167   3.696   6.928   8.741
 1020POPC   C2B17168   3.896   6.741   8.410
 1020POPC   C3B17169   3.710   6.981   8.173
 1020POPC   C4B17170   3.679   6.998   7.793
 1021POPC   NC317171  42.104  43.236   9.563
 1021POPC   PO417172  41.520  42.963   9.837
 1021POPC   GL117173  41.437  42.856   9.379
 1021POPC   GL217174  41.666  43.130   9.272
 1021POPC   C1A17175  41.271  43.003   8.968
 1021POPC   D2A17176  41.516  43.124   8.583
 1021POPC   C3A17177  41.402  43.026   8.131
 1021POPC   C4A17178  41.449  43.346   7.814
 1021POPC   C1B17179  41.947  43.227   8.918
 1021POPC   C2B17180  42.082  43.027   8.545
 1021POPC   C3B17181  41.922  43.041   8.126
 1021POPC   C4B17182  41.806  42.989   7.706
 1022POPC   NC317183   4.688  31.395   9.794
 1022POPC   PO417184   5.097  31.786   9.492
 1022POPC   GL117185   5.180  31.578   9.157
 1022POPC   GL217186   4.986  31.266   9.214
 1022POPC   C1A17187   5.013  31.706   8.768
 1022POPC   D2A17188   5.086  31.547   8.390
 1022POPC   C3A17189   4.966  31.712   8.011
 1022POPC   C4A17190   5.125  31.634   7.601
 1022POPC   C1B17191   5.168  31.215   8.802
 1022POPC   C2B17192   5.065  31.028   8.423
 1022POPC   C3B17193   4.948  31.189   8.044
 1022POPC   C4B17194   5.070  31.103   7.662
 1023POPC   NC317195  37.439  44.358   9.547
 1023POPC   PO417196  37.973  44.755   9.576
 1023POPC   GL117197  37.666  44.720   9.206
 1023POPC   GL217198  37.467   0.018   9.114
 1023POPC   C1A17199  37.718  44.612   8.750
 1023POPC   D2A17200  37.539  44.639   8.318
 1023POPC   C3A17201  37.707  44.571   7.883
 1023POPC   C4A17202  37.891  44.704   7.448
 1023POPC   C1B17203  37.749   0.161   8.825
 1023POPC   C2B17204  37.877   0.088   8.415
 1023POPC   C3B17205  37.652   0.075   8.040
 1023POPC   C4B17206  37.527   0.001   7.626
 1024POPC   NC317207  35.702   7.595   9.529
 1024POPC   PO417208  35.064   7.303   9.425
 1024POPC   GL117209  35.318   7.341   9.098
 1024POPC   GL217210  35.638   7.251   8.981
 1024POPC   C1A17211  35.272   7.466   8.687
 1024POPC   D2A17212  35.522   7.234   8.418
 1024POPC   C3A17213  35.482   7.323   7.996
 1024POPC   C4A17214  35.138   7.323   7.727
 1024POPC   C1B17215  35.743   7.624   8.663
 1024POPC   C2B17216  35.480   7.779   8.331
 1024POPC   C3B17217  35.533   7.828   7.920
 1024POPC   C4B17218  35.886   7.665   7.792
 1025POPC   NC317219  19.868  42.094   9.532
 1025POPC   PO417220  19.728  42.717   9.682
 1025POPC   GL117221  19.661  42.564   9.270
 1025POPC   GL217222  20.007  42.524   9.277
 1025POPC   C1A17223  19.482  42.423   8.866
 1025POPC   D2A17224  19.356  42.261   8.451
 1025POPC   C3A17225  19.553  42.471   8.078
 1025POPC   C4A17226  19.738  42.264   7.713
 1025POPC   C1B17227  19.985  42.477   8.851
 1025POPC   C2B17228  19.911  42.602   8.421
 1025POPC   C3B17229  20.070  42.525   7.981
 1025POPC   C4B17230  20.278  42.294   7.648
 1026POPC   NC317231  25.195   1.561   9.502
 1026POPC   PO417232  25.772   1.203   9.700
 1026POPC   GL117233  25.501   1.126   9.187
 1026POPC   GL217234  25.230   1.339   9.077
 1026POPC   C1A17235  25.347   1.136   8.660
 1026POPC   D2A17236  25.284   1.391   8.267
 1026POPC   C3A17237  25.398   1.166   7.867
 1026POPC   C4A17238  25.384   1.246   7.403
 1026POPC   C1B17239  24.931   1.560   8.808
 1026POPC   C2B17240  24.767   1.498   8.397
 1026POPC   C3B17241  24.856   1.346   8.002
 1026POPC   C4B17242  24.922   1.190   7.610
 1027POPC   NC317243  12.346  40.591   9.534
 1027POPC   PO417244  13.029  40.715   9.552
 1027POPC   GL117245  12.844  40.708   9.156
 1027POPC   GL217246  12.608  40.415   9.121
 1027POPC   C1A17247  12.956  40.935   8.771
 1027POPC   D2A17248  13.034  40.731   8.356
 1027POPC   C3A17249  13.036  41.023   8.081
 1027POPC   C4A17250  12.749  40.956   7.815
 1027POPC   C1B17251  12.655  40.542   8.681
 1027POPC   C2B17252  12.539  40.692   8.239
 1027POPC   C3B17253  12.548  40.478   7.818
 1027POPC   C4B17254  12.478  40.372   7.346
 1028POPC   NC317255   0.182  23.264   9.258
 1028POPC   PO417256   0.673  22.830   9.517
 1028POPC   GL117257   0.447  22.835   9.132
 1028POPC   GL217258   0.128  22.626   9.041
 1028POPC   C1A17259   0.541  22.996   8.738
 1028POPC   D2A17260   0.417  22.791   8.379
 1028POPC   C3A17261   0.475  23.029   8.032
 1028POPC   C4A17262   0.828  23.016   7.765
 1028POPC   C1B17263   0.049  22.914   8.739
 1028POPC   C2B17264   0.023  23.135   8.384
 1028POPC   C3B17265  44.997  22.816   8.091
 1028POPC   C4B17266   0.217  22.718   7.734
 1029POPC   NC317267   2.402  12.408   9.469
 1029POPC   PO417268   2.996  12.059   9.533
 1029POPC   GL117269   2.779  11.989   9.202
 1029POPC   GL217270   2.760  12.319   9.112
 1029POPC   C1A17271   2.650  11.872   8.809
 1029POPC   D2A17272   2.265  11.860   8.563
 1029POPC   C3A17273   2.361  11.836   8.155
 1029POPC   C4A17274   2.676  11.874   7.852
 1029POPC   C1B17275   3.076  12.174   8.830
 1029POPC   C2B17276   2.939  12.051   8.411
 1029POPC   C3B17277   2.901  12.292   8.031
 1029POPC   C4B17278   3.235  12.336   7.763
 1030POPC   NC317279  27.050  35.328   9.684
 1030POPC   PO417280  27.712  35.593   9.523
 1030POPC   GL117281  27.636  35.415   9.153
 1030POPC   GL217282  27.427  35.669   9.042
 1030POPC   C1A17283  27.577  35.220   8.756
 1030POPC   D2A17284  27.446  35.024   8.343
 1030POPC   C3A17285  27.613  35.210   7.960
 1030POPC   C4A17286  27.902  35.498   7.706
 1030POPC   C1B17287  27.230  35.736   8.672
 1030POPC   C2B17288  27.175  35.599   8.265
 1030POPC   C3B17289  27.314  35.596   7.839
 1030POPC   C4B17290  27.477  35.553   7.438
 1031POPC   NC317291  11.656  33.888   9.485
 1031POPC   PO417292  11.001  33.681   9.557
 1031POPC   GL117293  11.266  33.689   9.222
 1031POPC   GL217294  11.284  34.030   9.138
 1031POPC   C1A17295  11.252  33.628   8.789
 1031POPC   D2A17296  11.172  33.332   8.456
 1031POPC   C3A17297  10.995  33.571   8.130
 1031POPC   C4A17298  11.276  33.749   7.840
 1031POPC   C1B17299  11.536  34.059   8.771
 1031POPC   C2B17300  11.502  33.996   8.341
 1031POPC   C3B17301  11.468  34.211   7.955
 1031POPC   C4B17302  11.184  34.245   7.650
 1032POPC   NC317303  43.104  38.304   9.609
 1032POPC   PO417304  43.290  38.923   9.353
 1032POPC   GL117305  43.179  38.627   9.052
 1032POPC   GL217306  43.014  38.318   9.112
 1032POPC   C1A17307  43.257  38.561   8.629
 1032POPC   D2A17308  43.065  38.292   8.350
 1032POPC   C3A17309  43.199  38.432   7.963
 1032POPC   C4A17310  43.322  38.825   7.787
 1032POPC   C1B17311  42.771  38.424   8.775
 1032POPC   C2B17312  42.586  38.500   8.406
 1032POPC   C3B17313  42.688  38.409   7.999
 1032POPC   C4B17314  42.821  38.412   7.599
 1033POPC   NC317315  43.691  10.814  10.089
 1033POPC   PO417316  43.262  10.325   9.674
 1033POPC   GL117317  43.094  10.478   9.224
 1033POPC   GL217318  43.385  10.529   9.006
 1033POPC   C1A17319  43.003  10.749   8.800
 1033POPC   D2A17320  43.115  10.574   8.381
 1033POPC   C3A17321  42.990  10.787   8.018
 1033POPC   C4A17322  42.772  10.930   7.662
 1033POPC   C1B17323  43.148  10.228   8.776
 1033POPC   C2B17324  42.999  10.057   8.396
 1033POPC   C3B17325  43.179  10.169   8.015
 1033POPC   C4B17326  43.440  10.531   7.929
 1034POPC   NC317327  26.323  37.814   9.456
 1034POPC   PO417328  25.654  37.465   9.597
 1034POPC   GL117329  25.888  37.599   9.192
 1034POPC   GL217330  25.922  37.970   9.121
 1034POPC   C1A17331  26.038  37.607   8.752
 1034POPC   D2A17332  26.033  37.899   8.430
 1034POPC   C3A17333  25.796  37.827   8.085
 1034POPC   C4A17334  25.644  37.991   7.698
 1034POPC   C1B17335  26.296  38.072   8.845
 1034POPC   C2B17336  26.536  37.857   8.514
 1034POPC   C3B17337  26.427  37.872   8.059
 1034POPC   C4B17338  26.120  37.806   7.695
 1035POPC   NC317339   1.659  30.619   9.354
 1035POPC   PO417340   1.044  30.840   9.293
 1035POPC   GL117341   1.216  30.481   9.046
 1035POPC   GL217342   1.543  30.383   8.906
 1035POPC   C1A17343   1.138  30.598   8.629
 1035POPC   D2A17344   0.909  30.805   8.301
 1035POPC   C3A17345   1.093  30.788   7.951
 1035POPC   C4A17346   1.052  30.397   7.749
 1035POPC   C1B17347   1.611  30.773   8.682
 1035POPC   C2B17348   1.509  30.786   8.233
 1035POPC   C3B17349   1.569  30.635   7.778
 1035POPC   C4B17350   1.628  30.823   7.334
 1036POPC   NC317351  38.046   4.798   9.826
 1036POPC   PO417352  37.536   5.057   9.522
 1036POPC   GL117353  37.777   4.967   9.206
 1036POPC   GL217354  37.563   4.798   9.006
 1036POPC   C1A17355  38.030   4.995   8.871
 1036POPC   D2A17356  37.893   5.020   8.465
 1036POPC   C3A17357  38.059   5.241   8.130
 1036POPC   C4A17358  37.980   5.008   7.746
 1036POPC   C1B17359  37.559   5.219   8.812
 1036POPC   C2B17360  37.534   5.371   8.417
 1036POPC   C3B17361  37.529   5.233   8.020
 1036POPC   C4B17362  37.767   5.464   7.771
 1037POPC   NC317363  32.016   0.582   9.484
 1037POPC   PO417364  32.627   0.238   9.398
 1037POPC   GL117365  32.399   0.448   9.168
 1037POPC   GL217366  32.462   0.772   9.293
 1037POPC   C1A17367  32.115   0.369   8.840
 1037POPC   D2A17368  32.176   0.207   8.470
 1037POPC   C3A17369  31.963   0.361   8.157
 1037POPC   C4A17370  32.163   0.312   7.778
 1037POPC   C1B17371  32.324   0.835   8.870
 1037POPC   C2B17372  32.145   0.734   8.479
 1037POPC   C3B17373  32.258   0.776   8.051
 1037POPC   C4B17374  32.535   0.731   7.727
 1038POPC   NC317375  44.094  44.364   9.613
 1038POPC   PO417376  43.946  44.970   9.394
 1038POPC   GL117377  43.911  44.581   9.202
 1038POPC   GL217378  44.234  44.417   9.127
 1038POPC   C1A17379  43.798  44.493   8.830
 1038POPC   D2A17380  44.014  44.512   8.469
 1038POPC   C3A17381  43.920  44.902   8.275
 1038POPC   C4A17382  43.810  44.911   7.847
 1038POPC   C1B17383  44.255  44.785   8.856
 1038POPC   C2B17384  44.413  44.848   8.459
 1038POPC   C3B17385  44.369  44.867   8.031
 1038POPC   C4B17386  44.234  44.584   7.720
 1039POPC   NC317387  38.651   9.775   9.523
 1039POPC   PO417388  38.032  10.038   9.292
 1039POPC   GL117389  38.386   9.940   9.136
 1039POPC   GL217390  38.285   9.618   9.141
 1039POPC   C1A17391  38.705   9.765   8.850
 1039POPC   D2A17392  38.632   9.499   8.476
 1039POPC   C3A17393  38.624   9.663   8.065
 1039POPC   C4A17394  38.529   9.949   7.732
 1039POPC   C1B17395  38.221   9.714   8.715
 1039POPC   C2B17396  38.075   9.642   8.352
 1039POPC   C3B17397  38.107   9.794   7.997
 1039POPC   C4B17398  38.250   9.525   7.689
 1040POPC   NC317399  36.911  25.251   9.741
 1040POPC   PO417400  37.364  25.383   9.235
 1040POPC   GL117401  36.895  25.287   9.196
 1040POPC   GL217402  36.818  24.993   9.312
 1040POPC   C1A17403  36.662  25.284   8.757
 1040POPC   D2A17404  37.007  25.234   8.432
 1040POPC   C3A17405  37.008  25.436   8.024
 1040POPC   C4A17406  36.721  25.307   7.727
 1040POPC   C1B17407  36.858  24.837   8.871
 1040POPC   C2B17408  36.661  24.860   8.421
 1040POPC   C3B17409  36.883  24.901   7.988
 1040POPC   C4B17410  36.886  24.870   7.488
 1041POPC   NC317411  11.928  32.729   9.275
 1041POPC   PO417412  11.807  33.407   9.511
 1041POPC   GL117413  12.026  33.262   9.140
 1041POPC   GL217414  12.279  33.041   9.141
 1041POPC   C1A17415  12.023  33.149   8.707
 1041POPC   D2A17416  11.833  33.163   8.316
 1041POPC   C3A17417  12.085  33.228   7.960
 1041POPC   C4A17418  12.012  33.038   7.548
 1041POPC   C1B17419  12.440  32.850   8.756
 1041POPC   C2B17420  12.396  33.048   8.351
 1041POPC   C3B17421  12.487  32.905   7.945
 1041POPC   C4B17422  12.298  32.615   7.690
 1042POPC   NC317423  28.922  21.300   9.560
 1042POPC   PO417424  29.564  21.096   9.643
 1042POPC   GL117425  29.297  21.160   9.223
 1042POPC   GL217426  29.106  21.444   9.120
 1042POPC   C1A17427  29.297  21.240   8.713
 1042POPC   D2A17428  29.251  21.542   8.339
 1042POPC   C3A17429  29.294  21.318   7.944
 1042POPC   C4A17430  29.128  21.180   7.507
 1042POPC   C1B17431  28.914  21.605   8.731
 1042POPC   C2B17432  28.695  21.593   8.337
 1042POPC   C3B17433  28.876  21.613   7.943
 1042POPC   C4B17434  28.697  21.492   7.571
 1043POPC   NC317435  42.660  36.544   9.223
 1043POPC   PO417436  43.173  36.996   9.353
 1043POPC   GL117437  43.243  36.820   9.007
 1043POPC   GL217438  43.439  37.014   8.807
 1043POPC   C1A17439  43.022  36.646   8.672
 1043POPC   D2A17440  43.108  36.361   8.337
 1043POPC   C3A17441  43.050  36.551   7.924
 1043POPC   C4A17442  43.130  36.624   7.463
 1043POPC   C1B17443  43.036  37.189   8.707
 1043POPC   C2B17444  42.900  37.374   8.343
 1043POPC   C3B17445  43.211  37.224   8.074
 1043POPC   C4B17446  43.046  37.045   7.725
 1044POPC   NC317447   9.598  40.740   9.736
 1044POPC   PO417448   9.992  40.360   9.261
 1044POPC   GL117449   9.728  40.693   9.042
 1044POPC   GL217450   9.743  41.018   9.198
 1044POPC   C1A17451   9.542  40.970   8.718
 1044POPC   D2A17452   9.673  41.064   8.284
 1044POPC   C3A17453   9.512  40.709   8.072
 1044POPC   C4A17454   9.729  40.393   7.857
 1044POPC   C1B17455  10.110  40.980   8.870
 1044POPC   C2B17456  10.276  41.183   8.484
 1044POPC   C3B17457  10.149  41.202   8.043
 1044POPC   C4B17458   9.874  40.942   7.804
 1045POPC   NC317459   4.961   8.851   9.564
 1045POPC   PO417460   4.784   9.420   9.602
 1045POPC   GL117461   4.995   9.152   9.165
 1045POPC   GL217462   5.128   8.792   9.101
 1045POPC   C1A17463   5.034   9.104   8.704
 1045POPC   D2A17464   4.906   9.386   8.356
 1045POPC   C3A17465   4.802   9.220   7.941
 1045POPC   C4A17466   5.059   9.050   7.594
 1045POPC   C1B17467   5.348   8.648   8.758
 1045POPC   C2B17468   5.237   8.520   8.334
 1045POPC   C3B17469   5.278   8.777   7.980
 1045POPC   C4B17470   5.559   8.941   7.661
 1046POPC   NC317471   1.186  32.097   9.387
 1046POPC   PO417472   0.862  32.538   9.812
 1046POPC   GL117473   1.090  32.579   9.303
 1046POPC   GL217474   1.447  32.511   9.149
 1046POPC   C1A17475   1.028  32.411   8.812
 1046POPC   D2A17476   0.912  32.096   8.440
 1046POPC   C3A17477   1.074  32.205   8.006
 1046POPC   C4A17478   1.156  32.193   7.545
 1046POPC   C1B17479   1.533  32.322   8.718
 1046POPC   C2B17480   1.467  32.453   8.270
 1046POPC   C3B17481   1.648  32.306   7.872
 1046POPC   C4B17482   1.689  32.515   7.456
 1047POPC   NC317483  21.808  34.286   9.340
 1047POPC   PO417484  22.301  34.473   9.773
 1047POPC   GL117485  22.152  34.662   9.399
 1047POPC   GL217486  22.315  34.428   9.261
 1047POPC   C1A17487  22.164  34.736   8.901
 1047POPC   D2A17488  22.280  34.654   8.457
 1047POPC   C3A17489  22.146  34.622   8.040
 1047POPC   C4A17490  22.293  34.743   7.646
 1047POPC   C1B17491  22.487  34.228   8.981
 1047POPC   C2B17492  22.435  34.197   8.599
 1047POPC   C3B17493  22.451  34.236   8.163
 1047POPC   C4B17494  22.382  34.232   7.735
 1048POPC   NC317495   7.723   9.013   9.683
 1048POPC   PO417496   8.303   9.005   9.599
 1048POPC   GL117497   8.354   9.010   9.130
 1048POPC   GL217498   8.065   8.844   8.972
 1048POPC   C1A17499   8.417   9.091   8.665
 1048POPC   D2A17500   8.136   8.908   8.323
 1048POPC   C3A17501   8.245   8.912   7.863
 1048POPC   C4A17502   8.513   8.940   7.469
 1048POPC   C1B17503   7.985   9.293   8.833
 1048POPC   C2B17504   7.987   9.494   8.407
 1048POPC   C3B17505   8.118   9.497   7.960
 1048POPC   C4B17506   7.970   9.263   7.586
 1049POPC   NC317507  32.797  14.416   9.293
 1049POPC   PO417508  33.460  14.665   9.383
 1049POPC   GL117509  33.223  14.539   9.073
 1049POPC   GL217510  33.216  14.212   9.026
 1049POPC   C1A17511  32.986  14.637   8.709
 1049POPC   D2A17512  32.837  14.519   8.320
 1049POPC   C3A17513  33.026  14.665   7.922
 1049POPC   C4A17514  33.277  14.639   7.504
 1049POPC   C1B17515  32.821  14.147   8.708
 1049POPC   C2B17516  32.600  14.056   8.332
 1049POPC   C3B17517  32.719  14.230   7.932
 1049POPC   C4B17518  33.110  14.183   7.693
 1050POPC   NC317519  40.522  42.364   9.426
 1050POPC   PO417520  41.027  42.650   9.678
 1050POPC   GL117521  40.991  42.547   9.217
 1050POPC   GL217522  41.215  42.283   9.108
 1050POPC   C1A17523  40.802  42.387   8.792
 1050POPC   D2A17524  40.623  42.563   8.398
 1050POPC   C3A17525  40.723  42.473   7.953
 1050POPC   C4A17526  40.604  42.613   7.537
 1050POPC   C1B17527  41.275  42.554   8.745
 1050POPC   C2B17528  41.154  42.616   8.320
 1050POPC   C3B17529  41.201  42.343   7.986
 1050POPC   C4B17530  41.098  41.975   7.804
 1051POPC   NC317531  15.529  42.635   9.381
 1051POPC   PO417532  15.937  42.177   9.604
 1051POPC   GL117533  15.905  42.246   9.110
 1051POPC   GL217534  15.727  42.498   8.946
 1051POPC   C1A17535  16.210  42.322   8.724
 1051POPC   D2A17536  16.376  42.402   8.282
 1051POPC   C3A17537  16.110  42.242   7.872
 1051POPC   C4A17538  16.141  42.541   7.498
 1051POPC   C1B17539  15.735  42.189   8.619
 1051POPC   C2B17540  15.861  42.426   8.285
 1051POPC   C3B17541  15.649  42.481   7.918
 1051POPC   C4B17542  15.467  42.227   7.628
 1052POPC   NC317543  24.774  24.661   9.485
 1052POPC   PO417544  24.147  24.298   9.341
 1052POPC   GL117545  24.529  24.383   9.139
 1052POPC   GL217546  24.421  24.695   9.101
 1052POPC   C1A17547  24.658  24.476   8.707
 1052POPC   D2A17548  24.538  24.676   8.323
 1052POPC   C3A17549  24.411  24.388   8.006
 1052POPC   C4A17550  24.534  24.444   7.587
 1052POPC   C1B17551  24.145  24.658   8.772
 1052POPC   C2B17552  24.044  24.684   8.378
 1052POPC   C3B17553  24.159  24.820   7.952
 1052POPC   C4B17554  24.182  24.784   7.481
 1053POPC   NC317555  11.919   0.643   9.396
 1053POPC   PO417556  12.426   0.356   9.234
 1053POPC   GL117557  12.172   0.422   8.999
 1053POPC   GL217558  12.229   0.784   9.009
 1053POPC   C1A17559  11.842   0.166   8.807
 1053POPC   D2A17560  11.707   0.220   8.376
 1053POPC   C3A17561  12.070   0.393   8.170
 1053POPC   C4A17562  12.242   0.397   7.768
 1053POPC   C1B17563  11.935   0.637   8.631
 1053POPC   C2B17564  11.669   0.719   8.281
 1053POPC   C3B17565  11.793   0.711   7.860
 1053POPC   C4B17566  12.085   0.861   7.578
 1054POPC   NC317567  11.874  21.247   9.483
 1054POPC   PO417568  12.391  21.723   9.588
 1054POPC   GL117569  12.230  21.536   9.183
 1054POPC   GL217570  11.947  21.411   9.025
 1054POPC   C1A17571  12.340  21.356   8.731
 1054POPC   D2A17572  12.185  21.564   8.330
 1054POPC   C3A17573  12.263  21.333   7.944
 1054POPC   C4A17574  12.363  21.218   7.519
 1054POPC   C1B17575  11.706  21.325   8.693
 1054POPC   C2B17576  11.674  21.400   8.298
 1054POPC   C3B17577  11.788  21.598   7.951
 1054POPC   C4B17578  11.853  21.311   7.640
 1055POPC   NC317579  39.973   8.109   9.424
 1055POPC   PO417580  39.629   8.698   9.522
 1055POPC   GL117581  39.918   8.520   9.132
 1055POPC   GL217582  40.225   8.247   9.026
 1055POPC   C1A17583  39.805   8.217   8.766
 1055POPC   D2A17584  39.644   7.897   8.475
 1055POPC   C3A17585  39.769   7.925   8.028
 1055POPC   C4A17586  39.989   8.101   7.644
 1055POPC   C1B17587  40.212   8.525   8.705
 1055POPC   C2B17588  40.371   8.543   8.347
 1055POPC   C3B17589  40.138   8.469   7.980
 1055POPC   C4B17590  40.225   8.570   7.551
 1056POPC   NC317591  32.654  10.946   9.561
 1056POPC   PO417592  33.173  11.344   9.568
 1056POPC   GL117593  32.916  11.398   9.226
 1056POPC   GL217594  32.743  11.684   9.198
 1056POPC   C1A17595  33.088  11.395   8.825
 1056POPC   D2A17596  32.900  11.263   8.438
 1056POPC   C3A17597  33.166  11.249   8.072
 1056POPC   C4A17598  33.135  11.462   7.684
 1056POPC   C1B17599  32.583  11.488   8.825
 1056POPC   C2B17600  32.539  11.640   8.416
 1056POPC   C3B17601  32.790  11.610   8.068
 1056POPC   C4B17602  32.628  11.517   7.701
 1057POPC   NC317603  15.875   9.839   9.696
 1057POPC   PO417604  16.413   9.601   9.401
 1057POPC   GL117605  16.007   9.761   9.204
 1057POPC   GL217606  15.715   9.573   9.227
 1057POPC   C1A17607  15.911   9.965   8.830
 1057POPC   D2A17608  16.180   9.888   8.487
 1057POPC   C3A17609  16.093   9.985   8.060
 1057POPC   C4A17610  16.153   9.760   7.683
 1057POPC   C1B17611  15.691   9.527   8.745
 1057POPC   C2B17612  15.729   9.698   8.305
 1057POPC   C3B17613  15.790   9.487   7.911
 1057POPC   C4B17614  15.774   9.553   7.425
 1058POPC   NC317615  39.966  25.002   9.448
 1058POPC   PO417616  39.590  25.541   9.441
 1058POPC   GL117617  39.909  25.403   9.142
 1058POPC   GL217618  40.249  25.565   9.089
 1058POPC   C1A17619  39.787  25.159   8.778
 1058POPC   D2A17620  39.688  24.959   8.385
 1058POPC   C3A17621  40.001  24.960   8.065
 1058POPC   C4A17622  39.894  25.080   7.598
 1058POPC   C1B17623  39.980  25.642   8.707
 1058POPC   C2B17624  39.907  25.436   8.305
 1058POPC   C3B17625  40.048  25.485   7.876
 1058POPC   C4B17626  39.837  25.605   7.503
 1059POPC   NC317627   4.670  31.649   9.331
 1059POPC   PO417628   4.140  31.294   9.645
 1059POPC   GL117629   4.334  31.257   9.191
 1059POPC   GL217630   4.538  30.982   9.090
 1059POPC   C1A17631   4.202  31.422   8.740
 1059POPC   D2A17632   4.272  31.228   8.386
 1059POPC   C3A17633   4.029  31.245   8.038
 1059POPC   C4A17634   4.139  31.359   7.618
 1059POPC   C1B17635   4.680  31.278   8.747
 1059POPC   C2B17636   4.581  31.638   8.445
 1059POPC   C3B17637   4.470  31.524   8.017
 1059POPC   C4B17638   4.645  31.476   7.629
 1060POPC   NC317639  17.643  20.129   9.478
 1060POPC   PO417640  17.476  20.822   9.548
 1060POPC   GL117641  17.499  20.739   9.120
 1060POPC   GL217642  17.241  20.541   8.968
 1060POPC   C1A17643  17.650  20.652   8.703
 1060POPC   D2A17644  17.488  20.453   8.340
 1060POPC   C3A17645  17.457  20.748   7.994
 1060POPC   C4A17646  17.722  20.815   7.618
 1060POPC   C1B17647  17.083  20.258   8.654
 1060POPC   C2B17648  17.046  20.026   8.303
 1060POPC   C3B17649  17.198  20.135   7.923
 1060POPC   C4B17650  17.456  20.357   7.674
 1061POPC   NC317651  17.259  36.956   9.567
 1061POPC   PO417652  17.825  36.583   9.433
 1061POPC   GL117653  17.492  36.759   9.159
 1061POPC   GL217654  17.221  36.531   9.101
 1061POPC   C1A17655  17.348  36.882   8.736
 1061POPC   D2A17656  17.630  36.876   8.350
 1061POPC   C3A17657  17.447  36.984   7.955
 1061POPC   C4A17658  17.608  37.149   7.565
 1061POPC   C1B17659  17.154  36.372   8.685
 1061POPC   C2B17660  17.354  36.461   8.290
 1061POPC   C3B17661  17.460  36.481   7.845
 1061POPC   C4B17662  17.297  36.759   7.518
 1062POPC   NC317663  42.030  21.206   9.529
 1062POPC   PO417664  42.711  21.556   9.541
 1062POPC   GL117665  42.495  21.343   9.234
 1062POPC   GL217666  42.183  21.462   9.123
 1062POPC   C1A17667  42.519  21.194   8.815
 1062POPC   D2A17668  42.320  21.298   8.426
 1062POPC   C3A17669  42.462  21.128   8.061
 1062POPC   C4A17670  42.414  21.328   7.698
 1062POPC   C1B17671  41.906  21.587   8.746
 1062POPC   C2B17672  41.794  21.470   8.350
 1062POPC   C3B17673  41.968  21.368   7.945
 1062POPC   C4B17674  41.911  21.574   7.530
 1063POPC   NC317675  40.038   0.726   9.488
 1063POPC   PO417676  39.514   0.308   9.620
 1063POPC   GL117677  39.808   0.350   9.208
 1063POPC   GL217678  40.174   0.465   9.073
 1063POPC   C1A17679  39.894   0.177   8.774
 1063POPC   D2A17680  40.012   0.281   8.374
 1063POPC   C3A17681  39.748   0.199   8.066
 1063POPC   C4A17682  39.806   0.311   7.651
 1063POPC   C1B17683  40.285   0.770   8.760
 1063POPC   C2B17684  40.147   0.783   8.316
 1063POPC   C3B17685  40.154   0.565   7.914
 1063POPC   C4B17686  40.403   0.838   7.625
 1064POPC   NC317687   2.627  43.476   9.621
 1064POPC   PO417688   3.048  42.958   9.436
 1064POPC   GL117689   2.736  43.144   9.168
 1064POPC   GL217690   2.753  43.507   9.106
 1064POPC   C1A17691   2.850  43.108   8.731
 1064POPC   D2A17692   2.914  42.912   8.334
 1064POPC   C3A17693   2.986  43.226   7.991
 1064POPC   C4A17694   2.893  43.252   7.545
 1064POPC   C1B17695   2.515  43.516   8.684
 1064POPC   C2B17696   2.533  43.500   8.209
 1064POPC   C3B17697   2.539  43.551   7.752
 1064POPC   C4B17698   2.489  43.549   7.278
 1065POPC   NC317699  37.044  26.934   9.557
 1065POPC   PO417700  36.989  26.306   9.316
 1065POPC   GL117701  37.114  26.646   9.095
 1065POPC   GL217702  36.880  26.928   9.048
 1065POPC   C1A17703  37.040  26.638   8.672
 1065POPC   D2A17704  36.736  26.648   8.369
 1065POPC   C3A17705  36.915  26.640   7.977
 1065POPC   C4A17706  36.638  26.516   7.709
 1065POPC   C1B17707  36.835  27.104   8.601
 1065POPC   C2B17708  36.839  27.115   8.114
 1065POPC   C3B17709  36.851  27.014   7.624
 1065POPC   C4B17710  36.629  27.186   7.222
 1066POPC   NC317711  16.974   8.541   9.521
 1066POPC   PO417712  16.580   8.001   9.541
 1066POPC   GL117713  16.629   8.306   9.197
 1066POPC   GL217714  16.888   8.541   9.030
 1066POPC   C1A17715  16.478   8.421   8.789
 1066POPC   D2A17716  16.725   8.525   8.446
 1066POPC   C3A17717  16.542   8.373   8.085
 1066POPC   C4A17718  16.217   8.306   7.795
 1066POPC   C1B17719  17.040   8.192   8.789
 1066POPC   C2B17720  17.098   8.106   8.355
 1066POPC   C3B17721  17.034   8.267   7.977
 1066POPC   C4B17722  16.747   8.244   7.624
 1067POPC   NC317723  27.613  18.456   9.384
 1067POPC   PO417724  27.899  17.899   9.556
 1067POPC   GL117725  27.791  17.961   9.089
 1067POPC   GL217726  27.839  18.316   8.969
 1067POPC   C1A17727  27.657  18.018   8.624
 1067POPC   D2A17728  27.856  18.146   8.245
 1067POPC   C3A17729  27.617  18.036   7.878
 1067POPC   C4A17730  27.404  17.986   7.486
 1067POPC   C1B17731  27.810  18.555   8.582
 1067POPC   C2B17732  28.032  18.656   8.183
 1067POPC   C3B17733  28.001  18.373   7.799
 1067POPC   C4B17734  27.643  18.433   7.533
 1068POPC   NC317735  28.962  13.057   9.521
 1068POPC   PO417736  29.226  12.461   9.608
 1068POPC   GL117737  29.236  12.724   9.194
 1068POPC   GL217738  29.196  13.053   9.071
 1068POPC   C1A17739  29.456  12.701   8.811
 1068POPC   D2A17740  29.505  12.536   8.425
 1068POPC   C3A17741  29.334  12.852   8.173
 1068POPC   C4A17742  29.420  12.952   7.749
 1068POPC   C1B17743  28.918  13.183   8.771
 1068POPC   C2B17744  28.927  13.107   8.344
 1068POPC   C3B17745  28.901  12.954   7.909
 1068POPC   C4B17746  28.984  13.086   7.491
 1069POPC   NC317747  21.699  22.532   9.304
 1069POPC   PO417748  21.246  22.640   9.844
 1069POPC   GL117749  21.270  22.820   9.337
 1069POPC   GL217750  21.225  23.178   9.264
 1069POPC   C1A17751  21.305  22.833   8.879
 1069POPC   D2A17752  21.216  22.788   8.464
 1069POPC   C3A17753  21.502  22.962   8.169
 1069POPC   C4A17754  21.684  22.777   7.799
 1069POPC   C1B17755  21.408  23.335   8.885
 1069POPC   C2B17756  21.227  23.293   8.474
 1069POPC   C3B17757  21.285  23.431   8.064
 1069POPC   C4B17758  21.544  23.280   7.741
 1070POPC   NC317759   0.083  22.391   9.481
 1070POPC   PO417760  44.536  21.978   9.493
 1070POPC   GL117761  44.828  22.072   9.174
 1070POPC   GL217762  44.538  22.228   9.019
 1070POPC   C1A17763   0.001  22.177   8.787
 1070POPC   D2A17764  44.647  22.153   8.518
 1070POPC   C3A17765  44.694  22.387   8.163
 1070POPC   C4A17766  44.876  22.342   7.778
 1070POPC   C1B17767  44.198  21.998   8.813
 1070POPC   C2B17768  44.256  21.753   8.452
 1070POPC   C3B17769  44.339  21.965   8.093
 1070POPC   C4B17770  44.298  22.011   7.674
 1071POPC   NC317771   4.880   7.300   9.528
 1071POPC   PO417772   4.587   7.779   9.127
 1071POPC   GL117773   4.976   7.511   8.995
 1071POPC   GL217774   5.088   7.161   9.079
 1071POPC   C1A17775   5.231   7.677   8.658
 1071POPC   D2A17776   5.125   7.873   8.249
 1071POPC   C3A17777   4.807   7.671   7.976
 1071POPC   C4A17778   4.847   7.501   7.552
 1071POPC   C1B17779   5.381   7.203   8.736
 1071POPC   C2B17780   5.348   7.312   8.306
 1071POPC   C3B17781   5.247   7.375   7.867
 1071POPC   C4B17782   5.290   7.202   7.449
 1072POPC   NC317783  25.208   8.213   9.683
 1072POPC   PO417784  25.361   7.599   9.570
 1072POPC   GL117785  25.140   7.918   9.246
 1072POPC   GL217786  24.982   8.281   9.221
 1072POPC   C1A17787  25.272   8.021   8.817
 1072POPC   D2A17788  25.423   8.079   8.387
 1072POPC   C3A17789  25.402   7.993   7.931
 1072POPC   C4A17790  25.529   8.310   7.636
 1072POPC   C1B17791  24.779   8.064   8.882
 1072POPC   C2B17792  24.923   8.298   8.531
 1072POPC   C3B17793  25.100   8.408   8.142
 1072POPC   C4B17794  25.022   8.279   7.748
 1073POPC   NC317795  25.480  12.436   9.682
 1073POPC   PO417796  25.236  13.026   9.476
 1073POPC   GL117797  25.280  12.709   9.166
 1073POPC   GL217798  25.627  12.531   9.175
 1073POPC   C1A17799  25.043  12.727   8.778
 1073POPC   D2A17800  24.974  12.919   8.399
 1073POPC   C3A17801  25.061  12.794   7.992
 1073POPC   C4A17802  25.366  12.896   7.707
 1073POPC   C1B17803  25.470  12.450   8.739
 1073POPC   C2B17804  25.298  12.477   8.321
 1073POPC   C3B17805  25.422  12.431   7.876
 1073POPC   C4B17806  25.466  12.414   7.390
 1074POPC   NC317807   6.127  11.698   9.681
 1074POPC   PO417808   5.635  11.218   9.622
 1074POPC   GL117809   5.689  11.239   9.186
 1074POPC   GL217810   6.030  11.273   9.117
 1074POPC   C1A17811   5.667  11.109   8.755
 1074POPC   D2A17812   5.619  11.361   8.385
 1074POPC   C3A17813   5.653  11.194   8.007
 1074POPC   C4A17814   5.876  11.197   7.664
 1074POPC   C1B17815   6.252  11.631   8.904
 1074POPC   C2B17816   6.264  11.754   8.470
 1074POPC   C3B17817   6.040  11.601   8.079
 1074POPC   C4B17818   6.036  11.666   7.609
 1075POPC   NC317819   5.311  26.819   9.492
 1075POPC   PO417820   4.714  26.637   9.422
 1075POPC   GL117821   4.893  26.868   9.116
 1075POPC   GL217822   5.139  26.619   9.030
 1075POPC   C1A17823   5.155  27.096   8.824
 1075POPC   D2A17824   5.365  27.019   8.415
 1075POPC   C3A17825   5.205  27.151   7.992
 1075POPC   C4A17826   5.053  26.992   7.604
 1075POPC   C1B17827   5.010  26.658   8.592
 1075POPC   C2B17828   5.047  26.682   8.112
 1075POPC   C3B17829   4.824  26.559   7.729
 1075POPC   C4B17830   4.899  26.355   7.299
 1076POPC   NC317831  19.671  30.337   9.498
 1076POPC   PO417832  19.554  30.908   9.194
 1076POPC   GL117833  19.812  30.602   9.056
 1076POPC   GL217834  19.590  30.306   9.004
 1076POPC   C1A17835  19.962  30.701   8.657
 1076POPC   D2A17836  19.801  30.596   8.264
 1076POPC   C3A17837  19.919  30.783   7.897
 1076POPC   C4A17838  19.984  30.593   7.529
 1076POPC   C1B17839  19.466  30.522   8.662
 1076POPC   C2B17840  19.339  30.394   8.269
 1076POPC   C3B17841  19.575  30.368   7.845
 1076POPC   C4B17842  19.534  30.344   7.388
 1077POPC   NC317843  15.400  28.649   9.534
 1077POPC   PO417844  14.742  28.532   9.652
 1077POPC   GL117845  14.943  28.513   9.213
 1077POPC   GL217846  15.284  28.334   9.145
 1077POPC   C1A17847  14.987  28.560   8.743
 1077POPC   D2A17848  15.294  28.714   8.426
 1077POPC   C3A17849  15.346  28.590   7.994
 1077POPC   C4A17850  15.077  28.607   7.623
 1077POPC   C1B17851  15.323  28.168   8.707
 1077POPC   C2B17852  15.118  28.228   8.290
 1077POPC   C3B17853  15.249  28.115   7.844
 1077POPC   C4B17854  15.436  28.296   7.449
 1078POPC   NC317855  31.188  15.548   9.298
 1078POPC   PO417856  31.721  15.219   9.508
 1078POPC   GL117857  31.531  15.139   9.098
 1078POPC   GL217858  31.559  15.491   8.955
 1078POPC   C1A17859  31.630  15.110   8.646
 1078POPC   D2A17860  31.689  15.463   8.376
 1078POPC   C3A17861  31.458  15.348   8.007
 1078POPC   C4A17862  31.440  14.913   7.799
 1078POPC   C1B17863  31.223  15.452   8.639
 1078POPC   C2B17864  30.982  15.620   8.302
 1078POPC   C3B17865  30.992  15.615   7.874
 1078POPC   C4B17866  31.186  15.421   7.516
 1079POPC   NC317867  11.492   3.343   9.344
 1079POPC   PO417868  10.972   3.628   9.651
 1079POPC   GL117869  11.153   3.718   9.226
 1079POPC   GL217870  11.476   3.905   9.208
 1079POPC   C1A17871  11.243   3.589   8.795
 1079POPC   D2A17872  11.275   3.249   8.477
 1079POPC   C3A17873  11.213   3.463   8.082
 1079POPC   C4A17874  11.306   3.365   7.653
 1079POPC   C1B17875  11.668   3.879   8.800
 1079POPC   C2B17876  11.577   3.706   8.375
 1079POPC   C3B17877  11.620   3.712   7.914
 1079POPC   C4B17878  11.773   3.532   7.502
 1080POPC   NC317879  43.956  43.375   9.582
 1080POPC   PO417880  43.783  44.031   9.695
 1080POPC   GL117881  43.961  43.977   9.248
 1080POPC   GL217882  44.062  43.645   9.072
 1080POPC   C1A17883  44.074  44.070   8.796
 1080POPC   D2A17884  44.107  43.934   8.372
 1080POPC   C3A17885  44.002  44.195   8.053
 1080POPC   C4A17886  44.136  44.085   7.660
 1080POPC   C1B17887  43.807  43.625   8.663
 1080POPC   C2B17888  43.575  43.691   8.260
 1080POPC   C3B17889  43.757  43.762   7.863
 1080POPC   C4B17890  44.170  43.584   7.783
 1081POPC   NC317891  27.804  14.239   9.561
 1081POPC   PO417892  27.380  14.702   9.647
 1081POPC   GL117893  27.402  14.516   9.201
 1081POPC   GL217894  27.452  14.157   9.183
 1081POPC   C1A17895  27.740  14.463   8.841
 1081POPC   D2A17896  27.810  14.256   8.414
 1081POPC   C3A17897  27.793  14.458   7.989
 1081POPC   C4A17898  27.596  14.476   7.579
 1081POPC   C1B17899  27.462  14.041   8.752
 1081POPC   C2B17900  27.253  14.173   8.359
 1081POPC   C3B17901  27.369  14.136   7.917
 1081POPC   C4B17902  27.307  14.068   7.453
 1082POPC   NC317903  44.345   9.501   9.509
 1082POPC   PO417904  43.610   9.467   9.551
 1082POPC   GL117905  43.764   9.762   9.259
 1082POPC   GL217906  44.069   9.963   9.311
 1082POPC   C1A17907  43.977   9.643   8.886
 1082POPC   D2A17908  43.901   9.444   8.489
 1082POPC   C3A17909  44.176   9.531   8.142
 1082POPC   C4A17910  43.971   9.706   7.754
 1082POPC   C1B17911  44.151  10.120   8.899
 1082POPC   C2B17912  43.986   9.984   8.489
 1082POPC   C3B17913  44.178  10.038   8.084
 1082POPC   C4B17914  44.347  10.107   7.673
 1083POPC   NC317915  37.499   1.661   9.467
 1083POPC   PO417916  37.886   2.241   9.348
 1083POPC   GL117917  37.631   2.041   9.094
 1083POPC   GL217918  37.825   1.733   9.060
 1083POPC   C1A17919  37.579   2.223   8.708
 1083POPC   D2A17920  37.814   2.250   8.355
 1083POPC   C3A17921  37.608   2.315   7.954
 1083POPC   C4A17922  37.874   2.106   7.657
 1083POPC   C1B17923  37.637   1.695   8.635
 1083POPC   C2B17924  37.611   1.575   8.176
 1083POPC   C3B17925  37.717   1.628   7.745
 1083POPC   C4B17926  38.063   1.657   7.439
 1084POPC   NC317927  17.452  37.824   9.425
 1084POPC   PO417928  17.651  37.213   9.497
 1084POPC   GL117929  17.441  37.301   9.116
 1084POPC   GL217930  17.658  37.573   9.027
 1084POPC   C1A17931  17.344  37.414   8.666
 1084POPC   D2A17932  17.226  37.348   8.232
 1084POPC   C3A17933  17.485  37.510   7.886
 1084POPC   C4A17934  17.468  37.623   7.445
 1084POPC   C1B17935  17.546  37.892   8.711
 1084POPC   C2B17936  17.529  37.852   8.259
 1084POPC   C3B17937  17.811  37.920   7.891
 1084POPC   C4B17938  17.849  38.350   7.673
 1085POPC   NC317939  36.990   9.210   9.580
 1085POPC   PO417940  36.834   8.568   9.784
 1085POPC   GL117941  36.915   8.751   9.332
 1085POPC   GL217942  36.739   9.064   9.162
 1085POPC   C1A17943  36.929   8.685   8.863
 1085POPC   D2A17944  36.770   8.728   8.426
 1085POPC   C3A17945  37.057   8.954   8.150
 1085POPC   C4A17946  37.127   8.886   7.724
 1085POPC   C1B17947  36.895   9.188   8.720
 1085POPC   C2B17948  36.664   9.239   8.325
 1085POPC   C3B17949  36.681   9.234   7.842
 1085POPC   C4B17950  36.594   9.327   7.394
 1086POPC   NC317951   3.800   3.854   9.449
 1086POPC   PO417952   3.710   3.182   9.260
 1086POPC   GL117953   3.447   3.487   9.104
 1086POPC   GL217954   3.560   3.800   9.010
 1086POPC   C1A17955   3.245   3.548   8.692
 1086POPC   D2A17956   3.303   3.350   8.277
 1086POPC   C3A17957   3.350   3.362   7.807
 1086POPC   C4A17958   3.606   3.180   7.472
 1086POPC   C1B17959   3.782   3.517   8.701
 1086POPC   C2B17960   3.885   3.474   8.260
 1086POPC   C3B17961   3.736   3.714   7.909
 1086POPC   C4B17962   3.847   4.054   7.652
 1087POPC   NC317963  40.881   0.687   9.726
 1087POPC   PO417964  40.347   0.298   9.516
 1087POPC   GL117965  40.685   0.447   9.249
 1087POPC   GL217966  41.065   0.461   9.220
 1087POPC   C1A17967  40.724   0.464   8.809
 1087POPC   D2A17968  40.496   0.402   8.436
 1087POPC   C3A17969  40.619   0.617   8.071
 1087POPC   C4A17970  40.575   0.374   7.653
 1087POPC   C1B17971  41.203   0.275   8.785
 1087POPC   C2B17972  41.090   0.389   8.322
 1087POPC   C3B17973  41.017   0.417   7.863
 1087POPC   C4B17974  41.046   0.567   7.452
 1088POPC   NC317975  13.329  37.846   9.376
 1088POPC   PO417976  12.682  37.481   9.349
 1088POPC   GL117977  12.665  37.721   9.028
 1088POPC   GL217978  12.921  37.922   9.099
 1088POPC   C1A17979  12.712  37.783   8.619
 1088POPC   D2A17980  12.962  38.040   8.361
 1088POPC   C3A17981  13.027  37.905   7.952
 1088POPC   C4A17982  12.745  38.119   7.683
 1088POPC   C1B17983  13.215  37.875   8.761
 1088POPC   C2B17984  13.299  37.606   8.436
 1088POPC   C3B17985  13.278  37.284   8.098
 1088POPC   C4B17986  13.174  37.474   7.687
 1089POPC   NC317987  10.380  31.982   9.354
 1089POPC   PO417988  10.941  32.179   9.677
 1089POPC   GL117989  10.827  32.378   9.182
 1089POPC   GL217990  10.461  32.390   9.073
 1089POPC   C1A17991  10.772  32.255   8.707
 1089POPC   D2A17992  10.553  32.280   8.301
 1089POPC   C3A17993  10.656  32.012   7.924
 1089POPC   C4A17994  10.779  32.276   7.584
 1089POPC   C1B17995  10.215  32.174   8.735
 1089POPC   C2B17996  10.009  32.238   8.328
 1089POPC   C3B17997  10.198  32.229   7.933
 1089POPC   C4B17998  10.276  32.320   7.483
 1090POPC   NC317999   5.944   9.281   9.527
 1090POPC   PO418000   5.395   9.012   9.485
 1090POPC   GL118001   5.692   8.999   9.134
 1090POPC   GL218002   6.060   9.083   9.092
 1090POPC   C1A18003   5.788   8.970   8.697
 1090POPC   D2A18004   5.662   8.791   8.359
 1090POPC   C3A18005   5.870   8.968   8.063
 1090POPC   C4A18006   5.727   9.359   7.916
 1090POPC   C1B18007   6.333   9.191   8.766
 1090POPC   C2B18008   6.340   9.054   8.342
 1090POPC   C3B18009   6.247   9.281   7.960
 1090POPC   C4B18010   6.047   9.117   7.578
 1091POPC   NC318011  39.485  32.925   9.398
 1091POPC   PO418012  39.194  33.482   9.399
 1091POPC   GL118013  39.301  33.298   9.030
 1091POPC   GL218014  39.087  33.009   9.060
 1091POPC   C1A18015  39.506  33.356   8.606
 1091POPC   D2A18016  39.566  33.428   8.134
 1091POPC   C3A18017  39.249  33.374   7.829
 1091POPC   C4A18018  39.260  33.385   7.379
 1091POPC   C1B18019  39.146  32.990   8.606
 1091POPC   C2B18020  39.357  32.959   8.186
 1091POPC   C3B18021  39.365  32.637   7.844
 1091POPC   C4B18022  39.063  32.457   7.548
 1092POPC   NC318023   8.591  28.688   9.454
 1092POPC   PO418024   7.894  28.571   9.532
 1092POPC   GL118025   8.014  28.470   9.136
 1092POPC   GL218026   8.353  28.511   9.050
 1092POPC   C1A18027   7.874  28.515   8.756
 1092POPC   D2A18028   7.910  28.345   8.375
 1092POPC   C3A18029   8.147  28.506   8.063
 1092POPC   C4A18030   8.125  28.359   7.665
 1092POPC   C1B18031   8.365  28.363   8.646
 1092POPC   C2B18032   8.341  28.072   8.322
 1092POPC   C3B18033   8.521  28.145   7.930
 1092POPC   C4B18034   8.627  28.569   7.713
 1093POPC   NC318035   8.622  11.591   9.401
 1093POPC   PO418036   8.279  11.002   9.517
 1093POPC   GL118037   8.368  11.188   9.138
 1093POPC   GL218038   8.049  11.312   9.029
 1093POPC   C1A18039   8.327  11.100   8.689
 1093POPC   D2A18040   8.398  11.378   8.353
 1093POPC   C3A18041   8.329  11.190   7.982
 1093POPC   C4A18042   8.460  11.384   7.646
 1093POPC   C1B18043   7.724  11.518   8.769
 1093POPC   C2B18044   7.694  11.694   8.386
 1093POPC   C3B18045   7.998  11.606   8.095
 1093POPC   C4B18046   7.966  11.471   7.693
 1094POPC   NC318047   8.128  32.063   9.761
 1094POPC   PO418048   8.502  32.565   9.623
 1094POPC   GL118049   8.323  32.279   9.319
 1094POPC   GL218050   7.959  32.220   9.274
 1094POPC   C1A18051   8.312  32.335   8.869
 1094POPC   D2A18052   8.376  32.631   8.513
 1094POPC   C3A18053   8.356  32.406   8.126
 1094POPC   C4A18054   8.503  32.490   7.722
 1094POPC   C1B18055   7.836  32.080   8.861
 1094POPC   C2B18056   8.090  31.983   8.508
 1094POPC   C3B18057   8.104  31.895   8.091
 1094POPC   C4B18058   8.354  32.012   7.774
 1095POPC   NC318059   0.493  26.196   9.492
 1095POPC   PO418060   0.144  25.702   9.477
 1095POPC   GL118061   0.297  25.915   9.110
 1095POPC   GL218062   0.685  25.966   9.066
 1095POPC   C1A18063   0.346  25.807   8.709
 1095POPC   D2A18064   0.521  25.666   8.357
 1095POPC   C3A18065   0.353  25.877   8.033
 1095POPC   C4A18066   0.536  25.943   7.666
 1095POPC   C1B18067   0.544  26.272   8.797
 1095POPC   C2B18068   0.516  26.258   8.392
 1095POPC   C3B18069   0.737  26.242   8.059
 1095POPC   C4B18070   0.550  26.468   7.810
 1096POPC   NC318071  43.912  19.881   9.491
 1096POPC   PO418072  43.646  20.416   9.147
 1096POPC   GL118073  43.900  20.064   9.018
 1096POPC   GL218074  43.710  19.744   9.061
 1096POPC   C1A18075  44.082  19.853   8.674
 1096POPC   D2A18076  44.396  19.866   8.331
 1096POPC   C3A18077  44.124  19.934   7.972
 1096POPC   C4A18078  44.016  19.526   7.821
 1096POPC   C1B18079  43.542  19.862   8.696
 1096POPC   C2B18080  43.714  19.839   8.300
 1096POPC   C3B18081  43.551  19.679   7.948
 1096POPC   C4B18082  43.345  19.865   7.644
 1097POPC   NC318083  16.457  33.710   9.350
 1097POPC   PO418084  17.133  33.682   9.364
 1097POPC   GL118085  16.858  33.814   9.041
 1097POPC   GL218086  16.758  33.467   8.995
 1097POPC   C1A18087  16.559  34.009   8.720
 1097POPC   D2A18088  16.429  33.933   8.278
 1097POPC   C3A18089  16.781  33.814   8.003
 1097POPC   C4A18090  17.157  34.009   7.846
 1097POPC   C1B18091  16.361  33.485   8.757
 1097POPC   C2B18092  16.132  33.466   8.405
 1097POPC   C3B18093  16.206  33.565   7.995
 1097POPC   C4B18094  16.539  33.470   7.696
 1098POPC   NC318095   0.066   5.502   9.742
 1098POPC   PO418096   0.333   6.075   9.456
 1098POPC   GL118097   0.319   5.773   9.096
 1098POPC   GL218098   0.097   5.566   9.232
 1098POPC   C1A18099   0.428   5.904   8.658
 1098POPC   D2A18100   0.240   6.054   8.294
 1098POPC   C3A18101   0.428   5.914   7.913
 1098POPC   C4A18102   0.361   6.037   7.454
 1098POPC   C1B18103  44.917   5.454   8.837
 1098POPC   C2B18104   0.038   5.592   8.449
 1098POPC   C3B18105  44.937   5.711   8.063
 1098POPC   C4B18106   0.044   5.703   7.640
 1099POPC   NC318107  23.718  42.541   9.450
 1099POPC   PO418108  23.391  42.022   9.233
 1099POPC   GL118109  23.720  42.245   8.996
 1099POPC   GL218110  23.836  42.597   8.956
 1099POPC   C1A18111  23.817  42.284   8.546
 1099POPC   D2A18112  23.744  42.521   8.159
 1099POPC   C3A18113  23.649  42.184   7.846
 1099POPC   C4A18114  23.426  42.082   7.425
 1099POPC   C1B18115  24.201  42.592   8.655
 1099POPC   C2B18116  24.284  42.541   8.214
 1099POPC   C3B18117  24.111  42.501   7.775
 1099POPC   C4B18118  23.853  42.341   7.417
 1100POPC   NC318119  33.797   0.867   9.337
 1100POPC   PO418120  34.044   1.431   9.473
 1100POPC   GL118121  33.748   1.340   9.174
 1100POPC   GL218122  34.028   1.186   9.020
 1100POPC   C1A18123  33.562   1.142   8.783
 1100POPC   D2A18124  33.387   1.164   8.386
 1100POPC   C3A18125  33.481   1.120   7.935
 1100POPC   C4A18126  33.669   1.304   7.531
 1100POPC   C1B18127  34.057   1.094   8.632
 1100POPC   C2B18128  33.882   0.972   8.273
 1100POPC   C3B18129  33.979   1.145   7.909
 1100POPC   C4B18130  34.109   0.910   7.578
 1101POPC   NC318131  40.639  24.782   9.433
 1101POPC   PO418132  40.997  24.251   9.565
 1101POPC   GL118133  40.948  24.456   9.159
 1101POPC   GL218134  41.023  24.783   9.114
 1101POPC   C1A18135  40.727  24.476   8.754
 1101POPC   D2A18136  40.724  24.191   8.382
 1101POPC   C3A18137  40.922  24.314   7.990
 1101POPC   C4A18138  40.639  24.389   7.640
 1101POPC   C1B18139  40.996  24.987   8.767
 1101POPC   C2B18140  40.685  24.977   8.442
 1101POPC   C3B18141  40.680  24.758   8.046
 1101POPC   C4B18142  40.893  24.808   7.661
 1102POPC   NC318143  29.476   2.209   9.269
 1102POPC   PO418144  29.009   1.952   9.673
 1102POPC   GL118145  28.857   1.852   9.230
 1102POPC   GL218146  29.171   1.829   9.107
 1102POPC   C1A18147  28.773   1.989   8.798
 1102POPC   D2A18148  28.929   2.176   8.387
 1102POPC   C3A18149  28.979   1.932   8.045
 1102POPC   C4A18150  28.700   1.971   7.699
 1102POPC   C1B18151  29.273   2.037   8.713
 1102POPC   C2B18152  29.488   2.228   8.381
 1102POPC   C3B18153  29.371   2.248   7.957
 1102POPC   C4B18154  29.271   1.993   7.605
 1103POPC   NC318155  27.525  25.617   9.527
 1103POPC   PO418156  27.499  24.896   9.562
 1103POPC   GL118157  27.625  25.173   9.188
 1103POPC   GL218158  27.357  25.380   9.128
 1103POPC   C1A18159  27.773  25.331   8.738
 1103POPC   D2A18160  27.602  25.534   8.355
 1103POPC   C3A18161  27.789  25.374   7.980
 1103POPC   C4A18162  27.902  24.952   7.828
 1103POPC   C1B18163  27.348  25.665   8.805
 1103POPC   C2B18164  27.124  25.663   8.452
 1103POPC   C3B18165  27.231  25.745   8.019
 1103POPC   C4B18166  27.373  25.469   7.670
 1104POPC   NC318167  16.965  39.065   9.833
 1104POPC   PO418168  16.624  39.579   9.507
 1104POPC   GL118169  16.691  39.333   9.154
 1104POPC   GL218170  17.026  39.245   9.093
 1104POPC   C1A18171  16.671  39.384   8.733
 1104POPC   D2A18172  16.714  39.675   8.438
 1104POPC   C3A18173  16.556  39.550   8.094
 1104POPC   C4A18174  16.842  39.587   7.786
 1104POPC   C1B18175  16.935  38.938   8.737
 1104POPC   C2B18176  16.641  38.994   8.396
 1104POPC   C3B18177  16.719  39.089   7.984
 1104POPC   C4B18178  16.413  39.154   7.683
 1105POPC   NC318179  24.917  44.642   9.443
 1105POPC   PO418180  24.235  44.905   9.476
 1105POPC   GL118181  24.262  44.741   9.079
 1105POPC   GL218182  24.609  44.708   9.040
 1105POPC   C1A18183  24.285  44.513   8.696
 1105POPC   D2A18184  24.545  44.535   8.375
 1105POPC   C3A18185  24.379  44.668   8.008
 1105POPC   C4A18186  24.399  44.969   7.706
 1105POPC   C1B18187  24.796  44.371   8.802
 1105POPC   C2B18188  25.009  44.307   8.437
 1105POPC   C3B18189  24.860  44.389   8.007
 1105POPC   C4B18190  24.856  44.809   7.864
 1106POPC   NC318191  30.302  31.971   9.489
 1106POPC   PO418192  29.692  31.856   9.300
 1106POPC   GL118193  29.891  32.227   9.211
 1106POPC   GL218194  29.588  32.457   9.170
 1106POPC   C1A18195  30.035  32.244   8.789
 1106POPC   D2A18196  29.869  31.966   8.440
 1106POPC   C3A18197  30.020  32.031   8.012
 1106POPC   C4A18198  29.950  31.943   7.565
 1106POPC   C1B18199  29.662  32.583   8.730
 1106POPC   C2B18200  29.914  32.478   8.344
 1106POPC   C3B18201  29.779  32.491   7.895
 1106POPC   C4B18202  29.978  32.433   7.475
 1107POPC   NC318203  26.852  18.915   9.610
 1107POPC   PO418204  27.248  19.414   9.428
 1107POPC   GL118205  27.076  19.242   9.049
 1107POPC   GL218206  26.880  18.929   9.077
 1107POPC   C1A18207  26.983  19.175   8.615
 1107POPC   D2A18208  27.021  18.932   8.242
 1107POPC   C3A18209  26.811  19.164   7.921
 1107POPC   C4A18210  26.905  19.469   7.622
 1107POPC   C1B18211  26.660  18.781   8.672
 1107POPC   C2B18212  26.538  18.735   8.220
 1107POPC   C3B18213  26.744  18.663   7.842
 1107POPC   C4B18214  26.662  18.457   7.426
 1108POPC   NC318215  41.725  18.636   9.480
 1108POPC   PO418216  40.974  18.651   9.411
 1108POPC   GL118217  41.285  18.551   9.167
 1108POPC   GL218218  41.338  18.200   9.244
 1108POPC   C1A18219  41.528  18.495   8.813
 1108POPC   D2A18220  41.626  18.651   8.423
 1108POPC   C3A18221  41.589  18.308   8.142
 1108POPC   C4A18222  41.595  18.393   7.750
 1108POPC   C1B18223  41.171  18.107   8.824
 1108POPC   C2B18224  41.373  17.943   8.467
 1108POPC   C3B18225  41.291  17.741   8.101
 1108POPC   C4B18226  41.322  17.934   7.703
 1109POPC   NC318227  30.254  34.417   9.550
 1109POPC   PO418228  30.849  34.145   9.467
 1109POPC   GL118229  30.624  34.445   9.167
 1109POPC   GL218230  30.466  34.802   9.236
 1109POPC   C1A18231  30.767  34.606   8.777
 1109POPC   D2A18232  31.103  34.572   8.472
 1109POPC   C3A18233  30.977  34.580   8.008
 1109POPC   C4A18234  30.779  34.758   7.596
 1109POPC   C1B18235  30.296  34.792   8.807
 1109POPC   C2B18236  30.269  34.668   8.393
 1109POPC   C3B18237  30.453  34.623   7.986
 1109POPC   C4B18238  30.241  34.396   7.622
 1110POPC   NC318239   2.209   4.552   9.410
 1110POPC   PO418240   1.609   4.106   9.563
 1110POPC   GL118241   1.776   4.285   9.197
 1110POPC   GL218242   2.056   4.076   9.194
 1110POPC   C1A18243   1.687   4.429   8.754
 1110POPC   D2A18244   1.544   4.611   8.344
 1110POPC   C3A18245   1.794   4.437   8.017
 1110POPC   C4A18246   1.758   4.513   7.588
 1110POPC   C1B18247   2.158   4.199   8.758
 1110POPC   C2B18248   2.198   4.222   8.273
 1110POPC   C3B18249   2.192   4.153   7.813
 1110POPC   C4B18250   2.264   4.060   7.378
 1111POPC   NC318251   6.263   1.158   9.500
 1111POPC   PO418252   6.856   0.958   9.476
 1111POPC   GL118253   6.683   1.195   9.118
 1111POPC   GL218254   6.454   1.500   9.157
 1111POPC   C1A18255   6.575   1.189   8.662
 1111POPC   D2A18256   6.630   1.326   8.238
 1111POPC   C3A18257   6.684   1.028   7.908
 1111POPC   C4A18258   6.917   0.643   7.920
 1111POPC   C1B18259   6.236   1.550   8.751
 1111POPC   C2B18260   6.113   1.451   8.325
 1111POPC   C3B18261   6.298   1.552   7.915
 1111POPC   C4B18262   6.741   1.541   7.783
 1112POPC   NC318263  42.262  24.165   9.595
 1112POPC   PO418264  42.632  24.697   9.495
 1112POPC   GL118265  42.515  24.423   9.163
 1112POPC   GL218266  42.163  24.390   9.128
 1112POPC   C1A18267  42.414  24.526   8.733
 1112POPC   D2A18268  42.365  24.821   8.463
 1112POPC   C3A18269  42.286  24.602   8.076
 1112POPC   C4A18270  42.374  24.374   7.694
 1112POPC   C1B18271  41.927  24.672   8.842
 1112POPC   C2B18272  41.879  24.620   8.431
 1112POPC   C3B18273  41.746  24.679   8.028
 1112POPC   C4B18274  41.989  24.697   7.641
 1113POPC   NC318275  14.687  39.801   9.591
 1113POPC   PO418276  15.137  40.328   9.553
 1113POPC   GL118277  15.194  40.295   9.126
 1113POPC   GL218278  14.893  40.094   9.129
 1113POPC   C1A18279  15.261  40.073   8.720
 1113POPC   D2A18280  15.387  39.926   8.321
 1113POPC   C3A18281  15.470  40.191   7.986
 1113POPC   C4A18282  15.310  40.146   7.601
 1113POPC   C1B18283  14.801  39.845   8.806
 1113POPC   C2B18284  15.004  39.620   8.485
 1113POPC   C3B18285  14.962  39.767   8.065
 1113POPC   C4B18286  14.869  39.890   7.624
 1114POPC   NC318287  30.325   0.149   9.223
 1114POPC   PO418288  30.969   0.130   9.511
 1114POPC   GL118289  30.824   0.348   9.144
 1114POPC   GL218290  30.717   0.668   9.218
 1114POPC   C1A18291  30.727   0.297   8.702
 1114POPC   D2A18292  30.745   0.529   8.329
 1114POPC   C3A18293  30.713   0.358   7.916
 1114POPC   C4A18294  30.511  44.999   7.716
 1114POPC   C1B18295  30.595   0.801   8.786
 1114POPC   C2B18296  30.497   1.006   8.413
 1114POPC   C3B18297  30.403   0.785   8.041
 1114POPC   C4B18298  30.697   0.860   7.743
 1115POPC   NC318299  44.909  19.929   9.538
 1115POPC   PO418300  44.317  19.665   9.402
 1115POPC   GL118301  44.462  19.865   9.022
 1115POPC   GL218302  44.735  20.086   9.102
 1115POPC   C1A18303  44.798  19.835   8.671
 1115POPC   D2A18304   0.070  19.625   8.375
 1115POPC   C3A18305  44.924  19.717   7.989
 1115POPC   C4A18306  44.520  19.643   7.832
 1115POPC   C1B18307  44.579  20.312   8.756
 1115POPC   C2B18308  44.726  20.326   8.347
 1115POPC   C3B18309  44.625  20.146   7.937
 1115POPC   C4B18310  44.351  20.185   7.571
 1116POPC   NC318311  26.791  27.648  10.079
 1116POPC   PO418312  27.113  27.469   9.587
 1116POPC   GL118313  27.137  27.594   9.179
 1116POPC   GL218314  26.825  27.773   9.099
 1116POPC   C1A18315  26.997  27.429   8.782
 1116POPC   D2A18316  26.700  27.327   8.475
 1116POPC   C3A18317  26.887  27.538   8.169
 1116POPC   C4A18318  26.926  27.504   7.745
 1116POPC   C1B18319  26.710  27.823   8.634
 1116POPC   C2B18320  26.405  27.699   8.286
 1116POPC   C3B18321  26.517  27.776   7.870
 1116POPC   C4B18322  26.919  27.991   7.905
 1117POPC   NC318323   1.950   0.129   9.427
 1117POPC   PO418324   1.991  44.381   9.517
 1117POPC   GL118325   1.970  44.631   9.171
 1117POPC   GL218326   2.299  44.771   9.192
 1117POPC   C1A18327   2.132  44.542   8.763
 1117POPC   D2A18328   2.240  44.379   8.373
 1117POPC   C3A18329   1.934  44.404   8.081
 1117POPC   C4A18330   1.889  44.595   7.699
 1117POPC   C1B18331   2.489  44.919   8.783
 1117POPC   C2B18332   2.294  44.891   8.400
 1117POPC   C3B18333   2.374  44.763   7.985
 1117POPC   C4B18334   2.218  44.964   7.638
 1118POPC   NC318335  28.751  35.149   9.473
 1118POPC   PO418336  29.227  35.560   9.590
 1118POPC   GL118337  29.021  35.535   9.214
 1118POPC   GL218338  29.370  35.581   9.068
 1118POPC   C1A18339  28.947  35.419   8.789
 1118POPC   D2A18340  29.183  35.273   8.421
 1118POPC   C3A18341  28.971  35.095   8.068
 1118POPC   C4A18342  28.904  35.324   7.690
 1118POPC   C1B18343  29.557  35.534   8.654
 1118POPC   C2B18344  29.639  35.439   8.209
 1118POPC   C3B18345  29.392  35.295   7.827
 1118POPC   C4B18346  29.526  35.083   7.397
 1119POPC   NC318347  19.359  33.763   9.801
 1119POPC   PO418348  19.891  33.458   9.459
 1119POPC   GL118349  19.949  33.696   9.126
 1119POPC   GL218350  19.952  34.064   9.199
 1119POPC   C1A18351  19.788  33.567   8.730
 1119POPC   D2A18352  19.934  33.603   8.324
 1119POPC   C3A18353  19.716  33.461   7.980
 1119POPC   C4A18354  19.783  33.769   7.721
 1119POPC   C1B18355  19.753  34.073   8.787
 1119POPC   C2B18356  19.862  34.116   8.343
 1119POPC   C3B18357  19.772  34.259   7.925
 1119POPC   C4B18358  19.960  34.195   7.525
 1120POPC   NC318359  12.986  43.700   9.340
 1120POPC   PO418360  12.452  43.839   9.715
 1120POPC   GL118361  12.597  44.020   9.196
 1120POPC   GL218362  12.970  44.114   9.076
 1120POPC   C1A18363  12.757  43.853   8.708
 1120POPC   D2A18364  12.759  43.961   8.240
 1120POPC   C3A18365  12.665  43.665   7.849
 1120POPC   C4A18366  12.495  43.732   7.392
 1120POPC   C1B18367  13.274  43.953   8.734
 1120POPC   C2B18368  13.300  44.049   8.268
 1120POPC   C3B18369  13.089  44.017   7.855
 1120POPC   C4B18370  13.262  44.162   7.483
 1121POPC   NC318371  43.874   1.643   9.325
 1121POPC   PO418372  43.792   2.278   9.401
 1121POPC   GL118373  43.975   2.052   9.051
 1121POPC   GL218374  43.619   1.913   8.987
 1121POPC   C1A18375  44.079   1.720   8.697
 1121POPC   D2A18376  44.312   1.711   8.282
 1121POPC   C3A18377  44.149   1.823   7.876
 1121POPC   C4A18378  44.203   2.261   7.816
 1121POPC   C1B18379  43.718   2.104   8.633
 1121POPC   C2B18380  44.081   2.169   8.391
 1121POPC   C3B18381  43.793   2.080   8.104
 1121POPC   C4B18382  43.711   2.150   7.733
 1122POPC   NC318383   5.185  44.727   9.728
 1122POPC   PO418384   4.478  44.787   9.695
 1122POPC   GL118385   4.682  44.866   9.256
 1122POPC   GL218386   4.939  44.613   9.190
 1122POPC   C1A18387   4.788  44.916   8.777
 1122POPC   D2A18388   4.832  44.683   8.344
 1122POPC   C3A18389   5.037  44.591   7.940
 1122POPC   C4A18390   4.939  44.786   7.478
 1122POPC   C1B18391   5.095  44.485   8.753
 1122POPC   C2B18392   5.360  44.644   8.387
 1122POPC   C3B18393   5.470  44.841   7.993
 1122POPC   C4B18394   5.417  44.700   7.615
 1123POPC   NC318395  25.965  14.665   9.461
 1123POPC   PO418396  26.082  14.034   9.539
 1123POPC   GL118397  26.173  14.226   9.176
 1123POPC   GL218398  26.465  14.051   9.054
 1123POPC   C1A18399  25.970  14.471   8.843
 1123POPC   D2A18400  25.770  14.393   8.461
 1123POPC   C3A18401  25.889  14.669   8.149
 1123POPC   C4A18402  25.892  14.604   7.699
 1123POPC   C1B18403  26.151  14.004   8.714
 1123POPC   C2B18404  26.043  13.928   8.288
 1123POPC   C3B18405  25.846  14.190   7.979
 1123POPC   C4B18406  25.824  14.126   7.520
 1124POPC   NC318407  29.687  41.783   9.419
 1124POPC   PO418408  30.225  41.355   9.323
 1124POPC   GL118409  29.853  41.428   9.086
 1124POPC   GL218410  29.570  41.220   9.154
 1124POPC   C1A18411  29.909  41.682   8.725
 1124POPC   D2A18412  30.276  41.662   8.469
 1124POPC   C3A18413  30.064  41.509   8.125
 1124POPC   C4A18414  29.945  41.716   7.765
 1124POPC   C1B18415  29.700  41.151   8.689
 1124POPC   C2B18416  29.706  41.152   8.225
 1124POPC   C3B18417  29.746  41.242   7.753
 1124POPC   C4B18418  29.651  41.359   7.287
 1125POPC   NC318419  24.798   4.117   9.569
 1125POPC   PO418420  24.813   4.728   9.313
 1125POPC   GL118421  25.022   4.343   9.161
 1125POPC   GL218422  24.956   3.976   9.114
 1125POPC   C1A18423  25.316   4.221   8.829
 1125POPC   D2A18424  25.225   4.226   8.382
 1125POPC   C3A18425  25.425   4.379   7.965
 1125POPC   C4A18426  25.324   4.615   7.562
 1125POPC   C1B18427  24.816   4.130   8.741
 1125POPC   C2B18428  24.821   3.916   8.348
 1125POPC   C3B18429  24.980   4.109   7.950
 1125POPC   C4B18430  25.245   4.005   7.638
 1126POPC   NC318431  33.949  26.469   9.472
 1126POPC   PO418432  33.611  27.033   9.544
 1126POPC   GL118433  33.521  26.932   9.119
 1126POPC   GL218434  33.841  26.738   9.045
 1126POPC   C1A18435  33.634  27.066   8.707
 1126POPC   D2A18436  33.853  26.844   8.413
 1126POPC   C3A18437  33.624  26.913   8.068
 1126POPC   C4A18438  33.750  27.156   7.696
 1126POPC   C1B18439  33.581  26.532   8.746
 1126POPC   C2B18440  33.660  26.347   8.333
 1126POPC   C3B18441  33.764  26.454   7.880
 1126POPC   C4B18442  33.567  26.312   7.470
 1127POPC   NC318443  34.592  18.544   9.586
 1127POPC   PO418444  34.089  18.021   9.610
 1127POPC   GL118445  34.300  18.221   9.280
 1127POPC   GL218446  34.667  18.174   9.231
 1127POPC   C1A18447  34.340  18.400   8.888
 1127POPC   D2A18448  34.582  18.555   8.569
 1127POPC   C3A18449  34.642  18.380   8.166
 1127POPC   C4A18450  34.562  18.486   7.743
 1127POPC   C1B18451  34.815  18.155   8.804
 1127POPC   C2B18452  34.913  17.979   8.407
 1127POPC   C3B18453  34.957  17.805   8.022
 1127POPC   C4B18454  34.751  18.025   7.727
 1128POPC   NC318455  38.678  36.186   9.560
 1128POPC   PO418456  38.406  35.670   9.671
 1128POPC   GL118457  38.383  35.946   9.219
 1128POPC   GL218458  38.747  36.083   9.075
 1128POPC   C1A18459  38.330  36.147   8.775
 1128POPC   D2A18460  38.459  36.019   8.332
 1128POPC   C3A18461  38.250  36.048   7.906
 1128POPC   C4A18462  38.405  36.166   7.454
 1128POPC   C1B18463  38.900  36.084   8.644
 1128POPC   C2B18464  38.943  36.101   8.192
 1128POPC   C3B18465  38.747  36.007   7.818
 1128POPC   C4B18466  38.795  35.796   7.429
 1129POPC   NC318467  37.561   8.892   9.347
 1129POPC   PO418468  37.391   9.409   9.747
 1129POPC   GL118469  37.823   9.334   9.411
 1129POPC   GL218470  38.054   9.070   9.339
 1129POPC   C1A18471  37.918   9.342   8.924
 1129POPC   D2A18472  37.693   9.327   8.510
 1129POPC   C3A18473  37.875   9.194   8.108
 1129POPC   C4A18474  37.558   9.123   7.839
 1129POPC   C1B18475  38.051   8.843   8.908
 1129POPC   C2B18476  37.736   8.773   8.578
 1129POPC   C3B18477  37.709   8.671   8.127
 1129POPC   C4B18478  37.965   8.722   7.745
 1130POPC   NC318479  28.684  18.623   9.416
 1130POPC   PO418480  29.308  18.371   9.511
 1130POPC   GL118481  29.091  18.353   9.137
 1130POPC   GL218482  29.029  18.023   8.950
 1130POPC   C1A18483  29.170  18.489   8.725
 1130POPC   D2A18484  29.294  18.370   8.314
 1130POPC   C3A18485  29.619  18.625   8.090
 1130POPC   C4A18486  29.431  18.665   7.667
 1130POPC   C1B18487  28.694  18.334   8.825
 1130POPC   C2B18488  28.710  18.538   8.449
 1130POPC   C3B18489  28.856  18.413   8.026
 1130POPC   C4B18490  28.952  18.438   7.600
 1131POPC   NC318491   1.478  44.603   9.419
 1131POPC   PO418492   1.030  44.175   9.706
 1131POPC   GL118493   0.899  44.632   9.339
 1131POPC   GL218494   1.137  44.739   9.113
 1131POPC   C1A18495   0.847  44.750   8.744
 1131POPC   D2A18496   0.994  44.370   8.515
 1131POPC   C3A18497   1.108  44.393   8.085
 1131POPC   C4A18498   1.096  44.704   7.717
 1131POPC   C1B18499   1.380  44.669   8.746
 1131POPC   C2B18500   1.268  44.793   8.356
 1131POPC   C3B18501   1.501  44.698   8.004
 1131POPC   C4B18502   1.464  44.344   7.715
 1132POPC   NC318503  16.638  44.842   9.484
 1132POPC   PO418504  16.923  44.220   9.451
 1132POPC   GL118505  16.727  44.455   9.099
 1132POPC   GL218506  16.391  44.475   9.119
 1132POPC   C1A18507  16.749  44.615   8.644
 1132POPC   D2A18508  17.008  44.891   8.358
 1132POPC   C3A18509  17.001  44.725   7.931
 1132POPC   C4A18510  16.881  44.291   7.865
 1132POPC   C1B18511  16.356  44.823   8.882
 1132POPC   C2B18512  16.272  44.847   8.488
 1132POPC   C3B18513  16.532  44.783   8.160
 1132POPC   C4B18514  16.537  44.962   7.767
 1133POPC   NC318515   2.570  24.669   9.395
 1133POPC   PO418516   3.061  24.263   9.442
 1133POPC   GL118517   2.751  24.293   9.105
 1133POPC   GL218518   2.926  24.616   9.019
 1133POPC   C1A18519   2.574  24.445   8.710
 1133POPC   D2A18520   2.782  24.442   8.323
 1133POPC   C3A18521   2.734  24.734   7.992
 1133POPC   C4A18522   2.733  24.629   7.524
 1133POPC   C1B18523   3.099  24.271   8.739
 1133POPC   C2B18524   3.110  24.038   8.355
 1133POPC   C3B18525   3.089  24.081   7.904
 1133POPC   C4B18526   3.195  24.367   7.570
 1134POPC   NC318527  25.347  10.814   9.430
 1134POPC   PO418528  25.759  10.367   9.461
 1134POPC   GL118529  25.543  10.281   9.069
 1134POPC   GL218530  25.239  10.472   9.067
 1134POPC   C1A18531  25.442  10.405   8.626
 1134POPC   D2A18532  25.370  10.646   8.247
 1134POPC   C3A18533  25.361  10.356   7.882
 1134POPC   C4A18534  25.200  10.397   7.441
 1134POPC   C1B18535  25.032  10.691   8.681
 1134POPC   C2B18536  24.849  10.728   8.267
 1134POPC   C3B18537  24.934  10.637   7.844
 1134POPC   C4B18538  25.014  10.872   7.489
 1135POPC   NC318539  24.974  23.165   9.366
 1135POPC   PO418540  25.559  22.859   9.528
 1135POPC   GL118541  25.351  22.928   9.115
 1135POPC   GL218542  25.041  22.750   9.094
 1135POPC   C1A18543  25.288  22.965   8.639
 1135POPC   D2A18544  25.409  22.780   8.242
 1135POPC   C3A18545  25.240  22.953   7.868
 1135POPC   C4A18546  25.157  23.364   7.760
 1135POPC   C1B18547  24.849  22.671   8.704
 1135POPC   C2B18548  24.912  22.806   8.273
 1135POPC   C3B18549  24.765  22.733   7.831
 1135POPC   C4B18550  24.851  22.455   7.469
 1136POPC   NC318551  34.511  15.075   9.558
 1136POPC   PO418552  34.108  15.540   9.287
 1136POPC   GL118553  34.483  15.333   9.116
 1136POPC   GL218554  34.769  15.487   9.274
 1136POPC   C1A18555  34.794  15.073   8.828
 1136POPC   D2A18556  34.956  14.828   8.439
 1136POPC   C3A18557  34.929  15.018   8.015
 1136POPC   C4A18558  34.542  15.160   7.786
 1136POPC   C1B18559  34.798  15.583   8.827
 1136POPC   C2B18560  34.640  15.394   8.433
 1136POPC   C3B18561  34.799  15.531   8.049
 1136POPC   C4B18562  34.959  15.420   7.680
 1137POPC   NC318563  21.622  28.501   9.776
 1137POPC   PO418564  21.147  28.222   9.742
 1137POPC   GL118565  21.365  28.284   9.268
 1137POPC   GL218566  21.703  28.422   9.199
 1137POPC   C1A18567  21.438  28.193   8.762
 1137POPC   D2A18568  21.375  28.057   8.287
 1137POPC   C3A18569  21.327  28.340   7.878
 1137POPC   C4A18570  21.441  28.595   7.484
 1137POPC   C1B18571  21.709  28.620   8.768
 1137POPC   C2B18572  21.605  28.515   8.329
 1137POPC   C3B18573  21.808  28.519   7.914
 1137POPC   C4B18574  21.931  28.783   7.544
 1138POPC   NC318575  40.055   1.473   9.735
 1138POPC   PO418576  39.667   1.029   9.447
 1138POPC   GL118577  39.976   1.075   9.123
 1138POPC   GL218578  40.133   1.403   9.231
 1138POPC   C1A18579  39.843   1.016   8.675
 1138POPC   D2A18580  39.776   1.157   8.233
 1138POPC   C3A18581  40.015   1.052   7.886
 1138POPC   C4A18582  39.892   0.818   7.532
 1138POPC   C1B18583  40.022   1.466   8.805
 1138POPC   C2B18584  40.223   1.317   8.452
 1138POPC   C3B18585  40.204   1.493   8.060
 1138POPC   C4B18586  39.848   1.526   7.819
 1139POPC   NC318587  10.059   0.380   9.638
 1139POPC   PO418588   9.726   0.823   9.219
 1139POPC   GL118589   9.670   0.483   8.981
 1139POPC   GL218590   9.884   0.234   9.101
 1139POPC   C1A18591   9.437   0.335   8.630
 1139POPC   D2A18592   9.584   0.138   8.265
 1139POPC   C3A18593   9.703   0.393   7.945
 1139POPC   C4A18594   9.520   0.674   7.667
 1139POPC   C1B18595   9.893   0.004   8.673
 1139POPC   C2B18596  10.094   0.118   8.234
 1139POPC   C3B18597  10.025   0.033   7.769
 1139POPC   C4B18598  10.153   0.150   7.293
 1140POPC   NC318599   7.223   8.231   9.722
 1140POPC   PO418600   7.743   8.583   9.516
 1140POPC   GL118601   7.669   8.311   9.162
 1140POPC   GL218602   7.334   8.185   9.214
 1140POPC   C1A18603   7.610   8.319   8.717
 1140POPC   D2A18604   7.747   8.188   8.317
 1140POPC   C3A18605   7.407   8.265   8.045
 1140POPC   C4A18606   7.460   8.384   7.632
 1140POPC   C1B18607   7.139   8.137   8.817
 1140POPC   C2B18608   7.336   7.911   8.478
 1140POPC   C3B18609   7.530   7.761   8.074
 1140POPC   C4B18610   7.359   7.886   7.678
 1141POPC   NC318611  17.253  19.675   9.251
 1141POPC   PO418612  17.813  19.606   9.465
 1141POPC   GL118613  17.698  19.841   9.044
 1141POPC   GL218614  17.692  20.232   8.996
 1141POPC   C1A18615  17.408  19.838   8.661
 1141POPC   D2A18616  17.196  19.537   8.398
 1141POPC   C3A18617  17.358  19.631   8.016
 1141POPC   C4A18618  17.312  19.746   7.614
 1141POPC   C1B18619  17.852  20.090   8.608
 1141POPC   C2B18620  17.661  19.989   8.221
 1141POPC   C3B18621  17.762  19.944   7.806
 1141POPC   C4B18622  17.692  19.945   7.335
 1142POPC   NC318623  42.583  33.324   9.454
 1142POPC   PO418624  42.543  32.691   9.399
 1142POPC   GL118625  42.648  32.905   9.051
 1142POPC   GL218626  42.434  33.189   8.976
 1142POPC   C1A18627  42.733  32.948   8.629
 1142POPC   D2A18628  42.475  33.265   8.418
 1142POPC   C3A18629  42.348  33.074   8.085
 1142POPC   C4A18630  42.660  32.912   7.769
 1142POPC   C1B18631  42.242  32.850   8.700
 1142POPC   C2B18632  41.877  32.836   8.445
 1142POPC   C3B18633  41.862  32.788   8.010
 1142POPC   C4B18634  42.177  32.773   7.716
 1143POPC   NC318635  12.395   9.498   9.358
 1143POPC   PO418636  11.913   9.976   9.421
 1143POPC   GL118637  11.896   9.662   9.157
 1143POPC   GL218638  12.188   9.674   8.940
 1143POPC   C1A18639  11.703   9.566   8.801
 1143POPC   D2A18640  11.828   9.898   8.553
 1143POPC   C3A18641  11.820   9.808   8.117
 1143POPC   C4A18642  11.975   9.798   7.694
 1143POPC   C1B18643  12.384  10.016   8.749
 1143POPC   C2B18644  12.424  10.043   8.320
 1143POPC   C3B18645  12.230  10.134   7.963
 1143POPC   C4B18646  12.335  10.149   7.547
 1144POPC   NC318647  38.132  44.257   9.660
 1144POPC   PO418648  38.586  43.821   9.479
 1144POPC   GL118649  38.479  44.086   9.155
 1144POPC   GL218650  38.125  43.979   9.133
 1144POPC   C1A18651  38.676  44.160   8.728
 1144POPC   D2A18652  38.699  43.856   8.370
 1144POPC   C3A18653  38.545  43.839   7.920
 1144POPC   C4A18654  38.675  43.725   7.499
 1144POPC   C1B18655  38.290  43.824   8.725
 1144POPC   C2B18656  38.213  43.705   8.291
 1144POPC   C3B18657  38.207  43.447   7.884
 1144POPC   C4B18658  38.215  43.486   7.412
 1145POPC   NC318659  18.568  33.273   9.474
 1145POPC   PO418660  18.155  32.687   9.424
 1145POPC   GL118661  18.392  32.927   9.134
 1145POPC   GL218662  18.164  33.005   8.920
 1145POPC   C1A18663  18.641  33.040   8.773
 1145POPC   D2A18664  18.408  33.169   8.420
 1145POPC   C3A18665  18.444  32.958   8.057
 1145POPC   C4A18666  18.275  32.858   7.647
 1145POPC   C1B18667  17.930  33.265   8.641
 1145POPC   C2B18668  17.813  33.394   8.254
 1145POPC   C3B18669  17.897  33.204   7.849
 1145POPC   C4B18670  18.034  33.243   7.401
 1146POPC   NC318671  44.102  12.619   9.354
 1146POPC   PO418672  43.526  12.904   9.445
 1146POPC   GL118673  43.811  13.013   9.137
 1146POPC   GL218674  43.508  13.086   8.950
 1146POPC   C1A18675  44.109  13.010   8.807
 1146POPC   D2A18676  44.151  13.117   8.414
 1146POPC   C3A18677  43.829  12.994   8.186
 1146POPC   C4A18678  44.056  12.956   7.804
 1146POPC   C1B18679  43.686  12.684   8.777
 1146POPC   C2B18680  43.955  12.548   8.452
 1146POPC   C3B18681  43.836  12.518   8.019
 1146POPC   C4B18682  43.622  12.762   7.691
 1147POPC   NC318683  23.142  21.551   9.411
 1147POPC   PO418684  23.108  21.011   9.271
 1147POPC   GL118685  22.970  21.380   8.964
 1147POPC   GL218686  22.713  21.631   9.064
 1147POPC   C1A18687  22.981  21.726   8.646
 1147POPC   D2A18688  22.781  21.837   8.246
 1147POPC   C3A18689  22.922  21.483   8.000
 1147POPC   C4A18690  23.085  21.153   7.685
 1147POPC   C1B18691  22.509  21.580   8.619
 1147POPC   C2B18692  22.421  21.483   8.165
 1147POPC   C3B18693  22.499  21.621   7.727
 1147POPC   C4B18694  22.568  21.450   7.278
 1148POPC   NC318695  37.425  23.289   9.339
 1148POPC   PO418696  36.950  23.734   9.614
 1148POPC   GL118697  37.061  23.623   9.216
 1148POPC   GL218698  36.922  23.261   9.178
 1148POPC   C1A18699  37.258  23.826   8.832
 1148POPC   D2A18700  36.996  23.884   8.458
 1148POPC   C3A18701  37.137  23.793   8.039
 1148POPC   C4A18702  36.885  23.953   7.703
 1148POPC   C1B18703  36.922  23.445   8.767
 1148POPC   C2B18704  36.658  23.483   8.403
 1148POPC   C3B18705  36.612  23.652   8.026
 1148POPC   C4B18706  36.870  23.439   7.780
 1149POPC   NC318707  27.336  35.949   9.453
 1149POPC   PO418708  27.883  36.345   9.458
 1149POPC   GL118709  27.762  36.096   9.125
 1149POPC   GL218710  27.463  36.248   9.061
 1149POPC   C1A18711  27.691  36.008   8.678
 1149POPC   D2A18712  27.505  36.042   8.256
 1149POPC   C3A18713  27.842  35.969   7.949
 1149POPC   C4A18714  27.860  36.135   7.527
 1149POPC   C1B18715  27.240  36.265   8.677
 1149POPC   C2B18716  26.992  36.088   8.368
 1149POPC   C3B18717  27.045  36.007   7.964
 1149POPC   C4B18718  27.408  36.073   7.714
 1150POPC   NC318719  43.533   0.141   9.325
 1150POPC   PO418720  44.043   0.617   9.426
 1150POPC   GL118721  43.867   0.496   9.080
 1150POPC   GL218722  43.687   0.814   9.023
 1150POPC   C1A18723  43.994   0.218   8.720
 1150POPC   D2A18724  44.249   0.307   8.351
 1150POPC   C3A18725  44.099   0.342   7.918
 1150POPC   C4A18726  44.022   0.406   7.458
 1150POPC   C1B18727  43.831   0.822   8.617
 1150POPC   C2B18728  43.855   0.929   8.200
 1150POPC   C3B18729  43.841   0.806   7.792
 1150POPC   C4B18730  44.087   0.917   7.426
 1151POPC   NC318731  20.939   1.128   9.332
 1151POPC   PO418732  20.322   1.410   9.501
 1151POPC   GL118733  20.442   1.090   9.083
 1151POPC   GL218734  20.749   0.860   8.952
 1151POPC   C1A18735  20.361   0.866   8.639
 1151POPC   D2A18736  20.393   0.954   8.186
 1151POPC   C3A18737  20.508   1.385   8.010
 1151POPC   C4A18738  20.707   1.415   7.581
 1151POPC   C1B18739  20.844   1.203   8.654
 1151POPC   C2B18740  20.980   1.339   8.237
 1151POPC   C3B18741  20.866   1.045   7.890
 1151POPC   C4B18742  20.924   0.957   7.457
 1152POPC   NC318743   4.739  13.069   9.656
 1152POPC   PO418744   5.176  12.602   9.737
 1152POPC   GL118745   5.041  12.592   9.281
 1152POPC   GL218746   4.880  12.870   9.129
 1152POPC   C1A18747   5.248  12.592   8.852
 1152POPC   D2A18748   5.451  12.516   8.434
 1152POPC   C3A18749   5.243  12.747   8.119
 1152POPC   C4A18750   5.214  12.855   7.716
 1152POPC   C1B18751   4.667  13.076   8.759
 1152POPC   C2B18752   4.542  13.040   8.301
 1152POPC   C3B18753   4.804  13.112   7.908
 1152POPC   C4B18754   4.764  12.941   7.483
 1153POPC   NC318755  19.773  21.564   9.638
 1153POPC   PO418756  20.044  21.028   9.582
 1153POPC   GL118757  19.930  21.301   9.218
 1153POPC   GL218758  19.596  21.423   9.171
 1153POPC   C1A18759  19.952  21.539   8.808
 1153POPC   D2A18760  19.759  21.539   8.375
 1153POPC   C3A18761  20.009  21.666   7.974
 1153POPC   C4A18762  20.314  21.532   7.628
 1153POPC   C1B18763  19.458  21.677   8.792
 1153POPC   C2B18764  19.410  21.925   8.363
 1153POPC   C3B18765  19.471  21.706   7.984
 1153POPC   C4B18766  19.667  21.291   7.905
 1154POPC   NC318767  40.846  12.397   9.605
 1154POPC   PO418768  40.490  11.878   9.406
 1154POPC   GL118769  40.738  11.975   9.079
 1154POPC   GL218770  41.079  11.973   9.076
 1154POPC   C1A18771  40.677  12.022   8.661
 1154POPC   D2A18772  40.590  12.144   8.262
 1154POPC   C3A18773  40.834  11.881   7.959
 1154POPC   C4A18774  40.948  11.822   7.506
 1154POPC   C1B18775  41.017  12.352   8.809
 1154POPC   C2B18776  41.069  12.530   8.402
 1154POPC   C3B18777  41.017  12.376   7.987
 1154POPC   C4B18778  40.960  12.528   7.550
 1155POPC   NC318779  22.485   9.453   9.385
 1155POPC   PO418780  23.018   9.794   9.578
 1155POPC   GL118781  22.971   9.693   9.150
 1155POPC   GL218782  22.668   9.819   9.082
 1155POPC   C1A18783  23.087   9.803   8.722
 1155POPC   D2A18784  22.948   9.665   8.339
 1155POPC   C3A18785  23.216   9.698   8.002
 1155POPC   C4A18786  23.018   9.686   7.611
 1155POPC   C1B18787  22.484  10.038   8.755
 1155POPC   C2B18788  22.502   9.915   8.334
 1155POPC   C3B18789  22.603   9.824   7.925
 1155POPC   C4B18790  22.662  10.059   7.521
 1156POPC   NC318791  10.534  20.094   9.431
 1156POPC   PO418792  10.665  19.450   9.522
 1156POPC   GL118793  10.706  19.701   9.178
 1156POPC   GL218794  10.371  19.721   9.102
 1156POPC   C1A18795  10.712  19.913   8.769
 1156POPC   D2A18796  10.406  19.862   8.424
 1156POPC   C3A18797  10.478  20.055   8.024
 1156POPC   C4A18798  10.755  20.006   7.643
 1156POPC   C1B18799  10.175  19.521   8.761
 1156POPC   C2B18800   9.992  19.537   8.344
 1156POPC   C3B18801  10.275  19.542   8.026
 1156POPC   C4B18802  10.374  19.690   7.679
 1157POPC   NC318803  20.926   4.130   9.511
 1157POPC   PO418804  21.559   4.422   9.345
 1157POPC   GL118805  21.265   4.166   9.130
 1157POPC   GL218806  20.953   4.412   9.087
 1157POPC   C1A18807  21.409   3.952   8.770
 1157POPC   D2A18808  21.514   4.159   8.388
 1157POPC   C3A18809  21.393   3.948   8.018
 1157POPC   C4A18810  21.427   4.065   7.610
 1157POPC   C1B18811  21.162   4.446   8.664
 1157POPC   C2B18812  21.386   4.665   8.299
 1157POPC   C3B18813  21.411   4.519   7.842
 1157POPC   C4B18814  21.288   4.703   7.406
 1158POPC   NC318815  16.709   9.293   9.614
 1158POPC   PO418816  16.522   8.627   9.599
 1158POPC   GL118817  16.431   8.781   9.170
 1158POPC   GL218818  16.663   9.010   9.197
 1158POPC   C1A18819  16.311   8.914   8.731
 1158POPC   D2A18820  16.187   8.686   8.344
 1158POPC   C3A18821  16.365   8.806   7.910
 1158POPC   C4A18822  16.806   8.732   7.781
 1158POPC   C1B18823  16.672   9.251   8.839
 1158POPC   C2B18824  16.724   9.045   8.431
 1158POPC   C3B18825  16.730   9.171   8.025
 1158POPC   C4B18826  16.979   9.210   7.655
 1159POPC   NC318827   9.614   1.243   9.399
 1159POPC   PO418828  10.098   0.901   9.625
 1159POPC   GL118829  10.062   1.220   9.149
 1159POPC   GL218830   9.847   1.476   9.022
 1159POPC   C1A18831   9.990   1.084   8.697
 1159POPC   D2A18832   9.760   0.749   8.495
 1159POPC   C3A18833   9.671   0.899   8.103
 1159POPC   C4A18834   9.939   0.996   7.782
 1159POPC   C1B18835   9.523   1.325   8.751
 1159POPC   C2B18836   9.433   1.474   8.357
 1159POPC   C3B18837   9.641   1.423   7.982
 1159POPC   C4B18838   9.449   1.184   7.686
 1160POPC   NC318839   9.603  10.335   9.606
 1160POPC   PO418840   9.886  10.966   9.567
 1160POPC   GL118841   9.723  10.706   9.251
 1160POPC   GL218842  10.010  10.500   9.210
 1160POPC   C1A18843   9.660  10.644   8.797
 1160POPC   D2A18844   9.772  10.486   8.375
 1160POPC   C3A18845   9.555  10.591   7.995
 1160POPC   C4A18846   9.590  10.955   7.758
 1160POPC   C1B18847  10.013  10.255   8.812
 1160POPC   C2B18848  10.074  10.088   8.397
 1160POPC   C3B18849  10.005  10.258   7.969
 1160POPC   C4B18850   9.634  10.118   7.808
 1161POPC   NC318851  28.687  38.549   9.528
 1161POPC   PO418852  29.380  38.281   9.577
 1161POPC   GL118853  29.303  38.350   9.124
 1161POPC   GL218854  28.956  38.445   9.091
 1161POPC   C1A18855  29.276  38.509   8.679
 1161POPC   D2A18856  29.053  38.314   8.314
 1161POPC   C3A18857  29.273  38.069   8.015
 1161POPC   C4A18858  29.621  38.241   7.742
 1161POPC   C1B18859  28.838  38.774   8.796
 1161POPC   C2B18860  28.992  38.833   8.391
 1161POPC   C3B18861  28.980  38.722   7.990
 1161POPC   C4B18862  28.750  38.723   7.640
 1162POPC   NC318863   4.797  36.404   9.422
 1162POPC   PO418864   5.262  35.923   9.391
 1162POPC   GL118865   4.889  36.010   9.081
 1162POPC   GL218866   4.750  36.373   8.934
 1162POPC   C1A18867   4.769  35.972   8.649
 1162POPC   D2A18868   4.653  35.995   8.219
 1162POPC   C3A18869   4.821  35.725   7.958
 1162POPC   C4A18870   5.162  35.850   7.765
 1162POPC   C1B18871   5.166  36.300   8.779
 1162POPC   C2B18872   5.185  36.071   8.379
 1162POPC   C3B18873   5.051  36.285   8.020
 1162POPC   C4B18874   5.267  36.359   7.654
 1163POPC   NC318875  34.482   5.194   9.562
 1163POPC   PO418876  35.112   5.432   9.539
 1163POPC   GL118877  34.840   5.243   9.173
 1163POPC   GL218878  34.503   5.383   9.101
 1163POPC   C1A18879  34.734   4.999   8.809
 1163POPC   D2A18880  34.577   5.045   8.381
 1163POPC   C3A18881  34.768   4.813   8.018
 1163POPC   C4A18882  34.530   4.572   7.734
 1163POPC   C1B18883  34.203   5.605   8.842
 1163POPC   C2B18884  33.994   5.498   8.467
 1163POPC   C3B18885  34.094   5.288   8.115
 1163POPC   C4B18886  34.448   5.195   7.898
 1164POPC   NC318887  27.638  10.602   9.721
 1164POPC   PO418888  27.096  10.374   9.315
 1164POPC   GL118889  27.465  10.619   9.206
 1164POPC   GL218890  27.795  10.547   9.209
 1164POPC   C1A18891  27.477  10.844   8.833
 1164POPC   D2A18892  27.605  10.676   8.447
 1164POPC   C3A18893  27.421  10.702   8.049
 1164POPC   C4A18894  27.191  10.452   7.715
 1164POPC   C1B18895  27.977  10.767   8.853
 1164POPC   C2B18896  28.108  10.730   8.421
 1164POPC   C3B18897  27.915  10.508   8.066
 1164POPC   C4B18898  27.753  10.664   7.697
 1165POPC   NC318899  19.391   0.242   9.463
 1165POPC   PO418900  18.898   0.687   9.416
 1165POPC   GL118901  18.900   0.331   9.111
 1165POPC   GL218902  19.223   0.154   8.991
 1165POPC   C1A18903  18.873   0.380   8.669
 1165POPC   D2A18904  19.030   0.652   8.352
 1165POPC   C3A18905  18.875   0.529   7.996
 1165POPC   C4A18906  18.806   0.210   7.725
 1165POPC   C1B18907  19.360   0.530   8.741
 1165POPC   C2B18908  19.480   0.435   8.298
 1165POPC   C3B18909  19.335   0.406   7.860
 1165POPC   C4B18910  19.395   0.055   7.573
 1166POPC   NC318911  39.537  43.310   9.587
 1166POPC   PO418912  38.942  43.001   9.625
 1166POPC   GL118913  39.128  43.277   9.253
 1166POPC   GL218914  38.933  43.587   9.151
 1166POPC   C1A18915  39.209  43.249   8.805
 1166POPC   D2A18916  39.375  43.073   8.420
 1166POPC   C3A18917  39.385  43.234   8.012
 1166POPC   C4A18918  39.597  43.395   7.664
 1166POPC   C1B18919  38.997  43.695   8.749
 1166POPC   C2B18920  39.079  43.497   8.349
 1166POPC   C3B18921  38.976  43.532   7.904
 1166POPC   C4B18922  39.124  43.447   7.474
 1167POPC   NC318923  10.450  40.464   9.291
 1167POPC   PO418924  10.649  41.073   9.506
 1167POPC   GL118925  10.778  40.863   9.125
 1167POPC   GL218926  10.930  40.525   9.129
 1167POPC   C1A18927  10.614  40.808   8.716
 1167POPC   D2A18928  10.679  40.833   8.292
 1167POPC   C3A18929  10.344  40.709   8.028
 1167POPC   C4A18930  10.351  40.907   7.650
 1167POPC   C1B18931  10.833  40.342   8.743
 1167POPC   C2B18932  10.650  40.298   8.329
 1167POPC   C3B18933  10.769  40.448   7.922
 1167POPC   C4B18934  10.547  40.469   7.535
 1168POPC   NC318935  43.450  10.709   9.472
 1168POPC   PO418936  44.076  10.729   9.826
 1168POPC   GL118937  43.951  10.502   9.396
 1168POPC   GL218938  43.665  10.264   9.351
 1168POPC   C1A18939  43.880  10.583   8.934
 1168POPC   D2A18940  43.995  10.759   8.536
 1168POPC   C3A18941  43.951  10.535   8.150
 1168POPC   C4A18942  43.894  10.672   7.747
 1168POPC   C1B18943  43.650  10.125   8.903
 1168POPC   C2B18944  43.583  10.322   8.490
 1168POPC   C3B18945  43.673  10.108   8.101
 1168POPC   C4B18946  43.841  10.183   7.704
 1169POPC   NC318947  28.086  35.896   9.490
 1169POPC   PO418948  28.584  36.272   9.588
 1169POPC   GL118949  28.495  36.034   9.224
 1169POPC   GL218950  28.286  36.288   9.143
 1169POPC   C1A18951  28.581  36.046   8.785
 1169POPC   D2A18952  28.651  36.189   8.363
 1169POPC   C3A18953  28.376  35.930   8.096
 1169POPC   C4A18954  28.292  35.920   7.659
 1169POPC   C1B18955  28.132  36.316   8.737
 1169POPC   C2B18956  27.966  36.332   8.321
 1169POPC   C3B18957  28.184  36.377   7.942
 1169POPC   C4B18958  28.612  36.307   7.839
 1170POPC   NC318959  21.146  30.022   9.670
 1170POPC   PO418960  21.092  30.600   9.519
 1170POPC   GL118961  20.951  30.546   9.083
 1170POPC   GL218962  20.982  30.198   9.132
 1170POPC   C1A18963  21.008  30.682   8.645
 1170POPC   D2A18964  21.129  30.518   8.234
 1170POPC   C3A18965  21.119  30.785   7.902
 1170POPC   C4A18966  21.447  30.940   7.630
 1170POPC   C1B18967  21.298  30.284   8.774
 1170POPC   C2B18968  21.588  30.444   8.411
 1170POPC   C3B18969  21.577  30.504   7.936
 1170POPC   C4B18970  21.793  30.569   7.499
 1171POPC   NC318971  31.949  34.364   9.397
 1171POPC   PO418972  32.483  34.650   9.665
 1171POPC   GL118973  32.423  34.465   9.249
 1171POPC   GL218974  32.317  34.795   9.168
 1171POPC   C1A18975  32.231  34.434   8.819
 1171POPC   D2A18976  32.147  34.704   8.485
 1171POPC   C3A18977  32.347  34.581   8.112
 1171POPC   C4A18978  32.280  34.258   7.788
 1171POPC   C1B18979  32.014  35.009   8.898
 1171POPC   C2B18980  31.976  35.214   8.491
 1171POPC   C3B18981  31.902  34.965   8.130
 1171POPC   C4B18982  31.965  34.674   7.796
 1172POPC   NC318983  12.368   8.359   9.713
 1172POPC   PO418984  11.747   8.417   9.524
 1172POPC   GL118985  12.063   8.342   9.186
 1172POPC   GL218986  12.368   8.126   9.222
 1172POPC   C1A18987  11.947   8.302   8.730
 1172POPC   D2A18988  11.719   8.581   8.447
 1172POPC   C3A18989  11.928   8.396   8.163
 1172POPC   C4A18990  11.811   8.215   7.809
 1172POPC   C1B18991  12.423   8.057   8.782
 1172POPC   C2B18992  12.381   8.273   8.389
 1172POPC   C3B18993  12.306   8.123   7.957
 1172POPC   C4B18994  12.543   8.052   7.580
 1173POPC   NC318995  25.771   9.910   9.492
 1173POPC   PO418996  26.321  10.126   9.525
 1173POPC   GL118997  26.164   9.876   9.142
 1173POPC   GL218998  25.842   9.653   9.078
 1173POPC   C1A18999  26.154   9.777   8.690
 1173POPC   D2A19000  26.239   9.925   8.273
 1173POPC   C3A19001  26.078   9.776   7.861
 1173POPC   C4A19002  26.305   9.842   7.456
 1173POPC   C1B19003  25.630   9.696   8.681
 1173POPC   C2B19004  25.763   9.623   8.250
 1173POPC   C3B19005  25.599   9.533   7.818
 1173POPC   C4B19006  25.664   9.184   7.501
 1174POPC   NC319007  35.815  20.510   9.386
 1174POPC   PO419008  36.334  20.804   9.712
 1174POPC   GL119009  36.420  20.806   9.258
 1174POPC   GL219010  36.229  20.542   9.100
 1174POPC   C1A19011  36.328  20.956   8.831
 1174POPC   D2A19012  36.313  20.782   8.414
 1174POPC   C3A19013  35.986  20.862   8.089
 1174POPC   C4A19014  36.002  20.778   7.627
 1174POPC   C1B19015  35.939  20.591   8.750
 1174POPC   C2B19016  35.956  20.396   8.378
 1174POPC   C3B19017  36.064  20.364   7.969
 1174POPC   C4B19018  35.744  20.334   7.679
 1175POPC   NC319019  10.562   8.438   9.488
 1175POPC   PO419020  10.183   7.824   9.522
 1175POPC   GL119021  10.364   8.062   9.152
 1175POPC   GL219022  10.732   8.093   9.120
 1175POPC   C1A19023  10.427   8.214   8.718
 1175POPC   D2A19024  10.563   8.039   8.323
 1175POPC   C3A19025  10.431   8.254   7.940
 1175POPC   C4A19026  10.370   8.533   7.570
 1175POPC   C1B19027  10.942   8.046   8.710
 1175POPC   C2B19028  11.043   7.870   8.289
 1175POPC   C3B19029  10.957   8.205   7.958
 1175POPC   C4B19030  10.774   8.210   7.533
 1176POPC   NC319031  27.837  32.907   9.759
 1176POPC   PO419032  27.397  33.235   9.508
 1176POPC   GL119033  27.475  32.959   9.172
 1176POPC   GL219034  27.751  32.793   9.251
 1176POPC   C1A19035  27.536  33.026   8.772
 1176POPC   D2A19036  27.641  33.197   8.426
 1176POPC   C3A19037  27.400  33.143   8.065
 1176POPC   C4A19038  27.480  32.917   7.689
 1176POPC   C1B19039  27.906  32.677   8.820
 1176POPC   C2B19040  28.059  32.883   8.441
 1176POPC   C3B19041  27.868  32.875   8.042
 1176POPC   C4B19042  27.962  32.718   7.636
 1177POPC   NC319043   6.299  29.902   9.250
 1177POPC   PO419044   5.663  30.169   9.471
 1177POPC   GL119045   5.834  30.065   9.096
 1177POPC   GL219046   5.932  29.752   8.932
 1177POPC   C1A19047   5.908  30.230   8.701
 1177POPC   D2A19048   5.920  29.912   8.423
 1177POPC   C3A19049   5.811  29.976   8.023
 1177POPC   C4A19050   5.757  29.921   7.587
 1177POPC   C1B19051   6.242  29.570   8.639
 1177POPC   C2B19052   6.347  29.705   8.211
 1177POPC   C3B19053   6.113  29.619   7.829
 1177POPC   C4B19054   5.977  29.501   7.381
 1178POPC   NC319055   3.087  34.230   9.435
 1178POPC   PO419056   2.548  34.704   9.500
 1178POPC   GL119057   2.825  34.596   9.184
 1178POPC   GL219058   3.001  34.864   9.015
 1178POPC   C1A19059   2.901  34.381   8.812
 1178POPC   D2A19060   2.791  34.266   8.415
 1178POPC   C3A19061   2.974  34.464   8.062
 1178POPC   C4A19062   2.753  34.445   7.683
 1178POPC   C1B19063   2.644  34.891   8.802
 1178POPC   C2B19064   2.591  35.055   8.463
 1178POPC   C3B19065   2.681  34.901   8.102
 1178POPC   C4B19066   2.522  34.879   7.729
 1179POPC   NC319067  10.761  44.675   9.535
 1179POPC   PO419068  10.302  44.272   9.372
 1179POPC   GL119069  10.579  44.491   9.077
 1179POPC   GL219070  10.583  44.855   9.082
 1179POPC   C1A19071  10.680  44.573   8.639
 1179POPC   D2A19072  11.006  44.619   8.349
 1179POPC   C3A19073  10.703  44.474   8.057
 1179POPC   C4A19074  10.556  44.286   7.691
 1179POPC   C1B19075  10.432   0.009   8.665
 1179POPC   C2B19076  10.616  44.994   8.250
 1179POPC   C3B19077  10.512  44.864   7.826
 1179POPC   C4B19078  10.385  44.706   7.417
 1180POPC   NC319079  31.909  36.215   9.423
 1180POPC   PO419080  32.470  35.916   9.376
 1180POPC   GL119081  32.305  36.201   9.046
 1180POPC   GL219082  32.011  36.448   8.981
 1180POPC   C1A19083  32.126  36.071   8.660
 1180POPC   D2A19084  32.013  36.176   8.262
 1180POPC   C3A19085  32.306  35.946   7.992
 1180POPC   C4A19086  32.675  36.045   7.736
 1180POPC   C1B19087  32.150  36.594   8.580
 1180POPC   C2B19088  32.074  36.656   8.125
 1180POPC   C3B19089  32.064  36.357   7.789
 1180POPC   C4B19090  31.746  36.259   7.490
 1181POPC   NC319091  31.868  32.402   9.607
 1181POPC   PO419092  31.310  32.070   9.763
 1181POPC   GL119093  31.169  32.197   9.241
 1181POPC   GL219094  31.424  32.212   8.958
 1181POPC   C1A19095  31.028  31.959   8.803
 1181POPC   D2A19096  31.239  31.864   8.392
 1181POPC   C3A19097  31.373  32.196   8.122
 1181POPC   C4A19098  31.351  32.173   7.699
 1181POPC   C1B19099  31.659  31.920   8.676
 1181POPC   C2B19100  31.843  32.056   8.308
 1181POPC   C3B19101  31.800  31.945   7.903
 1181POPC   C4B19102  31.838  32.143   7.541
 1182POPC   NC319103  31.347  16.437   9.630
 1182POPC   PO419104  31.826  16.725   9.246
 1182POPC   GL119105  31.406  16.670   9.108
 1182POPC   GL219106  31.305  17.000   9.249
 1182POPC   C1A19107  31.337  16.764   8.655
 1182POPC   D2A19108  31.639  16.982   8.375
 1182POPC   C3A19109  31.648  16.788   7.958
 1182POPC   C4A19110  31.297  16.518   7.845
 1182POPC   C1B19111  31.392  17.234   8.843
 1182POPC   C2B19112  31.171  17.216   8.439
 1182POPC   C3B19113  31.312  17.193   8.018
 1182POPC   C4B19114  31.466  17.234   7.624
 1183POPC   NC319115  36.311   9.871   9.506
 1183POPC   PO419116  35.678   9.653   9.371
 1183POPC   GL119117  36.043   9.670   9.094
 1183POPC   GL219118  36.308   9.427   9.182
 1183POPC   C1A19119  36.226  10.025   8.838
 1183POPC   D2A19120  36.259  10.248   8.443
 1183POPC   C3A19121  36.294   9.995   8.066
 1183POPC   C4A19122  36.317  10.090   7.647
 1183POPC   C1B19123  36.472   9.470   8.816
 1183POPC   C2B19124  36.322   9.646   8.462
 1183POPC   C3B19125  36.247   9.453   8.087
 1183POPC   C4B19126  36.247   9.575   7.708
 1184POPC   NC319127  12.150  14.764   9.544
 1184POPC   PO419128  12.432  14.144   9.378
 1184POPC   GL119129  12.145  14.387   9.123
 1184POPC   GL219130  12.277  14.689   9.065
 1184POPC   C1A19131  11.878  14.556   8.781
 1184POPC   D2A19132  11.858  14.377   8.332
 1184POPC   C3A19133  11.683  14.644   7.993
 1184POPC   C4A19134  11.645  14.641   7.530
 1184POPC   C1B19135  12.371  14.618   8.666
 1184POPC   C2B19136  12.539  14.543   8.303
 1184POPC   C3B19137  12.325  14.600   7.932
 1184POPC   C4B19138  12.004  14.314   7.758
 1185POPC   NC319139  11.791  10.417   9.351
 1185POPC   PO419140  12.269  10.864   9.478
 1185POPC   GL119141  12.081  10.741   9.088
 1185POPC   GL219142  12.400  10.648   8.996
 1185POPC   C1A19143  12.000  10.426   8.717
 1185POPC   D2A19144  11.877  10.319   8.289
 1185POPC   C3A19145  11.893  10.576   7.942
 1185POPC   C4A19146  11.860  10.307   7.608
 1185POPC   C1B19147  12.279  10.847   8.612
 1185POPC   C2B19148  12.330  10.572   8.270
 1185POPC   C3B19149  12.473  10.568   7.858
 1185POPC   C4B19150  12.227  10.830   7.652
 1186POPC   NC319151  28.828  26.496   9.594
 1186POPC   PO419152  28.285  26.869   9.587
 1186POPC   GL119153  28.531  26.882   9.232
 1186POPC   GL219154  28.600  26.539   9.131
 1186POPC   C1A19155  28.292  26.858   8.854
 1186POPC   D2A19156  28.143  26.617   8.513
 1186POPC   C3A19157  28.372  26.691   8.158
 1186POPC   C4A19158  28.232  26.841   7.764
 1186POPC   C1B19159  28.746  26.699   8.729
 1186POPC   C2B19160  28.693  27.019   8.401
 1186POPC   C3B19161  28.713  26.998   7.933
 1186POPC   C4B19162  28.682  26.585   7.697
 1187POPC   NC319163  37.232   9.756   9.448
 1187POPC   PO419164  36.601   9.513   9.571
 1187POPC   GL119165  36.732   9.765   9.232
 1187POPC   GL219166  36.927   9.539   9.098
 1187POPC   C1A19167  36.739   9.901   8.801
 1187POPC   D2A19168  36.694   9.985   8.385
 1187POPC   C3A19169  36.732   9.692   8.109
 1187POPC   C4A19170  36.723   9.740   7.709
 1187POPC   C1B19171  37.193   9.663   8.741
 1187POPC   C2B19172  37.174   9.475   8.340
 1187POPC   C3B19173  37.143   9.423   7.908
 1187POPC   C4B19174  37.259   9.672   7.599
 1188POPC   NC319175  41.786  34.624   9.855
 1188POPC   PO419176  41.482  34.006   9.698
 1188POPC   GL119177  41.548  34.357   9.353
 1188POPC   GL219178  41.297  34.650   9.313
 1188POPC   C1A19179  41.603  34.508   8.889
 1188POPC   D2A19180  41.602  34.798   8.499
 1188POPC   C3A19181  41.711  34.680   8.070
 1188POPC   C4A19182  41.712  34.519   7.654
 1188POPC   C1B19183  41.090  34.596   8.887
 1188POPC   C2B19184  41.082  34.799   8.516
 1188POPC   C3B19185  41.174  34.809   8.105
 1188POPC   C4B19186  41.370  34.876   7.713
 1189POPC   NC319187  40.496   6.246   9.506
 1189POPC   PO419188  40.801   5.593   9.460
 1189POPC   GL119189  40.795   5.924   9.132
 1189POPC   GL219190  40.485   6.019   8.977
 1189POPC   C1A19191  40.996   6.153   8.778
 1189POPC   D2A19192  41.203   6.244   8.365
 1189POPC   C3A19193  40.988   6.065   7.990
 1189POPC   C4A19194  40.524   6.047   7.852
 1189POPC   C1B19195  40.582   5.548   8.808
 1189POPC   C2B19196  40.587   5.260   8.418
 1189POPC   C3B19197  40.603   5.376   7.987
 1189POPC   C4B19198  40.847   5.666   7.696
 1190POPC   NC319199  19.942  31.141   9.234
 1190POPC   PO419200  19.475  31.649   9.445
 1190POPC   GL119201  19.685  31.573   9.058
 1190POPC   GL219202  19.590  31.261   8.847
 1190POPC   C1A19203  19.730  31.678   8.633
 1190POPC   D2A19204  19.498  31.486   8.334
 1190POPC   C3A19205  19.681  31.258   8.014
 1190POPC   C4A19206  19.909  31.227   7.646
 1190POPC   C1B19207  19.913  31.198   8.510
 1190POPC   C2B19208  20.177  31.303   8.155
 1190POPC   C3B19209  20.411  31.309   7.769
 1190POPC   C4B19210  20.268  31.493   7.347
 1191POPC   NC319211  21.542  13.194   9.550
 1191POPC   PO419212  21.265  12.573   9.478
 1191POPC   GL119213  21.492  12.777   9.126
 1191POPC   GL219214  21.531  12.465   8.951
 1191POPC   C1A19215  21.590  12.990   8.688
 1191POPC   D2A19216  21.446  13.106   8.216
 1191POPC   C3A19217  21.114  12.898   7.907
 1191POPC   C4A19218  20.952  12.858   7.464
 1191POPC   C1B19219  21.787  12.524   8.611
 1191POPC   C2B19220  21.833  12.779   8.248
 1191POPC   C3B19221  21.550  12.655   7.901
 1191POPC   C4B19222  21.279  12.464   7.597
 1192POPC   NC319223  13.501  41.402   9.673
 1192POPC   PO419224  14.050  41.782   9.458
 1192POPC   GL119225  13.868  41.593   9.156
 1192POPC   GL219226  13.525  41.684   9.232
 1192POPC   C1A19227  13.706  41.285   8.910
 1192POPC   D2A19228  13.615  41.390   8.509
 1192POPC   C3A19229  13.498  41.367   8.079
 1192POPC   C4A19230  13.887  41.425   7.852
 1192POPC   C1B19231  13.545  41.825   8.811
 1192POPC   C2B19232  13.359  41.802   8.420
 1192POPC   C3B19233  13.370  41.869   8.012
 1192POPC   C4B19234  13.441  41.727   7.600
 1193POPC   NC319235  40.253  13.793   9.349
 1193POPC   PO419236  40.825  13.401   9.365
 1193POPC   GL119237  40.703  13.669   9.085
 1193POPC   GL219238  40.453  13.416   9.022
 1193POPC   C1A19239  40.906  13.626   8.705
 1193POPC   D2A19240  40.879  13.397   8.353
 1193POPC   C3A19241  41.002  13.657   8.026
 1193POPC   C4A19242  40.867  13.515   7.652
 1193POPC   C1B19243  40.373  13.683   8.682
 1193POPC   C2B19244  40.588  13.850   8.340
 1193POPC   C3B19245  40.525  13.809   7.893
 1193POPC   C4B19246  40.465  13.840   7.425
 1194POPC   NC319247   4.569   0.388   9.554
 1194POPC   PO419248   3.934   0.237   9.744
 1194POPC   GL119249   4.123   0.333   9.319
 1194POPC   GL219250   4.178  44.965   9.320
 1194POPC   C1A19251   4.414   0.523   8.935
 1194POPC   D2A19252   4.452   0.344   8.505
 1194POPC   C3A19253   4.295   0.548   8.133
 1194POPC   C4A19254   4.469   0.702   7.729
 1194POPC   C1B19255   4.293   0.035   8.899
 1194POPC   C2B19256   4.095  44.994   8.488
 1194POPC   C3B19257   4.354   0.029   8.101
 1194POPC   C4B19258   4.423   0.181   7.685
 1195POPC   NC319259   8.331  24.838   9.686
 1195POPC   PO419260   7.945  24.329   9.556
 1195POPC   GL119261   8.104  24.660   9.223
 1195POPC   GL219262   8.429  24.877   9.189
 1195POPC   C1A19263   8.345  24.494   8.844
 1195POPC   D2A19264   8.243  24.158   8.538
 1195POPC   C3A19265   8.314  24.312   8.130
 1195POPC   C4A19266   8.048  24.487   7.858
 1195POPC   C1B19267   8.653  24.916   8.778
 1195POPC   C2B19268   8.492  24.796   8.357
 1195POPC   C3B19269   8.565  24.813   7.897
 1195POPC   C4B19270   8.338  24.724   7.489
 1196POPC   NC319271  20.071  36.139   9.492
 1196POPC   PO419272  19.490  36.405   9.697
 1196POPC   GL119273  19.593  36.166   9.244
 1196POPC   GL219274  19.273  36.046   9.022
 1196POPC   C1A19275  19.738  35.979   8.821
 1196POPC   D2A19276  19.820  35.776   8.398
 1196POPC   C3A19277  19.825  35.993   8.002
 1196POPC   C4A19278  19.970  35.880   7.581
 1196POPC   C1B19279  19.279  35.803   8.643
 1196POPC   C2B19280  19.357  35.844   8.208
 1196POPC   C3B19281  19.337  36.131   7.903
 1196POPC   C4B19282  19.580  36.194   7.566
 1197POPC   NC319283  29.680  18.130   9.625
 1197POPC   PO419284  29.961  18.705   9.551
 1197POPC   GL119285  29.978  18.356   9.257
 1197POPC   GL219286  29.645  18.305   9.125
 1197POPC   C1A19287  30.177  18.209   8.884
 1197POPC   D2A19288  29.966  18.287   8.512
 1197POPC   C3A19289  30.098  18.381   8.107
 1197POPC   C4A19290  30.126  18.235   7.712
 1197POPC   C1B19291  29.523  18.098   8.751
 1197POPC   C2B19292  29.626  17.992   8.315
 1197POPC   C3B19293  29.645  18.158   7.901
 1197POPC   C4B19294  29.765  17.908   7.572
 1198POPC   NC319295  34.422  36.403   9.570
 1198POPC   PO419296  34.898  35.936   9.520
 1198POPC   GL119297  34.612  36.080   9.212
 1198POPC   GL219298  34.399  35.849   9.120
 1198POPC   C1A19299  34.669  36.226   8.784
 1198POPC   D2A19300  34.673  35.975   8.404
 1198POPC   C3A19301  34.789  36.063   7.996
 1198POPC   C4A19302  34.803  35.772   7.645
 1198POPC   C1B19303  34.196  36.058   8.802
 1198POPC   C2B19304  34.279  36.295   8.430
 1198POPC   C3B19305  34.279  36.107   8.040
 1198POPC   C4B19306  34.457  36.166   7.626
 1199POPC   NC319307  29.924  26.424   9.725
 1199POPC   PO419308  29.804  26.931   9.274
 1199POPC   GL119309  29.827  26.897   8.907
 1199POPC   GL219310  29.511  26.762   8.884
 1199POPC   C1A19311  30.139  26.845   8.636
 1199POPC   D2A19312  30.386  26.879   8.289
 1199POPC   C3A19313  30.142  27.047   7.939
 1199POPC   C4A19314  30.082  26.789   7.555
 1199POPC   C1B19315  29.726  26.511   8.572
 1199POPC   C2B19316  29.849  26.733   8.225
 1199POPC   C3B19317  29.673  26.840   7.846
 1199POPC   C4B19318  29.550  26.701   7.454
 1200POPC   NC319319  26.221  17.040   9.564
 1200POPC   PO419320  25.804  16.551   9.498
 1200POPC   GL119321  26.060  16.697   9.208
 1200POPC   GL219322  25.966  17.014   9.115
 1200POPC   C1A19323  26.159  16.574   8.826
 1200POPC   D2A19324  26.063  16.812   8.476
 1200POPC   C3A19325  26.288  16.695   8.138
 1200POPC   C4A19326  26.133  16.377   7.837
 1200POPC   C1B19327  26.307  17.108   8.831
 1200POPC   C2B19328  26.397  17.185   8.371
 1200POPC   C3B19329  26.169  17.174   7.952
 1200POPC   C4B19330  26.006  16.859   7.660
 1201POPC   NC319331  41.115  34.051   9.384
 1201POPC   PO419332  40.741  34.616   9.416
 1201POPC   GL119333  40.482  34.560   9.060
 1201POPC   GL219334  40.348  34.231   9.165
 1201POPC   C1A19335  40.593  34.644   8.654
 1201POPC   D2A19336  40.823  34.376   8.405
 1201POPC   C3A19337  40.719  34.529   8.035
 1201POPC   C4A19338  40.926  34.654   7.682
 1201POPC   C1B19339  40.496  34.156   8.737
 1201POPC   C2B19340  40.307  34.306   8.321
 1201POPC   C3B19341  40.373  34.183   7.871
 1201POPC   C4B19342  40.800  34.158   7.688
 1202POPC   NC319343   6.742  24.337   9.534
 1202POPC   PO419344   6.543  24.849   9.246
 1202POPC   GL119345   6.549  24.417   9.061
 1202POPC   GL219346   6.876  24.257   9.028
 1202POPC   C1A19347   6.548  24.238   8.647
 1202POPC   D2A19348   6.321  24.230   8.301
 1202POPC   C3A19349   6.578  24.345   7.949
 1202POPC   C4A19350   6.476  24.514   7.546
 1202POPC   C1B19351   6.873  24.635   8.711
 1202POPC   C2B19352   7.051  24.669   8.291
 1202POPC   C3B19353   7.075  24.468   7.891
 1202POPC   C4B19354   6.960  24.641   7.504
 1203POPC   NC319355   3.242  36.637   9.803
 1203POPC   PO419356   3.520  37.212   9.531
 1203POPC   GL119357   3.587  37.088   9.110
 1203POPC   GL219358   3.595  36.767   9.162
 1203POPC   C1A19359   3.325  37.023   8.733
 1203POPC   D2A19360   3.219  37.150   8.311
 1203POPC   C3A19361   3.591  37.139   8.057
 1203POPC   C4A19362   3.669  37.050   7.640
 1203POPC   C1B19363   3.650  36.608   8.799
 1203POPC   C2B19364   3.508  36.689   8.382
 1203POPC   C3B19365   3.515  36.420   8.071
 1203POPC   C4B19366   3.547  36.574   7.714
 1204POPC   NC319367  18.976  34.380   9.497
 1204POPC   PO419368  19.231  35.049   9.486
 1204POPC   GL119369  18.912  34.952   9.148
 1204POPC   GL219370  18.893  34.569   9.035
 1204POPC   C1A19371  18.835  34.926   8.704
 1204POPC   D2A19372  18.808  34.597   8.394
 1204POPC   C3A19373  18.947  34.756   8.015
 1204POPC   C4A19374  19.184  34.746   7.638
 1204POPC   C1B19375  19.204  34.413   8.727
 1204POPC   C2B19376  19.414  34.356   8.322
 1204POPC   C3B19377  19.245  34.323   7.903
 1204POPC   C4B19378  19.460  34.318   7.492
 1205POPC   NC319379   1.257   6.960   9.502
 1205POPC   PO419380   0.935   6.362   9.466
 1205POPC   GL119381   1.196   6.593   9.156
 1205POPC   GL219382   1.055   6.942   9.049
 1205POPC   C1A19383   1.464   6.677   8.811
 1205POPC   D2A19384   1.482   6.778   8.356
 1205POPC   C3A19385   1.185   6.598   8.053
 1205POPC   C4A19386   1.136   6.549   7.618
 1205POPC   C1B19387   1.199   7.098   8.665
 1205POPC   C2B19388   0.958   6.973   8.329
 1205POPC   C3B19389   0.840   7.078   7.934
 1205POPC   C4B19390   0.770   6.905   7.549
 1206POPC   NC319391  23.057  11.952   9.487
 1206POPC   PO419392  23.376  12.496   9.225
 1206POPC   GL119393  23.112  12.190   9.046
 1206POPC   GL219394  22.721  12.115   9.142
 1206POPC   C1A19395  23.259  11.976   8.705
 1206POPC   D2A19396  23.368  11.875   8.317
 1206POPC   C3A19397  23.243  12.149   7.997
 1206POPC   C4A19398  22.989  12.270   7.669
 1206POPC   C1B19399  22.742  12.254   8.717
 1206POPC   C2B19400  22.878  12.079   8.340
 1206POPC   C3B19401  22.651  12.033   7.970
 1206POPC   C4B19402  22.505  12.412   7.797
 1207POPC   NC319403  37.342   3.787   9.199
 1207POPC   PO419404  36.886   3.408   9.588
 1207POPC   GL119405  36.968   3.444   9.102
 1207POPC   GL219406  37.317   3.289   9.021
 1207POPC   C1A19407  36.855   3.719   8.714
 1207POPC   D2A19408  36.972   3.760   8.294
 1207POPC   C3A19409  36.683   3.925   8.002
 1207POPC   C4A19410  36.986   3.909   7.684
 1207POPC   C1B19411  37.190   3.382   8.615
 1207POPC   C2B19412  36.837   3.250   8.352
 1207POPC   C3B19413  36.952   3.261   7.898
 1207POPC   C4B19414  37.014   3.461   7.491
 1208POPC   NC319415  41.030  27.099   9.540
 1208POPC   PO419416  40.825  27.744   9.575
 1208POPC   GL119417  40.856  27.587   9.151
 1208POPC   GL219418  40.795  27.233   9.098
 1208POPC   C1A19419  41.075  27.613   8.752
 1208POPC   D2A19420  41.271  27.376   8.479
 1208POPC   C3A19421  41.041  27.507   8.144
 1208POPC   C4A19422  40.740  27.710   7.877
 1208POPC   C1B19423  40.598  27.408   8.723
 1208POPC   C2B19424  40.535  27.289   8.290
 1208POPC   C3B19425  40.725  27.194   7.905
 1208POPC   C4B19426  40.756  26.956   7.534
 1209POPC   NC319427  40.487  44.838   9.485
 1209POPC   PO419428  41.033  44.995   9.426
 1209POPC   GL119429  40.934  44.603   9.233
 1209POPC   GL219430  40.607  44.402   9.258
 1209POPC   C1A19431  40.849  44.670   8.820
 1209POPC   D2A19432  40.815   0.014   8.527
 1209POPC   C3A19433  40.709   0.068   8.083
 1209POPC   C4A19434  40.813  44.912   7.661
 1209POPC   C1B19435  40.490  44.310   8.814
 1209POPC   C2B19436  40.616  44.481   8.410
 1209POPC   C3B19437  40.782  44.557   8.028
 1209POPC   C4B19438  40.433  44.562   7.735
 1210POPC   NC319439  28.210  38.225   9.522
 1210POPC   PO419440  28.801  38.105   9.468
 1210POPC   GL119441  28.513  38.188   9.131
 1210POPC   GL219442  28.426  38.536   9.079
 1210POPC   C1A19443  28.150  38.165   8.838
 1210POPC   D2A19444  28.089  38.433   8.467
 1210POPC   C3A19445  28.182  38.328   8.036
 1210POPC   C4A19446  28.279  38.491   7.637
 1210POPC   C1B19447  28.600  38.361   8.674
 1210POPC   C2B19448  28.588  38.491   8.276
 1210POPC   C3B19449  28.722  38.287   7.903
 1210POPC   C4B19450  29.125  38.369   7.644
 1211POPC   NC319451  17.283  42.221   9.523
 1211POPC   PO419452  17.899  42.561   9.445
 1211POPC   GL119453  17.628  42.421   9.131
 1211POPC   GL219454  17.629  42.086   9.109
 1211POPC   C1A19455  17.492  42.361   8.705
 1211POPC   D2A19456  17.605  42.331   8.280
 1211POPC   C3A19457  17.405  42.485   7.930
 1211POPC   C4A19458  17.396  42.579   7.479
 1211POPC   C1B19459  17.325  41.901   8.854
 1211POPC   C2B19460  17.351  41.911   8.432
 1211POPC   C3B19461  17.405  41.954   8.004
 1211POPC   C4B19462  17.025  42.146   7.857
 1212POPC   NC319463  19.252   4.308   9.752
 1212POPC   PO419464  18.652   4.736   9.653
 1212POPC   GL119465  18.889   4.559   9.235
 1212POPC   GL219466  19.208   4.363   9.212
 1212POPC   C1A19467  18.960   4.415   8.789
 1212POPC   D2A19468  19.239   4.120   8.505
 1212POPC   C3A19469  19.054   3.971   8.095
 1212POPC   C4A19470  18.883   3.827   7.699
 1212POPC   C1B19471  19.456   4.517   8.844
 1212POPC   C2B19472  19.299   4.617   8.400
 1212POPC   C3B19473  19.240   4.441   7.992
 1212POPC   C4B19474  19.401   4.535   7.596
 1213POPC   NC319475  27.145  24.162   9.366
 1213POPC   PO419476  26.595  24.485   9.516
 1213POPC   GL119477  26.687  24.199   9.150
 1213POPC   GL219478  26.863  24.476   9.057
 1213POPC   C1A19479  26.781  24.069   8.732
 1213POPC   D2A19480  26.972  24.258   8.395
 1213POPC   C3A19481  26.710  24.198   8.040
 1213POPC   C4A19482  26.654  24.342   7.614
 1213POPC   C1B19483  27.031  24.652   8.721
 1213POPC   C2B19484  27.167  24.738   8.333
 1213POPC   C3B19485  27.091  24.517   7.964
 1213POPC   C4B19486  27.092  24.614   7.552
 1214POPC   NC319487  33.752  15.697   9.578
 1214POPC   PO419488  33.962  16.336   9.655
 1214POPC   GL119489  34.060  16.138   9.209
 1214POPC   GL219490  33.786  15.922   9.121
 1214POPC   C1A19491  33.976  16.105   8.704
 1214POPC   D2A19492  33.711  15.913   8.336
 1214POPC   C3A19493  33.785  16.017   7.882
 1214POPC   C4A19494  34.145  16.128   7.582
 1214POPC   C1B19495  33.456  15.861   8.794
 1214POPC   C2B19496  33.374  15.535   8.423
 1214POPC   C3B19497  33.445  15.619   7.948
 1214POPC   C4B19498  33.770  15.626   7.552
 1215POPC   NC319499  30.337  14.983   9.495
 1215POPC   PO419500  29.798  15.380   9.576
 1215POPC   GL119501  29.719  15.220   9.168
 1215POPC   GL219502  30.045  15.091   9.089
 1215POPC   C1A19503  29.760  15.332   8.733
 1215POPC   D2A19504  29.989  15.365   8.330
 1215POPC   C3A19505  29.747  15.242   7.964
 1215POPC   C4A19506  29.855  15.322   7.537
 1215POPC   C1B19507  30.227  15.030   8.691
 1215POPC   C2B19508  30.347  14.959   8.283
 1215POPC   C3B19509  30.210  15.054   7.882
 1215POPC   C4B19510  30.043  14.841   7.550
 1216POPC   NC319511   8.764  12.559   9.610
 1216POPC   PO419512   9.136  13.081   9.486
 1216POPC   GL119513   8.981  12.880   9.149
 1216POPC   GL219514   9.133  12.542   9.219
 1216POPC   C1A19515   9.123  12.980   8.713
 1216POPC   D2A19516   8.980  13.068   8.286
 1216POPC   C3A19517   9.238  13.013   7.918
 1216POPC   C4A19518   8.918  13.018   7.588
 1216POPC   C1B19519   8.924  12.511   8.801
 1216POPC   C2B19520   9.071  12.548   8.373
 1216POPC   C3B19521   8.956  12.595   7.934
 1216POPC   C4B19522   8.864  12.536   7.476
 1217POPC   NC319523  11.643  18.782   9.498
 1217POPC   PO419524  12.168  19.182   9.650
 1217POPC   GL119525  12.143  19.127   9.224
 1217POPC   GL219526  12.066  18.775   9.159
 1217POPC   C1A19527  12.167  19.330   8.812
 1217POPC   D2A19528  12.057  19.220   8.410
 1217POPC   C3A19529  12.417  19.206   8.162
 1217POPC   C4A19530  12.391  19.104   7.718
 1217POPC   C1B19531  12.346  18.634   8.813
 1217POPC   C2B19532  12.342  18.748   8.374
 1217POPC   C3B19533  12.047  18.851   8.044
 1217POPC   C4B19534  11.942  18.785   7.637
 1218POPC   NC319535  26.285  26.614   9.442
 1218POPC   PO419536  25.668  26.691   9.588
 1218POPC   GL119537  25.887  26.816   9.202
 1218POPC   GL219538  26.004  26.530   9.031
 1218POPC   C1A19539  25.969  26.972   8.774
 1218POPC   D2A19540  26.004  26.708   8.412
 1218POPC   C3A19541  26.053  26.932   8.046
 1218POPC   C4A19542  26.068  27.121   7.651
 1218POPC   C1B19543  26.150  26.292   8.694
 1218POPC   C2B19544  26.397  26.345   8.370
 1218POPC   C3B19545  26.312  26.494   8.003
 1218POPC   C4B19546  26.064  26.599   7.649
 1219POPC   NC319547  34.282  10.489   9.334
 1219POPC   PO419548  34.815  10.137   9.515
 1219POPC   GL119549  34.697  10.421   9.083
 1219POPC   GL219550  34.399  10.264   8.894
 1219POPC   C1A19551  34.684  10.570   8.606
 1219POPC   D2A19552  34.986  10.587   8.248
 1219POPC   C3A19553  34.903  10.559   7.781
 1219POPC   C4A19554  34.418  10.581   7.600
 1219POPC   C1B19555  34.845  10.074   8.771
 1219POPC   C2B19556  34.911  10.095   8.344
 1219POPC   C3B19557  34.620  10.254   8.042
 1219POPC   C4B19558  34.593  10.108   7.593
 1220POPC   NC319559  34.571  42.532   9.402
 1220POPC   PO419560  34.668  41.838   9.638
 1220POPC   GL119561  34.683  42.033   9.203
 1220POPC   GL219562  34.369  41.889   9.033
 1220POPC   C1A19563  34.629  42.272   8.777
 1220POPC   D2A19564  34.755  42.491   8.363
 1220POPC   C3A19565  34.433  42.669   8.139
 1220POPC   C4A19566  34.365  42.523   7.738
 1220POPC   C1B19567  34.060  42.088   8.762
 1220POPC   C2B19568  34.182  42.222   8.353
 1220POPC   C3B19569  34.459  42.100   7.999
 1220POPC   C4B19570  34.810  42.257   7.719
 1221POPC   NC319571  14.468  31.667   9.403
 1221POPC   PO419572  14.112  31.176   9.650
 1221POPC   GL119573  14.031  31.424   9.267
 1221POPC   GL219574  14.303  31.259   9.118
 1221POPC   C1A19575  14.102  31.649   8.828
 1221POPC   D2A19576  14.071  31.413   8.420
 1221POPC   C3A19577  14.177  31.610   8.000
 1221POPC   C4A19578  14.226  31.382   7.595
 1221POPC   C1B19579  14.492  31.330   8.722
 1221POPC   C2B19580  14.523  31.660   8.440
 1221POPC   C3B19581  14.676  31.649   8.052
 1221POPC   C4B19582  14.660  31.657   7.613
 1222POPC   NC319583   0.034  26.959   9.331
 1222POPC   PO419584   0.653  26.637   9.458
 1222POPC   GL119585   0.435  26.664   9.093
 1222POPC   GL219586   0.485  27.009   9.028
 1222POPC   C1A19587   0.275  26.699   8.649
 1222POPC   D2A19588   0.292  27.030   8.311
 1222POPC   C3A19589   0.179  26.836   7.917
 1222POPC   C4A19590   0.331  26.775   7.487
 1222POPC   C1B19591   0.772  26.828   8.703
 1222POPC   C2B19592   0.719  26.729   8.266
 1222POPC   C3B19593   0.684  26.956   7.879
 1222POPC   C4B19594   0.743  27.230   7.531
 1223POPC   NC319595  41.549   2.343   9.726
 1223POPC   PO419596  41.109   1.854   9.496
 1223POPC   GL119597  41.303   2.007   9.127
 1223POPC   GL219598  41.657   2.123   9.125
 1223POPC   C1A19599  41.311   2.196   8.737
 1223POPC   D2A19600  41.355   1.976   8.401
 1223POPC   C3A19601  41.361   2.120   8.008
 1223POPC   C4A19602  41.373   1.762   7.731
 1223POPC   C1B19603  41.802   1.967   8.672
 1223POPC   C2B19604  41.822   1.894   8.197
 1223POPC   C3B19605  41.843   2.041   7.772
 1223POPC   C4B19606  41.737   1.856   7.352
 1224POPC   NC319607  33.265   4.750   9.619
 1224POPC   PO419608  32.782   4.310   9.520
 1224POPC   GL119609  32.902   4.263   9.127
 1224POPC   GL219610  33.190   4.454   9.148
 1224POPC   C1A19611  32.861   4.407   8.720
 1224POPC   D2A19612  32.707   4.245   8.352
 1224POPC   C3A19613  32.780   4.435   7.960
 1224POPC   C4A19614  33.117   4.555   7.718
 1224POPC   C1B19615  33.312   4.190   8.786
 1224POPC   C2B19616  33.213   4.107   8.401
 1224POPC   C3B19617  33.305   3.866   8.072
 1224POPC   C4B19618  33.409   4.138   7.731
 1225POPC   NC319619  36.991   0.801   9.502
 1225POPC   PO419620  37.137   0.114   9.480
 1225POPC   GL119621  36.898   0.112   9.123
 1225POPC   GL219622  36.760   0.447   9.208
 1225POPC   C1A19623  36.554   0.198   8.830
 1225POPC   D2A19624  36.623   0.396   8.450
 1225POPC   C3A19625  36.732   0.193   8.067
 1225POPC   C4A19626  36.762   0.335   7.651
 1225POPC   C1B19627  36.811   0.710   8.831
 1225POPC   C2B19628  36.723   0.890   8.405
 1225POPC   C3B19629  36.853   0.733   8.047
 1225POPC   C4B19630  37.114   0.820   7.745
 1226POPC   NC319631  28.263  13.560   9.540
 1226POPC   PO419632  28.798  13.947   9.511
 1226POPC   GL119633  28.510  13.829   9.185
 1226POPC   GL219634  28.158  13.953   9.245
 1226POPC   C1A19635  28.336  13.568   8.859
 1226POPC   D2A19636  28.466  13.309   8.497
 1226POPC   C3A19637  28.537  13.557   8.123
 1226POPC   C4A19638  28.627  13.417   7.696
 1226POPC   C1B19639  28.010  14.021   8.847
 1226POPC   C2B19640  28.078  13.801   8.464
 1226POPC   C3B19641  28.029  13.454   8.182
 1226POPC   C4B19642  28.125  13.464   7.735
 1227POPC   NC319643  37.499  14.687   9.813
 1227POPC   PO419644  37.219  14.254   9.394
 1227POPC   GL119645  37.603  14.427   9.168
 1227POPC   GL219646  37.683  14.804   9.216
 1227POPC   C1A19647  37.699  14.286   8.732
 1227POPC   D2A19648  37.708  14.066   8.329
 1227POPC   C3A19649  37.618  14.356   7.997
 1227POPC   C4A19650  37.665  14.338   7.553
 1227POPC   C1B19651  37.688  14.794   8.796
 1227POPC   C2B19652  37.784  14.948   8.423
 1227POPC   C3B19653  37.663  14.861   8.010
 1227POPC   C4B19654  37.835  14.797   7.616
 1228POPC   NC319655   7.110  38.162   9.649
 1228POPC   PO419656   7.725  38.312   9.471
 1228POPC   GL119657   7.583  38.447   9.114
 1228POPC   GL219658   7.200  38.466   9.181
 1228POPC   C1A19659   7.798  38.683   8.822
 1228POPC   D2A19660   7.672  38.880   8.461
 1228POPC   C3A19661   7.765  38.781   8.039
 1228POPC   C4A19662   7.554  38.516   7.749
 1228POPC   C1B19663   7.277  38.688   8.764
 1228POPC   C2B19664   7.230  38.658   8.313
 1228POPC   C3B19665   7.259  38.904   7.931
 1228POPC   C4B19666   7.271  38.837   7.464
 1229POPC   NC319667   0.414  41.407   9.550
 1229POPC   PO419668   0.601  42.055   9.604
 1229POPC   GL119669   0.644  41.764   9.237
 1229POPC   GL219670   0.283  41.626   9.102
 1229POPC   C1A19671   0.691  41.501   8.868
 1229POPC   D2A19672   0.382  41.610   8.528
 1229POPC   C3A19673   0.480  41.535   8.091
 1229POPC   C4A19674   0.564  41.571   7.664
 1229POPC   C1B19675   0.203  41.221   8.782
 1229POPC   C2B19676   0.105  41.225   8.292
 1229POPC   C3B19677   0.076  41.403   7.823
 1229POPC   C4B19678   0.210  41.281   7.354
 1230POPC   NC319679  28.930   4.471  10.057
 1230POPC   PO419680  29.202   4.089   9.755
 1230POPC   GL119681  29.103   4.174   9.284
 1230POPC   GL219682  29.378   4.043   9.124
 1230POPC   C1A19683  28.994   4.261   8.782
 1230POPC   D2A19684  29.023   4.497   8.352
 1230POPC   C3A19685  29.170   4.316   7.937
 1230POPC   C4A19686  29.000   4.036   7.637
 1230POPC   C1B19687  29.497   4.215   8.715
 1230POPC   C2B19688  29.308   4.052   8.354
 1230POPC   C3B19689  29.449   3.907   7.931
 1230POPC   C4B19690  29.478   3.689   7.532
 1231POPC   NC319691  21.716   8.032   9.547
 1231POPC   PO419692  21.225   8.416   9.709
 1231POPC   GL119693  21.274   8.376   9.254
 1231POPC   GL219694  21.613   8.301   9.104
 1231POPC   C1A19695  21.218   8.451   8.813
 1231POPC   D2A19696  20.980   8.416   8.435
 1231POPC   C3A19697  21.227   8.197   8.128
 1231POPC   C4A19698  21.232   8.133   7.687
 1231POPC   C1B19699  21.672   8.303   8.648
 1231POPC   C2B19700  21.729   8.163   8.245
 1231POPC   C3B19701  21.692   8.228   7.832
 1231POPC   C4B19702  21.748   8.511   7.475
 1232POPC   NC319703   2.648   3.654   9.431
 1232POPC   PO419704   3.271   3.884   9.494
 1232POPC   GL119705   3.029   3.773   9.138
 1232POPC   GL219706   2.936   3.389   9.084
 1232POPC   C1A19707   2.774   3.783   8.778
 1232POPC   D2A19708   2.791   3.583   8.417
 1232POPC   C3A19709   2.938   3.629   8.027
 1232POPC   C4A19710   2.864   3.504   7.637
 1232POPC   C1B19711   2.573   3.284   8.786
 1232POPC   C2B19712   2.368   3.273   8.360
 1232POPC   C3B19713   2.525   3.241   7.936
 1232POPC   C4B19714   2.553   3.155   7.474
 1233POPC   NC319715  36.713   1.409   9.488
 1233POPC   PO419716  37.343   1.092   9.513
 1233POPC   GL119717  37.016   1.149   9.148
 1233POPC   GL219718  36.886   1.470   9.027
 1233POPC   C1A19719  37.063   1.135   8.717
 1233POPC   D2A19720  37.220   1.408   8.453
 1233POPC   C3A19721  37.147   1.199   8.095
 1233POPC   C4A19722  37.321   1.308   7.745
 1233POPC   C1B19723  36.795   1.626   8.610
 1233POPC   C2B19724  36.701   1.401   8.233
 1233POPC   C3B19725  36.729   1.300   7.776
 1233POPC   C4B19726  36.599   1.416   7.307
 1234POPC   NC319727  29.355  15.230   9.534
 1234POPC   PO419728  28.719  14.939   9.604
 1234POPC   GL119729  29.015  14.970   9.227
 1234POPC   GL219730  29.124  15.333   9.108
 1234POPC   C1A19731  29.137  14.944   8.779
 1234POPC   D2A19732  28.956  15.046   8.377
 1234POPC   C3A19733  29.042  14.826   7.968
 1234POPC   C4A19734  29.430  14.899   7.704
 1234POPC   C1B19735  29.249  15.488   8.727
 1234POPC   C2B19736  29.405  15.326   8.354
 1234POPC   C3B19737  29.215  15.300   7.965
 1234POPC   C4B19738  28.914  15.408   7.659
 1235POPC   NC319739  23.281  12.913   9.428
 1235POPC   PO419740  22.863  12.379   9.567
 1235POPC   GL119741  22.897  12.662   9.132
 1235POPC   GL219742  22.607  12.914   9.007
 1235POPC   C1A19743  22.983  12.713   8.699
 1235POPC   D2A19744  23.231  12.449   8.420
 1235POPC   C3A19745  23.373  12.669   8.041
 1235POPC   C4A19746  23.131  12.769   7.676
 1235POPC   C1B19747  22.429  13.297   8.794
 1235POPC   C2B19748  22.484  13.314   8.343
 1235POPC   C3B19749  22.830  13.102   8.123
 1235POPC   C4B19750  23.173  13.255   7.865
 1236POPC   NC319751  37.420  24.456  10.072
 1236POPC   PO419752  37.888  24.596   9.562
 1236POPC   GL119753  37.678  24.439   9.210
 1236POPC   GL219754  37.732  24.706   9.003
 1236POPC   C1A19755  37.468  24.331   8.794
 1236POPC   D2A19756  37.359  24.604   8.433
 1236POPC   C3A19757  37.596  24.568   8.040
 1236POPC   C4A19758  37.729  24.422   7.602
 1236POPC   C1B19759  38.038  24.758   8.719
 1236POPC   C2B19760  37.909  24.882   8.354
 1236POPC   C3B19761  38.024  24.853   7.986
 1236POPC   C4B19762  37.728  24.928   7.718
 1237POPC   NC319763  16.146   8.882   9.584
 1237POPC   PO419764  15.721   9.313   9.724
 1237POPC   GL119765  15.775   9.071   9.302
 1237POPC   GL219766  16.122   9.216   9.199
 1237POPC   C1A19767  15.812   9.030   8.836
 1237POPC   D2A19768  15.640   8.938   8.419
 1237POPC   C3A19769  15.864   8.939   8.032
 1237POPC   C4A19770  15.904   8.709   7.646
 1237POPC   C1B19771  16.180   9.431   8.814
 1237POPC   C2B19772  16.040   9.295   8.425
 1237POPC   C3B19773  16.236   9.286   8.062
 1237POPC   C4B19774  16.130   9.206   7.675
 1238POPC   NC319775  11.928   7.235   9.620
 1238POPC   PO419776  12.537   7.276   9.454
 1238POPC   GL119777  12.152   7.441   9.200
 1238POPC   GL219778  11.964   7.761   9.276
 1238POPC   C1A19779  12.011   7.309   8.797
 1238POPC   D2A19780  12.123   7.089   8.454
 1238POPC   C3A19781  12.160   7.346   8.126
 1238POPC   C4A19782  12.036   7.357   7.684
 1238POPC   C1B19783  11.954   7.803   8.829
 1238POPC   C2B19784  12.069   7.863   8.395
 1238POPC   C3B19785  11.934   7.766   7.974
 1238POPC   C4B19786  12.088   7.839   7.553
 1239POPC   NC319787   7.146  12.201   9.629
 1239POPC   PO419788   6.539  11.899   9.578
 1239POPC   GL119789   6.622  11.887   9.154
 1239POPC   GL219790   6.640  12.231   9.183
 1239POPC   C1A19791   6.791  11.998   8.749
 1239POPC   D2A19792   6.685  12.132   8.350
 1239POPC   C3A19793   6.746  11.887   7.993
 1239POPC   C4A19794   6.951  12.146   7.694
 1239POPC   C1B19795   6.300  12.171   8.864
 1239POPC   C2B19796   6.211  12.263   8.441
 1239POPC   C3B19797   6.256  12.067   8.058
 1239POPC   C4B19798   6.399  12.095   7.671
 1240POPC   NC319799  32.654   3.241   9.543
 1240POPC   PO419800  32.151   3.720   9.527
 1240POPC   GL119801  32.304   3.435   9.213
 1240POPC   GL219802  32.642   3.581   9.151
 1240POPC   C1A19803  32.166   3.405   8.790
 1240POPC   D2A19804  31.952   3.553   8.410
 1240POPC   C3A19805  32.155   3.642   8.010
 1240POPC   C4A19806  32.087   3.434   7.647
 1240POPC   C1B19807  32.668   3.424   8.728
 1240POPC   C2B19808  32.464   3.374   8.317
 1240POPC   C3B19809  32.540   3.323   7.847
 1240POPC   C4B19810  32.536   3.639   7.518
 1241POPC   NC319811  40.912   4.544   9.656
 1241POPC   PO419812  40.526   4.094   9.443
 1241POPC   GL119813  40.758   4.376   9.172
 1241POPC   GL219814  40.918   4.130   8.923
 1241POPC   C1A19815  40.970   4.603   8.812
 1241POPC   D2A19816  40.887   4.295   8.431
 1241POPC   C3A19817  40.836   4.472   8.022
 1241POPC   C4A19818  40.941   4.681   7.638
 1241POPC   C1B19819  40.828   3.811   8.622
 1241POPC   C2B19820  40.833   3.700   8.209
 1241POPC   C3B19821  40.640   3.977   7.903
 1241POPC   C4B19822  40.742   4.228   7.560
 1242POPC   NC319823  14.537  17.648   9.599
 1242POPC   PO419824  14.035  17.163   9.586
 1242POPC   GL119825  14.264  17.426   9.219
 1242POPC   GL219826  14.632  17.445   9.156
 1242POPC   C1A19827  14.181  17.574   8.743
 1242POPC   D2A19828  14.018  17.526   8.284
 1242POPC   C3A19829  14.248  17.627   7.918
 1242POPC   C4A19830  14.398  17.233   7.703
 1242POPC   C1B19831  14.621  17.332   8.721
 1242POPC   C2B19832  14.524  17.387   8.279
 1242POPC   C3B19833  14.759  17.540   7.900
 1242POPC   C4B19834  15.077  17.393   7.563
 1243POPC   NC319835   7.047  39.754   9.498
 1243POPC   PO419836   6.517  40.223   9.581
 1243POPC   GL119837   6.488  40.036   9.157
 1243POPC   GL219838   6.750  39.790   9.088
 1243POPC   C1A19839   6.452  40.069   8.707
 1243POPC   D2A19840   6.642  39.951   8.281
 1243POPC   C3A19841   6.392  40.042   7.912
 1243POPC   C4A19842   6.388  40.305   7.563
 1243POPC   C1B19843   6.954  39.957   8.713
 1243POPC   C2B19844   7.163  39.951   8.323
 1243POPC   C3B19845   7.049  40.112   7.923
 1243POPC   C4B19846   6.868  40.145   7.500
 1244POPC   NC319847  39.209  17.068   9.515
 1244POPC   PO419848  39.430  17.692   9.468
 1244POPC   GL119849  39.228  17.591   9.102
 1244POPC   GL219850  39.158  17.244   9.049
 1244POPC   C1A19851  39.308  17.538   8.671
 1244POPC   D2A19852  39.265  17.255   8.359
 1244POPC   C3A19853  39.210  17.527   8.040
 1244POPC   C4A19854  38.925  17.567   7.719
 1244POPC   C1B19855  38.875  17.179   8.703
 1244POPC   C2B19856  38.828  16.923   8.331
 1244POPC   C3B19857  38.884  17.082   7.916
 1244POPC   C4B19858  38.840  17.124   7.453
 1245POPC   NC319859  34.849  21.959   9.459
 1245POPC   PO419860  34.149  22.053   9.531
 1245POPC   GL119861  34.304  22.263   9.175
 1245POPC   GL219862  34.673  22.333   9.165
 1245POPC   C1A19863  34.299  22.074   8.750
 1245POPC   D2A19864  34.437  22.208   8.346
 1245POPC   C3A19865  34.280  22.025   7.992
 1245POPC   C4A19866  34.368  21.951   7.569
 1245POPC   C1B19867  34.806  22.179   8.740
 1245POPC   C2B19868  34.937  22.264   8.298
 1245POPC   C3B19869  34.778  22.184   7.893
 1245POPC   C4B19870  34.742  22.456   7.558
 1246POPC   NC319871  34.938  23.986   9.396
 1246POPC   PO419872  34.823  23.339   9.486
 1246POPC   GL119873  34.594  23.603   9.177
 1246POPC   GL219874  34.437  23.354   8.987
 1246POPC   C1A19875  34.468  23.808   8.751
 1246POPC   D2A19876  34.228  23.761   8.326
 1246POPC   C3A19877  34.444  23.673   7.942
 1246POPC   C4A19878  34.687  23.954   7.705
 1246POPC   C1B19879  34.827  23.455   8.738
 1246POPC   C2B19880  34.764  23.607   8.355
 1246POPC   C3B19881  34.943  23.602   7.979
 1246POPC   C4B19882  35.027  23.434   7.591
 1247POPC   NC319883  16.136  43.422   9.489
 1247POPC   PO419884  15.986  42.747   9.335
 1247POPC   GL119885  15.991  43.125   9.105
 1247POPC   GL219886  15.672  43.322   9.145
 1247POPC   C1A19887  16.082  43.334   8.732
 1247POPC   D2A19888  16.145  43.470   8.324
 1247POPC   C3A19889  16.115  43.177   7.990
 1247POPC   C4A19890  16.142  42.746   7.963
 1247POPC   C1B19891  15.613  43.001   8.796
 1247POPC   C2B19892  15.816  42.954   8.391
 1247POPC   C3B19893  15.656  42.975   7.981
 1247POPC   C4B19894  15.682  43.254   7.620
 1248POPC   NC319895  35.742   4.462   9.521
 1248POPC   PO419896  35.301   3.990   9.405
 1248POPC   GL119897  35.508   4.200   9.078
 1248POPC   GL219898  35.472   4.555   9.091
 1248POPC   C1A19899  35.719   4.213   8.658
 1248POPC   D2A19900  35.611   3.950   8.319
 1248POPC   C3A19901  35.527   4.107   7.893
 1248POPC   C4A19902  35.552   3.909   7.474
 1248POPC   C1B19903  35.259   4.470   8.687
 1248POPC   C2B19904  35.230   4.421   8.235
 1248POPC   C3B19905  35.067   4.408   7.832
 1248POPC   C4B19906  34.944   4.566   7.438
 1249POPC   NC319907  40.842   7.791   9.489
 1249POPC   PO419908  40.414   8.387   9.469
 1249POPC   GL119909  40.726   8.220   9.168
 1249POPC   GL219910  40.662   7.926   9.045
 1249POPC   C1A19911  41.051   8.245   8.850
 1249POPC   D2A19912  40.972   8.272   8.407
 1249POPC   C3A19913  41.228   8.434   8.061
 1249POPC   C4A19914  41.033   8.383   7.672
 1249POPC   C1B19915  40.558   8.120   8.656
 1249POPC   C2B19916  40.520   8.073   8.205
 1249POPC   C3B19917  40.525   8.193   7.763
 1249POPC   C4B19918  40.424   7.887   7.416
 1250POPC   NC319919  12.922  28.786   9.445
 1250POPC   PO419920  12.428  28.420   9.624
 1250POPC   GL119921  12.672  28.423   9.174
 1250POPC   GL219922  13.032  28.535   9.030
 1250POPC   C1A19923  12.733  28.245   8.760
 1250POPC   D2A19924  12.970  28.294   8.371
 1250POPC   C3A19925  12.819  28.294   7.967
 1250POPC   C4A19926  12.690  27.969   7.664
 1250POPC   C1B19927  13.309  28.575   8.695
 1250POPC   C2B19928  13.287  28.683   8.285
 1250POPC   C3B19929  13.337  28.460   7.914
 1250POPC   C4B19930  13.569  28.606   7.564
 1251POPC   NC319931  43.645  13.361   9.462
 1251POPC   PO419932  44.151  13.770   9.445
 1251POPC   GL119933  44.019  13.508   9.109
 1251POPC   GL219934  43.923  13.840   8.953
 1251POPC   C1A19935  43.814  13.417   8.703
 1251POPC   D2A19936  43.908  13.663   8.350
 1251POPC   C3A19937  44.000  13.439   7.998
 1251POPC   C4A19938  43.656  13.264   7.789
 1251POPC   C1B19939  43.521  13.852   8.716
 1251POPC   C2B19940  43.390  13.697   8.313
 1251POPC   C3B19941  43.585  13.746   7.924
 1251POPC   C4B19942  43.960  13.954   7.859
 1252POPC   NC319943  19.377   2.534   9.514
 1252POPC   PO419944  18.900   2.879   9.808
 1252POPC   GL119945  18.996   2.876   9.315
 1252POPC   GL219946  19.071   2.600   9.095
 1252POPC   C1A19947  19.216   3.017   8.884
 1252POPC   D2A19948  19.188   3.110   8.422
 1252POPC   C3A19949  19.410   2.974   8.042
 1252POPC   C4A19950  19.451   2.935   7.581
 1252POPC   C1B19951  18.927   2.676   8.652
 1252POPC   C2B19952  19.061   2.629   8.245
 1252POPC   C3B19953  18.945   2.720   7.876
 1252POPC   C4B19954  18.806   2.522   7.549
 1253POPC   NC319955   0.933  39.721   9.529
 1253POPC   PO419956   1.091  40.363   9.380
 1253POPC   GL119957   1.106  40.003   9.113
 1253POPC   GL219958   1.377  39.737   9.211
 1253POPC   C1A19959   1.150  40.095   8.691
 1253POPC   D2A19960   1.408  40.208   8.392
 1253POPC   C3A19961   1.227  40.091   7.993
 1253POPC   C4A19962   1.030  40.311   7.660
 1253POPC   C1B19963   1.336  39.626   8.769
 1253POPC   C2B19964   1.383  39.699   8.291
 1253POPC   C3B19965   1.187  39.590   7.869
 1253POPC   C4B19966   1.068  39.796   7.477
 1254POPC   NC319967  16.193  32.847   9.405
 1254POPC   PO419968  15.691  33.163   9.644
 1254POPC   GL119969  15.714  33.105   9.227
 1254POPC   GL219970  15.684  32.759   9.173
 1254POPC   C1A19971  15.927  33.161   8.831
 1254POPC   D2A19972  15.787  33.061   8.413
 1254POPC   C3A19973  16.054  33.073   8.080
 1254POPC   C4A19974  16.098  33.208   7.670
 1254POPC   C1B19975  15.848  32.646   8.767
 1254POPC   C2B19976  15.835  32.438   8.379
 1254POPC   C3B19977  15.760  32.528   7.965
 1254POPC   C4B19978  16.066  32.702   7.709
 1255POPC   NC319979  10.533   3.781   9.500
 1255POPC   PO419980  10.241   3.223   9.675
 1255POPC   GL119981  10.406   3.366   9.219
 1255POPC   GL219982  10.736   3.437   9.138
 1255POPC   C1A19983  10.338   3.561   8.819
 1255POPC   D2A19984  10.356   3.381   8.434
 1255POPC   C3A19985  10.418   3.644   8.097
 1255POPC   C4A19986  10.266   3.546   7.713
 1255POPC   C1B19987  10.808   3.342   8.698
 1255POPC   C2B19988  10.804   3.198   8.253
 1255POPC   C3B19989  10.808   3.329   7.784
 1255POPC   C4B19990  10.884   3.307   7.298
 1256POPC   NC319991  44.058   3.143   9.388
 1256POPC   PO419992  44.129   3.829   9.474
 1256POPC   GL119993  44.072   3.600   9.146
 1256POPC   GL219994  43.739   3.601   9.177
 1256POPC   C1A19995  44.023   3.479   8.743
 1256POPC   D2A19996  44.227   3.387   8.363
 1256POPC   C3A19997  44.106   3.622   8.014
 1256POPC   C4A19998  43.739   3.716   7.805
 1256POPC   C1B19999  43.533   3.562   8.792
 1256POPC   C2B20000  43.697   3.644   8.368
 1256POPC   C3B20001  43.475   3.384   8.079
 1256POPC   C4B20002  43.503   3.118   7.725
 1257POPC   NC320003  17.463   1.039   9.570
 1257POPC   PO420004  17.705   1.648   9.574
 1257POPC   GL120005  17.704   1.345   9.235
 1257POPC   GL220006  17.362   1.415   9.167
 1257POPC   C1A20007  17.536   1.049   8.875
 1257POPC   D2A20008  17.521   1.185   8.423
 1257POPC   C3A20009  17.700   0.955   8.101
 1257POPC   C4A20010  17.509   0.861   7.738
 1257POPC   C1B20011  17.644   1.536   8.780
 1257POPC   C2B20012  17.783   1.632   8.364
 1257POPC   C3B20013  17.629   1.466   7.979
 1257POPC   C4B20014  17.495   1.377   7.578
 1258POPC   NC320015  40.139  42.912   9.691
 1258POPC   PO420016  39.966  42.295   9.586
 1258POPC   GL120017  40.094  42.592   9.260
 1258POPC   GL220018  39.802  42.571   9.099
 1258POPC   C1A20019  40.264  42.515   8.830
 1258POPC   D2A20020  40.053  42.322   8.465
 1258POPC   C3A20021  40.236  42.393   8.062
 1258POPC   C4A20022  40.274  41.999   7.875
 1258POPC   C1B20023  39.633  42.284   8.794
 1258POPC   C2B20024  39.546  42.185   8.350
 1258POPC   C3B20025  39.747  42.297   7.942
 1258POPC   C4B20026  39.723  42.406   7.495
 1259POPC   NC320027  15.327  20.374   9.495
 1259POPC   PO420028  14.705  20.529   9.535
 1259POPC   GL120029  14.975  20.536   9.150
 1259POPC   GL220030  15.274  20.366   8.991
 1259POPC   C1A20031  14.923  20.582   8.697
 1259POPC   D2A20032  15.266  20.556   8.402
 1259POPC   C3A20033  15.123  20.698   7.993
 1259POPC   C4A20034  15.211  20.469   7.612
 1259POPC   C1B20035  15.392  20.813   8.838
 1259POPC   C2B20036  15.538  20.975   8.418
 1259POPC   C3B20037  15.381  21.139   8.032
 1259POPC   C4B20038  15.440  20.945   7.656
 1260POPC   NC320039  32.318  44.073   9.591
 1260POPC   PO420040  32.078  43.542   9.195
 1260POPC   GL120041  32.389  43.888   9.104
 1260POPC   GL220042  32.127  44.082   9.002
 1260POPC   C1A20043  32.558  44.034   8.721
 1260POPC   D2A20044  32.233  44.212   8.446
 1260POPC   C3A20045  32.213  44.137   8.028
 1260POPC   C4A20046  32.529  44.043   7.755
 1260POPC   C1B20047  31.870  43.933   8.676
 1260POPC   C2B20048  31.888  43.708   8.295
 1260POPC   C3B20049  31.780  43.884   7.908
 1260POPC   C4B20050  32.013  43.996   7.535
 1261POPC   NC320051  35.727   2.304   9.863
 1261POPC   PO420052  35.370   1.991   9.437
 1261POPC   GL120053  35.435   1.884   9.055
 1261POPC   GL220054  35.448   2.242   8.965
 1261POPC   C1A20055  35.568   1.879   8.646
 1261POPC   D2A20056  35.414   2.130   8.319
 1261POPC   C3A20057  35.213   1.874   8.043
 1261POPC   C4A20058  35.410   1.862   7.657
 1261POPC   C1B20059  35.071   2.094   8.719
 1261POPC   C2B20060  34.896   2.287   8.329
 1261POPC   C3B20061  35.069   2.364   7.911
 1261POPC   C4B20062  35.479   2.495   7.730
 1262POPC   NC320063  38.451  25.614   9.475
 1262POPC   PO420064  38.791  24.954   9.574
 1262POPC   GL120065  38.557  24.971   9.167
 1262POPC   GL220066  38.551  25.295   9.083
 1262POPC   C1A20067  38.503  24.960   8.690
 1262POPC   D2A20068  38.708  25.127   8.301
 1262POPC   C3A20069  38.478  25.123   7.910
 1262POPC   C4A20070  38.139  25.201   7.625
 1262POPC   C1B20071  38.695  25.490   8.670
 1262POPC   C2B20072  38.731  25.659   8.261
 1262POPC   C3B20073  38.804  25.508   7.862
 1262POPC   C4B20074  38.554  25.467   7.494
 1263POPC   NC320075  36.405   7.604   9.370
 1263POPC   PO420076  35.919   7.176   9.443
 1263POPC   GL120077  36.130   7.276   9.069
 1263POPC   GL220078  36.000   7.626   9.072
 1263POPC   C1A20079  36.026   7.175   8.621
 1263POPC   D2A20080  35.967   7.395   8.233
 1263POPC   C3A20081  36.182   7.256   7.871
 1263POPC   C4A20082  35.985   7.245   7.459
 1263POPC   C1B20083  36.293   7.602   8.701
 1263POPC   C2B20084  36.468   7.567   8.277
 1263POPC   C3B20085  36.373   7.795   7.895
 1263POPC   C4B20086  36.277   7.684   7.480
 1264POPC   NC320087  36.843  16.560   9.611
 1264POPC   PO420088  37.101  17.137   9.495
 1264POPC   GL120089  36.979  16.833   9.188
 1264POPC   GL220090  36.660  16.961   9.243
 1264POPC   C1A20091  37.007  16.490   8.863
 1264POPC   D2A20092  37.172  16.455   8.455
 1264POPC   C3A20093  36.920  16.553   8.095
 1264POPC   C4A20094  37.132  16.725   7.745
 1264POPC   C1B20095  36.487  17.043   8.834
 1264POPC   C2B20096  36.595  17.228   8.438
 1264POPC   C3B20097  36.831  17.096   8.054
 1264POPC   C4B20098  36.633  16.849   7.740
 1265POPC   NC320099   0.739  19.483   9.272
 1265POPC   PO420100   0.190  19.543   9.531
 1265POPC   GL120101   0.289  19.825   9.198
 1265POPC   GL220102   0.613  20.017   9.159
 1265POPC   C1A20103   0.352  19.794   8.775
 1265POPC   D2A20104   0.635  19.726   8.426
 1265POPC   C3A20105   0.443  19.788   8.064
 1265POPC   C4A20106   0.548  19.791   7.661
 1265POPC   C1B20107   0.607  20.255   8.779
 1265POPC   C2B20108   0.749  20.236   8.363
 1265POPC   C3B20109   0.635  20.230   7.945
 1265POPC   C4B20110   0.572  20.287   7.534
 1266POPC   NC320111  25.989  37.173   9.475
 1266POPC   PO420112  26.424  36.603   9.395
 1266POPC   GL120113  26.124  36.840   9.124
 1266POPC   GL220114  26.114  37.168   8.999
 1266POPC   C1A20115  25.751  36.756   8.902
 1266POPC   D2A20116  25.637  36.541   8.527
 1266POPC   C3A20117  25.762  36.681   8.137
 1266POPC   C4A20118  25.939  36.806   7.757
 1266POPC   C1B20119  26.072  37.043   8.594
 1266POPC   C2B20120  25.938  37.326   8.300
 1266POPC   C3B20121  26.052  37.342   7.891
 1266POPC   C4B20122  25.872  37.235   7.504
 1267POPC   NC320123  25.770  25.579   9.448
 1267POPC   PO420124  25.126  25.264   9.466
 1267POPC   GL120125  25.222  25.401   9.126
 1267POPC   GL220126  25.540  25.269   9.067
 1267POPC   C1A20127  25.112  25.300   8.728
 1267POPC   D2A20128  25.179  25.110   8.329
 1267POPC   C3A20129  25.385  25.356   7.985
 1267POPC   C4A20130  25.333  25.487   7.554
 1267POPC   C1B20131  25.576  24.888   8.820
 1267POPC   C2B20132  25.606  24.798   8.409
 1267POPC   C3B20133  25.403  24.807   8.012
 1267POPC   C4B20134  25.553  24.980   7.670
 1268POPC   NC320135   6.222  10.802   9.534
 1268POPC   PO420136   6.684  10.268   9.642
 1268POPC   GL120137   6.584  10.431   9.253
 1268POPC   GL220138   6.921  10.516   9.178
 1268POPC   C1A20139   6.520  10.591   8.839
 1268POPC   D2A20140   6.477  10.822   8.437
 1268POPC   C3A20141   6.510  10.556   8.076
 1268POPC   C4A20142   6.620  10.448   7.668
 1268POPC   C1B20143   6.974  10.385   8.774
 1268POPC   C2B20144   6.944  10.577   8.385
 1268POPC   C3B20145   7.021  10.563   7.962
 1268POPC   C4B20146   6.967  10.781   7.550
 1269POPC   NC320147  10.099  18.494   9.435
 1269POPC   PO420148   9.765  19.176   9.439
 1269POPC   GL120149   9.950  19.153   9.054
 1269POPC   GL220150   9.793  18.840   9.020
 1269POPC   C1A20151   9.932  19.106   8.600
 1269POPC   D2A20152  10.039  18.988   8.187
 1269POPC   C3A20153   9.886  19.248   7.882
 1269POPC   C4A20154   9.861  19.162   7.431
 1269POPC   C1B20155   9.461  19.076   8.751
 1269POPC   C2B20156   9.535  19.188   8.275
 1269POPC   C3B20157   9.516  18.915   7.865
 1269POPC   C4B20158   9.423  18.903   7.409
 1270POPC   NC320159   9.995  24.137   9.580
 1270POPC   PO420160   9.518  24.646   9.487
 1270POPC   GL120161   9.689  24.539   9.120
 1270POPC   GL220162   9.963  24.393   9.132
 1270POPC   C1A20163   9.807  24.716   8.735
 1270POPC   D2A20164   9.706  24.586   8.358
 1270POPC   C3A20165   9.918  24.403   8.002
 1270POPC   C4A20166   9.853  24.578   7.567
 1270POPC   C1B20167   9.888  24.215   8.725
 1270POPC   C2B20168   9.588  24.095   8.433
 1270POPC   C3B20169   9.591  23.968   8.016
 1270POPC   C4B20170   9.581  24.113   7.603
 1271POPC   NC320171  36.800   8.252   9.449
 1271POPC   PO420172  37.378   8.479   9.366
 1271POPC   GL120173  37.204   8.075   9.161
 1271POPC   GL220174  36.928   8.181   8.972
 1271POPC   C1A20175  37.211   7.850   8.743
 1271POPC   D2A20176  37.056   8.066   8.410
 1271POPC   C3A20177  37.239   7.943   8.074
 1271POPC   C4A20178  37.319   8.018   7.695
 1271POPC   C1B20179  36.653   7.962   8.710
 1271POPC   C2B20180  36.549   8.067   8.302
 1271POPC   C3B20181  36.779   8.122   7.906
 1271POPC   C4B20182  36.582   8.112   7.485
 1272POPC   NC320183   6.489  35.788   9.514
 1272POPC   PO420184   6.503  35.132   9.562
 1272POPC   GL120185   6.698  35.319   9.188
 1272POPC   GL220186   6.818  35.691   9.126
 1272POPC   C1A20187   6.695  35.146   8.764
 1272POPC   D2A20188   6.357  35.024   8.455
 1272POPC   C3A20189   6.504  35.058   8.022
 1272POPC   C4A20190   6.450  35.321   7.644
 1272POPC   C1B20191   6.502  35.621   8.792
 1272POPC   C2B20192   6.602  35.469   8.375
 1272POPC   C3B20193   6.811  35.488   8.005
 1272POPC   C4B20194   6.847  35.659   7.613
 1273POPC   NC320195   5.660   1.412   9.593
 1273POPC   PO420196   5.893   0.790   9.503
 1273POPC   GL120197   5.879   1.109   9.172
 1273POPC   GL220198   6.197   1.067   9.005
 1273POPC   C1A20199   5.819   1.253   8.740
 1273POPC   D2A20200   5.711   1.086   8.349
 1273POPC   C3A20201   5.800   1.278   7.949
 1273POPC   C4A20202   5.717   1.070   7.544
 1273POPC   C1B20203   5.953   0.749   8.772
 1273POPC   C2B20204   5.873   0.584   8.349
 1273POPC   C3B20205   5.877   0.772   7.959
 1273POPC   C4B20206   6.190   1.050   7.748
 1274POPC   NC320207  13.221  16.553   9.371
 1274POPC   PO420208  13.228  17.207   9.643
 1274POPC   GL120209  12.950  17.033   9.262
 1274POPC   GL220210  12.585  16.997   9.256
 1274POPC   C1A20211  12.901  16.788   8.854
 1274POPC   D2A20212  13.229  16.850   8.527
 1274POPC   C3A20213  13.073  16.808   8.112
 1274POPC   C4A20214  12.999  16.778   7.695
 1274POPC   C1B20215  12.516  17.132   8.815
 1274POPC   C2B20216  12.688  16.991   8.407
 1274POPC   C3B20217  12.553  16.923   7.950
 1274POPC   C4B20218  12.212  16.686   7.756
 1275POPC   NC320219  44.375  14.187   9.493
 1275POPC   PO420220  43.894  14.690   9.464
 1275POPC   GL120221  44.005  14.360   9.153
 1275POPC   GL220222  43.647  14.240   9.146
 1275POPC   C1A20223  44.239  14.205   8.764
 1275POPC   D2A20224  44.336  14.308   8.313
 1275POPC   C3A20225  44.017  14.446   7.999
 1275POPC   C4A20226  44.040  14.405   7.533
 1275POPC   C1B20227  43.737  14.340   8.709
 1275POPC   C2B20228  43.746  14.142   8.313
 1275POPC   C3B20229  43.539  14.245   7.930
 1275POPC   C4B20230  43.582  14.164   7.514
 1276POPC   NC320231  22.062  33.440   9.641
 1276POPC   PO420232  21.441  33.267   9.721
 1276POPC   GL120233  21.366  33.277   9.262
 1276POPC   GL220234  21.702  33.409   9.259
 1276POPC   C1A20235  21.112  33.300   8.847
 1276POPC   D2A20236  20.934  33.343   8.440
 1276POPC   C3A20237  21.221  33.186   8.138
 1276POPC   C4A20238  21.256  32.923   7.793
 1276POPC   C1B20239  21.602  33.437   8.840
 1276POPC   C2B20240  21.641  33.246   8.459
 1276POPC   C3B20241  21.729  33.308   8.036
 1276POPC   C4B20242  21.462  33.387   7.722
 1277POPC   NC320243  25.425  16.280   9.450
 1277POPC   PO420244  25.251  15.588   9.543
 1277POPC   GL120245  25.226  15.875   9.150
 1277POPC   GL220246  25.529  16.075   8.985
 1277POPC   C1A20247  25.110  16.013   8.715
 1277POPC   D2A20248  25.218  15.889   8.291
 1277POPC   C3A20249  25.066  16.149   7.949
 1277POPC   C4A20250  25.426  16.339   7.740
 1277POPC   C1B20251  25.506  15.670   8.771
 1277POPC   C2B20252  25.348  15.406   8.456
 1277POPC   C3B20253  25.525  15.533   8.054
 1277POPC   C4B20254  25.329  15.775   7.748
 1278POPC   NC320255  34.195  16.717   9.771
 1278POPC   PO420256  33.656  16.946   9.348
 1278POPC   GL120257  33.623  16.709   8.992
 1278POPC   GL220258  33.904  16.882   8.867
 1278POPC   C1A20259  33.653  16.547   8.570
 1278POPC   D2A20260  33.566  16.741   8.174
 1278POPC   C3A20261  33.794  16.521   7.857
 1278POPC   C4A20262  33.738  16.435   7.425
 1278POPC   C1B20263  34.164  17.208   8.720
 1278POPC   C2B20264  34.291  17.092   8.348
 1278POPC   C3B20265  33.993  17.002   8.017
 1278POPC   C4B20266  34.046  16.897   7.599
 1279POPC   NC320267  13.440  10.896   9.474
 1279POPC   PO420268  13.812  11.493   9.460
 1279POPC   GL120269  13.585  11.300   9.122
 1279POPC   GL220270  13.770  10.998   9.098
 1279POPC   C1A20271  13.529  11.196   8.661
 1279POPC   D2A20272  13.310  11.197   8.249
 1279POPC   C3A20273  13.428  11.525   7.935
 1279POPC   C4A20274  13.617  11.539   7.505
 1279POPC   C1B20275  14.007  11.001   8.751
 1279POPC   C2B20276  14.026  11.149   8.367
 1279POPC   C3B20277  13.769  11.155   8.021
 1279POPC   C4B20278  13.872  11.101   7.611
 1280POPC   NC320279   4.576  30.483   9.545
 1280POPC   PO420280   3.983  30.390   9.819
 1280POPC   GL120281   4.118  30.455   9.327
 1280POPC   GL220282   4.436  30.427   9.062
 1280POPC   C1A20283   4.065  30.780   8.990
 1280POPC   D2A20284   4.009  30.818   8.536
 1280POPC   C3A20285   4.182  30.494   8.273
 1280POPC   C4A20286   4.248  30.592   7.849
 1280POPC   C1B20287   4.485  30.672   8.662
 1280POPC   C2B20288   4.570  30.860   8.241
 1280POPC   C3B20289   4.546  30.995   7.780
 1280POPC   C4B20290   4.722  30.819   7.384
 1281POPC   NC320291   9.349  17.243   9.852
 1281POPC   PO420292   9.754  16.867   9.797
 1281POPC   GL120293   9.828  16.737   9.311
 1281POPC   GL220294   9.541  16.874   9.135
 1281POPC   C1A20295   9.909  16.694   8.800
 1281POPC   D2A20296   9.954  16.814   8.306
 1281POPC   C3A20297   9.956  16.542   7.896
 1281POPC   C4A20298  10.118  16.335   7.478
 1281POPC   C1B20299   9.480  16.976   8.683
 1281POPC   C2B20300   9.564  17.146   8.267
 1281POPC   C3B20301   9.687  17.004   7.867
 1281POPC   C4B20302   9.584  17.157   7.463
 1282POPC   NC320303   2.588  28.685   9.245
 1282POPC   PO420304   3.028  28.162   9.352
 1282POPC   GL120305   2.819  28.294   9.020
 1282POPC   GL220306   3.035  28.561   9.044
 1282POPC   C1A20307   2.788  28.461   8.594
 1282POPC   D2A20308   2.868  28.442   8.155
 1282POPC   C3A20309   2.521  28.436   7.891
 1282POPC   C4A20310   2.772  28.348   7.565
 1282POPC   C1B20311   3.128  28.827   8.792
 1282POPC   C2B20312   3.118  29.044   8.449
 1282POPC   C3B20313   3.104  28.921   8.052
 1282POPC   C4B20314   2.845  28.820   7.766
 1283POPC   NC320315   9.216  28.198   9.590
 1283POPC   PO420316   8.564  28.220   9.405
 1283POPC   GL120317   8.919  28.339   9.181
 1283POPC   GL220318   8.892  28.660   9.031
 1283POPC   C1A20319   9.006  28.262   8.754
 1283POPC   D2A20320   9.017  28.557   8.428
 1283POPC   C3A20321   9.008  28.360   8.028
 1283POPC   C4A20322   8.980  28.007   7.734
 1283POPC   C1B20323   9.338  28.666   8.825
 1283POPC   C2B20324   9.478  28.837   8.420
 1283POPC   C3B20325   9.479  28.693   7.991
 1283POPC   C4B20326   9.379  28.328   7.691
 1284POPC   NC320327  11.488   8.028   9.542
 1284POPC   PO420328  11.010   8.387   9.458
 1284POPC   GL120329  11.250   8.201   9.116
 1284POPC   GL220330  11.613   8.113   9.074
 1284POPC   C1A20331  11.357   8.408   8.754
 1284POPC   D2A20332  11.223   8.330   8.370
 1284POPC   C3A20333  11.427   8.461   8.012
 1284POPC   C4A20334  11.296   8.325   7.603
 1284POPC   C1B20335  11.460   7.905   8.703
 1284POPC   C2B20336  11.584   7.991   8.292
 1284POPC   C3B20337  11.425   7.915   7.903
 1284POPC   C4B20338  11.618   7.953   7.440
 1285POPC   NC320339   9.160  24.323   9.467
 1285POPC   PO420340   8.777  24.899   9.566
 1285POPC   GL120341   8.887  24.666   9.199
 1285POPC   GL220342   9.198  24.686   9.099
 1285POPC   C1A20343   8.862  24.437   8.814
 1285POPC   D2A20344   8.718  24.331   8.428
 1285POPC   C3A20345   8.864  24.422   8.011
 1285POPC   C4A20346   9.066  24.170   7.709
 1285POPC   C1B20347   9.363  24.462   8.759
 1285POPC   C2B20348   9.212  24.487   8.377
 1285POPC   C3B20349   9.398  24.445   7.983
 1285POPC   C4B20350   9.336  24.571   7.577
 1286POPC   NC320351   0.656  21.610   9.434
 1286POPC   PO420352   0.488  21.036   9.412
 1286POPC   GL120353   0.534  21.270   9.063
 1286POPC   GL220354   0.243  21.484   9.159
 1286POPC   C1A20355   0.369  21.243   8.653
 1286POPC   D2A20356   0.549  21.172   8.254
 1286POPC   C3A20357   0.656  21.487   7.949
 1286POPC   C4A20358   0.445  21.166   7.698
 1286POPC   C1B20359   0.169  21.691   8.789
 1286POPC   C2B20360   0.330  21.662   8.343
 1286POPC   C3B20361   0.155  21.512   7.940
 1286POPC   C4B20362   0.129  21.476   7.477
 1287POPC   NC320363   4.388  20.170   9.491
 1287POPC   PO420364   4.092  20.825   9.626
 1287POPC   GL120365   4.152  20.851   9.202
 1287POPC   GL220366   4.221  20.524   9.152
 1287POPC   C1A20367   4.321  20.999   8.803
 1287POPC   D2A20368   4.398  21.149   8.388
 1287POPC   C3A20369   4.682  20.982   8.108
 1287POPC   C4A20370   4.467  20.942   7.723
 1287POPC   C1B20371   4.110  20.533   8.711
 1287POPC   C2B20372   4.349  20.640   8.376
 1287POPC   C3B20373   4.444  20.509   7.986
 1287POPC   C4B20374   4.547  20.107   7.827
 1288POPC   NC320375   5.193  20.098   9.417
 1288POPC   PO420376   4.502  19.731   9.402
 1288POPC   GL120377   4.775  19.940   9.090
 1288POPC   GL220378   4.959  20.247   8.997
 1288POPC   C1A20379   4.894  19.900   8.628
 1288POPC   D2A20380   4.896  19.897   8.153
 1288POPC   C3A20381   4.990  19.520   7.906
 1288POPC   C4A20382   4.881  19.282   7.522
 1288POPC   C1B20383   5.293  20.264   8.662
 1288POPC   C2B20384   5.354  20.154   8.207
 1288POPC   C3B20385   5.369  19.871   7.823
 1288POPC   C4B20386   5.306  20.030   7.373
 1289POPC   NC320387  38.519   8.373   9.468
 1289POPC   PO420388  38.642   7.733   9.548
 1289POPC   GL120389  38.544   7.969   9.133
 1289POPC   GL220390  38.733   8.309   9.013
 1289POPC   C1A20391  38.429   8.012   8.689
 1289POPC   D2A20392  38.593   8.218   8.306
 1289POPC   C3A20393  38.623   7.944   7.925
 1289POPC   C4A20394  38.682   8.000   7.465
 1289POPC   C1B20395  38.437   8.536   8.736
 1289POPC   C2B20396  38.198   8.661   8.382
 1289POPC   C3B20397  38.180   8.390   8.048
 1289POPC   C4B20398  38.444   8.405   7.714
 1290POPC   NC320399  16.598  34.962   9.595
 1290POPC   PO420400  17.060  34.485   9.485
 1290POPC   GL120401  16.918  34.684   9.144
 1290POPC   GL220402  16.588  34.629   9.205
 1290POPC   C1A20403  16.764  34.540   8.731
 1290POPC   D2A20404  16.871  34.275   8.372
 1290POPC   C3A20405  16.647  34.326   7.989
 1290POPC   C4A20406  16.860  34.447   7.637
 1290POPC   C1B20407  16.522  34.963   8.899
 1290POPC   C2B20408  16.442  34.936   8.474
 1290POPC   C3B20409  16.604  34.830   8.050
 1290POPC   C4B20410  16.446  34.733   7.641
 1291POPC   NC320411  35.640  10.144   9.375
 1291POPC   PO420412  35.215   9.703   9.719
 1291POPC   GL120413  35.189   9.622   9.247
 1291POPC   GL220414  35.297   9.893   9.085
 1291POPC   C1A20415  35.335   9.525   8.773
 1291POPC   D2A20416  35.332   9.821   8.429
 1291POPC   C3A20417  35.350   9.631   8.051
 1291POPC   C4A20418  35.148   9.492   7.690
 1291POPC   C1B20419  35.686   9.937   8.774
 1291POPC   C2B20420  35.829   9.982   8.348
 1291POPC   C3B20421  35.840   9.791   7.948
 1291POPC   C4B20422  35.737   9.417   7.720
 1292POPC   NC320423  20.016  33.030   9.623
 1292POPC   PO420424  19.345  33.284   9.590
 1292POPC   GL120425  19.550  33.136   9.221
 1292POPC   GL220426  19.818  32.918   9.155
 1292POPC   C1A20427  19.491  33.118   8.795
 1292POPC   D2A20428  19.482  33.301   8.407
 1292POPC   C3A20429  19.562  32.987   8.107
 1292POPC   C4A20430  19.812  32.823   7.771
 1292POPC   C1B20431  20.027  33.117   8.764
 1292POPC   C2B20432  20.041  33.115   8.275
 1292POPC   C3B20433  20.137  33.212   7.815
 1292POPC   C4B20434  20.114  32.943   7.376
 1293POPC   NC320435  29.885  33.498   9.416
 1293POPC   PO420436  29.827  34.175   9.499
 1293POPC   GL120437  29.996  33.944   9.164
 1293POPC   GL220438  29.650  33.833   9.132
 1293POPC   C1A20439  30.075  33.657   8.791
 1293POPC   D2A20440  29.965  33.785   8.355
 1293POPC   C3A20441  30.132  33.570   7.992
 1293POPC   C4A20442  30.109  33.436   7.555
 1293POPC   C1B20443  29.628  33.909   8.737
 1293POPC   C2B20444  29.438  33.916   8.363
 1293POPC   C3B20445  29.643  33.928   7.984
 1293POPC   C4B20446  29.959  33.947   7.670
 1294POPC   NC320447  40.576  28.954   9.438
 1294POPC   PO420448  40.830  29.595   9.537
 1294POPC   GL120449  40.955  29.293   9.206
 1294POPC   GL220450  41.031  28.943   9.128
 1294POPC   C1A20451  40.949  29.390   8.791
 1294POPC   D2A20452  40.673  29.545   8.471
 1294POPC   C3A20453  40.843  29.623   8.071
 1294POPC   C4A20454  41.040  29.399   7.742
 1294POPC   C1B20455  40.866  28.894   8.723
 1294POPC   C2B20456  40.950  29.095   8.323
 1294POPC   C3B20457  40.701  28.998   7.959
 1294POPC   C4B20458  40.545  28.660   7.678
 1295POPC   NC320459  10.383   4.524   9.664
 1295POPC   PO420460  10.802   4.098   9.322
 1295POPC   GL120461  10.439   4.208   9.143
 1295POPC   GL220462  10.257   4.514   9.148
 1295POPC   C1A20463  10.366   4.221   8.709
 1295POPC   D2A20464  10.350   4.152   8.286
 1295POPC   C3A20465  10.637   4.286   7.993
 1295POPC   C4A20466  10.564   3.978   7.705
 1295POPC   C1B20467  10.223   4.701   8.730
 1295POPC   C2B20468  10.454   4.664   8.370
 1295POPC   C3B20469  10.244   4.618   7.993
 1295POPC   C4B20470  10.181   4.419   7.605
 1296POPC   NC320471  20.936  22.511   9.537
 1296POPC   PO420472  20.335  22.309   9.599
 1296POPC   GL120473  20.500  22.401   9.146
 1296POPC   GL220474  20.861  22.333   9.067
 1296POPC   C1A20475  20.546  22.143   8.722
 1296POPC   D2A20476  20.253  21.948   8.411
 1296POPC   C3A20477  20.418  21.990   8.016
 1296POPC   C4A20478  20.468  22.388   7.886
 1296POPC   C1B20479  20.802  22.592   8.705
 1296POPC   C2B20480  20.819  22.537   8.237
 1296POPC   C3B20481  20.977  22.430   7.777
 1296POPC   C4B20482  21.049  22.194   7.351
 1297POPC   NC320483  40.446  18.728   9.413
 1297POPC   PO420484  40.684  19.331   9.526
 1297POPC   GL120485  40.610  19.121   9.136
 1297POPC   GL220486  40.922  19.007   9.036
 1297POPC   C1A20487  40.520  18.962   8.711
 1297POPC   D2A20488  40.496  19.283   8.377
 1297POPC   C3A20489  40.806  19.327   8.034
 1297POPC   C4A20490  40.785  19.194   7.565
 1297POPC   C1B20491  40.960  19.173   8.640
 1297POPC   C2B20492  40.908  18.896   8.283
 1297POPC   C3B20493  40.717  18.790   7.869
 1297POPC   C4B20494  40.768  18.697   7.394
 1298POPC   NC320495   6.530  23.519   9.443
 1298POPC   PO420496   5.890  23.682   9.634
 1298POPC   GL120497   5.979  23.765   9.210
 1298POPC   GL220498   6.223  24.049   9.247
 1298POPC   C1A20499   5.920  23.528   8.804
 1298POPC   D2A20500   5.719  23.465   8.376
 1298POPC   C3A20501   5.773  23.786   8.051
 1298POPC   C4A20502   5.743  23.878   7.618
 1298POPC   C1B20503   6.106  24.021   8.780
 1298POPC   C2B20504   6.148  23.754   8.387
 1298POPC   C3B20505   6.115  23.427   8.018
 1298POPC   C4B20506   5.944  23.408   7.570
 1299POPC   NC320507  19.708  20.709   9.581
 1299POPC   PO420508  19.847  20.107   9.421
 1299POPC   GL120509  19.609  20.437   9.135
 1299POPC   GL220510  19.658  20.852   9.103
 1299POPC   C1A20511  19.712  20.532   8.699
 1299POPC   D2A20512  20.010  20.442   8.370
 1299POPC   C3A20513  19.854  20.273   7.984
 1299POPC   C4A20514  19.478  20.405   7.787
 1299POPC   C1B20515  19.610  21.146   8.748
 1299POPC   C2B20516  19.484  21.038   8.344
 1299POPC   C3B20517  19.686  20.762   8.096
 1299POPC   C4B20518  19.877  20.765   7.703
 1300POPC   NC320519  40.037  14.759   9.491
 1300POPC   PO420520  39.709  14.084   9.543
 1300POPC   GL120521  39.973  14.330   9.183
 1300POPC   GL220522  40.311  14.539   9.128
 1300POPC   C1A20523  39.927  14.452   8.746
 1300POPC   D2A20524  39.729  14.244   8.355
 1300POPC   C3A20525  39.927  14.352   7.994
 1300POPC   C4A20526  39.991  14.766   7.836
 1300POPC   C1B20527  40.364  14.203   8.824
 1300POPC   C2B20528  40.256  14.259   8.403
 1300POPC   C3B20529  40.414  14.504   8.079
 1300POPC   C4B20530  40.374  14.268   7.724
 1301POPC   NC320531  16.497  40.758   9.547
 1301POPC   PO420532  17.082  41.108   9.360
 1301POPC   GL120533  16.836  40.779   9.125
 1301POPC   GL220534  16.518  40.875   9.069
 1301POPC   C1A20535  16.969  40.539   8.754
 1301POPC   D2A20536  17.125  40.580   8.306
 1301POPC   C3A20537  16.844  40.765   8.007
 1301POPC   C4A20538  16.579  40.774   7.643
 1301POPC   C1B20539  16.506  40.711   8.689
 1301POPC   C2B20540  16.610  40.461   8.350
 1301POPC   C3B20541  16.395  40.433   7.971
 1301POPC   C4B20542  16.218  40.449   7.527
 1302POPC   NC320543  18.871   8.017   9.395
 1302POPC   PO420544  19.569   7.858   9.495
 1302POPC   GL120545  19.325   8.129   9.175
 1302POPC   GL220546  19.547   8.097   8.954
 1302POPC   C1A20547  19.115   8.317   8.776
 1302POPC   D2A20548  19.021   8.121   8.365
 1302POPC   C3A20549  18.655   8.312   8.188
 1302POPC   C4A20550  18.711   8.485   7.794
 1302POPC   C1B20551  19.538   8.095   8.521
 1302POPC   C2B20552  19.474   8.107   8.105
 1302POPC   C3B20553  19.174   8.201   7.774
 1302POPC   C4B20554  19.203   7.985   7.349
 1303POPC   NC320555  44.834   7.196   9.531
 1303POPC   PO420556  44.165   7.345   9.488
 1303POPC   GL120557  44.460   7.419   9.124
 1303POPC   GL220558  44.811   7.352   9.056
 1303POPC   C1A20559  44.430   7.307   8.714
 1303POPC   D2A20560  44.462   7.063   8.337
 1303POPC   C3A20561  44.394   7.256   7.941
 1303POPC   C4A20562  44.169   6.943   7.781
 1303POPC   C1B20563  44.873   7.038   8.751
 1303POPC   C2B20564  44.975   7.031   8.337
 1303POPC   C3B20565  44.909   7.223   7.923
 1303POPC   C4B20566   0.110   7.626   7.862
 1304POPC   NC320567   7.703  34.453   9.394
 1304POPC   PO420568   7.276  34.919   9.352
 1304POPC   GL120569   7.407  34.743   9.018
 1304POPC   GL220570   7.216  34.446   9.091
 1304POPC   C1A20571   7.575  34.793   8.597
 1304POPC   D2A20572   7.783  34.764   8.176
 1304POPC   C3A20573   7.483  34.792   7.793
 1304POPC   C4A20574   7.627  34.670   7.318
 1304POPC   C1B20575   7.459  34.308   8.748
 1304POPC   C2B20576   7.567  34.330   8.323
 1304POPC   C3B20577   7.314  34.319   7.961
 1304POPC   C4B20578   7.244  34.429   7.530
 1305POPC   NC320579  35.825  14.251   9.474
 1305POPC   PO420580  35.445  14.744   9.172
 1305POPC   GL120581  35.820  14.506   8.991
 1305POPC   GL220582  36.025  14.171   9.023
 1305POPC   C1A20583  35.950  14.367   8.556
 1305POPC   D2A20584  36.306  14.415   8.301
 1305POPC   C3A20585  36.211  14.496   7.876
 1305POPC   C4A20586  35.883  14.742   7.671
 1305POPC   C1B20587  36.371  14.040   8.734
 1305POPC   C2B20588  36.322  13.871   8.323
 1305POPC   C3B20589  35.990  14.054   8.095
 1305POPC   C4B20590  35.944  14.122   7.674
 1306POPC   NC320591  25.577   9.061   9.475
 1306POPC   PO420592  25.108   8.648   9.585
 1306POPC   GL120593  25.133   8.971   9.216
 1306POPC   GL220594  25.255   8.710   9.024
 1306POPC   C1A20595  25.427   9.184   8.836
 1306POPC   D2A20596  25.640   9.134   8.385
 1306POPC   C3A20597  25.361   9.128   8.016
 1306POPC   C4A20598  25.013   9.403   7.927
 1306POPC   C1B20599  24.829   8.733   8.831
 1306POPC   C2B20600  24.673   8.771   8.379
 1306POPC   C3B20601  24.878   8.825   7.943
 1306POPC   C4B20602  24.785   8.660   7.504
 1307POPC   NC320603  28.725  15.974   9.452
 1307POPC   PO420604  28.115  16.228   9.322
 1307POPC   GL120605  28.359  15.900   9.074
 1307POPC   GL220606  28.225  15.542   9.101
 1307POPC   C1A20607  28.445  15.902   8.616
 1307POPC   D2A20608  28.247  16.167   8.295
 1307POPC   C3A20609  28.461  16.083   7.951
 1307POPC   C4A20610  28.322  16.050   7.537
 1307POPC   C1B20611  28.063  15.573   8.666
 1307POPC   C2B20612  28.244  15.633   8.196
 1307POPC   C3B20613  28.456  15.619   7.763
 1307POPC   C4B20614  28.653  15.705   7.333
 1308POPC   NC320615  15.553  33.600   9.519
 1308POPC   PO420616  16.098  33.991   9.276
 1308POPC   GL120617  15.682  33.930   9.079
 1308POPC   GL220618  15.629  33.584   9.014
 1308POPC   C1A20619  15.625  34.057   8.649
 1308POPC   D2A20620  15.906  33.935   8.326
 1308POPC   C3A20621  15.910  33.971   7.886
 1308POPC   C4A20622  16.340  33.987   7.751
 1308POPC   C1B20623  15.653  33.533   8.577
 1308POPC   C2B20624  15.695  33.491   8.125
 1308POPC   C3B20625  15.706  33.525   7.697
 1308POPC   C4B20626  15.624  33.525   7.247
 1309POPC   NC320627  24.327   6.895   9.959
 1309POPC   PO420628  24.209   6.474   9.474
 1309POPC   GL120629  24.355   6.639   9.093
 1309POPC   GL220630  24.426   6.947   9.115
 1309POPC   C1A20631  24.628   6.630   8.759
 1309POPC   D2A20632  24.350   6.608   8.438
 1309POPC   C3A20633  24.543   6.580   8.038
 1309POPC   C4A20634  24.513   6.372   7.635
 1309POPC   C1B20635  24.478   7.128   8.748
 1309POPC   C2B20636  24.610   7.041   8.349
 1309POPC   C3B20637  24.417   7.113   7.990
 1309POPC   C4B20638  24.437   6.879   7.639
 1310POPC   NC320639   9.584  11.325   9.467
 1310POPC   PO420640   8.933  11.270   9.600
 1310POPC   GL120641   8.934  11.245   9.159
 1310POPC   GL220642   9.277  11.309   9.034
 1310POPC   C1A20643   8.804  11.315   8.714
 1310POPC   D2A20644   8.719  10.990   8.368
 1310POPC   C3A20645   8.819  11.084   7.941
 1310POPC   C4A20646   9.120  11.280   7.695
 1310POPC   C1B20647   9.287  11.600   8.692
 1310POPC   C2B20648   9.400  11.585   8.275
 1310POPC   C3B20649   9.267  11.717   7.896
 1310POPC   C4B20650   9.194  11.735   7.426
 1311POPC   NC320651  41.936  15.126   9.886
 1311POPC   PO420652  42.414  15.421   9.466
 1311POPC   GL120653  42.155  15.561   9.081
 1311POPC   GL220654  41.929  15.304   8.968
 1311POPC   C1A20655  42.180  15.544   8.617
 1311POPC   D2A20656  42.432  15.311   8.328
 1311POPC   C3A20657  42.369  15.481   7.923
 1311POPC   C4A20658  42.508  15.601   7.508
 1311POPC   C1B20659  42.279  15.008   8.811
 1311POPC   C2B20660  42.344  14.785   8.400
 1311POPC   C3B20661  42.243  14.946   7.979
 1311POPC   C4B20662  41.945  14.934   7.600
 1312POPC   NC320663  42.777  44.662   9.376
 1312POPC   PO420664  42.990  44.057   9.545
 1312POPC   GL120665  43.193  44.335   9.176
 1312POPC   GL220666  43.407  44.669   9.132
 1312POPC   C1A20667  43.243  44.444   8.715
 1312POPC   D2A20668  43.072  44.465   8.297
 1312POPC   C3A20669  42.919  44.830   8.073
 1312POPC   C4A20670  42.866  44.767   7.637
 1312POPC   C1B20671  43.518  44.898   8.692
 1312POPC   C2B20672  43.410  44.922   8.225
 1312POPC   C3B20673  43.354  44.685   7.823
 1312POPC   C4B20674  43.495  44.675   7.354
 1313POPC   NC320675  44.947  40.097   9.402
 1313POPC   PO420676   0.473  39.709   9.428
 1313POPC   GL120677   0.496  40.141   9.197
 1313POPC   GL220678   0.182  40.281   8.987
 1313POPC   C1A20679   0.664  40.296   8.797
 1313POPC   D2A20680   0.477  40.175   8.387
 1313POPC   C3A20681   0.682  40.094   7.983
 1313POPC   C4A20682   0.553  40.199   7.565
 1313POPC   C1B20683   0.106  39.924   8.677
 1313POPC   C2B20684   0.092  39.859   8.202
 1313POPC   C3B20685   0.154  39.957   7.752
 1313POPC   C4B20686   0.068  39.748   7.325
 1314POPC   NC320687   4.057   4.813   9.331
 1314POPC   PO420688   3.487   5.087   9.555
 1314POPC   GL120689   3.469   5.192   9.128
 1314POPC   GL220690   3.831   5.132   9.032
 1314POPC   C1A20691   3.516   5.367   8.743
 1314POPC   D2A20692   3.718   5.103   8.503
 1314POPC   C3A20693   3.519   5.136   8.153
 1314POPC   C4A20694   3.579   5.372   7.814
 1314POPC   C1B20695   3.595   4.745   8.870
 1314POPC   C2B20696   3.542   4.612   8.449
 1314POPC   C3B20697   3.710   4.682   8.063
 1314POPC   C4B20698   3.601   4.875   7.721
 1315POPC   NC320699  19.876   9.471   9.500
 1315POPC   PO420700  19.824   8.824   9.466
 1315POPC   GL120701  19.960   8.983   9.089
 1315POPC   GL220702  20.270   8.752   8.982
 1315POPC   C1A20703  19.709   9.083   8.707
 1315POPC   D2A20704  19.620   8.928   8.291
 1315POPC   C3A20705  19.778   9.081   7.893
 1315POPC   C4A20706  20.224   9.126   7.797
 1315POPC   C1B20707  20.067   8.743   8.637
 1315POPC   C2B20708  20.121   8.896   8.250
 1315POPC   C3B20709  20.079   8.664   7.901
 1315POPC   C4B20710  19.975   8.715   7.491
 1316POPC   NC320711  44.058  15.098   9.611
 1316POPC   PO420712  44.044  15.652   9.237
 1316POPC   GL120713  43.904  15.207   9.143
 1316POPC   GL220714  44.146  14.897   9.082
 1316POPC   C1A20715  43.831  15.104   8.740
 1316POPC   D2A20716  44.044  15.334   8.452
 1316POPC   C3A20717  44.084  15.277   7.999
 1316POPC   C4A20718  43.747  15.092   7.765
 1316POPC   C1B20719  44.160  14.716   8.649
 1316POPC   C2B20720  44.274  14.848   8.216
 1316POPC   C3B20721  44.197  14.843   7.747
 1316POPC   C4B20722  44.015  14.893   7.302
 1317POPC   NC320723  31.409  25.758   9.414
 1317POPC   PO420724  31.060  26.320   9.490
 1317POPC   GL120725  31.408  26.283   9.195
 1317POPC   GL220726  31.725  26.347   9.373
 1317POPC   C1A20727  31.568  26.043   8.820
 1317POPC   D2A20728  31.827  25.984   8.472
 1317POPC   C3A20729  31.655  25.909   8.088
 1317POPC   C4A20730  31.467  25.793   7.728
 1317POPC   C1B20731  31.911  26.404   8.957
 1317POPC   C2B20732  31.812  26.483   8.536
 1317POPC   C3B20733  31.795  26.417   8.098
 1317POPC   C4B20734  31.564  26.320   7.699
 1318POPC   NC320735   9.452  27.459   9.550
 1318POPC   PO420736  10.045  27.796   9.676
 1318POPC   GL120737   9.770  27.805   9.314
 1318POPC   GL220738   9.941  27.512   9.228
 1318POPC   C1A20739   9.631  27.746   8.888
 1318POPC   D2A20740   9.597  27.440   8.535
 1318POPC   C3A20741   9.769  27.539   8.114
 1318POPC   C4A20742   9.645  27.347   7.708
 1318POPC   C1B20743  10.142  27.708   8.843
 1318POPC   C2B20744   9.918  27.899   8.469
 1318POPC   C3B20745  10.090  27.944   8.042
 1318POPC   C4B20746  10.079  27.672   7.692
 1319POPC   NC320747   7.116   1.669   9.391
 1319POPC   PO420748   7.600   1.994   9.758
 1319POPC   GL120749   7.467   2.003   9.294
 1319POPC   GL220750   7.390   2.303   9.148
 1319POPC   C1A20751   7.506   1.925   8.832
 1319POPC   D2A20752   7.554   2.167   8.446
 1319POPC   C3A20753   7.463   1.975   8.042
 1319POPC   C4A20754   7.644   1.923   7.631
 1319POPC   C1B20755   7.117   2.404   8.813
 1319POPC   C2B20756   7.020   2.257   8.421
 1319POPC   C3B20757   7.121   2.362   8.019
 1319POPC   C4B20758   7.258   2.270   7.645
 1320POPC   NC320759  19.476  44.565   9.751
 1320POPC   PO420760  18.869  44.689   9.476
 1320POPC   GL120761  19.036  44.668   9.095
 1320POPC   GL220762  19.325  44.461   9.212
 1320POPC   C1A20763  18.871  44.846   8.697
 1320POPC   D2A20764  18.806   0.053   8.278
 1320POPC   C3A20765  19.135  44.955   8.015
 1320POPC   C4A20766  19.047  44.690   7.638
 1320POPC   C1B20767  19.211  44.280   8.820
 1320POPC   C2B20768  19.127  44.467   8.414
 1320POPC   C3B20769  19.364  44.507   8.015
 1320POPC   C4B20770  19.322  44.250   7.695
 1321POPC   NC320771   0.260  36.051   9.701
 1321POPC   PO420772   0.890  36.148   9.418
 1321POPC   GL120773   0.492  36.150   9.239
 1321POPC   GL220774   0.279  35.852   9.249
 1321POPC   C1A20775   0.336  36.319   8.870
 1321POPC   D2A20776   0.278  36.072   8.494
 1321POPC   C3A20777   0.592  36.154   8.178
 1321POPC   C4A20778   0.398  36.276   7.818
 1321POPC   C1B20779   0.465  35.721   8.896
 1321POPC   C2B20780   0.584  35.647   8.488
 1321POPC   C3B20781   0.371  35.696   8.101
 1321POPC   C4B20782   0.703  35.748   7.824
 1322POPC   NC320783  38.284  26.057   9.911
 1322POPC   PO420784  38.898  25.953   9.739
 1322POPC   GL120785  38.569  26.075   9.358
 1322POPC   GL220786  38.285  26.186   9.271
 1322POPC   C1A20787  38.354  25.842   8.902
 1322POPC   D2A20788  38.337  25.900   8.441
 1322POPC   C3A20789  38.283  25.684   8.005
 1322POPC   C4A20790  38.250  25.869   7.589
 1322POPC   C1B20791  38.358  26.332   8.842
 1322POPC   C2B20792  38.472  26.389   8.413
 1322POPC   C3B20793  38.378  26.233   8.022
 1322POPC   C4B20794  38.658  26.000   7.850
 1323POPC   NC320795  14.066  19.771   9.267
 1323POPC   PO420796  13.582  20.134   9.613
 1323POPC   GL120797  13.616  19.978   9.161
 1323POPC   GL220798  13.496  20.227   8.988
 1323POPC   C1A20799  13.439  19.677   8.833
 1323POPC   D2A20800  13.596  19.450   8.446
 1323POPC   C3A20801  13.549  19.683   8.044
 1323POPC   C4A20802  13.508  20.067   7.760
 1323POPC   C1B20803  13.748  20.039   8.637
 1323POPC   C2B20804  13.725  20.163   8.198
 1323POPC   C3B20805  13.999  20.186   7.797
 1323POPC   C4B20806  13.994  20.036   7.330
 1324POPC   NC320807  18.850  29.293   9.443
 1324POPC   PO420808  19.375  29.014   9.688
 1324POPC   GL120809  19.179  29.055   9.151
 1324POPC   GL220810  18.956  29.299   8.957
 1324POPC   C1A20811  19.031  28.881   8.702
 1324POPC   D2A20812  18.718  29.041   8.389
 1324POPC   C3A20813  18.888  29.041   7.940
 1324POPC   C4A20814  19.213  28.746   7.798
 1324POPC   C1B20815  19.005  29.582   8.648
 1324POPC   C2B20816  18.949  29.477   8.243
 1324POPC   C3B20817  19.164  29.506   7.861
 1324POPC   C4B20818  18.902  29.480   7.523
 1325POPC   NC320819   2.132  34.496   9.566
 1325POPC   PO420820   1.569  34.566   9.185
 1325POPC   GL120821   1.911  34.615   8.961
 1325POPC   GL220822   2.214  34.728   9.126
 1325POPC   C1A20823   1.939  34.352   8.614
 1325POPC   D2A20824   1.966  34.301   8.186
 1325POPC   C3A20825   1.726  34.571   7.958
 1325POPC   C4A20826   1.705  34.597   7.506
 1325POPC   C1B20827   2.390  34.458   8.851
 1325POPC   C2B20828   2.381  34.585   8.447
 1325POPC   C3B20829   2.438  34.432   8.066
 1325POPC   C4B20830   2.182  34.499   7.726
 1326POPC   NC320831  11.839  11.086   9.591
 1326POPC   PO420832  12.168  11.741   9.426
 1326POPC   GL120833  12.018  11.383   9.203
 1326POPC   GL220834  12.318  11.191   9.076
 1326POPC   C1A20835  11.901  11.268   8.789
 1326POPC   D2A20836  12.171  11.337   8.433
 1326POPC   C3A20837  12.088  11.046   8.120
 1326POPC   C4A20838  11.826  11.131   7.769
 1326POPC   C1B20839  12.529  11.469   8.798
 1326POPC   C2B20840  12.501  11.754   8.478
 1326POPC   C3B20841  12.494  11.593   8.069
 1326POPC   C4B20842  12.227  11.423   7.769
 1327POPC   NC320843   7.306  42.282   9.452
 1327POPC   PO420844   7.924  42.282   9.155
 1327POPC   GL120845   7.511  42.165   8.998
 1327POPC   GL220846   7.393  42.528   9.026
 1327POPC   C1A20847   7.181  42.231   8.681
 1327POPC   D2A20848   7.237  42.502   8.305
 1327POPC   C3A20849   7.183  42.211   7.988
 1327POPC   C4A20850   7.037  41.904   7.719
 1327POPC   C1B20851   7.603  42.563   8.656
 1327POPC   C2B20852   7.848  42.419   8.320
 1327POPC   C3B20853   7.653  42.425   7.945
 1327POPC   C4B20854   7.333  42.647   7.739
 1328POPC   NC320855  41.964  16.660   9.772
 1328POPC   PO420856  41.381  16.354   9.820
 1328POPC   GL120857  41.563  16.436   9.366
 1328POPC   GL220858  41.380  16.735   9.285
 1328POPC   C1A20859  41.723  16.617   8.915
 1328POPC   D2A20860  41.547  16.883   8.519
 1328POPC   C3A20861  41.686  16.755   8.083
 1328POPC   C4A20862  41.866  16.709   7.660
 1328POPC   C1B20863  41.216  16.649   8.856
 1328POPC   C2B20864  41.041  16.742   8.455
 1328POPC   C3B20865  41.172  16.872   8.073
 1328POPC   C4B20866  41.367  16.843   7.683
 1329POPC   NC320867  44.867  16.648   9.494
 1329POPC   PO420868   0.634  16.741   9.541
 1329POPC   GL120869   0.502  16.848   9.095
 1329POPC   GL220870   0.163  16.788   9.112
 1329POPC   C1A20871   0.441  16.816   8.637
 1329POPC   D2A20872   0.565  16.488   8.355
 1329POPC   C3A20873   0.643  16.623   7.925
 1329POPC   C4A20874   0.848  17.031   7.877
 1329POPC   C1B20875  44.950  16.687   8.722
 1329POPC   C2B20876   0.054  16.609   8.301
 1329POPC   C3B20877  44.914  16.887   7.973
 1329POPC   C4B20878  44.995  16.760   7.618
 1330POPC   NC320879  24.047   9.021   9.521
 1330POPC   PO420880  23.463   8.736   9.676
 1330POPC   GL120881  23.522   8.882   9.245
 1330POPC   GL220882  23.829   8.979   9.066
 1330POPC   C1A20883  23.463   8.797   8.796
 1330POPC   D2A20884  23.684   8.833   8.433
 1330POPC   C3A20885  23.485   9.011   8.099
 1330POPC   C4A20886  23.497   8.736   7.772
 1330POPC   C1B20887  23.920   9.223   8.691
 1330POPC   C2B20888  24.053   9.148   8.286
 1330POPC   C3B20889  23.953   9.043   7.855
 1330POPC   C4B20890  24.085   8.992   7.401
 1331POPC   NC320891   7.647  40.307   9.322
 1331POPC   PO420892   7.348  40.904   9.531
 1331POPC   GL120893   7.301  40.690   9.200
 1331POPC   GL220894   7.587  40.729   9.064
 1331POPC   C1A20895   7.114  40.677   8.809
 1331POPC   D2A20896   7.234  40.661   8.393
 1331POPC   C3A20897   7.088  40.935   8.088
 1331POPC   C4A20898   7.279  40.964   7.680
 1331POPC   C1B20899   7.678  40.729   8.659
 1331POPC   C2B20900   7.916  40.909   8.338
 1331POPC   C3B20901   7.743  40.900   7.949
 1331POPC   C4B20902   7.760  40.632   7.600
 1332POPC   NC320903   3.878  36.111   9.688
 1332POPC   PO420904   4.500  35.953   9.436
 1332POPC   GL120905   4.353  36.054   9.041
 1332POPC   GL220906   4.241  36.358   9.224
 1332POPC   C1A20907   4.302  36.116   8.578
 1332POPC   D2A20908   4.454  36.463   8.300
 1332POPC   C3A20909   4.468  36.342   7.873
 1332POPC   C4A20910   4.361  35.899   7.737
 1332POPC   C1B20911   4.178  36.527   8.837
 1332POPC   C2B20912   3.967  36.473   8.433
 1332POPC   C3B20913   4.004  36.254   8.053
 1332POPC   C4B20914   4.018  36.412   7.617
 1333POPC   NC320915   2.461   8.842   9.652
 1333POPC   PO420916   1.741   8.839   9.639
 1333POPC   GL120917   1.696   8.909   9.172
 1333POPC   GL220918   1.753   9.254   9.121
 1333POPC   C1A20919   1.817   8.962   8.707
 1333POPC   D2A20920   2.109   9.044   8.340
 1333POPC   C3A20921   2.079   8.689   8.049
 1333POPC   C4A20922   1.698   8.686   7.798
 1333POPC   C1B20923   1.979   9.461   8.723
 1333POPC   C2B20924   2.230   9.552   8.330
 1333POPC   C3B20925   2.218   9.460   7.907
 1333POPC   C4B20926   1.959   9.126   7.814
 1334POPC   NC320927  31.535  38.803   9.460
 1334POPC   PO420928  31.522  39.419   9.752
 1334POPC   GL120929  31.367  39.303   9.277
 1334POPC   GL220930  31.139  39.047   9.152
 1334POPC   C1A20931  31.400  39.273   8.787
 1334POPC   D2A20932  31.352  39.422   8.337
 1334POPC   C3A20933  31.404  39.339   7.861
 1334POPC   C4A20934  31.570  39.553   7.482
 1334POPC   C1B20935  31.286  38.774   8.831
 1334POPC   C2B20936  31.526  38.889   8.437
 1334POPC   C3B20937  31.342  38.858   8.059
 1334POPC   C4B20938  31.148  38.920   7.684
 1335POPC   NC320939  20.225  44.490   9.419
 1335POPC   PO420940  19.711  44.980   9.677
 1335POPC   GL120941  19.660  44.914   9.204
 1335POPC   GL220942  19.982  44.831   9.071
 1335POPC   C1A20943  19.511  44.709   8.818
 1335POPC   D2A20944  19.516  44.814   8.399
 1335POPC   C3A20945  19.915  44.678   8.173
 1335POPC   C4A20946  19.894  44.674   7.718
 1335POPC   C1B20947  20.009  44.560   8.718
 1335POPC   C2B20948  20.236  44.325   8.406
 1335POPC   C3B20949  20.163  44.260   7.971
 1335POPC   C4B20950  20.406  44.442   7.632
 1336POPC   NC320951  25.593  36.259   9.416
 1336POPC   PO420952  25.034  35.971   9.459
 1336POPC   GL120953  25.235  36.043   9.074
 1336POPC   GL220954  25.572  36.183   8.915
 1336POPC   C1A20955  25.242  35.866   8.687
 1336POPC   D2A20956  25.442  36.057   8.361
 1336POPC   C3A20957  25.235  35.867   8.058
 1336POPC   C4A20958  25.177  35.903   7.633
 1336POPC   C1B20959  25.194  36.378   8.699
 1336POPC   C2B20960  25.138  36.513   8.287
 1336POPC   C3B20961  25.069  36.358   7.877
 1336POPC   C4B20962  25.282  36.371   7.457
 1337POPC   NC320963  11.673  44.720   9.367
 1337POPC   PO420964  11.069  44.908   9.292
 1337POPC   GL120965  11.063  44.703   8.945
 1337POPC   GL220966  10.958  44.998   8.746
 1337POPC   C1A20967  11.386  44.442   8.757
 1337POPC   D2A20968  11.350  44.202   8.426
 1337POPC   C3A20969  11.482  44.328   8.031
 1337POPC   C4A20970  11.329  44.431   7.659
 1337POPC   C1B20971  11.407  44.932   8.668
 1337POPC   C2B20972  11.626  44.705   8.349
 1337POPC   C3B20973  11.526  44.843   7.932
 1337POPC   C4B20974  11.121   0.006   7.754
 1338POPC   NC320975  41.746  40.121   9.583
 1338POPC   PO420976  41.585  39.548   9.275
 1338POPC   GL120977  41.599  39.933   9.103
 1338POPC   GL220978  41.234  39.925   9.091
 1338POPC   C1A20979  41.819  40.105   8.746
 1338POPC   D2A20980  41.984  40.255   8.331
 1338POPC   C3A20981  41.839  40.022   8.009
 1338POPC   C4A20982  41.541  40.074   7.696
 1338POPC   C1B20983  41.316  40.033   8.645
 1338POPC   C2B20984  41.357  39.991   8.193
 1338POPC   C3B20985  41.078  40.056   7.854
 1338POPC   C4B20986  41.059  40.101   7.392
 1339POPC   NC320987  23.135  33.748   9.541
 1339POPC   PO420988  22.515  33.497   9.784
 1339POPC   GL120989  22.586  33.768   9.335
 1339POPC   GL220990  22.854  34.012   9.221
 1339POPC   C1A20991  22.627  33.762   8.825
 1339POPC   D2A20992  22.783  33.919   8.386
 1339POPC   C3A20993  22.634  33.810   7.976
 1339POPC   C4A20994  22.928  33.779   7.707
 1339POPC   C1B20995  22.958  34.183   8.786
 1339POPC   C2B20996  23.196  34.192   8.357
 1339POPC   C3B20997  23.337  34.018   7.926
 1339POPC   C4B20998  23.385  33.744   7.509
 1340POPC   NC320999  20.605   9.696   9.697
 1340POPC   PO421000  20.001   9.928   9.478
 1340POPC   GL121001  20.429   9.926   9.226
 1340POPC   GL221002  20.658   9.617   9.164
 1340POPC   C1A21003  20.654   9.960   8.799
 1340POPC   D2A21004  20.831   9.944   8.372
 1340POPC   C3A21005  20.520   9.958   8.041
 1340POPC   C4A21006  20.533  10.085   7.634
 1340POPC   C1B21007  20.716   9.462   8.714
 1340POPC   C2B21008  20.529   9.470   8.295
 1340POPC   C3B21009  20.601   9.460   7.842
 1340POPC   C4B21010  20.387   9.614   7.472
 1341POPC   NC321011  25.372  27.024   9.700
 1341POPC   PO421012  25.081  27.511   9.501
 1341POPC   GL121013  25.166  27.364   9.107
 1341POPC   GL221014  24.861  27.314   9.027
 1341POPC   C1A21015  25.431  27.203   8.748
 1341POPC   D2A21016  25.427  27.422   8.351
 1341POPC   C3A21017  25.371  27.461   7.912
 1341POPC   C4A21018  25.564  27.322   7.535
 1341POPC   C1B21019  24.968  27.352   8.605
 1341POPC   C2B21020  24.940  27.609   8.232
 1341POPC   C3B21021  24.880  27.512   7.792
 1341POPC   C4B21022  24.606  27.397   7.447
 1342POPC   NC321023  26.103   1.477   9.502
 1342POPC   PO421024  26.177   2.114   9.708
 1342POPC   GL121025  26.021   1.960   9.269
 1342POPC   GL221026  26.206   1.716   9.031
 1342POPC   C1A21027  25.886   2.078   8.817
 1342POPC   D2A21028  26.147   1.884   8.468
 1342POPC   C3A21029  26.321   1.974   8.050
 1342POPC   C4A21030  26.256   2.227   7.679
 1342POPC   C1B21031  25.812   1.594   8.745
 1342POPC   C2B21032  25.655   1.726   8.352
 1342POPC   C3B21033  25.728   1.566   7.921
 1342POPC   C4B21034  26.118   1.688   7.677
 1343POPC   NC321035  28.780  20.317   9.445
 1343POPC   PO421036  28.114  20.579   9.608
 1343POPC   GL121037  28.367  20.562   9.262
 1343POPC   GL221038  28.319  20.242   9.231
 1343POPC   C1A21039  28.567  20.539   8.849
 1343POPC   D2A21040  28.521  20.806   8.508
 1343POPC   C3A21041  28.511  20.656   8.101
 1343POPC   C4A21042  28.215  20.769   7.778
 1343POPC   C1B21043  28.087  20.340   8.883
 1343POPC   C2B21044  28.136  20.433   8.470
 1343POPC   C3B21045  28.109  20.317   8.035
 1343POPC   C4B21046  28.438  20.276   7.750
 1344POPC   NC321047  26.331  12.253   9.594
 1344POPC   PO421048  25.656  12.076   9.477
 1344POPC   GL121049  25.989  12.091   9.194
 1344POPC   GL221050  26.221  12.354   9.131
 1344POPC   C1A21051  26.159  11.967   8.802
 1344POPC   D2A21052  26.080  11.730   8.437
 1344POPC   C3A21053  26.133  11.885   7.992
 1344POPC   C4A21054  25.980  12.225   7.719
 1344POPC   C1B21055  26.450  12.393   8.776
 1344POPC   C2B21056  26.252  12.293   8.416
 1344POPC   C3B21057  26.419  12.304   8.045
 1344POPC   C4B21058  26.481  12.201   7.663
 1345POPC   NC321059  29.761  21.663   9.409
 1345POPC   PO421060  29.941  20.997   9.263
 1345POPC   GL121061  29.748  21.305   9.023
 1345POPC   GL221062  30.047  21.536   9.012
 1345POPC   C1A21063  29.706  21.545   8.639
 1345POPC   D2A21064  29.995  21.630   8.307
 1345POPC   C3A21065  29.736  21.625   7.947
 1345POPC   C4A21066  29.812  21.534   7.530
 1345POPC   C1B21067  30.121  21.211   8.672
 1345POPC   C2B21068  30.035  21.051   8.267
 1345POPC   C3B21069  30.067  21.207   7.869
 1345POPC   C4B21070  30.262  20.954   7.577
 1346POPC   NC321071  20.260   4.357   9.732
 1346POPC   PO421072  20.533   3.792   9.531
 1346POPC   GL121073  20.503   4.131   9.194
 1346POPC   GL221074  20.288   4.447   9.216
 1346POPC   C1A21075  20.387   4.015   8.755
 1346POPC   D2A21076  20.459   3.888   8.298
 1346POPC   C3A21077  20.507   4.276   7.992
 1346POPC   C4A21078  20.436   4.724   8.090
 1346POPC   C1B21079  20.510   4.521   8.825
 1346POPC   C2B21080  20.692   4.347   8.466
 1346POPC   C3B21081  20.986   4.403   8.137
 1346POPC   C4B21082  20.913   4.591   7.744
 1347POPC   NC321083  44.903  12.616   9.422
 1347POPC   PO421084  44.314  13.023   9.409
 1347POPC   GL121085  44.531  12.777   9.089
 1347POPC   GL221086  44.860  12.943   9.034
 1347POPC   C1A21087  44.569  12.835   8.631
 1347POPC   D2A21088  44.693  13.174   8.354
 1347POPC   C3A21089  44.463  13.156   8.001
 1347POPC   C4A21090  44.502  12.726   7.764
 1347POPC   C1B21091   0.081  12.912   8.640
 1347POPC   C2B21092   0.046  12.806   8.201
 1347POPC   C3B21093  44.908  13.012   7.826
 1347POPC   C4B21094  44.882  12.877   7.388
 1348POPC   NC321095  30.932  39.211   9.591
 1348POPC   PO421096  30.465  39.584   9.523
 1348POPC   GL121097  30.787  39.510   9.182
 1348POPC   GL221098  30.641  39.184   9.170
 1348POPC   C1A21099  30.895  39.344   8.748
 1348POPC   D2A21100  31.032  39.028   8.451
 1348POPC   C3A21101  30.830  39.031   8.061
 1348POPC   C4A21102  30.529  38.839   7.723
 1348POPC   C1B21103  30.382  39.287   8.820
 1348POPC   C2B21104  30.270  39.184   8.388
 1348POPC   C3B21105  30.403  39.291   7.966
 1348POPC   C4B21106  30.742  39.305   7.645
 1349POPC   NC321107  10.903  18.256   9.678
 1349POPC   PO421108  10.277  18.026   9.419
 1349POPC   GL121109  10.713  18.106   9.235
 1349POPC   GL221110  10.745  18.479   9.221
 1349POPC   C1A21111  10.980  18.127   8.859
 1349POPC   D2A21112  10.696  18.109   8.466
 1349POPC   C3A21113  10.819  18.090   8.059
 1349POPC   C4A21114  10.552  17.966   7.740
 1349POPC   C1B21115  10.647  18.515   8.780
 1349POPC   C2B21116  10.561  18.604   8.322
 1349POPC   C3B21117  10.530  18.516   7.869
 1349POPC   C4B21118  10.407  18.708   7.483
 1350POPC   NC321119  40.960   3.893   9.360
 1350POPC   PO421120  40.601   3.348   9.404
 1350POPC   GL121121  40.716   3.562   9.048
 1350POPC   GL221122  40.482   3.866   8.983
 1350POPC   C1A21123  40.843   3.304   8.666
 1350POPC   D2A21124  41.190   3.275   8.365
 1350POPC   C3A21125  41.058   3.297   7.944
 1350POPC   C4A21126  40.898   3.612   7.654
 1350POPC   C1B21127  40.344   3.517   8.719
 1350POPC   C2B21128  40.431   3.341   8.331
 1350POPC   C3B21129  40.455   3.481   7.933
 1350POPC   C4B21130  40.383   3.619   7.519
 1351POPC   NC321131  18.671  23.871   9.516
 1351POPC   PO421132  19.337  23.482   9.379
 1351POPC   GL121133  19.248  23.845   9.085
 1351POPC   GL221134  18.917  23.847   9.044
 1351POPC   C1A21135  19.229  24.120   8.707
 1351POPC   D2A21136  19.170  23.922   8.328
 1351POPC   C3A21137  18.822  23.965   8.097
 1351POPC   C4A21138  18.832  24.085   7.684
 1351POPC   C1B21139  19.110  23.560   8.689
 1351POPC   C2B21140  18.948  23.467   8.264
 1351POPC   C3B21141  18.912  23.256   7.866
 1351POPC   C4B21142  18.717  23.432   7.463
 1352POPC   NC321143  42.190  24.829   9.439
 1352POPC   PO421144  42.065  25.533   9.459
 1352POPC   GL121145  42.324  25.324   9.126
 1352POPC   GL221146  42.336  24.968   8.987
 1352POPC   C1A21147  42.608  25.336   8.769
 1352POPC   D2A21148  42.774  25.165   8.403
 1352POPC   C3A21149  42.500  25.085   8.058
 1352POPC   C4A21150  42.458  24.914   7.666
 1352POPC   C1B21151  42.045  25.154   8.688
 1352POPC   C2B21152  41.980  25.099   8.238
 1352POPC   C3B21153  42.025  25.176   7.806
 1352POPC   C4B21154  42.092  25.117   7.349
 1353POPC   NC321155  18.323  36.204   9.482
 1353POPC   PO421156  17.745  35.882   9.523
 1353POPC   GL121157  18.026  35.897   9.146
 1353POPC   GL221158  18.117  36.229   9.026
 1353POPC   C1A21159  18.384  35.797   8.880
 1353POPC   D2A21160  18.399  35.676   8.436
 1353POPC   C3A21161  18.294  35.967   8.119
 1353POPC   C4A21162  18.394  36.009   7.680
 1353POPC   C1B21163  18.346  36.248   8.658
 1353POPC   C2B21164  18.557  36.395   8.310
 1353POPC   C3B21165  18.365  36.447   7.930
 1353POPC   C4B21166  18.257  36.524   7.496
 1354POPC   NC321167   9.404  43.550   9.330
 1354POPC   PO421168   9.888  43.911   9.667
 1354POPC   GL121169   9.706  43.947   9.218
 1354POPC   GL221170   9.734  43.682   8.986
 1354POPC   C1A21171   9.543  44.104   8.800
 1354POPC   D2A21172   9.487  44.017   8.355
 1354POPC   C3A21173   9.781  44.036   8.017
 1354POPC   C4A21174   9.709  43.901   7.571
 1354POPC   C1B21175   9.532  43.403   8.712
 1354POPC   C2B21176   9.351  43.519   8.369
 1354POPC   C3B21177   9.459  43.637   7.985
 1354POPC   C4B21178   9.245  43.685   7.631
 1355POPC   NC321179   2.432   7.655   9.508
 1355POPC   PO421180   1.995   7.203   9.416
 1355POPC   GL121181   2.027   7.319   9.038
 1355POPC   GL221182   2.347   7.379   9.069
 1355POPC   C1A21183   1.844   7.586   8.707
 1355POPC   D2A21184   1.935   7.671   8.280
 1355POPC   C3A21185   1.698   7.652   7.892
 1355POPC   C4A21186   1.870   7.604   7.465
 1355POPC   C1B21187   2.297   7.309   8.624
 1355POPC   C2B21188   2.124   7.166   8.265
 1355POPC   C3B21189   2.079   7.316   7.865
 1355POPC   C4B21190   2.340   7.430   7.542
 1356POPC   NC321191   1.337  40.628   9.646
 1356POPC   PO421192   0.896  41.113   9.477
 1356POPC   GL121193   1.163  40.893   9.201
 1356POPC   GL221194   1.482  41.005   9.178
 1356POPC   C1A21195   1.224  40.694   8.810
 1356POPC   D2A21196   1.450  40.721   8.456
 1356POPC   C3A21197   1.199  40.592   8.113
 1356POPC   C4A21198   1.477  40.524   7.777
 1356POPC   C1B21199   1.275  41.218   8.799
 1356POPC   C2B21200   1.135  41.114   8.403
 1356POPC   C3B21201   1.348  41.063   8.027
 1356POPC   C4B21202   1.135  40.883   7.682
 1357POPC   NC321203  32.257  41.715   9.632
 1357POPC   PO421204  32.040  41.207   9.221
 1357POPC   GL121205  32.302  41.561   9.110
 1357POPC   GL221206  32.255  41.926   9.176
 1357POPC   C1A21207  32.516  41.589   8.748
 1357POPC   D2A21208  32.642  41.251   8.467
 1357POPC   C3A21209  32.444  41.373   8.102
 1357POPC   C4A21210  32.596  41.635   7.770
 1357POPC   C1B21211  32.043  41.850   8.796
 1357POPC   C2B21212  32.098  41.688   8.411
 1357POPC   C3B21213  31.997  41.676   8.010
 1357POPC   C4B21214  32.121  41.441   7.694
 1358POPC   NC321215  42.302  12.491   9.689
 1358POPC   PO421216  41.902  13.010   9.502
 1358POPC   GL121217  42.151  12.959   9.192
 1358POPC   GL221218  42.476  12.839   9.276
 1358POPC   C1A21219  42.277  13.069   8.815
 1358POPC   D2A21220  42.143  12.820   8.459
 1358POPC   C3A21221  42.203  12.934   8.057
 1358POPC   C4A21222  42.152  12.616   7.690
 1358POPC   C1B21223  42.522  12.641   8.860
 1358POPC   C2B21224  42.643  12.854   8.492
 1358POPC   C3B21225  42.802  12.910   8.111
 1358POPC   C4B21226  42.595  12.860   7.725
 1359POPC   NC321227  10.168  42.908   9.390
 1359POPC   PO421228  10.695  43.357   9.462
 1359POPC   GL121229  10.694  43.109   9.122
 1359POPC   GL221230  10.539  43.417   8.970
 1359POPC   C1A21231  10.893  43.166   8.732
 1359POPC   D2A21232  10.664  43.360   8.453
 1359POPC   C3A21233  10.734  43.265   8.075
 1359POPC   C4A21234  10.785  43.078   7.734
 1359POPC   C1B21235  10.380  43.057   8.732
 1359POPC   C2B21236  10.212  43.127   8.300
 1359POPC   C3B21237  10.285  43.179   7.831
 1359POPC   C4B21238  10.094  43.156   7.382
 1360POPC   NC321239   4.812  41.601   9.585
 1360POPC   PO421240   4.212  41.306   9.432
 1360POPC   GL121241   4.495  41.494   9.083
 1360POPC   GL221242   4.234  41.682   9.009
 1360POPC   C1A21243   4.462  41.629   8.571
 1360POPC   D2A21244   4.374  41.374   8.171
 1360POPC   C3A21245   4.363  41.583   7.743
 1360POPC   C4A21246   4.570  41.851   7.405
 1360POPC   C1B21247   4.079  41.329   8.752
 1360POPC   C2B21248   3.971  41.120   8.382
 1360POPC   C3B21249   3.769  41.049   7.999
 1360POPC   C4B21250   3.911  41.178   7.580
 1361POPC   NC321251  42.829  35.610   9.333
 1361POPC   PO421252  43.469  35.523   9.442
 1361POPC   GL121253  43.283  35.141   9.191
 1361POPC   GL221254  43.546  34.929   9.042
 1361POPC   C1A21255  43.019  35.083   8.847
 1361POPC   D2A21256  42.990  35.316   8.467
 1361POPC   C3A21257  42.998  35.142   8.089
 1361POPC   C4A21258  43.004  35.232   7.653
 1361POPC   C1B21259  43.464  35.092   8.597
 1361POPC   C2B21260  43.457  35.490   8.366
 1361POPC   C3B21261  43.373  35.475   7.952
 1361POPC   C4B21262  43.156  35.712   7.656
 1362POPC   NC321263  29.404  37.160   9.314
 1362POPC   PO421264  29.931  36.829   9.547
 1362POPC   GL121265  29.866  36.808   9.135
 1362POPC   GL221266  29.893  37.161   9.119
 1362POPC   C1A21267  29.994  36.836   8.701
 1362POPC   D2A21268  29.927  36.660   8.271
 1362POPC   C3A21269  30.191  36.827   7.935
 1362POPC   C4A21270  30.267  36.812   7.477
 1362POPC   C1B21271  29.725  37.307   8.740
 1362POPC   C2B21272  29.786  37.171   8.373
 1362POPC   C3B21273  29.673  37.245   8.018
 1362POPC   C4B21274  29.858  37.081   7.643
 1363POPC   NC321275  42.931  29.500   9.493
 1363POPC   PO421276  43.143  28.897   9.463
 1363POPC   GL121277  43.096  29.107   9.089
 1363POPC   GL221278  43.230  29.414   9.083
 1363POPC   C1A21279  43.169  29.195   8.634
 1363POPC   D2A21280  43.296  28.955   8.268
 1363POPC   C3A21281  43.067  28.994   7.888
 1363POPC   C4A21282  43.266  29.054   7.454
 1363POPC   C1B21283  42.849  29.522   8.863
 1363POPC   C2B21284  42.822  29.600   8.438
 1363POPC   C3B21285  42.767  29.468   8.018
 1363POPC   C4B21286  43.062  29.447   7.707
 1364POPC   NC321287   8.616  38.225   9.543
 1364POPC   PO421288   8.774  38.773   9.289
 1364POPC   GL121289   8.859  38.393   9.121
 1364POPC   GL221290   9.170  38.192   9.108
 1364POPC   C1A21291   8.783  38.258   8.753
 1364POPC   D2A21292   9.012  38.133   8.448
 1364POPC   C3A21293   8.807  38.306   8.129
 1364POPC   C4A21294   8.781  38.234   7.720
 1364POPC   C1B21295   9.247  38.500   8.749
 1364POPC   C2B21296   9.158  38.630   8.333
 1364POPC   C3B21297   9.263  38.419   7.954
 1364POPC   C4B21298   9.169  38.479   7.513
 1365POPC   NC321299   1.901  23.369   9.503
 1365POPC   PO421300   2.265  23.946   9.410
 1365POPC   GL121301   2.032  23.696   9.125
 1365POPC   GL221302   1.671  23.690   9.111
 1365POPC   C1A21303   2.184  23.513   8.764
 1365POPC   D2A21304   2.105  23.745   8.405
 1365POPC   C3A21305   2.164  23.802   7.980
 1365POPC   C4A21306   1.743  23.969   7.896
 1365POPC   C1B21307   1.694  23.481   8.680
 1365POPC   C2B21308   1.650  23.498   8.253
 1365POPC   C3B21309   1.664  23.452   7.844
 1365POPC   C4B21310   1.997  23.391   7.707
 1366POPC   NC321311  18.391  42.649   9.499
 1366POPC   PO421312  18.157  43.186   9.771
 1366POPC   GL121313  18.245  43.118   9.286
 1366POPC   GL221314  18.557  42.977   9.125
 1366POPC   C1A21315  18.097  42.883   8.907
 1366POPC   D2A21316  18.011  42.924   8.478
 1366POPC   C3A21317  18.298  42.811   8.158
 1366POPC   C4A21318  18.079  42.588   7.838
 1366POPC   C1B21319  18.387  43.284   8.794
 1366POPC   C2B21320  18.185  43.407   8.396
 1366POPC   C3B21321  18.090  43.240   8.000
 1366POPC   C4B21322  18.439  43.138   7.720
 1367POPC   NC321323  13.531  18.846   9.359
 1367POPC   PO421324  13.865  19.357   9.252
 1367POPC   GL121325  13.766  19.108   8.937
 1367POPC   GL221326  13.967  18.858   9.079
 1367POPC   C1A21327  13.439  18.952   8.650
 1367POPC   D2A21328  13.400  18.688   8.278
 1367POPC   C3A21329  13.279  18.908   7.914
 1367POPC   C4A21330  13.472  19.268   7.728
 1367POPC   C1B21331  13.781  18.606   8.808
 1367POPC   C2B21332  13.835  18.455   8.447
 1367POPC   C3B21333  13.892  18.614   8.066
 1367POPC   C4B21334  13.777  18.866   7.778
 1368POPC   NC321335  15.691  18.743   9.524
 1368POPC   PO421336  15.329  18.159   9.335
 1368POPC   GL121337  15.479  18.456   9.121
 1368POPC   GL221338  15.127  18.516   8.998
 1368POPC   C1A21339  15.541  18.416   8.699
 1368POPC   D2A21340  15.150  18.434   8.482
 1368POPC   C3A21341  15.038  18.146   8.149
 1368POPC   C4A21342  15.310  18.199   7.792
 1368POPC   C1B21343  14.870  18.774   8.776
 1368POPC   C2B21344  14.835  18.818   8.368
 1368POPC   C3B21345  15.044  18.637   8.015
 1368POPC   C4B21346  14.844  18.378   7.705
 1369POPC   NC321347  22.962  42.667   9.538
 1369POPC   PO421348  22.996  42.068   9.764
 1369POPC   GL121349  22.953  42.241   9.265
 1369POPC   GL221350  23.261  42.515   9.152
 1369POPC   C1A21351  22.912  42.324   8.785
 1369POPC   D2A21352  22.998  42.572   8.375
 1369POPC   C3A21353  22.717  42.537   8.037
 1369POPC   C4A21354  22.661  42.733   7.623
 1369POPC   C1B21355  23.383  42.509   8.709
 1369POPC   C2B21356  23.348  42.218   8.332
 1369POPC   C3B21357  23.181  42.354   7.925
 1369POPC   C4B21358  23.105  42.480   7.489
 1370POPC   NC321359   5.227   9.492   9.451
 1370POPC   PO421360   4.590   9.458   9.111
 1370POPC   GL121361   4.984   9.641   9.008
 1370POPC   GL221362   5.061   9.949   9.187
 1370POPC   C1A21363   5.356   9.476   8.787
 1370POPC   D2A21364   5.445   9.276   8.355
 1370POPC   C3A21365   5.246   9.504   7.973
 1370POPC   C4A21366   4.867   9.728   7.839
 1370POPC   C1B21367   5.290   9.998   8.770
 1370POPC   C2B21368   5.154   9.898   8.318
 1370POPC   C3B21369   5.238  10.058   7.893
 1370POPC   C4B21370   5.140  10.036   7.472
 1371POPC   NC321371  11.581  29.249   9.276
 1371POPC   PO421372  10.960  29.153   9.486
 1371POPC   GL121373  11.116  29.090   9.116
 1371POPC   GL221374  11.301  28.808   9.138
 1371POPC   C1A21375  11.210  29.323   8.757
 1371POPC   D2A21376  11.463  29.219   8.455
 1371POPC   C3A21377  11.268  29.312   8.120
 1371POPC   C4A21378  11.424  29.246   7.730
 1371POPC   C1B21379  11.374  28.809   8.755
 1371POPC   C2B21380  11.218  28.722   8.415
 1371POPC   C3B21381  11.270  28.826   8.035
 1371POPC   C4B21382  11.334  28.729   7.672
 1372POPC   NC321383   5.545  21.740   9.485
 1372POPC   PO421384   4.924  21.362   9.570
 1372POPC   GL121385   5.066  21.247   9.157
 1372POPC   GL221386   5.326  21.462   9.134
 1372POPC   C1A21387   5.240  21.207   8.726
 1372POPC   D2A21388   5.215  21.359   8.354
 1372POPC   C3A21389   5.208  21.150   7.979
 1372POPC   C4A21390   5.014  21.406   7.726
 1372POPC   C1B21391   5.632  21.572   8.826
 1372POPC   C2B21392   5.743  21.474   8.432
 1372POPC   C3B21393   5.589  21.493   8.040
 1372POPC   C4B21394   5.758  21.721   7.769
 1373POPC   NC321395  18.483  22.387   9.492
 1373POPC   PO421396  18.618  21.763   9.634
 1373POPC   GL121397  18.437  21.901   9.221
 1373POPC   GL221398  18.090  21.785   9.215
 1373POPC   C1A21399  18.555  22.012   8.770
 1373POPC   D2A21400  18.414  21.769   8.351
 1373POPC   C3A21401  18.422  21.825   7.898
 1373POPC   C4A21402  18.598  22.044   7.532
 1373POPC   C1B21403  18.069  21.879   8.787
 1373POPC   C2B21404  17.883  21.842   8.386
 1373POPC   C3B21405  17.892  21.929   7.952
 1373POPC   C4B21406  18.071  22.053   7.600
 1374POPC   NC321407  44.272  26.899   9.905
 1374POPC   PO421408  44.670  26.650   9.407
 1374POPC   GL121409  44.597  26.864   9.062
 1374POPC   GL221410  44.252  26.875   9.067
 1374POPC   C1A21411  44.739  26.738   8.667
 1374POPC   D2A21412  44.621  26.454   8.343
 1374POPC   C3A21413  44.682  26.667   7.941
 1374POPC   C4A21414  44.841  26.764   7.521
 1374POPC   C1B21415  44.367  27.117   8.667
 1374POPC   C2B21416  44.613  27.274   8.267
 1374POPC   C3B21417  44.735  27.193   7.793
 1374POPC   C4B21418  44.783  27.203   7.294
 1375POPC   NC321419   5.570  12.474   9.976
 1375POPC   PO421420   5.948  12.702   9.497
 1375POPC   GL121421   5.962  12.593   9.110
 1375POPC   GL221422   6.328  12.621   9.108
 1375POPC   C1A21423   5.711  12.799   8.763
 1375POPC   D2A21424   5.560  13.067   8.396
 1375POPC   C3A21425   5.682  12.956   7.969
 1375POPC   C4A21426   5.615  12.555   7.807
 1375POPC   C1B21427   6.204  12.705   8.685
 1375POPC   C2B21428   5.956  12.667   8.292
 1375POPC   C3B21429   6.124  12.539   7.882
 1375POPC   C4B21430   6.010  12.517   7.422
 1376POPC   NC321431   0.099  14.228   9.357
 1376POPC   PO421432   0.563  14.468   9.841
 1376POPC   GL121433   0.580  14.439   9.349
 1376POPC   GL221434   0.824  14.207   9.234
 1376POPC   C1A21435   0.418  14.442   8.868
 1376POPC   D2A21436   0.219  14.594   8.492
 1376POPC   C3A21437   0.437  14.531   8.123
 1376POPC   C4A21438   0.328  14.323   7.756
 1376POPC   C1B21439   0.829  14.157   8.791
 1376POPC   C2B21440   0.616  14.127   8.410
 1376POPC   C3B21441   0.754  14.125   7.969
 1376POPC   C4B21442   0.644  13.905   7.599
 1377POPC   NC321443  23.126  41.735   9.478
 1377POPC   PO421444  22.925  41.149   9.376
 1377POPC   GL121445  22.783  41.546   9.148
 1377POPC   GL221446  23.087  41.698   8.979
 1377POPC   C1A21447  22.653  41.850   8.810
 1377POPC   D2A21448  22.964  41.900   8.491
 1377POPC   C3A21449  22.859  41.935   8.077
 1377POPC   C4A21450  23.120  41.879   7.765
 1377POPC   C1B21451  22.915  41.416   8.664
 1377POPC   C2B21452  22.877  41.430   8.213
 1377POPC   C3B21453  22.981  41.330   7.776
 1377POPC   C4B21454  22.800  41.271   7.331
 1378POPC   NC321455  42.916   6.243   9.436
 1378POPC   PO421456  43.470   5.900   9.465
 1378POPC   GL121457  43.211   5.934   9.127
 1378POPC   GL221458  43.298   6.249   9.091
 1378POPC   C1A21459  43.007   5.857   8.751
 1378POPC   D2A21460  43.010   5.634   8.395
 1378POPC   C3A21461  42.958   5.866   8.022
 1378POPC   C4A21462  43.126   5.768   7.586
 1378POPC   C1B21463  43.399   6.181   8.703
 1378POPC   C2B21464  43.385   5.994   8.335
 1378POPC   C3B21465  43.455   5.999   7.942
 1378POPC   C4B21466  43.406   6.260   7.641
 1379POPC   NC321467   4.985   2.567   9.479
 1379POPC   PO421468   5.266   3.180   9.509
 1379POPC   GL121469   5.126   2.950   9.140
 1379POPC   GL221470   5.350   2.691   9.102
 1379POPC   C1A21471   4.893   2.906   8.729
 1379POPC   D2A21472   4.893   2.650   8.311
 1379POPC   C3A21473   4.976   2.821   7.872
 1379POPC   C4A21474   4.942   2.680   7.414
 1379POPC   C1B21475   5.274   2.525   8.689
 1379POPC   C2B21476   5.419   2.557   8.270
 1379POPC   C3B21477   5.502   2.777   7.941
 1379POPC   C4B21478   5.482   2.707   7.516
 1380POPC   NC321479  36.114  35.873   9.452
 1380POPC   PO421480  36.641  35.976   9.122
 1380POPC   GL121481  36.239  35.901   8.921
 1380POPC   GL221482  35.867  35.920   8.999
 1380POPC   C1A21483  36.069  36.020   8.515
 1380POPC   D2A21484  36.061  36.288   8.161
 1380POPC   C3A21485  36.249  36.242   7.755
 1380POPC   C4A21486  36.533  36.319   7.383
 1380POPC   C1B21487  35.597  35.834   8.650
 1380POPC   C2B21488  35.674  35.862   8.208
 1380POPC   C3B21489  35.704  36.128   7.837
 1380POPC   C4B21490  35.892  36.028   7.443
 1381POPC   NC321491  11.178   4.091   9.578
 1381POPC   PO421492  10.813   4.557   9.845
 1381POPC   GL121493  10.750   4.612   9.315
 1381POPC   GL221494  11.103   4.487   9.159
 1381POPC   C1A21495  10.704   4.586   8.855
 1381POPC   D2A21496  10.911   4.434   8.465
 1381POPC   C3A21497  10.919   4.716   8.114
 1381POPC   C4A21498  11.134   4.703   7.738
 1381POPC   C1B21499  11.294   4.266   8.791
 1381POPC   C2B21500  11.413   4.200   8.325
 1381POPC   C3B21501  11.312   4.203   7.855
 1381POPC   C4B21502  11.480   3.955   7.501
 1382POPC   NC321503  34.006  25.624   9.516
 1382POPC   PO421504  33.525  26.258   9.499
 1382POPC   GL121505  33.647  26.164   9.111
 1382POPC   GL221506  33.690  25.809   9.149
 1382POPC   C1A21507  33.951  26.164   8.772
 1382POPC   D2A21508  34.147  25.912   8.457
 1382POPC   C3A21509  33.985  26.010   8.059
 1382POPC   C4A21510  34.090  25.834   7.682
 1382POPC   C1B21511  33.628  25.749   8.705
 1382POPC   C2B21512  33.555  25.816   8.253
 1382POPC   C3B21513  33.591  25.804   7.791
 1382POPC   C4B21514  33.454  25.807   7.361
 1383POPC   NC321515   2.135  25.190   9.458
 1383POPC   PO421516   1.465  25.258   9.510
 1383POPC   GL121517   1.727  25.127   9.162
 1383POPC   GL221518   1.835  25.491   9.161
 1383POPC   C1A21519   1.938  25.095   8.749
 1383POPC   D2A21520   2.252  24.988   8.414
 1383POPC   C3A21521   2.103  25.128   8.021
 1383POPC   C4A21522   1.728  25.225   7.820
 1383POPC   C1B21523   2.114  25.596   8.826
 1383POPC   C2B21524   2.155  25.523   8.395
 1383POPC   C3B21525   1.944  25.656   8.019
 1383POPC   C4B21526   2.138  25.515   7.671
 1384POPC   NC321527  31.253  38.368   9.729
 1384POPC   PO421528  31.920  38.518   9.581
 1384POPC   GL121529  31.723  38.500   9.128
 1384POPC   GL221530  31.381  38.402   9.197
 1384POPC   C1A21531  31.706  38.509   8.716
 1384POPC   D2A21532  31.717  38.250   8.419
 1384POPC   C3A21533  31.721  38.463   8.070
 1384POPC   C4A21534  31.590  38.598   7.680
 1384POPC   C1B21535  31.293  38.245   8.787
 1384POPC   C2B21536  31.217  38.467   8.405
 1384POPC   C3B21537  31.234  38.358   7.993
 1384POPC   C4B21538  31.315  38.185   7.621
 1385POPC   NC321539  27.299  39.754   9.503
 1385POPC   PO421540  27.671  40.290   9.371
 1385POPC   GL121541  27.613  39.946   9.094
 1385POPC   GL221542  27.649  39.585   9.184
 1385POPC   C1A21543  27.752  39.976   8.677
 1385POPC   D2A21544  27.898  40.262   8.388
 1385POPC   C3A21545  27.777  40.102   7.997
 1385POPC   C4A21546  27.521  39.832   7.816
 1385POPC   C1B21547  27.466  39.563   8.755
 1385POPC   C2B21548  27.609  39.618   8.302
 1385POPC   C3B21549  27.988  39.645   8.063
 1385POPC   C4B21550  28.117  39.405   7.729
 1386POPC   NC321551  35.544  18.596   9.381
 1386POPC   PO421552  35.301  19.194   9.600
 1386POPC   GL121553  35.393  19.273   9.180
 1386POPC   GL221554  35.074  19.337   9.046
 1386POPC   C1A21555  35.630  19.079   8.824
 1386POPC   D2A21556  35.610  18.958   8.376
 1386POPC   C3A21557  35.686  19.227   8.017
 1386POPC   C4A21558  35.462  19.085   7.628
 1386POPC   C1B21559  35.191  19.225   8.608
 1386POPC   C2B21560  35.198  19.189   8.130
 1386POPC   C3B21561  35.223  19.483   7.792
 1386POPC   C4B21562  35.154  19.457   7.353
 1387POPC   NC321563  44.736  42.670   9.740
 1387POPC   PO421564  44.716  41.944   9.495
 1387POPC   GL121565  44.752  42.240   9.176
 1387POPC   GL221566  44.569  42.510   9.271
 1387POPC   C1A21567  44.834  42.480   8.795
 1387POPC   D2A21568  44.793  42.621   8.372
 1387POPC   C3A21569  44.901  42.404   7.992
 1387POPC   C4A21570  44.818  42.598   7.604
 1387POPC   C1B21571  44.330  42.480   8.889
 1387POPC   C2B21572  44.281  42.535   8.438
 1387POPC   C3B21573  44.410  42.648   8.002
 1387POPC   C4B21574  44.257  42.523   7.576
 1388POPC   NC321575  40.310  43.372   9.349
 1388POPC   PO421576  39.726  42.871   9.508
 1388POPC   GL121577  39.907  43.077   9.206
 1388POPC   GL221578  39.614  43.185   9.099
 1388POPC   C1A21579  39.967  42.928   8.784
 1388POPC   D2A21580  40.174  42.802   8.411
 1388POPC   C3A21581  39.978  42.830   8.008
 1388POPC   C4A21582  40.111  42.742   7.623
 1388POPC   C1B21583  39.706  43.345   8.722
 1388POPC   C2B21584  39.851  43.196   8.320
 1388POPC   C3B21585  40.051  43.354   7.920
 1388POPC   C4B21586  40.035  43.233   7.463
 1389POPC   NC321587  31.889  40.809   9.425
 1389POPC   PO421588  31.128  41.020   9.395
 1389POPC   GL121589  31.354  40.838   9.081
 1389POPC   GL221590  31.584  41.086   9.040
 1389POPC   C1A21591  31.334  40.788   8.641
 1389POPC   D2A21592  31.502  40.882   8.239
 1389POPC   C3A21593  31.311  40.623   7.921
 1389POPC   C4A21594  31.424  40.707   7.524
 1389POPC   C1B21595  31.830  40.818   8.753
 1389POPC   C2B21596  31.939  40.665   8.375
 1389POPC   C3B21597  31.826  40.599   7.979
 1389POPC   C4B21598  31.928  40.624   7.572
 1390POPC   NC321599  43.205  42.050   9.451
 1390POPC   PO421600  43.049  42.705   9.519
 1390POPC   GL121601  43.160  42.515   9.174
 1390POPC   GL221602  42.904  42.272   9.088
 1390POPC   C1A21603  43.323  42.387   8.797
 1390POPC   D2A21604  43.113  42.441   8.420
 1390POPC   C3A21605  43.206  42.720   8.085
 1390POPC   C4A21606  43.203  42.561   7.690
 1390POPC   C1B21607  42.969  41.999   8.722
 1390POPC   C2B21608  42.941  41.983   8.268
 1390POPC   C3B21609  43.059  42.105   7.842
 1390POPC   C4B21610  42.994  42.184   7.346
 1391POPC   NC321611  41.588  44.008   9.591
 1391POPC   PO421612  40.997  43.646   9.588
 1391POPC   GL121613  41.265  43.795   9.242
 1391POPC   GL221614  41.607  43.660   9.194
 1391POPC   C1A21615  41.363  43.935   8.801
 1391POPC   D2A21616  41.480  44.263   8.457
 1391POPC   C3A21617  41.365  44.190   8.001
 1391POPC   C4A21618  41.117  43.833   7.793
 1391POPC   C1B21619  41.826  43.725   8.808
 1391POPC   C2B21620  41.891  43.483   8.423
 1391POPC   C3B21621  41.905  43.544   7.973
 1391POPC   C4B21622  41.797  43.905   7.657
 1392POPC   NC321623  20.200   3.457   9.420
 1392POPC   PO421624  19.556   3.582   9.585
 1392POPC   GL121625  19.576   3.420   9.198
 1392POPC   GL221626  19.835   3.194   9.213
 1392POPC   C1A21627  19.845   3.579   8.857
 1392POPC   D2A21628  19.977   3.811   8.497
 1392POPC   C3A21629  19.633   3.881   8.226
 1392POPC   C4A21630  19.657   3.783   7.793
 1392POPC   C1B21631  19.706   3.081   8.802
 1392POPC   C2B21632  19.669   3.327   8.435
 1392POPC   C3B21633  19.958   3.439   8.121
 1392POPC   C4B21634  19.784   3.267   7.786
 1393POPC   NC321635   8.562   0.938   9.563
 1393POPC   PO421636   9.155   1.179   9.440
 1393POPC   GL121637   9.126   1.285   9.070
 1393POPC   GL221638   9.265   1.630   9.112
 1393POPC   C1A21639   8.809   1.154   8.780
 1393POPC   D2A21640   8.704   1.342   8.380
 1393POPC   C3A21641   8.929   1.233   7.983
 1393POPC   C4A21642   8.775   1.142   7.560
 1393POPC   C1B21643   8.978   1.655   8.744
 1393POPC   C2B21644   9.016   1.766   8.320
 1393POPC   C3B21645   9.191   1.660   7.904
 1393POPC   C4B21646   9.157   1.508   7.432
 1394POPC   NC321647  34.983   4.997   9.590
 1394POPC   PO421648  35.637   4.912   9.594
 1394POPC   GL121649  35.379   5.031   9.237
 1394POPC   GL221650  35.344   5.336   9.116
 1394POPC   C1A21651  35.336   4.969   8.784
 1394POPC   D2A21652  35.084   4.903   8.435
 1394POPC   C3A21653  35.267   4.967   8.054
 1394POPC   C4A21654  35.270   4.871   7.653
 1394POPC   C1B21655  35.277   5.498   8.755
 1394POPC   C2B21656  35.180   5.400   8.338
 1394POPC   C3B21657  35.406   5.447   7.944
 1394POPC   C4B21658  35.289   5.369   7.491
 1395POPC   NC321659   4.913   3.502   9.612
 1395POPC   PO421660   4.249   3.675   9.500
 1395POPC   GL121661   4.246   3.377   9.205
 1395POPC   GL221662   4.177   3.656   8.992
 1395POPC   C1A21663   4.503   3.291   8.845
 1395POPC   D2A21664   4.400   3.576   8.496
 1395POPC   C3A21665   4.389   3.434   8.085
 1395POPC   C4A21666   4.093   3.381   7.742
 1395POPC   C1B21667   4.095   3.951   8.682
 1395POPC   C2B21668   4.119   3.940   8.239
 1395POPC   C3B21669   4.277   3.871   7.864
 1395POPC   C4B21670   4.200   3.768   7.424
 1396POPC   NC321671  31.759   2.303   9.488
 1396POPC   PO421672  31.607   1.665   9.426
 1396POPC   GL121673  31.700   1.964   9.110
 1396POPC   GL221674  31.644   2.383   9.018
 1396POPC   C1A21675  31.394   2.001   8.806
 1396POPC   D2A21676  31.260   1.843   8.425
 1396POPC   C3A21677  31.174   2.089   8.072
 1396POPC   C4A21678  31.253   1.879   7.704
 1396POPC   C1B21679  31.964   2.203   8.770
 1396POPC   C2B21680  31.771   2.048   8.397
 1396POPC   C3B21681  31.677   2.003   7.975
 1396POPC   C4B21682  31.652   2.156   7.545
 1397POPC   NC321683   5.588  38.893   9.450
 1397POPC   PO421684   5.909  39.551   9.475
 1397POPC   GL121685   5.724  39.315   9.161
 1397POPC   GL221686   6.013  39.063   9.206
 1397POPC   C1A21687   5.584  39.354   8.714
 1397POPC   D2A21688   5.898  39.425   8.366
 1397POPC   C3A21689   5.811  39.470   7.917
 1397POPC   C4A21690   5.640  39.262   7.538
 1397POPC   C1B21691   6.062  39.166   8.799
 1397POPC   C2B21692   5.821  38.945   8.471
 1397POPC   C3B21693   6.046  39.002   8.101
 1397POPC   C4B21694   6.110  39.101   7.709
 1398POPC   NC321695  28.751  14.433   9.572
 1398POPC   PO421696  29.419  14.395   9.557
 1398POPC   GL121697  29.180  14.429   9.192
 1398POPC   GL221698  28.963  14.156   9.077
 1398POPC   C1A21699  29.305  14.437   8.760
 1398POPC   D2A21700  29.344  14.694   8.377
 1398POPC   C3A21701  29.362  14.422   8.037
 1398POPC   C4A21702  29.286  14.185   7.674
 1398POPC   C1B21703  28.813  14.531   8.834
 1398POPC   C2B21704  28.896  14.444   8.407
 1398POPC   C3B21705  28.851  14.276   7.984
 1398POPC   C4B21706  28.864  14.494   7.592
 1399POPC   NC321707  18.461  44.877   9.419
 1399POPC   PO421708  17.885  44.473   9.559
 1399POPC   GL121709  18.140  44.496   9.194
 1399POPC   GL221710  18.520  44.440   9.163
 1399POPC   C1A21711  18.173  44.777   8.836
 1399POPC   D2A21712  18.357   0.026   8.521
 1399POPC   C3A21713  18.272  44.838   8.109
 1399POPC   C4A21714  18.476  44.843   7.712
 1399POPC   C1B21715  18.704  44.343   8.780
 1399POPC   C2B21716  18.555  44.535   8.413
 1399POPC   C3B21717  18.765  44.571   8.048
 1399POPC   C4B21718  18.848  44.200   7.825
 1400POPC   NC321719  31.162  27.595   9.316
 1400POPC   PO421720  31.082  27.058   9.705
 1400POPC   GL121721  31.429  27.182   9.327
 1400POPC   GL221722  31.781  27.248   9.242
 1400POPC   C1A21723  31.411  27.254   8.810
 1400POPC   D2A21724  31.444  27.606   8.460
 1400POPC   C3A21725  31.320  27.464   8.020
 1400POPC   C4A21726  31.176  27.537   7.557
 1400POPC   C1B21727  31.851  27.495   8.881
 1400POPC   C2B21728  31.916  27.389   8.436
 1400POPC   C3B21729  31.826  27.610   8.077
 1400POPC   C4B21730  31.663  27.662   7.680
 1401POPC   NC321731   9.285  34.715   9.465
 1401POPC   PO421732   8.838  34.325   9.262
 1401POPC   GL121733   9.074  34.589   9.025
 1401POPC   GL221734   9.427  34.447   9.055
 1401POPC   C1A21735   8.917  34.822   8.714
 1401POPC   D2A21736   8.715  34.712   8.324
 1401POPC   C3A21737   8.943  34.772   7.943
 1401POPC   C4A21738   8.748  34.637   7.585
 1401POPC   C1B21739   9.494  34.657   8.666
 1401POPC   C2B21740   9.314  34.672   8.293
 1401POPC   C3B21741   9.081  34.331   8.151
 1401POPC   C4B21742   9.033  34.240   7.731
 1402POPC   NC321743  24.998  15.212   9.445
 1402POPC   PO421744  25.552  14.881   9.506
 1402POPC   GL121745  25.317  14.957   9.141
 1402POPC   GL221746  25.349  15.319   9.089
 1402POPC   C1A21747  25.118  14.988   8.731
 1402POPC   D2A21748  24.922  15.046   8.324
 1402POPC   C3A21749  24.978  14.975   7.890
 1402POPC   C4A21750  25.311  15.215   7.697
 1402POPC   C1B21751  25.004  15.507   8.844
 1402POPC   C2B21752  24.841  15.533   8.435
 1402POPC   C3B21753  25.021  15.477   8.057
 1402POPC   C4B21754  24.871  15.437   7.692
 1403POPC   NC321755   1.003  14.364   9.761
 1403POPC   PO421756   1.588  14.225   9.751
 1403POPC   GL121757   1.287  14.336   9.357
 1403POPC   GL221758   1.166  14.665   9.344
 1403POPC   C1A21759   1.277  14.342   8.894
 1403POPC   D2A21760   1.270  14.465   8.476
 1403POPC   C3A21761   1.269  14.231   8.078
 1403POPC   C4A21762   1.317  14.544   7.743
 1403POPC   C1B21763   0.875  14.641   8.978
 1403POPC   C2B21764   0.780  14.596   8.530
 1403POPC   C3B21765   0.945  14.641   8.118
 1403POPC   C4B21766   0.788  14.570   7.718
 1404POPC   NC321767  11.929   2.219   9.694
 1404POPC   PO421768  12.256   1.651   9.920
 1404POPC   GL121769  12.176   1.744   9.434
 1404POPC   GL221770  11.866   1.934   9.286
 1404POPC   C1A21771  12.208   1.757   8.949
 1404POPC   D2A21772  12.334   1.702   8.485
 1404POPC   C3A21773  12.306   1.761   7.996
 1404POPC   C4A21774  12.453   2.043   7.620
 1404POPC   C1B21775  11.722   2.067   8.863
 1404POPC   C2B21776  11.584   2.306   8.479
 1404POPC   C3B21777  11.667   2.472   8.015
 1404POPC   C4B21778  11.745   2.440   7.537
 1405POPC   NC321779  11.225  25.902   9.575
 1405POPC   PO421780  11.009  25.372   9.431
 1405POPC   GL121781  11.031  25.675   9.091
 1405POPC   GL221782  11.209  26.003   9.078
 1405POPC   C1A21783  11.070  25.719   8.648
 1405POPC   D2A21784  11.023  25.911   8.274
 1405POPC   C3A21785  11.125  25.750   7.862
 1405POPC   C4A21786  11.057  25.631   7.421
 1405POPC   C1B21787  10.990  26.243   8.778
 1405POPC   C2B21788  10.964  26.411   8.360
 1405POPC   C3B21789  10.929  26.264   7.930
 1405POPC   C4B21790  11.282  26.185   7.588
 1406POPC   NC321791  16.385  10.077   9.344
 1406POPC   PO421792  16.778   9.727   9.818
 1406POPC   GL121793  16.867   9.768   9.317
 1406POPC   GL221794  16.976   9.436   9.215
 1406POPC   C1A21795  16.615   9.773   8.823
 1406POPC   D2A21796  16.517   9.520   8.429
 1406POPC   C3A21797  16.551   9.675   8.015
 1406POPC   C4A21798  16.554   9.465   7.644
 1406POPC   C1B21799  17.079   9.606   8.839
 1406POPC   C2B21800  17.015   9.472   8.452
 1406POPC   C3B21801  17.056   9.559   8.052
 1406POPC   C4B21802  16.970   9.742   7.698
 1407POPC   NC321803   8.782  23.276   9.214
 1407POPC   PO421804   8.849  23.903   9.507
 1407POPC   GL121805   9.033  23.971   9.111
 1407POPC   GL221806   9.110  23.643   9.068
 1407POPC   C1A21807   9.126  24.011   8.663
 1407POPC   D2A21808   9.121  24.009   8.206
 1407POPC   C3A21809   9.180  23.701   7.847
 1407POPC   C4A21810   9.256  23.786   7.394
 1407POPC   C1B21811   9.031  23.466   8.646
 1407POPC   C2B21812   8.919  23.461   8.209
 1407POPC   C3B21813   8.738  23.421   7.821
 1407POPC   C4B21814   8.930  23.387   7.395
 1408POPC   NC321815  31.403  41.408   9.423
 1408POPC   PO421816  31.984  41.361   9.725
 1408POPC   GL121817  31.814  41.640   9.250
 1408POPC   GL221818  31.491  41.796   9.109
 1408POPC   C1A21819  31.677  41.503   8.750
 1408POPC   D2A21820  31.566  41.694   8.323
 1408POPC   C3A21821  31.578  41.370   7.988
 1408POPC   C4A21822  31.730  41.051   7.757
 1408POPC   C1B21823  31.216  41.755   8.729
 1408POPC   C2B21824  30.980  41.705   8.353
 1408POPC   C3B21825  31.130  41.579   7.963
 1408POPC   C4B21826  31.152  41.674   7.523
 1409POPC   NC321827   0.889  37.710   9.587
 1409POPC   PO421828   1.519  37.796   9.497
 1409POPC   GL121829   1.222  37.903   9.187
 1409POPC   GL221830   1.124  37.574   9.140
 1409POPC   C1A21831   1.118  37.841   8.735
 1409POPC   D2A21832   1.199  37.638   8.378
 1409POPC   C3A21833   0.944  37.766   8.046
 1409POPC   C4A21834   1.185  37.925   7.708
 1409POPC   C1B21835   0.822  37.408   8.847
 1409POPC   C2B21836   0.804  37.164   8.496
 1409POPC   C3B21837   0.985  37.247   8.120
 1409POPC   C4B21838   1.049  37.380   7.697
 1410POPC   NC321839  40.065  37.080   9.582
 1410POPC   PO421840  39.849  36.516   9.424
 1410POPC   GL121841  40.040  36.797   9.097
 1410POPC   GL221842  40.219  37.148   9.094
 1410POPC   C1A21843  39.861  36.930   8.721
 1410POPC   D2A21844  40.028  37.066   8.327
 1410POPC   C3A21845  40.011  36.827   7.971
 1410POPC   C4A21846  40.267  36.995   7.665
 1410POPC   C1B21847  40.370  36.959   8.705
 1410POPC   C2B21848  40.203  36.574   8.531
 1410POPC   C3B21849  40.230  36.414   8.135
 1410POPC   C4B21850  40.490  36.516   7.779
 1411POPC   NC321851  26.746  30.177   9.759
 1411POPC   PO421852  27.265  30.454   9.598
 1411POPC   GL121853  27.111  30.203   9.226
 1411POPC   GL221854  26.721  30.180   9.179
 1411POPC   C1A21855  27.184  30.035   8.782
 1411POPC   D2A21856  26.999  29.790   8.426
 1411POPC   C3A21857  26.923  29.973   8.019
 1411POPC   C4A21858  26.932  29.784   7.573
 1411POPC   C1B21859  26.635  30.095   8.698
 1411POPC   C2B21860  26.482  29.888   8.283
 1411POPC   C3B21861  26.484  29.870   7.813
 1411POPC   C4B21862  26.380  30.072   7.414
 1412POPC   NC321863   3.825  34.529   9.274
 1412POPC   PO421864   3.272  34.848   9.453
 1412POPC   GL121865   3.513  34.859   9.060
 1412POPC   GL221866   3.378  34.508   9.002
 1412POPC   C1A21867   3.702  34.737   8.656
 1412POPC   D2A21868   3.567  34.421   8.350
 1412POPC   C3A21869   3.459  34.653   7.998
 1412POPC   C4A21870   3.630  34.764   7.595
 1412POPC   C1B21871   3.355  34.119   8.737
 1412POPC   C2B21872   3.212  33.984   8.321
 1412POPC   C3B21873   3.341  34.098   7.913
 1412POPC   C4B21874   3.273  34.394   7.597
 1413POPC   NC321875  35.228   9.258   9.588
 1413POPC   PO421876  35.708   8.846   9.573
 1413POPC   GL121877  35.604   8.835   9.162
 1413POPC   GL221878  35.437   9.161   9.126
 1413POPC   C1A21879  35.526   8.851   8.716
 1413POPC   D2A21880  35.271   8.676   8.416
 1413POPC   C3A21881  35.361   8.763   7.964
 1413POPC   C4A21882  35.403   8.725   7.505
 1413POPC   C1B21883  35.079   9.088   8.804
 1413POPC   C2B21884  35.128   9.178   8.364
 1413POPC   C3B21885  34.932   9.076   7.978
 1413POPC   C4B21886  35.021   9.031   7.584
 1414POPC   NC321887  19.824  43.845   9.590
 1414POPC   PO421888  19.776  44.488   9.414
 1414POPC   GL121889  19.840  44.175   9.142
 1414POPC   GL221890  19.868  43.799   9.104
 1414POPC   C1A21891  19.700  44.154   8.745
 1414POPC   D2A21892  19.644  44.309   8.387
 1414POPC   C3A21893  19.651  44.051   8.020
 1414POPC   C4A21894  19.802  44.187   7.597
 1414POPC   C1B21895  20.144  43.923   8.791
 1414POPC   C2B21896  19.983  43.899   8.384
 1414POPC   C3B21897  20.058  43.754   7.963
 1414POPC   C4B21898  19.908  43.709   7.552
 1415POPC   NC321899  15.048  35.516   9.326
 1415POPC   PO421900  15.454  34.982   9.486
 1415POPC   GL121901  15.485  35.289   9.166
 1415POPC   GL221902  15.542  35.662   9.211
 1415POPC   C1A21903  15.336  35.212   8.758
 1415POPC   D2A21904  15.315  34.990   8.389
 1415POPC   C3A21905  15.199  35.135   7.969
 1415POPC   C4A21906  15.184  35.315   7.576
 1415POPC   C1B21907  15.315  35.734   8.789
 1415POPC   C2B21908  15.115  35.524   8.417
 1415POPC   C3B21909  15.263  35.641   8.015
 1415POPC   C4B21910  15.392  35.811   7.633
 1416POPC   NC321911  23.372  35.166   9.503
 1416POPC   PO421912  23.439  35.886   9.505
 1416POPC   GL121913  23.560  35.521   9.177
 1416POPC   GL221914  23.788  35.234   9.086
 1416POPC   C1A21915  23.762  35.632   8.754
 1416POPC   D2A21916  23.937  35.683   8.341
 1416POPC   C3A21917  23.807  35.496   7.905
 1416POPC   C4A21918  23.876  35.536   7.431
 1416POPC   C1B21919  23.953  35.201   8.674
 1416POPC   C2B21920  23.643  35.230   8.325
 1416POPC   C3B21921  23.557  35.007   7.902
 1416POPC   C4B21922  23.739  35.037   7.446
 1417POPC   NC321923  13.782   7.985   9.491
 1417POPC   PO421924  13.412   8.647   9.445
 1417POPC   GL121925  13.641   8.375   9.196
 1417POPC   GL221926  13.424   8.081   9.159
 1417POPC   C1A21927  13.795   8.363   8.807
 1417POPC   D2A21928  13.922   8.638   8.491
 1417POPC   C3A21929  13.802   8.489   8.079
 1417POPC   C4A21930  13.691   8.364   7.685
 1417POPC   C1B21931  13.323   8.110   8.749
 1417POPC   C2B21932  13.444   8.289   8.394
 1417POPC   C3B21933  13.291   8.337   7.998
 1417POPC   C4B21934  13.323   8.032   7.646
 1418POPC   NC321935  20.585  35.403   9.412
 1418POPC   PO421936  20.058  34.946   9.420
 1418POPC   GL121937  20.397  35.023   9.082
 1418POPC   GL221938  20.355  35.385   8.972
 1418POPC   C1A21939  20.588  35.117   8.640
 1418POPC   D2A21940  20.969  35.204   8.439
 1418POPC   C3A21941  20.802  35.199   8.024
 1418POPC   C4A21942  20.766  35.247   7.576
 1418POPC   C1B21943  20.718  35.589   8.741
 1418POPC   C2B21944  20.789  35.666   8.283
 1418POPC   C3B21945  20.562  35.636   7.880
 1418POPC   C4B21946  20.371  35.570   7.478
 1419POPC   NC321947  43.375  17.305   9.407
 1419POPC   PO421948  42.937  17.860   9.654
 1419POPC   GL121949  43.018  17.626   9.291
 1419POPC   GL221950  43.272  17.790   9.186
 1419POPC   C1A21951  43.073  17.397   8.864
 1419POPC   D2A21952  42.958  17.150   8.513
 1419POPC   C3A21953  42.831  17.391   8.163
 1419POPC   C4A21954  42.964  17.370   7.748
 1419POPC   C1B21955  43.367  17.790   8.763
 1419POPC   C2B21956  43.330  17.499   8.418
 1419POPC   C3B21957  43.396  17.522   8.009
 1419POPC   C4B21958  43.614  17.837   7.802
 1420POPC   NC321959  21.776  11.007   9.593
 1420POPC   PO421960  21.128  11.049   9.571
 1420POPC   GL121961  21.255  11.244   9.202
 1420POPC   GL221962  21.614  11.276   9.183
 1420POPC   C1A21963  21.155  11.160   8.792
 1420POPC   D2A21964  20.949  11.348   8.463
 1420POPC   C3A21965  21.133  11.326   8.054
 1420POPC   C4A21966  20.910  11.485   7.689
 1420POPC   C1B21967  21.612  10.952   8.873
 1420POPC   C2B21968  21.675  11.091   8.446
 1420POPC   C3B21969  21.571  10.998   8.036
 1420POPC   C4B21970  21.654  11.144   7.602
 1421POPC   NC321971   0.714  34.218   9.864
 1421POPC   PO421972   0.480  33.606   9.700
 1421POPC   GL121973   0.455  33.733   9.296
 1421POPC   GL221974   0.653  33.473   9.219
 1421POPC   C1A21975   0.354  33.722   8.869
 1421POPC   D2A21976   0.271  33.858   8.475
 1421POPC   C3A21977   0.556  33.785   8.148
 1421POPC   C4A21978   0.489  33.851   7.723
 1421POPC   C1B21979   0.812  33.486   8.850
 1421POPC   C2B21980   0.870  33.474   8.451
 1421POPC   C3B21981   1.019  33.438   8.077
 1421POPC   C4B21982   0.867  33.495   7.663
 1422POPC   NC321983  14.491   6.715   9.792
 1422POPC   PO421984  14.022   6.818   9.498
 1422POPC   GL121985  14.338   6.717   9.168
 1422POPC   GL221986  14.482   7.020   9.023
 1422POPC   C1A21987  14.455   6.601   8.724
 1422POPC   D2A21988  14.406   6.802   8.309
 1422POPC   C3A21989  14.453   6.558   7.928
 1422POPC   C4A21990  14.552   6.370   7.518
 1422POPC   C1B21991  14.092   6.976   8.759
 1422POPC   C2B21992  13.969   7.089   8.318
 1422POPC   C3B21993  14.118   6.977   7.875
 1422POPC   C4B21994  14.449   6.900   7.534
 1423POPC   NC321995  20.095   5.812   9.785
 1423POPC   PO421996  19.627   6.168   9.492
 1423POPC   GL121997  19.819   6.081   9.098
 1423POPC   GL221998  20.121   6.017   9.253
 1423POPC   C1A21999  19.846   6.163   8.646
 1423POPC   D2A22000  19.920   5.992   8.292
 1423POPC   C3A22001  19.718   6.120   7.936
 1423POPC   C4A22002  19.800   5.849   7.613
 1423POPC   C1B22003  20.291   6.235   8.862
 1423POPC   C2B22004  20.291   6.349   8.398
 1423POPC   C3B22005  20.174   6.393   7.936
 1423POPC   C4B22006  19.985   6.326   7.507
 1424POPC   NC322007   4.573  25.511   9.445
 1424POPC   PO422008   4.171  25.096   9.155
 1424POPC   GL122009   4.413  25.392   8.962
 1424POPC   GL222010   4.667  25.174   9.002
 1424POPC   C1A22011   4.614  25.428   8.539
 1424POPC   D2A22012   4.532  25.202   8.132
 1424POPC   C3A22013   4.208  25.364   7.836
 1424POPC   C4A22014   4.134  25.464   7.382
 1424POPC   C1B22015   4.777  24.926   8.657
 1424POPC   C2B22016   4.869  24.644   8.338
 1424POPC   C3B22017   4.726  24.755   7.950
 1424POPC   C4B22018   4.522  25.007   7.644
 1425POPC   NC322019  15.470  42.047   9.604
 1425POPC   PO422020  15.054  42.606   9.508
 1425POPC   GL122021  15.217  42.287   9.195
 1425POPC   GL222022  15.105  41.945   9.163
 1425POPC   C1A22023  15.282  42.343   8.766
 1425POPC   D2A22024  15.400  42.620   8.444
 1425POPC   C3A22025  15.136  42.597   8.078
 1425POPC   C4A22026  14.979  42.294   7.766
 1425POPC   C1B22027  15.054  41.897   8.688
 1425POPC   C2B22028  15.032  42.073   8.243
 1425POPC   C3B22029  14.748  41.879   7.925
 1425POPC   C4B22030  14.672  41.949   7.502
 1426POPC   NC322031  30.831  14.120   9.391
 1426POPC   PO422032  30.303  13.656   9.369
 1426POPC   GL122033  30.589  13.615   9.008
 1426POPC   GL222034  30.699  13.955   8.936
 1426POPC   C1A22035  30.800  13.264   8.747
 1426POPC   D2A22036  30.740  13.077   8.329
 1426POPC   C3A22037  30.880  13.320   7.964
 1426POPC   C4A22038  30.724  13.680   7.715
 1426POPC   C1B22039  31.027  13.740   8.701
 1426POPC   C2B22040  30.987  13.699   8.267
 1426POPC   C3B22041  31.154  13.882   7.898
 1426POPC   C4B22042  31.095  13.940   7.472
 1427POPC   NC322043  30.242   1.995   9.472
 1427POPC   PO422044  29.525   1.803   9.507
 1427POPC   GL122045  29.839   1.843   9.191
 1427POPC   GL222046  30.186   1.765   9.026
 1427POPC   C1A22047  29.726   1.840   8.784
 1427POPC   D2A22048  29.907   1.768   8.433
 1427POPC   C3A22049  29.769   1.934   8.059
 1427POPC   C4A22050  29.759   1.817   7.639
 1427POPC   C1B22051  30.370   1.964   8.665
 1427POPC   C2B22052  30.251   2.098   8.247
 1427POPC   C3B22053  30.214   2.054   7.833
 1427POPC   C4B22054  30.491   2.034   7.493
 1428POPC   NC322055   7.195  32.320   9.508
 1428POPC   PO422056   7.689  31.947   9.616
 1428POPC   GL122057   7.449  31.998   9.188
 1428POPC   GL222058   7.417  32.353   9.050
 1428POPC   C1A22059   7.244  31.973   8.752
 1428POPC   D2A22060   7.155  32.045   8.283
 1428POPC   C3A22061   7.535  32.061   7.975
 1428POPC   C4A22062   7.895  32.371   7.847
 1428POPC   C1B22063   7.496  32.391   8.596
 1428POPC   C2B22064   7.478  32.539   8.175
 1428POPC   C3B22065   7.247  32.446   7.788
 1428POPC   C4B22066   7.127  32.483   7.336
 1429POPC   NC322067  27.294  13.700   9.340
 1429POPC   PO422068  26.811  13.442   9.628
 1429POPC   GL122069  26.818  13.599   9.160
 1429POPC   GL222070  26.997  13.892   8.952
 1429POPC   C1A22071  26.593  13.628   8.777
 1429POPC   D2A22072  26.582  13.598   8.342
 1429POPC   C3A22073  26.548  13.914   8.034
 1429POPC   C4A22074  26.232  13.953   7.745
 1429POPC   C1B22075  27.123  13.686   8.582
 1429POPC   C2B22076  27.072  13.492   8.205
 1429POPC   C3B22077  26.800  13.440   7.893
 1429POPC   C4B22078  26.973  13.791   7.724
 1430POPC   NC322079   0.635  32.771   9.432
 1430POPC   PO422080   1.095  33.184   9.650
 1430POPC   GL122081   1.124  33.299   9.212
 1430POPC   GL222082   1.259  33.013   9.130
 1430POPC   C1A22083   1.277  33.316   8.744
 1430POPC   D2A22084   1.163  33.041   8.423
 1430POPC   C3A22085   1.322  33.025   8.026
 1430POPC   C4A22086   1.285  32.647   7.788
 1430POPC   C1B22087   0.884  32.977   8.864
 1430POPC   C2B22088   0.653  32.918   8.482
 1430POPC   C3B22089   0.828  32.764   8.108
 1430POPC   C4B22090   0.876  32.976   7.740
 1431POPC   NC322091  12.170  19.630   9.556
 1431POPC   PO422092  11.729  20.074   9.541
 1431POPC   GL122093  11.964  19.934   9.194
 1431POPC   GL222094  11.860  19.571   9.139
 1431POPC   C1A22095  11.989  19.934   8.757
 1431POPC   D2A22096  12.180  19.723   8.404
 1431POPC   C3A22097  12.126  19.919   8.024
 1431POPC   C4A22098  12.013  20.037   7.666
 1431POPC   C1B22099  11.680  19.535   8.685
 1431POPC   C2B22100  11.733  19.577   8.216
 1431POPC   C3B22101  12.048  19.442   7.901
 1431POPC   C4B22102  11.986  19.268   7.440
 1432POPC   NC322103  22.577   3.290   9.333
 1432POPC   PO422104  23.033   3.642   9.653
 1432POPC   GL122105  22.907   3.719   9.207
 1432POPC   GL222106  22.542   3.783   9.144
 1432POPC   C1A22107  23.113   3.676   8.793
 1432POPC   D2A22108  22.979   3.495   8.414
 1432POPC   C3A22109  23.104   3.669   8.014
 1432POPC   C4A22110  23.059   3.471   7.629
 1432POPC   C1B22111  22.582   3.561   8.732
 1432POPC   C2B22112  22.482   3.501   8.280
 1432POPC   C3B22113  22.585   3.513   7.828
 1432POPC   C4B22114  22.613   3.546   7.353
 1433POPC   NC322115  40.838   1.447   9.508
 1433POPC   PO422116  40.309   1.073   9.624
 1433POPC   GL122117  40.528   1.090   9.221
 1433POPC   GL222118  40.851   0.949   9.247
 1433POPC   C1A22119  40.532   1.438   8.895
 1433POPC   D2A22120  40.703   1.545   8.493
 1433POPC   C3A22121  40.651   1.238   8.163
 1433POPC   C4A22122  40.633   1.398   7.768
 1433POPC   C1B22123  40.989   1.195   8.877
 1433POPC   C2B22124  41.103   1.229   8.434
 1433POPC   C3B22125  41.145   1.268   7.987
 1433POPC   C4B22126  40.904   0.952   7.754
 1434POPC   NC322127  19.622   8.339   9.527
 1434POPC   PO422128  20.262   8.198   9.554
 1434POPC   GL122129  19.987   8.180   9.194
 1434POPC   GL222130  19.840   8.489   9.093
 1434POPC   C1A22131  19.995   8.219   8.718
 1434POPC   D2A22132  19.868   8.414   8.312
 1434POPC   C3A22133  19.971   8.174   7.960
 1434POPC   C4A22134  20.313   8.264   7.691
 1434POPC   C1B22135  19.571   8.572   8.728
 1434POPC   C2B22136  19.326   8.540   8.318
 1434POPC   C3B22137  19.580   8.558   7.892
 1434POPC   C4B22138  19.510   8.446   7.438
 1435POPC   NC322139  25.796  29.906   9.608
 1435POPC   PO422140  26.315  30.071   9.750
 1435POPC   GL122141  26.224  30.026   9.299
 1435POPC   GL222142  26.210  30.332   9.136
 1435POPC   C1A22143  26.160  29.918   8.825
 1435POPC   D2A22144  25.992  30.023   8.388
 1435POPC   C3A22145  26.032  29.712   8.022
 1435POPC   C4A22146  26.031  29.729   7.568
 1435POPC   C1B22147  26.216  30.416   8.688
 1435POPC   C2B22148  26.348  30.390   8.256
 1435POPC   C3B22149  26.145  30.202   7.919
 1435POPC   C4B22150  25.924  30.246   7.567
 1436POPC   NC322151  29.522  20.692   9.380
 1436POPC   PO422152  28.814  20.844   9.442
 1436POPC   GL122153  29.084  20.696   9.068
 1436POPC   GL222154  29.453  20.810   8.903
 1436POPC   C1A22155  29.044  20.679   8.617
 1436POPC   D2A22156  29.318  20.855   8.294
 1436POPC   C3A22157  29.049  20.876   7.935
 1436POPC   C4A22158  28.860  20.544   7.727
 1436POPC   C1B22159  29.495  20.438   8.706
 1436POPC   C2B22160  29.304  20.321   8.334
 1436POPC   C3B22161  29.306  20.441   7.932
 1436POPC   C4B22162  29.386  20.641   7.570
 1437POPC   NC322163   6.024  43.041   9.460
 1437POPC   PO422164   5.484  43.333   9.418
 1437POPC   GL122165   5.729  43.175   9.069
 1437POPC   GL222166   5.645  42.817   9.069
 1437POPC   C1A22167   5.908  43.321   8.679
 1437POPC   D2A22168   5.637  43.396   8.355
 1437POPC   C3A22169   5.776  43.352   7.962
 1437POPC   C4A22170   5.578  43.017   7.765
 1437POPC   C1B22171   5.865  42.810   8.671
 1437POPC   C2B22172   5.839  42.909   8.223
 1437POPC   C3B22173   6.060  42.942   7.827
 1437POPC   C4B22174   5.968  42.828   7.387
 1438POPC   NC322175   4.007  10.543   9.818
 1438POPC   PO422176   3.395  10.542   9.521
 1438POPC   GL122177   3.584  10.433   9.170
 1438POPC   GL222178   3.903  10.521   9.263
 1438POPC   C1A22179   3.469  10.322   8.749
 1438POPC   D2A22180   3.545  10.100   8.359
 1438POPC   C3A22181   3.550  10.355   8.024
 1438POPC   C4A22182   3.178  10.589   7.944
 1438POPC   C1B22183   3.952  10.504   8.824
 1438POPC   C2B22184   4.015  10.317   8.433
 1438POPC   C3B22185   4.031  10.576   8.093
 1438POPC   C4B22186   3.935  10.478   7.689
 1439POPC   NC322187  34.105  21.617   9.645
 1439POPC   PO422188  34.753  21.430   9.478
 1439POPC   GL122189  34.414  21.404   9.185
 1439POPC   GL222190  34.321  21.742   9.161
 1439POPC   C1A22191  34.452  21.193   8.789
 1439POPC   D2A22192  34.405  21.360   8.387
 1439POPC   C3A22193  34.445  21.062   8.060
 1439POPC   C4A22194  34.444  21.100   7.644
 1439POPC   C1B22195  34.630  21.686   8.804
 1439POPC   C2B22196  34.736  21.781   8.367
 1439POPC   C3B22197  34.692  21.679   7.921
 1439POPC   C4B22198  34.669  21.534   7.507
 1440POPC   NC322199  10.066   3.000   9.307
 1440POPC   PO422200   9.650   2.599   9.644
 1440POPC   GL122201   9.846   2.551   9.219
 1440POPC   GL222202   9.631   2.803   9.108
 1440POPC   C1A22203  10.028   2.653   8.766
 1440POPC   D2A22204   9.816   2.803   8.362
 1440POPC   C3A22205   9.964   2.845   7.928
 1440POPC   C4A22206   9.910   3.175   7.633
 1440POPC   C1B22207   9.432   2.813   8.721
 1440POPC   C2B22208   9.393   2.508   8.378
 1440POPC   C3B22209   9.599   2.495   7.971
 1440POPC   C4B22210   9.580   2.773   7.588
 1441POPC   NC322211  30.358  28.942   9.507
 1441POPC   PO422212  30.724  29.499   9.482
 1441POPC   GL122213  30.539  29.240   9.162
 1441POPC   GL222214  30.826  29.049   9.120
 1441POPC   C1A22215  30.501  29.029   8.747
 1441POPC   D2A22216  30.713  29.271   8.456
 1441POPC   C3A22217  30.595  29.149   8.075
 1441POPC   C4A22218  30.656  29.366   7.714
 1441POPC   C1B22219  31.005  28.929   8.740
 1441POPC   C2B22220  30.938  28.790   8.313
 1441POPC   C3B22221  31.049  28.946   7.921
 1441POPC   C4B22222  30.910  28.977   7.500
 1442POPC   NC322223  16.290  28.197   9.482
 1442POPC   PO422224  15.663  28.167   9.518
 1442POPC   GL122225  15.918  28.074   9.138
 1442POPC   GL222226  16.151  28.365   9.036
 1442POPC   C1A22227  15.856  28.141   8.689
 1442POPC   D2A22228  15.634  28.284   8.312
 1442POPC   C3A22229  15.752  28.236   7.887
 1442POPC   C4A22230  15.728  28.650   7.667
 1442POPC   C1B22231  16.367  28.277   8.664
 1442POPC   C2B22232  16.158  28.295   8.301
 1442POPC   C3B22233  16.087  28.589   8.028
 1442POPC   C4B22234  16.203  28.499   7.625
 1443POPC   NC322235   6.148  34.837   9.469
 1443POPC   PO422236   5.645  34.303   9.510
 1443POPC   GL122237   5.711  34.579   9.196
 1443POPC   GL222238   5.396  34.453   9.081
 1443POPC   C1A22239   5.866  34.667   8.804
 1443POPC   D2A22240   5.985  34.370   8.492
 1443POPC   C3A22241   5.967  34.526   8.094
 1443POPC   C4A22242   5.870  34.487   7.662
 1443POPC   C1B22243   5.352  34.652   8.700
 1443POPC   C2B22244   5.565  34.694   8.349
 1443POPC   C3B22245   5.471  34.505   7.972
 1443POPC   C4B22246   5.388  34.617   7.543
 1444POPC   NC322247   1.798  18.462   9.431
 1444POPC   PO422248   1.164  18.182   9.383
 1444POPC   GL122249   1.324  18.560   9.175
 1444POPC   GL222250   1.002  18.732   9.133
 1444POPC   C1A22251   1.518  18.508   8.763
 1444POPC   D2A22252   1.357  18.198   8.448
 1444POPC   C3A22253   1.378  18.298   8.002
 1444POPC   C4A22254   1.350  17.974   7.675
 1444POPC   C1B22255   0.977  18.449   8.774
 1444POPC   C2B22256   0.877  18.336   8.358
 1444POPC   C3B22257   0.917  18.052   8.009
 1444POPC   C4B22258   0.810  18.007   7.584
 1445POPC   NC322259  18.072  44.037   9.558
 1445POPC   PO422260  17.470  43.875   9.543
 1445POPC   GL122261  17.404  43.987   9.135
 1445POPC   GL222262  17.742  44.130   9.181
 1445POPC   C1A22263  17.358  43.825   8.719
 1445POPC   D2A22264  17.281  43.627   8.336
 1445POPC   C3A22265  17.381  43.878   7.948
 1445POPC   C4A22266  17.387  44.348   7.889
 1445POPC   C1B22267  17.851  43.916   8.825
 1445POPC   C2B22268  17.789  43.770   8.428
 1445POPC   C3B22269  17.957  43.739   8.059
 1445POPC   C4B22270  17.989  44.034   7.771
 1446POPC   NC322271  40.270  27.570   9.646
 1446POPC   PO422272  39.682  27.873   9.409
 1446POPC   GL122273  40.030  27.622   9.198
 1446POPC   GL222274  40.369  27.772   9.178
 1446POPC   C1A22275  40.088  27.378   8.812
 1446POPC   D2A22276  39.857  27.566   8.465
 1446POPC   C3A22277  39.815  27.431   8.045
 1446POPC   C4A22278  39.767  27.591   7.620
 1446POPC   C1B22279  40.182  27.884   8.770
 1446POPC   C2B22280  40.353  27.752   8.402
 1446POPC   C3B22281  40.267  27.628   8.002
 1446POPC   C4B22282  40.210  27.847   7.645
 1447POPC   NC322283  32.881  39.548   9.558
 1447POPC   PO422284  33.257  40.117   9.479
 1447POPC   GL122285  32.951  40.047   9.164
 1447POPC   GL222286  32.754  39.743   9.108
 1447POPC   C1A22287  32.790  40.242   8.808
 1447POPC   D2A22288  33.008  40.110   8.430
 1447POPC   C3A22289  32.824  40.230   8.020
 1447POPC   C4A22290  33.008  40.207   7.655
 1447POPC   C1B22291  32.723  39.737   8.652
 1447POPC   C2B22292  32.760  39.747   8.196
 1447POPC   C3B22293  32.781  39.754   7.756
 1447POPC   C4B22294  32.789  39.887   7.305
 1448POPC   NC322295  39.413  34.511   9.557
 1448POPC   PO422296  39.840  34.993   9.450
 1448POPC   GL122297  39.498  34.829   9.135
 1448POPC   GL222298  39.263  34.520   9.077
 1448POPC   C1A22299  39.432  34.815   8.683
 1448POPC   D2A22300  39.420  34.830   8.258
 1448POPC   C3A22301  39.043  34.910   8.050
 1448POPC   C4A22302  39.050  34.696   7.680
 1448POPC   C1B22303  39.570  34.358   8.821
 1448POPC   C2B22304  39.469  34.322   8.394
 1448POPC   C3B22305  39.368  34.415   7.976
 1448POPC   C4B22306  39.422  34.255   7.565
 1449POPC   NC322307   0.773  22.379   9.612
 1449POPC   PO422308   0.238  21.931   9.460
 1449POPC   GL122309   0.464  21.984   9.115
 1449POPC   GL222310   0.527  22.313   9.171
 1449POPC   C1A22311   0.573  21.988   8.684
 1449POPC   D2A22312   0.336  22.196   8.343
 1449POPC   C3A22313   0.359  21.989   7.940
 1449POPC   C4A22314   0.168  21.975   7.529
 1449POPC   C1B22315   0.552  22.480   8.773
 1449POPC   C2B22316   0.794  22.432   8.394
 1449POPC   C3B22317   0.641  22.514   7.994
 1449POPC   C4B22318   0.536  22.331   7.608
 1450POPC   NC322319  22.155  24.521   9.492
 1450POPC   PO422320  22.290  23.932   9.244
 1450POPC   GL122321  22.293  24.344   9.034
 1450POPC   GL222322  21.974  24.555   9.025
 1450POPC   C1A22323  22.274  24.450   8.599
 1450POPC   D2A22324  22.353  24.233   8.207
 1450POPC   C3A22325  22.255  24.505   7.846
 1450POPC   C4A22326  22.328  24.490   7.357
 1450POPC   C1B22327  21.876  24.166   8.787
 1450POPC   C2B22328  21.838  24.198   8.345
 1450POPC   C3B22329  21.894  24.109   7.894
 1450POPC   C4B22330  21.861  24.399   7.551
 1451POPC   NC322331   2.160  38.518   9.581
 1451POPC   PO422332   1.558  38.732   9.536
 1451POPC   GL122333   1.829  38.588   9.186
 1451POPC   GL222334   2.193  38.677   9.114
 1451POPC   C1A22335   1.767  38.663   8.762
 1451POPC   D2A22336   1.594  38.539   8.383
 1451POPC   C3A22337   1.748  38.648   7.977
 1451POPC   C4A22338   2.008  38.306   7.779
 1451POPC   C1B22339   2.248  38.517   8.712
 1451POPC   C2B22340   2.117  38.732   8.342
 1451POPC   C3B22341   2.282  38.694   7.915
 1451POPC   C4B22342   2.327  38.556   7.461
 1452POPC   NC322343  14.835  37.513   9.729
 1452POPC   PO422344  15.399  37.771   9.460
 1452POPC   GL122345  15.221  37.651   9.102
 1452POPC   GL222346  14.840  37.568   9.186
 1452POPC   C1A22347  15.285  37.913   8.748
 1452POPC   D2A22348  15.203  37.831   8.345
 1452POPC   C3A22349  15.152  38.100   8.021
 1452POPC   C4A22350  15.284  37.870   7.666
 1452POPC   C1B22351  14.798  37.737   8.779
 1452POPC   C2B22352  14.745  37.619   8.347
 1452POPC   C3B22353  14.873  37.676   7.926
 1452POPC   C4B22354  14.808  38.004   7.629
 1453POPC   NC322355   7.531  14.618   9.817
 1453POPC   PO422356   7.674  14.109   9.480
 1453POPC   GL122357   7.696  14.268   9.067
 1453POPC   GL222358   7.444  14.534   9.009
 1453POPC   C1A22359   7.597  14.263   8.617
 1453POPC   D2A22360   7.216  14.247   8.364
 1453POPC   C3A22361   7.306  14.298   7.922
 1453POPC   C4A22362   7.396  14.334   7.474
 1453POPC   C1B22363   7.203  14.695   8.632
 1453POPC   C2B22364   7.100  14.720   8.170
 1453POPC   C3B22365   7.021  14.667   7.707
 1453POPC   C4B22366   6.973  14.558   7.272
 1454POPC   NC322367  23.469   8.365   9.410
 1454POPC   PO422368  24.165   8.555   9.508
 1454POPC   GL122369  23.955   8.413   9.169
 1454POPC   GL222370  23.831   8.068   9.192
 1454POPC   C1A22371  23.739   8.356   8.791
 1454POPC   D2A22372  23.905   8.375   8.445
 1454POPC   C3A22373  23.651   8.381   8.104
 1454POPC   C4A22374  23.684   8.117   7.752
 1454POPC   C1B22375  23.698   7.817   8.820
 1454POPC   C2B22376  23.614   7.957   8.402
 1454POPC   C3B22377  23.414   7.804   8.051
 1454POPC   C4B22378  23.184   7.797   7.680
 1455POPC   NC322379  44.979  11.116   9.418
 1455POPC   PO422380  44.500  11.580   9.615
 1455POPC   GL122381  44.522  11.587   9.160
 1455POPC   GL222382  44.858  11.566   9.142
 1455POPC   C1A22383  44.431  11.379   8.763
 1455POPC   D2A22384  44.418  11.036   8.465
 1455POPC   C3A22385  44.431  11.264   8.092
 1455POPC   C4A22386  44.214  11.294   7.716
 1455POPC   C1B22387  44.935  11.561   8.737
 1455POPC   C2B22388  44.873  11.256   8.415
 1455POPC   C3B22389  44.974  11.266   8.013
 1455POPC   C4B22390  44.764  11.515   7.754
 1456POPC   NC322391  40.371  22.986   9.548
 1456POPC   PO422392  40.958  22.967   9.619
 1456POPC   GL122393  40.768  23.042   9.198
 1456POPC   GL222394  40.669  22.781   8.984
 1456POPC   C1A22395  40.772  23.216   8.759
 1456POPC   D2A22396  40.753  22.940   8.443
 1456POPC   C3A22397  40.810  23.080   8.048
 1456POPC   C4A22398  40.680  23.154   7.629
 1456POPC   C1B22399  40.877  22.498   8.663
 1456POPC   C2B22400  40.994  22.544   8.232
 1456POPC   C3B22401  40.805  22.621   7.841
 1456POPC   C4B22402  41.007  22.763   7.450
 1457POPC   NC322403   7.423  13.793   9.267
 1457POPC   PO422404   7.493  13.227   9.372
 1457POPC   GL122405   7.540  13.393   8.965
 1457POPC   GL222406   7.203  13.448   8.916
 1457POPC   C1A22407   7.520  13.732   8.598
 1457POPC   D2A22408   7.594  13.952   8.187
 1457POPC   C3A22409   7.411  13.828   7.750
 1457POPC   C4A22410   7.450  13.846   7.294
 1457POPC   C1B22411   7.337  13.276   8.516
 1457POPC   C2B22412   7.377  13.482   8.129
 1457POPC   C3B22413   7.120  13.421   7.751
 1457POPC   C4B22414   6.989  13.495   7.310
 1458POPC   NC322415  23.077   0.634   9.751
 1458POPC   PO422416  22.631   0.264   9.483
 1458POPC   GL122417  22.954   0.410   9.221
 1458POPC   GL222418  23.112   0.743   9.209
 1458POPC   C1A22419  23.086   0.307   8.807
 1458POPC   D2A22420  22.847   0.283   8.423
 1458POPC   C3A22421  23.038   0.297   8.009
 1458POPC   C4A22422  23.191   0.703   7.951
 1458POPC   C1B22423  22.736   0.706   8.893
 1458POPC   C2B22424  22.502   0.696   8.500
 1458POPC   C3B22425  22.659   0.631   8.088
 1458POPC   C4B22426  22.759   0.669   7.673
 1459POPC   NC322427  28.278  22.789   9.533
 1459POPC   PO422428  27.941  23.287   9.297
 1459POPC   GL122429  28.258  23.067   9.103
 1459POPC   GL222430  28.582  23.145   9.241
 1459POPC   C1A22431  28.394  22.801   8.763
 1459POPC   D2A22432  28.189  22.746   8.324
 1459POPC   C3A22433  28.420  22.780   7.942
 1459POPC   C4A22434  28.540  22.818   7.496
 1459POPC   C1B22435  28.619  23.271   8.800
 1459POPC   C2B22436  28.669  23.048   8.400
 1459POPC   C3B22437  28.662  23.206   7.982
 1459POPC   C4B22438  28.311  23.240   7.694
 1460POPC   NC322439  24.678   2.263   9.549
 1460POPC   PO422440  24.280   1.714   9.573
 1460POPC   GL122441  24.464   1.900   9.227
 1460POPC   GL222442  24.827   1.822   9.259
 1460POPC   C1A22443  24.194   2.094   8.929
 1460POPC   D2A22444  24.097   2.059   8.491
 1460POPC   C3A22445  24.322   2.169   8.164
 1460POPC   C4A22446  24.400   2.120   7.743
 1460POPC   C1B22447  24.847   2.077   8.890
 1460POPC   C2B22448  24.639   1.988   8.511
 1460POPC   C3B22449  24.762   1.912   8.080
 1460POPC   C4B22450  24.933   2.135   7.710
 1461POPC   NC322451  38.012   5.758   9.805
 1461POPC   PO422452  38.554   5.622   9.434
 1461POPC   GL122453  38.394   5.779   9.051
 1461POPC   GL222454  38.081   5.754   9.197
 1461POPC   C1A22455  38.368   6.106   8.706
 1461POPC   D2A22456  38.294   6.194   8.256
 1461POPC   C3A22457  38.659   6.061   7.989
 1461POPC   C4A22458  38.591   5.898   7.568
 1461POPC   C1B22459  38.007   5.520   8.806
 1461POPC   C2B22460  38.213   5.648   8.441
 1461POPC   C3B22461  38.326   5.676   8.015
 1461POPC   C4B22462  38.239   5.485   7.650
 1462POPC   NC322463  26.693  35.114   9.324
 1462POPC   PO422464  26.911  35.731   9.460
 1462POPC   GL122465  26.932  35.491   9.076
 1462POPC   GL222466  27.164  35.188   9.126
 1462POPC   C1A22467  26.598  35.354   8.752
 1462POPC   D2A22468  26.309  35.241   8.456
 1462POPC   C3A22469  26.403  34.978   8.100
 1462POPC   C4A22470  26.585  35.167   7.751
 1462POPC   C1B22471  27.078  35.236   8.664
 1462POPC   C2B22472  26.814  35.230   8.304
 1462POPC   C3B22473  27.051  35.186   7.974
 1462POPC   C4B22474  27.243  34.937   7.690
 1463POPC   NC322475  13.699  31.764   9.497
 1463POPC   PO422476  13.257  31.290   9.680
 1463POPC   GL122477  13.502  31.295   9.291
 1463POPC   GL222478  13.299  31.587   9.215
 1463POPC   C1A22479  13.733  31.307   8.862
 1463POPC   D2A22480  13.602  31.180   8.418
 1463POPC   C3A22481  13.772  31.296   8.004
 1463POPC   C4A22482  13.770  31.600   7.657
 1463POPC   C1B22483  13.236  31.334   8.823
 1463POPC   C2B22484  13.170  31.488   8.416
 1463POPC   C3B22485  13.269  31.369   8.023
 1463POPC   C4B22486  13.390  31.230   7.617
 1464POPC   NC322487  32.629  22.136   9.535
 1464POPC   PO422488  32.009  22.564   9.553
 1464POPC   GL122489  32.080  22.272   9.219
 1464POPC   GL222490  32.447  22.250   9.078
 1464POPC   C1A22491  32.059  22.104   8.803
 1464POPC   D2A22492  32.302  22.273   8.462
 1464POPC   C3A22493  32.249  22.091   8.063
 1464POPC   C4A22494  32.034  22.278   7.722
 1464POPC   C1B22495  32.630  22.546   8.780
 1464POPC   C2B22496  32.696  22.619   8.337
 1464POPC   C3B22497  32.425  22.553   7.969
 1464POPC   C4B22498  32.533  22.254   7.622
 1465POPC   NC322499  26.723   1.662   9.253
 1465POPC   PO422500  26.963   2.137   9.615
 1465POPC   GL122501  26.801   2.132   9.147
 1465POPC   GL222502  26.455   2.208   9.106
 1465POPC   C1A22503  26.626   1.914   8.698
 1465POPC   D2A22504  26.614   1.643   8.345
 1465POPC   C3A22505  26.823   1.826   8.023
 1465POPC   C4A22506  26.704   2.016   7.648
 1465POPC   C1B22507  26.739   2.393   8.746
 1465POPC   C2B22508  26.927   2.212   8.380
 1465POPC   C3B22509  26.905   2.365   7.967
 1465POPC   C4B22510  27.095   2.316   7.571
 1466POPC   NC322511  41.806   7.618   9.406
 1466POPC   PO422512  41.614   7.037   9.545
 1466POPC   GL122513  41.548   7.312   9.109
 1466POPC   GL222514  41.796   7.606   8.923
 1466POPC   C1A22515  41.387   7.428   8.717
 1466POPC   D2A22516  41.655   7.637   8.388
 1466POPC   C3A22517  41.417   7.517   8.044
 1466POPC   C4A22518  41.124   7.528   7.728
 1466POPC   C1B22519  41.869   7.254   8.689
 1466POPC   C2B22520  41.652   7.142   8.340
 1466POPC   C3B22521  41.853   7.253   7.964
 1466POPC   C4B22522  41.767   7.655   7.723
 1467POPC   NC322523   4.061   1.412   9.541
 1467POPC   PO422524   4.330   0.798   9.519
 1467POPC   GL122525   4.279   1.068   9.149
 1467POPC   GL222526   4.523   1.310   9.027
 1467POPC   C1A22527   4.316   0.980   8.686
 1467POPC   D2A22528   3.991   0.907   8.364
 1467POPC   C3A22529   4.115   1.020   7.947
 1467POPC   C4A22530   4.438   1.289   7.781
 1467POPC   C1B22531   4.136   1.457   8.815
 1467POPC   C2B22532   3.939   1.542   8.415
 1467POPC   C3B22533   4.138   1.628   8.030
 1467POPC   C4B22534   4.066   1.565   7.598
 1468POPC   NC322535  31.803  11.464   9.493
 1468POPC   PO422536  31.136  11.278   9.473
 1468POPC   GL122537  31.405  11.342   9.109
 1468POPC   GL222538  31.585  11.688   9.091
 1468POPC   C1A22539  31.257  11.231   8.703
 1468POPC   D2A22540  30.960  11.398   8.442
 1468POPC   C3A22541  31.110  11.405   8.034
 1468POPC   C4A22542  31.392  11.075   7.894
 1468POPC   C1B22543  31.521  11.677   8.655
 1468POPC   C2B22544  31.559  11.432   8.306
 1468POPC   C3B22545  31.641  11.524   7.909
 1468POPC   C4B22546  31.380  11.638   7.663
 1469POPC   NC322547  22.340  22.921   9.668
 1469POPC   PO422548  21.692  22.898   9.593
 1469POPC   GL122549  22.024  22.897   9.226
 1469POPC   GL222550  22.377  22.800   9.176
 1469POPC   C1A22551  21.975  22.921   8.776
 1469POPC   D2A22552  21.853  23.239   8.464
 1469POPC   C3A22553  21.979  23.130   8.033
 1469POPC   C4A22554  22.001  23.123   7.579
 1469POPC   C1B22555  22.451  22.668   8.750
 1469POPC   C2B22556  22.310  22.881   8.365
 1469POPC   C3B22557  22.450  22.972   7.942
 1469POPC   C4B22558  22.724  22.732   7.698
 1470POPC   NC322559   9.582  39.602   9.602
 1470POPC   PO422560   9.774  40.301   9.716
 1470POPC   GL122561   9.693  39.968   9.303
 1470POPC   GL222562   9.924  39.726   9.220
 1470POPC   C1A22563   9.495  39.860   8.895
 1470POPC   D2A22564   9.378  40.017   8.473
 1470POPC   C3A22565   9.401  39.787   8.080
 1470POPC   C4A22566   9.415  40.010   7.702
 1470POPC   C1B22567   9.995  39.784   8.790
 1470POPC   C2B22568   9.861  39.751   8.368
 1470POPC   C3B22569   9.890  39.892   7.925
 1470POPC   C4B22570   9.962  40.095   7.519
 1471POPC   NC322571  26.776  10.125   9.549
 1471POPC   PO422572  26.587  10.826   9.492
 1471POPC   GL122573  26.654  10.598   9.106
 1471POPC   GL222574  26.586  10.253   9.102
 1471POPC   C1A22575  26.920  10.717   8.739
 1471POPC   D2A22576  27.041  10.566   8.334
 1471POPC   C3A22577  26.966  10.867   7.958
 1471POPC   C4A22578  26.865  10.797   7.509
 1471POPC   C1B22579  26.837  10.225   8.728
 1471POPC   C2B22580  26.695  10.201   8.310
 1471POPC   C3B22581  26.688  10.446   7.947
 1471POPC   C4B22582  26.597  10.326   7.554
 1472POPC   NC322583  41.247  13.296   9.504
 1472POPC   PO422584  41.740  13.746   9.560
 1472POPC   GL122585  41.598  13.560   9.187
 1472POPC   GL222586  41.243  13.668   9.140
 1472POPC   C1A22587  41.509  13.425   8.774
 1472POPC   D2A22588  41.356  13.558   8.406
 1472POPC   C3A22589  41.543  13.602   8.048
 1472POPC   C4A22590  41.617  13.441   7.668
 1472POPC   C1B22591  41.326  13.919   8.773
 1472POPC   C2B22592  41.149  14.020   8.387
 1472POPC   C3B22593  41.311  14.056   7.949
 1472POPC   C4B22594  41.274  13.826   7.542
 1473POPC   NC322595   0.205  32.264   9.480
 1473POPC   PO422596  44.415  32.282   9.519
 1473POPC   GL122597  44.560  32.074   9.134
 1473POPC   GL222598  44.878  31.918   9.245
 1473POPC   C1A22599  44.525  32.159   8.673
 1473POPC   D2A22600  44.298  32.389   8.315
 1473POPC   C3A22601  44.462  32.288   7.906
 1473POPC   C4A22602  44.493  31.866   7.780
 1473POPC   C1B22603   0.032  32.072   8.856
 1473POPC   C2B22604  44.996  32.289   8.497
 1473POPC   C3B22605  44.925  32.129   8.121
 1473POPC   C4B22606  44.943  32.096   7.704
 1474POPC   NC322607   4.039   4.789   9.829
 1474POPC   PO422608   4.242   5.282   9.436
 1474POPC   GL122609   4.342   5.230   9.043
 1474POPC   GL222610   4.457   4.920   9.021
 1474POPC   C1A22611   4.633   5.310   8.718
 1474POPC   D2A22612   4.702   5.358   8.276
 1474POPC   C3A22613   4.527   5.092   7.982
 1474POPC   C4A22614   4.463   5.117   7.526
 1474POPC   C1B22615   4.189   4.908   8.659
 1474POPC   C2B22616   4.108   4.939   8.224
 1474POPC   C3B22617   4.028   5.136   7.834
 1474POPC   C4B22618   3.964   5.041   7.391
 1475POPC   NC322619   4.882  33.118   9.454
 1475POPC   PO422620   5.437  32.651   9.563
 1475POPC   GL122621   5.174  32.660   9.201
 1475POPC   GL222622   4.825  32.747   9.081
 1475POPC   C1A22623   5.258  32.973   8.881
 1475POPC   D2A22624   5.399  33.128   8.498
 1475POPC   C3A22625   5.246  32.948   8.134
 1475POPC   C4A22626   4.954  32.983   7.765
 1475POPC   C1B22627   4.791  33.178   8.811
 1475POPC   C2B22628   4.932  33.350   8.398
 1475POPC   C3B22629   4.781  33.430   7.957
 1475POPC   C4B22630   4.634  33.344   7.529
 1476POPC   NC322631  30.411  12.465   9.487
 1476POPC   PO422632  30.918  12.044   9.625
 1476POPC   GL122633  30.687  12.093   9.250
 1476POPC   GL222634  30.334  11.977   9.317
 1476POPC   C1A22635  30.823  12.153   8.822
 1476POPC   D2A22636  31.050  11.880   8.538
 1476POPC   C3A22637  30.915  11.891   8.106
 1476POPC   C4A22638  30.880  12.228   7.812
 1476POPC   C1B22639  30.328  12.005   8.886
 1476POPC   C2B22640  30.398  12.253   8.534
 1476POPC   C3B22641  30.430  12.099   8.135
 1476POPC   C4B22642  30.518  11.858   7.769
 1477POPC   NC322643  25.522  33.141   9.662
 1477POPC   PO422644  25.044  32.816   9.716
 1477POPC   GL122645  25.125  32.844   9.255
 1477POPC   GL222646  25.398  33.045   9.182
 1477POPC   C1A22647  25.017  33.005   8.830
 1477POPC   D2A22648  25.200  33.112   8.431
 1477POPC   C3A22649  25.161  32.873   8.048
 1477POPC   C4A22650  25.174  33.125   7.671
 1477POPC   C1B22651  25.525  32.925   8.766
 1477POPC   C2B22652  25.599  32.822   8.341
 1477POPC   C3B22653  25.644  32.997   7.960
 1477POPC   C4B22654  25.655  32.953   7.555
 1478POPC   NC322655  31.423  18.856   9.537
 1478POPC   PO422656  31.255  19.437   9.600
 1478POPC   GL122657  31.217  19.172   9.168
 1478POPC   GL222658  31.426  18.848   9.051
 1478POPC   C1A22659  31.344  19.218   8.712
 1478POPC   D2A22660  31.622  19.228   8.347
 1478POPC   C3A22661  31.425  19.016   8.048
 1478POPC   C4A22662  31.151  19.106   7.734
 1478POPC   C1B22663  31.664  18.685   8.745
 1478POPC   C2B22664  31.493  18.600   8.362
 1478POPC   C3B22665  31.629  18.586   7.957
 1478POPC   C4B22666  31.627  18.887   7.595
 1479POPC   NC322667   9.799  41.988   9.363
 1479POPC   PO422668   9.358  42.351   9.752
 1479POPC   GL122669   9.410  42.357   9.268
 1479POPC   GL222670   9.631  42.667   9.194
 1479POPC   C1A22671   9.523  42.331   8.796
 1479POPC   D2A22672   9.814  42.315   8.414
 1479POPC   C3A22673   9.604  42.537   8.073
 1479POPC   C4A22674   9.285  42.396   7.832
 1479POPC   C1B22675   9.973  42.545   8.865
 1479POPC   C2B22676  10.256  42.604   8.551
 1479POPC   C3B22677  10.142  42.644   8.147
 1479POPC   C4B22678  10.011  42.393   7.819
 1480POPC   NC322679  42.754  16.753   9.622
 1480POPC   PO422680  42.146  16.350   9.485
 1480POPC   GL122681  42.329  16.499   9.113
 1480POPC   GL222682  42.553  16.777   9.144
 1480POPC   C1A22683  42.237  16.533   8.681
 1480POPC   D2A22684  42.324  16.356   8.281
 1480POPC   C3A22685  42.254  16.662   7.975
 1480POPC   C4A22686  42.402  16.642   7.570
 1480POPC   C1B22687  42.495  16.975   8.725
 1480POPC   C2B22688  42.573  16.902   8.289
 1480POPC   C3B22689  42.556  17.063   7.852
 1480POPC   C4B22690  42.642  17.060   7.377
 1481POPC   NC322691   3.538  24.244   9.508
 1481POPC   PO422692   3.915  24.750   9.628
 1481POPC   GL122693   3.798  24.734   9.191
 1481POPC   GL222694   3.808  24.399   9.048
 1481POPC   C1A22695   3.418  24.719   8.900
 1481POPC   D2A22696   3.127  24.746   8.531
 1481POPC   C3A22697   3.279  24.554   8.120
 1481POPC   C4A22698   3.634  24.547   7.780
 1481POPC   C1B22699   3.880  24.698   8.680
 1481POPC   C2B22700   3.820  24.567   8.263
 1481POPC   C3B22701   4.016  24.251   8.002
 1481POPC   C4B22702   4.062  24.227   7.564
 1482POPC   NC322703  30.347   1.006   9.370
 1482POPC   PO422704  30.992   1.128   9.464
 1482POPC   GL122705  30.960   1.082   9.051
 1482POPC   GL222706  30.652   1.226   9.053
 1482POPC   C1A22707  30.936   1.206   8.645
 1482POPC   D2A22708  30.835   1.419   8.302
 1482POPC   C3A22709  30.895   1.286   7.926
 1482POPC   C4A22710  30.671   1.333   7.556
 1482POPC   C1B22711  30.429   1.429   8.726
 1482POPC   C2B22712  30.354   1.570   8.310
 1482POPC   C3B22713  30.374   1.285   7.985
 1482POPC   C4B22714  30.227   1.056   7.620
 1483POPC   NC322715   9.172   2.626   9.514
 1483POPC   PO422716   8.633   3.034   9.597
 1483POPC   GL122717   8.820   2.905   9.204
 1483POPC   GL222718   8.740   2.539   9.231
 1483POPC   C1A22719   8.594   2.974   8.778
 1483POPC   D2A22720   8.471   2.765   8.395
 1483POPC   C3A22721   8.692   2.785   8.002
 1483POPC   C4A22722   8.883   2.481   7.731
 1483POPC   C1B22723   8.941   2.596   8.808
 1483POPC   C2B22724   9.003   2.857   8.431
 1483POPC   C3B22725   9.200   2.821   8.022
 1483POPC   C4B22726   9.104   2.951   7.620
 1484POPC   NC322727   1.431   4.653   9.454
 1484POPC   PO422728   0.797   4.293   9.537
 1484POPC   GL122729   1.049   4.312   9.194
 1484POPC   GL222730   0.899   4.008   9.075
 1484POPC   C1A22731   1.189   4.556   8.843
 1484POPC   D2A22732   1.054   4.726   8.463
 1484POPC   C3A22733   1.026   4.426   8.151
 1484POPC   C4A22734   1.322   4.435   7.820
 1484POPC   C1B22735   0.578   3.983   8.777
 1484POPC   C2B22736   0.497   4.154   8.373
 1484POPC   C3B22737   0.687   4.049   8.000
 1484POPC   C4B22738   0.859   4.266   7.662
 1485POPC   NC322739  24.079   8.124   9.642
 1485POPC   PO422740  24.757   8.069   9.622
 1485POPC   GL122741  24.469   8.199   9.288
 1485POPC   GL222742  24.381   7.933   9.216
 1485POPC   C1A22743  24.435   8.418   8.902
 1485POPC   D2A22744  24.412   8.320   8.477
 1485POPC   C3A22745  24.636   8.102   8.150
 1485POPC   C4A22746  24.531   8.392   7.844
 1485POPC   C1B22747  24.165   8.007   8.837
 1485POPC   C2B22748  24.119   7.909   8.440
 1485POPC   C3B22749  24.125   8.128   8.056
 1485POPC   C4B22750  24.218   8.038   7.644
 1486POPC   NC322751   2.487   5.969   9.453
 1486POPC   PO422752   3.003   5.543   9.360
 1486POPC   GL122753   2.776   5.839   9.042
 1486POPC   GL222754   2.877   6.195   9.097
 1486POPC   C1A22755   2.664   6.021   8.610
 1486POPC   D2A22756   2.352   6.063   8.233
 1486POPC   C3A22757   2.413   5.870   7.850
 1486POPC   C4A22758   2.795   5.798   7.682
 1486POPC   C1B22759   3.157   6.206   8.726
 1486POPC   C2B22760   3.114   6.021   8.314
 1486POPC   C3B22761   3.142   6.156   7.903
 1486POPC   C4B22762   2.759   6.296   7.727
 1487POPC   NC322763  35.254  35.615   9.483
 1487POPC   PO422764  35.751  35.170   9.645
 1487POPC   GL122765  35.531  35.309   9.186
 1487POPC   GL222766  35.335  35.031   9.011
 1487POPC   C1A22767  35.241  35.478   8.822
 1487POPC   D2A22768  35.263  35.568   8.362
 1487POPC   C3A22769  35.113  35.360   8.007
 1487POPC   C4A22770  35.221  35.468   7.595
 1487POPC   C1B22771  35.633  35.195   8.672
 1487POPC   C2B22772  35.715  35.345   8.245
 1487POPC   C3B22773  35.583  35.158   7.843
 1487POPC   C4B22774  35.640  35.231   7.401
 1488POPC   NC322775  41.442  42.522   9.790
 1488POPC   PO422776  41.753  41.968   9.587
 1488POPC   GL122777  41.686  42.106   9.186
 1488POPC   GL222778  41.772  42.464   9.247
 1488POPC   C1A22779  41.680  42.237   8.776
 1488POPC   D2A22780  41.442  42.171   8.414
 1488POPC   C3A22781  41.629  42.083   8.032
 1488POPC   C4A22782  41.688  42.218   7.635
 1488POPC   C1B22783  41.740  42.746   8.891
 1488POPC   C2B22784  41.687  42.667   8.448
 1488POPC   C3B22785  41.696  42.584   8.027
 1488POPC   C4B22786  41.444  42.652   7.679
 1489POPC   NC322787   3.395  32.606   9.759
 1489POPC   PO422788   3.653  33.237   9.770
 1489POPC   GL122789   3.622  33.219   9.301
 1489POPC   GL222790   3.538  32.880   9.321
 1489POPC   C1A22791   3.428  33.135   8.869
 1489POPC   D2A22792   3.226  32.982   8.487
 1489POPC   C3A22793   3.402  33.133   8.101
 1489POPC   C4A22794   3.271  33.130   7.680
 1489POPC   C1B22795   3.861  32.880   8.992
 1489POPC   C2B22796   3.808  32.964   8.548
 1489POPC   C3B22797   3.776  32.804   8.142
 1489POPC   C4B22798   3.752  32.929   7.758
 1490POPC   NC322799   7.435  37.219   9.722
 1490POPC   PO422800   7.669  36.519   9.746
 1490POPC   GL122801   7.393  36.804   9.355
 1490POPC   GL222802   7.387  37.158   9.217
 1490POPC   C1A22803   7.347  36.812   8.871
 1490POPC   D2A22804   7.321  36.785   8.419
 1490POPC   C3A22805   7.626  36.663   8.108
 1490POPC   C4A22806   7.626  36.861   7.714
 1490POPC   C1B22807   7.166  37.311   8.812
 1490POPC   C2B22808   7.053  37.214   8.370
 1490POPC   C3B22809   7.267  37.117   7.983
 1490POPC   C4B22810   7.259  37.166   7.527
 1491POPC   NC322811  27.212  28.381   9.544
 1491POPC   PO422812  27.726  28.239   9.413
 1491POPC   GL122813  27.510  28.245   9.068
 1491POPC   GL222814  27.178  28.140   9.076
 1491POPC   C1A22815  27.549  28.452   8.712
 1491POPC   D2A22816  27.880  28.631   8.498
 1491POPC   C3A22817  27.723  28.774   8.104
 1491POPC   C4A22818  27.673  28.644   7.684
 1491POPC   C1B22819  27.206  28.070   8.616
 1491POPC   C2B22820  27.621  28.024   8.398
 1491POPC   C3B22821  27.651  28.142   7.973
 1491POPC   C4B22822  27.275  28.354   7.790
 1492POPC   NC322823  39.297   0.825   9.624
 1492POPC   PO422824  38.929   0.321   9.813
 1492POPC   GL122825  39.017   0.512   9.343
 1492POPC   GL222826  39.354   0.581   9.196
 1492POPC   C1A22827  38.964   0.517   8.884
 1492POPC   D2A22828  39.106   0.158   8.612
 1492POPC   C3A22829  39.260   0.297   8.221
 1492POPC   C4A22830  38.959   0.293   7.893
 1492POPC   C1B22831  39.483   0.466   8.781
 1492POPC   C2B22832  39.655   0.632   8.409
 1492POPC   C3B22833  39.666   0.695   8.004
 1492POPC   C4B22834  39.362   0.556   7.755
 1493POPC   NC322835  11.023   0.640   9.580
 1493POPC   PO422836  11.375   1.248   9.671
 1493POPC   GL122837  11.349   1.396   9.227
 1493POPC   GL222838  11.032   1.481   9.143
 1493POPC   C1A22839  11.381   1.234   8.812
 1493POPC   D2A22840  11.591   1.196   8.430
 1493POPC   C3A22841  11.500   1.141   8.020
 1493POPC   C4A22842  11.654   1.155   7.604
 1493POPC   C1B22843  10.908   1.419   8.750
 1493POPC   C2B22844  11.075   1.277   8.388
 1493POPC   C3B22845  11.064   1.403   7.996
 1493POPC   C4B22846  10.856   1.230   7.676
 1494POPC   NC322847   3.886  25.192   9.492
 1494POPC   PO422848   3.360  25.571   9.494
 1494POPC   GL122849   3.565  25.452   9.117
 1494POPC   GL222850   3.902  25.530   9.083
 1494POPC   C1A22851   3.576  25.208   8.730
 1494POPC   D2A22852   3.328  25.166   8.341
 1494POPC   C3A22853   3.554  25.015   7.993
 1494POPC   C4A22854   3.844  25.064   7.657
 1494POPC   C1B22855   4.015  25.499   8.647
 1494POPC   C2B22856   3.774  25.414   8.287
 1494POPC   C3B22857   3.482  25.536   7.977
 1494POPC   C4B22858   3.763  25.581   7.681
 1495POPC   NC322859  33.755  44.848   9.425
 1495POPC   PO422860  33.616  44.263   9.656
 1495POPC   GL122861  33.685  44.300   9.224
 1495POPC   GL222862  34.005  44.411   9.186
 1495POPC   C1A22863  33.535  44.397   8.804
 1495POPC   D2A22864  33.667  44.579   8.381
 1495POPC   C3A22865  33.631  44.355   7.974
 1495POPC   C4A22866  33.511  44.535   7.580
 1495POPC   C1B22867  33.944  44.699   8.816
 1495POPC   C2B22868  34.064  44.915   8.407
 1495POPC   C3B22869  34.102  44.701   8.011
 1495POPC   C4B22870  33.971  44.763   7.588
 1496POPC   NC322871  19.435   3.943   9.347
 1496POPC   PO422872  19.801   4.448   9.715
 1496POPC   GL122873  19.747   4.395   9.266
 1496POPC   GL222874  19.846   4.702   9.168
 1496POPC   C1A22875  19.909   4.237   8.820
 1496POPC   D2A22876  20.157   4.301   8.389
 1496POPC   C3A22877  20.062   4.037   7.986
 1496POPC   C4A22878  20.072   4.021   7.481
 1496POPC   C1B22879  20.041   4.727   8.794
 1496POPC   C2B22880  19.796   4.639   8.480
 1496POPC   C3B22881  19.736   4.478   8.092
 1496POPC   C4B22882  19.901   4.440   7.703
 1497POPC   NC322883  25.859  19.006   9.696
 1497POPC   PO422884  26.400  18.955   9.693
 1497POPC   GL122885  26.327  19.026   9.243
 1497POPC   GL222886  25.960  19.052   9.165
 1497POPC   C1A22887  26.313  19.140   8.786
 1497POPC   D2A22888  26.136  19.027   8.371
 1497POPC   C3A22889  26.304  19.130   7.960
 1497POPC   C4A22890  26.338  18.857   7.621
 1497POPC   C1B22891  25.785  19.186   8.740
 1497POPC   C2B22892  25.660  19.178   8.281
 1497POPC   C3B22893  25.827  18.979   7.897
 1497POPC   C4B22894  25.955  19.173   7.490
 1498POPC   NC322895  23.137  24.538   9.681
 1498POPC   PO422896  22.524  24.235   9.678
 1498POPC   GL122897  22.710  24.522   9.322
 1498POPC   GL222898  23.066  24.446   9.201
 1498POPC   C1A22899  22.734  24.557   8.844
 1498POPC   D2A22900  22.853  24.327   8.450
 1498POPC   C3A22901  22.865  24.568   8.060
 1498POPC   C4A22902  22.722  24.654   7.635
 1498POPC   C1B22903  23.256  24.359   8.810
 1498POPC   C2B22904  23.455  24.483   8.410
 1498POPC   C3B22905  23.389  24.399   7.967
 1498POPC   C4B22906  23.074  24.258   7.713
 1499POPC   NC322907  38.452  16.493   9.311
 1499POPC   PO422908  38.090  16.997   9.534
 1499POPC   GL122909  38.372  16.995   9.171
 1499POPC   GL222910  38.744  16.877   9.089
 1499POPC   C1A22911  38.347  16.874   8.747
 1499POPC   D2A22912  38.081  16.861   8.385
 1499POPC   C3A22913  38.341  16.840   8.021
 1499POPC   C4A22914  38.174  16.534   7.708
 1499POPC   C1B22915  38.753  16.567   8.701
 1499POPC   C2B22916  38.450  16.452   8.396
 1499POPC   C3B22917  38.568  16.369   7.995
 1499POPC   C4B22918  38.722  16.638   7.726
 1500POPC   NC322919  10.100  13.717   9.396
 1500POPC   PO422920   9.440  13.557   9.517
 1500POPC   GL122921   9.642  13.617   9.159
 1500POPC   GL222922   9.840  13.326   9.157
 1500POPC   C1A22923   9.857  13.694   8.765
 1500POPC   D2A22924   9.838  13.505   8.364
 1500POPC   C3A22925   9.818  13.798   8.060
 1500POPC   C4A22926  10.072  13.928   7.780
 1500POPC   C1B22927   9.580  13.275   8.777
 1500POPC   C2B22928   9.348  13.373   8.455
 1500POPC   C3B22929   9.400  13.476   8.053
 1500POPC   C4B22930   9.722  13.366   7.823
 1501POPC   NC322931  41.169  10.147   9.445
 1501POPC   PO422932  40.863  10.712   9.442
 1501POPC   GL122933  40.790  10.768   9.022
 1501POPC   GL222934  40.468  10.731   9.038
 1501POPC   C1A22935  40.826  10.674   8.607
 1501POPC   D2A22936  40.747  10.273   8.418
 1501POPC   C3A22937  40.748  10.250   7.984
 1501POPC   C4A22938  40.776  10.417   7.553
 1501POPC   C1B22939  40.389  10.942   8.693
 1501POPC   C2B22940  40.664  11.120   8.395
 1501POPC   C3B22941  40.721  10.995   7.978
 1501POPC   C4B22942  40.369  11.116   7.714
 1502POPC   NC322943   8.199  42.644   9.273
 1502POPC   PO422944   8.447  42.064   9.479
 1502POPC   GL122945   8.402  42.012   9.030
 1502POPC   GL222946   8.468  42.332   8.963
 1502POPC   C1A22947   8.179  42.110   8.608
 1502POPC   D2A22948   7.999  41.904   8.288
 1502POPC   C3A22949   8.118  42.128   7.953
 1502POPC   C4A22950   7.914  42.152   7.609
 1502POPC   C1B22951   8.614  42.369   8.544
 1502POPC   C2B22952   8.346  42.638   8.280
 1502POPC   C3B22953   8.124  42.639   7.884
 1502POPC   C4B22954   8.423  42.465   7.602
 1503POPC   NC322955   8.002  26.193   9.711
 1503POPC   PO422956   8.336  25.715   9.469
 1503POPC   GL122957   8.034  25.923   9.233
 1503POPC   GL222958   8.322  26.066   9.081
 1503POPC   C1A22959   7.901  26.081   8.807
 1503POPC   D2A22960   8.174  26.129   8.451
 1503POPC   C3A22961   7.933  26.145   8.091
 1503POPC   C4A22962   7.877  25.938   7.695
 1503POPC   C1B22963   8.505  25.815   8.742
 1503POPC   C2B22964   8.499  25.724   8.294
 1503POPC   C3B22965   8.370  25.936   7.918
 1503POPC   C4B22966   8.329  25.936   7.444
 1504POPC   NC322967  44.450  37.246   9.440
 1504POPC   PO422968  44.522  37.956   9.528
 1504POPC   GL122969  44.575  37.643   9.150
 1504POPC   GL222970  44.276  37.529   9.033
 1504POPC   C1A22971  44.789  37.479   8.781
 1504POPC   D2A22972   0.038  37.622   8.414
 1504POPC   C3A22973  44.923  37.489   8.021
 1504POPC   C4A22974  44.635  37.586   7.711
 1504POPC   C1B22975  44.389  37.768   8.646
 1504POPC   C2B22976  44.468  37.744   8.176
 1504POPC   C3B22977  44.346  37.995   7.785
 1504POPC   C4B22978  44.210  37.939   7.347
 1505POPC   NC322979  12.858   7.602   9.517
 1505POPC   PO422980  13.114   6.939   9.419
 1505POPC   GL122981  12.944   7.290   9.106
 1505POPC   GL222982  12.637   7.523   9.037
 1505POPC   C1A22983  12.908   7.327   8.638
 1505POPC   D2A22984  12.680   7.306   8.223
 1505POPC   C3A22985  12.928   7.333   7.822
 1505POPC   C4A22986  12.986   7.255   7.357
 1505POPC   C1B22987  12.433   7.564   8.635
 1505POPC   C2B22988  12.566   7.800   8.275
 1505POPC   C3B22989  12.483   7.634   7.858
 1505POPC   C4B22990  12.474   7.524   7.428
 1506POPC   NC322991  12.620  36.684   9.409
 1506POPC   PO422992  12.807  37.187   9.767
 1506POPC   GL122993  12.961  37.068   9.288
 1506POPC   GL222994  13.149  37.373   9.200
 1506POPC   C1A22995  12.811  36.914   8.821
 1506POPC   D2A22996  12.870  36.861   8.353
 1506POPC   C3A22997  12.555  36.664   8.059
 1506POPC   C4A22998  12.562  36.800   7.591
 1506POPC   C1B22999  12.998  37.385   8.771
 1506POPC   C2B23000  12.823  37.403   8.320
 1506POPC   C3B23001  12.789  37.182   7.938
 1506POPC   C4B23002  12.985  36.795   7.840
 1507POPC   NC323003  13.430  40.620   9.350
 1507POPC   PO423004  13.836  41.049   9.652
 1507POPC   GL123005  13.876  40.855   9.215
 1507POPC   GL223006  13.905  40.467   9.194
 1507POPC   C1A23007  13.713  40.773   8.799
 1507POPC   D2A23008  13.435  40.940   8.557
 1507POPC   C3A23009  13.523  40.854   8.129
 1507POPC   C4A23010  13.319  40.793   7.727
 1507POPC   C1B23011  13.912  40.310   8.751
 1507POPC   C2B23012  13.967  40.592   8.365
 1507POPC   C3B23013  14.002  40.444   7.930
 1507POPC   C4B23014  13.657  40.429   7.637
 1508POPC   NC323015  43.928  25.498   9.577
 1508POPC   PO423016  43.555  26.127   9.517
 1508POPC   GL123017  43.690  26.087   9.106
 1508POPC   GL223018  44.044  26.093   9.052
 1508POPC   C1A23019  43.697  26.216   8.678
 1508POPC   D2A23020  43.496  26.252   8.305
 1508POPC   C3A23021  43.714  26.067   7.969
 1508POPC   C4A23022  44.138  26.192   7.836
 1508POPC   C1B23023  44.149  25.848   8.692
 1508POPC   C2B23024  44.015  25.786   8.266
 1508POPC   C3B23025  44.062  25.654   7.819
 1508POPC   C4B23026  44.182  25.605   7.367
 1509POPC   NC323027  33.705  39.083   9.883
 1509POPC   PO423028  33.986  39.599   9.693
 1509POPC   GL123029  33.783  39.314   9.393
 1509POPC   GL223030  34.051  39.265   9.132
 1509POPC   C1A23031  33.583  39.186   8.957
 1509POPC   D2A23032  33.281  39.065   8.605
 1509POPC   C3A23033  33.288  39.091   8.131
 1509POPC   C4A23034  33.531  39.091   7.736
 1509POPC   C1B23035  33.997  39.224   8.647
 1509POPC   C2B23036  33.881  39.021   8.228
 1509POPC   C3B23037  34.053  39.190   7.852
 1509POPC   C4B23038  34.402  39.212   7.539
 1510POPC   NC323039  29.304  17.101   9.451
 1510POPC   PO423040  28.899  16.506   9.416
 1510POPC   GL123041  29.016  16.791   9.115
 1510POPC   GL223042  29.381  16.827   9.007
 1510POPC   C1A23043  28.785  16.943   8.781
 1510POPC   D2A23044  28.648  16.964   8.370
 1510POPC   C3A23045  29.002  16.906   8.109
 1510POPC   C4A23046  29.014  16.679   7.728
 1510POPC   C1B23047  29.272  17.017   8.604
 1510POPC   C2B23048  29.314  17.293   8.239
 1510POPC   C3B23049  29.392  17.117   7.825
 1510POPC   C4B23050  29.487  16.662   7.854
 1511POPC   NC323051  37.678  13.955   9.410
 1511POPC   PO423052  37.397  13.307   9.417
 1511POPC   GL123053  37.651  13.532   9.134
 1511POPC   GL223054  37.742  13.331   8.921
 1511POPC   C1A23055  37.831  13.787   8.770
 1511POPC   D2A23056  37.749  13.555   8.405
 1511POPC   C3A23057  38.029  13.651   8.082
 1511POPC   C4A23058  37.791  13.914   7.820
 1511POPC   C1B23059  37.406  13.221   8.660
 1511POPC   C2B23060  37.153  13.314   8.284
 1511POPC   C3B23061  37.318  13.597   7.973
 1511POPC   C4B23062  37.467  13.576   7.572
 1512POPC   NC323063  42.588  42.580   9.517
 1512POPC   PO423064  42.525  43.196   9.751
 1512POPC   GL123065  42.506  43.128   9.249
 1512POPC   GL223066  42.758  42.868   9.140
 1512POPC   C1A23067  42.532  43.125   8.792
 1512POPC   D2A23068  42.614  43.362   8.431
 1512POPC   C3A23069  42.427  43.126   8.117
 1512POPC   C4A23070  42.283  43.195   7.717
 1512POPC   C1B23071  42.707  42.591   8.764
 1512POPC   C2B23072  42.599  42.388   8.386
 1512POPC   C3B23073  42.759  42.473   8.027
 1512POPC   C4B23074  42.640  42.770   7.758
 1513POPC   NC323075   2.332  15.643   9.495
 1513POPC   PO423076   3.065  15.780   9.550
 1513POPC   GL123077   2.976  16.004   9.155
 1513POPC   GL223078   2.646  15.958   9.077
 1513POPC   C1A23079   2.973  15.936   8.681
 1513POPC   D2A23080   2.978  16.116   8.252
 1513POPC   C3A23081   2.845  15.878   7.873
 1513POPC   C4A23082   3.036  15.940   7.449
 1513POPC   C1B23083   2.455  15.970   8.635
 1513POPC   C2B23084   2.463  16.122   8.211
 1513POPC   C3B23085   2.420  16.212   7.778
 1513POPC   C4B23086   2.521  15.954   7.438
 1514POPC   NC323087  38.231  43.531   9.329
 1514POPC   PO423088  37.696  43.961   9.519
 1514POPC   GL123089  37.622  44.161   9.131
 1514POPC   GL223090  37.254  44.101   9.125
 1514POPC   C1A23091  37.761  44.077   8.743
 1514POPC   D2A23092  37.880  44.217   8.353
 1514POPC   C3A23093  37.773  43.857   8.115
 1514POPC   C4A23094  37.926  43.830   7.716
 1514POPC   C1B23095  37.288  44.293   8.731
 1514POPC   C2B23096  37.371  44.160   8.304
 1514POPC   C3B23097  37.464  44.125   7.845
 1514POPC   C4B23098  37.458  43.833   7.495
 1515POPC   NC323099  29.602  28.769   9.531
 1515POPC   PO423100  30.036  29.289   9.525
 1515POPC   GL123101  29.868  29.045   9.196
 1515POPC   GL223102  30.122  28.894   9.057
 1515POPC   C1A23103  29.657  28.870   8.809
 1515POPC   D2A23104  29.406  28.853   8.390
 1515POPC   C3A23105  29.651  28.846   7.968
 1515POPC   C4A23106  29.772  29.105   7.595
 1515POPC   C1B23107  30.032  29.211   8.735
 1515POPC   C2B23108  30.193  29.370   8.371
 1515POPC   C3B23109  30.078  29.148   8.031
 1515POPC   C4B23110  30.282  29.029   7.683
 1516POPC   NC323111   0.729  11.753   9.423
 1516POPC   PO423112   0.221  12.260   9.479
 1516POPC   GL123113   0.468  12.117   9.160
 1516POPC   GL223114   0.294  11.833   9.132
 1516POPC   C1A23115   0.615  12.200   8.761
 1516POPC   D2A23116   0.341  12.466   8.511
 1516POPC   C3A23117   0.487  12.467   8.129
 1516POPC   C4A23118   0.496  12.297   7.715
 1516POPC   C1B23119   0.561  11.668   8.797
 1516POPC   C2B23120   0.754  11.801   8.431
 1516POPC   C3B23121   0.556  11.934   8.064
 1516POPC   C4B23122   0.172  11.875   7.817
 1517POPC   NC323123  11.792  40.652   9.504
 1517POPC   PO423124  12.359  40.910   9.197
 1517POPC   GL123125  12.054  40.701   9.049
 1517POPC   GL223126  11.796  40.911   9.044
 1517POPC   C1A23127  12.038  40.760   8.602
 1517POPC   D2A23128  12.033  40.729   8.177
 1517POPC   C3A23129  12.246  40.978   7.883
 1517POPC   C4A23130  12.364  40.857   7.463
 1517POPC   C1B23131  11.581  41.016   8.660
 1517POPC   C2B23132  11.597  41.048   8.205
 1517POPC   C3B23133  11.740  40.925   7.812
 1517POPC   C4B23134  11.846  41.181   7.496
 1518POPC   NC323135   9.791   4.820   9.550
 1518POPC   PO423136   9.733   5.479   9.380
 1518POPC   GL123137   9.998   5.292   9.090
 1518POPC   GL223138   9.916   4.913   9.064
 1518POPC   C1A23139   9.875   5.269   8.676
 1518POPC   D2A23140   9.779   4.888   8.508
 1518POPC   C3A23141   9.806   4.876   8.044
 1518POPC   C4A23142   9.884   5.284   7.874
 1518POPC   C1B23143   9.505   5.027   8.940
 1518POPC   C2B23144   9.339   5.160   8.547
 1518POPC   C3B23145   9.368   5.111   8.099
 1518POPC   C4B23146   9.411   5.305   7.680
 1519POPC   NC323147  33.128  34.943   9.478
 1519POPC   PO423148  33.214  34.302   9.369
 1519POPC   GL123149  32.903  34.581   9.180
 1519POPC   GL223150  33.103  34.739   9.024
 1519POPC   C1A23151  32.681  34.695   8.785
 1519POPC   D2A23152  33.008  34.724   8.467
 1519POPC   C3A23153  32.849  34.701   8.064
 1519POPC   C4A23154  32.696  34.546   7.722
 1519POPC   C1B23155  33.181  35.078   8.803
 1519POPC   C2B23156  33.373  35.112   8.420
 1519POPC   C3B23157  33.346  34.822   8.077
 1519POPC   C4B23158  33.169  34.756   7.648
 1520POPC   NC323159  44.316   7.778   9.433
 1520POPC   PO423160  44.512   8.369   9.452
 1520POPC   GL123161  44.637   8.123   9.083
 1520POPC   GL223162  44.695   8.498   8.984
 1520POPC   C1A23163  44.689   7.772   8.760
 1520POPC   D2A23164  44.746   7.501   8.362
 1520POPC   C3A23165  44.638   7.706   7.978
 1520POPC   C4A23166  44.494   8.110   7.848
 1520POPC   C1B23167  44.878   8.263   8.670
 1520POPC   C2B23168  44.736   8.069   8.329
 1520POPC   C3B23169  44.971   8.124   8.003
 1520POPC   C4B23170   0.000   8.404   7.677
 1521POPC   NC323171  34.833   6.890   9.458
 1521POPC   PO423172  34.531   7.446   9.651
 1521POPC   GL123173  34.591   7.450   9.197
 1521POPC   GL223174  34.886   7.599   9.032
 1521POPC   C1A23175  34.410   7.548   8.779
 1521POPC   D2A23176  34.331   7.357   8.356
 1521POPC   C3A23177  34.348   7.649   7.976
 1521POPC   C4A23178  34.649   7.701   7.630
 1521POPC   C1B23179  34.829   7.250   8.760
 1521POPC   C2B23180  34.971   7.247   8.314
 1521POPC   C3B23181  34.698   7.299   7.939
 1521POPC   C4B23182  34.724   7.219   7.463
 1522POPC   NC323183  18.142  18.308   9.599
 1522POPC   PO423184  18.045  18.964   9.666
 1522POPC   GL123185  18.112  19.211   9.268
 1522POPC   GL223186  18.476  19.261   9.196
 1522POPC   C1A23187  17.999  19.153   8.800
 1522POPC   D2A23188  18.166  19.045   8.377
 1522POPC   C3A23189  17.974  19.096   7.953
 1522POPC   C4A23190  18.163  19.157   7.543
 1522POPC   C1B23191  18.531  19.253   8.748
 1522POPC   C2B23192  18.523  19.417   8.321
 1522POPC   C3B23193  18.497  19.141   7.968
 1522POPC   C4B23194  18.668  19.095   7.552
 1523POPC   NC323195  39.607  18.844   9.214
 1523POPC   PO423196  39.478  18.279   9.580
 1523POPC   GL123197  39.827  18.285   9.153
 1523POPC   GL223198  39.799  18.507   8.893
 1523POPC   C1A23199  40.050  18.054   8.767
 1523POPC   D2A23200  40.136  17.823   8.342
 1523POPC   C3A23201  40.303  18.006   7.927
 1523POPC   C4A23202  40.340  18.449   7.827
 1523POPC   C1B23203  40.196  18.548   8.689
 1523POPC   C2B23204  40.158  18.334   8.303
 1523POPC   C3B23205  39.830  18.325   7.978
 1523POPC   C4B23206  39.458  18.592   7.810
 1524POPC   NC323207  40.443  38.973   9.637
 1524POPC   PO423208  41.015  38.893   9.474
 1524POPC   GL123209  40.764  39.157   9.192
 1524POPC   GL223210  40.853  39.505   9.136
 1524POPC   C1A23211  40.587  39.256   8.765
 1524POPC   D2A23212  40.758  39.266   8.323
 1524POPC   C3A23213  40.557  39.215   7.908
 1524POPC   C4A23214  40.368  39.267   7.506
 1524POPC   C1B23215  40.968  39.648   8.724
 1524POPC   C2B23216  40.899  39.772   8.304
 1524POPC   C3B23217  40.902  39.597   7.909
 1524POPC   C4B23218  41.213  39.641   7.572
 1525POPC   NC323219   4.044  44.795   9.881
 1525POPC   PO423220   4.053  44.437   9.341
 1525POPC   GL123221   4.312  44.549   9.022
 1525POPC   GL223222   4.071  44.585   8.828
 1525POPC   C1A23223   4.557  44.450   8.698
 1525POPC   D2A23224   4.326  44.571   8.328
 1525POPC   C3A23225   4.533  44.574   7.927
 1525POPC   C4A23226   4.459  44.663   7.503
 1525POPC   C1B23227   3.844  44.381   8.510
 1525POPC   C2B23228   3.819  44.673   8.204
 1525POPC   C3B23229   4.053  44.685   7.842
 1525POPC   C4B23230   3.854  44.337   7.669
 1526POPC   NC323231  30.027  11.157   9.767
 1526POPC   PO423232  29.649  10.996   9.297
 1526POPC   GL123233  30.029  11.256   9.150
 1526POPC   GL223234  30.013  11.643   9.037
 1526POPC   C1A23235  30.291  11.352   8.754
 1526POPC   D2A23236  30.155  11.476   8.344
 1526POPC   C3A23237  30.228  11.118   8.058
 1526POPC   C4A23238  30.045  11.039   7.654
 1526POPC   C1B23239  29.768  11.381   8.742
 1526POPC   C2B23240  29.854  11.086   8.441
 1526POPC   C3B23241  29.754  11.273   8.051
 1526POPC   C4B23242  29.543  11.053   7.802
 1527POPC   NC323243  18.132   6.602   9.826
 1527POPC   PO423244  18.665   6.517   9.521
 1527POPC   GL123245  18.462   6.743   9.157
 1527POPC   GL223246  18.133   6.877   9.234
 1527POPC   C1A23247  18.605   6.819   8.733
 1527POPC   D2A23248  18.511   6.884   8.277
 1527POPC   C3A23249  18.447   6.654   7.869
 1527POPC   C4A23250  18.404   6.821   7.420
 1527POPC   C1B23251  18.094   6.910   8.745
 1527POPC   C2B23252  18.002   6.916   8.257
 1527POPC   C3B23253  17.954   6.775   7.783
 1527POPC   C4B23254  17.993   6.504   7.384
 1528POPC   NC323255  42.186  38.746   9.575
 1528POPC   PO423256  42.595  38.254   9.617
 1528POPC   GL123257  42.496  38.455   9.207
 1528POPC   GL223258  42.683  38.792   9.159
 1528POPC   C1A23259  42.280  38.306   8.798
 1528POPC   D2A23260  42.218  38.101   8.430
 1528POPC   C3A23261  42.205  38.321   8.077
 1528POPC   C4A23262  42.179  38.439   7.677
 1528POPC   C1B23263  42.343  38.811   8.828
 1528POPC   C2B23264  42.134  38.713   8.406
 1528POPC   C3B23265  42.358  38.809   7.964
 1528POPC   C4B23266  42.476  38.767   7.451
 1529POPC   NC323267  27.805  17.182   9.656
 1529POPC   PO423268  27.249  17.118   9.168
 1529POPC   GL123269  27.470  17.443   9.020
 1529POPC   GL223270  27.737  17.456   9.237
 1529POPC   C1A23271  27.633  17.510   8.591
 1529POPC   D2A23272  27.808  17.635   8.200
 1529POPC   C3A23273  27.537  17.531   7.847
 1529POPC   C4A23274  27.397  17.099   7.727
 1529POPC   C1B23275  27.888  17.185   8.875
 1529POPC   C2B23276  27.787  17.019   8.460
 1529POPC   C3B23277  27.822  17.146   8.021
 1529POPC   C4B23278  27.938  17.215   7.603
 1530POPC   NC323279  32.321   4.183   9.517
 1530POPC   PO423280  32.012   4.708   9.461
 1530POPC   GL123281  32.426   4.548   9.176
 1530POPC   GL223282  32.769   4.758   9.203
 1530POPC   C1A23283  32.443   4.164   8.855
 1530POPC   D2A23284  32.363   3.878   8.465
 1530POPC   C3A23285  32.305   4.132   8.051
 1530POPC   C4A23286  32.163   4.451   7.745
 1530POPC   C1B23287  32.605   4.838   8.774
 1530POPC   C2B23288  32.574   4.755   8.320
 1530POPC   C3B23289  32.470   4.856   7.883
 1530POPC   C4B23290  32.592   4.656   7.475
 1531POPC   NC323291  15.784  19.485   9.488
 1531POPC   PO423292  16.183  18.886   9.530
 1531POPC   GL123293  15.908  19.075   9.199
 1531POPC   GL223294  15.979  19.403   9.031
 1531POPC   C1A23295  15.867  18.921   8.801
 1531POPC   D2A23296  16.127  19.008   8.467
 1531POPC   C3A23297  15.948  18.886   8.099
 1531POPC   C4A23298  15.966  19.206   7.835
 1531POPC   C1B23299  15.591  19.347   8.816
 1531POPC   C2B23300  15.704  19.281   8.392
 1531POPC   C3B23301  15.529  19.411   8.002
 1531POPC   C4B23302  15.564  19.379   7.550
 1532POPC   NC323303  36.008  42.348   9.625
 1532POPC   PO423304  35.385  42.401   9.648
 1532POPC   GL123305  35.679  42.386   9.232
 1532POPC   GL223306  35.659  42.665   9.016
 1532POPC   C1A23307  35.987  42.327   8.846
 1532POPC   D2A23308  36.158  42.413   8.407
 1532POPC   C3A23309  36.155  42.159   8.001
 1532POPC   C4A23310  36.331  42.251   7.557
 1532POPC   C1B23311  35.606  42.590   8.614
 1532POPC   C2B23312  35.757  42.697   8.252
 1532POPC   C3B23313  36.030  42.634   7.903
 1532POPC   C4B23314  35.980  42.611   7.458
 1533POPC   NC323315  38.778  16.606   9.728
 1533POPC   PO423316  39.471  16.717   9.675
 1533POPC   GL123317  39.364  16.673   9.230
 1533POPC   GL223318  39.583  16.951   9.165
 1533POPC   C1A23319  39.203  16.798   8.819
 1533POPC   D2A23320  39.361  16.756   8.402
 1533POPC   C3A23321  39.127  16.609   8.054
 1533POPC   C4A23322  39.206  16.720   7.616
 1533POPC   C1B23323  39.599  17.112   8.763
 1533POPC   C2B23324  39.781  17.056   8.374
 1533POPC   C3B23325  39.582  17.071   7.972
 1533POPC   C4B23326  39.312  17.204   7.654
 1534POPC   NC323327  38.021  19.393   9.852
 1534POPC   PO423328  38.414  18.936   9.529
 1534POPC   GL123329  38.395  19.073   9.104
 1534POPC   GL223330  38.126  19.267   8.997
 1534POPC   C1A23331  38.661  18.998   8.752
 1534POPC   D2A23332  38.826  18.814   8.384
 1534POPC   C3A23333  38.642  18.918   7.987
 1534POPC   C4A23334  38.538  18.741   7.604
 1534POPC   C1B23335  38.363  19.404   8.668
 1534POPC   C2B23336  38.265  19.288   8.273
 1534POPC   C3B23337  38.357  19.387   7.883
 1534POPC   C4B23338  38.818  19.358   7.788
 1535POPC   NC323339  21.432   4.880   9.352
 1535POPC   PO423340  20.947   5.407   9.344
 1535POPC   GL123341  21.301   5.314   9.086
 1535POPC   GL223342  21.626   5.404   9.239
 1535POPC   C1A23343  21.273   5.174   8.644
 1535POPC   D2A23344  21.210   5.292   8.214
 1535POPC   C3A23345  21.371   5.045   7.851
 1535POPC   C4A23346  21.500   5.209   7.402
 1535POPC   C1B23347  21.753   5.320   8.795
 1535POPC   C2B23348  21.737   5.094   8.376
 1535POPC   C3B23349  21.818   4.761   8.037
 1535POPC   C4B23350  21.746   4.805   7.585
 1536POPC   NC323351   9.161  42.739   9.531
 1536POPC   PO423352   9.006  43.455   9.555
 1536POPC   GL123353   8.936  43.252   9.188
 1536POPC   GL223354   9.250  43.086   9.176
 1536POPC   C1A23355   8.979  43.254   8.741
 1536POPC   D2A23356   8.846  43.486   8.372
 1536POPC   C3A23357   9.037  43.355   7.984
 1536POPC   C4A23358   8.934  43.179   7.592
 1536POPC   C1B23359   9.376  42.902   8.816
 1536POPC   C2B23360   9.300  43.014   8.414
 1536POPC   C3B23361   9.195  42.859   8.058
 1536POPC   C4B23362   9.379  42.933   7.693
 1537POPC   NC323363  44.442  35.092   9.465
 1537POPC   PO423364   0.092  35.447   9.524
 1537POPC   GL123365  44.893  35.514   9.172
 1537POPC   GL223366  44.569  35.451   9.165
 1537POPC   C1A23367  44.999  35.530   8.769
 1537POPC   D2A23368  44.779  35.274   8.535
 1537POPC   C3A23369  44.745  35.376   8.114
 1537POPC   C4A23370  44.695  35.107   7.737
 1537POPC   C1B23371  44.503  35.635   8.809
 1537POPC   C2B23372  44.394  35.600   8.409
 1537POPC   C3B23373  44.451  35.829   8.055
 1537POPC   C4B23374  44.605  35.654   7.722
 1538POPC   NC323375   4.384  34.177   9.536
 1538POPC   PO423376   4.325  33.572   9.541
 1538POPC   GL123377   4.184  33.763   9.165
 1538POPC   GL223378   4.066  34.094   9.141
 1538POPC   C1A23379   4.304  33.640   8.770
 1538POPC   D2A23380   4.446  33.536   8.378
 1538POPC   C3A23381   4.218  33.771   8.069
 1538POPC   C4A23382   4.230  33.642   7.633
 1538POPC   C1B23383   4.458  34.128   8.866
 1538POPC   C2B23384   4.611  34.280   8.456
 1538POPC   C3B23385   4.495  34.368   8.014
 1538POPC   C4B23386   4.220  34.145   7.698
 1539POPC   NC323387  32.669  32.162  10.206
 1539POPC   PO423388  32.288  32.195   9.597
 1539POPC   GL123389  32.389  32.202   9.156
 1539POPC   GL223390  32.102  32.374   9.118
 1539POPC   C1A23391  32.427  32.301   8.686
 1539POPC   D2A23392  32.345  32.137   8.247
 1539POPC   C3A23393  32.532  32.309   7.862
 1539POPC   C4A23394  32.812  32.103   7.543
 1539POPC   C1B23395  31.927  32.362   8.730
 1539POPC   C2B23396  32.064  32.569   8.356
 1539POPC   C3B23397  32.035  32.418   7.940
 1539POPC   C4B23398  32.157  32.574   7.540
 1540POPC   NC323399  32.960   0.573   9.362
 1540POPC   PO423400  33.357   0.082   9.540
 1540POPC   GL123401  33.359   0.288   9.156
 1540POPC   GL223402  33.022   0.150   9.085
 1540POPC   C1A23403  33.269   0.394   8.709
 1540POPC   D2A23404  33.055   0.249   8.329
 1540POPC   C3A23405  33.277   0.330   7.944
 1540POPC   C4A23406  33.236   0.736   7.729
 1540POPC   C1B23407  32.730   0.353   8.762
 1540POPC   C2B23408  32.595   0.510   8.384
 1540POPC   C3B23409  32.625   0.308   8.006
 1540POPC   C4B23410  32.871   0.346   7.651
 1541POPC   NC323411  27.193  32.815   9.552
 1541POPC   PO423412  26.668  33.235   9.632
 1541POPC   GL123413  26.684  33.067   9.248
 1541POPC   GL223414  27.000  33.187   9.185
 1541POPC   C1A23415  26.499  32.973   8.838
 1541POPC   D2A23416  26.545  32.778   8.410
 1541POPC   C3A23417  26.532  32.988   8.005
 1541POPC   C4A23418  26.778  33.183   7.696
 1541POPC   C1B23419  27.002  33.034   8.758
 1541POPC   C2B23420  26.932  33.127   8.314
 1541POPC   C3B23421  27.018  32.815   7.959
 1541POPC   C4B23422  27.021  32.722   7.512
 1542POPC   NC323423  14.763  29.924   9.755
 1542POPC   PO423424  15.380  29.905   9.567
 1542POPC   GL123425  15.456  30.032   9.128
 1542POPC   GL223426  15.688  29.788   9.148
 1542POPC   C1A23427  15.218  30.091   8.739
 1542POPC   D2A23428  14.962  30.033   8.335
 1542POPC   C3A23429  15.147  30.072   7.903
 1542POPC   C4A23430  15.283  29.840   7.522
 1542POPC   C1B23431  15.475  29.591   8.829
 1542POPC   C2B23432  15.349  29.691   8.445
 1542POPC   C3B23433  15.413  29.643   8.060
 1542POPC   C4B23434  15.616  29.474   7.712
 1543POPC   NC323435  43.302   2.060   9.429
 1543POPC   PO423436  42.709   1.644   9.650
 1543POPC   GL123437  42.905   1.820   9.178
 1543POPC   GL223438  43.101   1.589   8.950
 1543POPC   C1A23439  42.688   1.835   8.771
 1543POPC   D2A23440  42.917   1.657   8.416
 1543POPC   C3A23441  42.880   1.896   8.032
 1543POPC   C4A23442  42.695   1.783   7.643
 1543POPC   C1B23443  43.181   2.009   8.753
 1543POPC   C2B23444  43.328   2.002   8.330
 1543POPC   C3B23445  43.376   1.789   7.959
 1543POPC   C4B23446  43.203   1.991   7.606
 1544POPC   NC323447  28.360   8.245   9.698
 1544POPC   PO423448  28.089   8.663   9.455
 1544POPC   GL123449  28.277   8.354   9.140
 1544POPC   GL223450  28.338   8.000   9.197
 1544POPC   C1A23451  28.367   8.219   8.699
 1544POPC   D2A23452  28.267   7.947   8.356
 1544POPC   C3A23453  28.317   8.103   7.920
 1544POPC   C4A23454  28.723   8.149   7.689
 1544POPC   C1B23455  28.373   7.689   8.821
 1544POPC   C2B23456  28.394   7.454   8.389
 1544POPC   C3B23457  28.248   7.580   7.986
 1544POPC   C4B23458  28.383   7.697   7.595
 1545POPC   NC323459   5.395  43.779   9.489
 1545POPC   PO423460   6.078  43.868   9.439
 1545POPC   GL123461   5.800  43.693   9.160
 1545POPC   GL223462   6.041  43.820   8.921
 1545POPC   C1A23463   5.595  43.699   8.767
 1545POPC   D2A23464   5.867  43.834   8.417
 1545POPC   C3A23465   5.574  43.811   8.058
 1545POPC   C4A23466   5.656  43.729   7.630
 1545POPC   C1B23467   6.277  44.092   8.649
 1545POPC   C2B23468   6.371  43.916   8.238
 1545POPC   C3B23469   6.032  43.970   7.932
 1545POPC   C4B23470   5.838  44.238   7.622
 1546POPC   NC323471  30.556  24.375   9.445
 1546POPC   PO423472  31.052  24.895   9.352
 1546POPC   GL123473  30.895  24.567   9.131
 1546POPC   GL223474  30.611  24.689   9.048
 1546POPC   C1A23475  30.830  24.258   8.749
 1546POPC   D2A23476  30.782  24.002   8.324
 1546POPC   C3A23477  30.513  24.140   7.938
 1546POPC   C4A23478  30.720  24.160   7.483
 1546POPC   C1B23479  30.350  24.424   8.826
 1546POPC   C2B23480  30.453  24.393   8.405
 1546POPC   C3B23481  30.595  24.621   8.054
 1546POPC   C4B23482  30.510  24.588   7.619
 1547POPC   NC323483  22.882   6.991   9.534
 1547POPC   PO423484  23.212   6.418   9.525
 1547POPC   GL123485  23.060   6.625   9.182
 1547POPC   GL223486  22.697   6.583   9.245
 1547POPC   C1A23487  23.036   6.417   8.793
 1547POPC   D2A23488  23.298   6.433   8.437
 1547POPC   C3A23489  23.133   6.414   8.004
 1547POPC   C4A23490  22.951   6.757   7.754
 1547POPC   C1B23491  22.638   6.767   8.824
 1547POPC   C2B23492  22.785   6.650   8.404
 1547POPC   C3B23493  22.623   6.495   8.040
 1547POPC   C4B23494  22.448   6.691   7.689
 1548POPC   NC323495  43.481  23.425   9.362
 1548POPC   PO423496  44.014  23.701   9.584
 1548POPC   GL123497  44.080  23.727   9.193
 1548POPC   GL223498  44.147  23.389   9.165
 1548POPC   C1A23499  43.893  23.928   8.854
 1548POPC   D2A23500  43.572  23.824   8.525
 1548POPC   C3A23501  43.723  23.743   8.084
 1548POPC   C4A23502  43.544  23.849   7.695
 1548POPC   C1B23503  43.908  23.415   8.803
 1548POPC   C2B23504  44.055  23.637   8.452
 1548POPC   C3B23505  44.195  23.530   8.048
 1548POPC   C4B23506  44.160  23.607   7.632
 1549POPC   NC323507  14.515  39.029   9.463
 1549POPC   PO423508  14.212  39.636   9.519
 1549POPC   GL123509  14.332  39.402   9.153
 1549POPC   GL223510  14.151  39.118   9.066
 1549POPC   C1A23511  14.516  39.439   8.734
 1549POPC   D2A23512  14.548  39.512   8.292
 1549POPC   C3A23513  14.197  39.278   8.145
 1549POPC   C4A23514  14.197  39.201   7.728
 1549POPC   C1B23515  14.477  38.933   8.815
 1549POPC   C2B23516  14.600  39.016   8.397
 1549POPC   C3B23517  14.458  38.856   8.023
 1549POPC   C4B23518  14.692  38.990   7.713
 1550POPC   NC323519   2.862  35.045   9.459
 1550POPC   PO423520   2.681  35.654   9.451
 1550POPC   GL123521   2.762  35.394   9.083
 1550POPC   GL223522   2.458  35.199   9.132
 1550POPC   C1A23523   2.871  35.482   8.635
 1550POPC   D2A23524   2.687  35.477   8.202
 1550POPC   C3A23525   2.825  35.300   7.811
 1550POPC   C4A23526   2.822  35.528   7.438
 1550POPC   C1B23527   2.382  35.444   8.731
 1550POPC   C2B23528   2.188  35.320   8.319
 1550POPC   C3B23529   2.318  35.312   7.870
 1550POPC   C4B23530   2.353  35.197   7.376
 1551POPC   NC323531  25.459  24.036   9.446
 1551POPC   PO423532  25.209  23.440   9.654
 1551POPC   GL123533  25.277  23.572   9.232
 1551POPC   GL223534  25.601  23.522   9.150
 1551POPC   C1A23535  25.279  23.452   8.778
 1551POPC   D2A23536  25.200  23.352   8.318
 1551POPC   C3A23537  24.996  23.685   8.131
 1551POPC   C4A23538  24.969  23.855   7.717
 1551POPC   C1B23539  25.770  23.705   8.787
 1551POPC   C2B23540  25.557  23.778   8.383
 1551POPC   C3B23541  25.497  23.719   7.942
 1551POPC   C4B23542  25.458  24.011   7.601
 1552POPC   NC323543  29.515  12.064   9.670
 1552POPC   PO423544  29.111  11.719   9.302
 1552POPC   GL123545  28.979  11.959   9.017
 1552POPC   GL223546  29.042  12.254   9.158
 1552POPC   C1A23547  28.952  11.984   8.628
 1552POPC   D2A23548  28.711  11.823   8.381
 1552POPC   C3A23549  28.909  11.986   8.042
 1552POPC   C4A23550  28.984  12.054   7.645
 1552POPC   C1B23551  28.972  12.487   8.766
 1552POPC   C2B23552  29.025  12.426   8.314
 1552POPC   C3B23553  29.270  12.389   7.936
 1552POPC   C4B23554  29.067  12.576   7.577
 1553POPC   NC323555  33.932   3.619   9.579
 1553POPC   PO423556  33.605   3.975   9.292
 1553POPC   GL123557  33.604   3.744   8.954
 1553POPC   GL223558  33.662   3.410   9.036
 1553POPC   C1A23559  33.596   3.760   8.546
 1553POPC   D2A23560  33.853   3.564   8.266
 1553POPC   C3A23561  33.540   3.409   7.987
 1553POPC   C4A23562  33.412   3.616   7.620
 1553POPC   C1B23563  33.622   3.228   8.603
 1553POPC   C2B23564  33.828   3.052   8.229
 1553POPC   C3B23565  33.992   3.280   7.823
 1553POPC   C4B23566  33.858   3.488   7.429
 1554POPC   NC323567  20.544   5.252   9.524
 1554POPC   PO423568  20.659   4.548   9.580
 1554POPC   GL123569  20.634   4.845   9.211
 1554POPC   GL223570  20.315   4.997   9.120
 1554POPC   C1A23571  20.715   5.025   8.775
 1554POPC   D2A23572  20.899   4.870   8.374
 1554POPC   C3A23573  20.805   5.070   7.969
 1554POPC   C4A23574  20.545   4.925   7.621
 1554POPC   C1B23575  20.192   5.227   8.741
 1554POPC   C2B23576  20.429   5.229   8.349
 1554POPC   C3B23577  20.328   5.298   7.926
 1554POPC   C4B23578  20.164   5.518   7.544
 1555POPC   NC323579  27.906  41.720   9.463
 1555POPC   PO423580  27.210  41.771   9.507
 1555POPC   GL123581  27.471  41.713   9.154
 1555POPC   GL223582  27.367  41.394   9.120
 1555POPC   C1A23583  27.795  41.603   8.827
 1555POPC   D2A23584  27.796  41.371   8.439
 1555POPC   C3A23585  27.810  41.526   8.030
 1555POPC   C4A23586  27.568  41.731   7.703
 1555POPC   C1B23587  27.356  41.406   8.700
 1555POPC   C2B23588  27.253  41.226   8.357
 1555POPC   C3B23589  27.344  41.346   7.940
 1555POPC   C4B23590  27.295  41.300   7.498
 1556POPC   NC323591   0.348  35.057   9.632
 1556POPC   PO423592   0.496  35.667   9.809
 1556POPC   GL123593   0.537  35.402   9.307
 1556POPC   GL223594   0.264  35.156   9.158
 1556POPC   C1A23595   0.667  35.240   8.873
 1556POPC   D2A23596   0.755  35.077   8.457
 1556POPC   C3A23597   0.694  35.300   8.086
 1556POPC   C4A23598   0.565  35.259   7.660
 1556POPC   C1B23599   0.182  35.064   8.782
 1556POPC   C2B23600   0.271  35.253   8.403
 1556POPC   C3B23601   0.187  35.182   7.993
 1556POPC   C4B23602   0.104  35.497   7.707
 1557POPC   NC323603   4.894   6.373   9.422
 1557POPC   PO423604   4.905   5.639   9.425
 1557POPC   GL123605   5.002   5.989   9.102
 1557POPC   GL223606   5.322   6.144   9.108
 1557POPC   C1A23607   5.115   6.121   8.656
 1557POPC   D2A23608   5.026   5.733   8.456
 1557POPC   C3A23609   4.869   5.790   8.073
 1557POPC   C4A23610   5.028   5.712   7.730
 1557POPC   C1B23611   5.395   5.748   8.837
 1557POPC   C2B23612   5.532   5.824   8.405
 1557POPC   C3B23613   5.285   6.072   8.132
 1557POPC   C4B23614   5.311   6.123   7.701
 1558POPC   NC323615  18.926  44.238   9.424
 1558POPC   PO423616  19.477  44.099   9.773
 1558POPC   GL123617  19.389  43.938   9.313
 1558POPC   GL223618  19.055  43.766   9.261
 1558POPC   C1A23619  19.402  43.780   8.869
 1558POPC   D2A23620  19.268  43.944   8.446
 1558POPC   C3A23621  19.196  43.729   8.067
 1558POPC   C4A23622  19.363  43.750   7.662
 1558POPC   C1B23623  18.894  43.827   8.831
 1558POPC   C2B23624  18.872  43.567   8.460
 1558POPC   C3B23625  18.719  43.482   8.060
 1558POPC   C4B23626  18.847  43.690   7.689
 1559POPC   NC323627  30.148  14.052   9.184
 1559POPC   PO423628  30.563  14.495   9.256
 1559POPC   GL123629  30.766  14.487   8.950
 1559POPC   GL223630  31.053  14.579   9.109
 1559POPC   C1A23631  30.706  14.656   8.558
 1559POPC   D2A23632  30.764  14.680   8.111
 1559POPC   C3A23633  30.450  14.623   7.783
 1559POPC   C4A23634  30.501  14.700   7.316
 1559POPC   C1B23635  31.157  14.235   8.792
 1559POPC   C2B23636  30.962  14.192   8.395
 1559POPC   C3B23637  30.737  14.168   7.991
 1559POPC   C4B23638  30.869  14.394   7.637
 1560POPC   NC323639  38.307   0.028   9.755
 1560POPC   PO423640  38.541  44.399   9.827
 1560POPC   GL123641  38.422  44.569   9.372
 1560POPC   GL223642  38.105  44.467   9.187
 1560POPC   C1A23643  38.443  44.758   8.934
 1560POPC   D2A23644  38.719  44.781   8.536
 1560POPC   C3A23645  38.601  44.998   8.141
 1560POPC   C4A23646  38.581  44.754   7.730
 1560POPC   C1B23647  38.189  44.351   8.768
 1560POPC   C2B23648  38.185  44.675   8.452
 1560POPC   C3B23649  38.149  44.759   8.016
 1560POPC   C4B23650  38.178  44.372   7.749
 1561POPC   NC323651  39.061   7.552   9.494
 1561POPC   PO423652  39.266   6.951   9.710
 1561POPC   GL123653  39.226   7.113   9.253
 1561POPC   GL223654  38.959   7.313   9.040
 1561POPC   C1A23655  39.411   7.240   8.828
 1561POPC   D2A23656  39.411   7.432   8.402
 1561POPC   C3A23657  39.389   7.181   8.032
 1561POPC   C4A23658  39.548   7.450   7.722
 1561POPC   C1B23659  38.939   7.357   8.569
 1561POPC   C2B23660  38.957   7.478   8.092
 1561POPC   C3B23661  39.093   7.757   7.721
 1561POPC   C4B23662  39.029   7.697   7.246
 1562POPC   NC323663  42.547   9.089   9.475
 1562POPC   PO423664  42.024   8.666   9.384
 1562POPC   GL123665  42.329   8.781   9.091
 1562POPC   GL223666  42.279   9.106   9.019
 1562POPC   C1A23667  42.271   8.806   8.614
 1562POPC   D2A23668  42.132   9.016   8.212
 1562POPC   C3A23669  42.251   8.790   7.846
 1562POPC   C4A23670  41.992   8.517   7.560
 1562POPC   C1B23671  42.658   9.116   8.742
 1562POPC   C2B23672  42.623   9.062   8.327
 1562POPC   C3B23673  42.764   9.152   7.938
 1562POPC   C4B23674  42.569   9.124   7.563
 1563POPC   NC323675  43.812  24.770   9.526
 1563POPC   PO423676  43.408  25.318   9.603
 1563POPC   GL123677  43.673  25.327   9.151
 1563POPC   GL223678  43.959  25.514   9.060
 1563POPC   C1A23679  43.774  25.217   8.683
 1563POPC   D2A23680  44.147  25.302   8.429
 1563POPC   C3A23681  44.129  25.154   7.988
 1563POPC   C4A23682  43.847  25.198   7.628
 1563POPC   C1B23683  43.656  25.707   8.773
 1563POPC   C2B23684  43.495  25.715   8.380
 1563POPC   C3B23685  43.656  25.464   8.063
 1563POPC   C4B23686  43.551  25.652   7.698
 1564POPC   NC323687  20.553  16.303  10.098
 1564POPC   PO423688  20.654  15.957   9.634
 1564POPC   GL123689  20.800  15.917   9.122
 1564POPC   GL223690  21.111  16.080   9.025
 1564POPC   C1A23691  20.913  15.764   8.653
 1564POPC   D2A23692  20.859  15.914   8.193
 1564POPC   C3A23693  20.632  15.691   7.840
 1564POPC   C4A23694  20.640  15.271   7.660
 1564POPC   C1B23695  20.810  16.268   8.725
 1564POPC   C2B23696  20.540  16.291   8.354
 1564POPC   C3B23697  20.406  16.169   7.929
 1564POPC   C4B23698  20.504  16.067   7.511
 1565POPC   NC323699   9.457  41.842   9.858
 1565POPC   PO423700   9.924  41.555   9.540
 1565POPC   GL123701   9.662  41.532   9.158
 1565POPC   GL223702   9.397  41.806   9.139
 1565POPC   C1A23703   9.810  41.389   8.759
 1565POPC   D2A23704   9.918  41.557   8.364
 1565POPC   C3A23705   9.729  41.492   7.962
 1565POPC   C4A23706   9.838  41.648   7.545
 1565POPC   C1B23707   9.582  41.837   8.712
 1565POPC   C2B23708   9.531  41.901   8.275
 1565POPC   C3B23709   9.655  42.020   7.876
 1565POPC   C4B23710   9.486  42.036   7.478
 1566POPC   NC323711  39.545  20.713   9.433
 1566POPC   PO423712  39.026  20.326   9.439
 1566POPC   GL123713  39.156  20.621   9.102
 1566POPC   GL223714  39.482  20.655   8.929
 1566POPC   C1A23715  39.009  20.848   8.729
 1566POPC   D2A23716  39.055  21.009   8.281
 1566POPC   C3A23717  38.999  20.735   7.903
 1566POPC   C4A23718  39.052  20.605   7.432
 1566POPC   C1B23719  39.246  20.365   8.673
 1566POPC   C2B23720  39.148  20.242   8.226
 1566POPC   C3B23721  39.215  20.245   7.789
 1566POPC   C4B23722  39.524  20.426   7.534
 1567POPC   NC323723  15.767  37.476   9.368
 1567POPC   PO423724  16.218  37.979   9.516
 1567POPC   GL123725  16.100  37.791   9.136
 1567POPC   GL223726  15.727  37.857   9.038
 1567POPC   C1A23727  16.086  37.643   8.726
 1567POPC   D2A23728  16.285  37.478   8.364
 1567POPC   C3A23729  16.083  37.582   7.966
 1567POPC   C4A23730  15.698  37.447   7.806
 1567POPC   C1B23731  15.593  37.506   8.726
 1567POPC   C2B23732  15.666  37.620   8.304
 1567POPC   C3B23733  15.677  37.940   7.985
 1567POPC   C4B23734  15.759  37.885   7.546
 1568POPC   NC323735  19.102  27.206   9.500
 1568POPC   PO423736  18.863  27.938   9.499
 1568POPC   GL123737  19.034  27.648   9.219
 1568POPC   GL223738  18.836  27.386   9.078
 1568POPC   C1A23739  19.202  27.741   8.833
 1568POPC   D2A23740  19.444  27.651   8.485
 1568POPC   C3A23741  19.212  27.726   8.108
 1568POPC   C4A23742  19.112  27.573   7.709
 1568POPC   C1B23743  18.903  27.370   8.613
 1568POPC   C2B23744  18.824  27.153   8.221
 1568POPC   C3B23745  18.778  27.215   7.774
 1568POPC   C4B23746  18.961  27.172   7.346
 1569POPC   NC323747  30.268  29.719   9.519
 1569POPC   PO423748  29.657  30.086   9.483
 1569POPC   GL123749  29.883  29.878   9.132
 1569POPC   GL223750  30.062  29.547   9.091
 1569POPC   C1A23751  30.050  29.889   8.699
 1569POPC   D2A23752  29.976  29.847   8.269
 1569POPC   C3A23753  29.939  30.165   7.958
 1569POPC   C4A23754  29.898  29.976   7.539
 1569POPC   C1B23755  30.426  29.548   8.792
 1569POPC   C2B23756  30.506  29.809   8.442
 1569POPC   C3B23757  30.438  29.701   8.033
 1569POPC   C4B23758  30.155  29.555   7.735
 1570POPC   NC323759  42.023  27.222   9.561
 1570POPC   PO423760  42.466  27.668   9.556
 1570POPC   GL123761  42.419  27.629   9.143
 1570POPC   GL223762  42.184  27.344   9.093
 1570POPC   C1A23763  42.573  27.830   8.780
 1570POPC   D2A23764  42.368  28.122   8.487
 1570POPC   C3A23765  42.399  27.928   8.105
 1570POPC   C4A23766  42.122  27.657   7.886
 1570POPC   C1B23767  42.445  27.297   8.745
 1570POPC   C2B23768  42.343  27.456   8.345
 1570POPC   C3B23769  42.352  27.235   7.973
 1570POPC   C4B23770  42.539  27.247   7.540
 1571POPC   NC323771  44.420  23.136   9.549
 1571POPC   PO423772   0.086  22.876   9.495
 1571POPC   GL123773  44.760  23.003   9.176
 1571POPC   GL223774  44.598  22.705   9.192
 1571POPC   C1A23775  44.711  23.281   8.800
 1571POPC   D2A23776  44.493  23.378   8.438
 1571POPC   C3A23777  44.646  23.259   8.050
 1571POPC   C4A23778  44.923  23.150   7.724
 1571POPC   C1B23779  44.623  22.645   8.740
 1571POPC   C2B23780  44.538  22.862   8.346
 1571POPC   C3B23781  44.542  22.790   7.878
 1571POPC   C4B23782  44.729  22.740   7.489
 1572POPC   NC323783  26.619   2.231   9.908
 1572POPC   PO423784  26.545   2.891   9.623
 1572POPC   GL123785  26.736   2.639   9.274
 1572POPC   GL223786  26.473   2.726   9.067
 1572POPC   C1A23787  27.020   2.768   8.924
 1572POPC   D2A23788  27.071   2.702   8.471
 1572POPC   C3A23789  26.976   2.878   8.079
 1572POPC   C4A23790  27.030   2.816   7.653
 1572POPC   C1B23791  26.543   2.855   8.671
 1572POPC   C2B23792  26.591   2.626   8.307
 1572POPC   C3B23793  26.483   2.672   7.892
 1572POPC   C4B23794  26.636   2.530   7.504
 1573POPC   NC323795  38.471  15.735   9.586
 1573POPC   PO423796  38.565  15.010   9.570
 1573POPC   GL123797  38.447  15.314   9.243
 1573POPC   GL223798  38.102  15.415   9.162
 1573POPC   C1A23799  38.507  15.451   8.807
 1573POPC   D2A23800  38.714  15.470   8.382
 1573POPC   C3A23801  38.620  15.103   8.137
 1573POPC   C4A23802  38.403  15.237   7.750
 1573POPC   C1B23803  38.163  15.017   8.881
 1573POPC   C2B23804  38.307  14.880   8.472
 1573POPC   C3B23805  38.177  14.863   8.036
 1573POPC   C4B23806  38.337  14.760   7.641
 1574POPC   NC323807  43.072  30.312   9.490
 1574POPC   PO423808  43.379  29.657   9.503
 1574POPC   GL123809  43.183  29.910   9.220
 1574POPC   GL223810  43.421  30.217   9.100
 1574POPC   C1A23811  43.009  30.014   8.849
 1574POPC   D2A23812  42.857  30.143   8.465
 1574POPC   C3A23813  43.077  30.006   8.136
 1574POPC   C4A23814  42.952  29.925   7.758
 1574POPC   C1B23815  43.523  29.839   8.859
 1574POPC   C2B23816  43.308  29.694   8.528
 1574POPC   C3B23817  43.345  29.566   8.116
 1574POPC   C4B23818  43.425  29.771   7.700
 1575POPC   NC323819  24.516  16.769   9.549
 1575POPC   PO423820  24.291  17.091   9.012
 1575POPC   GL123821  24.526  16.672   9.023
 1575POPC   GL223822  24.343  16.412   9.181
 1575POPC   C1A23823  24.702  16.397   8.704
 1575POPC   D2A23824  24.955  16.470   8.340
 1575POPC   C3A23825  24.686  16.519   7.962
 1575POPC   C4A23826  24.493  16.599   7.531
 1575POPC   C1B23827  24.234  16.211   8.752
 1575POPC   C2B23828  24.292  16.260   8.275
 1575POPC   C3B23829  24.128  16.412   7.864
 1575POPC   C4B23830  24.083  16.330   7.390
 1576POPC   NC323831  11.526  26.873   9.530
 1576POPC   PO423832  11.232  26.345   9.477
 1576POPC   GL123833  11.195  26.646   9.121
 1576POPC   GL223834  11.258  27.034   9.115
 1576POPC   C1A23835  11.301  26.738   8.679
 1576POPC   D2A23836  11.417  26.883   8.246
 1576POPC   C3A23837  11.271  26.642   7.853
 1576POPC   C4A23838  10.933  26.556   7.520
 1576POPC   C1B23839  11.033  27.232   8.759
 1576POPC   C2B23840  11.060  27.380   8.296
 1576POPC   C3B23841  11.149  27.130   7.902
 1576POPC   C4B23842  11.604  27.040   7.727
 1577POPC   NC323843  20.740  28.031   9.754
 1577POPC   PO423844  20.436  27.548   9.542
 1577POPC   GL123845  20.541  27.320   9.165
 1577POPC   GL223846  20.243  27.427   9.029
 1577POPC   C1A23847  20.688  27.417   8.751
 1577POPC   D2A23848  20.455  27.519   8.365
 1577POPC   C3A23849  20.682  27.425   7.962
 1577POPC   C4A23850  20.885  27.552   7.563
 1577POPC   C1B23851  20.295  27.100   8.717
 1577POPC   C2B23852  20.224  27.081   8.271
 1577POPC   C3B23853  20.179  27.401   7.918
 1577POPC   C4B23854  20.204  27.350   7.466
 1578POPC   NC323855  26.532  25.646   9.409
 1578POPC   PO423856  25.916  25.140   9.394
 1578POPC   GL123857  26.188  25.120   9.093
 1578POPC   GL223858  26.194  25.462   9.089
 1578POPC   C1A23859  26.091  24.890   8.740
 1578POPC   D2A23860  26.141  24.854   8.328
 1578POPC   C3A23861  25.862  25.111   8.064
 1578POPC   C4A23862  25.880  25.339   7.667
 1578POPC   C1B23863  26.413  25.397   8.689
 1578POPC   C2B23864  26.283  25.343   8.254
 1578POPC   C3B23865  26.236  25.631   7.881
 1578POPC   C4B23866  26.176  25.650   7.404
 1579POPC   NC323867  38.821  28.452   9.332
 1579POPC   PO423868  39.410  28.696   9.452
 1579POPC   GL123869  39.490  28.396   9.115
 1579POPC   GL223870  39.191  28.235   9.065
 1579POPC   C1A23871  39.449  28.395   8.648
 1579POPC   D2A23872  39.378  28.693   8.294
 1579POPC   C3A23873  39.293  28.521   7.873
 1579POPC   C4A23874  39.528  28.150   7.773
 1579POPC   C1B23875  38.980  28.152   8.659
 1579POPC   C2B23876  39.204  28.138   8.251
 1579POPC   C3B23877  39.003  28.092   7.854
 1579POPC   C4B23878  39.139  27.980   7.463
 1580POPC   NC323879  42.660   4.301   9.370
 1580POPC   PO423880  42.075   4.641   9.444
 1580POPC   GL123881  42.240   4.456   9.079
 1580POPC   GL223882  42.521   4.661   8.956
 1580POPC   C1A23883  42.284   4.214   8.663
 1580POPC   D2A23884  42.250   3.995   8.238
 1580POPC   C3A23885  42.511   4.068   7.880
 1580POPC   C4A23886  42.499   4.223   7.452
 1580POPC   C1B23887  42.140   4.720   8.667
 1580POPC   C2B23888  41.959   4.472   8.328
 1580POPC   C3B23889  42.238   4.483   8.022
 1580POPC   C4B23890  42.605   4.588   7.834
 1581POPC   NC323891   8.987  13.509   9.518
 1581POPC   PO423892   8.555  13.995   9.356
 1581POPC   GL123893   8.741  13.557   9.089
 1581POPC   GL223894   9.160  13.403   9.069
 1581POPC   C1A23895   8.882  13.434   8.667
 1581POPC   D2A23896   8.966  13.643   8.282
 1581POPC   C3A23897   8.908  13.435   7.904
 1581POPC   C4A23898   8.695  13.487   7.512
 1581POPC   C1B23899   9.297  13.745   8.794
 1581POPC   C2B23900   9.427  13.886   8.395
 1581POPC   C3B23901   9.342  13.972   7.961
 1581POPC   C4B23902   9.556  13.789   7.604
 1582POPC   NC323903  33.495   9.567   9.652
 1582POPC   PO423904  32.843   9.543   9.512
 1582POPC   GL123905  33.185   9.510   9.211
 1582POPC   GL223906  33.239   9.845   9.248
 1582POPC   C1A23907  33.207   9.441   8.730
 1582POPC   D2A23908  33.083   9.293   8.314
 1582POPC   C3A23909  32.946   9.650   8.030
 1582POPC   C4A23910  33.062   9.802   7.595
 1582POPC   C1B23911  33.442   9.944   8.856
 1582POPC   C2B23912  33.441  10.040   8.407
 1582POPC   C3B23913  33.305  10.040   7.982
 1582POPC   C4B23914  33.444  10.177   7.586
 1583POPC   NC323915  29.113  41.068   9.519
 1583POPC   PO423916  29.108  40.512   9.851
 1583POPC   GL123917  28.964  40.582   9.329
 1583POPC   GL223918  28.833  40.875   9.133
 1583POPC   C1A23919  29.149  40.566   8.850
 1583POPC   D2A23920  29.278  40.384   8.433
 1583POPC   C3A23921  29.179  40.566   8.046
 1583POPC   C4A23922  29.199  40.674   7.623
 1583POPC   C1B23923  29.189  41.067   8.843
 1583POPC   C2B23924  29.282  40.921   8.420
 1583POPC   C3B23925  29.230  41.081   7.986
 1583POPC   C4B23926  29.272  41.167   7.564
 1584POPC   NC323927  10.706   3.229   9.600
 1584POPC   PO423928  10.295   2.625   9.433
 1584POPC   GL123929  10.549   2.881   9.180
 1584POPC   GL223930  10.845   2.764   9.118
 1584POPC   C1A23931  10.458   2.984   8.757
 1584POPC   D2A23932  10.324   2.841   8.346
 1584POPC   C3A23933  10.364   3.127   7.996
 1584POPC   C4A23934  10.425   3.092   7.566
 1584POPC   C1B23935  10.966   2.847   8.709
 1584POPC   C2B23936  10.809   2.692   8.333
 1584POPC   C3B23937  10.754   2.809   7.912
 1584POPC   C4B23938  10.931   2.840   7.510
 1585POPC   NC323939  12.476  30.905   9.528
 1585POPC   PO423940  11.891  30.636   9.556
 1585POPC   GL123941  12.208  30.545   9.207
 1585POPC   GL223942  12.455  30.237   9.132
 1585POPC   C1A23943  12.047  30.668   8.819
 1585POPC   D2A23944  11.729  30.642   8.539
 1585POPC   C3A23945  11.728  30.680   8.097
 1585POPC   C4A23946  11.973  30.896   7.776
 1585POPC   C1B23947  12.255  30.220   8.724
 1585POPC   C2B23948  12.225  30.464   8.337
 1585POPC   C3B23949  12.085  30.378   7.902
 1585POPC   C4B23950  12.269  30.532   7.546
 1586POPC   NC323951  26.466  15.422   9.478
 1586POPC   PO423952  27.053  15.216   9.450
 1586POPC   GL123953  26.702  15.053   9.179
 1586POPC   GL223954  26.930  14.863   8.988
 1586POPC   C1A23955  26.568  15.094   8.746
 1586POPC   D2A23956  26.773  15.257   8.369
 1586POPC   C3A23957  26.783  14.999   8.010
 1586POPC   C4A23958  26.574  15.298   7.729
 1586POPC   C1B23959  27.106  15.218   8.747
 1586POPC   C2B23960  27.258  15.114   8.308
 1586POPC   C3B23961  27.123  15.342   7.919
 1586POPC   C4B23962  26.993  15.269   7.464
 1587POPC   NC323963  38.676  18.572   9.457
 1587POPC   PO423964  38.407  17.942   9.458
 1587POPC   GL123965  38.483  18.238   9.129
 1587POPC   GL223966  38.853  18.239   9.095
 1587POPC   C1A23967  38.584  18.456   8.718
 1587POPC   D2A23968  38.460  18.237   8.339
 1587POPC   C3A23969  38.423  18.372   7.928
 1587POPC   C4A23970  38.077  18.247   7.647
 1587POPC   C1B23971  39.018  17.954   8.780
 1587POPC   C2B23972  38.895  17.757   8.402
 1587POPC   C3B23973  38.819  17.980   8.010
 1587POPC   C4B23974  38.631  17.965   7.608
 1588POPC   NC323975   3.415  19.815   9.532
 1588POPC   PO423976   3.700  19.220   9.404
 1588POPC   GL123977   3.703  19.680   9.138
 1588POPC   GL223978   3.568  20.093   9.117
 1588POPC   C1A23979   3.444  19.753   8.765
 1588POPC   D2A23980   3.409  19.526   8.391
 1588POPC   C3A23981   3.660  19.595   8.042
 1588POPC   C4A23982   3.472  19.625   7.654
 1588POPC   C1B23983   3.748  20.166   8.717
 1588POPC   C2B23984   3.566  20.037   8.314
 1588POPC   C3B23985   3.285  19.987   7.957
 1588POPC   C4B23986   3.363  20.117   7.505
 1589POPC   NC323987  13.495   1.136   9.469
 1589POPC   PO423988  13.701   1.661   9.232
 1589POPC   GL123989  13.432   1.307   8.979
 1589POPC   GL223990  13.601   0.973   8.998
 1589POPC   C1A23991  13.352   1.102   8.536
 1589POPC   D2A23992  13.631   1.064   8.148
 1589POPC   C3A23993  13.641   1.317   7.729
 1589POPC   C4A23994  13.831   1.392   7.286
 1589POPC   C1B23995  13.205   0.776   8.920
 1589POPC   C2B23996  13.134   0.517   8.557
 1589POPC   C3B23997  13.309   0.648   8.151
 1589POPC   C4B23998  13.409   0.860   7.744
 1590POPC   NC323999  42.363   3.348   9.424
 1590POPC   PO424000  42.283   4.018   9.362
 1590POPC   GL124001  42.285   3.677   9.032
 1590POPC   GL224002  42.205   3.298   8.957
 1590POPC   C1A24003  42.343   3.655   8.610
 1590POPC   D2A24004  42.687   3.743   8.348
 1590POPC   C3A24005  42.616   3.580   7.937
 1590POPC   C4A24006  42.821   3.797   7.557
 1590POPC   C1B24007  42.117   3.186   8.543
 1590POPC   C2B24008  42.169   3.419   8.171
 1590POPC   C3B24009  41.944   3.587   7.831
 1590POPC   C4B24010  41.970   3.403   7.418
 1591POPC   NC324011   9.669  14.231   9.637
 1591POPC   PO424012  10.207  14.134   9.235
 1591POPC   GL124013   9.799  14.111   9.161
 1591POPC   GL224014   9.751  14.469   9.163
 1591POPC   C1A24015   9.638  14.152   8.781
 1591POPC   D2A24016   9.910  14.107   8.448
 1591POPC   C3A24017   9.918  14.336   8.060
 1591POPC   C4A24018   9.556  14.438   7.846
 1591POPC   C1B24019   9.996  14.540   8.738
 1591POPC   C2B24020  10.070  14.797   8.337
 1591POPC   C3B24021   9.831  14.868   7.932
 1591POPC   C4B24022   9.917  14.656   7.531
 1592POPC   NC324023  30.949   9.491   9.612
 1592POPC   PO424024  30.449   9.841   9.751
 1592POPC   GL124025  30.558   9.589   9.253
 1592POPC   GL224026  30.877   9.588   9.113
 1592POPC   C1A24027  30.536   9.665   8.759
 1592POPC   D2A24028  30.426   9.725   8.299
 1592POPC   C3A24029  30.331  10.147   8.139
 1592POPC   C4A24030  30.541  10.172   7.748
 1592POPC   C1B24031  31.014   9.466   8.726
 1592POPC   C2B24032  30.958   9.642   8.324
 1592POPC   C3B24033  30.802   9.697   7.917
 1592POPC   C4B24034  31.104   9.526   7.632
 1593POPC   NC324035  39.239  25.861   9.430
 1593POPC   PO424036  39.329  26.496   9.299
 1593POPC   GL124037  39.228  26.267   8.965
 1593POPC   GL224038  38.966  26.126   9.073
 1593POPC   C1A24039  39.270  25.843   8.760
 1593POPC   D2A24040  39.532  25.764   8.443
 1593POPC   C3A24041  39.458  26.135   8.240
 1593POPC   C4A24042  39.552  26.343   7.860
 1593POPC   C1B24043  38.784  26.034   8.674
 1593POPC   C2B24044  38.935  26.136   8.266
 1593POPC   C3B24045  39.139  25.903   7.918
 1593POPC   C4B24046  38.954  25.819   7.485
 1594POPC   NC324047  17.288  39.531   9.560
 1594POPC   PO424048  17.472  38.913   9.632
 1594POPC   GL124049  17.516  39.196   9.205
 1594POPC   GL224050  17.474  39.573   9.104
 1594POPC   C1A24051  17.375  39.218   8.722
 1594POPC   D2A24052  17.076  39.296   8.352
 1594POPC   C3A24053  17.213  39.223   7.910
 1594POPC   C4A24054  17.109  38.791   7.802
 1594POPC   C1B24055  17.664  39.642   8.695
 1594POPC   C2B24056  17.636  39.407   8.272
 1594POPC   C3B24057  17.712  39.446   7.824
 1594POPC   C4B24058  17.744  39.337   7.392
 1595POPC   NC324059  19.365  28.116   9.544
 1595POPC   PO424060  19.340  28.610   9.243
 1595POPC   GL124061  18.930  28.564   9.104
 1595POPC   GL224062  18.704  28.866   9.119
 1595POPC   C1A24063  18.894  28.253   8.775
 1595POPC   D2A24064  19.216  28.141   8.479
 1595POPC   C3A24065  19.154  28.262   8.054
 1595POPC   C4A24066  18.921  28.065   7.750
 1595POPC   C1B24067  18.566  28.647   8.757
 1595POPC   C2B24068  18.455  28.574   8.349
 1595POPC   C3B24069  18.613  28.601   7.938
 1595POPC   C4B24070  18.823  28.542   7.593
 1596POPC   NC324071  26.428  41.965   9.480
 1596POPC   PO424072  26.055  42.603   9.627
 1596POPC   GL124073  26.150  42.498   9.209
 1596POPC   GL224074  25.840  42.683   9.086
 1596POPC   C1A24075  26.309  42.320   8.835
 1596POPC   D2A24076  26.066  42.100   8.522
 1596POPC   C3A24077  26.207  42.101   8.113
 1596POPC   C4A24078  26.353  42.348   7.808
 1596POPC   C1B24079  25.828  42.527   8.674
 1596POPC   C2B24080  25.772  42.509   8.215
 1596POPC   C3B24081  25.850  42.388   7.786
 1596POPC   C4B24082  25.940  42.517   7.350
 1597POPC   NC324083  42.818  32.483   9.698
 1597POPC   PO424084  43.444  32.283   9.760
 1597POPC   GL124085  42.986  32.134   9.385
 1597POPC   GL224086  43.130  31.925   9.064
 1597POPC   C1A24087  42.780  32.256   8.964
 1597POPC   D2A24088  42.882  32.112   8.544
 1597POPC   C3A24089  42.816  32.233   8.120
 1597POPC   C4A24090  42.972  32.493   7.778
 1597POPC   C1B24091  43.371  32.105   8.666
 1597POPC   C2B24092  43.284  32.337   8.346
 1597POPC   C3B24093  43.310  32.167   7.998
 1597POPC   C4B24094  43.477  32.524   7.821
 1598POPC   NC324095  29.107   1.522   9.524
 1598POPC   PO424096  29.509   0.965   9.542
 1598POPC   GL124097  29.315   1.185   9.206
 1598POPC   GL224098  29.511   1.452   9.106
 1598POPC   C1A24099  28.990   1.126   8.885
 1598POPC   D2A24100  28.950   0.963   8.467
 1598POPC   C3A24101  28.970   1.211   8.104
 1598POPC   C4A24102  28.940   1.056   7.687
 1598POPC   C1B24103  29.288   1.530   8.722
 1598POPC   C2B24104  29.383   1.722   8.331
 1598POPC   C3B24105  29.384   1.580   7.925
 1598POPC   C4B24106  29.019   1.548   7.713
 1599POPC   NC324107  38.705   2.699   9.889
 1599POPC   PO424108  39.329   2.824   9.663
 1599POPC   GL124109  38.990   2.931   9.373
 1599POPC   GL224110  39.220   3.039   9.155
 1599POPC   C1A24111  38.840   2.842   8.918
 1599POPC   D2A24112  39.064   2.982   8.534
 1599POPC   C3A24113  38.959   2.819   8.125
 1599POPC   C4A24114  39.139   2.605   7.767
 1599POPC   C1B24115  39.482   3.098   8.860
 1599POPC   C2B24116  39.559   3.114   8.444
 1599POPC   C3B24117  39.456   2.784   8.177
 1599POPC   C4B24118  39.521   2.965   7.801
 1600POPC   NC324119  25.486  39.728   9.539
 1600POPC   PO424120  26.190  39.951   9.362
 1600POPC   GL124121  26.089  39.703   9.044
 1600POPC   GL224122  25.774  39.590   9.140
 1600POPC   C1A24123  26.142  39.931   8.670
 1600POPC   D2A24124  26.077  40.315   8.449
 1600POPC   C3A24125  26.212  40.119   8.104
 1600POPC   C4A24126  26.301  39.803   7.791
 1600POPC   C1B24127  25.642  39.758   8.742
 1600POPC   C2B24128  25.732  39.953   8.342
 1600POPC   C3B24129  25.797  39.911   7.902
 1600POPC   C4B24130  25.550  39.664   7.659
 1601POPC   NC324131  24.276  23.030   9.552
 1601POPC   PO424132  23.742  22.799   9.649
 1601POPC   GL124133  23.779  22.813   9.179
 1601POPC   GL224134  24.065  23.029   9.083
 1601POPC   C1A24135  23.617  22.902   8.737
 1601POPC   D2A24136  23.575  23.251   8.414
 1601POPC   C3A24137  23.601  23.116   7.949
 1601POPC   C4A24138  23.456  22.864   7.593
 1601POPC   C1B24139  24.077  23.118   8.639
 1601POPC   C2B24140  23.905  22.892   8.284
 1601POPC   C3B24141  23.849  22.659   7.898
 1601POPC   C4B24142  23.957  22.730   7.448
 1602POPC   NC324143  37.133  11.372   9.636
 1602POPC   PO424144  36.848  10.844   9.737
 1602POPC   GL124145  36.857  11.111   9.288
 1602POPC   GL224146  36.826  11.492   9.239
 1602POPC   C1A24147  36.802  11.236   8.824
 1602POPC   D2A24148  37.009  11.382   8.448
 1602POPC   C3A24149  36.986  11.289   8.021
 1602POPC   C4A24150  37.298  11.058   7.776
 1602POPC   C1B24151  36.874  11.727   8.791
 1602POPC   C2B24152  36.831  11.852   8.338
 1602POPC   C3B24153  36.824  11.767   7.890
 1602POPC   C4B24154  36.867  11.594   7.443
 1603POPC   NC324155  16.586  38.260   9.457
 1603POPC   PO424156  16.873  38.892   9.418
 1603POPC   GL124157  16.782  38.587   9.103
 1603POPC   GL224158  16.542  38.851   9.052
 1603POPC   C1A24159  16.658  38.198   8.806
 1603POPC   D2A24160  16.517  37.988   8.423
 1603POPC   C3A24161  16.706  38.161   8.025
 1603POPC   C4A24162  16.489  38.243   7.660
 1603POPC   C1B24163  16.426  38.647   8.724
 1603POPC   C2B24164  16.511  38.492   8.355
 1603POPC   C3B24165  16.483  38.649   7.955
 1603POPC   C4B24166  16.680  38.722   7.533
 1604POPC   NC324167  21.496   6.391   9.386
 1604POPC   PO424168  21.046   6.885   9.454
 1604POPC   GL124169  21.369   6.937   9.205
 1604POPC   GL224170  21.280   6.655   9.046
 1604POPC   C1A24171  21.560   6.942   8.774
 1604POPC   D2A24172  21.756   6.723   8.421
 1604POPC   C3A24173  21.640   6.891   8.028
 1604POPC   C4A24174  21.439   6.655   7.734
 1604POPC   C1B24175  21.231   6.575   8.624
 1604POPC   C2B24176  21.196   6.638   8.199
 1604POPC   C3B24177  21.190   6.276   7.961
 1604POPC   C4B24178  21.280   6.016   7.605
 1605POPC   NC324179  13.686  43.449   9.460
 1605POPC   PO424180  13.368  44.090   9.400
 1605POPC   GL124181  13.654  44.125   9.025
 1605POPC   GL224182  13.791  43.783   9.055
 1605POPC   C1A24183  13.768  44.047   8.562
 1605POPC   D2A24184  13.677  43.702   8.266
 1605POPC   C3A24185  13.571  43.811   7.865
 1605POPC   C4A24186  13.788  44.080   7.622
 1605POPC   C1B24187  13.993  43.603   8.669
 1605POPC   C2B24188  14.178  43.638   8.261
 1605POPC   C3B24189  14.069  43.615   7.875
 1605POPC   C4B24190  13.802  43.336   7.821
 1606POPC   NC324191   0.482   6.490   9.592
 1606POPC   PO424192   0.285   7.120   9.418
 1606POPC   GL124193   0.299   6.836   9.047
 1606POPC   GL224194   0.257   6.467   9.128
 1606POPC   C1A24195   0.676   6.694   8.785
 1606POPC   D2A24196   0.778   6.456   8.383
 1606POPC   C3A24197   0.666   6.584   7.952
 1606POPC   C4A24198   0.307   6.825   7.795
 1606POPC   C1B24199   0.267   6.406   8.680
 1606POPC   C2B24200   0.248   6.571   8.267
 1606POPC   C3B24201   0.201   6.352   7.853
 1606POPC   C4B24202   0.153   6.500   7.424
 1607POPC   NC324203   8.764  44.180   9.607
 1607POPC   PO424204   8.233  43.703   9.590
 1607POPC   GL124205   8.223  43.784   9.114
 1607POPC   GL224206   8.395  44.034   8.920
 1607POPC   C1A24207   7.976  43.865   8.700
 1607POPC   D2A24208   8.009  44.055   8.263
 1607POPC   C3A24209   8.083  43.759   7.911
 1607POPC   C4A24210   8.126  43.657   7.446
 1607POPC   C1B24211   8.491  44.064   8.509
 1607POPC   C2B24212   8.512  44.011   8.059
 1607POPC   C3B24213   8.395  44.050   7.612
 1607POPC   C4B24214   8.565  44.074   7.179
 1608POPC   NC324215   3.500  40.121   9.443
 1608POPC   PO424216   3.700  39.562   9.632
 1608POPC   GL124217   3.719  39.694   9.137
 1608POPC   GL224218   3.409  39.864   9.032
 1608POPC   C1A24219   3.604  39.673   8.628
 1608POPC   D2A24220   3.261  39.789   8.289
 1608POPC   C3A24221   3.465  39.941   7.923
 1608POPC   C4A24222   3.658  39.639   7.680
 1608POPC   C1B24223   3.248  40.071   8.705
 1608POPC   C2B24224   3.183  40.322   8.324
 1608POPC   C3B24225   3.206  40.394   7.874
 1608POPC   C4B24226   3.473  40.290   7.520
 1609POPC   NC324227  39.542  11.491   9.425
 1609POPC   PO424228  39.368  10.904   9.196
 1609POPC   GL124229  39.211  11.222   9.038
 1609POPC   GL224230  38.884  11.068   8.964
 1609POPC   C1A24231  39.170  11.359   8.642
 1609POPC   D2A24232  39.217  11.102   8.291
 1609POPC   C3A24233  39.582  11.315   8.107
 1609POPC   C4A24234  39.551  11.510   7.701
 1609POPC   C1B24235  38.749  11.101   8.528
 1609POPC   C2B24236  38.784  11.550   8.338
 1609POPC   C3B24237  39.114  11.559   8.097
 1609POPC   C4B24238  39.155  11.215   7.795
 1610POPC   NC324239   2.457  41.753   9.605
 1610POPC   PO424240   1.776  41.685   9.508
 1610POPC   GL124241   2.096  41.549   9.220
 1610POPC   GL224242   2.042  41.196   9.189
 1610POPC   C1A24243   2.061  41.526   8.760
 1610POPC   D2A24244   1.926  41.630   8.319
 1610POPC   C3A24245   2.212  41.732   7.993
 1610POPC   C4A24246   2.440  41.490   7.702
 1610POPC   C1B24247   1.794  41.089   8.801
 1610POPC   C2B24248   1.717  41.155   8.384
 1610POPC   C3B24249   1.900  41.208   7.973
 1610POPC   C4B24250   1.616  41.163   7.598
 1611POPC   NC324251  28.366  30.688   9.717
 1611POPC   PO424252  28.933  30.564   9.370
 1611POPC   GL124253  28.610  30.774   9.175
 1611POPC   GL224254  28.251  30.844   9.209
 1611POPC   C1A24255  28.547  30.779   8.758
 1611POPC   D2A24256  28.305  30.884   8.422
 1611POPC   C3A24257  28.495  30.752   8.095
 1611POPC   C4A24258  28.467  30.604   7.714
 1611POPC   C1B24259  28.022  30.778   8.819
 1611POPC   C2B24260  27.914  30.571   8.403
 1611POPC   C3B24261  27.995  30.620   7.947
 1611POPC   C4B24262  28.028  30.703   7.474
 1612POPC   NC324263  42.787  41.274   9.403
 1612POPC   PO424264  42.968  40.593   9.447
 1612POPC   GL124265  43.172  40.650   9.082
 1612POPC   GL224266  43.080  40.982   9.105
 1612POPC   C1A24267  43.165  40.714   8.655
 1612POPC   D2A24268  42.915  40.581   8.329
 1612POPC   C3A24269  43.109  40.724   7.956
 1612POPC   C4A24270  43.395  40.752   7.625
 1612POPC   C1B24271  42.794  41.034   8.774
 1612POPC   C2B24272  42.964  41.098   8.342
 1612POPC   C3B24273  42.778  41.117   7.944
 1612POPC   C4B24274  42.765  40.850   7.585
 1613POPC   NC324275  26.123   3.151   9.649
 1613POPC   PO424276  25.722   3.600   9.599
 1613POPC   GL124277  25.826   3.339   9.253
 1613POPC   GL224278  25.603   3.195   9.038
 1613POPC   C1A24279  26.141   3.258   8.934
 1613POPC   D2A24280  26.371   3.319   8.535
 1613POPC   C3A24281  26.246   3.461   8.112
 1613POPC   C4A24282  26.323   3.394   7.645
 1613POPC   C1B24283  25.743   3.276   8.591
 1613POPC   C2B24284  25.730   3.369   8.128
 1613POPC   C3B24285  25.883   3.697   7.809
 1613POPC   C4B24286  26.059   3.755   7.365
 1614POPC   NC324287  15.388  34.568   9.665
 1614POPC   PO424288  14.714  34.420   9.563
 1614POPC   GL124289  15.020  34.614   9.264
 1614POPC   GL224290  15.398  34.587   9.158
 1614POPC   C1A24291  15.039  34.785   8.854
 1614POPC   D2A24292  14.937  34.629   8.474
 1614POPC   C3A24293  15.113  34.644   8.077
 1614POPC   C4A24294  15.284  34.310   7.831
 1614POPC   C1B24295  15.553  34.687   8.745
 1614POPC   C2B24296  15.582  34.555   8.301
 1614POPC   C3B24297  15.600  34.712   7.882
 1614POPC   C4B24298  15.621  34.489   7.460
 1615POPC   NC324299   0.289  10.194   9.650
 1615POPC   PO424300   0.949  10.559   9.709
 1615POPC   GL124301   0.732  10.548   9.267
 1615POPC   GL224302   0.475  10.276   9.181
 1615POPC   C1A24303   0.612  10.620   8.813
 1615POPC   D2A24304   0.279  10.717   8.481
 1615POPC   C3A24305   0.388  10.688   8.026
 1615POPC   C4A24306   0.410  10.537   7.604
 1615POPC   C1B24307   0.262  10.220   8.781
 1615POPC   C2B24308   0.108  10.216   8.344
 1615POPC   C3B24309   0.005  10.226   7.908
 1615POPC   C4B24310   0.104  10.197   7.417
 1616POPC   NC324311  18.157   1.692   9.533
 1616POPC   PO424312  17.986   1.009   9.518
 1616POPC   GL124313  18.214   1.201   9.183
 1616POPC   GL224314  18.452   0.967   8.972
 1616POPC   C1A24315  18.085   1.265   8.779
 1616POPC   D2A24316  18.256   1.060   8.437
 1616POPC   C3A24317  18.105   1.280   8.117
 1616POPC   C4A24318  18.011   1.249   7.699
 1616POPC   C1B24319  18.626   1.309   8.717
 1616POPC   C2B24320  18.597   1.474   8.280
 1616POPC   C3B24321  18.450   1.535   7.836
 1616POPC   C4B24322  18.366   1.495   7.385
 1617POPC   NC324323  14.393  32.595   9.532
 1617POPC   PO424324  14.086  32.008   9.406
 1617POPC   GL124325  14.383  32.184   9.140
 1617POPC   GL224326  14.194  32.465   9.084
 1617POPC   C1A24327  14.566  32.103   8.729
 1617POPC   D2A24328  14.621  32.147   8.290
 1617POPC   C3A24329  14.481  32.099   7.881
 1617POPC   C4A24330  14.777  32.349   7.668
 1617POPC   C1B24331  14.124  32.383   8.673
 1617POPC   C2B24332  14.129  32.286   8.250
 1617POPC   C3B24333  14.146  32.492   7.859
 1617POPC   C4B24334  14.308  32.366   7.438
 1618POPC   NC324335   7.867  35.981   9.171
 1618POPC   PO424336   8.322  35.897   9.717
 1618POPC   GL124337   8.319  36.167   9.318
 1618POPC   GL224338   8.276  36.534   9.304
 1618POPC   C1A24339   8.414  36.159   8.844
 1618POPC   D2A24340   8.225  35.934   8.475
 1618POPC   C3A24341   8.355  36.003   8.037
 1618POPC   C4A24342   8.040  35.957   7.721
 1618POPC   C1B24343   8.282  36.669   8.870
 1618POPC   C2B24344   8.224  36.753   8.428
 1618POPC   C3B24345   8.138  36.468   8.108
 1618POPC   C4B24346   7.973  36.499   7.741
 1619POPC   NC324347  39.897  44.043   9.530
 1619POPC   PO424348  39.991  43.360   9.672
 1619POPC   GL124349  39.889  43.611   9.223
 1619POPC   GL224350  39.890  43.969   9.044
 1619POPC   C1A24351  40.127  43.623   8.787
 1619POPC   D2A24352  40.088  43.620   8.395
 1619POPC   C3A24353  39.981  43.884   8.100
 1619POPC   C4A24354  40.181  43.895   7.740
 1619POPC   C1B24355  40.039  44.122   8.635
 1619POPC   C2B24356  40.113  44.396   8.256
 1619POPC   C3B24357  39.961  44.341   7.828
 1619POPC   C4B24358  39.664  44.370   7.474
 1620POPC   NC324359  32.921  44.866   9.533
 1620POPC   PO424360  32.762  44.248   9.379
 1620POPC   GL124361  32.957  44.573   9.119
 1620POPC   GL224362  33.301  44.656   9.226
 1620POPC   C1A24363  32.814  44.817   8.770
 1620POPC   D2A24364  32.626  44.952   8.393
 1620POPC   C3A24365  32.832  44.816   8.021
 1620POPC   C4A24366  32.786  44.490   7.695
 1620POPC   C1B24367  33.329  44.859   8.818
 1620POPC   C2B24368  33.192  44.758   8.410
 1620POPC   C3B24369  33.341  44.809   7.981
 1620POPC   C4B24370  33.123  44.898   7.575
 1621POPC   NC324371  13.601   7.000   9.436
 1621POPC   PO424372  13.465   7.649   9.477
 1621POPC   GL124373  13.452   7.402   9.124
 1621POPC   GL224374  13.310   7.619   8.896
 1621POPC   C1A24375  13.669   7.299   8.728
 1621POPC   D2A24376  13.694   7.568   8.353
 1621POPC   C3A24377  13.470   7.477   7.959
 1621POPC   C4A24378  13.530   7.117   7.643
 1621POPC   C1B24379  13.737   7.827   8.810
 1621POPC   C2B24380  13.893   8.048   8.419
 1621POPC   C3B24381  13.676   7.982   8.037
 1621POPC   C4B24382  13.798   7.825   7.653
 1622POPC   NC324383  20.201  10.378   9.531
 1622POPC   PO424384  20.812  10.100   9.563
 1622POPC   GL124385  20.645  10.416   9.240
 1622POPC   GL224386  20.355  10.640   9.136
 1622POPC   C1A24387  20.669  10.453   8.802
 1622POPC   D2A24388  20.836  10.463   8.408
 1622POPC   C3A24389  20.681  10.481   7.988
 1622POPC   C4A24390  20.964  10.336   7.685
 1622POPC   C1B24391  20.164  10.488   8.797
 1622POPC   C2B24392  20.306  10.518   8.393
 1622POPC   C3B24393  20.184  10.394   8.010
 1622POPC   C4B24394  20.271  10.505   7.591
 1623POPC   NC324395  12.132  42.524   9.440
 1623POPC   PO424396  12.359  41.848   9.553
 1623POPC   GL124397  12.050  42.015   9.243
 1623POPC   GL224398  12.231  42.264   9.011
 1623POPC   C1A24399  11.875  41.989   8.804
 1623POPC   D2A24400  12.129  42.154   8.437
 1623POPC   C3A24401  11.989  42.038   8.012
 1623POPC   C4A24402  11.984  42.162   7.574
 1623POPC   C1B24403  11.950  42.553   8.782
 1623POPC   C2B24404  11.971  42.749   8.376
 1623POPC   C3B24405  11.963  42.544   7.974
 1623POPC   C4B24406  11.755  42.616   7.567
 1624POPC   NC324407  44.141  19.262   9.497
 1624POPC   PO424408  44.637  18.840   9.507
 1624POPC   GL124409  44.571  19.180   9.171
 1624POPC   GL224410  44.794  19.502   9.191
 1624POPC   C1A24411  44.518  18.983   8.741
 1624POPC   D2A24412  44.345  18.828   8.341
 1624POPC   C3A24413  44.683  18.773   8.044
 1624POPC   C4A24414  44.634  18.838   7.591
 1624POPC   C1B24415  44.897  19.335   8.771
 1624POPC   C2B24416  44.960  19.121   8.360
 1624POPC   C3B24417  44.882  19.212   7.903
 1624POPC   C4B24418   0.089  19.055   7.510
 1625POPC   NC324419   4.623  41.099   9.474
 1625POPC   PO424420   4.177  40.595   9.437
 1625POPC   GL124421   4.537  40.697   9.189
 1625POPC   GL224422   4.355  40.994   9.051
 1625POPC   C1A24423   4.621  40.649   8.771
 1625POPC   D2A24424   4.240  40.452   8.545
 1625POPC   C3A24425   4.236  40.395   8.095
 1625POPC   C4A24426   4.294  40.441   7.649
 1625POPC   C1B24427   4.534  41.129   8.659
 1625POPC   C2B24428   4.460  40.862   8.301
 1625POPC   C3B24429   4.264  40.901   7.899
 1625POPC   C4B24430   4.449  41.131   7.572
 1626POPC   NC324431   4.892  37.345   9.749
 1626POPC   PO424432   5.006  36.810   9.339
 1626POPC   GL124433   5.073  36.818   8.937
 1626POPC   GL224434   5.460  36.751   9.016
 1626POPC   C1A24435   4.975  37.135   8.601
 1626POPC   D2A24436   5.033  37.429   8.270
 1626POPC   C3A24437   4.908  37.254   7.875
 1626POPC   C4A24438   5.080  37.157   7.468
 1626POPC   C1B24439   5.438  36.892   8.594
 1626POPC   C2B24440   5.202  36.748   8.252
 1626POPC   C3B24441   5.213  36.826   7.823
 1626POPC   C4B24442   5.454  36.831   7.418
 1627POPC   NC324443  31.169   5.917   9.523
 1627POPC   PO424444  31.688   5.698   9.712
 1627POPC   GL124445  31.561   5.751   9.230
 1627POPC   GL224446  31.296   5.528   9.126
 1627POPC   C1A24447  31.356   5.927   8.812
 1627POPC   D2A24448  31.230   5.798   8.365
 1627POPC   C3A24449  31.414   5.939   7.973
 1627POPC   C4A24450  31.768   6.183   7.875
 1627POPC   C1B24451  31.495   5.462   8.671
 1627POPC   C2B24452  31.740   5.675   8.314
 1627POPC   C3B24453  31.876   5.680   7.872
 1627POPC   C4B24454  31.801   5.389   7.531
 1628POPC   NC324455   3.278   3.040   9.349
 1628POPC   PO424456   3.766   2.506   9.453
 1628POPC   GL124457   3.562   2.697   9.102
 1628POPC   GL224458   3.222   2.555   9.190
 1628POPC   C1A24459   3.524   2.894   8.685
 1628POPC   D2A24460   3.287   2.830   8.310
 1628POPC   C3A24461   3.500   2.853   7.900
 1628POPC   C4A24462   3.507   2.691   7.487
 1628POPC   C1B24463   3.189   2.514   8.760
 1628POPC   C2B24464   3.110   2.350   8.372
 1628POPC   C3B24465   3.100   2.504   7.946
 1628POPC   C4B24466   3.053   2.469   7.484
 1629POPC   NC324467   4.083   2.141   9.405
 1629POPC   PO424468   4.515   1.557   9.458
 1629POPC   GL124469   4.326   1.785   9.148
 1629POPC   GL224470   4.558   2.037   9.051
 1629POPC   C1A24471   4.128   1.988   8.779
 1629POPC   D2A24472   3.978   2.069   8.385
 1629POPC   C3A24473   4.231   2.126   8.048
 1629POPC   C4A24474   3.998   2.044   7.712
 1629POPC   C1B24475   4.625   1.728   8.726
 1629POPC   C2B24476   4.590   1.764   8.276
 1629POPC   C3B24477   4.742   2.081   7.996
 1629POPC   C4B24478   4.747   2.239   7.580
 1630POPC   NC324479  31.804  17.167   9.429
 1630POPC   PO424480  31.241  17.562   9.447
 1630POPC   GL124481  31.347  17.702   9.081
 1630POPC   GL224482  31.679  17.587   9.114
 1630POPC   C1A24483  31.114  17.662   8.713
 1630POPC   D2A24484  30.895  17.840   8.387
 1630POPC   C3A24485  31.079  17.653   8.053
 1630POPC   C4A24486  31.252  17.692   7.667
 1630POPC   C1B24487  31.692  17.722   8.708
 1630POPC   C2B24488  31.530  17.559   8.360
 1630POPC   C3B24489  31.640  17.657   7.979
 1630POPC   C4B24490  31.809  17.596   7.586
 1631POPC   NC324491  28.734  10.384   9.548
 1631POPC   PO424492  28.063  10.424   9.618
 1631POPC   GL124493  28.324  10.510   9.216
 1631POPC   GL224494  28.420  10.838   9.073
 1631POPC   C1A24495  28.391  10.439   8.748
 1631POPC   D2A24496  28.203  10.213   8.373
 1631POPC   C3A24497  28.355  10.255   7.929
 1631POPC   C4A24498  28.552  10.033   7.547
 1631POPC   C1B24499  28.664  10.888   8.704
 1631POPC   C2B24500  28.588  10.820   8.270
 1631POPC   C3B24501  28.782  10.577   7.994
 1631POPC   C4B24502  28.661  10.512   7.600
 1632POPC   NC324503  22.304  36.437   9.647
 1632POPC   PO424504  21.859  36.971   9.745
 1632POPC   GL124505  22.043  36.842   9.332
 1632POPC   GL224506  21.848  36.626   9.142
 1632POPC   C1A24507  22.235  37.008   8.909
 1632POPC   D2A24508  22.404  37.001   8.457
 1632POPC   C3A24509  22.283  36.838   8.015
 1632POPC   C4A24510  22.438  36.661   7.595
 1632POPC   C1B24511  21.782  36.842   8.730
 1632POPC   C2B24512  21.894  37.073   8.340
 1632POPC   C3B24513  21.834  37.043   7.878
 1632POPC   C4B24514  21.665  37.117   7.453
 1633POPC   NC324515  43.395  31.886   9.515
 1633POPC   PO424516  42.965  31.408   9.469
 1633POPC   GL124517  43.121  31.428   9.071
 1633POPC   GL224518  43.465  31.322   9.107
 1633POPC   C1A24519  42.953  31.649   8.687
 1633POPC   D2A24520  43.133  31.733   8.266
 1633POPC   C3A24521  42.882  31.532   7.930
 1633POPC   C4A24522  42.688  31.157   7.764
 1633POPC   C1B24523  43.590  31.138   8.697
 1633POPC   C2B24524  43.471  31.278   8.279
 1633POPC   C3B24525  43.381  31.260   7.838
 1633POPC   C4B24526  43.562  31.364   7.415
 1634POPC   NC324527  14.750   8.218   9.580
 1634POPC   PO424528  14.119   8.296   9.545
 1634POPC   GL124529  14.223   8.325   9.104
 1634POPC   GL224530  14.599   8.337   9.098
 1634POPC   C1A24531  14.307   8.292   8.635
 1634POPC   D2A24532  14.286   8.427   8.195
 1634POPC   C3A24533  14.161   8.124   7.856
 1634POPC   C4A24534  14.287   7.842   7.474
 1634POPC   C1B24535  14.861   8.485   8.744
 1634POPC   C2B24536  14.731   8.616   8.367
 1634POPC   C3B24537  14.739   8.451   7.973
 1634POPC   C4B24538  14.977   8.529   7.651
 1635POPC   NC324539  43.162   5.529   9.434
 1635POPC   PO424540  42.895   4.807   9.399
 1635POPC   GL124541  43.166   5.089   9.150
 1635POPC   GL224542  43.096   5.401   8.943
 1635POPC   C1A24543  43.404   5.040   8.792
 1635POPC   D2A24544  43.151   5.137   8.435
 1635POPC   C3A24545  43.364   5.027   8.102
 1635POPC   C4A24546  43.443   5.031   7.738
 1635POPC   C1B24547  42.792   5.073   8.801
 1635POPC   C2B24548  42.625   4.854   8.429
 1635POPC   C3B24549  42.799   5.015   8.046
 1635POPC   C4B24550  43.033   5.373   7.938
 1636POPC   NC324551  32.925  34.490   9.675
 1636POPC   PO424552  32.954  33.771   9.736
 1636POPC   GL124553  33.033  33.841   9.251
 1636POPC   GL224554  32.781  34.089   9.157
 1636POPC   C1A24555  32.893  33.738   8.818
 1636POPC   D2A24556  32.710  33.782   8.389
 1636POPC   C3A24557  32.946  33.767   8.015
 1636POPC   C4A24558  32.854  33.542   7.634
 1636POPC   C1B24559  32.959  34.245   8.743
 1636POPC   C2B24560  32.922  34.238   8.287
 1636POPC   C3B24561  33.126  34.268   7.893
 1636POPC   C4B24562  33.204  33.933   7.595
 1637POPC   NC324563  35.215  10.154   9.737
 1637POPC   PO424564  35.507  10.633   9.495
 1637POPC   GL124565  35.216  10.699   9.167
 1637POPC   GL224566  35.173  10.357   9.220
 1637POPC   C1A24567  35.172  10.778   8.718
 1637POPC   D2A24568  35.511  10.833   8.415
 1637POPC   C3A24569  35.405  10.697   7.994
 1637POPC   C4A24570  35.527  10.620   7.593
 1637POPC   C1B24571  35.323  10.306   8.803
 1637POPC   C2B24572  35.403  10.329   8.394
 1637POPC   C3B24573  35.361  10.180   8.001
 1637POPC   C4B24574  35.009   9.970   7.846
 1638POPC   NC324575  43.562  29.024   9.358
 1638POPC   PO424576  44.167  29.046   9.431
 1638POPC   GL124577  44.037  29.247   9.065
 1638POPC   GL224578  43.734  29.459   9.145
 1638POPC   C1A24579  44.125  29.080   8.638
 1638POPC   D2A24580  44.105  28.696   8.364
 1638POPC   C3A24581  43.971  28.809   7.957
 1638POPC   C4A24582  44.085  29.202   7.796
 1638POPC   C1B24583  43.653  29.319   8.707
 1638POPC   C2B24584  43.762  29.198   8.270
 1638POPC   C3B24585  43.570  29.185   7.862
 1638POPC   C4B24586  43.681  29.397   7.498
 1639POPC   NC324587  11.606  37.885   9.627
 1639POPC   PO424588  11.479  37.323   9.290
 1639POPC   GL124589  11.180  37.549   9.122
 1639POPC   GL224590  11.305  37.876   9.185
 1639POPC   C1A24591  11.002  37.594   8.734
 1639POPC   D2A24592  11.290  37.644   8.398
 1639POPC   C3A24593  11.060  37.613   7.999
 1639POPC   C4A24594  11.117  37.737   7.570
 1639POPC   C1B24595  11.536  38.175   8.917
 1639POPC   C2B24596  11.460  38.269   8.480
 1639POPC   C3B24597  11.399  38.026   8.085
 1639POPC   C4B24598  11.723  37.856   7.806
 1640POPC   NC324599  30.820  22.779   9.517
 1640POPC   PO424600  30.362  23.298   9.452
 1640POPC   GL124601  30.502  23.024   9.158
 1640POPC   GL224602  30.846  23.049   9.076
 1640POPC   C1A24603  30.473  23.127   8.728
 1640POPC   D2A24604  30.646  23.130   8.324
 1640POPC   C3A24605  30.335  23.067   8.034
 1640POPC   C4A24606  30.600  22.735   7.839
 1640POPC   C1B24607  30.774  22.666   8.841
 1640POPC   C2B24608  30.793  22.531   8.417
 1640POPC   C3B24609  31.015  22.816   8.130
 1640POPC   C4B24610  31.098  22.893   7.704
 1641POPC   NC324611   6.908  37.393   9.403
 1641POPC   PO424612   6.315  37.727   9.634
 1641POPC   GL124613   6.570  37.725   9.214
 1641POPC   GL224614   6.867  37.924   9.247
 1641POPC   C1A24615   6.647  37.498   8.791
 1641POPC   D2A24616   6.830  37.663   8.415
 1641POPC   C3A24617   6.771  37.574   7.993
 1641POPC   C4A24618   6.542  37.746   7.657
 1641POPC   C1B24619   6.789  38.024   8.800
 1641POPC   C2B24620   6.985  38.154   8.361
 1641POPC   C3B24621   6.909  38.067   7.878
 1641POPC   C4B24622   6.927  38.033   7.381
 1642POPC   NC324623  34.145   2.664   9.371
 1642POPC   PO424624  34.843   2.841   9.424
 1642POPC   GL124625  34.768   2.655   9.054
 1642POPC   GL224626  34.547   2.377   9.136
 1642POPC   C1A24627  34.731   2.905   8.704
 1642POPC   D2A24628  35.003   3.013   8.386
 1642POPC   C3A24629  34.754   2.753   8.130
 1642POPC   C4A24630  34.615   2.691   7.744
 1642POPC   C1B24631  34.351   2.497   8.729
 1642POPC   C2B24632  34.350   2.341   8.283
 1642POPC   C3B24633  34.310   2.272   7.837
 1642POPC   C4B24634  34.554   2.270   7.475
 1643POPC   NC324635  41.650  12.595   9.431
 1643POPC   PO424636  41.040  12.880   9.572
 1643POPC   GL124637  41.261  12.841   9.198
 1643POPC   GL224638  41.528  13.045   9.155
 1643POPC   C1A24639  41.383  12.694   8.792
 1643POPC   D2A24640  41.645  12.655   8.442
 1643POPC   C3A24641  41.444  12.662   8.050
 1643POPC   C4A24642  41.668  12.719   7.686
 1643POPC   C1B24643  41.785  12.999   8.810
 1643POPC   C2B24644  41.787  13.177   8.412
 1643POPC   C3B24645  41.726  13.092   8.012
 1643POPC   C4B24646  42.021  13.117   7.634
 1644POPC   NC324647  16.983  32.239   9.486
 1644POPC   PO424648  16.395  32.437   9.411
 1644POPC   GL124649  16.628  32.175   9.102
 1644POPC   GL224650  17.023  32.090   9.007
 1644POPC   C1A24651  16.629  31.958   8.719
 1644POPC   D2A24652  16.935  31.976   8.398
 1644POPC   C3A24653  16.740  32.091   8.015
 1644POPC   C4A24654  16.735  31.967   7.563
 1644POPC   C1B24655  16.890  32.410   8.707
 1644POPC   C2B24656  16.935  32.655   8.314
 1644POPC   C3B24657  16.904  32.612   7.846
 1644POPC   C4B24658  16.895  32.427   7.399
 1645POPC   NC324659  38.755   5.212   9.548
 1645POPC   PO424660  38.067   5.282   9.757
 1645POPC   GL124661  38.243   5.187   9.323
 1645POPC   GL224662  38.263   4.807   9.329
 1645POPC   C1A24663  38.465   5.258   8.893
 1645POPC   D2A24664  38.708   5.339   8.493
 1645POPC   C3A24665  38.622   5.091   8.106
 1645POPC   C4A24666  38.575   5.117   7.668
 1645POPC   C1B24667  38.471   4.700   8.934
 1645POPC   C2B24668  38.403   4.882   8.530
 1645POPC   C3B24669  38.217   4.761   8.161
 1645POPC   C4B24670  38.362   4.663   7.793
 1646POPC   NC324671  42.091  40.559   9.338
 1646POPC   PO424672  42.270  41.212   9.559
 1646POPC   GL124673  42.369  40.990   9.177
 1646POPC   GL224674  42.567  40.678   9.168
 1646POPC   C1A24675  42.259  40.921   8.758
 1646POPC   D2A24676  42.453  41.113   8.408
 1646POPC   C3A24677  42.260  41.066   8.039
 1646POPC   C4A24678  42.098  40.761   7.807
 1646POPC   C1B24679  42.603  40.552   8.751
 1646POPC   C2B24680  42.355  40.619   8.364
 1646POPC   C3B24681  42.550  40.642   7.991
 1646POPC   C4B24682  42.809  40.319   7.874
 1647POPC   NC324683  19.793  23.429   9.277
 1647POPC   PO424684  19.889  22.828   9.545
 1647POPC   GL124685  19.837  22.876   9.108
 1647POPC   GL224686  19.515  23.057   9.054
 1647POPC   C1A24687  19.826  22.794   8.670
 1647POPC   D2A24688  19.625  22.795   8.292
 1647POPC   C3A24689  19.825  23.084   8.048
 1647POPC   C4A24690  20.124  23.010   7.713
 1647POPC   C1B24691  19.546  23.247   8.633
 1647POPC   C2B24692  19.478  23.464   8.232
 1647POPC   C3B24693  19.421  23.280   7.807
 1647POPC   C4B24694  19.216  23.340   7.419
 1648POPC   NC324695   0.928  33.717   9.571
 1648POPC   PO424696   1.493  33.642   9.266
 1648POPC   GL124697   1.195  33.770   8.994
 1648POPC   GL224698   0.911  33.945   9.110
 1648POPC   C1A24699   1.289  33.810   8.572
 1648POPC   D2A24700   1.493  34.115   8.310
 1648POPC   C3A24701   1.350  33.983   7.906
 1648POPC   C4A24702   1.380  33.571   7.756
 1648POPC   C1B24703   0.791  33.951   8.663
 1648POPC   C2B24704   0.961  34.076   8.259
 1648POPC   C3B24705   0.871  34.167   7.813
 1648POPC   C4B24706   0.920  33.940   7.409
 1649POPC   NC324707  38.130  22.260   9.480
 1649POPC   PO424708  38.604  21.778   9.513
 1649POPC   GL124709  38.549  22.082   9.161
 1649POPC   GL224710  38.271  22.265   8.997
 1649POPC   C1A24711  38.745  22.294   8.826
 1649POPC   D2A24712  38.466  22.344   8.449
 1649POPC   C3A24713  38.730  22.437   8.106
 1649POPC   C4A24714  38.711  22.265   7.679
 1649POPC   C1B24715  38.402  21.902   8.710
 1649POPC   C2B24716  38.397  21.760   8.297
 1649POPC   C3B24717  38.365  22.081   8.002
 1649POPC   C4B24718  38.196  22.144   7.622
 1650POPC   NC324719  42.878  21.112   9.528
 1650POPC   PO424720  42.977  20.477   9.489
 1650POPC   GL124721  43.176  20.717   9.168
 1650POPC   GL224722  42.913  20.933   9.023
 1650POPC   C1A24723  43.289  20.750   8.728
 1650POPC   D2A24724  43.080  20.898   8.381
 1650POPC   C3A24725  43.226  20.659   8.054
 1650POPC   C4A24726  43.190  20.665   7.644
 1650POPC   C1B24727  42.826  20.562   8.751
 1650POPC   C2B24728  42.848  20.410   8.311
 1650POPC   C3B24729  42.719  20.613   7.915
 1650POPC   C4B24730  42.747  20.607   7.423
 1651POPC   NC324731  22.623   7.881   9.632
 1651POPC   PO424732  23.002   8.426   9.389
 1651POPC   GL124733  22.991   8.026   9.210
 1651POPC   GL224734  23.338   7.875   9.207
 1651POPC   C1A24735  22.760   8.064   8.822
 1651POPC   D2A24736  22.637   8.250   8.424
 1651POPC   C3A24737  22.700   8.002   8.040
 1651POPC   C4A24738  22.578   8.166   7.638
 1651POPC   C1B24739  23.275   8.091   8.780
 1651POPC   C2B24740  23.122   8.104   8.341
 1651POPC   C3B24741  23.177   8.257   7.884
 1651POPC   C4B24742  23.326   8.371   7.452
 1652POPC   NC324743  12.303  15.728   9.510
 1652POPC   PO424744  11.870  15.153   9.553
 1652POPC   GL124745  12.042  15.126   9.172
 1652POPC   GL224746  12.210  15.404   9.137
 1652POPC   C1A24747  11.920  15.108   8.759
 1652POPC   D2A24748  11.998  14.869   8.383
 1652POPC   C3A24749  12.063  15.042   7.991
 1652POPC   C4A24750  12.298  14.993   7.591
 1652POPC   C1B24751  11.922  15.630   8.910
 1652POPC   C2B24752  11.775  15.642   8.460
 1652POPC   C3B24753  11.742  15.472   8.049
 1652POPC   C4B24754  12.016  15.439   7.671
 1653POPC   NC324755  29.135  27.886   9.571
 1653POPC   PO424756  28.921  27.257   9.401
 1653POPC   GL124757  29.144  27.593   9.153
 1653POPC   GL224758  29.392  27.909   9.138
 1653POPC   C1A24759  29.209  27.590   8.753
 1653POPC   D2A24760  29.012  27.409   8.416
 1653POPC   C3A24761  29.165  27.531   8.067
 1653POPC   C4A24762  28.955  27.449   7.754
 1653POPC   C1B24763  29.607  27.905   8.764
 1653POPC   C2B24764  29.508  28.064   8.349
 1653POPC   C3B24765  29.540  27.866   7.968
 1653POPC   C4B24766  29.360  27.752   7.612
 1654POPC   NC324767  32.236  19.407   9.349
 1654POPC   PO424768  32.087  19.967   9.737
 1654POPC   GL124769  32.279  19.856   9.198
 1654POPC   GL224770  32.519  19.996   9.035
 1654POPC   C1A24771  32.178  19.708   8.759
 1654POPC   D2A24772  32.113  19.451   8.396
 1654POPC   C3A24773  32.291  19.614   8.043
 1654POPC   C4A24774  32.013  19.674   7.711
 1654POPC   C1B24775  32.257  20.210   8.740
 1654POPC   C2B24776  32.144  20.068   8.354
 1654POPC   C3B24777  32.181  20.143   7.934
 1654POPC   C4B24778  32.461  19.922   7.655
 1655POPC   NC324779  18.503   8.653   9.437
 1655POPC   PO424780  18.555   9.381   9.472
 1655POPC   GL124781  18.357   9.158   9.128
 1655POPC   GL224782  18.463   8.844   8.992
 1655POPC   C1A24783  18.231   9.172   8.682
 1655POPC   D2A24784  18.087   9.175   8.276
 1655POPC   C3A24785  18.247   9.353   7.913
 1655POPC   C4A24786  18.185   9.145   7.502
 1655POPC   C1B24787  18.694   8.650   8.683
 1655POPC   C2B24788  18.549   8.833   8.332
 1655POPC   C3B24789  18.431   8.890   7.943
 1655POPC   C4B24790  18.240   8.668   7.665
 1656POPC   NC324791  37.925  11.386   9.590
 1656POPC   PO424792  37.373  11.099   9.354
 1656POPC   GL124793  37.622  11.192   9.065
 1656POPC   GL224794  37.682  11.503   9.157
 1656POPC   C1A24795  37.477  11.239   8.649
 1656POPC   D2A24796  37.376  11.047   8.283
 1656POPC   C3A24797  37.727  11.103   8.034
 1656POPC   C4A24798  37.682  11.362   7.672
 1656POPC   C1B24799  37.367  11.662   8.908
 1656POPC   C2B24800  37.310  11.781   8.497
 1656POPC   C3B24801  37.388  11.595   8.116
 1656POPC   C4B24802  37.286  11.670   7.705
 1657POPC   NC324803   9.139  30.961   9.329
 1657POPC   PO424804   8.632  30.685   9.697
 1657POPC   GL124805   8.628  30.554   9.193
 1657POPC   GL224806   8.949  30.494   9.069
 1657POPC   C1A24807   8.657  30.724   8.730
 1657POPC   D2A24808   8.882  30.786   8.338
 1657POPC   C3A24809   8.779  30.736   7.913
 1657POPC   C4A24810   8.995  30.461   7.622
 1657POPC   C1B24811   9.268  30.678   8.773
 1657POPC   C2B24812   9.371  30.876   8.409
 1657POPC   C3B24813   9.295  30.670   8.013
 1657POPC   C4B24814   9.274  30.871   7.595
 1658POPC   NC324815   1.556  19.871   9.434
 1658POPC   PO424816   2.190  19.650   9.454
 1658POPC   GL124817   2.231  19.799   9.054
 1658POPC   GL224818   1.928  19.944   9.056
 1658POPC   C1A24819   2.263  19.842   8.601
 1658POPC   D2A24820   2.088  19.646   8.260
 1658POPC   C3A24821   2.118  19.894   7.897
 1658POPC   C4A24822   1.874  19.594   7.738
 1658POPC   C1B24823   1.751  19.862   8.614
 1658POPC   C2B24824   1.642  19.919   8.173
 1658POPC   C3B24825   1.478  19.959   7.756
 1658POPC   C4B24826   1.296  19.992   7.287
 1659POPC   NC324827  43.455  35.989   9.467
 1659POPC   PO424828  42.765  36.083   9.318
 1659POPC   GL124829  43.046  36.145   8.946
 1659POPC   GL224830  43.346  36.325   9.102
 1659POPC   C1A24831  43.092  35.872   8.537
 1659POPC   D2A24832  42.928  35.709   8.120
 1659POPC   C3A24833  42.847  36.076   7.824
 1659POPC   C4A24834  42.682  36.435   7.572
 1659POPC   C1B24835  43.560  36.036   8.821
 1659POPC   C2B24836  43.586  36.009   8.388
 1659POPC   C3B24837  43.339  36.012   8.036
 1659POPC   C4B24838  43.338  36.198   7.629
 1660POPC   NC324839  26.870  37.411   9.339
 1660POPC   PO424840  26.786  38.064   9.357
 1660POPC   GL124841  26.739  37.813   9.012
 1660POPC   GL224842  26.473  37.604   9.020
 1660POPC   C1A24843  26.938  37.591   8.693
 1660POPC   D2A24844  27.016  37.432   8.283
 1660POPC   C3A24845  26.978  37.740   7.988
 1660POPC   C4A24846  27.105  37.819   7.605
 1660POPC   C1B24847  26.481  37.361   8.695
 1660POPC   C2B24848  26.427  37.399   8.280
 1660POPC   C3B24849  26.590  37.425   7.899
 1660POPC   C4B24850  26.924  37.207   7.812
 1661POPC   NC324851  17.762   9.109   9.508
 1661POPC   PO424852  17.078   8.989   9.552
 1661POPC   GL124853  17.175   8.932   9.168
 1661POPC   GL224854  17.495   8.952   9.114
 1661POPC   C1A24855  17.129   9.065   8.773
 1661POPC   D2A24856  17.389   9.136   8.473
 1661POPC   C3A24857  17.245   9.094   8.080
 1661POPC   C4A24858  17.465   9.122   7.709
 1661POPC   C1B24859  17.762   8.931   8.745
 1661POPC   C2B24860  17.733   8.801   8.308
 1661POPC   C3B24861  17.873   8.914   7.893
 1661POPC   C4B24862  17.740   8.755   7.465
 1662POPC   NC324863  37.178  10.665   9.446
 1662POPC   PO424864  37.727  10.273   9.699
 1662POPC   GL124865  37.719  10.526   9.266
 1662POPC   GL224866  38.035  10.489   9.041
 1662POPC   C1A24867  37.581  10.698   8.848
 1662POPC   D2A24868  37.313  10.587   8.491
 1662POPC   C3A24869  37.486  10.418   8.143
 1662POPC   C4A24870  37.638  10.644   7.796
 1662POPC   C1B24871  37.978  10.230   8.673
 1662POPC   C2B24872  38.014  10.319   8.261
 1662POPC   C3B24873  37.989  10.267   7.843
 1662POPC   C4B24874  38.058   9.981   7.513
 1663POPC   NC324875   5.723   6.761   9.505
 1663POPC   PO424876   6.334   6.402   9.474
 1663POPC   GL124877   6.089   6.588   9.151
 1663POPC   GL224878   5.758   6.414   9.138
 1663POPC   C1A24879   6.079   6.478   8.716
 1663POPC   D2A24880   6.072   6.693   8.346
 1663POPC   C3A24881   6.056   6.473   7.993
 1663POPC   C4A24882   5.964   6.628   7.577
 1663POPC   C1B24883   5.529   6.463   8.758
 1663POPC   C2B24884   5.662   6.360   8.361
 1663POPC   C3B24885   5.546   6.486   7.953
 1663POPC   C4B24886   5.466   6.744   7.612
 1664POPC   NC324887   3.093  21.932   9.442
 1664POPC   PO424888   3.706  22.286   9.540
 1664POPC   GL124889   3.588  22.045   9.169
 1664POPC   GL224890   3.311  22.220   9.067
 1664POPC   C1A24891   3.525  21.926   8.717
 1664POPC   D2A24892   3.772  21.913   8.341
 1664POPC   C3A24893   3.715  22.000   7.881
 1664POPC   C4A24894   3.814  21.920   7.410
 1664POPC   C1B24895   3.298  22.406   8.670
 1664POPC   C2B24896   3.527  22.374   8.279
 1664POPC   C3B24897   3.498  22.505   7.857
 1664POPC   C4B24898   3.435  22.326   7.461
 1665POPC   NC324899  38.960   5.862   9.504
 1665POPC   PO424900  39.452   6.207   9.834
 1665POPC   GL124901  39.457   5.931   9.348
 1665POPC   GL224902  39.668   5.674   9.205
 1665POPC   C1A24903  39.319   5.939   8.901
 1665POPC   D2A24904  39.075   5.947   8.519
 1665POPC   C3A24905  39.251   6.054   8.110
 1665POPC   C4A24906  39.076   5.781   7.801
 1665POPC   C1B24907  39.588   5.523   8.804
 1665POPC   C2B24908  39.559   5.759   8.432
 1665POPC   C3B24909  39.657   5.685   7.998
 1665POPC   C4B24910  39.573   5.295   7.775
 1666POPC   NC324911  22.563  22.071   9.310
 1666POPC   PO424912  22.139  22.486   9.540
 1666POPC   GL124913  22.139  22.357   9.080
 1666POPC   GL224914  21.850  22.144   9.022
 1666POPC   C1A24915  22.044  22.406   8.615
 1666POPC   D2A24916  21.886  22.625   8.245
 1666POPC   C3A24917  22.152  22.533   7.890
 1666POPC   C4A24918  22.407  22.130   7.833
 1666POPC   C1B24919  22.167  21.931   8.772
 1666POPC   C2B24920  22.251  21.941   8.319
 1666POPC   C3B24921  22.032  21.805   7.930
 1666POPC   C4B24922  21.952  21.649   7.512
 1667POPC   NC324923  33.461  36.485   9.520
 1667POPC   PO424924  33.446  37.182   9.554
 1667POPC   GL124925  33.743  37.053   9.233
 1667POPC   GL224926  33.827  36.688   9.219
 1667POPC   C1A24927  33.685  36.892   8.792
 1667POPC   D2A24928  33.492  36.722   8.428
 1667POPC   C3A24929  33.666  36.914   8.050
 1667POPC   C4A24930  33.703  36.853   7.613
 1667POPC   C1B24931  34.027  36.529   8.832
 1667POPC   C2B24932  33.990  36.713   8.407
 1667POPC   C3B24933  34.106  36.601   8.004
 1667POPC   C4B24934  34.206  36.636   7.571
 1668POPC   NC324935  13.356  30.269   9.504
 1668POPC   PO424936  13.850  29.852   9.355
 1668POPC   GL124937  13.514  29.973   9.118
 1668POPC   GL224938  13.291  29.752   9.142
 1668POPC   C1A24939  13.406  30.017   8.717
 1668POPC   D2A24940  13.622  29.914   8.371
 1668POPC   C3A24941  13.625  30.241   8.069
 1668POPC   C4A24942  13.564  30.078   7.676
 1668POPC   C1B24943  13.242  29.511   8.783
 1668POPC   C2B24944  13.157  29.677   8.403
 1668POPC   C3B24945  13.266  29.781   7.992
 1668POPC   C4B24946  13.210  29.593   7.608
 1669POPC   NC324947  35.106  20.300   9.581
 1669POPC   PO424948  35.548  20.889   9.440
 1669POPC   GL124949  35.340  20.847   9.062
 1669POPC   GL224950  35.259  20.531   9.148
 1669POPC   C1A24951  35.382  20.629   8.640
 1669POPC   D2A24952  35.498  20.532   8.194
 1669POPC   C3A24953  35.374  20.781   7.824
 1669POPC   C4A24954  35.543  20.749   7.381
 1669POPC   C1B24955  35.069  20.241   8.885
 1669POPC   C2B24956  35.165  20.174   8.437
 1669POPC   C3B24957  35.040  20.327   8.015
 1669POPC   C4B24958  35.229  20.357   7.587
 1670POPC   NC324959  20.768  25.330   9.573
 1670POPC   PO424960  20.202  25.311   9.803
 1670POPC   GL124961  20.365  25.312   9.297
 1670POPC   GL224962  20.728  25.156   9.097
 1670POPC   C1A24963  20.555  25.573   8.891
 1670POPC   D2A24964  20.676  25.216   8.566
 1670POPC   C3A24965  20.664  25.283   8.147
 1670POPC   C4A24966  20.566  25.618   7.888
 1670POPC   C1B24967  21.039  25.443   8.822
 1670POPC   C2B24968  20.944  25.620   8.391
 1670POPC   C3B24969  21.062  25.525   7.952
 1670POPC   C4B24970  21.039  25.253   7.588
 1671POPC   NC324971  41.225  33.569   9.733
 1671POPC   PO424972  40.552  33.653   9.591
 1671POPC   GL124973  40.703  33.733   9.179
 1671POPC   GL224974  41.030  33.557   9.187
 1671POPC   C1A24975  40.586  33.653   8.744
 1671POPC   D2A24976  40.375  33.809   8.368
 1671POPC   C3A24977  40.579  33.746   7.984
 1671POPC   C4A24978  40.669  33.703   7.550
 1671POPC   C1B24979  41.096  33.673   8.741
 1671POPC   C2B24980  40.939  33.876   8.354
 1671POPC   C3B24981  41.089  33.773   7.929
 1671POPC   C4B24982  41.017  33.374   7.690
 1672POPC   NC324983  14.063  40.575   9.697
 1672POPC   PO424984  13.526  40.170   9.476
 1672POPC   GL124985  13.588  40.016   9.053
 1672POPC   GL224986  13.451  40.281   8.979
 1672POPC   C1A24987  13.625  39.900   8.615
 1672POPC   D2A24988  13.783  40.109   8.257
 1672POPC   C3A24989  13.631  39.968   7.882
 1672POPC   C4A24990  13.670  39.617   7.649
 1672POPC   C1B24991  13.186  40.477   8.766
 1672POPC   C2B24992  13.456  40.442   8.456
 1672POPC   C3B24993  13.370  40.374   8.061
 1672POPC   C4B24994  13.172  40.279   7.698
 1673POPC   NC324995  27.280  23.474   9.401
 1673POPC   PO424996  27.757  23.470   9.823
 1673POPC   GL124997  27.704  23.711   9.289
 1673POPC   GL224998  27.456  23.871   9.108
 1673POPC   C1A24999  27.680  23.555   8.777
 1673POPC   D2A25000  27.673  23.336   8.349
 1673POPC   C3A25001  27.289  23.430   8.147
 1673POPC   C4A25002  27.325  23.571   7.714
 1673POPC   C1B25003  27.454  24.059   8.700
 1673POPC   C2B25004  27.536  23.851   8.298
 1673POPC   C3B25005  27.639  23.985   7.869
 1673POPC   C4B25006  27.376  24.099   7.547
 1674POPC   NC325007   3.373   2.208   9.550
 1674POPC   PO425008   3.778   1.757   9.391
 1674POPC   GL125009   3.499   1.892   9.119
 1674POPC   GL225010   3.584   2.193   9.074
 1674POPC   C1A25011   3.627   1.841   8.709
 1674POPC   D2A25012   3.466   1.988   8.366
 1674POPC   C3A25013   3.663   1.840   8.044
 1674POPC   C4A25014   3.577   1.751   7.642
 1674POPC   C1B25015   3.668   2.368   8.668
 1674POPC   C2B25016   3.611   2.446   8.222
 1674POPC   C3B25017   3.534   2.276   7.816
 1674POPC   C4B25018   3.477   2.177   7.404
 1675POPC   NC325019   2.276  13.131   9.394
 1675POPC   PO425020   1.691  12.841   9.477
 1675POPC   GL125021   1.780  12.914   9.086
 1675POPC   GL225022   2.014  13.125   8.959
 1675POPC   C1A25023   1.722  12.708   8.707
 1675POPC   D2A25024   1.986  12.575   8.376
 1675POPC   C3A25025   1.928  12.788   8.001
 1675POPC   C4A25026   1.863  13.052   7.662
 1675POPC   C1B25027   2.206  12.817   8.783
 1675POPC   C2B25028   2.444  12.798   8.440
 1675POPC   C3B25029   2.447  12.729   8.041
 1675POPC   C4B25030   2.349  13.060   7.783
 1676POPC   NC325031  26.055  43.438   9.517
 1676POPC   PO425032  26.460  43.991   9.581
 1676POPC   GL125033  26.188  43.856   9.236
 1676POPC   GL225034  25.820  43.879   9.279
 1676POPC   C1A25035  26.308  43.887   8.808
 1676POPC   D2A25036  26.505  43.843   8.397
 1676POPC   C3A25037  26.283  43.990   8.011
 1676POPC   C4A25038  26.068  43.772   7.683
 1676POPC   C1B25039  25.794  44.065   8.864
 1676POPC   C2B25040  25.962  43.986   8.449
 1676POPC   C3B25041  25.761  43.894   8.068
 1676POPC   C4B25042  25.572  43.932   7.675
 1677POPC   NC325043  43.524  34.306   9.545
 1677POPC   PO425044  44.107  34.750   9.521
 1677POPC   GL125045  43.958  34.627   9.087
 1677POPC   GL225046  43.705  34.396   9.087
 1677POPC   C1A25047  43.924  34.887   8.669
 1677POPC   D2A25048  44.070  34.691   8.271
 1677POPC   C3A25049  43.869  34.711   7.896
 1677POPC   C4A25050  43.920  34.447   7.550
 1677POPC   C1B25051  43.750  34.420   8.662
 1677POPC   C2B25052  43.576  34.631   8.333
 1677POPC   C3B25053  43.614  34.309   8.042
 1677POPC   C4B25054  43.438  34.438   7.692
 1678POPC   NC325055  36.612  26.299   9.566
 1678POPC   PO425056  37.034  25.698   9.620
 1678POPC   GL125057  37.058  25.835   9.130
 1678POPC   GL225058  36.863  25.700   8.924
 1678POPC   C1A25059  37.018  26.119   8.703
 1678POPC   D2A25060  37.134  26.306   8.281
 1678POPC   C3A25061  36.993  26.151   7.845
 1678POPC   C4A25062  36.905  25.769   7.592
 1678POPC   C1B25063  36.565  25.823   8.655
 1678POPC   C2B25064  36.668  26.068   8.314
 1678POPC   C3B25065  36.612  25.835   7.987
 1678POPC   C4B25066  36.419  26.043   7.692
 1679POPC   NC325067   5.537  12.510   9.429
 1679POPC   PO425068   5.943  12.146   9.833
 1679POPC   GL125069   5.906  12.115   9.333
 1679POPC   GL225070   5.828  11.777   9.178
 1679POPC   C1A25071   5.772  12.189   8.877
 1679POPC   D2A25072   5.806  11.974   8.496
 1679POPC   C3A25073   5.763  12.196   8.138
 1679POPC   C4A25074   5.872  12.134   7.707
 1679POPC   C1B25075   5.540  11.676   8.800
 1679POPC   C2B25076   5.378  11.794   8.315
 1679POPC   C3B25077   5.599  11.758   7.895
 1679POPC   C4B25078   5.611  11.856   7.382
 1680POPC   NC325079  40.891  44.095   9.533
 1680POPC   PO425080  40.312  43.916   9.328
 1680POPC   GL125081  40.706  43.854   9.115
 1680POPC   GL225082  40.953  44.129   9.027
 1680POPC   C1A25083  40.666  43.825   8.684
 1680POPC   D2A25084  40.436  43.993   8.352
 1680POPC   C3A25085  40.499  43.676   8.075
 1680POPC   C4A25086  40.608  43.628   7.671
 1680POPC   C1B25087  40.991  44.222   8.612
 1680POPC   C2B25088  40.910  44.059   8.215
 1680POPC   C3B25089  40.680  44.105   7.834
 1680POPC   C4B25090  40.867  44.370   7.522
 1681POPC   NC325091   5.366  25.006   9.463
 1681POPC   PO425092   4.728  25.086   9.538
 1681POPC   GL125093   5.041  25.346   9.277
 1681POPC   GL225094   5.252  25.603   9.183
 1681POPC   C1A25095   5.188  25.200   8.853
 1681POPC   D2A25096   5.189  25.078   8.414
 1681POPC   C3A25097   5.012  25.354   8.164
 1681POPC   C4A25098   4.962  25.173   7.806
 1681POPC   C1B25099   4.987  25.667   8.839
 1681POPC   C2B25100   5.150  25.758   8.440
 1681POPC   C3B25101   5.371  25.693   8.026
 1681POPC   C4B25102   5.180  25.587   7.631
 1682POPC   NC325103  13.659   9.231   9.731
 1682POPC   PO425104  13.815   9.791   9.456
 1682POPC   GL125105  13.609   9.757   9.097
 1682POPC   GL225106  13.298   9.618   9.194
 1682POPC   C1A25107  13.572  10.017   8.764
 1682POPC   D2A25108  13.788  10.115   8.397
 1682POPC   C3A25109  13.775   9.857   8.024
 1682POPC   C4A25110  13.653  10.087   7.686
 1682POPC   C1B25111  13.307   9.534   8.740
 1682POPC   C2B25112  13.383   9.769   8.365
 1682POPC   C3B25113  13.253   9.782   7.953
 1682POPC   C4B25114  13.461   9.614   7.624
 1683POPC   NC325115  11.562  16.399   9.491
 1683POPC   PO425116  12.111  16.718   9.745
 1683POPC   GL125117  12.098  16.633   9.287
 1683POPC   GL225118  11.769  16.654   9.114
 1683POPC   C1A25119  12.221  16.528   8.863
 1683POPC   D2A25120  11.861  16.548   8.589
 1683POPC   C3A25121  11.838  16.683   8.157
 1683POPC   C4A25122  11.745  16.476   7.773
 1683POPC   C1B25123  11.995  16.977   8.877
 1683POPC   C2B25124  12.143  17.121   8.466
 1683POPC   C3B25125  12.009  17.242   8.060
 1683POPC   C4B25126  11.814  17.004   7.732
 1684POPC   NC325127  27.018  41.797   9.918
 1684POPC   PO425128  26.537  41.506   9.576
 1684POPC   GL125129  26.731  41.618   9.182
 1684POPC   GL225130  26.964  41.859   9.077
 1684POPC   C1A25131  26.883  41.422   8.815
 1684POPC   D2A25132  26.883  41.577   8.417
 1684POPC   C3A25133  26.858  41.338   8.038
 1684POPC   C4A25134  27.002  41.673   7.755
 1684POPC   C1B25135  26.580  41.865   8.791
 1684POPC   C2B25136  26.414  41.750   8.432
 1684POPC   C3B25137  26.460  41.634   8.017
 1684POPC   C4B25138  26.389  41.849   7.683
 1685POPC   NC325139  43.268  26.376   9.263
 1685POPC   PO425140  42.980  26.800   9.636
 1685POPC   GL125141  42.894  26.724   9.169
 1685POPC   GL225142  42.867  26.389   8.974
 1685POPC   C1A25143  42.892  26.931   8.755
 1685POPC   D2A25144  42.644  26.986   8.359
 1685POPC   C3A25145  42.807  27.059   7.945
 1685POPC   C4A25146  42.999  27.030   7.492
 1685POPC   C1B25147  43.170  26.512   8.638
 1685POPC   C2B25148  43.089  26.645   8.226
 1685POPC   C3B25149  43.294  26.485   7.892
 1685POPC   C4B25150  43.250  26.590   7.454
 1686POPC   NC325151   5.561  41.320   9.562
 1686POPC   PO425152   5.170  41.873   9.488
 1686POPC   GL125153   5.016  41.652   9.134
 1686POPC   GL225154   5.247  41.422   9.163
 1686POPC   C1A25155   4.929  41.529   8.734
 1686POPC   D2A25156   4.919  41.797   8.364
 1686POPC   C3A25157   4.812  41.575   7.998
 1686POPC   C4A25158   4.870  41.451   7.566
 1686POPC   C1B25159   5.437  41.494   8.791
 1686POPC   C2B25160   5.320  41.451   8.386
 1686POPC   C3B25161   5.253  41.326   7.968
 1686POPC   C4B25162   5.347  41.671   7.695
 1687POPC   NC325163  42.447  17.678   9.383
 1687POPC   PO425164  42.944  17.177   9.542
 1687POPC   GL125165  42.674  17.276   9.135
 1687POPC   GL225166  42.297  17.304   9.059
 1687POPC   C1A25167  42.597  17.480   8.697
 1687POPC   D2A25168  42.337  17.361   8.346
 1687POPC   C3A25169  42.305  17.629   8.002
 1687POPC   C4A25170  42.443  17.508   7.611
 1687POPC   C1B25171  42.073  17.585   8.714
 1687POPC   C2B25172  41.898  17.833   8.328
 1687POPC   C3B25173  41.996  18.065   7.939
 1687POPC   C4B25174  42.245  18.001   7.597
 1688POPC   NC325175  33.554  27.487   9.673
 1688POPC   PO425176  34.173  27.607   9.687
 1688POPC   GL125177  34.021  27.654   9.256
 1688POPC   GL225178  34.241  27.877   9.069
 1688POPC   C1A25179  33.672  27.520   8.964
 1688POPC   D2A25180  33.537  27.554   8.518
 1688POPC   C3A25181  33.715  27.396   8.171
 1688POPC   C4A25182  33.743  27.667   7.824
 1688POPC   C1B25183  34.129  27.604   8.723
 1688POPC   C2B25184  34.024  27.757   8.327
 1688POPC   C3B25185  34.247  27.641   7.970
 1688POPC   C4B25186  34.167  27.458   7.611
 1689POPC   NC325187   9.859   8.036   9.267
 1689POPC   PO425188   9.746   8.680   9.393
 1689POPC   GL125189   9.556   8.365   9.044
 1689POPC   GL225190   9.486   7.916   8.999
 1689POPC   C1A25191   9.623   8.238   8.631
 1689POPC   D2A25192   9.842   8.209   8.263
 1689POPC   C3A25193   9.607   8.255   7.890
 1689POPC   C4A25194   9.982   8.208   7.681
 1689POPC   C1B25195   9.694   7.716   8.675
 1689POPC   C2B25196   9.536   7.796   8.278
 1689POPC   C3B25197   9.613   7.721   7.869
 1689POPC   C4B25198   9.351   7.641   7.489
 1690POPC   NC325199  40.856  30.546   9.400
 1690POPC   PO425200  40.439  31.115   9.412
 1690POPC   GL125201  40.587  30.852   9.082
 1690POPC   GL225202  40.931  30.929   9.040
 1690POPC   C1A25203  40.590  30.604   8.675
 1690POPC   D2A25204  40.839  30.521   8.262
 1690POPC   C3A25205  40.548  30.521   7.914
 1690POPC   C4A25206  40.360  30.900   7.793
 1690POPC   C1B25207  41.048  30.789   8.655
 1690POPC   C2B25208  41.069  30.994   8.259
 1690POPC   C3B25209  40.885  30.901   7.863
 1690POPC   C4B25210  40.951  30.531   7.597
 1691POPC   NC325211   8.802   7.965   9.486
 1691POPC   PO425212   9.464   8.105   9.502
 1691POPC   GL125213   9.109   8.182   9.160
 1691POPC   GL225214   8.855   8.297   9.003
 1691POPC   C1A25215   9.125   8.036   8.676
 1691POPC   D2A25216   9.247   8.213   8.287
 1691POPC   C3A25217   9.135   8.000   7.918
 1691POPC   C4A25218   9.193   8.123   7.497
 1691POPC   C1B25219   8.602   8.106   8.683
 1691POPC   C2B25220   8.725   8.141   8.258
 1691POPC   C3B25221   8.582   8.003   7.858
 1691POPC   C4B25222   8.693   8.067   7.423
 1692POPC   NC325223  28.254  36.631   9.560
 1692POPC   PO425224  28.775  37.016   9.827
 1692POPC   GL125225  28.503  37.001   9.366
 1692POPC   GL225226  28.628  36.693   9.219
 1692POPC   C1A25227  28.327  36.974   8.903
 1692POPC   D2A25228  28.330  37.202   8.488
 1692POPC   C3A25229  28.629  37.078   8.171
 1692POPC   C4A25230  28.498  36.797   7.881
 1692POPC   C1B25231  28.617  36.552   8.788
 1692POPC   C2B25232  28.394  36.653   8.391
 1692POPC   C3B25233  28.052  36.846   8.132
 1692POPC   C4B25234  28.026  36.804   7.667
 1693POPC   NC325235  32.828   8.965   9.443
 1693POPC   PO425236  33.520   9.125   9.524
 1693POPC   GL125237  33.259   9.002   9.144
 1693POPC   GL225238  33.444   8.734   9.091
 1693POPC   C1A25239  32.920   8.999   8.752
 1693POPC   D2A25240  32.714   8.855   8.319
 1693POPC   C3A25241  32.936   8.993   7.927
 1693POPC   C4A25242  33.226   9.332   7.737
 1693POPC   C1B25243  33.378   8.777   8.694
 1693POPC   C2B25244  33.223   8.781   8.323
 1693POPC   C3B25245  33.452   8.808   7.992
 1693POPC   C4B25246  33.347   8.861   7.622
 1694POPC   NC325247  10.453  17.561   9.370
 1694POPC   PO425248  11.018  17.771   9.545
 1694POPC   GL125249  10.975  17.655   9.119
 1694POPC   GL225250  10.855  17.323   9.053
 1694POPC   C1A25251  10.759  17.693   8.724
 1694POPC   D2A25252  10.783  17.557   8.268
 1694POPC   C3A25253  10.508  17.491   7.945
 1694POPC   C4A25254  10.606  17.492   7.526
 1694POPC   C1B25255  10.586  17.234   8.695
 1694POPC   C2B25256  10.359  17.130   8.298
 1694POPC   C3B25257  10.193  17.090   7.889
 1694POPC   C4B25258  10.098  17.357   7.518
 1695POPC   NC325259  10.169   2.160   9.450
 1695POPC   PO425260  10.677   1.710   9.523
 1695POPC   GL125261  10.500   1.942   9.157
 1695POPC   GL225262  10.610   2.300   9.187
 1695POPC   C1A25263  10.245   2.104   8.784
 1695POPC   D2A25264  10.204   1.915   8.356
 1695POPC   C3A25265  10.508   1.833   8.052
 1695POPC   C4A25266  10.389   2.050   7.692
 1695POPC   C1B25267  10.595   2.472   8.777
 1695POPC   C2B25268  10.594   2.237   8.403
 1695POPC   C3B25269  10.683   2.317   7.992
 1695POPC   C4B25270  10.835   2.270   7.582
 1696POPC   NC325271   1.513   1.365   9.403
 1696POPC   PO425272   1.027   0.955   9.535
 1696POPC   GL125273   0.919   1.189   9.148
 1696POPC   GL225274   1.043   1.537   9.147
 1696POPC   C1A25275   1.048   1.240   8.713
 1696POPC   D2A25276   1.241   1.196   8.308
 1696POPC   C3A25277   1.020   1.177   7.929
 1696POPC   C4A25278   1.345   1.000   7.687
 1696POPC   C1B25279   1.359   1.640   8.783
 1696POPC   C2B25280   1.276   1.701   8.333
 1696POPC   C3B25281   1.433   1.571   7.940
 1696POPC   C4B25282   1.292   1.472   7.517
 1697POPC   NC325283   9.404  35.371   9.567
 1697POPC   PO425284   8.822  34.999   9.466
 1697POPC   GL125285   9.112  35.151   9.136
 1697POPC   GL225286   9.138  35.519   9.162
 1697POPC   C1A25287   8.995  35.354   8.711
 1697POPC   D2A25288   9.038  35.138   8.339
 1697POPC   C3A25289   8.700  35.223   8.091
 1697POPC   C4A25290   8.717  35.145   7.688
 1697POPC   C1B25291   9.400  35.679   8.797
 1697POPC   C2B25292   9.343  35.582   8.359
 1697POPC   C3B25293   9.186  35.424   7.954
 1697POPC   C4B25294   8.995  35.554   7.581
 1698POPC   NC325295  34.877  19.329   9.518
 1698POPC   PO425296  34.332  18.948   9.596
 1698POPC   GL125297  34.412  18.809   9.193
 1698POPC   GL225298  34.769  18.880   9.236
 1698POPC   C1A25299  34.243  18.901   8.802
 1698POPC   D2A25300  34.399  19.107   8.470
 1698POPC   C3A25301  34.374  18.831   8.124
 1698POPC   C4A25302  34.457  18.984   7.729
 1698POPC   C1B25303  34.782  18.967   8.806
 1698POPC   C2B25304  34.852  18.911   8.367
 1698POPC   C3B25305  34.873  18.815   7.972
 1698POPC   C4B25306  34.967  19.046   7.652
 1699POPC   NC325307  23.025  43.321   9.529
 1699POPC   PO425308  22.607  42.910   9.393
 1699POPC   GL125309  23.005  42.978   9.122
 1699POPC   GL225310  23.154  43.310   9.052
 1699POPC   C1A25311  23.090  42.980   8.676
 1699POPC   D2A25312  23.295  43.053   8.277
 1699POPC   C3A25313  23.116  42.864   7.908
 1699POPC   C4A25314  23.072  42.993   7.482
 1699POPC   C1B25315  22.894  43.502   8.722
 1699POPC   C2B25316  22.853  43.543   8.262
 1699POPC   C3B25317  22.754  43.245   7.900
 1699POPC   C4B25318  22.681  43.332   7.453
 1700POPC   NC325319  14.548  34.866   9.487
 1700POPC   PO425320  14.603  35.499   9.447
 1700POPC   GL125321  14.555  35.224   9.105
 1700POPC   GL225322  14.207  35.285   9.038
 1700POPC   C1A25323  14.785  35.205   8.711
 1700POPC   D2A25324  14.803  35.080   8.291
 1700POPC   C3A25325  14.763  35.433   8.053
 1700POPC   C4A25326  14.447  35.678   7.863
 1700POPC   C1B25327  14.066  35.136   8.659
 1700POPC   C2B25328  14.301  35.251   8.299
 1700POPC   C3B25329  14.289  35.123   7.901
 1700POPC   C4B25330  13.902  34.989   7.700
 1701POPC   NC325331  14.885  11.410   9.514
 1701POPC   PO425332  15.531  10.965   9.523
 1701POPC   GL125333  15.269  11.155   9.195
 1701POPC   GL225334  14.906  11.147   9.082
 1701POPC   C1A25335  15.289  11.100   8.754
 1701POPC   D2A25336  15.355  10.870   8.403
 1701POPC   C3A25337  15.094  10.946   8.059
 1701POPC   C4A25338  15.288  11.137   7.719
 1701POPC   C1B25339  14.902  11.431   8.707
 1701POPC   C2B25340  15.019  11.419   8.275
 1701POPC   C3B25341  14.981  11.493   7.843
 1701POPC   C4B25342  15.038  11.568   7.363
 1702POPC   NC325343  35.466  22.307   9.724
 1702POPC   PO425344  35.373  22.975   9.680
 1702POPC   GL125345  35.348  23.059   9.239
 1702POPC   GL225346  35.268  22.740   9.152
 1702POPC   C1A25347  35.243  23.128   8.788
 1702POPC   D2A25348  35.355  23.261   8.374
 1702POPC   C3A25349  35.185  23.136   7.998
 1702POPC   C4A25350  35.415  23.113   7.609
 1702POPC   C1B25351  35.008  22.658   8.810
 1702POPC   C2B25352  35.121  22.750   8.367
 1702POPC   C3B25353  35.095  22.613   7.915
 1702POPC   C4B25354  35.205  22.667   7.430
 1703POPC   NC325355  29.854  14.298   9.646
 1703POPC   PO425356  30.386  14.585   9.729
 1703POPC   GL125357  30.076  14.596   9.277
 1703POPC   GL225358  29.738  14.444   9.154
 1703POPC   C1A25359  30.078  14.557   8.785
 1703POPC   D2A25360  29.746  14.396   8.490
 1703POPC   C3A25361  29.836  14.201   8.087
 1703POPC   C4A25362  30.172  14.189   7.748
 1703POPC   C1B25363  29.647  14.809   8.861
 1703POPC   C2B25364  29.797  14.909   8.431
 1703POPC   C3B25365  29.818  14.722   8.020
 1703POPC   C4B25366  29.709  14.462   7.651
 1704POPC   NC325367  20.053  24.944   9.581
 1704POPC   PO425368  19.837  24.303   9.474
 1704POPC   GL125369  19.996  24.368   9.094
 1704POPC   GL225370  20.237  24.642   9.165
 1704POPC   C1A25371  19.869  24.219   8.695
 1704POPC   D2A25372  19.890  24.476   8.355
 1704POPC   C3A25373  19.766  24.355   7.967
 1704POPC   C4A25374  19.526  24.643   7.725
 1704POPC   C1B25375  20.054  24.738   8.763
 1704POPC   C2B25376  20.187  24.918   8.399
 1704POPC   C3B25377  20.033  24.818   7.976
 1704POPC   C4B25378  19.997  24.658   7.557
 1705POPC   NC325379  32.702   8.265   9.467
 1705POPC   PO425380  32.080   7.977   9.581
 1705POPC   GL125381  32.261   8.189   9.174
 1705POPC   GL225382  32.521   8.411   9.028
 1705POPC   C1A25383  32.137   8.196   8.733
 1705POPC   D2A25384  31.897   8.368   8.359
 1705POPC   C3A25385  32.029   8.211   7.935
 1705POPC   C4A25386  32.178   7.869   7.632
 1705POPC   C1B25387  32.445   8.599   8.668
 1705POPC   C2B25388  32.392   8.371   8.305
 1705POPC   C3B25389  32.535   8.151   7.941
 1705POPC   C4B25390  32.791   8.140   7.607
 1706POPC   NC325391  20.118   0.076   9.496
 1706POPC   PO425392  19.673   0.658   9.391
 1706POPC   GL125393  19.874   0.388   9.147
 1706POPC   GL225394  20.123   0.657   9.063
 1706POPC   C1A25395  19.727   0.178   8.778
 1706POPC   D2A25396  19.894   0.138   8.406
 1706POPC   C3A25397  19.706   0.094   7.992
 1706POPC   C4A25398  19.877   0.193   7.596
 1706POPC   C1B25399  19.863   0.675   8.705
 1706POPC   C2B25400  19.946   0.672   8.292
 1706POPC   C3B25401  19.811   0.615   7.896
 1706POPC   C4B25402  20.033   0.672   7.514
 1707POPC   NC325403  18.986   6.173   9.533
 1707POPC   PO425404  19.240   6.914   9.539
 1707POPC   GL125405  19.360   6.836   9.173
 1707POPC   GL225406  19.304   6.487   9.231
 1707POPC   C1A25407  19.155   6.822   8.785
 1707POPC   D2A25408  18.958   6.606   8.445
 1707POPC   C3A25409  18.949   6.764   8.051
 1707POPC   C4A25410  19.254   6.904   7.808
 1707POPC   C1B25411  19.265   6.335   8.816
 1707POPC   C2B25412  19.457   6.506   8.494
 1707POPC   C3B25413  19.344   6.450   8.119
 1707POPC   C4B25414  19.261   6.348   7.720
 1708POPC   NC325415  33.454  19.892   9.381
 1708POPC   PO425416  34.124  19.703   9.390
 1708POPC   GL125417  33.910  19.990   9.167
 1708POPC   GL225418  34.160  20.134   8.999
 1708POPC   C1A25419  33.697  20.095   8.786
 1708POPC   D2A25420  33.816  19.979   8.398
 1708POPC   C3A25421  33.508  19.899   8.120
 1708POPC   C4A25422  33.528  20.017   7.710
 1708POPC   C1B25423  34.188  19.744   8.743
 1708POPC   C2B25424  34.292  19.610   8.341
 1708POPC   C3B25425  34.068  19.776   8.004
 1708POPC   C4B25426  34.039  20.076   7.696
 1709POPC   NC325427   8.237  19.699   9.586
 1709POPC   PO425428   7.559  19.860   9.598
 1709POPC   GL125429   7.888  19.890   9.195
 1709POPC   GL225430   8.261  19.940   9.118
 1709POPC   C1A25431   7.913  19.942   8.702
 1709POPC   D2A25432   7.792  19.997   8.250
 1709POPC   C3A25433   7.818  19.724   7.909
 1709POPC   C4A25434   7.930  19.871   7.490
 1709POPC   C1B25435   8.440  19.994   8.697
 1709POPC   C2B25436   8.272  19.864   8.300
 1709POPC   C3B25437   8.289  19.895   7.856
 1709POPC   C4B25438   8.509  19.720   7.524
 1710POPC   NC325439  35.386  24.532   9.579
 1710POPC   PO425440  34.716  24.395   9.438
 1710POPC   GL125441  35.141  24.376   9.130
 1710POPC   GL225442  35.465  24.612   9.091
 1710POPC   C1A25443  35.344  24.313   8.701
 1710POPC   D2A25444  35.359  24.659   8.394
 1710POPC   C3A25445  35.387  24.498   8.003
 1710POPC   C4A25446  35.597  24.147   7.811
 1710POPC   C1B25447  35.506  24.953   8.796
 1710POPC   C2B25448  35.651  25.099   8.411
 1710POPC   C3B25449  35.632  24.959   8.002
 1710POPC   C4B25450  35.616  24.739   7.630
 1711POPC   NC325451   0.753  13.532   9.265
 1711POPC   PO425452   1.386  13.708   9.424
 1711POPC   GL125453   1.186  13.857   9.078
 1711POPC   GL225454   1.227  13.512   8.964
 1711POPC   C1A25455   1.247  13.903   8.630
 1711POPC   D2A25456   1.358  13.529   8.400
 1711POPC   C3A25457   1.389  13.719   8.051
 1711POPC   C4A25458   1.088  13.722   7.754
 1711POPC   C1B25459   1.522  13.207   8.763
 1711POPC   C2B25460   1.415  12.993   8.406
 1711POPC   C3B25461   1.557  13.171   8.057
 1711POPC   C4B25462   1.510  13.396   7.701
 1712POPC   NC325463  21.832   1.563   9.445
 1712POPC   PO425464  21.945   0.866   9.495
 1712POPC   GL125465  21.966   0.963   9.093
 1712POPC   GL225466  21.705   1.207   9.093
 1712POPC   C1A25467  22.320   1.089   8.812
 1712POPC   D2A25468  22.371   1.492   8.536
 1712POPC   C3A25469  22.483   1.411   8.110
 1712POPC   C4A25470  22.415   1.028   7.874
 1712POPC   C1B25471  21.885   1.318   8.705
 1712POPC   C2B25472  22.083   1.106   8.333
 1712POPC   C3B25473  21.975   1.264   7.924
 1712POPC   C4B25474  21.977   1.132   7.485
 1713POPC   NC325475  37.275  43.764   9.505
 1713POPC   PO425476  36.762  43.438   9.614
 1713POPC   GL125477  36.863  43.670   9.217
 1713POPC   GL225478  36.706  43.962   9.233
 1713POPC   C1A25479  37.036  43.781   8.780
 1713POPC   D2A25480  37.185  43.692   8.348
 1713POPC   C3A25481  36.954  43.814   7.974
 1713POPC   C4A25482  36.927  43.615   7.550
 1713POPC   C1B25483  36.763  44.197   8.836
 1713POPC   C2B25484  36.882  44.380   8.424
 1713POPC   C3B25485  37.019  44.328   7.981
 1713POPC   C4B25486  37.053  44.129   7.558
 1714POPC   NC325487  35.247   3.087   9.469
 1714POPC   PO425488  35.549   2.532   9.486
 1714POPC   GL125489  35.337   2.725   9.090
 1714POPC   GL225490  35.152   3.001   8.982
 1714POPC   C1A25491  35.185   2.601   8.661
 1714POPC   D2A25492  35.380   2.645   8.241
 1714POPC   C3A25493  35.186   2.876   7.892
 1714POPC   C4A25494  34.930   3.084   7.570
 1714POPC   C1B25495  35.496   3.015   8.648
 1714POPC   C2B25496  35.722   3.051   8.236
 1714POPC   C3B25497  35.715   2.965   7.792
 1714POPC   C4B25498  35.932   2.973   7.409
 1715POPC   NC325499  22.507  15.210   9.450
 1715POPC   PO425500  21.920  14.897   9.422
 1715POPC   GL125501  22.124  15.104   9.135
 1715POPC   GL225502  22.378  14.819   9.149
 1715POPC   C1A25503  22.225  15.271   8.755
 1715POPC   D2A25504  22.228  15.441   8.346
 1715POPC   C3A25505  22.221  15.139   8.017
 1715POPC   C4A25506  22.259  15.093   7.642
 1715POPC   C1B25507  22.156  14.749   8.778
 1715POPC   C2B25508  22.024  14.922   8.423
 1715POPC   C3B25509  21.795  14.846   8.052
 1715POPC   C4B25510  21.785  14.942   7.645
 1716POPC   NC325511  30.857  43.000   9.511
 1716POPC   PO425512  30.219  43.316   9.461
 1716POPC   GL125513  30.615  43.295   9.173
 1716POPC   GL225514  30.704  42.959   9.043
 1716POPC   C1A25515  30.880  43.370   8.782
 1716POPC   D2A25516  30.642  43.443   8.396
 1716POPC   C3A25517  30.748  43.174   8.065
 1716POPC   C4A25518  30.973  43.260   7.688
 1716POPC   C1B25519  30.579  42.980   8.617
 1716POPC   C2B25520  30.264  42.872   8.324
 1716POPC   C3B25521  30.319  42.804   7.896
 1716POPC   C4B25522  30.664  42.838   7.672
 1717POPC   NC325523  10.221  21.149   9.340
 1717POPC   PO425524  10.363  20.520   9.420
 1717POPC   GL125525  10.579  20.488   9.045
 1717POPC   GL225526  10.542  20.866   8.984
 1717POPC   C1A25527  10.647  20.387   8.615
 1717POPC   D2A25528  10.888  20.141   8.321
 1717POPC   C3A25529  10.847  20.397   7.968
 1717POPC   C4A25530  10.815  20.837   7.874
 1717POPC   C1B25531  10.208  20.654   8.724
 1717POPC   C2B25532  10.211  20.403   8.318
 1717POPC   C3B25533  10.355  20.570   7.911
 1717POPC   C4B25534  10.165  20.944   7.670
 1718POPC   NC325535  19.969  34.500   9.506
 1718POPC   PO425536  19.490  34.083   9.477
 1718POPC   GL125537  19.564  34.414   9.126
 1718POPC   GL225538  19.608  34.761   9.223
 1718POPC   C1A25539  19.705  34.580   8.692
 1718POPC   D2A25540  19.905  34.615   8.282
 1718POPC   C3A25541  19.946  34.773   7.856
 1718POPC   C4A25542  19.839  34.696   7.424
 1718POPC   C1B25543  19.359  34.893   8.874
 1718POPC   C2B25544  19.267  34.835   8.430
 1718POPC   C3B25545  19.474  34.818   8.055
 1718POPC   C4B25546  19.556  35.056   7.678
 1719POPC   NC325547  35.039  42.101   9.660
 1719POPC   PO425548  34.991  42.771   9.482
 1719POPC   GL125549  35.160  42.637   9.136
 1719POPC   GL225550  35.177  42.274   9.177
 1719POPC   C1A25551  35.107  42.524   8.733
 1719POPC   D2A25552  35.244  42.315   8.361
 1719POPC   C3A25553  35.181  42.531   7.971
 1719POPC   C4A25554  35.514  42.649   7.699
 1719POPC   C1B25555  35.482  42.149   8.832
 1719POPC   C2B25556  35.728  42.136   8.424
 1719POPC   C3B25557  35.633  42.260   8.002
 1719POPC   C4B25558  35.333  42.163   7.630
 1720POPC   NC325559   8.792  29.336   9.537
 1720POPC   PO425560   9.111  28.732   9.504
 1720POPC   GL125561   9.233  29.022   9.175
 1720POPC   GL225562   9.184  29.372   9.163
 1720POPC   C1A25563   9.017  29.087   8.760
 1720POPC   D2A25564   9.080  29.208   8.332
 1720POPC   C3A25565   8.980  28.887   8.030
 1720POPC   C4A25566   9.109  28.752   7.623
 1720POPC   C1B25567   8.935  29.612   8.846
 1720POPC   C2B25568   8.703  29.638   8.468
 1720POPC   C3B25569   8.674  29.422   8.067
 1720POPC   C4B25570   9.032  29.330   7.790
 1721POPC   NC325571   0.033  19.088   9.484
 1721POPC   PO425572   0.643  19.035   9.372
 1721POPC   GL125573   0.587  19.058   9.011
 1721POPC   GL225574   0.300  19.306   9.070
 1721POPC   C1A25575   0.798  18.918   8.659
 1721POPC   D2A25576   0.696  18.812   8.264
 1721POPC   C3A25577   0.270  18.836   8.051
 1721POPC   C4A25578   0.552  18.892   7.741
 1721POPC   C1B25579   0.405  19.304   8.631
 1721POPC   C2B25580   0.458  19.274   8.229
 1721POPC   C3B25581   0.354  19.351   7.828
 1721POPC   C4B25582   0.118  19.570   7.529
 1722POPC   NC325583   6.248  25.000   9.569
 1722POPC   PO425584   5.678  25.399   9.431
 1722POPC   GL125585   5.678  25.261   9.047
 1722POPC   GL225586   5.978  25.058   9.033
 1722POPC   C1A25587   5.636  25.059   8.651
 1722POPC   D2A25588   5.622  25.331   8.297
 1722POPC   C3A25589   5.461  25.165   7.969
 1722POPC   C4A25590   5.699  24.839   7.788
 1722POPC   C1B25591   6.022  25.365   8.649
 1722POPC   C2B25592   6.339  25.413   8.352
 1722POPC   C3B25593   6.307  25.262   7.960
 1722POPC   C4B25594   5.894  25.401   7.837
 1723POPC   NC325595  18.575   4.286   9.538
 1723POPC   PO425596  18.012   4.038   9.390
 1723POPC   GL125597  18.369   4.193   9.065
 1723POPC   GL225598  18.727   4.040   9.080
 1723POPC   C1A25599  18.389   4.357   8.606
 1723POPC   D2A25600  18.392   4.133   8.178
 1723POPC   C3A25601  18.189   4.302   7.792
 1723POPC   C4A25602  17.931   4.368   7.420
 1723POPC   C1B25603  18.748   4.001   8.601
 1723POPC   C2B25604  18.820   4.375   8.305
 1723POPC   C3B25605  18.745   4.371   7.878
 1723POPC   C4B25606  18.593   4.234   7.505
 1724POPC   NC325607  36.501   3.896   9.198
 1724POPC   PO425608  36.189   4.359   9.547
 1724POPC   GL125609  36.288   4.496   9.140
 1724POPC   GL225610  35.968   4.403   9.069
 1724POPC   C1A25611  36.251   4.425   8.678
 1724POPC   D2A25612  36.046   4.543   8.306
 1724POPC   C3A25613  36.239   4.375   7.946
 1724POPC   C4A25614  36.423   4.160   7.603
 1724POPC   C1B25615  35.820   4.711   8.760
 1724POPC   C2B25616  35.593   4.751   8.386
 1724POPC   C3B25617  35.651   4.627   7.939
 1724POPC   C4B25618  35.992   4.751   7.675
 1725POPC   NC325619  26.187  24.709   9.414
 1725POPC   PO425620  25.601  24.473   9.459
 1725POPC   GL125621  25.843  24.513   9.093
 1725POPC   GL225622  26.120  24.251   9.168
 1725POPC   C1A25623  25.900  24.408   8.659
 1725POPC   D2A25624  25.921  24.206   8.245
 1725POPC   C3A25625  25.852  24.575   8.018
 1725POPC   C4A25626  26.073  24.821   7.699
 1725POPC   C1B25627  26.377  24.433   8.836
 1725POPC   C2B25628  26.364  24.380   8.422
 1725POPC   C3B25629  26.363  24.542   8.006
 1725POPC   C4B25630  26.151  24.278   7.752
 1726POPC   NC325631  35.943  17.682   9.309
 1726POPC   PO425632  36.370  17.259   9.548
 1726POPC   GL125633  36.387  17.424   9.162
 1726POPC   GL225634  36.092  17.231   9.092
 1726POPC   C1A25635  36.285  17.557   8.732
 1726POPC   D2A25636  35.914  17.753   8.496
 1726POPC   C3A25637  35.989  17.730   8.045
 1726POPC   C4A25638  36.034  17.548   7.637
 1726POPC   C1B25639  35.847  17.289   8.746
 1726POPC   C2B25640  36.038  17.272   8.361
 1726POPC   C3B25641  35.907  17.164   7.977
 1726POPC   C4B25642  35.603  17.220   7.706
 1727POPC   NC325643  34.291  23.240   9.472
 1727POPC   PO425644  33.637  22.864   9.547
 1727POPC   GL125645  33.726  22.781   9.171
 1727POPC   GL225646  34.029  22.881   9.173
 1727POPC   C1A25647  33.578  22.751   8.758
 1727POPC   D2A25648  33.849  22.815   8.419
 1727POPC   C3A25649  33.636  22.858   8.040
 1727POPC   C4A25650  33.856  22.885   7.670
 1727POPC   C1B25651  34.146  22.987   8.802
 1727POPC   C2B25652  34.223  23.219   8.446
 1727POPC   C3B25653  34.185  23.046   8.049
 1727POPC   C4B25654  34.184  23.296   7.686
 1728POPC   NC325655   5.485  44.529   9.299
 1728POPC   PO425656   5.939  44.816   9.724
 1728POPC   GL125657   6.057  44.685   9.261
 1728POPC   GL225658   6.092  44.318   9.129
 1728POPC   C1A25659   5.906  44.734   8.807
 1728POPC   D2A25660   5.880  44.503   8.415
 1728POPC   C3A25661   5.977  44.766   8.091
 1728POPC   C4A25662   5.909  44.760   7.688
 1728POPC   C1B25663   5.745  44.201   8.809
 1728POPC   C2B25664   5.469  44.153   8.444
 1728POPC   C3B25665   5.493  44.312   8.009
 1728POPC   C4B25666   5.292  44.082   7.665
 1729POPC   NC325667   6.957  25.985   9.429
 1729POPC   PO425668   7.583  26.033   9.598
 1729POPC   GL125669   7.483  26.008   9.187
 1729POPC   GL225670   7.192  26.183   9.012
 1729POPC   C1A25671   7.524  25.744   8.856
 1729POPC   D2A25672   7.470  26.012   8.523
 1729POPC   C3A25673   7.521  25.849   8.150
 1729POPC   C4A25674   7.426  26.113   7.855
 1729POPC   C1B25675   7.017  25.866   8.755
 1729POPC   C2B25676   7.039  25.707   8.372
 1729POPC   C3B25677   7.035  25.809   7.965
 1729POPC   C4B25678   7.069  25.894   7.554
 1730POPC   NC325679   7.872  36.052   9.760
 1730POPC   PO425680   7.725  36.443   9.223
 1730POPC   GL125681   7.403  36.156   9.005
 1730POPC   GL225682   7.033  36.168   9.093
 1730POPC   C1A25683   7.379  35.911   8.616
 1730POPC   D2A25684   7.676  35.838   8.250
 1730POPC   C3A25685   7.612  36.157   7.921
 1730POPC   C4A25686   7.553  36.347   7.526
 1730POPC   C1B25687   7.072  36.396   8.692
 1730POPC   C2B25688   7.234  36.285   8.278
 1730POPC   C3B25689   7.144  35.948   7.968
 1730POPC   C4B25690   7.258  35.926   7.557
 1731POPC   NC325691  21.939  10.246   9.476
 1731POPC   PO425692  22.462  10.578   9.655
 1731POPC   GL125693  22.308  10.728   9.207
 1731POPC   GL225694  21.974  10.757   9.211
 1731POPC   C1A25695  22.435  10.584   8.769
 1731POPC   D2A25696  22.220  10.331   8.426
 1731POPC   C3A25697  22.434  10.335   8.001
 1731POPC   C4A25698  22.512  10.541   7.594
 1731POPC   C1B25699  21.938  10.508   8.861
 1731POPC   C2B25700  21.756  10.586   8.477
 1731POPC   C3B25701  21.988  10.659   8.105
 1731POPC   C4B25702  21.920  10.735   7.703
 1732POPC   NC325703  44.344  31.755   9.487
 1732POPC   PO425704  44.959  31.521   9.578
 1732POPC   GL125705  44.689  31.443   9.228
 1732POPC   GL225706  44.390  31.242   9.346
 1732POPC   C1A25707  44.682  31.669   8.829
 1732POPC   D2A25708  44.985  31.709   8.491
 1732POPC   C3A25709  44.832  31.617   8.089
 1732POPC   C4A25710  44.891  31.587   7.655
 1732POPC   C1B25711  44.368  31.264   8.896
 1732POPC   C2B25712  44.479  31.372   8.466
 1732POPC   C3B25713  44.347  31.454   8.047
 1732POPC   C4B25714  44.425  31.380   7.624
 1733POPC   NC325715  34.443  21.048   9.535
 1733POPC   PO425716  34.660  20.435   9.514
 1733POPC   GL125717  34.799  20.760   9.250
 1733POPC   GL225718  34.469  20.796   9.105
 1733POPC   C1A25719  34.886  20.731   8.811
 1733POPC   D2A25720  34.722  20.418   8.526
 1733POPC   C3A25721  34.571  20.563   8.146
 1733POPC   C4A25722  34.787  20.703   7.778
 1733POPC   C1B25723  34.262  20.577   8.792
 1733POPC   C2B25724  34.243  20.233   8.502
 1733POPC   C3B25725  34.091  20.359   8.099
 1733POPC   C4B25726  34.198  20.673   7.774
 1734POPC   NC325727   9.915  20.360   9.453
 1734POPC   PO425728   9.226  20.451   9.446
 1734POPC   GL125729   9.592  20.590   9.133
 1734POPC   GL225730   9.756  20.925   8.940
 1734POPC   C1A25731   9.735  20.465   8.722
 1734POPC   D2A25732   9.782  20.706   8.327
 1734POPC   C3A25733   9.848  20.541   7.861
 1734POPC   C4A25734   9.731  20.323   7.428
 1734POPC   C1B25735   9.381  20.839   8.736
 1734POPC   C2B25736   9.202  20.646   8.406
 1734POPC   C3B25737   9.375  20.602   8.027
 1734POPC   C4B25738   9.407  20.666   7.593
 1735POPC   NC325739  33.570  17.417   9.425
 1735POPC   PO425740  32.922  17.254   9.493
 1735POPC   GL125741  33.197  17.341   9.085
 1735POPC   GL225742  33.392  17.697   9.045
 1735POPC   C1A25743  33.095  17.507   8.652
 1735POPC   D2A25744  32.748  17.740   8.403
 1735POPC   C3A25745  32.772  17.647   7.969
 1735POPC   C4A25746  32.947  17.218   7.900
 1735POPC   C1B25747  33.518  17.811   8.612
 1735POPC   C2B25748  33.323  17.738   8.198
 1735POPC   C3B25749  33.249  17.604   7.776
 1735POPC   C4B25750  33.077  17.748   7.383
 1736POPC   NC325751   2.844  20.629   9.639
 1736POPC   PO425752   2.257  20.563   9.656
 1736POPC   GL125753   2.518  20.511   9.212
 1736POPC   GL225754   2.869  20.551   9.130
 1736POPC   C1A25755   2.532  20.752   8.806
 1736POPC   D2A25756   2.810  20.841   8.451
 1736POPC   C3A25757   2.645  20.704   8.038
 1736POPC   C4A25758   2.486  20.792   7.616
 1736POPC   C1B25759   2.840  20.369   8.683
 1736POPC   C2B25760   3.046  20.392   8.257
 1736POPC   C3B25761   3.026  20.394   7.802
 1736POPC   C4B25762   2.963  20.434   7.341
 1737POPC   NC325763   2.335  39.342   9.503
 1737POPC   PO425764   2.879  38.992   9.604
 1737POPC   GL125765   2.840  39.339   9.301
 1737POPC   GL225766   2.673  39.683   9.302
 1737POPC   C1A25767   2.671  39.188   8.925
 1737POPC   D2A25768   2.541  38.933   8.588
 1737POPC   C3A25769   2.633  39.035   8.165
 1737POPC   C4A25770   2.598  39.060   7.732
 1737POPC   C1B25771   2.856  39.671   8.878
 1737POPC   C2B25772   2.720  39.451   8.499
 1737POPC   C3B25773   2.840  39.510   8.106
 1737POPC   C4B25774   2.650  39.551   7.723
 1738POPC   NC325775  13.342  34.004   9.556
 1738POPC   PO425776  12.717  33.711   9.509
 1738POPC   GL125777  13.002  33.788   9.224
 1738POPC   GL225778  13.019  34.145   9.161
 1738POPC   C1A25779  12.925  33.721   8.819
 1738POPC   D2A25780  13.041  33.778   8.428
 1738POPC   C3A25781  12.852  33.820   8.064
 1738POPC   C4A25782  13.174  33.667   7.822
 1738POPC   C1B25783  12.766  34.223   8.767
 1738POPC   C2B25784  12.565  34.190   8.347
 1738POPC   C3B25785  12.754  34.309   7.961
 1738POPC   C4B25786  12.967  34.100   7.606
 1739POPC   NC325787   2.635  32.991   9.369
 1739POPC   PO425788   3.064  32.605   9.441
 1739POPC   GL125789   3.070  32.864   9.105
 1739POPC   GL225790   3.105  33.216   9.259
 1739POPC   C1A25791   2.817  32.799   8.750
 1739POPC   D2A25792   2.622  32.721   8.381
 1739POPC   C3A25793   2.848  32.904   8.034
 1739POPC   C4A25794   2.761  32.760   7.629
 1739POPC   C1B25795   2.944  33.317   8.830
 1739POPC   C2B25796   2.685  33.235   8.437
 1739POPC   C3B25797   2.475  33.417   8.063
 1739POPC   C4B25798   2.653  33.604   7.687
 1740POPC   NC325799  39.667  36.118   9.571
 1740POPC   PO425800  39.047  35.917   9.543
 1740POPC   GL125801  39.266  36.056   9.181
 1740POPC   GL225802  39.411  36.368   9.188
 1740POPC   C1A25803  39.418  35.989   8.782
 1740POPC   D2A25804  39.429  36.156   8.399
 1740POPC   C3A25805  39.429  35.930   8.045
 1740POPC   C4A25806  39.240  35.972   7.646
 1740POPC   C1B25807  39.219  36.466   8.792
 1740POPC   C2B25808  39.139  36.564   8.354
 1740POPC   C3B25809  39.234  36.415   7.917
 1740POPC   C4B25810  39.517  36.399   7.543
 1741POPC   NC325811  41.030  36.827   9.506
 1741POPC   PO425812  40.484  37.269   9.593
 1741POPC   GL125813  40.708  37.115   9.237
 1741POPC   GL225814  40.599  36.776   9.135
 1741POPC   C1A25815  40.857  37.104   8.835
 1741POPC   D2A25816  40.839  36.962   8.421
 1741POPC   C3A25817  40.501  36.931   8.125
 1741POPC   C4A25818  40.728  37.197   7.832
 1741POPC   C1B25819  40.680  36.560   8.724
 1741POPC   C2B25820  40.691  36.492   8.288
 1741POPC   C3B25821  40.927  36.687   7.961
 1741POPC   C4B25822  41.153  36.923   7.702
 1742POPC   NC325823  43.099  33.606   9.629
 1742POPC   PO425824  43.074  34.235   9.687
 1742POPC   GL125825  43.119  33.997   9.275
 1742POPC   GL225826  43.407  33.910   9.156
 1742POPC   C1A25827  42.922  33.910   8.849
 1742POPC   D2A25828  43.081  33.767   8.449
 1742POPC   C3A25829  42.754  33.717   8.137
 1742POPC   C4A25830  42.802  33.803   7.687
 1742POPC   C1B25831  43.356  34.140   8.801
 1742POPC   C2B25832  43.222  34.271   8.384
 1742POPC   C3B25833  43.168  34.054   7.969
 1742POPC   C4B25834  43.216  34.043   7.485
 1743POPC   NC325835   0.861  35.706   9.530
 1743POPC   PO425836   1.356  36.164   9.691
 1743POPC   GL125837   1.364  36.190   9.221
 1743POPC   GL225838   1.227  35.871   9.171
 1743POPC   C1A25839   1.236  36.292   8.814
 1743POPC   D2A25840   0.991  36.089   8.512
 1743POPC   C3A25841   1.123  36.165   8.092
 1743POPC   C4A25842   0.889  36.410   7.794
 1743POPC   C1B25843   1.430  35.765   8.810
 1743POPC   C2B25844   1.477  35.914   8.404
 1743POPC   C3B25845   1.461  35.780   7.944
 1743POPC   C4B25846   1.171  35.696   7.634
 1744POPC   NC325847  22.143   2.888   9.317
 1744POPC   PO425848  22.590   2.527   9.714
 1744POPC   GL125849  22.350   2.419   9.203
 1744POPC   GL225850  21.969   2.490   9.065
 1744POPC   C1A25851  22.285   2.634   8.733
 1744POPC   D2A25852  22.223   2.949   8.416
 1744POPC   C3A25853  22.187   2.710   8.047
 1744POPC   C4A25854  22.313   2.608   7.626
 1744POPC   C1B25855  21.847   2.931   8.775
 1744POPC   C2B25856  21.675   3.118   8.412
 1744POPC   C3B25857  21.702   2.948   8.024
 1744POPC   C4B25858  21.806   2.632   7.712
 1745POPC   NC325859  31.748  23.273   9.406
 1745POPC   PO425860  31.155  23.081   9.492
 1745POPC   GL125861  31.324  22.846   9.151
 1745POPC   GL225862  31.690  22.715   9.164
 1745POPC   C1A25863  31.224  22.946   8.723
 1745POPC   D2A25864  31.474  22.846   8.354
 1745POPC   C3A25865  31.525  23.081   7.988
 1745POPC   C4A25866  31.581  23.025   7.556
 1745POPC   C1B25867  31.747  22.968   8.775
 1745POPC   C2B25868  31.852  23.206   8.371
 1745POPC   C3B25869  32.025  23.221   7.914
 1745POPC   C4B25870  32.026  23.298   7.442
 1746POPC   NC325871   8.862  42.184   9.652
 1746POPC   PO425872   8.703  42.829   9.463
 1746POPC   GL125873   8.886  42.500   9.189
 1746POPC   GL225874   8.914  42.132   9.161
 1746POPC   C1A25875   9.053  42.498   8.794
 1746POPC   D2A25876   9.155  42.366   8.373
 1746POPC   C3A25877   8.826  42.485   8.073
 1746POPC   C4A25878   8.901  42.675   7.680
 1746POPC   C1B25879   9.083  41.985   8.792
 1746POPC   C2B25880   9.038  41.813   8.414
 1746POPC   C3B25881   9.091  41.976   8.015
 1746POPC   C4B25882   8.834  42.164   7.683
 1747POPC   NC325883  38.871  35.546   9.767
 1747POPC   PO425884  38.468  35.108   9.444
 1747POPC   GL125885  38.492  35.373   9.155
 1747POPC   GL225886  38.739  35.607   9.246
 1747POPC   C1A25887  38.709  35.224   8.771
 1747POPC   D2A25888  38.487  35.041   8.450
 1747POPC   C3A25889  38.549  35.062   8.023
 1747POPC   C4A25890  38.224  35.229   7.774
 1747POPC   C1B25891  38.561  35.703   8.796
 1747POPC   C2B25892  38.670  35.563   8.393
 1747POPC   C3B25893  38.527  35.577   7.993
 1747POPC   C4B25894  38.708  35.339   7.626
 1748POPC   NC325895   0.016  31.093   9.416
 1748POPC   PO425896  44.494  30.684   9.502
 1748POPC   GL125897  44.598  30.843   9.118
 1748POPC   GL225898  44.897  30.713   9.060
 1748POPC   C1A25899  44.552  30.748   8.682
 1748POPC   D2A25900  44.746  30.648   8.298
 1748POPC   C3A25901  44.413  30.472   7.998
 1748POPC   C4A25902  44.418  30.530   7.508
 1748POPC   C1B25903  44.855  31.138   8.785
 1748POPC   C2B25904  44.935  31.161   8.358
 1748POPC   C3B25905  44.741  31.114   7.980
 1748POPC   C4B25906  44.865  31.095   7.565
 1749POPC   NC325907   3.739   9.993   9.476
 1749POPC   PO425908   3.155   9.703   9.499
 1749POPC   GL125909   3.452   9.729   9.133
 1749POPC   GL225910   3.682   9.467   9.041
 1749POPC   C1A25911   3.403   9.654   8.683
 1749POPC   D2A25912   3.195   9.671   8.331
 1749POPC   C3A25913   3.513   9.684   8.050
 1749POPC   C4A25914   3.515   9.944   7.706
 1749POPC   C1B25915   3.982   9.444   8.759
 1749POPC   C2B25916   3.940   9.296   8.391
 1749POPC   C3B25917   4.070   9.405   8.035
 1749POPC   C4B25918   3.880   9.546   7.719
 1750POPC   NC325919  38.329  24.789   9.610
 1750POPC   PO425920  38.626  24.194   9.529
 1750POPC   GL125921  38.556  24.463   9.188
 1750POPC   GL225922  38.208  24.545   9.162
 1750POPC   C1A25923  38.473  24.421   8.743
 1750POPC   D2A25924  38.403  24.530   8.322
 1750POPC   C3A25925  38.532  24.159   8.044
 1750POPC   C4A25926  38.694  24.227   7.670
 1750POPC   C1B25927  37.992  24.263   8.845
 1750POPC   C2B25928  37.858  24.361   8.415
 1750POPC   C3B25929  38.063  24.345   7.986
 1750POPC   C4B25930  38.418  24.621   7.792
 1751POPC   NC325931   2.904   9.003   9.387
 1751POPC   PO425932   2.189   8.945   9.287
 1751POPC   GL125933   2.516   9.097   9.043
 1751POPC   GL225934   2.797   8.862   8.923
 1751POPC   C1A25935   2.557   9.213   8.606
 1751POPC   D2A25936   2.906   9.092   8.343
 1751POPC   C3A25937   2.719   8.873   8.025
 1751POPC   C4A25938   2.493   9.064   7.723
 1751POPC   C1B25939   3.104   8.624   8.693
 1751POPC   C2B25940   3.387   8.715   8.377
 1751POPC   C3B25941   3.230   8.807   7.982
 1751POPC   C4B25942   3.002   8.977   7.609
 1752POPC   NC325943  17.701  27.953   9.325
 1752POPC   PO425944  17.436  28.588   9.481
 1752POPC   GL125945  17.459  28.351   9.125
 1752POPC   GL225946  17.753  28.411   9.085
 1752POPC   C1A25947  17.585  28.151   8.698
 1752POPC   D2A25948  17.458  28.281   8.303
 1752POPC   C3A25949  17.278  28.008   7.983
 1752POPC   C4A25950  17.007  28.166   7.638
 1752POPC   C1B25951  17.526  28.661   8.726
 1752POPC   C2B25952  17.554  28.836   8.300
 1752POPC   C3B25953  17.607  28.582   7.917
 1752POPC   C4B25954  17.811  28.144   7.911
 1753POPC   NC325955  32.944   1.273   9.666
 1753POPC   PO425956  33.367   0.774   9.492
 1753POPC   GL125957  33.185   1.063   9.183
 1753POPC   GL225958  32.821   1.119   9.195
 1753POPC   C1A25959  33.081   1.362   8.826
 1753POPC   D2A25960  32.862   1.455   8.448
 1753POPC   C3A25961  33.052   1.370   8.086
 1753POPC   C4A25962  33.209   1.517   7.711
 1753POPC   C1B25963  32.838   0.876   8.825
 1753POPC   C2B25964  33.031   0.793   8.466
 1753POPC   C3B25965  32.892   0.832   8.072
 1753POPC   C4B25966  32.879   1.105   7.685
 1754POPC   NC325967   6.257  39.835   9.575
 1754POPC   PO425968   5.662  40.156   9.480
 1754POPC   GL125969   5.806  39.939   9.139
 1754POPC   GL225970   5.752  40.219   8.909
 1754POPC   C1A25971   5.992  39.740   8.781
 1754POPC   D2A25972   6.147  39.857   8.357
 1754POPC   C3A25973   5.893  40.033   8.030
 1754POPC   C4A25974   5.979  39.985   7.579
 1754POPC   C1B25975   5.497  39.872   8.713
 1754POPC   C2B25976   5.516  39.730   8.269
 1754POPC   C3B25977   5.471  39.847   7.811
 1754POPC   C4B25978   5.577  39.733   7.371
 1755POPC   NC325979  34.309  11.410   9.583
 1755POPC   PO425980  34.986  11.427   9.576
 1755POPC   GL125981  34.643  11.361   9.212
 1755POPC   GL225982  34.564  10.996   9.209
 1755POPC   C1A25983  34.584  11.606   8.810
 1755POPC   D2A25984  34.820  11.593   8.410
 1755POPC   C3A25985  34.608  11.361   8.079
 1755POPC   C4A25986  34.499  11.441   7.669
 1755POPC   C1B25987  34.400  11.115   8.793
 1755POPC   C2B25988  34.315  11.005   8.371
 1755POPC   C3B25989  34.535  10.820   8.048
 1755POPC   C4B25990  34.703  10.992   7.671
 1756POPC   NC325991  18.902  41.857   9.471
 1756POPC   PO425992  18.221  41.616   9.496
 1756POPC   GL125993  18.309  41.420   9.140
 1756POPC   GL225994  18.075  41.164   9.024
 1756POPC   C1A25995  18.275  41.583   8.738
 1756POPC   D2A25996  18.328  41.961   8.465
 1756POPC   C3A25997  18.450  41.764   8.048
 1756POPC   C4A25998  18.469  41.500   7.657
 1756POPC   C1B25999  17.841  41.163   8.640
 1756POPC   C2B26000  17.881  41.123   8.173
 1756POPC   C3B26001  18.238  41.096   7.889
 1756POPC   C4B26002  18.298  41.030   7.438
 1757POPC   NC326003   1.440  37.305   9.430
 1757POPC   PO426004   2.129  37.309   9.284
 1757POPC   GL126005   1.898  37.647   9.106
 1757POPC   GL226006   1.900  38.020   9.201
 1757POPC   C1A26007   2.132  37.826   8.722
 1757POPC   D2A26008   2.470  37.561   8.482
 1757POPC   C3A26009   2.330  37.464   8.055
 1757POPC   C4A26010   2.168  37.823   7.827
 1757POPC   C1B26011   1.625  37.943   8.835
 1757POPC   C2B26012   1.651  38.011   8.405
 1757POPC   C3B26013   1.560  38.148   7.984
 1757POPC   C4B26014   1.706  37.936   7.598
 1758POPC   NC326015  32.187   7.532   9.649
 1758POPC   PO426016  32.457   6.972   9.484
 1758POPC   GL126017  32.437   7.428   9.192
 1758POPC   GL226018  32.162   7.681   9.158
 1758POPC   C1A26019  32.539   7.739   8.821
 1758POPC   D2A26020  32.406   7.868   8.374
 1758POPC   C3A26021  32.491   7.628   7.958
 1758POPC   C4A26022  32.473   7.451   7.511
 1758POPC   C1B26023  32.116   7.472   8.751
 1758POPC   C2B26024  32.155   7.416   8.299
 1758POPC   C3B26025  31.963   7.480   7.888
 1758POPC   C4B26026  31.998   7.300   7.482
 1759POPC   NC326027  43.513  18.821   9.431
 1759POPC   PO426028  43.713  19.429   9.476
 1759POPC   GL126029  43.831  19.157   9.123
 1759POPC   GL226030  44.094  19.422   9.013
 1759POPC   C1A26031  44.002  19.059   8.695
 1759POPC   D2A26032  43.992  19.334   8.333
 1759POPC   C3A26033  43.719  19.157   8.007
 1759POPC   C4A26034  43.746  19.072   7.593
 1759POPC   C1B26035  44.405  19.469   8.697
 1759POPC   C2B26036  44.525  19.364   8.284
 1759POPC   C3B26037  44.358  19.159   7.923
 1759POPC   C4B26038  44.224  19.168   7.489
 1760POPC   NC326039  22.597  25.327   9.388
 1760POPC   PO426040  23.164  24.998   9.592
 1760POPC   GL126041  22.998  25.000   9.152
 1760POPC   GL226042  22.986  25.357   9.064
 1760POPC   C1A26043  22.865  25.055   8.683
 1760POPC   D2A26044  22.989  25.315   8.293
 1760POPC   C3A26045  22.930  25.095   7.900
 1760POPC   C4A26046  23.233  24.820   7.731
 1760POPC   C1B26047  22.680  25.540   8.784
 1760POPC   C2B26048  22.521  25.468   8.404
 1760POPC   C3B26049  22.644  25.550   7.981
 1760POPC   C4B26050  22.507  25.306   7.615
 1761POPC   NC326051  38.351  31.380   9.854
 1761POPC   PO426052  38.613  30.750   9.712
 1761POPC   GL126053  38.576  30.646   9.243
 1761POPC   GL226054  38.589  30.280   9.209
 1761POPC   C1A26055  38.451  30.784   8.793
 1761POPC   D2A26056  38.215  30.900   8.404
 1761POPC   C3A26057  38.354  30.757   7.989
 1761POPC   C4A26058  38.271  30.532   7.634
 1761POPC   C1B26059  38.381  30.276   8.800
 1761POPC   C2B26060  38.400  30.399   8.360
 1761POPC   C3B26061  38.680  30.365   7.999
 1761POPC   C4B26062  38.661  30.206   7.604
 1762POPC   NC326063  12.033  39.803   9.807
 1762POPC   PO426064  11.863  39.214   9.435
 1762POPC   GL126065  11.915  39.032   9.095
 1762POPC   GL226066  12.040  39.343   8.964
 1762POPC   C1A26067  12.159  38.917   8.735
 1762POPC   D2A26068  12.465  38.931   8.400
 1762POPC   C3A26069  12.297  38.899   7.989
 1762POPC   C4A26070  12.008  39.150   7.779
 1762POPC   C1B26071  12.320  39.398   8.649
 1762POPC   C2B26072  12.171  39.323   8.251
 1762POPC   C3B26073  12.296  39.547   7.901
 1762POPC   C4B26074  12.299  39.458   7.480
 1763POPC   NC326075  38.416   8.900   9.698
 1763POPC   PO426076  38.255   9.519   9.629
 1763POPC   GL126077  38.547   9.218   9.317
 1763POPC   GL226078  38.479   8.823   9.204
 1763POPC   C1A26079  38.435   9.233   8.871
 1763POPC   D2A26080  38.194   9.162   8.518
 1763POPC   C3A26081  38.386   9.212   8.122
 1763POPC   C4A26082  38.397   9.030   7.735
 1763POPC   C1B26083  38.762   8.866   8.893
 1763POPC   C2B26084  38.702   8.972   8.480
 1763POPC   C3B26085  38.627   8.727   8.114
 1763POPC   C4B26086  38.838   8.790   7.759
 1764POPC   NC326087  43.706  36.901   9.475
 1764POPC   PO426088  44.390  36.788   9.388
 1764POPC   GL126089  44.039  36.921   9.085
 1764POPC   GL226090  43.745  36.663   9.047
 1764POPC   C1A26091  43.944  36.868   8.635
 1764POPC   D2A26092  44.214  36.873   8.296
 1764POPC   C3A26093  44.014  36.788   7.937
 1764POPC   C4A26094  43.999  36.973   7.563
 1764POPC   C1B26095  43.515  36.535   8.667
 1764POPC   C2B26096  43.417  36.784   8.295
 1764POPC   C3B26097  43.500  36.800   7.835
 1764POPC   C4B26098  43.647  36.606   7.445
 1765POPC   NC326099  29.716  10.546   9.453
 1765POPC   PO426100  29.126  10.170   9.504
 1765POPC   GL126101  29.139  10.562   9.253
 1765POPC   GL226102  28.835  10.540   9.054
 1765POPC   C1A26103  29.269  10.696   8.822
 1765POPC   D2A26104  29.077  10.722   8.411
 1765POPC   C3A26105  29.337  10.681   8.081
 1765POPC   C4A26106  29.190  10.707   7.705
 1765POPC   C1B26107  28.949  10.304   8.657
 1765POPC   C2B26108  29.115  10.235   8.192
 1765POPC   C3B26109  29.063  10.215   7.699
 1765POPC   C4B26110  28.914  10.279   7.227
 1766POPC   NC326111   3.197  32.167   9.443
 1766POPC   PO426112   2.653  32.301   9.790
 1766POPC   GL126113   2.651  32.295   9.284
 1766POPC   GL226114   2.943  32.342   9.040
 1766POPC   C1A26115   2.472  32.388   8.833
 1766POPC   D2A26116   2.427  32.218   8.385
 1766POPC   C3A26117   2.623  32.400   7.985
 1766POPC   C4A26118   2.573  32.286   7.575
 1766POPC   C1B26119   2.916  32.109   8.701
 1766POPC   C2B26120   2.944  32.247   8.338
 1766POPC   C3B26121   3.094  32.206   7.952
 1766POPC   C4B26122   3.081  32.349   7.526
 1767POPC   NC326123   2.908  25.595   9.564
 1767POPC   PO426124   2.550  25.110   9.293
 1767POPC   GL126125   2.603  25.542   9.144
 1767POPC   GL226126   2.986  25.503   9.079
 1767POPC   C1A26127   2.621  25.567   8.698
 1767POPC   D2A26128   2.748  25.205   8.460
 1767POPC   C3A26129   2.566  25.303   8.087
 1767POPC   C4A26130   2.542  25.118   7.693
 1767POPC   C1B26131   3.136  25.533   8.662
 1767POPC   C2B26132   3.015  25.550   8.211
 1767POPC   C3B26133   3.036  25.217   7.908
 1767POPC   C4B26134   3.152  24.848   7.726
 1768POPC   NC326135  36.560   6.650   9.494
 1768POPC   PO426136  35.987   6.456   9.356
 1768POPC   GL126137  36.046   6.754   9.070
 1768POPC   GL226138  36.381   6.642   9.013
 1768POPC   C1A26139  35.747   6.772   8.748
 1768POPC   D2A26140  35.765   6.578   8.368
 1768POPC   C3A26141  35.746   6.893   8.101
 1768POPC   C4A26142  35.915   6.827   7.746
 1768POPC   C1B26143  36.238   6.668   8.588
 1768POPC   C2B26144  36.253   6.761   8.149
 1768POPC   C3B26145  36.372   6.573   7.753
 1768POPC   C4B26146  36.407   6.350   7.348
 1769POPC   NC326147  30.423  28.224   9.454
 1769POPC   PO426148  30.855  28.724   9.528
 1769POPC   GL126149  30.913  28.539   9.122
 1769POPC   GL226150  30.554  28.592   9.105
 1769POPC   C1A26151  31.055  28.417   8.685
 1769POPC   D2A26152  31.190  28.161   8.308
 1769POPC   C3A26153  30.912  28.304   7.962
 1769POPC   C4A26154  30.634  28.657   7.847
 1769POPC   C1B26155  30.605  28.199   8.836
 1769POPC   C2B26156  30.687  28.098   8.423
 1769POPC   C3B26157  30.466  28.006   8.060
 1769POPC   C4B26158  30.368  28.233   7.683
 1770POPC   NC326159  27.740  43.689   9.660
 1770POPC   PO426160  28.044  44.258   9.521
 1770POPC   GL126161  27.764  43.992   9.220
 1770POPC   GL226162  27.791  43.609   9.156
 1770POPC   C1A26163  27.835  43.915   8.759
 1770POPC   D2A26164  27.803  44.040   8.339
 1770POPC   C3A26165  27.946  43.752   8.048
 1770POPC   C4A26166  27.762  43.819   7.681
 1770POPC   C1B26167  27.403  43.731   8.926
 1770POPC   C2B26168  27.333  43.889   8.478
 1770POPC   C3B26169  27.424  43.685   8.083
 1770POPC   C4B26170  27.360  43.376   7.725
 1771POPC   NC326171   4.667  34.766   9.453
 1771POPC   PO426172   4.136  34.551   9.617
 1771POPC   GL126173   4.338  34.525   9.150
 1771POPC   GL226174   4.499  34.806   8.987
 1771POPC   C1A26175   4.209  34.543   8.676
 1771POPC   D2A26176   4.091  34.264   8.322
 1771POPC   C3A26177   3.925  34.464   7.937
 1771POPC   C4A26178   4.135  34.634   7.530
 1771POPC   C1B26179   4.500  35.087   8.625
 1771POPC   C2B26180   4.134  35.121   8.385
 1771POPC   C3B26181   4.211  34.869   8.048
 1771POPC   C4B26182   4.542  34.872   7.743
 1772POPC   NC326183  11.844  34.475   9.676
 1772POPC   PO426184  12.480  34.688   9.520
 1772POPC   GL126185  12.132  34.558   9.247
 1772POPC   GL226186  11.816  34.768   9.251
 1772POPC   C1A26187  11.975  34.304   8.891
 1772POPC   D2A26188  12.019  34.007   8.523
 1772POPC   C3A26189  11.954  34.170   8.102
 1772POPC   C4A26190  12.262  34.274   7.807
 1772POPC   C1B26191  11.920  34.814   8.810
 1772POPC   C2B26192  11.845  34.592   8.380
 1772POPC   C3B26193  11.850  34.656   7.902
 1772POPC   C4B26194  11.774  35.008   7.554
 1773POPC   NC326195   4.909  22.511   9.450
 1773POPC   PO426196   5.349  22.958   9.490
 1773POPC   GL126197   5.236  22.739   9.126
 1773POPC   GL226198   4.913  22.917   9.113
 1773POPC   C1A26199   5.215  22.809   8.677
 1773POPC   D2A26200   5.281  23.178   8.420
 1773POPC   C3A26201   5.191  23.096   8.020
 1773POPC   C4A26202   5.109  23.188   7.569
 1773POPC   C1B26203   4.683  22.869   8.716
 1773POPC   C2B26204   4.732  23.111   8.313
 1773POPC   C3B26205   4.716  23.056   7.864
 1773POPC   C4B26206   4.913  22.706   7.662
 1774POPC   NC326207   4.107  33.238   9.740
 1774POPC   PO426208   4.504  32.735   9.512
 1774POPC   GL126209   4.373  32.998   9.141
 1774POPC   GL226210   4.131  33.247   9.204
 1774POPC   C1A26211   4.279  33.126   8.697
 1774POPC   D2A26212   4.251  32.908   8.283
 1774POPC   C3A26213   4.435  32.996   7.861
 1774POPC   C4A26214   4.509  32.842   7.414
 1774POPC   C1B26215   3.865  33.396   8.872
 1774POPC   C2B26216   3.919  33.452   8.411
 1774POPC   C3B26217   4.020  33.301   7.969
 1774POPC   C4B26218   4.123  33.172   7.481
 1775POPC   NC326219   0.935  28.889   9.430
 1775POPC   PO426220   1.400  29.343   9.637
 1775POPC   GL126221   1.326  29.177   9.247
 1775POPC   GL226222   1.555  28.907   9.165
 1775POPC   C1A26223   1.262  29.149   8.813
 1775POPC   D2A26224   1.185  29.007   8.413
 1775POPC   C3A26225   0.965  29.208   8.093
 1775POPC   C4A26226   1.081  29.267   7.701
 1775POPC   C1B26227   1.717  28.909   8.726
 1775POPC   C2B26228   1.637  28.863   8.264
 1775POPC   C3B26229   1.312  28.880   7.910
 1775POPC   C4B26230   1.274  28.895   7.408
 1776POPC   NC326231  21.843  15.867   9.575
 1776POPC   PO426232  22.523  15.656   9.565
 1776POPC   GL126233  22.194  15.660   9.199
 1776POPC   GL226234  22.094  16.026   9.163
 1776POPC   C1A26235  22.127  15.779   8.725
 1776POPC   D2A26236  21.877  15.817   8.340
 1776POPC   C3A26237  22.139  15.735   7.946
 1776POPC   C4A26238  22.538  15.843   7.804
 1776POPC   C1B26239  21.788  16.155   8.840
 1776POPC   C2B26240  21.732  16.292   8.398
 1776POPC   C3B26241  22.001  16.224   8.027
 1776POPC   C4B26242  22.227  16.276   7.634
 1777POPC   NC326243  10.821  31.556   9.584
 1777POPC   PO426244  10.131  31.612   9.528
 1777POPC   GL126245  10.429  31.496   9.229
 1777POPC   GL226246  10.437  31.169   9.372
 1777POPC   C1A26247  10.427  31.647   8.781
 1777POPC   D2A26248  10.334  31.811   8.353
 1777POPC   C3A26249  10.519  31.488   8.090
 1777POPC   C4A26250  10.439  31.460   7.671
 1777POPC   C1B26251  10.329  31.124   8.918
 1777POPC   C2B26252  10.463  31.023   8.512
 1777POPC   C3B26253  10.776  30.995   8.210
 1777POPC   C4B26254  10.719  31.043   7.767
 1778POPC   NC326255   2.320  40.986   9.594
 1778POPC   PO426256   1.782  40.705   9.679
 1778POPC   GL126257   1.884  40.700   9.246
 1778POPC   GL226258   2.222  40.685   9.186
 1778POPC   C1A26259   1.788  40.575   8.825
 1778POPC   D2A26260   2.014  40.686   8.463
 1778POPC   C3A26261   1.826  40.694   8.107
 1778POPC   C4A26262   1.918  40.774   7.709
 1778POPC   C1B26263   2.279  40.933   8.823
 1778POPC   C2B26264   2.226  41.136   8.402
 1778POPC   C3B26265   2.341  40.905   8.010
 1778POPC   C4B26266   2.440  40.987   7.565
 1779POPC   NC326267  16.021  10.798   9.429
 1779POPC   PO426268  16.157  10.213   9.727
 1779POPC   GL126269  15.971  10.322   9.235
 1779POPC   GL226270  15.684  10.541   9.141
 1779POPC   C1A26271  16.061  10.444   8.775
 1779POPC   D2A26272  16.306  10.381   8.373
 1779POPC   C3A26273  16.147  10.525   7.967
 1779POPC   C4A26274  16.199  10.929   7.769
 1779POPC   C1B26275  15.741  10.849   8.802
 1779POPC   C2B26276  15.829  10.694   8.368
 1779POPC   C3B26277  15.696  10.910   7.980
 1779POPC   C4B26278  15.696  10.926   7.529
 1780POPC   NC326279  10.887   0.310   9.181
 1780POPC   PO426280  11.475   0.553   9.470
 1780POPC   GL126281  11.272   0.660   9.092
 1780POPC   GL226282  11.089   0.960   9.163
 1780POPC   C1A26283  11.321   0.447   8.684
 1780POPC   D2A26284  11.173   0.222   8.300
 1780POPC   C3A26285  11.422   0.363   7.963
 1780POPC   C4A26286  11.647   0.326   7.551
 1780POPC   C1B26287  10.968   0.890   8.729
 1780POPC   C2B26288  11.136   0.772   8.338
 1780POPC   C3B26289  11.100   0.862   7.937
 1780POPC   C4B26290  11.340   0.728   7.633
 1781POPC   NC326291  29.462  18.873   9.461
 1781POPC   PO426292  28.784  19.122   9.459
 1781POPC   GL126293  28.968  19.226   9.054
 1781POPC   GL226294  29.344  19.134   9.008
 1781POPC   C1A26295  28.968  18.980   8.672
 1781POPC   D2A26296  29.328  18.889   8.438
 1781POPC   C3A26297  29.147  18.822   8.057
 1781POPC   C4A26298  28.945  18.934   7.677
 1781POPC   C1B26299  29.282  19.382   8.634
 1781POPC   C2B26300  29.123  19.320   8.211
 1781POPC   C3B26301  29.341  19.236   7.792
 1781POPC   C4B26302  29.245  19.232   7.330
 1782POPC   NC326303  39.631   2.377   9.690
 1782POPC   PO426304  40.357   2.513   9.504
 1782POPC   GL126305  40.088   2.716   9.207
 1782POPC   GL226306  39.710   2.703   9.253
 1782POPC   C1A26307  39.969   2.914   8.823
 1782POPC   D2A26308  39.881   2.721   8.455
 1782POPC   C3A26309  39.947   2.955   8.101
 1782POPC   C4A26310  40.047   2.810   7.690
 1782POPC   C1B26311  39.656   2.471   8.843
 1782POPC   C2B26312  39.688   2.261   8.414
 1782POPC   C3B26313  39.816   2.465   7.991
 1782POPC   C4B26314  39.639   2.536   7.536
 1783POPC   NC326315  29.201  36.849   9.750
 1783POPC   PO426316  28.958  37.114   9.197
 1783POPC   GL126317  29.066  36.819   8.953
 1783POPC   GL226318  29.347  36.987   8.851
 1783POPC   C1A26319  28.963  36.815   8.513
 1783POPC   D2A26320  28.900  36.601   8.154
 1783POPC   C3A26321  29.020  36.850   7.820
 1783POPC   C4A26322  29.339  37.118   7.663
 1783POPC   C1B26323  29.495  36.767   8.546
 1783POPC   C2B26324  29.436  36.778   8.108
 1783POPC   C3B26325  29.529  36.650   7.685
 1783POPC   C4B26326  29.616  36.861   7.264
 1784POPC   NC326327   3.334  18.823   9.430
 1784POPC   PO426328   3.664  18.231   9.548
 1784POPC   GL126329   3.474  18.171   9.086
 1784POPC   GL226330   3.141  18.082   8.963
 1784POPC   C1A26331   3.523  18.048   8.608
 1784POPC   D2A26332   3.623  18.370   8.267
 1784POPC   C3A26333   3.596  18.310   7.800
 1784POPC   C4A26334   3.892  18.096   7.517
 1784POPC   C1B26335   3.237  18.452   8.659
 1784POPC   C2B26336   3.129  18.511   8.244
 1784POPC   C3B26337   3.071  18.373   7.865
 1784POPC   C4B26338   3.199  18.173   7.504
 1785POPC   NC326339  41.949  25.964   9.289
 1785POPC   PO426340  41.269  25.810   9.369
 1785POPC   GL126341  41.477  26.101   9.117
 1785POPC   GL226342  41.663  26.402   9.184
 1785POPC   C1A26343  41.598  26.004   8.718
 1785POPC   D2A26344  41.323  25.834   8.435
 1785POPC   C3A26345  41.492  25.973   8.089
 1785POPC   C4A26346  41.310  26.133   7.751
 1785POPC   C1B26347  41.838  26.463   8.755
 1785POPC   C2B26348  41.933  26.271   8.332
 1785POPC   C3B26349  41.775  26.341   7.904
 1785POPC   C4B26350  41.770  26.067   7.541
 1786POPC   NC326351  30.012  42.816   9.478
 1786POPC   PO426352  29.598  42.239   9.379
 1786POPC   GL126353  29.840  42.499   9.127
 1786POPC   GL226354  29.645  42.717   8.988
 1786POPC   C1A26355  30.105  42.544   8.781
 1786POPC   D2A26356  30.187  42.222   8.500
 1786POPC   C3A26357  30.192  42.371   8.121
 1786POPC   C4A26358  30.063  42.241   7.744
 1786POPC   C1B26359  29.429  42.480   8.697
 1786POPC   C2B26360  29.691  42.144   8.592
 1786POPC   C3B26361  29.810  41.993   8.183
 1786POPC   C4B26362  29.574  42.089   7.792
 1787POPC   NC326363   3.849  40.984   9.433
 1787POPC   PO426364   3.299  40.548   9.497
 1787POPC   GL126365   3.496  40.590   9.139
 1787POPC   GL226366   3.433  40.936   9.095
 1787POPC   C1A26367   3.480  40.526   8.701
 1787POPC   D2A26368   3.768  40.644   8.373
 1787POPC   C3A26369   3.709  40.478   7.973
 1787POPC   C4A26370   3.786  40.687   7.593
 1787POPC   C1B26371   3.454  41.018   8.639
 1787POPC   C2B26372   3.300  40.851   8.228
 1787POPC   C3B26373   3.346  40.885   7.770
 1787POPC   C4B26374   3.462  41.068   7.328
 1788POPC   NC326375  41.372  29.600   9.960
 1788POPC   PO426376  41.614  29.114   9.542
 1788POPC   GL126377  41.504  29.117   9.130
 1788POPC   GL226378  41.759  28.891   9.028
 1788POPC   C1A26379  41.353  29.092   8.709
 1788POPC   D2A26380  41.533  29.094   8.314
 1788POPC   C3A26381  41.302  28.992   7.944
 1788POPC   C4A26382  41.385  28.708   7.608
 1788POPC   C1B26383  41.858  29.263   8.741
 1788POPC   C2B26384  41.805  29.529   8.343
 1788POPC   C3B26385  41.749  29.325   7.906
 1788POPC   C4B26386  41.905  29.278   7.476
 1789POPC   NC326387  37.779   5.427   9.413
 1789POPC   PO426388  37.673   6.037   9.662
 1789POPC   GL126389  37.652   6.034   9.244
 1789POPC   GL226390  37.562   5.727   9.063
 1789POPC   C1A26391  37.870   6.061   8.842
 1789POPC   D2A26392  37.701   5.831   8.533
 1789POPC   C3A26393  37.849   5.869   8.124
 1789POPC   C4A26394  37.973   5.928   7.703
 1789POPC   C1B26395  37.343   6.064   8.854
 1789POPC   C2B26396  37.233   6.071   8.464
 1789POPC   C3B26397  37.329   5.781   8.184
 1789POPC   C4B26398  37.445   5.827   7.786
 1790POPC   NC326399  38.321  34.607   9.482
 1790POPC   PO426400  38.997  34.726   9.461
 1790POPC   GL126401  38.804  34.771   9.057
 1790POPC   GL226402  38.738  34.426   9.087
 1790POPC   C1A26403  38.917  34.754   8.596
 1790POPC   D2A26404  38.921  34.456   8.233
 1790POPC   C3A26405  38.617  34.574   7.885
 1790POPC   C4A26406  38.570  34.849   7.506
 1790POPC   C1B26407  38.630  34.326   8.654
 1790POPC   C2B26408  38.479  34.171   8.235
 1790POPC   C3B26409  38.252  34.241   7.833
 1790POPC   C4B26410  38.329  34.373   7.400
 1791POPC   NC326411  39.246  25.170   9.491
 1791POPC   PO426412  38.858  25.661   9.265
 1791POPC   GL126413  39.058  25.286   9.028
 1791POPC   GL226414  39.047  24.897   9.118
 1791POPC   C1A26415  39.289  25.302   8.641
 1791POPC   D2A26416  39.183  25.464   8.228
 1791POPC   C3A26417  39.508  25.542   7.957
 1791POPC   C4A26418  39.539  25.130   7.929
 1791POPC   C1B26419  38.996  24.855   8.683
 1791POPC   C2B26420  39.181  24.935   8.294
 1791POPC   C3B26421  39.038  25.047   7.902
 1791POPC   C4B26422  38.951  25.165   7.492
 1792POPC   NC326423  29.083  24.032   9.338
 1792POPC   PO426424  29.576  23.471   9.378
 1792POPC   GL126425  29.402  23.713   9.048
 1792POPC   GL226426  29.538  24.072   9.078
 1792POPC   C1A26427  29.096  23.559   8.708
 1792POPC   D2A26428  29.089  23.327   8.298
 1792POPC   C3A26429  29.023  23.549   7.923
 1792POPC   C4A26430  29.351  23.832   7.805
 1792POPC   C1B26431  29.278  24.060   8.691
 1792POPC   C2B26432  29.134  23.897   8.293
 1792POPC   C3B26433  28.855  24.020   7.946
 1792POPC   C4B26434  28.879  24.026   7.479
 1793POPC   NC326435  41.937  36.517   9.303
 1793POPC   PO426436  41.449  37.055   9.441
 1793POPC   GL126437  41.538  36.783   9.129
 1793POPC   GL226438  41.297  36.532   9.202
 1793POPC   C1A26439  41.636  36.866   8.697
 1793POPC   D2A26440  41.355  37.047   8.373
 1793POPC   C3A26441  41.584  37.040   7.987
 1793POPC   C4A26442  41.505  37.264   7.631
 1793POPC   C1B26443  41.157  36.705   8.808
 1793POPC   C2B26444  41.188  36.569   8.403
 1793POPC   C3B26445  41.433  36.551   8.016
 1793POPC   C4B26446  41.588  36.676   7.592
 1794POPC   NC326447  39.584  44.887   9.430
 1794POPC   PO426448  40.173  44.498   9.541
 1794POPC   GL126449  40.179  44.618   9.113
 1794POPC   GL226450  40.098  44.939   9.173
 1794POPC   C1A26451  39.990  44.669   8.709
 1794POPC   D2A26452  39.614  44.844   8.478
 1794POPC   C3A26453  39.636  44.697   8.068
 1794POPC   C4A26454  39.831  44.807   7.679
 1794POPC   C1B26455  40.385  45.000   8.808
 1794POPC   C2B26456  40.318  44.886   8.360
 1794POPC   C3B26457  40.223   0.039   7.932
 1794POPC   C4B26458  40.297  44.991   7.490
 1795POPC   NC326459   9.628  31.950   9.448
 1795POPC   PO426460  10.138  32.394   9.477
 1795POPC   GL126461   9.892  32.304   9.137
 1795POPC   GL226462   9.715  32.571   9.037
 1795POPC   C1A26463   9.699  32.108   8.767
 1795POPC   D2A26464   9.795  31.783   8.448
 1795POPC   C3A26465   9.702  31.903   8.008
 1795POPC   C4A26466   9.771  32.189   7.652
 1795POPC   C1B26467   9.356  32.526   8.790
 1795POPC   C2B26468   9.345  32.312   8.408
 1795POPC   C3B26469   9.577  32.405   8.060
 1795POPC   C4B26470   9.488  32.605   7.661
 1796POPC   NC326471  37.527  17.291   9.600
 1796POPC   PO426472  37.635  16.581   9.750
 1796POPC   GL126473  37.490  16.830   9.374
 1796POPC   GL226474  37.714  17.052   9.198
 1796POPC   C1A26475  37.436  16.770   8.898
 1796POPC   D2A26476  37.679  16.521   8.587
 1796POPC   C3A26477  37.603  16.641   8.166
 1796POPC   C4A26478  37.650  16.607   7.738
 1796POPC   C1B26479  37.976  17.218   8.879
 1796POPC   C2B26480  37.907  17.354   8.458
 1796POPC   C3B26481  37.748  17.142   8.084
 1796POPC   C4B26482  37.965  17.008   7.733
 1797POPC   NC326483   1.082   0.542   9.774
 1797POPC   PO426484   1.494   0.068   9.457
 1797POPC   GL126485   1.123   0.229   9.207
 1797POPC   GL226486   0.935   0.553   9.225
 1797POPC   C1A26487   1.241   0.156   8.772
 1797POPC   D2A26488   1.535   0.213   8.414
 1797POPC   C3A26489   1.317   0.191   8.020
 1797POPC   C4A26490   1.391   0.486   7.719
 1797POPC   C1B26491   0.697   0.791   8.876
 1797POPC   C2B26492   0.856   0.850   8.447
 1797POPC   C3B26493   1.103   0.708   8.097
 1797POPC   C4B26494   0.929   0.719   7.683
 1798POPC   NC326495   0.260  29.617   9.306
 1798POPC   PO426496   0.711  30.021   9.378
 1798POPC   GL126497   0.648  29.828   8.940
 1798POPC   GL226498   0.345  29.630   8.812
 1798POPC   C1A26499   0.600  29.854   8.442
 1798POPC   D2A26500   0.197  29.809   8.181
 1798POPC   C3A26501   0.353  29.807   7.748
 1798POPC   C4A26502   0.623  30.127   7.646
 1798POPC   C1B26503   0.248  30.086   8.723
 1798POPC   C2B26504   0.155  30.326   8.335
 1798POPC   C3B26505   0.118  30.235   7.900
 1798POPC   C4B26506  44.878  30.192   7.506
 1799POPC   NC326507  29.772  30.538   9.453
 1799POPC   PO426508  30.333  30.909   9.387
 1799POPC   GL126509  30.033  30.707   9.064
 1799POPC   GL226510  30.105  30.361   9.104
 1799POPC   C1A26511  29.775  30.754   8.669
 1799POPC   D2A26512  29.663  31.002   8.315
 1799POPC   C3A26513  29.738  30.855   7.896
 1799POPC   C4A26514  29.891  31.075   7.529
 1799POPC   C1B26515  29.751  30.277   8.824
 1799POPC   C2B26516  29.640  30.266   8.395
 1799POPC   C3B26517  29.466  30.430   8.007
 1799POPC   C4B26518  29.658  30.431   7.602
 1800POPC   NC326519  27.154  34.231   9.232
 1800POPC   PO426520  27.020  34.871   9.555
 1800POPC   GL126521  26.902  34.683   9.162
 1800POPC   GL226522  26.567  34.590   9.223
 1800POPC   C1A26523  26.751  34.839   8.740
 1800POPC   D2A26524  26.996  34.778   8.390
 1800POPC   C3A26525  26.875  34.713   8.010
 1800POPC   C4A26526  27.036  34.462   7.701
 1800POPC   C1B26527  26.600  34.365   8.800
 1800POPC   C2B26528  26.534  34.522   8.365
 1800POPC   C3B26529  26.470  34.434   7.894
 1800POPC   C4B26530  26.615  34.703   7.563
 1801POPC   NC326531  14.643  28.965   9.497
 1801POPC   PO426532  14.408  29.671   9.579
 1801POPC   GL126533  14.612  29.407   9.240
 1801POPC   GL226534  14.320  29.212   9.162
 1801POPC   C1A26535  14.623  29.307   8.771
 1801POPC   D2A26536  14.423  29.317   8.360
 1801POPC   C3A26537  14.621  29.218   7.987
 1801POPC   C4A26538  14.535  29.414   7.611
 1801POPC   C1B26539  14.125  29.137   8.771
 1801POPC   C2B26540  14.215  28.871   8.450
 1801POPC   C3B26541  14.194  28.947   8.035
 1801POPC   C4B26542  14.125  28.711   7.684
 1802POPC   NC326543  33.148  38.719   9.923
 1802POPC   PO426544  32.873  38.269   9.413
 1802POPC   GL126545  33.111  38.184   9.087
 1802POPC   GL226546  33.202  38.532   9.036
 1802POPC   C1A26547  33.018  38.089   8.681
 1802POPC   D2A26548  32.947  38.323   8.317
 1802POPC   C3A26549  33.153  38.231   7.926
 1802POPC   C4A26550  32.899  38.237   7.565
 1802POPC   C1B26551  32.912  38.704   8.717
 1802POPC   C2B26552  32.769  38.805   8.309
 1802POPC   C3B26553  32.825  38.644   7.910
 1802POPC   C4B26554  33.182  38.666   7.601
 1803POPC   NC326555  35.530  19.602   9.580
 1803POPC   PO426556  35.569  20.283   9.713
 1803POPC   GL126557  35.481  20.094   9.282
 1803POPC   GL226558  35.396  19.783   9.119
 1803POPC   C1A26559  35.560  20.166   8.820
 1803POPC   D2A26560  35.670  19.938   8.437
 1803POPC   C3A26561  35.476  20.036   8.034
 1803POPC   C4A26562  35.487  19.898   7.616
 1803POPC   C1B26563  35.157  19.743   8.746
 1803POPC   C2B26564  35.229  19.670   8.327
 1803POPC   C3B26565  34.973  19.826   8.036
 1803POPC   C4B26566  34.951  19.926   7.647
 1804POPC   NC326567   8.211   3.123   9.743
 1804POPC   PO426568   8.404   3.742   9.579
 1804POPC   GL126569   8.329   3.463   9.239
 1804POPC   GL226570   8.172   3.765   9.100
 1804POPC   C1A26571   8.150   3.322   8.810
 1804POPC   D2A26572   8.118   3.130   8.354
 1804POPC   C3A26573   8.060   3.391   7.948
 1804POPC   C4A26574   8.034   3.754   7.647
 1804POPC   C1B26575   8.496   3.687   8.794
 1804POPC   C2B26576   8.336   3.613   8.381
 1804POPC   C3B26577   8.504   3.677   7.981
 1804POPC   C4B26578   8.500   3.486   7.616
 1805POPC   NC326579  43.299  11.501   9.531
 1805POPC   PO426580  42.815  11.010   9.391
 1805POPC   GL126581  42.916  11.365   9.143
 1805POPC   GL226582  43.268  11.376   9.043
 1805POPC   C1A26583  42.898  11.447   8.706
 1805POPC   D2A26584  42.999  11.121   8.416
 1805POPC   C3A26585  42.840  11.289   8.036
 1805POPC   C4A26586  43.098  11.356   7.712
 1805POPC   C1B26587  43.447  11.025   8.835
 1805POPC   C2B26588  43.521  10.892   8.416
 1805POPC   C3B26589  43.400  11.052   8.026
 1805POPC   C4B26590  43.271  10.890   7.599
 1806POPC   NC326591  19.397  19.993   9.470
 1806POPC   PO426592  18.767  19.619   9.441
 1806POPC   GL126593  19.006  19.864   9.167
 1806POPC   GL226594  18.971  20.246   9.204
 1806POPC   C1A26595  19.111  19.677   8.797
 1806POPC   D2A26596  19.242  19.556   8.397
 1806POPC   C3A26597  18.991  19.756   8.042
 1806POPC   C4A26598  19.145  19.735   7.618
 1806POPC   C1B26599  19.239  20.219   8.831
 1806POPC   C2B26600  19.100  20.071   8.435
 1806POPC   C3B26601  19.048  20.253   8.016
 1806POPC   C4B26602  18.850  20.144   7.657
 1807POPC   NC326603  43.027   1.412   9.424
 1807POPC   PO426604  43.347   0.875   9.512
 1807POPC   GL126605  43.207   1.035   9.152
 1807POPC   GL226606  42.856   0.961   9.154
 1807POPC   C1A26607  43.180   1.099   8.744
 1807POPC   D2A26608  43.358   0.984   8.361
 1807POPC   C3A26609  43.116   1.235   8.074
 1807POPC   C4A26610  43.090   1.439   7.667
 1807POPC   C1B26611  42.625   0.819   8.773
 1807POPC   C2B26612  42.776   0.894   8.325
 1807POPC   C3B26613  42.756   0.902   7.862
 1807POPC   C4B26614  42.837   0.922   7.413
 1808POPC   NC326615  36.288   0.363   9.438
 1808POPC   PO426616  35.619   0.491   9.448
 1808POPC   GL126617  35.898   0.542   9.119
 1808POPC   GL226618  36.078   0.811   9.253
 1808POPC   C1A26619  36.046   0.307   8.744
 1808POPC   D2A26620  36.195   0.119   8.342
 1808POPC   C3A26621  35.964   0.226   7.960
 1808POPC   C4A26622  36.243   0.373   7.601
 1808POPC   C1B26623  36.310   0.746   8.854
 1808POPC   C2B26624  36.222   0.716   8.421
 1808POPC   C3B26625  36.371   0.574   8.034
 1808POPC   C4B26626  36.547   0.807   7.644
 1809POPC   NC326627  24.254   1.247   9.625
 1809POPC   PO426628  24.979   1.086   9.499
 1809POPC   GL126629  24.714   1.288   9.180
 1809POPC   GL226630  24.360   1.392   9.156
 1809POPC   C1A26631  24.596   1.165   8.747
 1809POPC   D2A26632  24.310   0.987   8.453
 1809POPC   C3A26633  24.399   1.169   8.079
 1809POPC   C4A26634  24.425   1.246   7.646
 1809POPC   C1B26635  24.382   1.630   8.778
 1809POPC   C2B26636  24.265   1.596   8.352
 1809POPC   C3B26637  24.307   1.658   7.923
 1809POPC   C4B26638  24.693   1.678   7.639
 1810POPC   NC326639  34.316  13.947   9.549
 1810POPC   PO426640  34.473  14.634   9.378
 1810POPC   GL126641  34.529  14.380   9.075
 1810POPC   GL226642  34.601  14.069   9.123
 1810POPC   C1A26643  34.680  14.368   8.691
 1810POPC   D2A26644  34.510  14.232   8.345
 1810POPC   C3A26645  34.532  14.593   8.110
 1810POPC   C4A26646  34.698  14.646   7.743
 1810POPC   C1B26647  34.332  13.939   8.770
 1810POPC   C2B26648  34.116  13.903   8.359
 1810POPC   C3B26649  34.316  13.964   7.953
 1810POPC   C4B26650  34.669  14.146   7.853
 1811POPC   NC326651   7.717  11.972   9.229
 1811POPC   PO426652   7.523  12.480   9.647
 1811POPC   GL126653   7.335  12.379   9.191
 1811POPC   GL226654   7.126  12.061   9.133
 1811POPC   C1A26655   7.263  12.304   8.735
 1811POPC   D2A26656   7.198  12.076   8.361
 1811POPC   C3A26657   7.513  12.209   8.095
 1811POPC   C4A26658   7.769  11.972   7.828
 1811POPC   C1B26659   7.242  11.749   8.757
 1811POPC   C2B26660   7.217  11.574   8.310
 1811POPC   C3B26661   7.242  11.795   7.916
 1811POPC   C4B26662   6.972  11.682   7.518
 1812POPC   NC326663   1.566  15.867   9.398
 1812POPC   PO426664   2.136  16.132   9.660
 1812POPC   GL126665   2.022  15.995   9.223
 1812POPC   GL226666   2.192  15.751   9.029
 1812POPC   C1A26667   1.889  16.078   8.780
 1812POPC   D2A26668   1.991  16.303   8.381
 1812POPC   C3A26669   1.974  16.043   8.006
 1812POPC   C4A26670   1.960  16.113   7.549
 1812POPC   C1B26671   2.135  15.525   8.683
 1812POPC   C2B26672   2.231  15.646   8.279
 1812POPC   C3B26673   2.377  15.676   7.882
 1812POPC   C4B26674   2.008  15.634   7.689
 1813POPC   NC326675  43.532   9.082   9.304
 1813POPC   PO426676  44.213   9.000   9.436
 1813POPC   GL126677  44.270   8.782   9.071
 1813POPC   GL226678  43.910   8.726   8.992
 1813POPC   C1A26679  44.314   8.723   8.652
 1813POPC   D2A26680  44.111   8.983   8.360
 1813POPC   C3A26681  43.947   8.737   8.033
 1813POPC   C4A26682  43.928   8.809   7.596
 1813POPC   C1B26683  43.678   8.910   8.646
 1813POPC   C2B26684  43.614   9.082   8.230
 1813POPC   C3B26685  43.855   9.225   7.887
 1813POPC   C4B26686  43.671   9.370   7.506
 1814POPC   NC326687  17.938  28.893   9.538
 1814POPC   PO426688  17.757  29.535   9.505
 1814POPC   GL126689  17.585  29.165   9.247
 1814POPC   GL226690  17.798  28.917   9.064
 1814POPC   C1A26691  17.363  29.144   8.824
 1814POPC   D2A26692  17.185  29.250   8.402
 1814POPC   C3A26693  17.361  29.361   8.013
 1814POPC   C4A26694  17.462  29.073   7.708
 1814POPC   C1B26695  17.858  29.259   8.822
 1814POPC   C2B26696  17.698  29.334   8.420
 1814POPC   C3B26697  17.842  29.181   8.019
 1814POPC   C4B26698  18.027  29.475   7.794
 1815POPC   NC326699  12.918  39.474   9.477
 1815POPC   PO426700  12.407  39.036   9.698
 1815POPC   GL126701  12.413  39.095   9.247
 1815POPC   GL226702  12.510  39.445   9.151
 1815POPC   C1A26703  12.666  39.014   8.862
 1815POPC   D2A26704  12.964  39.081   8.480
 1815POPC   C3A26705  12.842  38.917   8.057
 1815POPC   C4A26706  12.733  39.077   7.645
 1815POPC   C1B26707  12.810  39.508   8.786
 1815POPC   C2B26708  12.704  39.593   8.329
 1815POPC   C3B26709  12.794  39.531   7.877
 1815POPC   C4B26710  12.799  39.538   7.437
 1816POPC   NC326711   5.964  37.405   9.731
 1816POPC   PO426712   5.717  37.693   9.167
 1816POPC   GL126713   6.074  37.731   9.142
 1816POPC   GL226714   6.180  37.384   9.259
 1816POPC   C1A26715   6.156  37.845   8.719
 1816POPC   D2A26716   5.962  38.053   8.345
 1816POPC   C3A26717   5.751  37.792   8.056
 1816POPC   C4A26718   5.592  37.861   7.627
 1816POPC   C1B26719   6.158  37.351   8.820
 1816POPC   C2B26720   6.077  37.430   8.410
 1816POPC   C3B26721   6.235  37.657   8.083
 1816POPC   C4B26722   6.034  37.619   7.669
 1817POPC   NC326723   4.761  12.311   9.641
 1817POPC   PO426724   5.431  12.069   9.522
 1817POPC   GL126725   5.313  12.120   9.140
 1817POPC   GL226726   4.964  12.097   9.190
 1817POPC   C1A26727   5.279  12.103   8.720
 1817POPC   D2A26728   5.041  12.201   8.395
 1817POPC   C3A26729   5.254  12.244   8.034
 1817POPC   C4A26730   5.037  12.393   7.691
 1817POPC   C1B26731   4.811  11.902   8.800
 1817POPC   C2B26732   4.891  11.686   8.410
 1817POPC   C3B26733   4.892  11.869   7.991
 1817POPC   C4B26734   5.196  11.914   7.657
 1818POPC   NC326735   1.970   3.843   9.686
 1818POPC   PO426736   1.891   3.173   9.806
 1818POPC   GL126737   1.807   3.415   9.425
 1818POPC   GL226738   2.134   3.544   9.304
 1818POPC   C1A26739   1.701   3.529   8.987
 1818POPC   D2A26740   1.956   3.457   8.604
 1818POPC   C3A26741   1.913   3.689   8.211
 1818POPC   C4A26742   1.860   3.482   7.835
 1818POPC   C1B26743   2.273   3.711   8.914
 1818POPC   C2B26744   2.336   3.783   8.501
 1818POPC   C3B26745   2.427   3.751   8.077
 1818POPC   C4B26746   2.320   3.623   7.672
 1819POPC   NC326747  15.177  30.336   9.436
 1819POPC   PO426748  15.493  30.954   9.532
 1819POPC   GL126749  15.447  30.871   9.028
 1819POPC   GL226750  15.228  30.553   8.981
 1819POPC   C1A26751  15.241  30.877   8.609
 1819POPC   D2A26752  15.187  30.678   8.235
 1819POPC   C3A26753  15.176  30.993   7.915
 1819POPC   C4A26754  14.777  31.198   7.826
 1819POPC   C1B26755  15.533  30.470   8.670
 1819POPC   C2B26756  15.475  30.240   8.293
 1819POPC   C3B26757  15.491  30.460   7.904
 1819POPC   C4B26758  15.449  30.318   7.506
 1820POPC   NC326759  19.570  32.089   9.572
 1820POPC   PO426760  19.786  32.619   9.585
 1820POPC   GL126761  19.527  32.455   9.202
 1820POPC   GL226762  19.401  32.056   9.103
 1820POPC   C1A26763  19.531  32.575   8.777
 1820POPC   D2A26764  19.373  32.593   8.354
 1820POPC   C3A26765  19.647  32.404   8.038
 1820POPC   C4A26766  19.776  32.109   7.717
 1820POPC   C1B26767  19.749  32.118   8.893
 1820POPC   C2B26768  19.727  32.160   8.468
 1820POPC   C3B26769  19.846  31.842   8.157
 1820POPC   C4B26770  20.090  31.702   7.803
 1821POPC   NC326771  28.068  23.786   9.623
 1821POPC   PO426772  28.778  23.767   9.562
 1821POPC   GL126773  28.547  23.900   9.215
 1821POPC   GL226774  28.328  23.612   9.181
 1821POPC   C1A26775  28.667  23.862   8.756
 1821POPC   D2A26776  28.646  23.579   8.386
 1821POPC   C3A26777  28.437  23.672   8.008
 1821POPC   C4A26778  28.603  23.629   7.600
 1821POPC   C1B26779  28.221  23.596   8.744
 1821POPC   C2B26780  28.029  23.710   8.369
 1821POPC   C3B26781  27.914  23.567   7.964
 1821POPC   C4B26782  28.079  23.758   7.618
 1822POPC   NC326783   6.553   3.269   9.438
 1822POPC   PO426784   6.603   3.971   9.493
 1822POPC   GL126785   6.821   3.835   9.117
 1822POPC   GL226786   6.724   3.492   8.999
 1822POPC   C1A26787   6.762   3.915   8.695
 1822POPC   D2A26788   6.583   3.698   8.352
 1822POPC   C3A26789   6.793   3.560   7.982
 1822POPC   C4A26790   6.660   3.880   7.722
 1822POPC   C1B26791   6.311   3.639   8.812
 1822POPC   C2B26792   6.133   3.498   8.401
 1822POPC   C3B26793   6.278   3.409   7.971
 1822POPC   C4B26794   6.124   3.421   7.529
 1823POPC   NC326795  35.401  34.918   9.498
 1823POPC   PO426796  35.057  34.475   9.841
 1823POPC   GL126797  35.101  34.541   9.293
 1823POPC   GL226798  35.430  34.527   9.120
 1823POPC   C1A26799  35.068  34.657   8.788
 1823POPC   D2A26800  35.232  34.987   8.428
 1823POPC   C3A26801  35.184  34.833   7.973
 1823POPC   C4A26802  35.208  34.535   7.593
 1823POPC   C1B26803  35.576  34.685   8.686
 1823POPC   C2B26804  35.690  34.826   8.246
 1823POPC   C3B26805  35.652  34.650   7.814
 1823POPC   C4B26806  35.638  34.732   7.347
 1824POPC   NC326807   2.352  36.963   9.483
 1824POPC   PO426808   1.642  36.804   9.487
 1824POPC   GL126809   1.949  36.815   9.149
 1824POPC   GL226810   2.199  36.560   9.207
 1824POPC   C1A26811   2.059  36.978   8.714
 1824POPC   D2A26812   2.310  37.007   8.315
 1824POPC   C3A26813   2.013  37.056   7.949
 1824POPC   C4A26814   1.515  37.099   7.865
 1824POPC   C1B26815   2.149  36.484   8.766
 1824POPC   C2B26816   1.990  36.614   8.324
 1824POPC   C3B26817   2.009  36.560   7.868
 1824POPC   C4B26818   2.258  36.728   7.539
 1825POPC   NC326819  15.558  40.507   9.476
 1825POPC   PO426820  16.205  40.368   9.521
 1825POPC   GL126821  15.942  40.275   9.199
 1825POPC   GL226822  16.010  39.931   9.105
 1825POPC   C1A26823  15.731  40.241   8.824
 1825POPC   D2A26824  15.863  39.989   8.496
 1825POPC   C3A26825  15.943  40.286   8.168
 1825POPC   C4A26826  15.980  40.081   7.784
 1825POPC   C1B26827  16.298  39.735   8.823
 1825POPC   C2B26828  16.194  39.545   8.477
 1825POPC   C3B26829  15.993  39.665   8.105
 1825POPC   C4B26830  16.187  39.598   7.738
 1826POPC   NC326831   0.872  31.217   9.505
 1826POPC   PO426832   1.339  31.726   9.652
 1826POPC   GL126833   1.128  31.606   9.238
 1826POPC   GL226834   0.899  31.866   9.055
 1826POPC   C1A26835   1.342  31.370   8.892
 1826POPC   D2A26836   1.208  31.163   8.494
 1826POPC   C3A26837   1.259  31.342   8.071
 1826POPC   C4A26838   1.457  31.130   7.724
 1826POPC   C1B26839   1.253  31.866   8.752
 1826POPC   C2B26840   1.414  31.936   8.311
 1826POPC   C3B26841   1.438  31.842   7.856
 1826POPC   C4B26842   1.428  31.554   7.458
 1827POPC   NC326843  36.609   3.774   9.733
 1827POPC   PO426844  36.026   3.411   9.483
 1827POPC   GL126845  36.129   3.483   9.085
 1827POPC   GL226846  36.469   3.325   9.165
 1827POPC   C1A26847  36.095   3.803   8.717
 1827POPC   D2A26848  36.131   4.038   8.334
 1827POPC   C3A26849  36.159   3.805   7.956
 1827POPC   C4A26850  36.071   3.353   7.788
 1827POPC   C1B26851  36.465   3.397   8.729
 1827POPC   C2B26852  36.450   3.620   8.373
 1827POPC   C3B26853  36.506   3.436   8.001
 1827POPC   C4B26854  36.528   3.603   7.602
 1828POPC   NC326855   5.944  20.866   9.356
 1828POPC   PO426856   5.454  20.522   9.477
 1828POPC   GL126857   5.551  20.622   9.065
 1828POPC   GL226858   5.495  20.953   9.084
 1828POPC   C1A26859   5.763  20.564   8.638
 1828POPC   D2A26860   6.091  20.632   8.289
 1828POPC   C3A26861   5.943  20.539   7.881
 1828POPC   C4A26862   5.551  20.341   7.724
 1828POPC   C1B26863   5.736  21.063   8.749
 1828POPC   C2B26864   5.620  20.988   8.341
 1828POPC   C3B26865   5.716  20.997   7.933
 1828POPC   C4B26866   5.510  20.838   7.617
 1829POPC   NC326867  20.178  26.127   9.699
 1829POPC   PO426868  19.541  25.888   9.560
 1829POPC   GL126869  19.859  25.950   9.201
 1829POPC   GL226870  20.080  25.683   9.052
 1829POPC   C1A26871  19.978  26.235   8.883
 1829POPC   D2A26872  20.096  26.339   8.450
 1829POPC   C3A26873  19.843  26.196   8.112
 1829POPC   C4A26874  19.738  26.141   7.679
 1829POPC   C1B26875  19.854  25.769   8.660
 1829POPC   C2B26876  19.810  25.658   8.199
 1829POPC   C3B26877  19.649  25.655   7.762
 1829POPC   C4B26878  19.871  25.654   7.377
 1830POPC   NC326879  38.077  15.044   9.522
 1830POPC   PO426880  37.342  15.044   9.540
 1830POPC   GL126881  37.563  15.305   9.243
 1830POPC   GL226882  37.282  15.389   9.054
 1830POPC   C1A26883  37.739  15.307   8.820
 1830POPC   D2A26884  38.076  15.370   8.501
 1830POPC   C3A26885  37.925  15.300   8.075
 1830POPC   C4A26886  37.798  15.313   7.636
 1830POPC   C1B26887  37.266  15.123   8.728
 1830POPC   C2B26888  37.303  15.080   8.321
 1830POPC   C3B26889  37.391  15.290   7.973
 1830POPC   C4B26890  37.320  15.134   7.575
 1831POPC   NC326891  39.798  28.421   9.525
 1831POPC   PO426892  40.241  27.997   9.843
 1831POPC   GL126893  40.285  28.239   9.388
 1831POPC   GL226894  40.012  28.160   9.160
 1831POPC   C1A26895  40.401  28.331   8.911
 1831POPC   D2A26896  40.403  28.264   8.465
 1831POPC   C3A26897  40.128  28.132   8.114
 1831POPC   C4A26898  40.130  28.344   7.712
 1831POPC   C1B26899  39.922  28.467   8.851
 1831POPC   C2B26900  39.906  28.479   8.422
 1831POPC   C3B26901  39.781  28.522   8.023
 1831POPC   C4B26902  39.731  28.649   7.615
 1832POPC   NC326903  21.339  26.650   9.640
 1832POPC   PO426904  21.984  26.627   9.633
 1832POPC   GL126905  21.649  26.592   9.245
 1832POPC   GL226906  21.870  26.445   9.089
 1832POPC   C1A26907  21.342  26.725   8.855
 1832POPC   D2A26908  21.250  27.040   8.494
 1832POPC   C3A26909  21.247  26.886   8.026
 1832POPC   C4A26910  21.145  26.980   7.569
 1832POPC   C1B26911  21.819  26.675   8.717
 1832POPC   C2B26912  21.643  26.771   8.329
 1832POPC   C3B26913  21.751  26.759   7.879
 1832POPC   C4B26914  21.954  26.647   7.482
 1833POPC   NC326915   6.624   2.534   9.296
 1833POPC   PO426916   6.971   3.062   9.422
 1833POPC   GL126917   6.722   2.964   9.045
 1833POPC   GL226918   6.343   2.909   9.077
 1833POPC   C1A26919   6.661   2.718   8.655
 1833POPC   D2A26920   6.872   2.724   8.268
 1833POPC   C3A26921   6.625   2.504   7.950
 1833POPC   C4A26922   6.507   2.513   7.541
 1833POPC   C1B26923   6.392   3.149   8.699
 1833POPC   C2B26924   6.683   3.198   8.366
 1833POPC   C3B26925   6.649   3.057   7.946
 1833POPC   C4B26926   6.385   2.989   7.644
 1834POPC   NC326927  42.475  31.661   9.533
 1834POPC   PO426928  41.997  31.157   9.469
 1834POPC   GL126929  42.274  31.360   9.158
 1834POPC   GL226930  42.212  31.664   8.987
 1834POPC   C1A26931  42.621  31.287   8.870
 1834POPC   D2A26932  42.617  31.311   8.429
 1834POPC   C3A26933  42.232  31.351   8.190
 1834POPC   C4A26934  42.173  31.337   7.756
 1834POPC   C1B26935  42.476  31.853   8.715
 1834POPC   C2B26936  42.588  31.797   8.273
 1834POPC   C3B26937  42.402  31.796   7.867
 1834POPC   C4B26938  41.990  31.823   7.690
 1835POPC   NC326939  12.608  38.651   9.561
 1835POPC   PO426940  13.196  38.310   9.411
 1835POPC   GL126941  12.922  38.484   9.175
 1835POPC   GL226942  12.599  38.301   9.185
 1835POPC   C1A26943  13.039  38.648   8.777
 1835POPC   D2A26944  13.230  38.571   8.376
 1835POPC   C3A26945  13.023  38.425   8.016
 1835POPC   C4A26946  13.046  38.518   7.588
 1835POPC   C1B26947  12.695  38.253   8.782
 1835POPC   C2B26948  12.685  38.472   8.429
 1835POPC   C3B26949  12.502  38.406   8.065
 1835POPC   C4B26950  12.571  38.598   7.694
 1836POPC   NC326951  29.069  42.785   9.808
 1836POPC   PO426952  29.384  43.368   9.761
 1836POPC   GL126953  29.112  43.105   9.346
 1836POPC   GL226954  28.894  42.862   9.154
 1836POPC   C1A26955  29.283  43.052   8.865
 1836POPC   D2A26956  29.453  43.043   8.410
 1836POPC   C3A26957  29.327  42.936   7.991
 1836POPC   C4A26958  29.278  43.051   7.542
 1836POPC   C1B26959  28.851  42.880   8.665
 1836POPC   C2B26960  28.885  42.750   8.210
 1836POPC   C3B26961  28.902  42.768   7.753
 1836POPC   C4B26962  28.815  43.210   7.574
 1837POPC   NC326963  35.405   0.080   9.462
 1837POPC   PO426964  34.845  44.904   9.210
 1837POPC   GL126965  35.196  44.993   8.983
 1837POPC   GL226966  35.292  44.670   9.053
 1837POPC   C1A26967  35.610  45.000   8.775
 1837POPC   D2A26968  35.801  44.786   8.437
 1837POPC   C3A26969  35.541  44.819   8.074
 1837POPC   C4A26970  35.583   0.016   7.656
 1837POPC   C1B26971  35.427  44.516   8.665
 1837POPC   C2B26972  35.390  44.322   8.251
 1837POPC   C3B26973  35.389  44.378   7.809
 1837POPC   C4B26974  35.366  44.305   7.364
 1838POPC   NC326975  27.964   1.228   9.448
 1838POPC   PO426976  28.663   1.347   9.510
 1838POPC   GL126977  28.417   1.113   9.142
 1838POPC   GL226978  28.061   0.989   9.012
 1838POPC   C1A26979  28.486   1.006   8.725
 1838POPC   D2A26980  28.509   1.219   8.355
 1838POPC   C3A26981  28.483   1.068   7.924
 1838POPC   C4A26982  28.196   0.785   7.733
 1838POPC   C1B26983  28.117   1.380   8.756
 1838POPC   C2B26984  28.137   1.565   8.329
 1838POPC   C3B26985  28.124   1.441   7.894
 1838POPC   C4B26986  28.065   1.439   7.466
 1839POPC   NC326987  11.108  17.290   9.524
 1839POPC   PO426988  11.700  17.583   9.700
 1839POPC   GL126989  11.466  17.598   9.306
 1839POPC   GL226990  11.413  17.954   9.232
 1839POPC   C1A26991  11.332  17.299   8.940
 1839POPC   D2A26992  11.119  17.351   8.581
 1839POPC   C3A26993  11.220  17.266   8.144
 1839POPC   C4A26994  11.082  17.342   7.714
 1839POPC   C1B26995  11.411  17.767   8.807
 1839POPC   C2B26996  11.168  17.848   8.437
 1839POPC   C3B26997  11.208  17.775   7.997
 1839POPC   C4B26998  11.537  17.922   7.735
 1840POPC   NC326999  41.296  10.936   9.484
 1840POPC   PO427000  41.883  11.373   9.409
 1840POPC   GL127001  41.522  11.308   9.141
 1840POPC   GL227002  41.569  10.951   9.051
 1840POPC   C1A27003  41.464  11.387   8.702
 1840POPC   D2A27004  41.644  11.252   8.315
 1840POPC   C3A27005  41.655  11.482   7.944
 1840POPC   C4A27006  41.584  11.361   7.525
 1840POPC   C1B27007  41.316  10.837   8.707
 1840POPC   C2B27008  41.173  11.000   8.318
 1840POPC   C3B27009  41.353  11.059   7.891
 1840POPC   C4B27010  41.521  10.858   7.509
 1841POPC   NC327011  33.637  23.975   9.736
 1841POPC   PO427012  34.178  23.703   9.476
 1841POPC   GL127013  33.987  23.524   9.159
 1841POPC   GL227014  33.750  23.309   9.305
 1841POPC   C1A27015  33.998  23.594   8.744
 1841POPC   D2A27016  33.629  23.673   8.532
 1841POPC   C3A27017  33.606  23.834   8.122
 1841POPC   C4A27018  33.962  23.782   7.851
 1841POPC   C1B27019  33.684  23.227   8.867
 1841POPC   C2B27020  33.525  23.187   8.453
 1841POPC   C3B27021  33.781  23.349   8.109
 1841POPC   C4B27022  33.693  23.400   7.665
 1842POPC   NC327023   6.490  22.737   9.670
 1842POPC   PO427024   6.881  23.290   9.645
 1842POPC   GL127025   6.712  23.040   9.287
 1842POPC   GL227026   6.505  22.713   9.154
 1842POPC   C1A27027   6.717  23.106   8.873
 1842POPC   D2A27028   6.578  22.945   8.503
 1842POPC   C3A27029   6.734  23.017   8.099
 1842POPC   C4A27030   6.608  22.904   7.701
 1842POPC   C1B27031   6.833  22.608   8.811
 1842POPC   C2B27032   7.021  22.655   8.363
 1842POPC   C3B27033   6.977  22.613   7.889
 1842POPC   C4B27034   6.969  22.356   7.500
 1843POPC   NC327035  38.789  21.364   9.409
 1843POPC   PO427036  39.388  21.155   9.432
 1843POPC   GL127037  39.177  21.314   9.078
 1843POPC   GL227038  39.442  21.576   9.075
 1843POPC   C1A27039  39.235  21.326   8.649
 1843POPC   D2A27040  39.592  21.277   8.379
 1843POPC   C3A27041  39.489  21.332   7.941
 1843POPC   C4A27042  39.320  21.485   7.541
 1843POPC   C1B27043  39.512  21.760   8.667
 1843POPC   C2B27044  39.294  21.715   8.290
 1843POPC   C3B27045  39.417  21.836   7.905
 1843POPC   C4B27046  39.455  21.985   7.481
 1844POPC   NC327047   0.260  31.347   9.874
 1844POPC   PO427048   0.759  31.660   9.659
 1844POPC   GL127049   0.423  31.457   9.367
 1844POPC   GL227050   0.629  31.428   9.105
 1844POPC   C1A27051   0.164  31.519   8.947
 1844POPC   D2A27052   0.373  31.320   8.584
 1844POPC   C3A27053   0.317  31.463   8.160
 1844POPC   C4A27054   0.345  31.263   7.748
 1844POPC   C1B27055   0.859  31.460   8.756
 1844POPC   C2B27056   0.811  31.542   8.349
 1844POPC   C3B27057   0.755  31.223   8.056
 1844POPC   C4B27058   0.919  31.217   7.675
 1845POPC   NC327059  41.764   4.959   9.594
 1845POPC   PO427060  41.461   5.483   9.466
 1845POPC   GL127061  41.521   5.135   9.187
 1845POPC   GL227062  41.896   5.014   9.109
 1845POPC   C1A27063  41.439   4.914   8.831
 1845POPC   D2A27064  41.684   4.872   8.458
 1845POPC   C3A27065  41.490   4.904   8.064
 1845POPC   C4A27066  41.468   5.038   7.654
 1845POPC   C1B27067  41.788   5.302   8.778
 1845POPC   C2B27068  41.548   5.350   8.403
 1845POPC   C3B27069  41.751   5.344   8.001
 1845POPC   C4B27070  41.712   5.489   7.547
 1846POPC   NC327071  30.249  35.233   9.474
 1846POPC   PO427072  30.934  35.419   9.447
 1846POPC   GL127073  30.587  35.434   9.121
 1846POPC   GL227074  30.315  35.259   8.986
 1846POPC   C1A27075  30.582  35.594   8.708
 1846POPC   D2A27076  30.788  35.432   8.353
 1846POPC   C3A27077  30.550  35.574   8.014
 1846POPC   C4A27078  30.315  35.489   7.639
 1846POPC   C1B27079  30.691  35.100   8.770
 1846POPC   C2B27080  30.723  34.901   8.357
 1846POPC   C3B27081  30.650  35.086   7.960
 1846POPC   C4B27082  30.325  34.984   7.644
 1847POPC   NC327083   3.277  37.661   9.527
 1847POPC   PO427084   3.895  38.013   9.337
 1847POPC   GL127085   3.704  37.619   9.256
 1847POPC   GL227086   3.954  37.388   9.300
 1847POPC   C1A27087   3.425  37.511   8.880
 1847POPC   D2A27088   3.571  37.511   8.433
 1847POPC   C3A27089   3.446  37.648   8.009
 1847POPC   C4A27090   3.143  37.970   7.925
 1847POPC   C1B27091   3.942  37.490   8.845
 1847POPC   C2B27092   4.058  37.421   8.436
 1847POPC   C3B27093   3.994  37.520   8.021
 1847POPC   C4B27094   3.841  37.516   7.603
 1848POPC   NC327095   9.998  24.856   9.349
 1848POPC   PO427096   9.837  25.414   9.623
 1848POPC   GL127097   9.518  25.375   9.249
 1848POPC   GL227098   9.563  25.049   9.111
 1848POPC   C1A27099   9.330  25.515   8.835
 1848POPC   D2A27100   9.539  25.573   8.413
 1848POPC   C3A27101   9.648  25.410   8.018
 1848POPC   C4A27102   9.427  25.356   7.657
 1848POPC   C1B27103   9.699  25.200   8.720
 1848POPC   C2B27104   9.869  25.085   8.345
 1848POPC   C3B27105   9.736  24.904   7.955
 1848POPC   C4B27106   9.914  25.106   7.620
 1849POPC   NC327107  10.132  26.535   9.517
 1849POPC   PO427108   9.791  27.126   9.605
 1849POPC   GL127109   9.689  27.074   9.175
 1849POPC   GL227110   9.988  26.914   9.178
 1849POPC   C1A27111   9.729  26.804   8.748
 1849POPC   D2A27112   9.932  26.556   8.390
 1849POPC   C3A27113   9.662  26.543   8.016
 1849POPC   C4A27114   9.368  26.906   7.930
 1849POPC   C1B27115  10.023  27.211   8.825
 1849POPC   C2B27116  10.076  27.238   8.410
 1849POPC   C3B27117   9.830  27.034   8.107
 1849POPC   C4B27118   9.905  26.889   7.685
 1850POPC   NC327119  24.852  26.393   9.795
 1850POPC   PO427120  24.407  25.916   9.514
 1850POPC   GL127121  24.491  25.881   9.066
 1850POPC   GL227122  24.825  25.838   9.050
 1850POPC   C1A27123  24.479  25.963   8.606
 1850POPC   D2A27124  24.431  25.759   8.197
 1850POPC   C3A27125  24.305  26.045   7.880
 1850POPC   C4A27126  24.371  26.066   7.438
 1850POPC   C1B27127  24.992  25.885   8.618
 1850POPC   C2B27128  24.923  25.988   8.141
 1850POPC   C3B27129  24.787  26.220   7.723
 1850POPC   C4B27130  24.735  26.358   7.234
 1851POPC   NC327131  43.299  18.184   9.523
 1851POPC   PO427132  42.724  17.992   9.140
 1851POPC   GL127133  43.088  18.228   9.017
 1851POPC   GL227134  43.087  18.560   9.074
 1851POPC   C1A27135  43.330  18.286   8.640
 1851POPC   D2A27136  43.474  18.026   8.304
 1851POPC   C3A27137  43.185  18.056   7.969
 1851POPC   C4A27138  43.219  18.381   7.666
 1851POPC   C1B27139  42.958  18.625   8.670
 1851POPC   C2B27140  42.938  18.435   8.241
 1851POPC   C3B27141  42.723  18.456   7.824
 1851POPC   C4B27142  42.850  18.671   7.415
 1852POPC   NC327143  42.778  34.509   9.914
 1852POPC   PO427144  43.328  34.722   9.535
 1852POPC   GL127145  43.212  34.511   9.181
 1852POPC   GL227146  42.919  34.674   9.133
 1852POPC   C1A27147  43.267  34.632   8.755
 1852POPC   D2A27148  42.990  34.748   8.436
 1852POPC   C3A27149  43.137  34.652   8.033
 1852POPC   C4A27150  43.420  34.959   7.862
 1852POPC   C1B27151  42.804  34.402   8.765
 1852POPC   C2B27152  42.744  34.150   8.411
 1852POPC   C3B27153  42.643  34.226   8.002
 1852POPC   C4B27154  42.883  34.377   7.663
 1853POPC   NC327155  11.671  11.907   9.384
 1853POPC   PO427156  11.498  11.407   9.780
 1853POPC   GL127157  11.473  11.327   9.289
 1853POPC   GL227158  11.384  11.632   9.073
 1853POPC   C1A27159  11.364  11.173   8.841
 1853POPC   D2A27160  11.049  11.079   8.498
 1853POPC   C3A27161  11.113  11.067   8.068
 1853POPC   C4A27162  11.398  10.893   7.789
 1853POPC   C1B27163  11.538  11.622   8.625
 1853POPC   C2B27164  11.628  11.374   8.237
 1853POPC   C3B27165  11.391  11.416   7.827
 1853POPC   C4B27166  11.049  11.409   7.530
 1854POPC   NC327167   8.742   1.733   9.384
 1854POPC   PO427168   9.137   2.166   9.601
 1854POPC   GL127169   9.009   2.100   9.138
 1854POPC   GL227170   8.695   2.073   8.959
 1854POPC   C1A27171   9.128   2.143   8.696
 1854POPC   D2A27172   8.926   2.297   8.304
 1854POPC   C3A27173   9.204   2.172   7.952
 1854POPC   C4A27174   9.075   2.029   7.535
 1854POPC   C1B27175   8.456   1.803   8.695
 1854POPC   C2B27176   8.513   1.830   8.273
 1854POPC   C3B27177   8.744   1.938   7.937
 1854POPC   C4B27178   8.735   1.634   7.675
 1855POPC   NC327179  40.704  15.490   9.441
 1855POPC   PO427180  40.822  16.099   9.621
 1855POPC   GL127181  40.679  15.968   9.226
 1855POPC   GL227182  40.984  15.825   9.106
 1855POPC   C1A27183  40.523  15.927   8.797
 1855POPC   D2A27184  40.780  15.931   8.430
 1855POPC   C3A27185  40.572  15.929   8.054
 1855POPC   C4A27186  40.461  16.243   7.734
 1855POPC   C1B27187  41.147  15.655   8.715
 1855POPC   C2B27188  41.226  15.731   8.272
 1855POPC   C3B27189  41.060  15.959   7.878
 1855POPC   C4B27190  40.705  15.781   7.587
 1856POPC   NC327191   5.037  27.819   9.522
 1856POPC   PO427192   5.020  27.167   9.525
 1856POPC   GL127193   4.863  27.439   9.190
 1856POPC   GL227194   5.058  27.749   9.033
 1856POPC   C1A27195   4.773  27.434   8.765
 1856POPC   D2A27196   4.845  27.711   8.424
 1856POPC   C3A27197   4.871  27.548   8.023
 1856POPC   C4A27198   4.813  27.423   7.606
 1856POPC   C1B27199   5.267  27.571   8.677
 1856POPC   C2B27200   5.448  27.511   8.269
 1856POPC   C3B27201   5.370  27.602   7.843
 1856POPC   C4B27202   5.306  27.443   7.437
 1857POPC   NC327203  42.601  22.641   9.489
 1857POPC   PO427204  43.250  23.028   9.500
 1857POPC   GL127205  43.015  23.097   9.138
 1857POPC   GL227206  42.973  22.751   9.154
 1857POPC   C1A27207  43.106  22.969   8.697
 1857POPC   D2A27208  43.444  23.037   8.369
 1857POPC   C3A27209  43.243  23.005   7.955
 1857POPC   C4A27210  43.077  22.705   7.677
 1857POPC   C1B27211  42.864  22.530   8.789
 1857POPC   C2B27212  42.800  22.519   8.333
 1857POPC   C3B27213  42.656  22.670   7.936
 1857POPC   C4B27214  42.610  22.609   7.438
 1858POPC   NC327215   9.449  25.823   9.506
 1858POPC   PO427216   9.807  26.341   9.250
 1858POPC   GL127217   9.669  25.998   9.084
 1858POPC   GL227218   9.875  25.766   9.194
 1858POPC   C1A27219   9.518  25.986   8.713
 1858POPC   D2A27220   9.732  26.044   8.335
 1858POPC   C3A27221   9.464  25.909   8.011
 1858POPC   C4A27222   9.550  26.154   7.661
 1858POPC   C1B27223   9.932  25.666   8.742
 1858POPC   C2B27224  10.059  25.610   8.295
 1858POPC   C3B27225   9.953  25.841   7.901
 1858POPC   C4B27226   9.947  25.853   7.433
 1859POPC   NC327227  27.239   0.076   9.098
 1859POPC   PO427228  27.127  44.650   9.608
 1859POPC   GL127229  27.059  44.424   9.186
 1859POPC   GL227230  26.704  44.289   9.155
 1859POPC   C1A27231  27.010  44.535   8.760
 1859POPC   D2A27232  26.756  44.698   8.438
 1859POPC   C3A27233  27.024  44.696   8.100
 1859POPC   C4A27234  26.936  44.796   7.700
 1859POPC   C1B27235  26.554  44.309   8.730
 1859POPC   C2B27236  26.375  44.357   8.361
 1859POPC   C3B27237  26.611  44.408   7.973
 1859POPC   C4B27238  26.433  44.411   7.579
 1860POPC   NC327239   3.872  38.461   9.445
 1860POPC   PO427240   3.225  38.166   9.568
 1860POPC   GL127241   3.468  38.282   9.181
 1860POPC   GL227242   3.379  37.971   9.095
 1860POPC   C1A27243   3.457  38.505   8.742
 1860POPC   D2A27244   3.549  38.791   8.364
 1860POPC   C3A27245   3.659  38.719   7.898
 1860POPC   C4A27246   3.518  38.773   7.447
 1860POPC   C1B27247   3.627  37.956   8.736
 1860POPC   C2B27248   3.502  38.053   8.342
 1860POPC   C3B27249   3.612  38.170   7.973
 1860POPC   C4B27250   3.919  37.978   7.805
 1861POPC   NC327251  21.698  22.502   9.838
 1861POPC   PO427252  21.299  22.313   9.335
 1861POPC   GL127253  21.367  22.343   8.947
 1861POPC   GL227254  21.363  22.013   8.867
 1861POPC   C1A27255  21.530  22.414   8.559
 1861POPC   D2A27256  21.375  22.441   8.121
 1861POPC   C3A27257  21.667  22.197   7.881
 1861POPC   C4A27258  21.970  22.185   7.548
 1861POPC   C1B27259  21.061  22.180   8.549
 1861POPC   C2B27260  20.930  22.056   8.124
 1861POPC   C3B27261  21.146  21.889   7.760
 1861POPC   C4B27262  21.446  21.528   7.677
 1862POPC   NC327263   6.291   5.939   9.483
 1862POPC   PO427264   6.835   5.537   9.520
 1862POPC   GL127265   6.653   5.735   9.157
 1862POPC   GL227266   6.296   5.613   9.097
 1862POPC   C1A27267   6.857   6.009   8.833
 1862POPC   D2A27268   7.081   6.175   8.447
 1862POPC   C3A27269   6.888   5.970   8.092
 1862POPC   C4A27270   6.719   5.913   7.680
 1862POPC   C1B27271   6.329   5.964   8.814
 1862POPC   C2B27272   6.529   6.074   8.438
 1862POPC   C3B27273   6.362   6.043   8.003
 1862POPC   C4B27274   6.433   6.367   7.672
 1863POPC   NC327275  31.365  31.776   9.409
 1863POPC   PO427276  31.841  31.279   9.458
 1863POPC   GL127277  31.527  31.264   9.099
 1863POPC   GL227278  31.643  31.560   9.035
 1863POPC   C1A27279  31.398  31.427   8.624
 1863POPC   D2A27280  31.438  31.252   8.185
 1863POPC   C3A27281  31.366  31.622   7.922
 1863POPC   C4A27282  30.985  31.801   7.780
 1863POPC   C1B27283  31.880  31.364   8.658
 1863POPC   C2B27284  31.836  31.542   8.265
 1863POPC   C3B27285  31.836  31.445   7.832
 1863POPC   C4B27286  31.942  31.676   7.410
 1864POPC   NC327287   7.805  27.189   9.402
 1864POPC   PO427288   7.894  26.625   9.735
 1864POPC   GL127289   7.884  26.704   9.257
 1864POPC   GL227290   7.842  26.385   9.211
 1864POPC   C1A27291   7.926  26.915   8.789
 1864POPC   D2A27292   8.031  27.100   8.326
 1864POPC   C3A27293   7.866  27.027   7.855
 1864POPC   C4A27294   7.996  26.787   7.452
 1864POPC   C1B27295   8.180  26.493   8.870
 1864POPC   C2B27296   8.356  26.619   8.461
 1864POPC   C3B27297   8.182  26.654   8.047
 1864POPC   C4B27298   8.182  26.369   7.705
 1865POPC   NC327299  41.933   9.872   9.381
 1865POPC   PO427300  41.292   9.698   9.407
 1865POPC   GL127301  41.491   9.828   9.052
 1865POPC   GL227302  41.744   9.547   9.014
 1865POPC   C1A27303  41.532   9.918   8.617
 1865POPC   D2A27304  41.593  10.149   8.232
 1865POPC   C3A27305  41.369   9.953   7.878
 1865POPC   C4A27306  41.697   9.673   7.817
 1865POPC   C1B27307  41.436   9.408   8.671
 1865POPC   C2B27308  41.378   9.538   8.231
 1865POPC   C3B27309  41.250   9.422   7.821
 1865POPC   C4B27310  41.297   9.524   7.379
 1866POPC   NC327311  44.469  34.524   9.693
 1866POPC   PO427312  44.885  34.930   9.471
 1866POPC   GL127313  44.739  34.939   9.058
 1866POPC   GL227314  44.474  34.690   9.135
 1866POPC   C1A27315  44.815  34.748   8.636
 1866POPC   D2A27316  44.798  34.875   8.213
 1866POPC   C3A27317   0.016  34.695   7.901
 1866POPC   C4A27318  44.811  34.650   7.505
 1866POPC   C1B27319  44.341  34.600   8.707
 1866POPC   C2B27320  44.514  34.441   8.288
 1866POPC   C3B27321  44.408  34.554   7.843
 1866POPC   C4B27322  44.402  34.416   7.375
 1867POPC   NC327323   2.197  26.179   9.592
 1867POPC   PO427324   1.605  26.331   9.445
 1867POPC   GL127325   1.870  26.052   9.182
 1867POPC   GL227326   2.257  25.973   9.136
 1867POPC   C1A27327   1.749  25.989   8.773
 1867POPC   D2A27328   1.949  26.006   8.397
 1867POPC   C3A27329   1.798  26.268   8.063
 1867POPC   C4A27330   1.767  26.069   7.638
 1867POPC   C1B27331   2.391  26.056   8.703
 1867POPC   C2B27332   2.350  26.301   8.300
 1867POPC   C3B27333   2.230  26.094   7.881
 1867POPC   C4B27334   2.213  25.942   7.414
 1868POPC   NC327335  32.050  37.209   9.407
 1868POPC   PO427336  32.192  36.585   9.443
 1868POPC   GL127337  32.455  36.705   9.118
 1868POPC   GL227338  32.522  37.040   9.194
 1868POPC   C1A27339  32.635  36.778   8.732
 1868POPC   D2A27340  32.484  36.900   8.332
 1868POPC   C3A27341  32.578  36.565   8.050
 1868POPC   C4A27342  32.401  36.726   7.698
 1868POPC   C1B27343  32.227  37.061   8.801
 1868POPC   C2B27344  31.953  37.062   8.409
 1868POPC   C3B27345  32.059  37.149   7.951
 1868POPC   C4B27346  32.113  37.083   7.472
 1869POPC   NC327347   4.967   7.834   9.382
 1869POPC   PO427348   5.186   8.460   9.529
 1869POPC   GL127349   5.298   8.274   9.129
 1869POPC   GL227350   5.640   8.157   9.162
 1869POPC   C1A27351   5.118   8.182   8.700
 1869POPC   D2A27352   4.770   8.273   8.370
 1869POPC   C3A27353   4.839   8.218   7.910
 1869POPC   C4A27354   5.035   8.514   7.594
 1869POPC   C1B27355   5.640   7.979   8.757
 1869POPC   C2B27356   5.572   8.140   8.339
 1869POPC   C3B27357   5.358   8.206   7.931
 1869POPC   C4B27358   5.197   7.875   7.692
 1870POPC   NC327359   5.946   7.631   9.393
 1870POPC   PO427360   5.296   7.472   9.428
 1870POPC   GL127361   5.538   7.524   9.088
 1870POPC   GL227362   5.735   7.199   9.163
 1870POPC   C1A27363   5.836   7.490   8.742
 1870POPC   D2A27364   5.924   7.251   8.394
 1870POPC   C3A27365   5.756   7.443   8.042
 1870POPC   C4A27366   6.014   7.601   7.795
 1870POPC   C1B27367   5.794   6.910   8.809
 1870POPC   C2B27368   5.595   6.864   8.397
 1870POPC   C3B27369   5.781   6.933   7.990
 1870POPC   C4B27370   5.802   7.146   7.604
 1871POPC   NC327371  30.657  38.219   9.476
 1871POPC   PO427372  31.088  38.774   9.582
 1871POPC   GL127373  30.812  38.669   9.240
 1871POPC   GL227374  30.884  38.375   9.063
 1871POPC   C1A27375  30.738  38.827   8.820
 1871POPC   D2A27376  30.559  38.759   8.401
 1871POPC   C3A27377  30.759  38.517   8.070
 1871POPC   C4A27378  30.913  38.487   7.604
 1871POPC   C1B27379  30.783  38.339   8.651
 1871POPC   C2B27380  30.819  38.069   8.343
 1871POPC   C3B27381  30.916  37.960   7.979
 1871POPC   C4B27382  30.627  38.126   7.773
 1872POPC   NC327383  33.105  31.446   9.892
 1872POPC   PO427384  32.545  31.311   9.436
 1872POPC   GL127385  32.806  31.204   9.092
 1872POPC   GL227386  33.163  31.172   9.171
 1872POPC   C1A27387  32.947  31.173   8.676
 1872POPC   D2A27388  32.917  31.514   8.398
 1872POPC   C3A27389  33.026  31.378   7.992
 1872POPC   C4A27390  32.948  31.564   7.590
 1872POPC   C1B27391  33.320  31.475   8.835
 1872POPC   C2B27392  33.420  31.455   8.368
 1872POPC   C3B27393  33.445  31.645   7.927
 1872POPC   C4B27394  33.319  31.907   7.542
 1873POPC   NC327395  23.677   6.385   9.569
 1873POPC   PO427396  23.732   7.042   9.713
 1873POPC   GL127397  23.557   6.835   9.314
 1873POPC   GL227398  23.855   6.706   9.193
 1873POPC   C1A27399  23.495   6.718   8.849
 1873POPC   D2A27400  23.781   6.610   8.472
 1873POPC   C3A27401  23.579   6.672   8.090
 1873POPC   C4A27402  23.449   6.822   7.720
 1873POPC   C1B27403  23.998   6.915   8.811
 1873POPC   C2B27404  24.072   7.036   8.391
 1873POPC   C3B27405  24.065   6.762   8.037
 1873POPC   C4B27406  23.947   6.909   7.665
 1874POPC   NC327407  27.693  31.900   9.605
 1874POPC   PO427408  27.555  32.549   9.663
 1874POPC   GL127409  27.601  32.297   9.247
 1874POPC   GL227410  27.450  31.978   9.155
 1874POPC   C1A27411  27.796  32.167   8.803
 1874POPC   D2A27412  27.919  32.379   8.391
 1874POPC   C3A27413  27.794  32.357   7.956
 1874POPC   C4A27414  27.420  32.411   7.690
 1874POPC   C1B27415  27.324  32.039   8.696
 1874POPC   C2B27416  27.436  32.145   8.250
 1874POPC   C3B27417  27.567  31.912   7.853
 1874POPC   C4B27418  27.368  31.952   7.453
 1875POPC   NC327419  10.213  27.344   9.640
 1875POPC   PO427420  10.594  27.879   9.430
 1875POPC   GL127421  10.654  27.548   9.123
 1875POPC   GL227422  10.398  27.282   9.146
 1875POPC   C1A27423  10.676  27.624   8.688
 1875POPC   D2A27424  10.385  27.694   8.369
 1875POPC   C3A27425  10.556  27.709   7.957
 1875POPC   C4A27426  10.910  27.554   7.757
 1875POPC   C1B27427  10.523  27.147   8.698
 1875POPC   C2B27428  10.558  27.221   8.233
 1875POPC   C3B27429  10.254  27.267   7.906
 1875POPC   C4B27430  10.204  27.230   7.438
 1876POPC   NC327431  14.943  36.533   9.900
 1876POPC   PO427432  15.221  35.892   9.575
 1876POPC   GL127433  15.184  36.044   9.197
 1876POPC   GL227434  14.806  36.007   9.187
 1876POPC   C1A27435  15.460  36.227   8.838
 1876POPC   D2A27436  15.646  36.122   8.426
 1876POPC   C3A27437  15.414  36.167   8.041
 1876POPC   C4A27438  15.065  36.346   7.835
 1876POPC   C1B27439  14.947  36.201   8.793
 1876POPC   C2B27440  15.091  36.043   8.413
 1876POPC   C3B27441  14.828  35.961   8.074
 1876POPC   C4B27442  14.614  36.158   7.694
 1877POPC   NC327443  40.563  35.687   9.673
 1877POPC   PO427444  40.750  36.344   9.374
 1877POPC   GL127445  40.680  36.150   9.022
 1877POPC   GL227446  41.016  36.219   8.894
 1877POPC   C1A27447  40.683  35.792   8.787
 1877POPC   D2A27448  40.656  35.691   8.352
 1877POPC   C3A27449  40.571  36.005   8.036
 1877POPC   C4A27450  40.745  35.987   7.619
 1877POPC   C1B27451  40.944  36.116   8.495
 1877POPC   C2B27452  41.051  36.193   8.079
 1877POPC   C3B27453  41.138  36.292   7.672
 1877POPC   C4B27454  41.097  36.092   7.252
 1878POPC   NC327455   3.220  13.109   9.587
 1878POPC   PO427456   2.687  12.780   9.425
 1878POPC   GL127457   2.669  13.047   9.083
 1878POPC   GL227458   2.676  12.778   8.911
 1878POPC   C1A27459   2.543  13.226   8.708
 1878POPC   D2A27460   2.444  13.289   8.269
 1878POPC   C3A27461   2.775  13.123   8.048
 1878POPC   C4A27462   3.069  13.164   7.732
 1878POPC   C1B27463   2.821  12.534   8.624
 1878POPC   C2B27464   3.134  12.573   8.386
 1878POPC   C3B27465   3.149  12.760   8.019
 1878POPC   C4B27466   2.841  12.709   7.701
 1879POPC   NC327467  11.838  17.109   9.668
 1879POPC   PO427468  12.332  17.417   9.410
 1879POPC   GL127469  12.244  17.673   9.045
 1879POPC   GL227470  11.901  17.836   9.056
 1879POPC   C1A27471  12.107  17.640   8.617
 1879POPC   D2A27472  11.908  17.969   8.401
 1879POPC   C3A27473  11.995  17.879   7.971
 1879POPC   C4A27474  12.028  17.582   7.647
 1879POPC   C1B27475  11.807  17.428   8.972
 1879POPC   C2B27476  11.670  17.315   8.563
 1879POPC   C3B27477  11.625  17.578   8.217
 1879POPC   C4B27478  11.572  17.428   7.804
 1880POPC   NC327479  10.650   9.428   9.598
 1880POPC   PO427480  10.031   9.566   9.648
 1880POPC   GL127481  10.261   9.608   9.216
 1880POPC   GL227482  10.648   9.682   9.160
 1880POPC   C1A27483  10.346   9.853   8.809
 1880POPC   D2A27484  10.393   9.662   8.398
 1880POPC   C3A27485  10.444   9.960   8.079
 1880POPC   C4A27486  10.313   9.978   7.667
 1880POPC   C1B27487  10.844   9.703   8.716
 1880POPC   C2B27488  10.902   9.714   8.232
 1880POPC   C3B27489  10.761   9.686   7.801
 1880POPC   C4B27490  10.343   9.479   7.737
 1881POPC   NC327491   3.451   5.552   9.487
 1881POPC   PO427492   3.729   6.179   9.492
 1881POPC   GL127493   3.504   6.132   9.115
 1881POPC   GL227494   3.290   5.860   9.095
 1881POPC   C1A27495   3.612   5.918   8.703
 1881POPC   D2A27496   3.604   6.154   8.320
 1881POPC   C3A27497   3.860   6.083   7.996
 1881POPC   C4A27498   3.601   5.869   7.724
 1881POPC   C1B27499   3.140   5.688   8.697
 1881POPC   C2B27500   3.421   5.633   8.311
 1881POPC   C3B27501   3.184   5.637   7.949
 1881POPC   C4B27502   3.214   5.617   7.482
 1882POPC   NC327503   4.257   9.265   9.366
 1882POPC   PO427504   4.244   8.590   9.467
 1882POPC   GL127505   4.178   8.834   9.108
 1882POPC   GL227506   4.544   8.913   9.116
 1882POPC   C1A27507   4.260   8.995   8.689
 1882POPC   D2A27508   4.424   9.118   8.298
 1882POPC   C3A27509   4.233   8.920   7.949
 1882POPC   C4A27510   4.161   9.147   7.585
 1882POPC   C1B27511   4.717   8.701   8.752
 1882POPC   C2B27512   4.832   8.815   8.330
 1882POPC   C3B27513   4.719   8.720   7.934
 1882POPC   C4B27514   4.589   8.897   7.546
 1883POPC   NC327515   7.666  23.988   9.387
 1883POPC   PO427516   7.599  23.416   9.773
 1883POPC   GL127517   7.363  23.562   9.323
 1883POPC   GL227518   7.239  23.902   9.156
 1883POPC   C1A27519   7.519  23.590   8.850
 1883POPC   D2A27520   7.429  23.529   8.425
 1883POPC   C3A27521   7.392  23.824   8.071
 1883POPC   C4A27522   7.354  23.592   7.655
 1883POPC   C1B27523   7.348  24.053   8.740
 1883POPC   C2B27524   7.737  23.954   8.509
 1883POPC   C3B27525   7.881  24.035   8.104
 1883POPC   C4B27526   7.788  23.854   7.728
 1884POPC   NC327527   2.130  43.898   9.510
 1884POPC   PO427528   1.694  43.448   9.549
 1884POPC   GL127529   1.822  43.665   9.154
 1884POPC   GL227530   1.836  44.048   9.133
 1884POPC   C1A27531   1.819  43.750   8.702
 1884POPC   D2A27532   1.989  43.898   8.300
 1884POPC   C3A27533   2.043  43.572   7.945
 1884POPC   C4A27534   1.963  43.570   7.487
 1884POPC   C1B27535   1.703  44.265   8.774
 1884POPC   C2B27536   1.516  44.298   8.377
 1884POPC   C3B27537   1.528  43.984   8.052
 1884POPC   C4B27538   1.888  44.015   7.756
 1885POPC   NC327539  22.660  23.799   9.495
 1885POPC   PO427540  23.316  23.867   9.399
 1885POPC   GL127541  23.061  23.938   9.048
 1885POPC   GL227542  22.739  24.077   9.049
 1885POPC   C1A27543  22.940  23.664   8.725
 1885POPC   D2A27544  23.123  23.488   8.323
 1885POPC   C3A27545  22.848  23.334   7.992
 1885POPC   C4A27546  22.886  23.332   7.530
 1885POPC   C1B27547  22.524  23.981   8.646
 1885POPC   C2B27548  22.729  23.814   8.289
 1885POPC   C3B27549  22.808  23.830   7.878
 1885POPC   C4B27550  22.574  24.143   7.742
 1886POPC   NC327551  42.418   8.407   9.468
 1886POPC   PO427552  41.951   7.982   9.649
 1886POPC   GL127553  42.116   8.048   9.206
 1886POPC   GL227554  42.471   7.978   9.184
 1886POPC   C1A27555  42.282   8.323   8.846
 1886POPC   D2A27556  42.496   8.372   8.466
 1886POPC   C3A27557  42.373   8.256   8.086
 1886POPC   C4A27558  42.472   8.359   7.683
 1886POPC   C1B27559  42.663   7.991   8.761
 1886POPC   C2B27560  42.599   7.858   8.339
 1886POPC   C3B27561  42.682   7.913   7.896
 1886POPC   C4B27562  42.521   7.909   7.471
 1887POPC   NC327563  19.377  11.844   9.408
 1887POPC   PO427564  19.775  12.295   9.554
 1887POPC   GL127565  19.913  12.143   9.162
 1887POPC   GL227566  19.825  11.813   9.131
 1887POPC   C1A27567  19.821  12.111   8.736
 1887POPC   D2A27568  19.918  11.824   8.443
 1887POPC   C3A27569  19.905  12.141   8.149
 1887POPC   C4A27570  19.946  12.197   7.723
 1887POPC   C1B27571  19.565  11.668   8.769
 1887POPC   C2B27572  19.498  11.596   8.274
 1887POPC   C3B27573  19.651  11.795   7.868
 1887POPC   C4B27574  19.474  12.054   7.520
 1888POPC   NC327575   1.382  35.712   9.894
 1888POPC   PO427576   1.016  35.257   9.472
 1888POPC   GL127577   1.169  35.344   9.094
 1888POPC   GL227578   1.497  35.447   9.215
 1888POPC   C1A27579   1.070  35.456   8.655
 1888POPC   D2A27580   1.058  35.644   8.255
 1888POPC   C3A27581   1.193  35.336   7.990
 1888POPC   C4A27582   1.069  35.224   7.561
 1888POPC   C1B27583   1.586  35.257   8.814
 1888POPC   C2B27584   1.535  35.388   8.403
 1888POPC   C3B27585   1.720  35.236   8.031
 1888POPC   C4B27586   1.576  35.324   7.621
 1889POPC   NC327587  38.872  23.089   9.467
 1889POPC   PO427588  38.530  22.520   9.468
 1889POPC   GL127589  38.541  22.714   9.069
 1889POPC   GL227590  38.499  23.059   9.112
 1889POPC   C1A27591  38.601  22.790   8.629
 1889POPC   D2A27592  38.388  22.917   8.274
 1889POPC   C3A27593  38.281  22.618   7.954
 1889POPC   C4A27594  38.316  22.620   7.514
 1889POPC   C1B27595  38.514  23.357   8.792
 1889POPC   C2B27596  38.187  23.415   8.467
 1889POPC   C3B27597  38.294  23.365   8.055
 1889POPC   C4B27598  38.381  23.100   7.723
 1890POPC   NC327599  11.834   6.358   9.699
 1890POPC   PO427600  11.231   6.658   9.608
 1890POPC   GL127601  11.332   6.619   9.216
 1890POPC   GL227602  11.491   6.311   9.299
 1890POPC   C1A27603  11.157   6.735   8.831
 1890POPC   D2A27604  10.978   6.712   8.431
 1890POPC   C3A27605  11.153   6.938   8.094
 1890POPC   C4A27606  11.359   7.003   7.717
 1890POPC   C1B27607  11.419   6.259   8.867
 1890POPC   C2B27608  11.467   6.490   8.497
 1890POPC   C3B27609  11.485   6.543   8.070
 1890POPC   C4B27610  11.186   6.524   7.748
 1891POPC   NC327611  27.017   2.943   9.577
 1891POPC   PO427612  27.574   2.726   9.494
 1891POPC   GL127613  27.510   2.577   9.112
 1891POPC   GL227614  27.235   2.380   9.219
 1891POPC   C1A27615  27.546   2.764   8.687
 1891POPC   D2A27616  27.488   2.928   8.234
 1891POPC   C3A27617  27.784   2.847   7.858
 1891POPC   C4A27618  27.858   2.979   7.397
 1891POPC   C1B27619  27.261   2.335   8.758
 1891POPC   C2B27620  27.466   2.414   8.331
 1891POPC   C3B27621  27.389   2.527   7.919
 1891POPC   C4B27622  27.485   2.642   7.484
 1892POPC   NC327623  34.268  17.600   9.522
 1892POPC   PO427624  34.918  17.471   9.502
 1892POPC   GL127625  34.778  17.658   9.172
 1892POPC   GL227626  34.483  17.461   9.075
 1892POPC   C1A27627  34.855  17.616   8.761
 1892POPC   D2A27628  34.517  17.548   8.501
 1892POPC   C3A27629  34.614  17.439   8.107
 1892POPC   C4A27630  34.711  17.497   7.690
 1892POPC   C1B27631  34.393  17.875   8.908
 1892POPC   C2B27632  34.385  18.062   8.509
 1892POPC   C3B27633  34.440  17.917   8.133
 1892POPC   C4B27634  34.242  17.857   7.789
 1893POPC   NC327635  40.288  26.571   9.643
 1893POPC   PO427636  41.047  26.629   9.525
 1893POPC   GL127637  40.854  26.687   9.144
 1893POPC   GL227638  40.564  26.783   9.251
 1893POPC   C1A27639  40.964  26.882   8.747
 1893POPC   D2A27640  40.978  26.994   8.321
 1893POPC   C3A27641  40.854  26.717   8.013
 1893POPC   C4A27642  41.024  26.539   7.649
 1893POPC   C1B27643  40.443  26.914   8.828
 1893POPC   C2B27644  40.487  26.793   8.398
 1893POPC   C3B27645  40.343  26.852   7.972
 1893POPC   C4B27646  40.490  26.515   7.740
 1894POPC   NC327647  30.972   2.465   9.419
 1894POPC   PO427648  30.542   3.020   9.482
 1894POPC   GL127649  30.439   2.862   9.124
 1894POPC   GL227650  30.504   2.539   9.249
 1894POPC   C1A27651  30.547   3.009   8.712
 1894POPC   D2A27652  30.726   2.930   8.313
 1894POPC   C3A27653  30.695   3.043   7.885
 1894POPC   C4A27654  30.740   2.734   7.589
 1894POPC   C1B27655  30.527   2.483   8.804
 1894POPC   C2B27656  30.404   2.543   8.416
 1894POPC   C3B27657  30.335   2.682   7.998
 1894POPC   C4B27658  30.300   2.509   7.626
 1895POPC   NC327659  18.581  43.334   9.628
 1895POPC   PO427660  18.538  43.978   9.451
 1895POPC   GL127661  18.276  44.003   9.098
 1895POPC   GL227662  18.204  43.660   9.091
 1895POPC   C1A27663  18.213  44.262   8.718
 1895POPC   D2A27664  18.163  44.167   8.268
 1895POPC   C3A27665  18.329  44.382   7.861
 1895POPC   C4A27666  18.146  44.344   7.405
 1895POPC   C1B27667  18.405  43.790   8.666
 1895POPC   C2B27668  18.654  44.016   8.346
 1895POPC   C3B27669  18.466  43.907   7.958
 1895POPC   C4B27670  18.307  43.611   7.709
 1896POPC   NC327671  37.190   4.554   9.503
 1896POPC   PO427672  36.916   3.883   9.380
 1896POPC   GL127673  37.030   4.189   9.089
 1896POPC   GL227674  37.124   4.540   9.012
 1896POPC   C1A27675  37.025   4.198   8.658
 1896POPC   D2A27676  37.232   4.449   8.379
 1896POPC   C3A27677  37.051   4.277   8.045
 1896POPC   C4A27678  36.877   4.388   7.624
 1896POPC   C1B27679  36.727   4.598   8.813
 1896POPC   C2B27680  36.654   4.445   8.382
 1896POPC   C3B27681  36.683   4.640   8.017
 1896POPC   C4B27682  36.496   4.722   7.640
 1897POPC   NC327683  30.943   3.221   9.529
 1897POPC   PO427684  31.369   3.395   9.922
 1897POPC   GL127685  31.413   3.346   9.362
 1897POPC   GL227686  31.148   3.382   9.080
 1897POPC   C1A27687  31.606   3.301   8.879
 1897POPC   D2A27688  31.544   3.202   8.409
 1897POPC   C3A27689  31.689   3.378   7.996
 1897POPC   C4A27690  31.653   3.182   7.574
 1897POPC   C1B27691  31.083   3.205   8.638
 1897POPC   C2B27692  31.101   3.265   8.146
 1897POPC   C3B27693  31.236   3.516   7.788
 1897POPC   C4B27694  31.225   3.930   7.543
 1898POPC   NC327695  11.477  30.953   9.521
 1898POPC   PO427696  11.075  30.484   9.224
 1898POPC   GL127697  11.232  30.822   8.981
 1898POPC   GL227698  11.507  31.021   9.014
 1898POPC   C1A27699  11.280  30.888   8.552
 1898POPC   D2A27700  11.146  30.631   8.244
 1898POPC   C3A27701  11.266  30.794   7.894
 1898POPC   C4A27702  11.554  30.754   7.566
 1898POPC   C1B27703  11.727  31.147   8.621
 1898POPC   C2B27704  11.624  31.175   8.182
 1898POPC   C3B27705  11.568  31.220   7.736
 1898POPC   C4B27706  11.600  31.162   7.264
 1899POPC   NC327707   4.193  37.757   9.568
 1899POPC   PO427708   4.824  37.648   9.404
 1899POPC   GL127709   4.505  37.858   9.158
 1899POPC   GL227710   4.397  37.530   9.097
 1899POPC   C1A27711   4.232  37.908   8.774
 1899POPC   D2A27712   4.012  37.933   8.378
 1899POPC   C3A27713   4.314  38.045   8.079
 1899POPC   C4A27714   4.371  37.810   7.661
 1899POPC   C1B27715   4.473  37.309   8.693
 1899POPC   C2B27716   4.517  37.383   8.220
 1899POPC   C3B27717   4.401  37.296   7.775
 1899POPC   C4B27718   4.265  37.414   7.339
 1900POPC   NC327719  13.856   8.683   9.564
 1900POPC   PO427720  13.260   9.014   9.830
 1900POPC   GL127721  13.444   9.126   9.299
 1900POPC   GL227722  13.784   9.286   9.218
 1900POPC   C1A27723  13.519   9.038   8.840
 1900POPC   D2A27724  13.425   8.789   8.459
 1900POPC   C3A27725  13.491   8.893   8.025
 1900POPC   C4A27726  13.342   8.774   7.624
 1900POPC   C1B27727  13.826   9.448   8.767
 1900POPC   C2B27728  13.644   9.318   8.362
 1900POPC   C3B27729  13.770   9.316   7.922
 1900POPC   C4B27730  14.091   9.105   7.650
 1901POPC   NC327731  28.339  43.430   9.579
 1901POPC   PO427732  28.590  42.776   9.578
 1901POPC   GL127733  28.409  43.077   9.219
 1901POPC   GL227734  28.410  42.878   8.966
 1901POPC   C1A27735  28.043  43.220   8.894
 1901POPC   D2A27736  27.961  43.453   8.502
 1901POPC   C3A27737  28.167  43.284   8.122
 1901POPC   C4A27738  28.348  43.442   7.724
 1901POPC   C1B27739  28.381  43.053   8.559
 1901POPC   C2B27740  28.381  42.816   8.214
 1901POPC   C3B27741  28.447  42.958   7.813
 1901POPC   C4B27742  28.539  42.854   7.364
 1902POPC   NC327743  29.179  24.976   9.480
 1902POPC   PO427744  28.794  25.579   9.460
 1902POPC   GL127745  29.027  25.325   9.168
 1902POPC   GL227746  29.375  25.383   9.177
 1902POPC   C1A27747  29.067  25.069   8.798
 1902POPC   D2A27748  29.004  25.270   8.388
 1902POPC   C3A27749  29.190  25.024   8.086
 1902POPC   C4A27750  29.359  25.242   7.757
 1902POPC   C1B27751  29.340  25.490   8.738
 1902POPC   C2B27752  29.492  25.397   8.323
 1902POPC   C3B27753  29.623  25.624   7.993
 1902POPC   C4B27754  29.653  25.649   7.557
 1903POPC   NC327755  24.666   6.659   9.484
 1903POPC   PO427756  25.351   6.601   9.498
 1903POPC   GL127757  25.063   6.540   9.164
 1903POPC   GL227758  24.945   6.866   9.111
 1903POPC   C1A27759  25.134   6.542   8.711
 1903POPC   D2A27760  24.893   6.413   8.361
 1903POPC   C3A27761  25.034   6.486   7.937
 1903POPC   C4A27762  24.893   6.712   7.564
 1903POPC   C1B27763  24.986   7.036   8.702
 1903POPC   C2B27764  25.093   6.880   8.281
 1903POPC   C3B27765  25.204   6.973   7.856
 1903POPC   C4B27766  25.169   7.159   7.445
 1904POPC   NC327767   5.590  37.276   9.299
 1904POPC   PO427768   6.135  36.981   9.602
 1904POPC   GL127769   5.961  36.904   9.189
 1904POPC   GL227770   6.086  36.580   9.108
 1904POPC   C1A27771   5.929  36.918   8.724
 1904POPC   D2A27772   5.979  36.661   8.343
 1904POPC   C3A27773   6.178  36.870   8.040
 1904POPC   C4A27774   5.887  37.231   7.956
 1904POPC   C1B27775   5.820  36.441   8.792
 1904POPC   C2B27776   5.544  36.408   8.462
 1904POPC   C3B27777   5.606  36.403   8.036
 1904POPC   C4B27778   5.761  36.733   7.793
 1905POPC   NC327779  14.331  10.443   9.474
 1905POPC   PO427780  14.580  11.034   9.481
 1905POPC   GL127781  14.658  10.714   9.182
 1905POPC   GL227782  14.301  10.779   9.091
 1905POPC   C1A27783  14.753  10.755   8.746
 1905POPC   D2A27784  14.424  10.811   8.447
 1905POPC   C3A27785  14.571  10.588   8.118
 1905POPC   C4A27786  14.717  10.742   7.760
 1905POPC   C1B27787  14.396  10.402   8.839
 1905POPC   C2B27788  14.255  10.323   8.465
 1905POPC   C3B27789  14.084  10.391   8.083
 1905POPC   C4B27790  14.289  10.473   7.695
 1906POPC   NC327791  43.124  24.905   9.619
 1906POPC   PO427792  43.528  24.852   9.171
 1906POPC   GL127793  43.178  25.188   9.142
 1906POPC   GL227794  42.816  25.097   9.194
 1906POPC   C1A27795  43.161  25.438   8.762
 1906POPC   D2A27796  43.293  25.240   8.359
 1906POPC   C3A27797  43.153  25.428   7.971
 1906POPC   C4A27798  42.786  25.317   7.711
 1906POPC   C1B27799  42.824  24.823   8.812
 1906POPC   C2B27800  42.860  24.667   8.362
 1906POPC   C3B27801  43.012  24.930   8.010
 1906POPC   C4B27802  43.417  25.027   7.850
 1907POPC   NC327803  43.212  16.323   9.505
 1907POPC   PO427804  43.147  15.642   9.398
 1907POPC   GL127805  43.107  16.013   9.126
 1907POPC   GL227806  43.142  15.827   8.874
 1907POPC   C1A27807  42.926  16.237   8.719
 1907POPC   D2A27808  42.975  16.037   8.314
 1907POPC   C3A27809  43.048  16.276   7.929
 1907POPC   C4A27810  43.019  16.236   7.477
 1907POPC   C1B27811  43.422  16.120   8.718
 1907POPC   C2B27812  43.567  16.056   8.366
 1907POPC   C3B27813  43.384  15.860   8.041
 1907POPC   C4B27814  43.441  15.992   7.670
 1908POPC   NC327815   8.002  39.457   9.499
 1908POPC   PO427816   8.412  38.901   9.665
 1908POPC   GL127817   8.310  39.029   9.239
 1908POPC   GL227818   8.417  39.359   9.162
 1908POPC   C1A27819   8.072  39.123   8.852
 1908POPC   D2A27820   8.165  38.952   8.451
 1908POPC   C3A27821   8.100  39.196   8.107
 1908POPC   C4A27822   8.137  39.009   7.736
 1908POPC   C1B27823   8.291  39.619   8.851
 1908POPC   C2B27824   8.135  39.580   8.479
 1908POPC   C3B27825   8.365  39.679   8.143
 1908POPC   C4B27826   8.441  39.477   7.791
 1909POPC   NC327827  24.038   3.902   9.484
 1909POPC   PO427828  24.454   4.388   9.708
 1909POPC   GL127829  24.465   4.365   9.252
 1909POPC   GL227830  24.448   4.054   9.174
 1909POPC   C1A27831  24.361   4.404   8.814
 1909POPC   D2A27832  24.526   4.352   8.396
 1909POPC   C3A27833  24.307   4.385   8.033
 1909POPC   C4A27834  24.585   4.365   7.713
 1909POPC   C1B27835  24.152   3.955   8.814
 1909POPC   C2B27836  24.291   3.895   8.369
 1909POPC   C3B27837  24.521   3.938   7.951
 1909POPC   C4B27838  24.652   3.923   7.476
 1910POPC   NC327839  23.838   1.853   9.626
 1910POPC   PO427840  23.537   2.389   9.427
 1910POPC   GL127841  23.726   2.047   9.174
 1910POPC   GL227842  23.564   1.683   9.227
 1910POPC   C1A27843  23.669   2.056   8.732
 1910POPC   D2A27844  23.651   2.310   8.338
 1910POPC   C3A27845  23.877   2.249   7.950
 1910POPC   C4A27846  23.926   1.927   7.657
 1910POPC   C1B27847  23.887   1.625   8.947
 1910POPC   C2B27848  23.786   1.573   8.538
 1910POPC   C3B27849  23.814   1.777   8.154
 1910POPC   C4B27850  23.598   1.590   7.831
 1911POPC   NC327851  15.720  11.370   9.685
 1911POPC   PO427852  16.389  11.326   9.526
 1911POPC   GL127853  16.123  11.298   9.178
 1911POPC   GL227854  15.790  11.229   9.178
 1911POPC   C1A27855  16.094  11.222   8.729
 1911POPC   D2A27856  16.029  11.144   8.294
 1911POPC   C3A27857  16.141  11.398   7.965
 1911POPC   C4A27858  15.981  11.347   7.549
 1911POPC   C1B27859  15.648  11.468   8.825
 1911POPC   C2B27860  15.562  11.361   8.386
 1911POPC   C3B27861  15.636  11.437   7.955
 1911POPC   C4B27862  15.413  11.714   7.698
 1912POPC   NC327863   7.463  28.381   9.467
 1912POPC   PO427864   6.925  27.958   9.480
 1912POPC   GL127865   7.207  28.115   9.115
 1912POPC   GL227866   7.182  28.501   9.067
 1912POPC   C1A27867   7.468  28.180   8.713
 1912POPC   D2A27868   7.503  28.103   8.256
 1912POPC   C3A27869   7.592  28.337   7.900
 1912POPC   C4A27870   7.304  28.379   7.565
 1912POPC   C1B27871   7.386  28.705   8.736
 1912POPC   C2B27872   7.446  28.597   8.337
 1912POPC   C3B27873   7.217  28.690   7.972
 1912POPC   C4B27874   7.294  28.920   7.613
 1913POPC   NC327875   9.418  37.679   9.781
 1913POPC   PO427876  10.082  37.547   9.601
 1913POPC   GL127877   9.945  37.612   9.179
 1913POPC   GL227878   9.854  37.947   9.027
 1913POPC   C1A27879  10.017  37.552   8.736
 1913POPC   D2A27880   9.830  37.779   8.424
 1913POPC   C3A27881   9.969  37.702   8.042
 1913POPC   C4A27882   9.701  37.523   7.765
 1913POPC   C1B27883   9.497  38.039   8.724
 1913POPC   C2B27884   9.502  38.163   8.340
 1913POPC   C3B27885   9.565  37.994   7.950
 1913POPC   C4B27886   9.258  37.985   7.685
 1914POPC   NC327887  37.185   6.227   9.494
 1914POPC   PO427888  36.930   6.917   9.521
 1914POPC   GL127889  36.932   6.674   9.129
 1914POPC   GL227890  37.285   6.715   9.176
 1914POPC   C1A27891  36.767   6.563   8.687
 1914POPC   D2A27892  36.681   6.340   8.283
 1914POPC   C3A27893  36.869   6.513   7.889
 1914POPC   C4A27894  36.953   6.280   7.511
 1914POPC   C1B27895  37.272   6.559   8.740
 1914POPC   C2B27896  37.175   6.542   8.307
 1914POPC   C3B27897  37.330   6.284   7.980
 1914POPC   C4B27898  37.466   6.254   7.535
 1915POPC   NC327899  43.968  17.831   9.409
 1915POPC   PO427900  43.728  18.430   9.431
 1915POPC   GL127901  43.573  18.422   9.068
 1915POPC   GL227902  43.689  18.079   9.015
 1915POPC   C1A27903  43.556  18.750   8.737
 1915POPC   D2A27904  43.806  18.760   8.325
 1915POPC   C3A27905  43.601  18.645   7.916
 1915POPC   C4A27906  43.717  18.559   7.475
 1915POPC   C1B27907  43.838  18.307   8.622
 1915POPC   C2B27908  44.003  18.277   8.185
 1915POPC   C3B27909  43.957  18.199   7.721
 1915POPC   C4B27910  44.010  18.126   7.237
 1916POPC   NC327911  19.647  14.453   9.389
 1916POPC   PO427912  20.140  14.706   9.457
 1916POPC   GL127913  20.106  14.529   9.078
 1916POPC   GL227914  20.022  14.188   9.079
 1916POPC   C1A27915  20.257  14.498   8.667
 1916POPC   D2A27916  20.000  14.453   8.319
 1916POPC   C3A27917  20.106  14.575   7.925
 1916POPC   C4A27918  19.685  14.499   7.727
 1916POPC   C1B27919  19.973  14.043   8.631
 1916POPC   C2B27920  19.907  13.953   8.161
 1916POPC   C3B27921  20.043  14.112   7.751
 1916POPC   C4B27922  19.916  14.038   7.346
 1917POPC   NC327923  40.532  21.931   9.468
 1917POPC   PO427924  40.835  21.254   9.524
 1917POPC   GL127925  40.717  21.471   9.156
 1917POPC   GL227926  40.994  21.577   8.901
 1917POPC   C1A27927  40.481  21.533   8.810
 1917POPC   D2A27928  40.556  21.369   8.422
 1917POPC   C3A27929  40.726  21.596   8.084
 1917POPC   C4A27930  40.658  21.451   7.650
 1917POPC   C1B27931  41.031  21.219   8.648
 1917POPC   C2B27932  41.037  21.166   8.229
 1917POPC   C3B27933  41.111  21.342   7.832
 1917POPC   C4B27934  41.107  21.197   7.405
 1918POPC   NC327935  43.803   1.018   9.475
 1918POPC   PO427936  43.422   1.614   9.340
 1918POPC   GL127937  43.600   1.342   9.008
 1918POPC   GL227938  43.962   1.241   9.031
 1918POPC   C1A27939  43.748   1.331   8.574
 1918POPC   D2A27940  43.811   1.552   8.197
 1918POPC   C3A27941  43.598   1.301   7.900
 1918POPC   C4A27942  43.684   1.203   7.476
 1918POPC   C1B27943  44.227   1.150   8.702
 1918POPC   C2B27944  44.273   1.220   8.266
 1918POPC   C3B27945  44.107   1.266   7.859
 1918POPC   C4B27946  44.143   1.469   7.481
 1919POPC   NC327947   7.932  23.134   9.568
 1919POPC   PO427948   8.577  22.943   9.447
 1919POPC   GL127949   8.273  23.063   9.152
 1919POPC   GL227950   8.000  22.823   9.162
 1919POPC   C1A27951   8.012  23.171   8.801
 1919POPC   D2A27952   7.927  23.342   8.417
 1919POPC   C3A27953   7.990  23.030   8.090
 1919POPC   C4A27954   8.114  23.040   7.633
 1919POPC   C1B27955   7.815  22.662   8.779
 1919POPC   C2B27956   7.976  22.603   8.353
 1919POPC   C3B27957   7.886  22.573   7.881
 1919POPC   C4B27958   7.881  22.480   7.438
 1920POPC   NC327959  29.264  13.951   9.450
 1920POPC   PO427960  29.435  13.176   9.496
 1920POPC   GL127961  29.380  13.513   9.210
 1920POPC   GL227962  29.007  13.551   9.219
 1920POPC   C1A27963  29.377  13.721   8.795
 1920POPC   D2A27964  29.364  14.030   8.432
 1920POPC   C3A27965  29.354  13.838   8.031
 1920POPC   C4A27966  29.459  13.456   7.748
 1920POPC   C1B27967  28.853  13.698   8.822
 1920POPC   C2B27968  29.004  13.608   8.415
 1920POPC   C3B27969  29.024  13.462   7.995
 1920POPC   C4B27970  28.938  13.818   7.709
 1921POPC   NC327971  19.711  28.807   9.435
 1921POPC   PO427972  19.841  28.138   9.558
 1921POPC   GL127973  19.681  28.202   9.146
 1921POPC   GL227974  19.772  28.526   8.989
 1921POPC   C1A27975  19.666  28.076   8.724
 1921POPC   D2A27976  19.678  28.191   8.304
 1921POPC   C3A27977  20.015  28.306   8.062
 1921POPC   C4A27978  20.060  28.074   7.709
 1921POPC   C1B27979  19.488  28.590   8.618
 1921POPC   C2B27980  19.530  28.653   8.179
 1921POPC   C3B27981  19.582  28.392   7.799
 1921POPC   C4B27982  19.268  28.317   7.461
 1922POPC   NC327983  26.471  13.074   9.486
 1922POPC   PO427984  27.181  12.957   9.422
 1922POPC   GL127985  26.965  12.715   9.120
 1922POPC   GL227986  26.596  12.717   9.146
 1922POPC   C1A27987  26.891  12.806   8.707
 1922POPC   D2A27988  26.764  13.142   8.466
 1922POPC   C3A27989  26.954  13.000   8.112
 1922POPC   C4A27990  26.953  12.931   7.699
 1922POPC   C1B27991  26.391  12.901   8.746
 1922POPC   C2B27992  26.436  12.769   8.311
 1922POPC   C3B27993  26.483  13.039   7.959
 1922POPC   C4B27994  26.523  13.097   7.524
 1923POPC   NC327995   5.631   8.578   9.468
 1923POPC   PO427996   6.098   8.069   9.412
 1923POPC   GL127997   6.145   8.252   9.047
 1923POPC   GL227998   5.993   8.564   9.099
 1923POPC   C1A27999   6.174   8.027   8.669
 1923POPC   D2A28000   5.984   7.819   8.337
 1923POPC   C3A28001   6.076   8.061   7.973
 1923POPC   C4A28002   5.806   8.060   7.631
 1923POPC   C1B28003   5.828   8.452   8.721
 1923POPC   C2B28004   6.008   8.411   8.346
 1923POPC   C3B28005   5.778   8.472   7.983
 1923POPC   C4B28006   5.980   8.591   7.679
 1924POPC   NC328007  12.662   6.842   9.415
 1924POPC   PO428008  12.028   6.781   9.674
 1924POPC   GL128009  11.850   6.685   9.279
 1924POPC   GL228010  12.018   6.927   9.120
 1924POPC   C1A28011  11.895   6.455   8.857
 1924POPC   D2A28012  11.978   6.591   8.397
 1924POPC   C3A28013  11.967   6.393   7.962
 1924POPC   C4A28014  11.699   6.506   7.614
 1924POPC   C1B28015  11.677   6.900   8.783
 1924POPC   C2B28016  11.634   6.965   8.322
 1924POPC   C3B28017  11.931   6.914   7.938
 1924POPC   C4B28018  12.402   7.031   7.785
 1925POPC   NC328019  29.696  11.544   9.399
 1925POPC   PO428020  29.904  12.293   9.510
 1925POPC   GL128021  29.844  12.130   9.107
 1925POPC   GL228022  29.531  11.962   9.147
 1925POPC   C1A28023  29.874  12.039   8.641
 1925POPC   D2A28024  29.954  12.318   8.276
 1925POPC   C3A28025  29.972  12.099   7.877
 1925POPC   C4A28026  30.068  11.626   7.834
 1925POPC   C1B28027  29.403  12.179   8.790
 1925POPC   C2B28028  29.393  12.038   8.360
 1925POPC   C3B28029  29.576  11.790   8.037
 1925POPC   C4B28030  29.497  11.965   7.649
 1926POPC   NC328031  29.191  44.833   9.597
 1926POPC   PO428032  29.009  44.202   9.667
 1926POPC   GL128033  29.085  44.457   9.205
 1926POPC   GL228034  29.020  44.839   9.135
 1926POPC   C1A28035  29.038  44.584   8.710
 1926POPC   D2A28036  29.040  44.316   8.317
 1926POPC   C3A28037  29.201  44.461   7.987
 1926POPC   C4A28038  29.062  44.770   7.767
 1926POPC   C1B28039  29.405  44.885   8.886
 1926POPC   C2B28040  29.473   0.046   8.471
 1926POPC   C3B28041  29.456  44.997   8.020
 1926POPC   C4B28042  29.465   0.158   7.576
 1927POPC   NC328043  44.121  40.565   9.439
 1927POPC   PO428044  44.125  41.206   9.560
 1927POPC   GL128045  43.916  41.031   9.190
 1927POPC   GL228046  43.628  40.807   9.272
 1927POPC   C1A28047  43.961  41.098   8.745
 1927POPC   D2A28048  44.141  41.196   8.350
 1927POPC   C3A28049  43.901  41.059   8.053
 1927POPC   C4A28050  43.843  40.978   7.689
 1927POPC   C1B28051  43.659  40.686   8.835
 1927POPC   C2B28052  43.847  40.687   8.418
 1927POPC   C3B28053  43.762  40.502   8.015
 1927POPC   C4B28054  43.849  40.476   7.578
 1928POPC   NC328055  38.644   0.651   9.645
 1928POPC   PO428056  38.043   0.422   9.760
 1928POPC   GL128057  38.253   0.244   9.272
 1928POPC   GL228058  38.509   0.442   9.182
 1928POPC   C1A28059  38.551   0.220   8.755
 1928POPC   D2A28060  38.761   0.470   8.389
 1928POPC   C3A28061  38.569   0.597   7.985
 1928POPC   C4A28062  38.522   0.299   7.641
 1928POPC   C1B28063  38.147   0.486   8.834
 1928POPC   C2B28064  38.245   0.478   8.400
 1928POPC   C3B28065  38.170   0.283   8.033
 1928POPC   C4B28066  38.010   0.154   7.676
 1929POPC   NC328067   0.855   3.156   9.377
 1929POPC   PO428068   0.354   2.773   9.652
 1929POPC   GL128069   0.356   2.571   9.272
 1929POPC   GL228070   0.700   2.671   9.192
 1929POPC   C1A28071   0.245   2.630   8.855
 1929POPC   D2A28072   0.386   2.817   8.484
 1929POPC   C3A28073   0.402   2.619   8.120
 1929POPC   C4A28074   0.122   2.766   7.808
 1929POPC   C1B28075   0.765   2.896   8.806
 1929POPC   C2B28076   0.911   2.873   8.403
 1929POPC   C3B28077   0.877   3.047   8.020
 1929POPC   C4B28078   0.574   3.009   7.696
 1930POPC   NC328079  20.887  15.585   9.488
 1930POPC   PO428080  21.539  15.516   9.673
 1930POPC   GL128081  21.445  15.741   9.231
 1930POPC   GL228082  21.183  15.544   9.073
 1930POPC   C1A28083  21.437  15.819   8.735
 1930POPC   D2A28084  21.242  16.128   8.473
 1930POPC   C3A28085  21.351  16.099   8.046
 1930POPC   C4A28086  21.635  15.828   7.894
 1930POPC   C1B28087  21.253  15.346   8.661
 1930POPC   C2B28088  21.309  15.622   8.272
 1930POPC   C3B28089  21.139  15.651   7.852
 1930POPC   C4B28090  21.061  15.419   7.457
 1931POPC   NC328091  32.081  12.384   9.529
 1931POPC   PO428092  32.707  12.050   9.588
 1931POPC   GL128093  32.394  12.057   9.265
 1931POPC   GL228094  32.379  12.341   9.126
 1931POPC   C1A28095  32.394  11.965   8.793
 1931POPC   D2A28096  32.343  12.146   8.346
 1931POPC   C3A28097  32.402  11.919   7.946
 1931POPC   C4A28098  32.319  11.874   7.479
 1931POPC   C1B28099  32.184  12.430   8.735
 1931POPC   C2B28100  31.865  12.439   8.431
 1931POPC   C3B28101  31.866  12.474   7.980
 1931POPC   C4B28102  32.230  12.365   7.698
 1932POPC   NC328103   7.990   4.065   9.492
 1932POPC   PO428104   8.431   4.708   9.628
 1932POPC   GL128105   8.222   4.507   9.277
 1932POPC   GL228106   8.462   4.225   9.320
 1932POPC   C1A28107   7.993   4.459   8.859
 1932POPC   D2A28108   8.062   4.664   8.467
 1932POPC   C3A28109   8.153   4.564   8.060
 1932POPC   C4A28110   7.933   4.361   7.746
 1932POPC   C1B28111   8.427   4.181   8.897
 1932POPC   C2B28112   8.285   4.160   8.483
 1932POPC   C3B28113   8.168   4.042   8.076
 1932POPC   C4B28114   8.386   4.102   7.682
 1933POPC   NC328115  33.776  34.958   9.614
 1933POPC   PO428116  34.081  35.575   9.590
 1933POPC   GL128117  33.814  35.359   9.271
 1933POPC   GL228118  34.056  35.119   9.193
 1933POPC   C1A28119  33.694  35.180   8.853
 1933POPC   D2A28120  33.807  35.409   8.459
 1933POPC   C3A28121  33.705  35.243   8.044
 1933POPC   C4A28122  33.342  35.218   7.780
 1933POPC   C1B28123  34.098  35.516   8.886
 1933POPC   C2B28124  34.267  35.658   8.485
 1933POPC   C3B28125  34.113  35.570   8.064
 1933POPC   C4B28126  34.137  35.765   7.689
 1934POPC   NC328127   3.118  12.521   9.429
 1934POPC   PO428128   3.660  13.017   9.583
 1934POPC   GL128129   3.492  12.824   9.193
 1934POPC   GL228130   3.157  12.907   9.093
 1934POPC   C1A28131   3.475  12.630   8.769
 1934POPC   D2A28132   3.570  12.832   8.346
 1934POPC   C3A28133   3.635  12.630   7.949
 1934POPC   C4A28134   3.525  12.652   7.500
 1934POPC   C1B28135   3.052  13.006   8.655
 1934POPC   C2B28136   3.215  13.199   8.281
 1934POPC   C3B28137   3.533  13.135   7.910
 1934POPC   C4B28138   3.491  13.169   7.426
 1935POPC   NC328139   7.923   0.717   9.400
 1935POPC   PO428140   8.265   1.286   9.517
 1935POPC   GL128141   8.240   1.095   9.125
 1935POPC   GL228142   8.397   0.760   9.115
 1935POPC   C1A28143   8.314   1.294   8.728
 1935POPC   D2A28144   8.193   1.445   8.347
 1935POPC   C3A28145   8.414   1.322   7.960
 1935POPC   C4A28146   8.092   1.289   7.708
 1935POPC   C1B28147   8.213   0.804   8.702
 1935POPC   C2B28148   8.277   0.936   8.259
 1935POPC   C3B28149   8.254   0.802   7.806
 1935POPC   C4B28150   8.358   0.922   7.364
 1936POPC   NC328151  27.755   0.612   9.479
 1936POPC   PO428152  27.098   0.452   9.318
 1936POPC   GL128153  27.468   0.544   9.041
 1936POPC   GL228154  27.805   0.369   9.044
 1936POPC   C1A28155  27.643   0.541   8.612
 1936POPC   D2A28156  27.820   0.786   8.315
 1936POPC   C3A28157  27.505   0.706   8.039
 1936POPC   C4A28158  27.481   0.528   7.693
 1936POPC   C1B28159  27.930   0.125   8.706
 1936POPC   C2B28160  28.004   0.281   8.307
 1936POPC   C3B28161  27.901   0.368   7.909
 1936POPC   C4B28162  27.798   0.092   7.549
 1937POPC   NC328163  34.118   4.495   9.563
 1937POPC   PO428164  33.490   4.356   9.744
 1937POPC   GL128165  33.663   4.495   9.326
 1937POPC   GL228166  33.946   4.297   9.119
 1937POPC   C1A28167  33.610   4.592   8.870
 1937POPC   D2A28168  33.584   4.775   8.432
 1937POPC   C3A28169  33.539   4.556   8.037
 1937POPC   C4A28170  33.880   4.373   7.779
 1937POPC   C1B28171  33.861   4.195   8.665
 1937POPC   C2B28172  33.757   4.107   8.215
 1937POPC   C3B28173  33.802   3.843   7.849
 1937POPC   C4B28174  33.801   3.989   7.449
 1938POPC   NC328175  36.677  24.110   9.500
 1938POPC   PO428176  36.983  24.716   9.801
 1938POPC   GL128177  36.944  24.510   9.329
 1938POPC   GL228178  36.587  24.540   9.214
 1938POPC   C1A28179  36.925  24.318   8.859
 1938POPC   D2A28180  36.808  24.364   8.385
 1938POPC   C3A28181  37.156  24.302   8.070
 1938POPC   C4A28182  37.242  24.562   7.680
 1938POPC   C1B28183  36.444  24.545   8.787
 1938POPC   C2B28184  36.270  24.496   8.383
 1938POPC   C3B28185  36.439  24.607   8.003
 1938POPC   C4B28186  36.756  24.441   7.815
 1939POPC   NC328187  14.606  42.932   9.561
 1939POPC   PO428188  14.871  43.587   9.487
 1939POPC   GL128189  15.104  43.367   9.167
 1939POPC   GL228190  15.221  43.019   9.209
 1939POPC   C1A28191  15.173  43.258   8.744
 1939POPC   D2A28192  15.304  43.111   8.373
 1939POPC   C3A28193  15.037  43.280   8.105
 1939POPC   C4A28194  15.194  43.019   7.789
 1939POPC   C1B28195  15.024  42.788   8.864
 1939POPC   C2B28196  14.847  42.940   8.482
 1939POPC   C3B28197  14.707  42.904   8.076
 1939POPC   C4B28198  14.776  42.750   7.703
 1940POPC   NC328199  14.243  18.272   9.532
 1940POPC   PO428200  14.792  18.003   9.712
 1940POPC   GL128201  14.689  18.104   9.285
 1940POPC   GL228202  14.415  17.919   9.140
 1940POPC   C1A28203  14.555  18.358   8.925
 1940POPC   D2A28204  14.643  18.352   8.489
 1940POPC   C3A28205  14.354  18.458   8.183
 1940POPC   C4A28206  14.280  18.565   7.730
 1940POPC   C1B28207  14.605  17.867   8.763
 1940POPC   C2B28208  14.460  17.884   8.354
 1940POPC   C3B28209  14.561  18.038   7.975
 1940POPC   C4B28210  14.443  18.026   7.584
 1941POPC   NC328211  24.305  35.025   9.493
 1941POPC   PO428212  24.091  34.348   9.572
 1941POPC   GL128213  24.347  34.593   9.197
 1941POPC   GL228214  24.168  34.872   9.025
 1941POPC   C1A28215  24.658  34.696   8.814
 1941POPC   D2A28216  24.715  34.904   8.412
 1941POPC   C3A28217  24.465  34.767   8.106
 1941POPC   C4A28218  24.513  34.558   7.739
 1941POPC   C1B28219  24.210  34.782   8.579
 1941POPC   C2B28220  23.954  34.848   8.220
 1941POPC   C3B28221  24.071  34.870   7.793
 1941POPC   C4B28222  24.133  34.682   7.384
 1942POPC   NC328223  30.796   1.493   9.662
 1942POPC   PO428224  30.705   2.086   9.482
 1942POPC   GL128225  30.658   2.060   9.075
 1942POPC   GL228226  30.692   1.712   9.133
 1942POPC   C1A28227  30.929   2.202   8.705
 1942POPC   D2A28228  30.884   2.429   8.319
 1942POPC   C3A28229  30.675   2.295   7.957
 1942POPC   C4A28230  30.923   2.262   7.600
 1942POPC   C1B28231  30.849   1.713   8.720
 1942POPC   C2B28232  30.747   1.916   8.307
 1942POPC   C3B28233  30.623   1.743   7.891
 1942POPC   C4B28234  30.225   1.598   7.620
 1943POPC   NC328235  16.896  27.401   9.465
 1943POPC   PO428236  16.254  27.688   9.499
 1943POPC   GL128237  16.540  27.596   9.144
 1943POPC   GL228238  16.812  27.781   9.146
 1943POPC   C1A28239  16.654  27.454   8.690
 1943POPC   D2A28240  16.529  27.351   8.242
 1943POPC   C3A28241  16.736  27.263   7.815
 1943POPC   C4A28242  16.601  27.231   7.373
 1943POPC   C1B28243  16.787  27.936   8.735
 1943POPC   C2B28244  16.903  27.753   8.296
 1943POPC   C3B28245  16.794  27.762   7.847
 1943POPC   C4B28246  16.824  27.724   7.381
 1944POPC   NC328247  40.443  10.428   9.430
 1944POPC   PO428248  40.158  11.032   9.391
 1944POPC   GL128249  39.959  10.733   9.087
 1944POPC   GL228250  40.083  10.395   9.041
 1944POPC   C1A28251  39.916  10.671   8.654
 1944POPC   D2A28252  39.976  10.398   8.284
 1944POPC   C3A28253  39.887  10.492   7.843
 1944POPC   C4A28254  39.598  10.532   7.509
 1944POPC   C1B28255  40.340  10.403   8.673
 1944POPC   C2B28256  40.425  10.650   8.269
 1944POPC   C3B28257  40.386  10.610   7.823
 1944POPC   C4B28258  40.271  10.360   7.456
 1945POPC   NC328259  28.037  26.476   9.538
 1945POPC   PO428260  27.432  26.855   9.411
 1945POPC   GL128261  27.649  26.993   9.122
 1945POPC   GL228262  27.404  27.200   8.962
 1945POPC   C1A28263  27.833  27.044   8.745
 1945POPC   D2A28264  27.678  27.164   8.373
 1945POPC   C3A28265  27.844  26.903   8.095
 1945POPC   C4A28266  27.772  27.063   7.719
 1945POPC   C1B28267  27.383  26.774   8.738
 1945POPC   C2B28268  27.352  26.656   8.309
 1945POPC   C3B28269  27.361  26.794   7.886
 1945POPC   C4B28270  27.157  26.582   7.570
 1946POPC   NC328271  18.990  16.992   9.486
 1946POPC   PO428272  19.270  16.439   9.442
 1946POPC   GL128273  19.033  16.642   9.087
 1946POPC   GL228274  18.717  16.820   9.089
 1946POPC   C1A28275  19.007  16.792   8.652
 1946POPC   D2A28276  19.284  17.013   8.369
 1946POPC   C3A28277  19.237  16.869   7.923
 1946POPC   C4A28278  19.136  16.943   7.468
 1946POPC   C1B28279  18.609  17.103   8.750
 1946POPC   C2B28280  18.786  17.189   8.336
 1946POPC   C3B28281  18.770  17.079   7.881
 1946POPC   C4B28282  18.701  16.706   7.605
 1947POPC   NC328283   0.992  42.242   9.458
 1947POPC   PO428284   1.407  42.751   9.518
 1947POPC   GL128285   1.332  42.493   9.114
 1947POPC   GL228286   1.028  42.317   8.957
 1947POPC   C1A28287   1.491  42.373   8.692
 1947POPC   D2A28288   1.393  42.513   8.265
 1947POPC   C3A28289   1.323  42.309   7.881
 1947POPC   C4A28290   1.365  41.891   7.685
 1947POPC   C1B28291   1.015  42.263   8.504
 1947POPC   C2B28292   1.119  41.953   8.183
 1947POPC   C3B28293   0.887  41.929   7.839
 1947POPC   C4B28294   0.742  42.314   7.845
 1948POPC   NC328295  10.140  40.036   9.580
 1948POPC   PO428296  10.783  40.172   9.461
 1948POPC   GL128297  10.643  39.996   9.093
 1948POPC   GL228298  10.841  39.711   9.086
 1948POPC   C1A28299  10.384  40.102   8.727
 1948POPC   D2A28300  10.138  40.189   8.318
 1948POPC   C3A28301  10.340  40.161   7.903
 1948POPC   C4A28302  10.427  39.953   7.491
 1948POPC   C1B28303  10.892  39.850   8.657
 1948POPC   C2B28304  10.978  39.916   8.220
 1948POPC   C3B28305  10.828  39.934   7.790
 1948POPC   C4B28306  10.919  39.686   7.405
 1949POPC   NC328307  38.815   2.472   9.431
 1949POPC   PO428308  39.464   2.076   9.393
 1949POPC   GL128309  39.136   2.177   9.155
 1949POPC   GL228310  39.239   2.520   9.169
 1949POPC   C1A28311  39.049   2.013   8.742
 1949POPC   D2A28312  39.298   1.878   8.376
 1949POPC   C3A28313  39.053   1.843   7.949
 1949POPC   C4A28314  38.971   1.746   7.460
 1949POPC   C1B28315  39.169   2.515   8.725
 1949POPC   C2B28316  39.119   2.370   8.324
 1949POPC   C3B28317  39.372   2.230   7.997
 1949POPC   C4B28318  39.274   2.155   7.567
 1950POPC   NC328319  42.779  18.367   9.417
 1950POPC   PO428320  42.124  18.438   9.582
 1950POPC   GL128321  42.218  18.627   9.168
 1950POPC   GL228322  42.550  18.543   8.998
 1950POPC   C1A28323  42.053  18.574   8.751
 1950POPC   D2A28324  42.042  18.340   8.373
 1950POPC   C3A28325  42.222  18.522   7.997
 1950POPC   C4A28326  42.055  18.486   7.569
 1950POPC   C1B28327  42.511  18.428   8.536
 1950POPC   C2B28328  42.490  18.104   8.182
 1950POPC   C3B28329  42.699  17.934   7.805
 1950POPC   C4B28330  42.689  18.170   7.392
 1951POPC   NC328331  30.074  37.891   9.469
 1951POPC   PO428332  29.540  37.593   9.339
 1951POPC   GL128333  29.883  37.686   9.050
 1951POPC   GL228334  30.233  37.554   9.115
 1951POPC   C1A28335  29.803  37.827   8.654
 1951POPC   D2A28336  29.518  37.697   8.341
 1951POPC   C3A28337  29.733  37.831   8.015
 1951POPC   C4A28338  29.824  37.591   7.698
 1951POPC   C1B28339  30.207  37.489   8.684
 1951POPC   C2B28340  30.086  37.576   8.276
 1951POPC   C3B28341  30.207  37.348   7.929
 1951POPC   C4B28342  30.281  37.365   7.504
 1952POPC   NC328343   1.734  36.353   9.516
 1952POPC   PO428344   2.007  35.839   9.668
 1952POPC   GL128345   1.791  35.905   9.256
 1952POPC   GL228346   2.109  36.043   9.167
 1952POPC   C1A28347   1.749  36.143   8.837
 1952POPC   D2A28348   1.961  36.134   8.454
 1952POPC   C3A28349   1.764  36.175   8.082
 1952POPC   C4A28350   1.817  36.106   7.703
 1952POPC   C1B28351   2.348  35.966   8.788
 1952POPC   C2B28352   2.341  35.818   8.370
 1952POPC   C3B28353   2.245  36.014   7.988
 1952POPC   C4B28354   2.316  36.231   7.610
 1953POPC   NC328355   1.013  32.005   9.861
 1953POPC   PO428356   0.669  32.323   9.348
 1953POPC   GL128357   0.495  32.219   9.035
 1953POPC   GL228358   0.401  31.909   9.158
 1953POPC   C1A28359   0.513  32.361   8.640
 1953POPC   D2A28360   0.381  32.501   8.254
 1953POPC   C3A28361   0.387  32.296   7.894
 1953POPC   C4A28362   0.741  32.456   7.693
 1953POPC   C1B28363   0.492  31.827   8.715
 1953POPC   C2B28364   0.412  31.967   8.327
 1953POPC   C3B28365   0.646  31.883   7.999
 1953POPC   C4B28366   0.357  31.766   7.736
 1954POPC   NC328367   8.060   4.998   9.551
 1954POPC   PO428368   8.594   5.282   9.233
 1954POPC   GL128369   8.231   5.146   9.097
 1954POPC   GL228370   7.986   5.370   9.188
 1954POPC   C1A28371   8.135   5.086   8.714
 1954POPC   D2A28372   8.442   5.074   8.412
 1954POPC   C3A28373   8.220   5.099   8.100
 1954POPC   C4A28374   8.099   5.002   7.739
 1954POPC   C1B28375   7.805   5.450   8.754
 1954POPC   C2B28376   7.917   5.461   8.320
 1954POPC   C3B28377   7.751   5.358   7.883
 1954POPC   C4B28378   7.838   5.278   7.406
 1955POPC   NC328379   0.353  17.115   9.507
 1955POPC   PO428380   0.548  17.735   9.490
 1955POPC   GL128381   0.462  17.733   9.112
 1955POPC   GL228382   0.387  17.383   9.084
 1955POPC   C1A28383   0.681  17.622   8.751
 1955POPC   D2A28384   0.556  17.296   8.543
 1955POPC   C3A28385   0.470  17.472   8.202
 1955POPC   C4A28386   0.533  17.599   7.790
 1955POPC   C1B28387   0.101  17.187   8.819
 1955POPC   C2B28388   0.073  17.109   8.410
 1955POPC   C3B28389   0.377  16.996   8.112
 1955POPC   C4B28390   0.365  17.113   7.650
 1956POPC   NC328391   0.077  17.783   9.479
 1956POPC   PO428392  44.888  17.131   9.445
 1956POPC   GL128393  44.754  17.447   9.099
 1956POPC   GL228394  44.981  17.679   9.000
 1956POPC   C1A28395  44.573  17.673   8.711
 1956POPC   D2A28396  44.441  17.795   8.280
 1956POPC   C3A28397  44.649  17.665   7.871
 1956POPC   C4A28398  44.770  17.231   7.583
 1956POPC   C1B28399   0.174  17.651   8.633
 1956POPC   C2B28400  44.944  17.584   8.303
 1956POPC   C3B28401   0.059  17.398   7.947
 1956POPC   C4B28402   0.074  17.666   7.583
 1957POPC   NC328403  31.229   1.467   9.263
 1957POPC   PO428404  31.646   0.864   9.461
 1957POPC   GL128405  31.452   0.937   9.092
 1957POPC   GL228406  31.635   1.244   9.071
 1957POPC   C1A28407  31.433   1.065   8.652
 1957POPC   D2A28408  31.358   1.340   8.330
 1957POPC   C3A28409  31.382   1.154   7.912
 1957POPC   C4A28410  31.233   1.399   7.549
 1957POPC   C1B28411  31.663   1.572   8.751
 1957POPC   C2B28412  31.857   1.563   8.380
 1957POPC   C3B28413  31.723   1.512   8.003
 1957POPC   C4B28414  31.877   1.563   7.627
 1958POPC   NC328415   2.545  16.411   9.555
 1958POPC   PO428416   2.320  17.088   9.573
 1958POPC   GL128417   2.528  16.946   9.178
 1958POPC   GL228418   2.741  16.671   9.166
 1958POPC   C1A28419   2.538  16.854   8.735
 1958POPC   D2A28420   2.378  16.742   8.348
 1958POPC   C3A28421   2.557  17.019   8.044
 1958POPC   C4A28422   2.928  17.056   7.804
 1958POPC   C1B28423   2.832  16.422   8.782
 1958POPC   C2B28424   2.879  16.601   8.407
 1958POPC   C3B28425   2.738  16.537   8.038
 1958POPC   C4B28426   2.919  16.350   7.733
 1959POPC   NC328427   0.178  39.333   9.420
 1959POPC   PO428428   0.678  38.955   9.332
 1959POPC   GL128429   0.609  39.294   9.066
 1959POPC   GL228430   0.811  39.586   9.053
 1959POPC   C1A28431   0.661  39.314   8.613
 1959POPC   D2A28432   0.396  39.454   8.308
 1959POPC   C3A28433   0.415  39.127   8.061
 1959POPC   C4A28434   0.460  39.016   7.664
 1959POPC   C1B28435   0.732  39.804   8.692
 1959POPC   C2B28436   0.866  39.714   8.281
 1959POPC   C3B28437   0.660  39.597   7.891
 1959POPC   C4B28438   0.262  39.481   7.742
 1960POPC   NC328439  29.716   1.373   9.563
 1960POPC   PO428440  30.373   1.464   9.475
 1960POPC   GL128441  30.021   1.325   9.172
 1960POPC   GL228442  29.819   1.010   9.129
 1960POPC   C1A28443  29.921   1.379   8.776
 1960POPC   D2A28444  30.007   1.205   8.402
 1960POPC   C3A28445  29.878   1.428   8.048
 1960POPC   C4A28446  29.771   1.304   7.664
 1960POPC   C1B28447  29.516   1.084   8.751
 1960POPC   C2B28448  29.449   1.219   8.320
 1960POPC   C3B28449  29.411   1.032   7.905
 1960POPC   C4B28450  29.389   1.047   7.442
 1961POPC   NC328451  37.328   7.242   9.499
 1961POPC   PO428452  36.825   7.790   9.423
 1961POPC   GL128453  36.850   7.641   9.061
 1961POPC   GL228454  37.172   7.521   9.106
 1961POPC   C1A28455  36.827   7.477   8.662
 1961POPC   D2A28456  37.075   7.520   8.317
 1961POPC   C3A28457  36.883   7.607   7.895
 1961POPC   C4A28458  36.774   7.614   7.433
 1961POPC   C1B28459  37.154   7.124   8.876
 1961POPC   C2B28460  37.050   7.003   8.474
 1961POPC   C3B28461  37.130   7.077   8.033
 1961POPC   C4B28462  36.928   7.137   7.648
 1962POPC   NC328463   5.966  32.518   9.457
 1962POPC   PO428464   5.954  31.798   9.493
 1962POPC   GL128465   5.875  32.108   9.142
 1962POPC   GL228466   5.577  32.309   9.207
 1962POPC   C1A28467   5.937  32.293   8.703
 1962POPC   D2A28468   6.249  32.486   8.387
 1962POPC   C3A28469   6.152  32.401   7.941
 1962POPC   C4A28470   5.940  32.006   7.834
 1962POPC   C1B28471   5.465  32.487   8.813
 1962POPC   C2B28472   5.355  32.432   8.380
 1962POPC   C3B28473   5.640  32.368   8.058
 1962POPC   C4B28474   5.751  32.743   7.831
 1963POPC   NC328475   4.907  28.770   9.805
 1963POPC   PO428476   5.317  29.231   9.446
 1963POPC   GL128477   5.146  29.488   9.125
 1963POPC   GL228478   5.508  29.479   9.023
 1963POPC   C1A28479   4.811  29.465   8.802
 1963POPC   D2A28480   4.569  29.485   8.388
 1963POPC   C3A28481   4.613  29.174   8.034
 1963POPC   C4A28482   4.757  29.143   7.594
 1963POPC   C1B28483   5.298  29.379   8.640
 1963POPC   C2B28484   5.082  29.360   8.226
 1963POPC   C3B28485   5.206  29.229   7.817
 1963POPC   C4B28486   5.223  28.948   7.452
 1964POPC   NC328487  19.556  10.122   9.402
 1964POPC   PO428488  19.406   9.445   9.474
 1964POPC   GL128489  19.582   9.666   9.137
 1964POPC   GL228490  19.495   9.940   8.913
 1964POPC   C1A28491  19.853   9.542   8.843
 1964POPC   D2A28492  19.805   9.689   8.461
 1964POPC   C3A28493  20.011   9.436   8.178
 1964POPC   C4A28494  19.967   9.546   7.750
 1964POPC   C1B28495  19.967  10.028   8.842
 1964POPC   C2B28496  20.226   9.994   8.464
 1964POPC   C3B28497  19.983   9.946   8.057
 1964POPC   C4B28498  20.051  10.027   7.614
 1965POPC   NC328499  42.005   7.635   9.952
 1965POPC   PO428500  42.318   7.232   9.586
 1965POPC   GL128501  42.217   7.372   9.191
 1965POPC   GL228502  42.016   7.080   9.136
 1965POPC   C1A28503  42.284   7.626   8.825
 1965POPC   D2A28504  42.249   7.481   8.413
 1965POPC   C3A28505  42.113   7.765   8.119
 1965POPC   C4A28506  42.281   7.579   7.761
 1965POPC   C1B28507  42.354   7.104   8.768
 1965POPC   C2B28508  42.468   7.019   8.300
 1965POPC   C3B28509  42.431   7.090   7.823
 1965POPC   C4B28510  42.698   7.030   7.440
 1966POPC   NC328511  32.262  44.956   9.310
 1966POPC   PO428512  32.199  44.530   9.742
 1966POPC   GL128513  32.281  44.463   9.281
 1966POPC   GL228514  31.966  44.558   9.129
 1966POPC   C1A28515  32.375  44.534   8.812
 1966POPC   D2A28516  32.148  44.710   8.421
 1966POPC   C3A28517  32.316  44.721   7.998
 1966POPC   C4A28518  32.274  44.473   7.623
 1966POPC   C1B28519  31.825  44.447   8.735
 1966POPC   C2B28520  31.710  44.444   8.290
 1966POPC   C3B28521  31.795  44.395   7.845
 1966POPC   C4B28522  31.805  44.465   7.389
 1967POPC   NC328523  30.832  44.595   9.548
 1967POPC   PO428524  30.297  44.673   9.210
 1967POPC   GL128525  30.726  44.824   9.109
 1967POPC   GL228526  30.929  44.524   9.037
 1967POPC   C1A28527  31.088  44.994   8.884
 1967POPC   D2A28528  31.191   0.106   8.463
 1967POPC   C3A28529  30.885  44.939   8.173
 1967POPC   C4A28530  30.877  44.645   7.838
 1967POPC   C1B28531  30.798  44.660   8.625
 1967POPC   C2B28532  30.657  44.427   8.271
 1967POPC   C3B28533  30.648  44.203   7.908
 1967POPC   C4B28534  30.464  44.433   7.571
 1968POPC   NC328535  13.089  40.263   9.640
 1968POPC   PO428536  12.582  39.842   9.510
 1968POPC   GL128537  12.767  39.908   9.143
 1968POPC   GL228538  13.119  39.908   9.231
 1968POPC   C1A28539  12.594  39.965   8.723
 1968POPC   D2A28540  12.511  40.190   8.359
 1968POPC   C3A28541  12.584  39.982   7.997
 1968POPC   C4A28542  12.748  40.023   7.603
 1968POPC   C1B28543  13.111  39.968   8.781
 1968POPC   C2B28544  13.026  40.124   8.392
 1968POPC   C3B28545  13.124  39.891   8.045
 1968POPC   C4B28546  13.196  39.780   7.638
 1969POPC   NC328547  14.003  37.670   9.571
 1969POPC   PO428548  14.619  37.936   9.646
 1969POPC   GL128549  14.384  37.785   9.240
 1969POPC   GL228550  14.243  37.464   9.156
 1969POPC   C1A28551  14.271  37.813   8.788
 1969POPC   D2A28552  14.507  38.053   8.485
 1969POPC   C3A28553  14.476  37.974   8.046
 1969POPC   C4A28554  14.324  37.961   7.627
 1969POPC   C1B28555  14.467  37.339   8.756
 1969POPC   C2B28556  14.288  37.401   8.348
 1969POPC   C3B28557  14.383  37.489   7.938
 1969POPC   C4B28558  14.581  37.503   7.553
 1970POPC   NC328559  40.458   6.918   9.494
 1970POPC   PO428560  40.941   6.488   9.516
 1970POPC   GL128561  40.770   6.474   9.115
 1970POPC   GL228562  40.739   6.843   9.070
 1970POPC   C1A28563  40.567   6.529   8.705
 1970POPC   D2A28564  40.659   6.871   8.427
 1970POPC   C3A28565  40.912   6.723   8.118
 1970POPC   C4A28566  40.779   6.511   7.763
 1970POPC   C1B28567  41.072   6.989   8.791
 1970POPC   C2B28568  41.103   7.197   8.369
 1970POPC   C3B28569  41.266   7.058   7.978
 1970POPC   C4B28570  41.252   6.724   7.722
 1971POPC   NC328571   6.275  12.368   9.582
 1971POPC   PO428572   6.901  12.594   9.558
 1971POPC   GL128573   6.915  12.649   9.096
 1971POPC   GL228574   7.074  12.947   8.991
 1971POPC   C1A28575   6.706  12.512   8.713
 1971POPC   D2A28576   6.536  12.662   8.306
 1971POPC   C3A28577   6.639  12.468   7.941
 1971POPC   C4A28578   6.544  12.560   7.513
 1971POPC   C1B28579   6.929  12.979   8.556
 1971POPC   C2B28580   7.151  13.002   8.128
 1971POPC   C3B28581   6.801  12.987   7.868
 1971POPC   C4B28582   6.605  13.379   7.717
 1972POPC   NC328583   8.874  22.599   9.527
 1972POPC   PO428584   9.211  23.166   9.336
 1972POPC   GL128585   9.061  22.781   9.085
 1972POPC   GL228586   8.741  22.817   8.983
 1972POPC   C1A28587   9.038  22.630   8.636
 1972POPC   D2A28588   8.972  22.997   8.397
 1972POPC   C3A28589   8.974  22.963   7.978
 1972POPC   C4A28590   8.896  22.565   7.793
 1972POPC   C1B28591   8.546  23.134   8.667
 1972POPC   C2B28592   8.441  23.249   8.282
 1972POPC   C3B28593   8.484  22.994   7.953
 1972POPC   C4B28594   8.640  22.990   7.521
 1973POPC   NC328595   8.185   2.482   9.449
 1973POPC   PO428596   7.782   2.977   9.743
 1973POPC   GL128597   8.028   3.037   9.270
 1973POPC   GL228598   8.322   2.885   9.191
 1973POPC   C1A28599   8.060   2.838   8.775
 1973POPC   D2A28600   7.957   2.571   8.418
 1973POPC   C3A28601   8.113   2.725   8.013
 1973POPC   C4A28602   8.348   3.026   7.710
 1973POPC   C1B28603   8.414   2.499   8.852
 1973POPC   C2B28604   8.399   2.276   8.466
 1973POPC   C3B28605   8.444   2.329   8.016
 1973POPC   C4B28606   8.402   2.547   7.604
 1974POPC   NC328607  31.926  33.397   9.523
 1974POPC   PO428608  31.265  33.602   9.471
 1974POPC   GL128609  31.414  33.633   9.072
 1974POPC   GL228610  31.722  33.483   9.074
 1974POPC   C1A28611  31.371  33.809   8.651
 1974POPC   D2A28612  31.343  34.109   8.279
 1974POPC   C3A28613  31.422  33.839   7.911
 1974POPC   C4A28614  31.180  33.621   7.607
 1974POPC   C1B28615  31.547  33.313   8.696
 1974POPC   C2B28616  31.449  33.435   8.275
 1974POPC   C3B28617  31.685  33.397   7.902
 1974POPC   C4B28618  31.632  33.422   7.443
 1975POPC   NC328619  31.897  20.602   9.388
 1975POPC   PO428620  31.197  20.770   9.490
 1975POPC   GL128621  31.368  20.696   9.098
 1975POPC   GL228622  31.526  20.436   9.070
 1975POPC   C1A28623  31.341  20.643   8.632
 1975POPC   D2A28624  31.254  20.512   8.209
 1975POPC   C3A28625  31.042  20.811   7.967
 1975POPC   C4A28626  31.233  21.143   7.730
 1975POPC   C1B28627  31.844  20.525   8.732
 1975POPC   C2B28628  32.002  20.598   8.323
 1975POPC   C3B28629  31.804  20.500   7.946
 1975POPC   C4B28630  31.467  20.648   7.719
 1976POPC   NC328631  16.363  20.911   9.542
 1976POPC   PO428632  15.685  20.692   9.550
 1976POPC   GL128633  15.761  20.552   9.147
 1976POPC   GL228634  16.084  20.670   9.183
 1976POPC   C1A28635  15.716  20.440   8.753
 1976POPC   D2A28636  15.822  20.521   8.351
 1976POPC   C3A28637  15.621  20.517   7.964
 1976POPC   C4A28638  16.032  20.543   7.778
 1976POPC   C1B28639  16.277  20.581   8.818
 1976POPC   C2B28640  16.289  20.711   8.423
 1976POPC   C3B28641  16.470  20.715   8.039
 1976POPC   C4B28642  16.335  20.945   7.689
 1977POPC   NC328643   9.530   9.530   9.579
 1977POPC   PO428644   9.890  10.024   9.420
 1977POPC   GL128645   9.745   9.726   9.141
 1977POPC   GL228646   9.380   9.738   9.128
 1977POPC   C1A28647   9.857   9.738   8.721
 1977POPC   D2A28648   9.819   9.509   8.344
 1977POPC   C3A28649   9.974   9.731   8.024
 1977POPC   C4A28650   9.881   9.700   7.628
 1977POPC   C1B28651   9.349   9.673   8.696
 1977POPC   C2B28652   9.339   9.740   8.253
 1977POPC   C3B28653   9.404   9.653   7.810
 1977POPC   C4B28654   9.469   9.873   7.389
 1978POPC   NC328655  39.536   5.755   9.804
 1978POPC   PO428656  40.035   6.234   9.519
 1978POPC   GL128657  39.994   6.058   9.136
 1978POPC   GL228658  39.756   6.218   8.979
 1978POPC   C1A28659  40.053   5.765   8.756
 1978POPC   D2A28660  40.324   5.683   8.351
 1978POPC   C3A28661  40.180   5.663   7.895
 1978POPC   C4A28662  39.901   5.686   7.517
 1978POPC   C1B28663  40.079   6.259   8.669
 1978POPC   C2B28664  39.965   6.039   8.291
 1978POPC   C3B28665  39.988   6.118   7.880
 1978POPC   C4B28666  40.224   6.479   7.795
 1979POPC   NC328667  12.304  12.984   9.441
 1979POPC   PO428668  11.854  12.667   9.218
 1979POPC   GL128669  12.265  12.706   9.003
 1979POPC   GL228670  12.285  13.068   8.935
 1979POPC   C1A28671  12.236  12.724   8.548
 1979POPC   D2A28672  11.867  12.615   8.275
 1979POPC   C3A28673  11.915  12.895   7.940
 1979POPC   C4A28674  12.276  13.156   7.843
 1979POPC   C1B28675  11.864  13.048   8.697
 1979POPC   C2B28676  11.788  13.258   8.325
 1979POPC   C3B28677  11.840  13.400   7.931
 1979POPC   C4B28678  11.676  13.241   7.596
 1980POPC   NC328679  42.798  10.647   9.671
 1980POPC   PO428680  42.309  10.151   9.472
 1980POPC   GL128681  42.278  10.421   9.132
 1980POPC   GL228682  42.603  10.531   9.150
 1980POPC   C1A28683  42.154  10.546   8.720
 1980POPC   D2A28684  42.216  10.358   8.318
 1980POPC   C3A28685  42.097  10.621   7.996
 1980POPC   C4A28686  42.001  10.646   7.547
 1980POPC   C1B28687  42.646  10.415   8.706
 1980POPC   C2B28688  42.605  10.707   8.356
 1980POPC   C3B28689  42.596  10.501   7.978
 1980POPC   C4B28690  42.674  10.046   7.975
 1981POPC   NC328691  22.251  26.250   9.560
 1981POPC   PO428692  21.893  25.640   9.436
 1981POPC   GL128693  22.077  25.812   9.081
 1981POPC   GL228694  22.252  26.112   9.084
 1981POPC   C1A28695  22.078  25.910   8.634
 1981POPC   D2A28696  22.328  25.913   8.274
 1981POPC   C3A28697  22.175  25.745   7.904
 1981POPC   C4A28698  21.856  25.758   7.603
 1981POPC   C1B28699  22.228  26.389   8.730
 1981POPC   C2B28700  22.006  26.371   8.341
 1981POPC   C3B28701  22.150  26.440   7.940
 1981POPC   C4B28702  22.191  26.183   7.586
 1982POPC   NC328703  13.164  27.083   9.411
 1982POPC   PO428704  13.748  27.217   9.471
 1982POPC   GL128705  13.515  27.304   9.101
 1982POPC   GL228706  13.524  26.970   9.039
 1982POPC   C1A28707  13.475  27.270   8.623
 1982POPC   D2A28708  13.452  26.968   8.256
 1982POPC   C3A28709  13.551  27.070   7.825
 1982POPC   C4A28710  13.600  27.207   7.373
 1982POPC   C1B28711  13.761  26.842   8.664
 1982POPC   C2B28712  13.731  26.542   8.304
 1982POPC   C3B28713  13.535  26.539   7.878
 1982POPC   C4B28714  13.525  26.343   7.445
 1983POPC   NC328715  41.305  37.526   9.423
 1983POPC   PO428716  41.892  37.615   9.726
 1983POPC   GL128717  41.851  37.580   9.262
 1983POPC   GL228718  41.764  37.933   9.186
 1983POPC   C1A28719  41.690  37.378   8.857
 1983POPC   D2A28720  41.796  37.293   8.400
 1983POPC   C3A28721  41.547  37.544   8.085
 1983POPC   C4A28722  41.606  37.745   7.676
 1983POPC   C1B28723  41.464  37.827   8.833
 1983POPC   C2B28724  41.353  37.963   8.406
 1983POPC   C3B28725  41.211  37.928   7.974
 1983POPC   C4B28726  41.125  37.561   7.739
 1984POPC   NC328727   3.304  27.420   9.532
 1984POPC   PO428728   3.810  27.888   9.402
 1984POPC   GL128729   3.621  27.626   9.134
 1984POPC   GL228730   3.270  27.720   9.126
 1984POPC   C1A28731   3.747  27.476   8.741
 1984POPC   D2A28732   3.958  27.602   8.375
 1984POPC   C3A28733   3.819  27.398   8.001
 1984POPC   C4A28734   3.427  27.453   7.852
 1984POPC   C1B28735   3.357  27.809   8.704
 1984POPC   C2B28736   3.451  27.744   8.283
 1984POPC   C3B28737   3.335  27.972   7.922
 1984POPC   C4B28738   3.581  28.113   7.587
 1985POPC   NC328739  34.562  24.821   9.306
 1985POPC   PO428740  34.590  25.405   9.581
 1985POPC   GL128741  34.718  25.387   9.121
 1985POPC   GL228742  34.639  25.087   8.893
 1985POPC   C1A28743  34.462  25.516   8.724
 1985POPC   D2A28744  34.410  25.171   8.392
 1985POPC   C3A28745  34.620  25.196   8.033
 1985POPC   C4A28746  34.780  25.272   7.655
 1985POPC   C1B28747  34.414  24.738   8.689
 1985POPC   C2B28748  34.164  24.649   8.367
 1985POPC   C3B28749  34.402  24.699   8.011
 1985POPC   C4B28750  34.484  24.851   7.611
 1986POPC   NC328751  44.214  36.053   9.626
 1986POPC   PO428752  43.687  36.389   9.532
 1986POPC   GL128753  43.922  36.207   9.189
 1986POPC   GL228754  43.905  35.869   9.242
 1986POPC   C1A28755  43.980  36.341   8.745
 1986POPC   D2A28756  43.868  36.468   8.316
 1986POPC   C3A28757  43.810  36.239   7.944
 1986POPC   C4A28758  44.054  36.375   7.612
 1986POPC   C1B28759  44.046  35.841   8.816
 1986POPC   C2B28760  44.090  35.991   8.387
 1986POPC   C3B28761  43.923  35.719   8.055
 1986POPC   C4B28762  43.659  35.796   7.696
 1987POPC   NC328763  30.202  32.940   9.714
 1987POPC   PO428764  30.830  32.887   9.444
 1987POPC   GL128765  30.795  33.248   9.157
 1987POPC   GL228766  30.497  33.244   8.911
 1987POPC   C1A28767  31.015  33.382   8.782
 1987POPC   D2A28768  30.809  33.388   8.371
 1987POPC   C3A28769  31.026  33.274   7.983
 1987POPC   C4A28770  30.904  32.993   7.670
 1987POPC   C1B28771  30.773  32.912   8.717
 1987POPC   C2B28772  30.870  32.625   8.358
 1987POPC   C3B28773  30.645  32.749   8.019
 1987POPC   C4B28774  30.470  33.178   7.876
 1988POPC   NC328775   6.787  42.627   9.800
 1988POPC   PO428776   6.467  43.186   9.532
 1988POPC   GL128777   6.557  43.329   9.152
 1988POPC   GL228778   6.218  43.387   9.109
 1988POPC   C1A28779   6.834  43.216   8.812
 1988POPC   D2A28780   6.846  43.077   8.391
 1988POPC   C3A28781   6.804  43.421   8.110
 1988POPC   C4A28782   6.817  43.324   7.694
 1988POPC   C1B28783   6.324  43.056   8.789
 1988POPC   C2B28784   6.338  42.922   8.368
 1988POPC   C3B28785   6.532  42.973   7.966
 1988POPC   C4B28786   6.419  42.610   7.650
 1989POPC   NC328787  35.905  25.043   9.318
 1989POPC   PO428788  36.464  25.215   9.601
 1989POPC   GL128789  36.373  25.300   9.185
 1989POPC   GL228790  36.374  24.988   9.058
 1989POPC   C1A28791  36.153  25.490   8.827
 1989POPC   D2A28792  35.947  25.531   8.409
 1989POPC   C3A28793  36.260  25.471   8.088
 1989POPC   C4A28794  36.311  25.565   7.640
 1989POPC   C1B28795  36.152  24.974   8.662
 1989POPC   C2B28796  36.134  24.961   8.220
 1989POPC   C3B28797  36.260  25.043   7.806
 1989POPC   C4B28798  35.916  25.292   7.744
 1990POPC   NC328799  10.725  33.302   9.490
 1990POPC   PO428800  10.448  34.031   9.522
 1990POPC   GL128801  10.537  33.699   9.221
 1990POPC   GL228802  10.806  33.845   9.077
 1990POPC   C1A28803  10.488  33.566   8.789
 1990POPC   D2A28804  10.608  33.779   8.409
 1990POPC   C3A28805  10.472  33.600   8.007
 1990POPC   C4A28806  10.162  33.587   7.661
 1990POPC   C1B28807  10.476  34.079   8.839
 1990POPC   C2B28808  10.260  34.152   8.433
 1990POPC   C3B28809  10.477  34.131   8.045
 1990POPC   C4B28810  10.795  33.934   7.809
 1991POPC   NC328811  34.429  15.773   9.541
 1991POPC   PO428812  34.434  16.481   9.381
 1991POPC   GL128813  34.615  16.191   9.131
 1991POPC   GL228814  34.476  15.870   9.065
 1991POPC   C1A28815  34.544  16.174   8.678
 1991POPC   D2A28816  34.759  15.896   8.409
 1991POPC   C3A28817  34.669  16.032   8.025
 1991POPC   C4A28818  34.674  16.152   7.621
 1991POPC   C1B28819  34.314  15.711   8.684
 1991POPC   C2B28820  34.236  15.894   8.293
 1991POPC   C3B28821  34.206  15.712   7.900
 1991POPC   C4B28822  34.528  15.673   7.645
 1992POPC   NC328823  38.731  19.287   9.404
 1992POPC   PO428824  39.496  19.214   9.503
 1992POPC   GL128825  39.220  19.195   9.152
 1992POPC   GL228826  39.301  19.534   9.048
 1992POPC   C1A28827  39.184  18.953   8.736
 1992POPC   D2A28828  39.343  18.798   8.317
 1992POPC   C3A28829  39.144  18.970   7.946
 1992POPC   C4A28830  38.997  18.918   7.524
 1992POPC   C1B28831  39.001  19.432   8.735
 1992POPC   C2B28832  39.152  19.312   8.337
 1992POPC   C3B28833  39.436  19.383   7.998
 1992POPC   C4B28834  39.319  19.325   7.603
 1993POPC   NC328835  36.240   2.970   9.469
 1993POPC   PO428836  36.130   2.330   9.638
 1993POPC   GL128837  36.061   2.572   9.198
 1993POPC   GL228838  36.245   2.838   8.996
 1993POPC   C1A28839  35.796   2.624   8.826
 1993POPC   D2A28840  36.006   2.672   8.444
 1993POPC   C3A28841  35.878   2.543   8.061
 1993POPC   C4A28842  36.108   2.572   7.690
 1993POPC   C1B28843  36.037   3.102   8.725
 1993POPC   C2B28844  36.238   3.138   8.345
 1993POPC   C3B28845  36.286   2.925   7.996
 1993POPC   C4B28846  36.414   3.032   7.574
 1994POPC   NC328847  18.073  35.540   9.501
 1994POPC   PO428848  18.484  35.075   9.473
 1994POPC   GL128849  18.470  35.312   9.109
 1994POPC   GL228850  18.129  35.234   9.101
 1994POPC   C1A28851  18.412  35.187   8.664
 1994POPC   D2A28852  18.660  35.195   8.283
 1994POPC   C3A28853  18.293  35.268   8.038
 1994POPC   C4A28854  17.978  35.129   7.802
 1994POPC   C1B28855  18.017  35.488   8.772
 1994POPC   C2B28856  17.945  35.481   8.338
 1994POPC   C3B28857  17.887  35.674   7.925
 1994POPC   C4B28858  17.822  35.750   7.477
 1995POPC   NC328859  23.425   9.849   9.363
 1995POPC   PO428860  23.767   9.364   9.407
 1995POPC   GL128861  23.659   9.483   9.048
 1995POPC   GL228862  23.355   9.335   9.038
 1995POPC   C1A28863  23.596   9.743   8.714
 1995POPC   D2A28864  23.828   9.936   8.433
 1995POPC   C3A28865  23.739   9.905   8.010
 1995POPC   C4A28866  23.914   9.859   7.624
 1995POPC   C1B28867  23.419   9.275   8.594
 1995POPC   C2B28868  23.647   9.470   8.271
 1995POPC   C3B28869  23.640   9.436   7.830
 1995POPC   C4B28870  23.609   9.149   7.478
 1996POPC   NC328871   6.374  36.557   9.526
 1996POPC   PO428872   6.073  35.987   9.513
 1996POPC   GL128873   5.963  36.084   9.146
 1996POPC   GL228874   5.635  36.244   9.204
 1996POPC   C1A28875   6.134  36.021   8.767
 1996POPC   D2A28876   5.966  36.151   8.400
 1996POPC   C3A28877   6.050  36.033   8.030
 1996POPC   C4A28878   6.034  36.298   7.725
 1996POPC   C1B28879   5.588  35.986   8.810
 1996POPC   C2B28880   5.635  35.754   8.470
 1996POPC   C3B28881   5.570  35.896   8.097
 1996POPC   C4B28882   5.649  35.951   7.691
 1997POPC   NC328883  41.100  14.998   9.355
 1997POPC   PO428884  40.425  15.114   9.464
 1997POPC   GL128885  40.631  15.011   9.084
 1997POPC   GL228886  40.870  15.290   9.012
 1997POPC   C1A28887  40.575  14.773   8.691
 1997POPC   D2A28888  40.807  14.799   8.289
 1997POPC   C3A28889  40.708  15.038   7.954
 1997POPC   C4A28890  40.676  15.214   7.543
 1997POPC   C1B28891  40.952  15.158   8.632
 1997POPC   C2B28892  40.807  15.419   8.297
 1997POPC   C3B28893  40.953  15.469   7.887
 1997POPC   C4B28894  41.162  15.153   7.610
 1998POPC   NC328895  34.893   7.722   9.543
 1998POPC   PO428896  34.464   8.258   9.452
 1998POPC   GL128897  34.604   7.998   9.153
 1998POPC   GL228898  34.954   8.094   9.156
 1998POPC   C1A28899  34.630   8.035   8.708
 1998POPC   D2A28900  34.481   8.323   8.357
 1998POPC   C3A28901  34.536   8.175   7.930
 1998POPC   C4A28902  34.297   8.078   7.577
 1998POPC   C1B28903  34.869   8.485   8.889
 1998POPC   C2B28904  34.771   8.722   8.501
 1998POPC   C3B28905  34.891   8.558   8.077
 1998POPC   C4B28906  35.039   8.220   7.815
 1999POPC   NC328907   2.097  17.515   9.547
 1999POPC   PO428908   1.452  17.319   9.254
 1999POPC   GL128909   1.817  17.484   9.081
 1999POPC   GL228910   2.131  17.290   9.089
 1999POPC   C1A28911   1.889  17.502   8.641
 1999POPC   D2A28912   1.837  17.306   8.262
 1999POPC   C3A28913   2.102  17.291   7.940
 1999POPC   C4A28914   1.980  17.349   7.509
 1999POPC   C1B28915   2.239  17.742   8.907
 1999POPC   C2B28916   2.247  17.855   8.450
 1999POPC   C3B28917   2.328  17.991   8.026
 1999POPC   C4B28918   2.308  17.706   7.707
 2000POPC   NC328919   3.086  31.173   9.478
 2000POPC   PO428920   2.763  30.518   9.471
 2000POPC   GL128921   2.852  30.829   9.205
 2000POPC   GL228922   2.612  31.003   9.080
 2000POPC   C1A28923   3.072  30.983   8.834
 2000POPC   D2A28924   3.116  30.763   8.446
 2000POPC   C3A28925   2.883  30.833   8.081
 2000POPC   C4A28926   2.829  30.519   7.781
 2000POPC   C1B28927   2.716  30.640   8.764
 2000POPC   C2B28928   2.563  30.555   8.378
 2000POPC   C3B28929   2.323  30.583   8.037
 2000POPC   C4B28930   2.406  30.827   7.729
 2001POPC   NC328931  34.425  27.961   9.541
 2001POPC   PO428932  34.888  27.549   9.679
 2001POPC   GL128933  34.706  27.649   9.240
 2001POPC   GL228934  34.464  27.418   9.064
 2001POPC   C1A28935  34.754  27.714   8.774
 2001POPC   D2A28936  34.558  27.611   8.376
 2001POPC   C3A28937  34.791  27.686   7.974
 2001POPC   C4A28938  34.599  27.819   7.568
 2001POPC   C1B28939  34.686  27.211   8.683
 2001POPC   C2B28940  34.864  27.215   8.269
 2001POPC   C3B28941  34.578  27.225   7.948
 2001POPC   C4B28942  34.638  27.318   7.529
 2002POPC   NC328943  38.638  20.068   9.449
 2002POPC   PO428944  38.273  19.437   9.472
 2002POPC   GL128945  38.417  19.683   9.139
 2002POPC   GL228946  38.187  19.966   9.138
 2002POPC   C1A28947  38.523  19.887   8.742
 2002POPC   D2A28948  38.338  19.895   8.309
 2002POPC   C3A28949  38.559  19.849   7.894
 2002POPC   C4A28950  38.572  19.688   7.475
 2002POPC   C1B28951  38.102  20.167   8.708
 2002POPC   C2B28952  38.174  20.426   8.343
 2002POPC   C3B28953  38.194  20.255   7.965
 2002POPC   C4B28954  38.031  19.834   7.887
 2003POPC   NC328955  26.361  33.950   9.528
 2003POPC   PO428956  25.847  33.472   9.639
 2003POPC   GL128957  25.936  33.747   9.234
 2003POPC   GL228958  26.239  33.816   9.079
 2003POPC   C1A28959  25.869  33.780   8.768
 2003POPC   D2A28960  26.077  33.674   8.400
 2003POPC   C3A28961  25.883  33.640   8.035
 2003POPC   C4A28962  25.929  33.764   7.606
 2003POPC   C1B28963  26.432  33.891   8.703
 2003POPC   C2B28964  26.419  34.040   8.281
 2003POPC   C3B28965  26.326  33.938   7.870
 2003POPC   C4B28966  26.340  34.038   7.435
 2004POPC   NC328967  34.646   3.229   9.601
 2004POPC   PO428968  34.352   3.843   9.588
 2004POPC   GL128969  34.652   3.635   9.242
 2004POPC   GL228970  34.729   3.282   9.091
 2004POPC   C1A28971  34.766   3.722   8.800
 2004POPC   D2A28972  34.818   3.503   8.378
 2004POPC   C3A28973  34.685   3.646   7.953
 2004POPC   C4A28974  34.722   3.552   7.490
 2004POPC   C1B28975  34.435   3.334   8.694
 2004POPC   C2B28976  34.338   3.351   8.222
 2004POPC   C3B28977  34.477   3.190   7.793
 2004POPC   C4B28978  34.331   3.258   7.330
 2005POPC   NC328979  42.929   0.629   9.558
 2005POPC   PO428980  43.070   0.026   9.310
 2005POPC   GL128981  42.989   0.421   9.098
 2005POPC   GL228982  43.286   0.536   9.123
 2005POPC   C1A28983  43.056   0.593   8.672
 2005POPC   D2A28984  43.227   0.408   8.309
 2005POPC   C3A28985  43.191   0.676   7.977
 2005POPC   C4A28986  43.295   0.948   7.682
 2005POPC   C1B28987  43.524   0.422   8.725
 2005POPC   C2B28988  43.740   0.412   8.310
 2005POPC   C3B28989  43.577   0.361   7.912
 2005POPC   C4B28990  43.182   0.169   7.783
 2006POPC   NC328991  28.653  44.164   9.331
 2006POPC   PO428992  28.196  43.822   9.780
 2006POPC   GL128993  28.252  43.843   9.286
 2006POPC   GL228994  28.223  44.155   9.043
 2006POPC   C1A28995  28.310  43.678   8.850
 2006POPC   D2A28996  28.447  43.601   8.406
 2006POPC   C3A28997  28.431  43.928   8.065
 2006POPC   C4A28998  28.284  43.934   7.624
 2006POPC   C1B28999  28.254  44.128   8.570
 2006POPC   C2B29000  28.182  44.365   8.175
 2006POPC   C3B29001  27.978  44.324   7.758
 2006POPC   C4B29002  28.198  44.329   7.323
 2007POPC   NC329003   2.686  21.940   9.909
 2007POPC   PO429004   2.916  22.339   9.350
 2007POPC   GL129005   2.694  22.272   8.976
 2007POPC   GL229006   2.561  21.928   8.973
 2007POPC   C1A29007   2.783  22.346   8.562
 2007POPC   D2A29008   2.968  22.453   8.195
 2007POPC   C3A29009   2.724  22.260   7.853
 2007POPC   C4A29010   2.907  22.201   7.444
 2007POPC   C1B29011   2.988  21.927   8.755
 2007POPC   C2B29012   3.186  21.999   8.352
 2007POPC   C3B29013   3.208  22.082   7.909
 2007POPC   C4B29014   3.295  21.856   7.544
 2008POPC   NC329015  21.392  33.699   9.547
 2008POPC   PO429016  21.380  34.386   9.484
 2008POPC   GL129017  21.273  34.069   9.204
 2008POPC   GL229018  21.567  33.892   9.112
 2008POPC   C1A29019  21.169  33.855   8.808
 2008POPC   D2A29020  21.317  33.653   8.435
 2008POPC   C3A29021  21.084  33.655   8.047
 2008POPC   C4A29022  21.110  33.895   7.717
 2008POPC   C1B29023  21.707  33.896   8.714
 2008POPC   C2B29024  21.796  33.725   8.339
 2008POPC   C3B29025  21.569  33.809   7.991
 2008POPC   C4B29026  21.590  33.835   7.563
 2009POPC   NC329027  25.582  11.705   9.819
 2009POPC   PO429028  25.083  12.195   9.716
 2009POPC   GL129029  25.181  12.071   9.279
 2009POPC   GL229030  25.141  11.702   9.221
 2009POPC   C1A29031  25.416  11.976   8.881
 2009POPC   D2A29032  25.350  11.946   8.457
 2009POPC   C3A29033  25.649  12.011   8.148
 2009POPC   C4A29034  25.555  11.976   7.732
 2009POPC   C1B29035  24.990  11.718   8.765
 2009POPC   C2B29036  24.955  11.650   8.305
 2009POPC   C3B29037  25.099  11.956   7.995
 2009POPC   C4B29038  25.101  12.114   7.572
 2010POPC   NC329039   0.761  15.469   9.374
 2010POPC   PO429040   1.219  15.084   9.709
 2010POPC   GL129041   1.261  15.220   9.264
 2010POPC   GL229042   0.994  15.098   9.123
 2010POPC   C1A29043   1.381  15.288   8.803
 2010POPC   D2A29044   1.414  14.986   8.427
 2010POPC   C3A29045   1.243  15.080   8.016
 2010POPC   C4A29046   1.077  14.972   7.601
 2010POPC   C1B29047   0.944  15.051   8.683
 2010POPC   C2B29048   0.971  15.354   8.399
 2010POPC   C3B29049   0.831  15.584   8.078
 2010POPC   C4B29050   1.020  15.459   7.731
 2011POPC   NC329051  39.606   6.399   9.423
 2011POPC   PO429052  40.019   6.876   9.590
 2011POPC   GL129053  39.976   6.674   9.208
 2011POPC   GL229054  40.259   6.528   9.107
 2011POPC   C1A29055  39.846   6.694   8.785
 2011POPC   D2A29056  40.115   6.705   8.405
 2011POPC   C3A29057  39.866   6.795   8.038
 2011POPC   C4A29058  39.707   6.515   7.772
 2011POPC   C1B29059  40.286   6.961   8.850
 2011POPC   C2B29060  40.265   7.201   8.446
 2011POPC   C3B29061  40.319   7.044   8.045
 2011POPC   C4B29062  40.456   6.896   7.650
 2012POPC   NC329063  36.442  22.207   9.526
 2012POPC   PO429064  35.888  22.447   9.581
 2012POPC   GL129065  36.075  22.285   9.149
 2012POPC   GL229066  36.405  22.361   9.052
 2012POPC   C1A29067  36.167  21.935   8.857
 2012POPC   D2A29068  36.315  21.808   8.463
 2012POPC   C3A29069  36.316  22.075   8.135
 2012POPC   C4A29070  36.296  21.946   7.725
 2012POPC   C1B29071  36.363  22.338   8.610
 2012POPC   C2B29072  36.164  22.550   8.278
 2012POPC   C3B29073  35.967  22.395   7.919
 2012POPC   C4B29074  36.020  22.306   7.475
 2013POPC   NC329075  30.815  11.591   9.572
 2013POPC   PO429076  30.135  11.563   9.556
 2013POPC   GL129077  30.475  11.462   9.232
 2013POPC   GL229078  30.621  11.121   9.295
 2013POPC   C1A29079  30.715  11.629   8.884
 2013POPC   D2A29080  30.563  11.751   8.482
 2013POPC   C3A29081  30.598  11.481   8.100
 2013POPC   C4A29082  30.526  11.312   7.694
 2013POPC   C1B29083  30.742  11.100   8.857
 2013POPC   C2B29084  30.578  11.063   8.428
 2013POPC   C3B29085  30.777  10.979   8.003
 2013POPC   C4B29086  30.729  10.836   7.551
 2014POPC   NC329087  39.559  19.713   9.451
 2014POPC   PO429088  38.914  19.705   9.332
 2014POPC   GL129089  39.053  19.997   9.037
 2014POPC   GL229090  39.401  20.105   9.097
 2014POPC   C1A29091  39.008  19.931   8.615
 2014POPC   D2A29092  38.802  19.692   8.330
 2014POPC   C3A29093  39.058  19.753   8.010
 2014POPC   C4A29094  39.037  19.797   7.602
 2014POPC   C1B29095  39.506  19.866   8.710
 2014POPC   C2B29096  39.491  19.859   8.256
 2014POPC   C3B29097  39.522  19.836   7.782
 2014POPC   C4B29098  39.714  19.974   7.410
 2015POPC   NC329099  12.686   9.161   9.950
 2015POPC   PO429100  12.835   9.592   9.459
 2015POPC   GL129101  12.781   9.630   9.044
 2015POPC   GL229102  12.924   9.314   8.994
 2015POPC   C1A29103  12.689   9.590   8.632
 2015POPC   D2A29104  12.969   9.465   8.334
 2015POPC   C3A29105  12.764   9.623   8.030
 2015POPC   C4A29106  12.472   9.694   7.735
 2015POPC   C1B29107  13.022   9.052   8.645
 2015POPC   C2B29108  12.999   8.970   8.189
 2015POPC   C3B29109  13.130   9.250   7.851
 2015POPC   C4B29110  12.966   9.568   7.571
 2016POPC   NC329111  42.563  14.508   9.456
 2016POPC   PO429112  41.922  14.728   9.618
 2016POPC   GL129113  41.892  14.555   9.158
 2016POPC   GL229114  42.170  14.297   9.139
 2016POPC   C1A29115  42.068  14.476   8.703
 2016POPC   D2A29116  42.124  14.223   8.353
 2016POPC   C3A29117  42.300  14.424   8.013
 2016POPC   C4A29118  42.367  14.597   7.615
 2016POPC   C1B29119  42.331  14.012   8.780
 2016POPC   C2B29120  42.424  13.808   8.402
 2016POPC   C3B29121  42.407  13.906   7.991
 2016POPC   C4B29122  42.240  14.108   7.608
 2017POPC   NC329123   4.147  28.684   9.500
 2017POPC   PO429124   4.706  29.157   9.565
 2017POPC   GL129125   4.524  29.182   9.156
 2017POPC   GL229126   4.426  28.840   9.089
 2017POPC   C1A29127   4.281  29.444   8.837
 2017POPC   D2A29128   3.990  29.454   8.472
 2017POPC   C3A29129   4.127  29.361   8.056
 2017POPC   C4A29130   4.281  29.328   7.653
 2017POPC   C1B29131   4.106  28.885   8.791
 2017POPC   C2B29132   4.200  28.988   8.392
 2017POPC   C3B29133   4.120  28.837   7.986
 2017POPC   C4B29134   4.371  28.834   7.661
 2018POPC   NC329135  32.677  42.187   9.410
 2018POPC   PO429136  33.197  42.516   9.622
 2018POPC   GL129137  33.071  42.556   9.179
 2018POPC   GL229138  33.267  42.849   9.085
 2018POPC   C1A29139  33.058  42.257   8.789
 2018POPC   D2A29140  33.255  42.332   8.343
 2018POPC   C3A29141  33.026  42.328   7.974
 2018POPC   C4A29142  32.744  42.138   7.746
 2018POPC   C1B29143  33.207  42.722   8.671
 2018POPC   C2B29144  32.806  42.580   8.465
 2018POPC   C3B29145  32.770  42.754   8.084
 2018POPC   C4B29146  33.182  42.827   7.950
 2019POPC   NC329147  17.646  10.644   9.422
 2019POPC   PO429148  17.130  10.249   9.658
 2019POPC   GL129149  17.319  10.318   9.210
 2019POPC   GL229150  17.691  10.225   9.134
 2019POPC   C1A29151  17.304  10.503   8.792
 2019POPC   D2A29152  17.377  10.394   8.345
 2019POPC   C3A29153  17.491  10.692   7.980
 2019POPC   C4A29154  17.220  10.760   7.598
 2019POPC   C1B29155  17.797  10.379   8.720
 2019POPC   C2B29156  17.868  10.489   8.312
 2019POPC   C3B29157  17.773  10.255   7.965
 2019POPC   C4B29158  17.834  10.449   7.615
 2020POPC   NC329159  44.125  30.658   9.233
 2020POPC   PO429160  43.488  30.581   9.475
 2020POPC   GL129161  43.619  30.806   9.111
 2020POPC   GL229162  43.914  31.088   9.093
 2020POPC   C1A29163  43.666  30.638   8.706
 2020POPC   D2A29164  43.763  30.849   8.280
 2020POPC   C3A29165  43.635  30.792   7.865
 2020POPC   C4A29166  43.940  30.598   7.640
 2020POPC   C1B29167  44.077  30.939   8.664
 2020POPC   C2B29168  44.305  30.933   8.254
 2020POPC   C3B29169  44.276  30.941   7.810
 2020POPC   C4B29170  43.990  31.097   7.471
 2021POPC   NC329171  37.187  18.445   9.473
 2021POPC   PO429172  36.630  18.008   9.364
 2021POPC   GL129173  36.830  18.304   9.105
 2021POPC   GL229174  37.187  18.283   8.985
 2021POPC   C1A29175  36.788  18.238   8.676
 2021POPC   D2A29176  36.552  18.394   8.365
 2021POPC   C3A29177  36.669  18.144   8.054
 2021POPC   C4A29178  36.815  18.318   7.709
 2021POPC   C1B29179  37.206  18.530   8.605
 2021POPC   C2B29180  37.075  18.475   8.172
 2021POPC   C3B29181  37.185  18.686   7.794
 2021POPC   C4B29182  37.289  18.757   7.352
 2022POPC   NC329183  41.548  31.291   9.471
 2022POPC   PO429184  42.032  31.735   9.447
 2022POPC   GL129185  41.726  31.624   9.123
 2022POPC   GL229186  41.781  31.314   9.011
 2022POPC   C1A29187  41.558  31.666   8.711
 2022POPC   D2A29188  41.419  31.562   8.283
 2022POPC   C3A29189  41.716  31.475   7.974
 2022POPC   C4A29190  41.711  31.408   7.538
 2022POPC   C1B29191  41.797  31.237   8.572
 2022POPC   C2B29192  41.594  31.042   8.237
 2022POPC   C3B29193  41.839  30.964   7.896
 2022POPC   C4B29194  41.858  30.919   7.484
 2023POPC   NC329195   9.778   7.894   9.786
 2023POPC   PO429196   9.755   7.244   9.593
 2023POPC   GL129197   9.798   7.373   9.158
 2023POPC   GL229198  10.079   7.598   9.073
 2023POPC   C1A29199   9.653   7.168   8.775
 2023POPC   D2A29200   9.494   7.310   8.399
 2023POPC   C3A29201   9.604   7.168   7.989
 2023POPC   C4A29202   9.710   7.305   7.556
 2023POPC   C1B29203  10.102   7.394   8.684
 2023POPC   C2B29204   9.962   7.473   8.262
 2023POPC   C3B29205  10.087   7.312   7.874
 2023POPC   C4B29206  10.192   7.418   7.404
 2024POPC   NC329207   7.318  31.638   9.550
 2024POPC   PO429208   7.805  31.140   9.443
 2024POPC   GL129209   7.488  31.344   9.161
 2024POPC   GL229210   7.165  31.572   9.088
 2024POPC   C1A29211   7.591  31.606   8.820
 2024POPC   D2A29212   7.614  31.823   8.427
 2024POPC   C3A29213   7.707  31.582   8.057
 2024POPC   C4A29214   7.510  31.608   7.666
 2024POPC   C1B29215   7.170  31.248   8.775
 2024POPC   C2B29216   7.353  31.354   8.409
 2024POPC   C3B29217   7.203  31.567   8.067
 2024POPC   C4B29218   7.048  31.408   7.683
 2025POPC   NC329219  11.957  13.949   9.352
 2025POPC   PO429220  12.431  13.436   9.523
 2025POPC   GL129221  12.196  13.552   9.146
 2025POPC   GL229222  12.279  13.893   8.965
 2025POPC   C1A29223  12.097  13.505   8.696
 2025POPC   D2A29224  12.160  13.644   8.280
 2025POPC   C3A29225  11.848  13.885   8.038
 2025POPC   C4A29226  11.828  13.782   7.572
 2025POPC   C1B29227  12.338  14.086   8.569
 2025POPC   C2B29228  12.290  14.126   8.138
 2025POPC   C3B29229  12.290  13.882   7.773
 2025POPC   C4B29230  12.251  13.907   7.308
 2026POPC   NC329231  21.902  14.452   9.514
 2026POPC   PO429232  22.402  14.047   9.631
 2026POPC   GL129233  22.265  14.238   9.218
 2026POPC   GL229234  21.918  14.138   9.125
 2026POPC   C1A29235  22.372  14.277   8.774
 2026POPC   D2A29236  22.529  14.050   8.398
 2026POPC   C3A29237  22.428  14.225   8.004
 2026POPC   C4A29238  22.219  14.625   7.855
 2026POPC   C1B29239  21.841  14.358   8.756
 2026POPC   C2B29240  22.066  14.374   8.363
 2026POPC   C3B29241  21.910  14.246   7.975
 2026POPC   C4B29242  21.674  14.472   7.726
 2027POPC   NC329243  39.759  24.310   9.374
 2027POPC   PO429244  40.440  24.338   9.417
 2027POPC   GL129245  40.158  24.457   9.056
 2027POPC   GL229246  39.914  24.717   9.039
 2027POPC   C1A29247  39.847  24.316   8.695
 2027POPC   D2A29248  39.825  24.461   8.255
 2027POPC   C3A29249  39.700  24.167   7.891
 2027POPC   C4A29250  39.721  24.213   7.410
 2027POPC   C1B29251  40.093  24.765   8.640
 2027POPC   C2B29252  40.351  24.569   8.379
 2027POPC   C3B29253  40.249  24.463   7.954
 2027POPC   C4B29254  39.887  24.593   7.734
 2028POPC   NC329255  38.637  41.923   9.574
 2028POPC   PO429256  38.591  41.357   9.336
 2028POPC   GL129257  38.539  41.761   9.076
 2028POPC   GL229258  38.832  41.983   9.096
 2028POPC   C1A29259  38.339  41.796   8.649
 2028POPC   D2A29260  38.357  41.502   8.301
 2028POPC   C3A29261  38.361  41.683   7.881
 2028POPC   C4A29262  38.504  41.755   7.447
 2028POPC   C1B29263  38.838  41.907   8.655
 2028POPC   C2B29264  38.690  41.894   8.249
 2028POPC   C3B29265  38.890  41.915   7.858
 2028POPC   C4B29266  38.979  41.924   7.440
 2029POPC   NC329267  14.999  38.008   9.391
 2029POPC   PO429268  14.807  38.653   9.527
 2029POPC   GL129269  15.164  38.540   9.235
 2029POPC   GL229270  15.456  38.277   9.237
 2029POPC   C1A29271  15.108  38.390   8.820
 2029POPC   D2A29272  14.931  38.659   8.534
 2029POPC   C3A29273  15.101  38.691   8.134
 2029POPC   C4A29274  15.042  38.498   7.714
 2029POPC   C1B29275  15.628  38.306   8.799
 2029POPC   C2B29276  15.519  38.258   8.367
 2029POPC   C3B29277  15.526  38.452   7.943
 2029POPC   C4B29278  15.479  38.320   7.502
 2030POPC   NC329279   2.734  31.862   9.661
 2030POPC   PO429280   2.639  31.213   9.597
 2030POPC   GL129281   2.726  31.507   9.241
 2030POPC   GL229282   2.884  31.836   9.171
 2030POPC   C1A29283   2.858  31.443   8.816
 2030POPC   D2A29284   2.704  31.125   8.501
 2030POPC   C3A29285   2.738  31.327   8.102
 2030POPC   C4A29286   3.082  31.442   7.822
 2030POPC   C1B29287   2.535  31.848   8.870
 2030POPC   C2B29288   2.536  31.704   8.448
 2030POPC   C3B29289   2.616  31.865   8.037
 2030POPC   C4B29290   2.411  31.811   7.650
 2031POPC   NC329291  42.912  43.257   9.506
 2031POPC   PO429292  43.524  43.229   9.714
 2031POPC   GL129293  43.290  43.106   9.196
 2031POPC   GL229294  43.021  43.303   9.002
 2031POPC   C1A29295  43.129  42.867   8.783
 2031POPC   D2A29296  42.845  42.904   8.401
 2031POPC   C3A29297  42.934  43.182   8.059
 2031POPC   C4A29298  43.043  43.059   7.674
 2031POPC   C1B29299  43.394  43.282   8.682
 2031POPC   C2B29300  43.422  43.185   8.227
 2031POPC   C3B29301  43.370  43.416   7.822
 2031POPC   C4B29302  43.380  43.580   7.362
 2032POPC   NC329303  29.617  31.436   9.490
 2032POPC   PO429304  30.261  31.573   9.721
 2032POPC   GL129305  30.133  31.516   9.270
 2032POPC   GL229306  29.941  31.201   9.163
 2032POPC   C1A29307  30.034  31.581   8.820
 2032POPC   D2A29308  30.060  31.273   8.499
 2032POPC   C3A29309  30.086  31.538   8.167
 2032POPC   C4A29310  30.128  31.493   7.727
 2032POPC   C1B29311  29.636  31.244   8.803
 2032POPC   C2B29312  29.619  31.503   8.400
 2032POPC   C3B29313  29.662  31.373   7.951
 2032POPC   C4B29314  29.392  31.168   7.685
 2033POPC   NC329315   8.780  14.397   9.290
 2033POPC   PO429316   9.350  14.546   9.544
 2033POPC   GL129317   9.287  14.235   9.178
 2033POPC   GL229318   9.051  13.953   9.173
 2033POPC   C1A29319   9.153  14.259   8.724
 2033POPC   D2A29320   8.983  14.145   8.309
 2033POPC   C3A29321   9.030  14.381   7.916
 2033POPC   C4A29322   9.187  14.810   7.893
 2033POPC   C1B29323   8.781  13.921   8.745
 2033POPC   C2B29324   8.528  13.896   8.347
 2033POPC   C3B29325   8.722  13.940   7.912
 2033POPC   C4B29326   8.730  14.169   7.490
 2034POPC   NC329327  25.915  22.527   9.578
 2034POPC   PO429328  26.535  22.240   9.553
 2034POPC   GL129329  26.432  22.474   9.168
 2034POPC   GL229330  26.067  22.519   9.108
 2034POPC   C1A29331  26.327  22.296   8.736
 2034POPC   D2A29332  26.195  22.449   8.324
 2034POPC   C3A29333  26.323  22.194   7.988
 2034POPC   C4A29334  26.399  21.760   7.888
 2034POPC   C1B29335  25.841  22.425   8.729
 2034POPC   C2B29336  25.660  22.353   8.311
 2034POPC   C3B29337  25.688  22.490   7.866
 2034POPC   C4B29338  25.808  22.277   7.471
 2035POPC   NC329339   9.858  44.340   9.491
 2035POPC   PO429340   9.681  44.994   9.678
 2035POPC   GL129341   9.729  44.785   9.283
 2035POPC   GL229342  10.085  44.734   9.172
 2035POPC   C1A29343   9.657  44.595   8.893
 2035POPC   D2A29344   9.723  44.487   8.461
 2035POPC   C3A29345   9.427  44.521   8.132
 2035POPC   C4A29346   9.544  44.856   7.842
 2035POPC   C1B29347  10.165  44.544   8.748
 2035POPC   C2B29348  10.225  44.619   8.288
 2035POPC   C3B29349  10.114  44.510   7.832
 2035POPC   C4B29350  10.114  44.253   7.415
 2036POPC   NC329351  30.657  35.827   9.403
 2036POPC   PO429352  30.466  36.462   9.463
 2036POPC   GL129353  30.641  36.246   9.112
 2036POPC   GL229354  31.005  36.308   9.106
 2036POPC   C1A29355  30.466  36.088   8.726
 2036POPC   D2A29356  30.657  35.966   8.332
 2036POPC   C3A29357  30.559  36.080   7.894
 2036POPC   C4A29358  30.851  36.175   7.543
 2036POPC   C1B29359  30.980  35.999   8.781
 2036POPC   C2B29360  31.142  35.843   8.406
 2036POPC   C3B29361  31.118  35.653   8.021
 2036POPC   C4B29362  30.861  35.679   7.644
 2037POPC   NC329363  23.988  26.179   9.555
 2037POPC   PO429364  23.436  25.915   9.752
 2037POPC   GL129365  23.559  25.989   9.350
 2037POPC   GL229366  23.848  25.792   9.246
 2037POPC   C1A29367  23.514  26.099   8.929
 2037POPC   D2A29368  23.500  25.920   8.510
 2037POPC   C3A29369  23.556  26.161   8.167
 2037POPC   C4A29370  23.565  26.117   7.740
 2037POPC   C1B29371  24.014  25.984   8.858
 2037POPC   C2B29372  24.000  26.004   8.394
 2037POPC   C3B29373  23.874  25.788   8.009
 2037POPC   C4B29374  23.937  25.806   7.563
 2038POPC   NC329375  18.444  32.420   9.733
 2038POPC   PO429376  19.143  32.308   9.511
 2038POPC   GL129377  19.017  32.368   9.097
 2038POPC   GL229378  18.821  32.106   9.008
 2038POPC   C1A29379  19.100  32.293   8.653
 2038POPC   D2A29380  18.870  32.443   8.297
 2038POPC   C3A29381  19.133  32.361   7.946
 2038POPC   C4A29382  18.997  32.325   7.502
 2038POPC   C1B29383  18.704  31.912   8.663
 2038POPC   C2B29384  18.496  31.986   8.289
 2038POPC   C3B29385  18.686  32.100   7.940
 2038POPC   C4B29386  19.037  31.898   7.790
 2039POPC   NC329387  28.463  27.365   9.491
 2039POPC   PO429388  28.672  28.062   9.612
 2039POPC   GL129389  28.604  27.820   9.228
 2039POPC   GL229390  28.274  27.810   9.019
 2039POPC   C1A29391  28.720  27.680   8.821
 2039POPC   D2A29392  28.470  27.733   8.475
 2039POPC   C3A29393  28.640  27.683   8.088
 2039POPC   C4A29394  28.434  27.759   7.699
 2039POPC   C1B29395  28.314  27.370   8.836
 2039POPC   C2B29396  28.206  27.178   8.426
 2039POPC   C3B29397  28.289  27.291   8.005
 2039POPC   C4B29398  28.149  27.347   7.574
 2040POPC   NC329399  17.792  27.310   9.622
 2040POPC   PO429400  17.287  27.789   9.515
 2040POPC   GL129401  17.411  27.570   9.154
 2040POPC   GL229402  17.288  27.874   8.992
 2040POPC   C1A29403  17.682  27.622   8.753
 2040POPC   D2A29404  17.751  27.830   8.330
 2040POPC   C3A29405  17.706  27.578   7.957
 2040POPC   C4A29406  17.951  27.170   7.864
 2040POPC   C1B29407  17.161  27.549   8.718
 2040POPC   C2B29408  17.324  27.467   8.314
 2040POPC   C3B29409  17.221  27.473   7.867
 2040POPC   C4B29410  17.313  27.756   7.519
 2041POPC   NC329411  20.722  26.367   9.462
 2041POPC   PO429412  20.367  25.768   9.501
 2041POPC   GL129413  20.442  26.042   9.180
 2041POPC   GL229414  20.825  26.016   9.085
 2041POPC   C1A29415  20.450  26.080   8.753
 2041POPC   D2A29416  20.623  26.115   8.375
 2041POPC   C3A29417  20.290  25.928   8.173
 2041POPC   C4A29418  20.180  25.946   7.765
 2041POPC   C1B29419  20.897  26.365   8.766
 2041POPC   C2B29420  21.038  26.580   8.416
 2041POPC   C3B29421  20.929  26.461   8.028
 2041POPC   C4B29422  20.819  26.045   7.900
 2042POPC   NC329423   7.817  37.837   9.432
 2042POPC   PO429424   7.171  37.669   9.665
 2042POPC   GL129425   7.358  37.657   9.272
 2042POPC   GL229426   7.376  37.987   9.232
 2042POPC   C1A29427   7.515  37.688   8.836
 2042POPC   D2A29428   7.331  37.778   8.437
 2042POPC   C3A29429   7.460  37.619   8.034
 2042POPC   C4A29430   7.603  37.551   7.581
 2042POPC   C1B29431   7.283  38.139   8.825
 2042POPC   C2B29432   7.514  38.289   8.518
 2042POPC   C3B29433   7.442  38.191   8.115
 2042POPC   C4B29434   7.403  38.031   7.720
 2043POPC   NC329435  41.475  24.072   9.498
 2043POPC   PO429436  41.725  23.538   9.702
 2043POPC   GL129437  41.667  23.616   9.275
 2043POPC   GL229438  41.984  23.477   9.197
 2043POPC   C1A29439  41.486  23.724   8.870
 2043POPC   D2A29440  41.441  23.789   8.446
 2043POPC   C3A29441  41.527  23.425   8.198
 2043POPC   C4A29442  41.358  23.655   7.856
 2043POPC   C1B29443  41.997  23.637   8.767
 2043POPC   C2B29444  41.934  23.733   8.324
 2043POPC   C3B29445  41.876  23.665   7.899
 2043POPC   C4B29446  41.671  23.290   7.711
 2044POPC   NC329447  27.034  24.828   9.631
 2044POPC   PO429448  26.813  25.440   9.719
 2044POPC   GL129449  26.875  25.249   9.311
 2044POPC   GL229450  26.675  24.943   9.248
 2044POPC   C1A29451  26.921  25.312   8.866
 2044POPC   D2A29452  26.870  25.202   8.436
 2044POPC   C3A29453  26.735  25.517   8.149
 2044POPC   C4A29454  26.818  25.601   7.764
 2044POPC   C1B29455  26.596  24.906   8.805
 2044POPC   C2B29456  26.669  24.749   8.381
 2044POPC   C3B29457  26.737  24.906   7.993
 2044POPC   C4B29458  26.458  25.197   7.780
 2045POPC   NC329459  10.226   7.310   9.493
 2045POPC   PO429460  10.787   7.048   9.338
 2045POPC   GL129461  10.530   7.268   9.091
 2045POPC   GL229462  10.581   7.596   9.218
 2045POPC   C1A29463  10.563   7.171   8.707
 2045POPC   D2A29464  10.451   6.964   8.377
 2045POPC   C3A29465  10.661   7.114   8.058
 2045POPC   C4A29466  10.568   7.331   7.725
 2045POPC   C1B29467  10.544   7.693   8.772
 2045POPC   C2B29468  10.476   7.522   8.346
 2045POPC   C3B29469  10.349   7.725   7.986
 2045POPC   C4B29470  10.727   7.791   7.813
 2046POPC   NC329471   2.694  36.106   9.647
 2046POPC   PO429472   3.241  36.479   9.369
 2046POPC   GL129473   2.936  36.233   9.164
 2046POPC   GL229474   2.597  36.240   9.167
 2046POPC   C1A29475   2.968  35.991   8.783
 2046POPC   D2A29476   2.819  35.941   8.367
 2046POPC   C3A29477   2.737  36.136   7.945
 2046POPC   C4A29478   2.764  36.029   7.476
 2046POPC   C1B29479   2.653  36.394   8.751
 2046POPC   C2B29480   2.463  36.358   8.354
 2046POPC   C3B29481   2.512  36.605   7.991
 2046POPC   C4B29482   2.733  36.540   7.595
 2047POPC   NC329483  39.294  27.599   9.432
 2047POPC   PO429484  38.703  28.002   9.317
 2047POPC   GL129485  39.017  27.768   9.053
 2047POPC   GL229486  38.992  27.392   9.073
 2047POPC   C1A29487  39.344  27.816   8.715
 2047POPC   D2A29488  39.365  27.615   8.305
 2047POPC   C3A29489  39.327  27.695   7.875
 2047POPC   C4A29490  39.148  27.470   7.506
 2047POPC   C1B29491  39.312  27.303   8.723
 2047POPC   C2B29492  39.485  27.129   8.308
 2047POPC   C3B29493  39.439  27.203   7.819
 2047POPC   C4B29494  39.564  27.221   7.331
 2048POPC   NC329495  15.766  30.143   9.535
 2048POPC   PO429496  16.104  29.574   9.444
 2048POPC   GL129497  16.172  29.755   9.047
 2048POPC   GL229498  16.142  30.067   9.165
 2048POPC   C1A29499  15.980  29.661   8.712
 2048POPC   D2A29500  15.818  29.853   8.371
 2048POPC   C3A29501  15.952  29.632   8.051
 2048POPC   C4A29502  16.116  29.732   7.679
 2048POPC   C1B29503  15.894  30.148   8.809
 2048POPC   C2B29504  15.970  30.351   8.410
 2048POPC   C3B29505  15.915  30.217   8.015
 2048POPC   C4B29506  15.669  29.980   7.811
 2049POPC   NC329507  37.467  25.801   9.425
 2049POPC   PO429508  37.933  26.187   9.622
 2049POPC   GL129509  37.792  26.123   9.158
 2049POPC   GL229510  37.433  26.170   9.066
 2049POPC   C1A29511  37.912  26.081   8.702
 2049POPC   D2A29512  37.867  25.806   8.309
 2049POPC   C3A29513  37.896  26.052   7.932
 2049POPC   C4A29514  37.494  26.032   7.791
 2049POPC   C1B29515  37.493  26.385   8.701
 2049POPC   C2B29516  37.635  26.315   8.288
 2049POPC   C3B29517  37.477  26.521   7.896
 2049POPC   C4B29518  37.606  26.430   7.477
 2050POPC   NC329519  20.327  24.179   9.430
 2050POPC   PO429520  20.691  24.822   9.486
 2050POPC   GL129521  20.750  24.625   9.112
 2050POPC   GL229522  20.643  24.299   9.055
 2050POPC   C1A29523  20.598  24.754   8.749
 2050POPC   D2A29524  20.803  24.739   8.384
 2050POPC   C3A29525  20.554  24.824   8.008
 2050POPC   C4A29526  20.731  24.717   7.664
 2050POPC   C1B29527  20.355  24.321   8.709
 2050POPC   C2B29528  20.384  24.467   8.290
 2050POPC   C3B29529  20.331  24.343   7.833
 2050POPC   C4B29530  20.307  24.289   7.356
 2051POPC   NC329531   1.582  43.097   9.270
 2051POPC   PO429532   0.984  43.464   9.467
 2051POPC   GL129533   0.888  43.254   9.094
 2051POPC   GL229534   1.107  42.969   9.102
 2051POPC   C1A29535   0.947  43.229   8.657
 2051POPC   D2A29536   1.146  43.300   8.246
 2051POPC   C3A29537   0.947  43.267   7.861
 2051POPC   C4A29538   1.119  43.072   7.476
 2051POPC   C1B29539   1.352  42.868   8.710
 2051POPC   C2B29540   1.543  42.991   8.324
 2051POPC   C3B29541   1.349  42.903   7.912
 2051POPC   C4B29542   1.443  42.657   7.509
 2052POPC   NC329543  30.005  39.569   9.501
 2052POPC   PO429544  29.599  39.121   9.334
 2052POPC   GL129545  29.910  39.250   9.064
 2052POPC   GL229546  29.745  39.594   9.043
 2052POPC   C1A29547  29.995  38.926   8.746
 2052POPC   D2A29548  29.759  38.851   8.379
 2052POPC   C3A29549  29.870  39.165   8.065
 2052POPC   C4A29550  30.051  39.115   7.670
 2052POPC   C1B29551  30.018  39.628   8.670
 2052POPC   C2B29552  30.082  39.641   8.220
 2052POPC   C3B29553  30.001  39.608   7.800
 2052POPC   C4B29554  29.602  39.390   7.683
 2053POPC   NC329555  33.617   0.436   9.712
 2053POPC   PO429556  34.179   0.636   9.447
 2053POPC   GL129557  33.974   0.476   9.073
 2053POPC   GL229558  34.083   0.135   9.066
 2053POPC   C1A29559  33.749   0.659   8.683
 2053POPC   D2A29560  33.493   0.641   8.286
 2053POPC   C3A29561  33.721   0.650   7.874
 2053POPC   C4A29562  33.644   0.797   7.436
 2053POPC   C1B29563  33.737   0.157   8.755
 2053POPC   C2B29564  33.567   0.115   8.342
 2053POPC   C3B29565  33.770   0.111   7.925
 2053POPC   C4B29566  34.231   0.171   7.830
 2054POPC   NC329567  36.823  22.656   9.825
 2054POPC   PO429568  37.115  22.073   9.674
 2054POPC   GL129569  36.882  22.113   9.255
 2054POPC   GL229570  36.592  21.889   9.188
 2054POPC   C1A29571  36.870  22.376   8.869
 2054POPC   D2A29572  36.769  22.623   8.502
 2054POPC   C3A29573  36.662  22.446   8.079
 2054POPC   C4A29574  36.819  22.200   7.711
 2054POPC   C1B29575  36.673  21.922   8.796
 2054POPC   C2B29576  36.787  22.063   8.420
 2054POPC   C3B29577  36.743  21.836   8.056
 2054POPC   C4B29578  36.739  21.691   7.637
 2055POPC   NC329579  32.204  27.161   9.536
 2055POPC   PO429580  32.385  27.752   9.549
 2055POPC   GL129581  32.269  27.649   9.154
 2055POPC   GL229582  32.560  27.810   9.024
 2055POPC   C1A29583  32.321  27.532   8.704
 2055POPC   D2A29584  32.334  27.780   8.371
 2055POPC   C3A29585  32.327  27.510   8.043
 2055POPC   C4A29586  32.162  27.776   7.726
 2055POPC   C1B29587  32.809  27.653   8.729
 2055POPC   C2B29588  32.787  27.522   8.339
 2055POPC   C3B29589  32.795  27.670   7.904
 2055POPC   C4B29590  32.548  27.492   7.572
 2056POPC   NC329591  26.526  13.839   9.524
 2056POPC   PO429592  26.066  13.329   9.372
 2056POPC   GL129593  26.094  13.630   9.064
 2056POPC   GL229594  25.744  13.685   8.924
 2056POPC   C1A29595  26.112  13.503   8.632
 2056POPC   D2A29596  26.210  13.231   8.346
 2056POPC   C3A29597  26.242  13.478   7.982
 2056POPC   C4A29598  26.095  13.325   7.626
 2056POPC   C1B29599  25.577  13.450   8.618
 2056POPC   C2B29600  25.756  13.468   8.225
 2056POPC   C3B29601  25.804  13.708   7.870
 2056POPC   C4B29602  25.749  13.638   7.450
 2057POPC   NC329603  34.777   9.674   9.561
 2057POPC   PO429604  34.180  10.015   9.475
 2057POPC   GL129605  34.500   9.868   9.176
 2057POPC   GL229606  34.502   9.530   9.157
 2057POPC   C1A29607  34.427   9.789   8.705
 2057POPC   D2A29608  34.133   9.923   8.386
 2057POPC   C3A29609  34.284   9.900   7.954
 2057POPC   C4A29610  34.082   9.977   7.566
 2057POPC   C1B29611  34.843   9.570   8.909
 2057POPC   C2B29612  34.880   9.603   8.512
 2057POPC   C3B29613  34.826   9.575   8.104
 2057POPC   C4B29614  34.652   9.599   7.719
 2058POPC   NC329615  35.835  28.357   9.381
 2058POPC   PO429616  35.626  27.821   9.360
 2058POPC   GL129617  35.471  28.128   9.065
 2058POPC   GL229618  35.762  28.199   8.896
 2058POPC   C1A29619  35.266  28.201   8.646
 2058POPC   D2A29620  35.088  28.034   8.242
 2058POPC   C3A29621  35.109  28.249   7.828
 2058POPC   C4A29622  34.899  28.216   7.400
 2058POPC   C1B29623  35.712  28.427   8.524
 2058POPC   C2B29624  35.575  28.438   8.089
 2058POPC   C3B29625  35.783  28.263   7.725
 2058POPC   C4B29626  35.818  28.401   7.301
 2059POPC   NC329627  17.208  28.226   9.675
 2059POPC   PO429628  16.623  28.535   9.468
 2059POPC   GL129629  16.680  28.396   9.086
 2059POPC   GL229630  16.978  28.251   9.191
 2059POPC   C1A29631  16.673  28.661   8.729
 2059POPC   D2A29632  16.531  28.648   8.312
 2059POPC   C3A29633  16.840  28.642   8.010
 2059POPC   C4A29634  16.702  28.566   7.619
 2059POPC   C1B29635  17.095  28.342   8.750
 2059POPC   C2B29636  16.870  28.259   8.343
 2059POPC   C3B29637  16.559  28.204   7.986
 2059POPC   C4B29638  16.505  28.106   7.529
 2060POPC   NC329639   0.810   9.494   9.371
 2060POPC   PO429640   1.436   9.694   9.585
 2060POPC   GL129641   1.313   9.530   9.184
 2060POPC   GL229642   1.252   9.800   9.016
 2060POPC   C1A29643   1.464   9.406   8.753
 2060POPC   D2A29644   1.341   9.316   8.340
 2060POPC   C3A29645   1.275   9.667   8.064
 2060POPC   C4A29646   1.256   9.656   7.633
 2060POPC   C1B29647   1.128   9.751   8.580
 2060POPC   C2B29648   0.935   9.977   8.269
 2060POPC   C3B29649   1.229  10.200   8.024
 2060POPC   C4B29650   1.547  10.069   7.769
 2061POPC   NC329651   6.138   3.871   9.447
 2061POPC   PO429652   6.093   3.190   9.439
 2061POPC   GL129653   5.876   3.501   9.180
 2061POPC   GL229654   5.601   3.285   9.131
 2061POPC   C1A29655   5.772   3.695   8.732
 2061POPC   D2A29656   5.836   4.117   8.530
 2061POPC   C3A29657   6.147   4.002   8.235
 2061POPC   C4A29658   6.108   3.863   7.789
 2061POPC   C1B29659   5.884   3.211   8.778
 2061POPC   C2B29660   5.676   3.298   8.373
 2061POPC   C3B29661   5.765   3.514   7.978
 2061POPC   C4B29662   5.680   3.692   7.550
 2062POPC   NC329663  17.953  40.231   9.530
 2062POPC   PO429664  18.559  40.021   9.430
 2062POPC   GL129665  18.197  40.079   9.105
 2062POPC   GL229666  17.925  39.831   9.149
 2062POPC   C1A29667  17.919  40.107   8.709
 2062POPC   D2A29668  17.863  39.920   8.279
 2062POPC   C3A29669  18.154  40.134   7.937
 2062POPC   C4A29670  18.148  40.579   7.769
 2062POPC   C1B29671  18.184  39.679   8.782
 2062POPC   C2B29672  18.345  39.795   8.363
 2062POPC   C3B29673  18.209  39.631   7.956
 2062POPC   C4B29674  18.080  39.692   7.531
 2063POPC   NC329675  41.321  23.284   9.645
 2063POPC   PO429676  41.954  22.960   9.708
 2063POPC   GL129677  41.663  23.103   9.321
 2063POPC   GL229678  41.286  23.049   9.207
 2063POPC   C1A29679  41.617  23.216   8.864
 2063POPC   D2A29680  41.729  22.880   8.559
 2063POPC   C3A29681  41.733  22.942   8.103
 2063POPC   C4A29682  41.694  22.695   7.716
 2063POPC   C1B29683  41.180  22.917   8.789
 2063POPC   C2B29684  41.267  22.953   8.353
 2063POPC   C3B29685  41.259  22.869   7.918
 2063POPC   C4B29686  41.164  23.220   7.694
 2064POPC   NC329687  12.779  17.430   9.561
 2064POPC   PO429688  13.260  17.873   9.407
 2064POPC   GL129689  13.055  17.533   9.150
 2064POPC   GL229690  12.719  17.510   9.088
 2064POPC   C1A29691  13.014  17.269   8.778
 2064POPC   D2A29692  13.110  17.317   8.363
 2064POPC   C3A29693  12.906  17.287   8.039
 2064POPC   C4A29694  12.938  17.631   7.815
 2064POPC   C1B29695  12.646  17.638   8.700
 2064POPC   C2B29696  12.517  17.457   8.331
 2064POPC   C3B29697  12.450  17.461   7.904
 2064POPC   C4B29698  12.549  17.620   7.500
 2065POPC   NC329699  39.574   6.650   9.877
 2065POPC   PO429700  39.147   6.326   9.404
 2065POPC   GL129701  39.221   6.592   9.079
 2065POPC   GL229702  38.925   6.798   8.999
 2065POPC   C1A29703  39.378   6.418   8.694
 2065POPC   D2A29704  39.620   6.453   8.337
 2065POPC   C3A29705  39.329   6.664   8.063
 2065POPC   C4A29706  39.161   6.439   7.723
 2065POPC   C1B29707  39.108   6.858   8.606
 2065POPC   C2B29708  38.922   6.959   8.220
 2065POPC   C3B29709  38.971   6.979   7.784
 2065POPC   C4B29710  39.135   7.268   7.484
 2066POPC   NC329711  32.723  27.502   9.360
 2066POPC   PO429712  33.189  27.766   9.763
 2066POPC   GL129713  33.202  27.729   9.279
 2066POPC   GL229714  33.249  27.396   9.232
 2066POPC   C1A29715  33.263  27.866   8.814
 2066POPC   D2A29716  33.060  27.950   8.378
 2066POPC   C3A29717  33.282  27.780   8.033
 2066POPC   C4A29718  33.311  27.356   7.854
 2066POPC   C1B29719  33.183  27.329   8.792
 2066POPC   C2B29720  33.181  27.181   8.341
 2066POPC   C3B29721  32.860  27.177   7.985
 2066POPC   C4B29722  32.970  27.066   7.595
 2067POPC   NC329723  32.097  15.511   9.601
 2067POPC   PO429724  32.595  15.086   9.656
 2067POPC   GL129725  32.236  15.094   9.325
 2067POPC   GL229726  32.320  15.349   9.071
 2067POPC   C1A29727  32.066  14.960   8.882
 2067POPC   D2A29728  32.194  15.266   8.536
 2067POPC   C3A29729  32.080  15.284   8.087
 2067POPC   C4A29730  32.276  15.354   7.697
 2067POPC   C1B29731  32.582  15.031   8.839
 2067POPC   C2B29732  32.579  14.946   8.399
 2067POPC   C3B29733  32.639  15.067   7.976
 2067POPC   C4B29734  32.555  14.965   7.550
 2068POPC   NC329735  27.526  36.689   9.372
 2068POPC   PO429736  28.000  37.076   9.480
 2068POPC   GL129737  27.802  37.012   9.082
 2068POPC   GL229738  27.943  36.672   9.066
 2068POPC   C1A29739  27.493  37.031   8.720
 2068POPC   D2A29740  27.468  37.162   8.280
 2068POPC   C3A29741  27.598  36.968   7.903
 2068POPC   C4A29742  27.702  37.158   7.494
 2068POPC   C1B29743  27.673  36.551   8.719
 2068POPC   C2B29744  27.504  36.574   8.305
 2068POPC   C3B29745  27.682  36.470   7.896
 2068POPC   C4B29746  27.605  36.569   7.446
 2069POPC   NC329747  44.981   5.100   9.379
 2069POPC   PO429748  44.431   4.733   9.171
 2069POPC   GL129749  44.621   5.048   9.048
 2069POPC   GL229750  44.917   4.798   8.992
 2069POPC   C1A29751  44.447   5.241   8.734
 2069POPC   D2A29752  44.272   5.100   8.370
 2069POPC   C3A29753  44.359   5.285   8.026
 2069POPC   C4A29754  44.681   5.363   7.796
 2069POPC   C1B29755  44.778   4.846   8.600
 2069POPC   C2B29756  44.785   5.153   8.323
 2069POPC   C3B29757  44.719   4.903   8.024
 2069POPC   C4B29758  44.711   4.855   7.616
 2070POPC   NC329759  14.257  19.169   9.403
 2070POPC   PO429760  14.839  18.908   9.444
 2070POPC   GL129761  14.652  19.123   9.097
 2070POPC   GL229762  14.466  18.834   9.061
 2070POPC   C1A29763  14.515  19.169   8.655
 2070POPC   D2A29764  14.370  18.977   8.231
 2070POPC   C3A29765  14.645  18.916   7.886
 2070POPC   C4A29766  14.659  19.183   7.540
 2070POPC   C1B29767  14.259  18.714   8.665
 2070POPC   C2B29768  13.914  18.975   8.452
 2070POPC   C3B29769  13.923  19.249   8.082
 2070POPC   C4B29770  14.204  19.128   7.740
 2071POPC   NC329771   5.359  34.801   9.487
 2071POPC   PO429772   4.851  34.328   9.454
 2071POPC   GL129773   4.865  34.433   9.077
 2071POPC   GL229774   5.005  34.781   9.070
 2071POPC   C1A29775   5.050  34.244   8.735
 2071POPC   D2A29776   5.089  34.427   8.316
 2071POPC   C3A29777   5.126  34.158   8.005
 2071POPC   C4A29778   5.058  34.227   7.595
 2071POPC   C1B29779   4.836  34.707   8.647
 2071POPC   C2B29780   4.719  34.787   8.225
 2071POPC   C3B29781   4.985  34.676   7.853
 2071POPC   C4B29782   4.935  34.766   7.375
 2072POPC   NC329783   9.472   5.831   9.524
 2072POPC   PO429784   9.779   6.284   9.870
 2072POPC   GL129785   9.864   5.978   9.279
 2072POPC   GL229786   9.629   6.111   8.990
 2072POPC   C1A29787   9.965   5.789   8.833
 2072POPC   D2A29788   9.648   5.744   8.487
 2072POPC   C3A29789   9.746   5.892   8.057
 2072POPC   C4A29790   9.823   5.729   7.624
 2072POPC   C1B29791   9.309   6.214   8.706
 2072POPC   C2B29792   9.249   6.043   8.332
 2072POPC   C3B29793   9.334   6.238   7.964
 2072POPC   C4B29794   9.656   6.236   7.639
 2073POPC   NC329795  32.062  29.120   9.520
 2073POPC   PO429796  32.485  28.704   9.261
 2073POPC   GL129797  32.179  28.952   9.032
 2073POPC   GL229798  32.159  29.329   9.059
 2073POPC   C1A29799  32.233  28.976   8.609
 2073POPC   D2A29800  32.398  28.740   8.290
 2073POPC   C3A29801  32.283  28.726   7.896
 2073POPC   C4A29802  32.196  29.115   7.694
 2073POPC   C1B29803  32.186  29.484   8.632
 2073POPC   C2B29804  32.238  29.405   8.179
 2073POPC   C3B29805  32.157  29.609   7.789
 2073POPC   C4B29806  32.214  29.519   7.345
 2074POPC   NC329807  32.833  26.066   9.891
 2074POPC   PO429808  32.462  26.051   9.356
 2074POPC   GL129809  32.257  26.012   9.019
 2074POPC   GL229810  31.936  25.927   9.148
 2074POPC   C1A29811  32.272  26.207   8.638
 2074POPC   D2A29812  32.259  26.115   8.233
 2074POPC   C3A29813  32.314  26.323   7.891
 2074POPC   C4A29814  31.996  26.080   7.750
 2074POPC   C1B29815  31.978  25.636   8.813
 2074POPC   C2B29816  32.239  25.651   8.467
 2074POPC   C3B29817  32.155  25.660   8.009
 2074POPC   C4B29818  31.966  25.586   7.576
 2075POPC   NC329819  44.311  28.611   9.484
 2075POPC   PO429820  44.731  28.094   9.781
 2075POPC   GL129821  44.679  28.149   9.266
 2075POPC   GL229822  44.622  28.479   9.129
 2075POPC   C1A29823  44.872  28.145   8.842
 2075POPC   D2A29824   0.090  28.196   8.455
 2075POPC   C3A29825  44.861  28.125   8.066
 2075POPC   C4A29826  44.517  28.376   7.875
 2075POPC   C1B29827  44.730  28.638   8.743
 2075POPC   C2B29828  44.608  28.575   8.337
 2075POPC   C3B29829  44.489  28.867   7.987
 2075POPC   C4B29830  44.772  28.803   7.650
 2076POPC   NC329831  29.370  34.074   9.539
 2076POPC   PO429832  29.108  33.483   9.556
 2076POPC   GL129833  29.165  33.713   9.197
 2076POPC   GL229834  29.011  33.445   9.051
 2076POPC   C1A29835  29.100  33.862   8.755
 2076POPC   D2A29836  28.900  33.915   8.371
 2076POPC   C3A29837  29.106  33.911   7.988
 2076POPC   C4A29838  29.075  33.673   7.651
 2076POPC   C1B29839  29.400  33.445   8.815
 2076POPC   C2B29840  29.590  33.430   8.396
 2076POPC   C3B29841  29.411  33.477   8.005
 2076POPC   C4B29842  29.587  33.563   7.629
 2077POPC   NC329843  12.611  41.182   9.466
 2077POPC   PO429844  13.123  41.711   9.578
 2077POPC   GL129845  13.022  41.496   9.251
 2077POPC   GL229846  12.743  41.660   9.160
 2077POPC   C1A29847  13.205  41.433   8.864
 2077POPC   D2A29848  13.102  41.335   8.469
 2077POPC   C3A29849  12.984  41.566   8.123
 2077POPC   C4A29850  13.072  41.372   7.713
 2077POPC   C1B29851  12.676  41.381   8.776
 2077POPC   C2B29852  12.612  41.251   8.301
 2077POPC   C3B29853  12.581  41.409   7.847
 2077POPC   C4B29854  12.290  41.388   7.536
 2078POPC   NC329855  40.286   4.492   9.540
 2078POPC   PO429856  39.627   4.494   9.621
 2078POPC   GL129857  39.827   4.268   9.286
 2078POPC   GL229858  40.173   4.270   9.104
 2078POPC   C1A29859  39.720   4.258   8.863
 2078POPC   D2A29860  39.876   4.456   8.525
 2078POPC   C3A29861  39.877   4.219   8.169
 2078POPC   C4A29862  39.839   4.266   7.717
 2078POPC   C1B29863  40.433   4.371   8.733
 2078POPC   C2B29864  40.360   4.381   8.276
 2078POPC   C3B29865  40.335   4.394   7.823
 2078POPC   C4B29866  40.262   4.117   7.443
 2079POPC   NC329867  30.073   2.981   9.483
 2079POPC   PO429868  29.839   2.308   9.536
 2079POPC   GL129869  29.990   2.529   9.174
 2079POPC   GL229870  30.138   2.261   9.040
 2079POPC   C1A29871  30.079   2.767   8.770
 2079POPC   D2A29872  30.161   2.985   8.364
 2079POPC   C3A29873  29.877   2.935   8.005
 2079POPC   C4A29874  29.853   2.797   7.580
 2079POPC   C1B29875  29.959   2.277   8.652
 2079POPC   C2B29876  29.909   2.514   8.297
 2079POPC   C3B29877  29.853   2.411   7.890
 2079POPC   C4B29878  29.906   2.265   7.455
 2080POPC   NC329879  31.345  35.564   9.646
 2080POPC   PO429880  31.437  36.225   9.451
 2080POPC   GL129881  31.576  36.136   9.042
 2080POPC   GL229882  31.491  36.473   8.971
 2080POPC   C1A29883  31.527  36.131   8.601
 2080POPC   D2A29884  31.158  36.369   8.425
 2080POPC   C3A29885  31.058  36.195   8.016
 2080POPC   C4A29886  31.292  35.970   7.662
 2080POPC   C1B29887  31.625  36.656   8.556
 2080POPC   C2B29888  31.566  36.495   8.141
 2080POPC   C3B29889  31.547  36.045   8.089
 2080POPC   C4B29890  31.827  35.874   7.809
 2081POPC   NC329891  11.821   1.225   9.719
 2081POPC   PO429892  12.323   0.985   9.493
 2081POPC   GL129893  12.121   1.247   9.218
 2081POPC   GL229894  11.842   1.445   9.183
 2081POPC   C1A29895  11.893   1.104   8.831
 2081POPC   D2A29896  12.077   1.067   8.422
 2081POPC   C3A29897  12.013   1.141   8.020
 2081POPC   C4A29898  12.117   1.382   7.697
 2081POPC   C1B29899  11.794   1.580   8.713
 2081POPC   C2B29900  11.889   1.578   8.252
 2081POPC   C3B29901  11.678   1.592   7.847
 2081POPC   C4B29902  11.748   1.622   7.374
 2082POPC   NC329903  36.780  20.864   9.623
 2082POPC   PO429904  37.168  20.360   9.601
 2082POPC   GL129905  36.886  20.509   9.257
 2082POPC   GL229906  36.657  20.274   9.110
 2082POPC   C1A29907  36.906  20.640   8.820
 2082POPC   D2A29908  37.116  20.579   8.419
 2082POPC   C3A29909  36.938  20.801   8.078
 2082POPC   C4A29910  36.904  20.699   7.645
 2082POPC   C1B29911  36.485  20.332   8.683
 2082POPC   C2B29912  36.586  20.378   8.255
 2082POPC   C3B29913  36.470  20.671   7.930
 2082POPC   C4B29914  36.427  20.465   7.581
 2083POPC   NC329915  24.790  42.304   9.422
 2083POPC   PO429916  24.186  42.492   9.510
 2083POPC   GL129917  24.384  42.475   9.122
 2083POPC   GL229918  24.596  42.747   9.052
 2083POPC   C1A29919  24.604  42.305   8.763
 2083POPC   D2A29920  24.778  42.381   8.354
 2083POPC   C3A29921  24.572  42.170   8.016
 2083POPC   C4A29922  24.579  42.297   7.630
 2083POPC   C1B29923  24.847  42.757   8.710
 2083POPC   C2B29924  24.790  42.902   8.321
 2083POPC   C3B29925  24.711  42.710   7.944
 2083POPC   C4B29926  24.944  42.647   7.593
 2084POPC   NC329927  11.222   7.085   9.442
 2084POPC   PO429928  11.595   7.582   9.587
 2084POPC   GL129929  11.447   7.611   9.172
 2084POPC   GL229930  11.630   7.281   9.152
 2084POPC   C1A29931  11.062   7.561   8.855
 2084POPC   D2A29932  10.985   7.317   8.435
 2084POPC   C3A29933  11.087   7.444   7.978
 2084POPC   C4A29934  11.015   7.345   7.527
 2084POPC   C1B29935  11.514   7.378   8.724
 2084POPC   C2B29936  11.721   7.484   8.380
 2084POPC   C3B29937  11.625   7.351   7.989
 2084POPC   C4B29938  11.487   7.494   7.626
 2085POPC   NC329939  37.782  27.354   9.544
 2085POPC   PO429940  37.160  27.292   9.262
 2085POPC   GL129941  37.575  27.354   9.044
 2085POPC   GL229942  37.782  27.641   9.037
 2085POPC   C1A29943  37.868  27.274   8.674
 2085POPC   D2A29944  38.017  27.537   8.309
 2085POPC   C3A29945  37.822  27.508   7.903
 2085POPC   C4A29946  37.408  27.431   7.710
 2085POPC   C1B29947  37.554  27.704   8.649
 2085POPC   C2B29948  37.437  27.649   8.218
 2085POPC   C3B29949  37.537  27.909   7.876
 2085POPC   C4B29950  37.982  28.017   7.781
 2086POPC   NC329951  28.683  31.776   9.598
 2086POPC   PO429952  28.504  31.106   9.567
 2086POPC   GL129953  28.551  31.293   9.168
 2086POPC   GL229954  28.418  31.606   9.129
 2086POPC   C1A29955  28.417  31.272   8.737
 2086POPC   D2A29956  28.693  31.186   8.361
 2086POPC   C3A29957  28.459  31.289   8.011
 2086POPC   C4A29958  28.527  31.701   7.902
 2086POPC   C1B29959  28.193  31.752   8.751
 2086POPC   C2B29960  28.210  31.557   8.347
 2086POPC   C3B29961  28.025  31.628   7.934
 2086POPC   C4B29962  28.180  31.591   7.514
 2087POPC   NC329963  42.653   9.802   9.484
 2087POPC   PO429964  42.135   9.410   9.389
 2087POPC   GL129965  42.337   9.668   9.116
 2087POPC   GL229966  42.619   9.470   9.086
 2087POPC   C1A29967  42.345   9.990   8.794
 2087POPC   D2A29968  42.022   9.912   8.482
 2087POPC   C3A29969  42.096   9.923   8.041
 2087POPC   C4A29970  42.256  10.217   7.754
 2087POPC   C1B29971  42.356   9.499   8.641
 2087POPC   C2B29972  42.419   9.530   8.172
 2087POPC   C3B29973  42.591   9.605   7.734
 2087POPC   C4B29974  42.774   9.521   7.304
 2088POPC   NC329975  10.186  28.111   9.365
 2088POPC   PO429976  10.684  28.565   9.677
 2088POPC   GL129977  10.563  28.405   9.240
 2088POPC   GL229978  10.272  28.507   9.043
 2088POPC   C1A29979  10.530  28.143   8.815
 2088POPC   D2A29980  10.303  28.231   8.440
 2088POPC   C3A29981  10.522  28.226   8.052
 2088POPC   C4A29982  10.408  28.111   7.636
 2088POPC   C1B29983  10.400  28.696   8.660
 2088POPC   C2B29984  10.347  28.697   8.201
 2088POPC   C3B29985  10.096  28.471   7.847
 2088POPC   C4B29986  10.089  28.401   7.365
 2089POPC   NC329987  36.386   8.457   9.835
 2089POPC   PO429988  36.077   7.920   9.491
 2089POPC   GL129989  36.098   8.142   9.126
 2089POPC   GL229990  36.431   8.133   9.130
 2089POPC   C1A29991  36.123   8.089   8.696
 2089POPC   D2A29992  36.040   7.888   8.334
 2089POPC   C3A29993  35.926   8.163   8.076
 2089POPC   C4A29994  36.021   8.159   7.692
 2089POPC   C1B29995  36.474   8.443   8.781
 2089POPC   C2B29996  36.302   8.504   8.346
 2089POPC   C3B29997  36.380   8.450   7.879
 2089POPC   C4B29998  36.253   8.551   7.426
 2090POPC   NC329999  41.124   5.191   9.524
 2090POPC   PO430000  40.558   4.864   9.572
 2090POPC   GL130001  40.736   5.116   9.187
 2090POPC   GL230002  41.035   5.394   9.077
 2090POPC   C1A30003  40.556   4.951   8.821
 2090POPC   D2A30004  40.668   4.755   8.439
 2090POPC   C3A30005  40.476   4.854   8.075
 2090POPC   C4A30006  40.495   4.936   7.679
 2090POPC   C1B30007  41.006   5.182   8.731
 2090POPC   C2B30008  41.138   4.954   8.422
 2090POPC   C3B30009  40.971   4.989   8.049
 2090POPC   C4B30010  40.945   5.171   7.676
 2091POPC   NC330011   7.733  20.278   9.501
 2091POPC   PO430012   7.163  20.754   9.543
 2091POPC   GL130013   7.333  20.664   9.149
 2091POPC   GL230014   7.321  20.302   9.190
 2091POPC   C1A30015   7.491  20.875   8.764
 2091POPC   D2A30016   7.758  20.923   8.412
 2091POPC   C3A30017   7.583  20.775   8.020
 2091POPC   C4A30018   7.733  20.749   7.625
 2091POPC   C1B30019   7.594  20.360   8.825
 2091POPC   C2B30020   7.423  20.480   8.426
 2091POPC   C3B30021   7.399  20.285   8.039
 2091POPC   C4B30022   7.761  20.263   7.815
 2092POPC   NC330023  22.111   7.339   9.561
 2092POPC   PO430024  21.760   6.729   9.574
 2092POPC   GL130025  21.840   7.128   9.210
 2092POPC   GL230026  22.206   7.298   9.073
 2092POPC   C1A30027  21.813   7.372   8.815
 2092POPC   D2A30028  22.166   7.406   8.539
 2092POPC   C3A30029  22.017   7.256   8.146
 2092POPC   C4A30030  22.185   7.174   7.732
 2092POPC   C1B30031  22.389   7.696   8.913
 2092POPC   C2B30032  22.617   7.694   8.514
 2092POPC   C3B30033  22.442   7.558   8.130
 2092POPC   C4B30034  22.382   7.699   7.706
 2093POPC   NC330035  33.982  10.356   9.733
 2093POPC   PO430036  33.553  10.715   9.319
 2093POPC   GL130037  33.860  10.598   9.068
 2093POPC   GL230038  33.844  10.268   9.191
 2093POPC   C1A30039  34.137  10.654   8.705
 2093POPC   D2A30040  34.211  10.466   8.296
 2093POPC   C3A30041  34.007  10.711   7.955
 2093POPC   C4A30042  33.595  10.954   7.866
 2093POPC   C1B30043  33.865  10.213   8.741
 2093POPC   C2B30044  33.629  10.521   8.508
 2093POPC   C3B30045  33.551  10.478   8.076
 2093POPC   C4B30046  33.825  10.156   7.960
 2094POPC   NC330047  17.039  26.657   9.537
 2094POPC   PO430048  17.656  26.869   9.644
 2094POPC   GL130049  17.540  27.048   9.212
 2094POPC   GL230050  17.168  27.099   9.137
 2094POPC   C1A30051  17.685  27.101   8.751
 2094POPC   D2A30052  17.800  27.289   8.363
 2094POPC   C3A30053  17.508  27.068   8.050
 2094POPC   C4A30054  17.516  26.901   7.623
 2094POPC   C1B30055  17.288  26.787   8.810
 2094POPC   C2B30056  17.489  26.670   8.386
 2094POPC   C3B30057  17.311  26.584   7.947
 2094POPC   C4B30058  17.009  26.829   7.643
 2095POPC   NC330059  40.762   2.926   9.521
 2095POPC   PO430060  41.268   2.442   9.375
 2095POPC   GL130061  40.964   2.421   9.018
 2095POPC   GL230062  40.707   2.633   9.119
 2095POPC   C1A30063  40.766   2.555   8.615
 2095POPC   D2A30064  40.861   2.888   8.279
 2095POPC   C3A30065  40.897   2.690   7.847
 2095POPC   C4A30066  40.987   2.451   7.453
 2095POPC   C1B30067  40.489   2.924   8.852
 2095POPC   C2B30068  40.365   2.848   8.430
 2095POPC   C3B30069  40.441   2.925   7.987
 2095POPC   C4B30070  40.664   3.115   7.668
 2096POPC   NC330071   4.563  27.064   9.510
 2096POPC   PO430072   4.090  26.499   9.547
 2096POPC   GL130073   3.999  26.719   9.191
 2096POPC   GL230074   4.346  26.803   9.105
 2096POPC   C1A30075   4.003  26.749   8.736
 2096POPC   D2A30076   3.984  27.107   8.450
 2096POPC   C3A30077   4.198  27.060   8.059
 2096POPC   C4A30078   4.273  26.648   7.886
 2096POPC   C1B30079   4.568  26.963   8.725
 2096POPC   C2B30080   4.849  27.095   8.384
 2096POPC   C3B30081   4.703  27.053   7.982
 2096POPC   C4B30082   4.488  27.006   7.621
 2097POPC   NC330083   1.466   3.145  10.056
 2097POPC   PO430084   1.154   2.763   9.522
 2097POPC   GL130085   1.216   2.550   9.176
 2097POPC   GL230086   1.438   2.807   9.046
 2097POPC   C1A30087   1.136   2.538   8.759
 2097POPC   D2A30088   1.401   2.735   8.471
 2097POPC   C3A30089   1.228   2.577   8.105
 2097POPC   C4A30090   0.867   2.587   7.843
 2097POPC   C1B30091   1.692   3.053   8.768
 2097POPC   C2B30092   1.546   3.238   8.393
 2097POPC   C3B30093   1.414   3.028   8.034
 2097POPC   C4B30094   1.613   3.073   7.668
 2098POPC   NC330095   9.556  43.610   9.823
 2098POPC   PO430096   9.354  44.193   9.543
 2098POPC   GL130097   9.091  43.931   9.238
 2098POPC   GL230098   8.734  43.782   9.239
 2098POPC   C1A30099   9.090  43.783   8.797
 2098POPC   D2A30100   8.992  44.059   8.470
 2098POPC   C3A30101   9.017  43.890   8.067
 2098POPC   C4A30102   8.891  44.095   7.695
 2098POPC   C1B30103   8.595  43.592   8.813
 2098POPC   C2B30104   8.339  43.607   8.387
 2098POPC   C3B30105   8.495  43.464   7.997
 2098POPC   C4B30106   8.711  43.636   7.685
 2099POPC   NC330107  32.837  28.489   9.471
 2099POPC   PO430108  33.376  28.832   9.696
 2099POPC   GL130109  33.228  28.745   9.220
 2099POPC   GL230110  32.926  28.941   9.159
 2099POPC   C1A30111  33.224  28.873   8.734
 2099POPC   D2A30112  33.379  29.024   8.276
 2099POPC   C3A30113  33.097  29.263   7.966
 2099POPC   C4A30114  33.048  29.227   7.501
 2099POPC   C1B30115  32.650  29.185   8.864
 2099POPC   C2B30116  32.647  29.205   8.424
 2099POPC   C3B30117  32.617  29.112   7.990
 2099POPC   C4B30118  32.622  29.432   7.689
 2100POPC   NC330119  33.372  10.306   9.424
 2100POPC   PO430120  32.663  10.485   9.532
 2100POPC   GL130121  32.958  10.591   9.217
 2100POPC   GL230122  33.090  10.923   9.256
 2100POPC   C1A30123  33.091  10.440   8.804
 2100POPC   D2A30124  33.113  10.450   8.355
 2100POPC   C3A30125  32.886  10.332   7.991
 2100POPC   C4A30126  33.143  10.608   7.731
 2100POPC   C1B30127  32.792  10.973   8.905
 2100POPC   C2B30128  32.731  10.790   8.495
 2100POPC   C3B30129  32.849  10.834   8.085
 2100POPC   C4B30130  32.846  11.051   7.714
 2101POPC   NC330131   8.277  24.001   9.588
 2101POPC   PO430132   7.897  23.575   9.360
 2101POPC   GL130133   8.240  23.661   9.120
 2101POPC   GL230134   8.181  24.029   9.075
 2101POPC   C1A30135   8.301  23.599   8.677
 2101POPC   D2A30136   8.260  23.736   8.246
 2101POPC   C3A30137   8.113  23.492   7.929
 2101POPC   C4A30138   7.683  23.418   7.984
 2101POPC   C1B30139   8.594  23.987   8.864
 2101POPC   C2B30140   8.703  23.833   8.461
 2101POPC   C3B30141   8.662  23.931   8.014
 2101POPC   C4B30142   8.285  23.944   7.751
 2102POPC   NC330143  29.946  23.619   9.627
 2102POPC   PO430144  30.120  24.260   9.576
 2102POPC   GL130145  30.122  24.062   9.169
 2102POPC   GL230146  29.953  23.741   9.129
 2102POPC   C1A30147  29.942  24.105   8.760
 2102POPC   D2A30148  29.727  23.957   8.413
 2102POPC   C3A30149  30.026  23.940   8.080
 2102POPC   C4A30150  29.859  23.913   7.674
 2102POPC   C1B30151  30.035  23.587   8.713
 2102POPC   C2B30152  30.043  23.410   8.303
 2102POPC   C3B30153  29.908  23.452   7.887
 2102POPC   C4B30154  30.100  23.424   7.497
 2103POPC   NC330155  18.610  28.351   9.450
 2103POPC   PO430156  18.130  27.868   9.459
 2103POPC   GL130157  18.215  28.204   9.155
 2103POPC   GL230158  18.231  28.579   9.133
 2103POPC   C1A30159  18.334  28.187   8.741
 2103POPC   D2A30160  18.304  27.915   8.401
 2103POPC   C3A30161  18.530  28.112   8.097
 2103POPC   C4A30162  18.397  28.165   7.711
 2103POPC   C1B30163  18.040  28.600   8.722
 2103POPC   C2B30164  17.959  28.479   8.286
 2103POPC   C3B30165  18.109  28.583   7.840
 2103POPC   C4B30166  18.360  28.615   7.425
 2104POPC   NC330167  16.080  41.801   9.364
 2104POPC   PO430168  15.489  41.596   9.734
 2104POPC   GL130169  15.742  41.365   9.299
 2104POPC   GL230170  16.105  41.308   9.166
 2104POPC   C1A30171  15.865  41.495   8.777
 2104POPC   D2A30172  15.853  41.707   8.397
 2104POPC   C3A30173  15.654  41.477   8.066
 2104POPC   C4A30174  15.746  41.732   7.712
 2104POPC   C1B30175  16.220  41.138   8.770
 2104POPC   C2B30176  16.236  41.345   8.395
 2104POPC   C3B30177  16.224  41.597   8.039
 2104POPC   C4B30178  16.057  41.331   7.768
 2105POPC   NC330179  28.617  33.448   9.444
 2105POPC   PO430180  28.285  34.033   9.455
 2105POPC   GL130181  28.346  33.794   9.125
 2105POPC   GL230182  28.691  33.857   9.102
 2105POPC   C1A30183  28.158  33.804   8.727
 2105POPC   D2A30184  27.950  33.978   8.350
 2105POPC   C3A30185  28.105  33.775   7.986
 2105POPC   C4A30186  28.266  33.559   7.644
 2105POPC   C1B30187  28.635  33.597   8.733
 2105POPC   C2B30188  28.570  33.507   8.310
 2105POPC   C3B30189  28.648  33.694   7.924
 2105POPC   C4B30190  28.646  33.862   7.460
 2106POPC   NC330191   9.114  11.675   9.807
 2106POPC   PO430192   8.583  12.114   9.529
 2106POPC   GL130193   8.953  12.047   9.230
 2106POPC   GL230194   8.935  11.737   9.027
 2106POPC   C1A30195   9.203  12.103   8.832
 2106POPC   D2A30196   9.290  12.058   8.413
 2106POPC   C3A30197   8.995  12.086   8.139
 2106POPC   C4A30198   9.111  12.161   7.717
 2106POPC   C1B30199   8.835  11.823   8.579
 2106POPC   C2B30200   8.863  11.564   8.188
 2106POPC   C3B30201   8.774  11.763   7.782
 2106POPC   C4B30202   8.625  12.216   7.828
 2107POPC   NC330203  32.768  33.204   9.870
 2107POPC   PO430204  32.810  32.858   9.354
 2107POPC   GL130205  32.777  33.274   9.195
 2107POPC   GL230206  33.047  33.257   8.975
 2107POPC   C1A30207  32.580  33.344   8.784
 2107POPC   D2A30208  32.928  33.345   8.477
 2107POPC   C3A30209  32.852  33.251   8.073
 2107POPC   C4A30210  33.175  33.172   7.766
 2107POPC   C1B30211  32.812  32.896   8.703
 2107POPC   C2B30212  32.675  32.638   8.327
 2107POPC   C3B30213  32.864  32.736   7.908
 2107POPC   C4B30214  33.165  32.708   7.537
 2108POPC   NC330215   2.622  19.498   9.554
 2108POPC   PO430216   2.889  18.856   9.649
 2108POPC   GL130217   2.711  18.959   9.254
 2108POPC   GL230218   2.907  19.247   9.192
 2108POPC   C1A30219   2.670  19.024   8.792
 2108POPC   D2A30220   2.957  18.933   8.477
 2108POPC   C3A30221   2.767  18.866   8.090
 2108POPC   C4A30222   2.677  18.986   7.670
 2108POPC   C1B30223   3.097  19.336   8.782
 2108POPC   C2B30224   2.914  19.418   8.349
 2108POPC   C3B30225   2.921  19.408   7.871
 2108POPC   C4B30226   3.150  19.237   7.491
 2109POPC   NC330227   1.023  23.878   9.573
 2109POPC   PO430228   1.448  23.334   9.428
 2109POPC   GL130229   1.187  23.486   9.113
 2109POPC   GL230230   0.967  23.755   9.115
 2109POPC   C1A30231   1.283  23.752   8.739
 2109POPC   D2A30232   1.403  23.944   8.360
 2109POPC   C3A30233   1.277  23.748   7.999
 2109POPC   C4A30234   1.356  23.833   7.593
 2109POPC   C1B30235   0.829  23.961   8.776
 2109POPC   C2B30236   0.892  23.819   8.387
 2109POPC   C3B30237   0.843  23.982   8.012
 2109POPC   C4B30238   0.800  24.098   7.597
 2110POPC   NC330239  25.328  26.473   9.372
 2110POPC   PO430240  24.917  26.850   9.695
 2110POPC   GL130241  25.042  26.900   9.283
 2110POPC   GL230242  25.400  26.931   9.193
 2110POPC   C1A30243  25.054  26.866   8.829
 2110POPC   D2A30244  24.942  26.802   8.409
 2110POPC   C3A30245  25.059  27.103   8.126
 2110POPC   C4A30246  25.125  27.064   7.697
 2110POPC   C1B30247  25.551  26.699   8.812
 2110POPC   C2B30248  25.471  26.807   8.399
 2110POPC   C3B30249  25.542  26.983   8.010
 2110POPC   C4B30250  25.617  26.820   7.628
 2111POPC   NC330251  40.905  14.429   9.661
 2111POPC   PO430252  40.297  14.226   9.567
 2111POPC   GL130253  40.674  14.188   9.256
 2111POPC   GL230254  40.852  14.535   9.135
 2111POPC   C1A30255  40.867  14.124   8.839
 2111POPC   D2A30256  40.750  14.330   8.463
 2111POPC   C3A30257  40.822  14.197   8.045
 2111POPC   C4A30258  40.869  14.120   7.618
 2111POPC   C1B30259  41.081  14.621   8.716
 2111POPC   C2B30260  41.228  14.518   8.245
 2111POPC   C3B30261  40.998  14.621   7.828
 2111POPC   C4B30262  40.971  14.698   7.378
 2112POPC   NC330263   2.867   8.072   9.608
 2112POPC   PO430264   2.910   8.706   9.744
 2112POPC   GL130265   2.729   8.506   9.318
 2112POPC   GL230266   2.996   8.316   9.178
 2112POPC   C1A30267   2.607   8.288   8.864
 2112POPC   D2A30268   2.747   8.084   8.436
 2112POPC   C3A30269   2.638   8.082   8.020
 2112POPC   C4A30270   2.799   7.906   7.690
 2112POPC   C1B30271   3.099   8.125   8.772
 2112POPC   C2B30272   3.352   8.209   8.365
 2112POPC   C3B30273   3.194   8.209   7.930
 2112POPC   C4B30274   2.879   8.451   7.734
 2113POPC   NC330275   8.862  21.855   9.413
 2113POPC   PO430276   9.270  22.327   9.559
 2113POPC   GL130277   9.136  22.271   9.155
 2113POPC   GL230278   8.830  22.286   9.133
 2113POPC   C1A30279   9.130  22.094   8.747
 2113POPC   D2A30280   9.151  21.859   8.374
 2113POPC   C3A30281   9.155  22.069   7.987
 2113POPC   C4A30282   9.037  21.826   7.662
 2113POPC   C1B30283   8.653  22.311   8.756
 2113POPC   C2B30284   8.805  22.247   8.351
 2113POPC   C3B30285   8.643  22.008   8.029
 2113POPC   C4B30286   8.641  22.135   7.623
 2114POPC   NC330287  38.234   1.909   9.365
 2114POPC   PO430288  38.832   2.063   9.621
 2114POPC   GL130289  38.608   2.172   9.125
 2114POPC   GL230290  38.259   2.226   8.997
 2114POPC   C1A30291  38.651   2.385   8.730
 2114POPC   D2A30292  38.381   2.344   8.360
 2114POPC   C3A30293  38.666   2.370   8.043
 2114POPC   C4A30294  38.756   2.163   7.684
 2114POPC   C1B30295  38.089   1.955   8.675
 2114POPC   C2B30296  38.070   1.834   8.226
 2114POPC   C3B30297  38.305   1.910   7.865
 2114POPC   C4B30298  38.532   1.624   7.640
 2115POPC   NC330299  39.154   1.750   9.497
 2115POPC   PO430300  38.867   1.064   9.620
 2115POPC   GL130301  38.976   1.325   9.277
 2115POPC   GL230302  39.195   1.085   9.191
 2115POPC   C1A30303  39.185   1.503   8.879
 2115POPC   D2A30304  39.469   1.384   8.558
 2115POPC   C3A30305  39.402   1.477   8.088
 2115POPC   C4A30306  39.036   1.368   7.808
 2115POPC   C1B30307  39.341   0.948   8.821
 2115POPC   C2B30308  39.172   0.773   8.458
 2115POPC   C3B30309  39.227   0.966   8.079
 2115POPC   C4B30310  39.502   1.112   7.753
 2116POPC   NC330311   9.343   7.130   9.398
 2116POPC   PO430312   8.793   7.481   9.455
 2116POPC   GL130313   9.102   7.640   9.208
 2116POPC   GL230314   8.839   7.778   9.014
 2116POPC   C1A30315   9.235   7.517   8.799
 2116POPC   D2A30316   9.004   7.482   8.423
 2116POPC   C3A30317   9.193   7.483   8.016
 2116POPC   C4A30318   9.146   7.183   7.691
 2116POPC   C1B30319   8.563   7.601   8.742
 2116POPC   C2B30320   8.533   7.649   8.310
 2116POPC   C3B30321   8.692   7.431   7.973
 2116POPC   C4B30322   8.874   7.642   7.630
 2117POPC   NC330323  26.191  10.564   9.462
 2117POPC   PO430324  25.893  11.185   9.325
 2117POPC   GL130325  25.892  10.746   9.068
 2117POPC   GL230326  26.062  10.364   9.038
 2117POPC   C1A30327  25.904  10.595   8.635
 2117POPC   D2A30328  25.801  10.284   8.300
 2117POPC   C3A30329  25.824  10.599   8.004
 2117POPC   C4A30330  25.732  10.613   7.601
 2117POPC   C1B30331  26.313  10.273   8.679
 2117POPC   C2B30332  26.268  10.450   8.284
 2117POPC   C3B30333  26.204  10.288   7.893
 2117POPC   C4B30334  26.245  10.666   7.673
 2118POPC   NC330335   0.542   7.502   9.471
 2118POPC   PO430336  44.827   7.712   9.446
 2118POPC   GL130337   0.202   7.664   9.122
 2118POPC   GL230338   0.610   7.705   9.034
 2118POPC   C1A30339   0.280   7.379   8.771
 2118POPC   D2A30340   0.461   7.060   8.498
 2118POPC   C3A30341   0.380   7.219   8.096
 2118POPC   C4A30342   0.404   7.285   7.653
 2118POPC   C1B30343   0.810   7.445   8.754
 2118POPC   C2B30344   0.632   7.539   8.385
 2118POPC   C3B30345   0.710   7.577   7.943
 2118POPC   C4B30346   0.710   7.688   7.529
 2119POPC   NC330347  10.220  29.509   9.328
 2119POPC   PO430348  10.716  29.891   9.488
 2119POPC   GL130349  10.491  30.107   9.172
 2119POPC   GL230350  10.337  29.837   8.929
 2119POPC   C1A30351  10.618  30.232   8.787
 2119POPC   D2A30352  10.376  30.068   8.447
 2119POPC   C3A30353  10.608  29.984   8.077
 2119POPC   C4A30354  10.403  30.171   7.739
 2119POPC   C1B30355  10.087  29.564   8.616
 2119POPC   C2B30356  10.029  29.552   8.173
 2119POPC   C3B30357  10.274  29.683   7.826
 2119POPC   C4B30358  10.620  29.593   7.510
 2120POPC   NC330359  32.277  11.856   9.754
 2120POPC   PO430360  32.190  11.169   9.600
 2120POPC   GL130361  32.387  11.259   9.240
 2120POPC   GL230362  32.244  11.578   9.237
 2120POPC   C1A30363  32.288  11.073   8.844
 2120POPC   D2A30364  32.241  10.904   8.444
 2120POPC   C3A30365  32.466  11.165   8.136
 2120POPC   C4A30366  32.345  11.032   7.734
 2120POPC   C1B30367  32.052  11.565   8.831
 2120POPC   C2B30368  32.065  11.385   8.433
 2120POPC   C3B30369  31.962  11.170   8.056
 2120POPC   C4B30370  32.133  11.493   7.793
 2121POPC   NC330371  35.714  11.784   9.492
 2121POPC   PO430372  35.370  12.333   9.440
 2121POPC   GL130373  35.378  12.008   9.190
 2121POPC   GL230374  35.706  12.096   9.092
 2121POPC   C1A30375  35.409  11.696   8.866
 2121POPC   D2A30376  35.408  11.828   8.442
 2121POPC   C3A30377  35.426  11.698   8.038
 2121POPC   C4A30378  35.315  11.796   7.615
 2121POPC   C1B30379  35.506  12.238   8.745
 2121POPC   C2B30380  35.616  12.310   8.344
 2121POPC   C3B30381  35.338  12.209   8.035
 2121POPC   C4B30382  35.415  12.284   7.626
 2122POPC   NC330383   7.876  36.839   9.469
 2122POPC   PO430384   8.532  36.962   9.504
 2122POPC   GL130385   8.228  37.082   9.165
 2122POPC   GL230386   7.870  36.972   9.008
 2122POPC   C1A30387   8.222  37.192   8.715
 2122POPC   D2A30388   8.237  37.312   8.265
 2122POPC   C3A30389   8.221  36.972   7.936
 2122POPC   C4A30390   8.318  36.807   7.522
 2122POPC   C1B30391   7.670  37.204   8.717
 2122POPC   C2B30392   7.711  37.144   8.301
 2122POPC   C3B30393   7.833  37.285   7.931
 2122POPC   C4B30394   7.974  37.187   7.521
 2123POPC   NC330395  44.195  22.275   9.426
 2123POPC   PO430396  43.564  22.077   9.531
 2123POPC   GL130397  43.750  22.155   9.155
 2123POPC   GL230398  43.806  22.490   9.151
 2123POPC   C1A30399  43.691  22.215   8.726
 2123POPC   D2A30400  43.886  22.100   8.385
 2123POPC   C3A30401  43.714  22.232   8.049
 2123POPC   C4A30402  43.853  22.222   7.631
 2123POPC   C1B30403  44.117  22.517   8.817
 2123POPC   C2B30404  44.253  22.444   8.408
 2123POPC   C3B30405  44.163  22.467   7.969
 2123POPC   C4B30406  44.303  22.490   7.524
 2124POPC   NC330407  13.426   0.192   9.654
 2124POPC   PO430408  13.861   0.708   9.487
 2124POPC   GL130409  13.511   0.506   9.235
 2124POPC   GL230410  13.444   0.126   9.156
 2124POPC   C1A30411  13.589   0.470   8.792
 2124POPC   D2A30412  13.817   0.284   8.468
 2124POPC   C3A30413  13.732   0.354   8.032
 2124POPC   C4A30414  13.921   0.428   7.633
 2124POPC   C1B30415  13.451  44.978   8.747
 2124POPC   C2B30416  13.361   0.105   8.320
 2124POPC   C3B30417  13.465  44.915   7.952
 2124POPC   C4B30418  13.630   0.020   7.573
 2125POPC   NC330419   7.924  22.327   9.373
 2125POPC   PO430420   8.424  21.955   9.462
 2125POPC   GL130421   8.331  22.169   9.126
 2125POPC   GL230422   8.387  22.512   9.202
 2125POPC   C1A30423   8.124  22.234   8.755
 2125POPC   D2A30424   8.295  22.196   8.400
 2125POPC   C3A30425   7.975  22.140   8.124
 2125POPC   C4A30426   8.144  22.124   7.730
 2125POPC   C1B30427   8.313  22.698   8.779
 2125POPC   C2B30428   8.522  22.693   8.394
 2125POPC   C3B30429   8.435  22.484   8.023
 2125POPC   C4B30430   8.362  22.583   7.653
 2126POPC   NC330431  44.719  25.535   9.396
 2126POPC   PO430432  44.218  25.129   9.636
 2126POPC   GL130433  44.435  25.189   9.172
 2126POPC   GL230434  44.462  25.496   8.954
 2126POPC   C1A30435  44.617  25.053   8.725
 2126POPC   D2A30436  44.653  25.287   8.296
 2126POPC   C3A30437  44.627  25.213   7.830
 2126POPC   C4A30438  44.343  25.140   7.468
 2126POPC   C1B30439  44.891  25.484   8.752
 2126POPC   C2B30440   0.014  25.637   8.359
 2126POPC   C3B30441  44.896  25.646   7.927
 2126POPC   C4B30442   0.169  25.527   7.601
 2127POPC   NC330443  29.619  12.690   9.512
 2127POPC   PO430444  30.236  12.983   9.452
 2127POPC   GL130445  30.021  12.696   9.194
 2127POPC   GL230446  29.781  12.953   9.108
 2127POPC   C1A30447  29.940  12.541   8.774
 2127POPC   D2A30448  29.854  12.896   8.485
 2127POPC   C3A30449  29.806  12.749   8.052
 2127POPC   C4A30450  29.892  12.626   7.662
 2127POPC   C1B30451  29.601  13.233   8.827
 2127POPC   C2B30452  29.441  13.323   8.429
 2127POPC   C3B30453  29.711  13.232   8.118
 2127POPC   C4B30454  29.906  13.178   7.720
 2128POPC   NC330455   8.405  20.769   9.823
 2128POPC   PO430456   8.215  20.190   9.562
 2128POPC   GL130457   8.397  20.455   9.230
 2128POPC   GL230458   8.457  20.827   9.326
 2128POPC   C1A30459   8.142  20.409   8.842
 2128POPC   D2A30460   7.941  20.430   8.441
 2128POPC   C3A30461   8.239  20.331   8.128
 2128POPC   C4A30462   8.227  20.364   7.688
 2128POPC   C1B30463   8.317  20.890   8.920
 2128POPC   C2B30464   8.278  20.797   8.479
 2128POPC   C3B30465   8.131  20.807   8.048
 2128POPC   C4B30466   8.465  20.794   7.774
 2129POPC   NC330467   4.703   5.160   9.410
 2129POPC   PO430468   5.324   4.864   9.596
 2129POPC   GL130469   5.160   4.983   9.223
 2129POPC   GL230470   4.920   4.748   9.126
 2129POPC   C1A30471   5.212   5.229   8.850
 2129POPC   D2A30472   5.439   5.328   8.472
 2129POPC   C3A30473   5.191   5.365   8.092
 2129POPC   C4A30474   4.938   5.228   7.741
 2129POPC   C1B30475   4.892   4.855   8.664
 2129POPC   C2B30476   4.965   4.916   8.208
 2129POPC   C3B30477   4.948   4.721   7.780
 2129POPC   C4B30478   4.882   4.921   7.332
 2130POPC   NC330479  21.762  44.131   9.425
 2130POPC   PO430480  21.138  43.855   9.684
 2130POPC   GL130481  21.211  43.996   9.206
 2130POPC   GL230482  21.527  43.877   9.062
 2130POPC   C1A30483  21.129  43.903   8.737
 2130POPC   D2A30484  20.957  43.881   8.287
 2130POPC   C3A30485  21.171  43.949   7.883
 2130POPC   C4A30486  21.473  43.679   7.659
 2130POPC   C1B30487  21.658  44.005   8.637
 2130POPC   C2B30488  21.599  44.056   8.183
 2130POPC   C3B30489  21.655  44.154   7.745
 2130POPC   C4B30490  21.728  44.387   7.367
 2131POPC   NC330491  37.565   8.081   9.531
 2131POPC   PO430492  38.110   8.579   9.537
 2131POPC   GL130493  38.132   8.375   9.127
 2131POPC   GL230494  37.782   8.303   9.120
 2131POPC   C1A30495  37.993   8.307   8.682
 2131POPC   D2A30496  37.967   8.042   8.358
 2131POPC   C3A30497  37.713   8.144   8.015
 2131POPC   C4A30498  37.911   8.197   7.629
 2131POPC   C1B30499  37.482   8.289   8.754
 2131POPC   C2B30500  37.264   8.540   8.448
 2131POPC   C3B30501  37.221   8.458   8.015
 2131POPC   C4B30502  37.500   8.504   7.663
 2132POPC   NC330503  17.753  22.016   9.562
 2132POPC   PO430504  17.122  21.757   9.537
 2132POPC   GL130505  17.496  21.763   9.214
 2132POPC   GL230506  17.684  22.096   9.076
 2132POPC   C1A30507  17.586  21.692   8.792
 2132POPC   D2A30508  17.390  21.962   8.471
 2132POPC   C3A30509  17.404  22.047   8.014
 2132POPC   C4A30510  17.543  22.086   7.567
 2132POPC   C1B30511  17.822  22.337   8.710
 2132POPC   C2B30512  17.782  22.358   8.240
 2132POPC   C3B30513  17.838  22.460   7.784
 2132POPC   C4B30514  17.792  22.530   7.315
 2133POPC   NC330515  42.171  38.009   9.555
 2133POPC   PO430516  42.407  37.344   9.464
 2133POPC   GL130517  42.531  37.576   9.127
 2133POPC   GL230518  42.460  37.933   9.119
 2133POPC   C1A30519  42.572  37.538   8.701
 2133POPC   D2A30520  42.286  37.563   8.367
 2133POPC   C3A30521  42.456  37.664   7.980
 2133POPC   C4A30522  42.465  38.016   7.727
 2133POPC   C1B30523  42.100  37.773   8.832
 2133POPC   C2B30524  41.834  37.788   8.435
 2133POPC   C3B30525  41.979  37.880   7.987
 2133POPC   C4B30526  41.971  38.035   7.490
 2134POPC   NC330527  38.959  24.525   9.523
 2134POPC   PO430528  39.553  24.769   9.438
 2134POPC   GL130529  39.426  24.571   9.096
 2134POPC   GL230530  39.259  24.300   9.174
 2134POPC   C1A30531  39.460  24.651   8.710
 2134POPC   D2A30532  39.324  24.450   8.368
 2134POPC   C3A30533  39.422  24.620   7.971
 2134POPC   C4A30534  39.317  24.396   7.627
 2134POPC   C1B30535  38.973  24.359   8.849
 2134POPC   C2B30536  38.863  24.249   8.420
 2134POPC   C3B30537  38.909  24.529   8.035
 2134POPC   C4B30538  38.910  24.674   7.582
 2135POPC   NC330539  33.169  11.799   9.473
 2135POPC   PO430540  33.418  12.423   9.482
 2135POPC   GL130541  33.236  12.218   9.150
 2135POPC   GL230542  32.896  12.173   9.138
 2135POPC   C1A30543  33.214  12.329   8.725
 2135POPC   D2A30544  33.027  12.183   8.356
 2135POPC   C3A30545  33.178  12.407   8.033
 2135POPC   C4A30546  33.430  12.327   7.699
 2135POPC   C1B30547  32.931  11.887   8.768
 2135POPC   C2B30548  33.192  11.707   8.405
 2135POPC   C3B30549  33.228  11.878   7.976
 2135POPC   C4B30550  32.885  11.996   7.694
 2136POPC   NC330551  29.437  40.328   9.583
 2136POPC   PO430552  29.971  39.975   9.697
 2136POPC   GL130553  29.943  40.039   9.234
 2136POPC   GL230554  29.595  40.108   9.136
 2136POPC   C1A30555  30.134  40.118   8.786
 2136POPC   D2A30556  30.329  40.067   8.363
 2136POPC   C3A30557  30.083  40.106   7.970
 2136POPC   C4A30558  29.784  40.320   7.674
 2136POPC   C1B30559  29.639  40.136   8.692
 2136POPC   C2B30560  29.671  39.971   8.273
 2136POPC   C3B30561  29.585  39.886   7.845
 2136POPC   C4B30562  29.657  39.879   7.402
 2137POPC   NC330563  39.726  22.591   9.318
 2137POPC   PO430564  39.311  23.222   9.414
 2137POPC   GL130565  39.308  22.861   9.197
 2137POPC   GL230566  39.019  22.653   9.190
 2137POPC   C1A30567  39.342  22.693   8.796
 2137POPC   D2A30568  39.568  22.667   8.450
 2137POPC   C3A30569  39.361  22.722   8.066
 2137POPC   C4A30570  39.210  22.959   7.742
 2137POPC   C1B30571  38.966  23.034   8.850
 2137POPC   C2B30572  38.846  23.225   8.435
 2137POPC   C3B30573  38.798  23.091   8.025
 2137POPC   C4B30574  38.758  22.768   7.698
 2138POPC   NC330575   1.837  24.144   9.401
 2138POPC   PO430576   2.134  24.738   9.520
 2138POPC   GL130577   1.919  24.612   9.154
 2138POPC   GL230578   1.566  24.604   9.233
 2138POPC   C1A30579   1.947  24.334   8.779
 2138POPC   D2A30580   2.200  24.254   8.409
 2138POPC   C3A30581   2.085  24.329   8.008
 2138POPC   C4A30582   2.271  24.657   7.777
 2138POPC   C1B30583   1.569  24.726   8.800
 2138POPC   C2B30584   1.815  24.661   8.401
 2138POPC   C3B30585   1.797  24.735   7.953
 2138POPC   C4B30586   1.642  24.793   7.551
 2139POPC   NC330587  32.129  24.674   9.710
 2139POPC   PO430588  31.422  24.650   9.711
 2139POPC   GL130589  31.449  24.567   9.205
 2139POPC   GL230590  31.271  24.246   9.039
 2139POPC   C1A30591  31.680  24.407   8.825
 2139POPC   D2A30592  31.634  24.627   8.440
 2139POPC   C3A30593  31.527  24.397   8.077
 2139POPC   C4A30594  31.619  24.574   7.679
 2139POPC   C1B30595  31.208  24.599   8.741
 2139POPC   C2B30596  31.003  24.544   8.349
 2139POPC   C3B30597  30.999  24.320   7.957
 2139POPC   C4B30598  31.153  24.409   7.570
 2140POPC   NC330599  28.491  39.316   9.665
 2140POPC   PO430600  28.220  38.698   9.573
 2140POPC   GL130601  28.380  39.018   9.262
 2140POPC   GL230602  28.231  39.399   9.236
 2140POPC   C1A30603  28.431  39.105   8.827
 2140POPC   D2A30604  28.301  38.893   8.448
 2140POPC   C3A30605  28.412  38.875   7.986
 2140POPC   C4A30606  28.363  39.028   7.525
 2140POPC   C1B30607  28.243  39.597   8.815
 2140POPC   C2B30608  28.302  39.420   8.415
 2140POPC   C3B30609  28.527  39.367   8.036
 2140POPC   C4B30610  28.606  39.480   7.600
 2141POPC   NC330611  42.722  20.131   9.639
 2141POPC   PO430612  42.066  20.066   9.524
 2141POPC   GL130613  42.362  19.972   9.247
 2141POPC   GL230614  42.382  19.628   9.278
 2141POPC   C1A30615  42.374  20.006   8.804
 2141POPC   D2A30616  42.683  19.946   8.481
 2141POPC   C3A30617  42.495  19.912   8.074
 2141POPC   C4A30618  42.488  19.588   7.751
 2141POPC   C1B30619  42.212  19.510   8.862
 2141POPC   C2B30620  42.317  19.382   8.447
 2141POPC   C3B30621  42.139  19.533   8.098
 2141POPC   C4B30622  42.005  19.734   7.689
 2142POPC   NC330623   3.294  39.343   9.586
 2142POPC   PO430624   3.800  38.910   9.555
 2142POPC   GL130625   3.628  39.183   9.196
 2142POPC   GL230626   3.305  39.370   9.077
 2142POPC   C1A30627   3.635  39.164   8.747
 2142POPC   D2A30628   3.298  39.280   8.466
 2142POPC   C3A30629   3.442  39.352   8.060
 2142POPC   C4A30630   3.185  39.433   7.728
 2142POPC   C1B30631   3.162  38.973   8.882
 2142POPC   C2B30632   3.037  38.839   8.458
 2142POPC   C3B30633   3.151  38.919   8.028
 2142POPC   C4B30634   3.061  38.922   7.582
 2143POPC   NC330635   2.016  14.044   9.708
 2143POPC   PO430636   1.742  14.527   9.275
 2143POPC   GL130637   2.103  14.470   9.063
 2143POPC   GL230638   2.162  14.127   9.178
 2143POPC   C1A30639   2.070  14.597   8.624
 2143POPC   D2A30640   1.893  14.781   8.266
 2143POPC   C3A30641   2.156  14.741   7.898
 2143POPC   C4A30642   2.032  14.681   7.432
 2143POPC   C1B30643   1.944  14.110   8.742
 2143POPC   C2B30644   1.733  14.268   8.373
 2143POPC   C3B30645   1.774  14.372   7.942
 2143POPC   C4B30646   2.110  14.250   7.691
 2144POPC   NC330647  38.386   1.200   9.451
 2144POPC   PO430648  38.586   1.680   9.124
 2144POPC   GL130649  38.575   1.236   8.978
 2144POPC   GL230650  38.694   0.912   9.155
 2144POPC   C1A30651  38.883   1.135   8.687
 2144POPC   D2A30652  38.983   1.434   8.370
 2144POPC   C3A30653  38.620   1.446   8.113
 2144POPC   C4A30654  38.576   1.100   7.832
 2144POPC   C1B30655  38.536   0.778   8.752
 2144POPC   C2B30656  38.444   0.969   8.355
 2144POPC   C3B30657  38.143   0.891   8.033
 2144POPC   C4B30658  38.109   0.668   7.679
 2145POPC   NC330659  44.478  29.375   9.371
 2145POPC   PO430660  44.825  28.821   9.474
 2145POPC   GL130661  44.869  29.062   9.151
 2145POPC   GL230662  44.516  29.025   9.007
 2145POPC   C1A30663  44.930  29.123   8.739
 2145POPC   D2A30664  44.648  29.088   8.418
 2145POPC   C3A30665  44.774  29.396   8.136
 2145POPC   C4A30666   0.076  29.328   7.804
 2145POPC   C1B30667  44.483  29.443   8.737
 2145POPC   C2B30668  44.275  29.500   8.329
 2145POPC   C3B30669  44.368  29.601   7.908
 2145POPC   C4B30670  44.580  29.283   7.669
 2146POPC   NC330671  42.072   6.755   9.595
 2146POPC   PO430672  42.730   6.789   9.545
 2146POPC   GL130673  42.441   6.790   9.192
 2146POPC   GL230674  42.258   6.455   9.188
 2146POPC   C1A30675  42.506   6.623   8.759
 2146POPC   D2A30676  42.327   6.400   8.416
 2146POPC   C3A30677  42.592   6.452   8.109
 2146POPC   C4A30678  42.575   6.607   7.758
 2146POPC   C1B30679  42.028   6.659   8.834
 2146POPC   C2B30680  42.017   6.812   8.430
 2146POPC   C3B30681  42.138   6.699   8.004
 2146POPC   C4B30682  41.957   6.346   7.775
 2147POPC   NC330683  43.087  13.026   9.378
 2147POPC   PO430684  42.730  12.449   9.479
 2147POPC   GL130685  42.965  12.622   9.093
 2147POPC   GL230686  43.312  12.589   9.123
 2147POPC   C1A30687  43.127  12.821   8.675
 2147POPC   D2A30688  43.317  13.058   8.305
 2147POPC   C3A30689  43.216  13.007   7.842
 2147POPC   C4A30690  42.979  13.052   7.472
 2147POPC   C1B30691  43.292  12.341   8.778
 2147POPC   C2B30692  43.451  12.396   8.386
 2147POPC   C3B30693  43.313  12.554   8.047
 2147POPC   C4B30694  43.007  12.546   7.767
 2148POPC   NC330695  44.155   6.805   9.600
 2148POPC   PO430696  44.811   6.813   9.885
 2148POPC   GL130697  44.820   6.723   9.351
 2148POPC   GL230698  44.539   6.916   9.138
 2148POPC   C1A30699  44.819   6.545   8.883
 2148POPC   D2A30700  44.702   6.589   8.432
 2148POPC   C3A30701  44.827   6.701   8.003
 2148POPC   C4A30702  44.656   6.840   7.651
 2148POPC   C1B30703  44.284   6.772   8.742
 2148POPC   C2B30704  44.211   6.449   8.397
 2148POPC   C3B30705  44.340   6.488   7.962
 2148POPC   C4B30706  44.275   6.506   7.485
 2149POPC   NC330707  24.654   8.592   9.529
 2149POPC   PO430708  24.437   9.298   9.550
 2149POPC   GL130709  24.589   9.057   9.212
 2149POPC   GL230710  24.322   8.848   9.108
 2149POPC   C1A30711  24.531   9.163   8.762
 2149POPC   D2A30712  24.740   9.302   8.394
 2149POPC   C3A30713  24.513   9.179   8.057
 2149POPC   C4A30714  24.416   8.884   7.753
 2149POPC   C1B30715  24.180   8.778   8.644
 2149POPC   C2B30716  24.188   8.673   8.164
 2149POPC   C3B30717  24.025   8.539   7.742
 2149POPC   C4B30718  24.301   8.530   7.368
 2150POPC   NC330719  27.527  11.616   9.758
 2150POPC   PO430720  27.742  11.048   9.617
 2150POPC   GL130721  27.467  11.215   9.269
 2150POPC   GL230722  27.710  11.466   9.294
 2150POPC   C1A30723  27.286  11.312   8.819
 2150POPC   D2A30724  27.215  11.048   8.412
 2150POPC   C3A30725  27.312  11.252   8.017
 2150POPC   C4A30726  27.200  11.660   7.835
 2150POPC   C1B30727  27.798  11.400   8.866
 2150POPC   C2B30728  27.705  11.190   8.488
 2150POPC   C3B30729  27.814  11.023   8.093
 2150POPC   C4B30730  27.832  11.175   7.690
 2151POPC   NC330731   1.460   9.197   9.581
 2151POPC   PO430732   0.776   9.030   9.458
 2151POPC   GL130733   0.910   8.868   9.107
 2151POPC   GL230734   1.219   9.042   9.075
 2151POPC   C1A30735   1.015   8.691   8.751
 2151POPC   D2A30736   1.342   8.845   8.546
 2151POPC   C3A30737   1.316   8.837   8.111
 2151POPC   C4A30738   1.017   8.768   7.781
 2151POPC   C1B30739   0.977   9.241   8.752
 2151POPC   C2B30740   0.822   9.373   8.363
 2151POPC   C3B30741   0.997   9.252   7.952
 2151POPC   C4B30742   1.437   9.175   7.752
 2152POPC   NC330743  11.413  19.737   9.474
 2152POPC   PO430744  10.983  20.281   9.386
 2152POPC   GL130745  11.139  19.963   9.089
 2152POPC   GL230746  11.492  19.898   9.018
 2152POPC   C1A30747  11.163  19.650   8.752
 2152POPC   D2A30748  11.265  19.797   8.310
 2152POPC   C3A30749  11.301  19.543   7.939
 2152POPC   C4A30750  11.639  19.644   7.663
 2152POPC   C1B30751  11.442  20.115   8.675
 2152POPC   C2B30752  11.727  20.108   8.357
 2152POPC   C3B30753  11.606  20.033   7.979
 2152POPC   C4B30754  11.213  20.047   7.832
 2153POPC   NC330755  33.630  42.332   9.675
 2153POPC   PO430756  34.247  42.207   9.408
 2153POPC   GL130757  33.975  42.455   9.131
 2153POPC   GL230758  33.606  42.476   9.190
 2153POPC   C1A30759  34.019  42.600   8.689
 2153POPC   D2A30760  33.709  42.578   8.347
 2153POPC   C3A30761  33.943  42.488   8.007
 2153POPC   C4A30762  33.982  42.123   7.800
 2153POPC   C1B30763  33.580  42.318   8.767
 2153POPC   C2B30764  33.666  42.032   8.397
 2153POPC   C3B30765  33.488  42.024   7.973
 2153POPC   C4B30766  33.488  42.435   7.811
 2154POPC   NC330767  13.669  17.884   9.594
 2154POPC   PO430768  13.897  18.577   9.501
 2154POPC   GL130769  13.721  18.275   9.247
 2154POPC   GL230770  14.025  18.253   9.079
 2154POPC   C1A30771  13.573  18.160   8.846
 2154POPC   D2A30772  13.338  18.191   8.460
 2154POPC   C3A30773  13.553  18.228   8.064
 2154POPC   C4A30774  13.625  18.397   7.652
 2154POPC   C1B30775  14.122  18.096   8.692
 2154POPC   C2B30776  13.984  18.022   8.261
 2154POPC   C3B30777  14.034  18.133   7.870
 2154POPC   C4B30778  13.941  18.048   7.451
 2155POPC   NC330779  23.399   4.643   9.404
 2155POPC   PO430780  23.592   3.989   9.397
 2155POPC   GL130781  23.806   4.258   9.082
 2155POPC   GL230782  23.988   4.562   9.250
 2155POPC   C1A30783  23.538   4.333   8.689
 2155POPC   D2A30784  23.288   4.021   8.381
 2155POPC   C3A30785  23.357   4.126   7.932
 2155POPC   C4A30786  23.688   4.228   7.616
 2155POPC   C1B30787  23.946   4.715   8.820
 2155POPC   C2B30788  23.995   4.467   8.438
 2155POPC   C3B30789  23.822   4.535   8.017
 2155POPC   C4B30790  24.048   4.597   7.619
 2156POPC   NC330791  30.065  40.929   9.246
 2156POPC   PO430792  29.428  40.755   9.386
 2156POPC   GL130793  29.628  40.716   9.011
 2156POPC   GL230794  29.916  40.502   9.018
 2156POPC   C1A30795  29.684  40.650   8.590
 2156POPC   D2A30796  29.832  40.483   8.226
 2156POPC   C3A30797  29.662  40.749   7.914
 2156POPC   C4A30798  29.659  40.806   7.479
 2156POPC   C1B30799  30.199  40.652   8.663
 2156POPC   C2B30800  30.204  41.055   8.416
 2156POPC   C3B30801  30.155  41.001   7.981
 2156POPC   C4B30802  30.223  40.599   7.779
 2157POPC   NC330803   0.704  18.166   9.418
 2157POPC   PO430804   0.048  18.240   9.482
 2157POPC   GL130805   0.279  18.239   9.136
 2157POPC   GL230806   0.484  18.563   9.184
 2157POPC   C1A30807   0.417  18.086   8.755
 2157POPC   D2A30808   0.563  17.934   8.377
 2157POPC   C3A30809   0.278  17.926   8.071
 2157POPC   C4A30810   0.332  18.078   7.701
 2157POPC   C1B30811   0.422  18.598   8.748
 2157POPC   C2B30812   0.358  18.412   8.345
 2157POPC   C3B30813   0.567  18.421   7.966
 2157POPC   C4B30814   0.987  18.604   7.854
 2158POPC   NC330815   0.917  20.859   9.369
 2158POPC   PO430816   1.464  20.337   9.479
 2158POPC   GL130817   1.333  20.554   9.137
 2158POPC   GL230818   1.013  20.389   9.120
 2158POPC   C1A30819   1.455  20.735   8.729
 2158POPC   D2A30820   1.199  20.826   8.377
 2158POPC   C3A30821   1.384  20.911   7.959
 2158POPC   C4A30822   1.208  20.739   7.562
 2158POPC   C1B30823   1.115  20.362   8.716
 2158POPC   C2B30824   1.286  20.298   8.353
 2158POPC   C3B30825   1.083  20.473   8.007
 2158POPC   C4B30826   1.067  20.257   7.649
 2159POPC   NC330827   5.251  34.047   9.421
 2159POPC   PO430828   5.271  33.376   9.476
 2159POPC   GL130829   5.077  33.611   9.174
 2159POPC   GL230830   4.753  33.849   9.234
 2159POPC   C1A30831   5.275  33.546   8.778
 2159POPC   D2A30832   5.529  33.633   8.426
 2159POPC   C3A30833   5.297  33.549   8.079
 2159POPC   C4A30834   5.160  33.732   7.741
 2159POPC   C1B30835   4.808  33.758   8.780
 2159POPC   C2B30836   5.019  33.856   8.412
 2159POPC   C3B30837   4.714  33.906   8.121
 2159POPC   C4B30838   4.668  33.901   7.710
 2160POPC   NC330839   4.053  39.321   9.456
 2160POPC   PO430840   4.428  38.807   9.717
 2160POPC   GL130841   4.328  38.874   9.242
 2160POPC   GL230842   4.411  39.215   9.048
 2160POPC   C1A30843   4.272  38.804   8.771
 2160POPC   D2A30844   4.426  39.066   8.387
 2160POPC   C3A30845   4.332  38.974   7.927
 2160POPC   C4A30846   4.404  39.148   7.510
 2160POPC   C1B30847   4.543  39.550   8.708
 2160POPC   C2B30848   4.379  39.796   8.354
 2160POPC   C3B30849   4.277  39.496   8.050
 2160POPC   C4B30850   4.675  39.414   7.878
 2161POPC   NC330851  34.853   4.004   9.535
 2161POPC   PO430852  34.632   4.710   9.592
 2161POPC   GL130853  34.467   4.656   9.213
 2161POPC   GL230854  34.458   4.282   9.230
 2161POPC   C1A30855  34.390   4.578   8.775
 2161POPC   D2A30856  34.723   4.540   8.459
 2161POPC   C3A30857  34.676   4.240   8.116
 2161POPC   C4A30858  34.678   4.083   7.672
 2161POPC   C1B30859  34.330   4.022   8.868
 2161POPC   C2B30860  34.390   3.856   8.426
 2161POPC   C3B30861  34.267   3.953   7.992
 2161POPC   C4B30862  34.261   3.748   7.586
 2162POPC   NC330863  32.038  10.727   9.606
 2162POPC   PO430864  32.074  10.109   9.680
 2162POPC   GL130865  32.176  10.361   9.275
 2162POPC   GL230866  32.346  10.711   9.204
 2162POPC   C1A30867  32.054  10.381   8.824
 2162POPC   D2A30868  31.954  10.133   8.439
 2162POPC   C3A30869  32.142  10.150   8.016
 2162POPC   C4A30870  32.103  10.410   7.630
 2162POPC   C1B30871  32.551  10.490   8.867
 2162POPC   C2B30872  32.420  10.382   8.434
 2162POPC   C3B30873  32.384  10.608   8.043
 2162POPC   C4B30874  32.598  10.590   7.657
 2163POPC   NC330875   9.909   9.104   9.637
 2163POPC   PO430876  10.616   8.929   9.598
 2163POPC   GL130877  10.748   8.825   9.187
 2163POPC   GL230878  10.885   9.151   9.180
 2163POPC   C1A30879  10.655   8.688   8.763
 2163POPC   D2A30880  10.733   8.516   8.351
 2163POPC   C3A30881  10.516   8.764   8.027
 2163POPC   C4A30882  10.168   9.089   8.002
 2163POPC   C1B30883  10.500   9.203   8.919
 2163POPC   C2B30884  10.401   9.113   8.473
 2163POPC   C3B30885  10.655   9.259   8.109
 2163POPC   C4B30886  11.006   9.228   7.825
 2164POPC   NC330887  28.739  28.535   9.628
 2164POPC   PO430888  29.407  28.277   9.557
 2164POPC   GL130889  29.199  28.381   9.220
 2164POPC   GL230890  28.839  28.301   9.167
 2164POPC   C1A30891  29.287  28.522   8.819
 2164POPC   D2A30892  29.125  28.418   8.412
 2164POPC   C3A30893  29.310  28.463   8.024
 2164POPC   C4A30894  29.252  28.718   7.643
 2164POPC   C1B30895  29.027  28.083   8.817
 2164POPC   C2B30896  29.023  27.904   8.405
 2164POPC   C3B30897  29.029  28.015   7.976
 2164POPC   C4B30898  28.905  28.339   7.728
 2165POPC   NC330899  37.221   5.343   9.674
 2165POPC   PO430900  36.807   4.861   9.555
 2165POPC   GL130901  37.093   5.018   9.211
 2165POPC   GL230902  37.235   5.350   9.163
 2165POPC   C1A30903  36.922   5.120   8.787
 2165POPC   D2A30904  36.641   4.987   8.427
 2165POPC   C3A30905  36.708   5.144   7.969
 2165POPC   C4A30906  36.946   5.007   7.579
 2165POPC   C1B30907  37.173   5.577   8.726
 2165POPC   C2B30908  37.028   5.367   8.324
 2165POPC   C3B30909  37.080   5.465   7.872
 2165POPC   C4B30910  37.346   5.365   7.522
 2166POPC   NC330911  30.396  18.519   9.504
 2166POPC   PO430912  30.531  17.894   9.423
 2166POPC   GL130913  30.637  18.232   9.131
 2166POPC   GL230914  30.670  18.603   9.077
 2166POPC   C1A30915  30.720  18.206   8.721
 2166POPC   D2A30916  30.439  18.107   8.392
 2166POPC   C3A30917  30.629  18.165   8.000
 2166POPC   C4A30918  30.997  18.154   7.735
 2166POPC   C1B30919  30.429  18.638   8.699
 2166POPC   C2B30920  30.532  18.630   8.265
 2166POPC   C3B30921  30.469  18.599   7.803
 2166POPC   C4B30922  30.694  18.716   7.472
 2167POPC   NC330923  35.645   3.696   9.478
 2167POPC   PO430924  35.036   3.468   9.606
 2167POPC   GL130925  35.201   3.514   9.182
 2167POPC   GL230926  35.540   3.330   9.120
 2167POPC   C1A30927  35.186   3.429   8.738
 2167POPC   D2A30928  35.365   3.421   8.330
 2167POPC   C3A30929  35.186   3.752   8.097
 2167POPC   C4A30930  35.116   3.798   7.686
 2167POPC   C1B30931  35.702   3.491   8.729
 2167POPC   C2B30932  35.907   3.530   8.314
 2167POPC   C3B30933  35.667   3.607   7.932
 2167POPC   C4B30934  35.343   3.344   7.803
 2168POPC   NC330935  34.386   8.722   9.523
 2168POPC   PO430936  34.785   9.218   9.484
 2168POPC   GL130937  34.678   9.037   9.116
 2168POPC   GL230938  34.355   9.043   9.132
 2168POPC   C1A30939  34.562   9.205   8.716
 2168POPC   D2A30940  34.619   9.180   8.351
 2168POPC   C3A30941  34.403   9.222   8.021
 2168POPC   C4A30942  34.522   9.104   7.631
 2168POPC   C1B30943  34.302   8.770   8.783
 2168POPC   C2B30944  34.244   8.808   8.342
 2168POPC   C3B30945  34.423   8.707   7.944
 2168POPC   C4B30946  34.365   8.581   7.511
 2169POPC   NC330947  13.900  39.297   9.550
 2169POPC   PO430948  13.287  39.144   9.428
 2169POPC   GL130949  13.650  39.185   9.110
 2169POPC   GL230950  13.796  39.547   9.123
 2169POPC   C1A30951  13.811  39.354   8.661
 2169POPC   D2A30952  13.674  39.514   8.229
 2169POPC   C3A30953  13.709  39.199   7.908
 2169POPC   C4A30954  13.791  39.158   7.439
 2169POPC   C1B30955  13.371  39.544   8.887
 2169POPC   C2B30956  13.212  39.569   8.458
 2169POPC   C3B30957  13.212  39.348   8.073
 2169POPC   C4B30958  13.222  39.286   7.649
 2170POPC   NC330959  33.913  14.741   9.469
 2170POPC   PO430960  34.066  15.350   9.787
 2170POPC   GL130961  33.723  15.219   9.395
 2170POPC   GL230962  33.545  15.469   9.147
 2170POPC   C1A30963  33.727  15.059   8.918
 2170POPC   D2A30964  33.590  15.077   8.465
 2170POPC   C3A30965  33.741  14.843   8.097
 2170POPC   C4A30966  34.106  14.890   7.814
 2170POPC   C1B30967  33.812  15.528   8.726
 2170POPC   C2B30968  33.995  15.443   8.337
 2170POPC   C3B30969  33.866  15.321   7.943
 2170POPC   C4B30970  33.593  15.111   7.651
 2171POPC   NC330971  25.656   0.098   9.375
 2171POPC   PO430972  25.577  44.431   9.529
 2171POPC   GL130973  25.379  44.613   9.131
 2171POPC   GL230974  25.577  44.856   8.911
 2171POPC   C1A30975  25.088  44.798   8.795
 2171POPC   D2A30976  25.011  44.827   8.351
 2171POPC   C3A30977  25.321  44.678   8.039
 2171POPC   C4A30978  25.447  44.825   7.599
 2171POPC   C1B30979  25.462  44.477   8.632
 2171POPC   C2B30980  25.697  44.368   8.257
 2171POPC   C3B30981  25.705  44.392   7.825
 2171POPC   C4B30982  25.558  44.382   7.384
 2172POPC   NC330983   1.443   6.209   9.494
 2172POPC   PO430984   2.036   5.760   9.483
 2172POPC   GL130985   2.108   5.901   9.097
 2172POPC   GL230986   1.745   5.792   9.053
 2172POPC   C1A30987   2.112   6.026   8.674
 2172POPC   D2A30988   1.814   5.855   8.404
 2172POPC   C3A30989   1.912   5.913   7.981
 2172POPC   C4A30990   1.759   5.637   7.694
 2172POPC   C1B30991   1.713   6.219   8.910
 2172POPC   C2B30992   1.672   6.327   8.497
 2172POPC   C3B30993   1.638   6.358   8.064
 2172POPC   C4B30994   1.542   6.227   7.657
 2173POPC   NC330995   2.173   9.395   9.358
 2173POPC   PO430996   2.340  10.043   9.338
 2173POPC   GL130997   2.120   9.830   9.071
 2173POPC   GL230998   1.790   9.768   9.208
 2173POPC   C1A30999   2.209   9.937   8.662
 2173POPC   D2A31000   2.280  10.064   8.256
 2173POPC   C3A31001   2.022   9.930   7.912
 2173POPC   C4A31002   2.153   9.836   7.460
 2173POPC   C1B31003   1.697   9.919   8.793
 2173POPC   C2B31004   1.760   9.833   8.368
 2173POPC   C3B31005   1.749   9.508   8.078
 2173POPC   C4B31006   1.763   9.556   7.623
 2174POPC   NC331007  39.076  15.023   9.564
 2174POPC   PO431008  39.304  15.636   9.533
 2174POPC   GL131009  39.286  15.551   9.102
 2174POPC   GL231010  39.284  15.223   9.141
 2174POPC   C1A31011  39.121  15.390   8.680
 2174POPC   D2A31012  39.170  15.221   8.231
 2174POPC   C3A31013  38.902  15.400   7.862
 2174POPC   C4A31014  38.815  15.313   7.408
 2174POPC   C1B31015  39.358  14.963   8.782
 2174POPC   C2B31016  39.072  14.770   8.503
 2174POPC   C3B31017  39.021  14.750   8.072
 2174POPC   C4B31018  38.813  14.890   7.702
 2175POPC   NC331019  37.812   0.885   9.613
 2175POPC   PO431020  38.006   1.513   9.499
 2175POPC   GL131021  37.859   1.200   9.186
 2175POPC   GL231022  38.112   0.989   9.011
 2175POPC   C1A31023  37.591   1.198   8.796
 2175POPC   D2A31024  37.438   0.934   8.433
 2175POPC   C3A31025  37.656   1.068   8.067
 2175POPC   C4A31026  37.780   1.110   7.647
 2175POPC   C1B31027  38.103   1.330   8.735
 2175POPC   C2B31028  38.048   1.326   8.303
 2175POPC   C3B31029  38.146   1.387   7.879
 2175POPC   C4B31030  38.247   1.189   7.456
 2176POPC   NC331031  40.591  37.708   9.683
 2176POPC   PO431032  41.100  37.964   9.431
 2176POPC   GL131033  40.899  37.640   9.121
 2176POPC   GL231034  40.532  37.594   9.182
 2176POPC   C1A31035  41.033  37.552   8.666
 2176POPC   D2A31036  41.003  37.447   8.216
 2176POPC   C3A31037  40.700  37.730   7.939
 2176POPC   C4A31038  40.578  38.122   7.690
 2176POPC   C1B31039  40.506  37.456   8.758
 2176POPC   C2B31040  40.492  37.390   8.313
 2176POPC   C3B31041  40.278  37.445   7.905
 2176POPC   C4B31042  40.223  37.764   7.572
 2177POPC   NC331043  42.425   2.532   9.516
 2177POPC   PO431044  41.954   3.063   9.435
 2177POPC   GL131045  42.202   2.839   9.164
 2177POPC   GL231046  41.974   2.810   8.897
 2177POPC   C1A31047  42.470   2.861   8.774
 2177POPC   D2A31048  42.403   2.761   8.308
 2177POPC   C3A31049  42.488   3.038   7.932
 2177POPC   C4A31050  42.240   2.986   7.534
 2177POPC   C1B31051  41.717   2.496   8.694
 2177POPC   C2B31052  41.692   2.363   8.324
 2177POPC   C3B31053  42.065   2.370   8.146
 2177POPC   C4B31054  42.239   2.532   7.783
 2178POPC   NC331055  25.854  40.245   9.199
 2178POPC   PO431056  25.963  40.815   9.468
 2178POPC   GL131057  26.224  40.927   9.151
 2178POPC   GL231058  26.020  41.134   9.011
 2178POPC   C1A31059  26.261  40.669   8.787
 2178POPC   D2A31060  26.368  40.743   8.373
 2178POPC   C3A31061  26.172  40.610   8.014
 2178POPC   C4A31062  26.118  40.783   7.663
 2178POPC   C1B31063  26.039  41.097   8.571
 2178POPC   C2B31064  25.845  40.846   8.299
 2178POPC   C3B31065  25.679  40.877   7.868
 2178POPC   C4B31066  25.807  41.094   7.434
 2179POPC   NC331067  38.927   4.349   9.665
 2179POPC   PO431068  38.288   4.423   9.703
 2179POPC   GL131069  38.461   4.305   9.278
 2179POPC   GL231070  38.797   4.278   9.155
 2179POPC   C1A31071  38.387   4.140   8.855
 2179POPC   D2A31072  38.375   4.370   8.476
 2179POPC   C3A31073  38.127   4.265   8.124
 2179POPC   C4A31074  38.282   4.171   7.776
 2179POPC   C1B31075  38.855   4.374   8.675
 2179POPC   C2B31076  38.923   4.637   8.264
 2179POPC   C3B31077  38.892   4.707   7.787
 2179POPC   C4B31078  38.651   4.493   7.420
 2180POPC   NC331079  37.983  35.467   9.549
 2180POPC   PO431080  37.881  34.807   9.572
 2180POPC   GL131081  37.990  35.086   9.197
 2180POPC   GL231082  37.654  35.189   9.079
 2180POPC   C1A31083  38.043  35.332   8.769
 2180POPC   D2A31084  37.721  35.495   8.411
 2180POPC   C3A31085  37.737  35.443   7.927
 2180POPC   C4A31086  37.810  35.671   7.520
 2180POPC   C1B31087  37.376  35.223   8.689
 2180POPC   C2B31088  37.317  35.187   8.213
 2180POPC   C3B31089  37.318  35.171   7.755
 2180POPC   C4B31090  37.403  34.894   7.398
 2181POPC   NC331091  11.734  27.674   9.553
 2181POPC   PO431092  12.239  27.929   9.429
 2181POPC   GL131093  11.970  27.803   9.115
 2181POPC   GL231094  11.776  28.072   9.147
 2181POPC   C1A31095  11.841  27.493   8.780
 2181POPC   D2A31096  11.695  27.317   8.365
 2181POPC   C3A31097  11.942  27.436   7.979
 2181POPC   C4A31098  12.275  27.683   7.798
 2181POPC   C1B31099  11.735  27.982   8.713
 2181POPC   C2B31100  12.011  27.831   8.359
 2181POPC   C3B31101  11.853  27.955   7.952
 2181POPC   C4B31102  11.724  27.737   7.588
 2182POPC   NC331103  33.397  30.731   9.541
 2182POPC   PO431104  32.804  30.497   9.416
 2182POPC   GL131105  32.878  30.707   9.048
 2182POPC   GL231106  33.219  30.681   9.040
 2182POPC   C1A31107  32.626  30.778   8.668
 2182POPC   D2A31108  32.616  30.627   8.218
 2182POPC   C3A31109  32.885  30.865   7.900
 2182POPC   C4A31110  33.050  31.065   7.537
 2182POPC   C1B31111  33.103  30.613   8.592
 2182POPC   C2B31112  33.122  30.497   8.151
 2182POPC   C3B31113  32.861  30.328   7.808
 2182POPC   C4B31114  33.018  30.165   7.403
 2183POPC   NC331115   6.428  22.064   9.589
 2183POPC   PO431116   6.846  22.436   9.644
 2183POPC   GL131117   6.746  22.232   9.214
 2183POPC   GL231118   6.399  22.140   9.099
 2183POPC   C1A31119   6.773  22.082   8.769
 2183POPC   D2A31120   6.605  21.995   8.350
 2183POPC   C3A31121   6.777  22.135   7.956
 2183POPC   C4A31122   6.556  22.081   7.556
 2183POPC   C1B31123   6.378  22.396   8.704
 2183POPC   C2B31124   6.535  22.498   8.267
 2183POPC   C3B31125   6.391  22.482   7.839
 2183POPC   C4B31126   6.504  22.545   7.371
 2184POPC   NC331127  37.880  17.975   9.552
 2184POPC   PO431128  37.582  18.468   9.230
 2184POPC   GL131129  37.888  18.184   9.095
 2184POPC   GL231130  37.607  17.954   9.102
 2184POPC   C1A31131  38.102  18.286   8.747
 2184POPC   D2A31132  37.845  18.543   8.481
 2184POPC   C3A31133  37.914  18.473   8.067
 2184POPC   C4A31134  37.725  18.670   7.688
 2184POPC   C1B31135  37.589  18.125   8.685
 2184POPC   C2B31136  37.507  18.223   8.283
 2184POPC   C3B31137  37.477  18.281   7.884
 2184POPC   C4B31138  37.290  18.276   7.517
 2185POPC   NC331139   4.011   6.555   9.532
 2185POPC   PO431140   4.635   6.868   9.648
 2185POPC   GL131141   4.480   6.649   9.247
 2185POPC   GL231142   4.238   6.837   9.147
 2185POPC   C1A31143   4.194   6.404   8.911
 2185POPC   D2A31144   4.101   6.234   8.497
 2185POPC   C3A31145   4.314   6.490   8.224
 2185POPC   C4A31146   4.473   6.661   7.851
 2185POPC   C1B31147   4.217   6.957   8.738
 2185POPC   C2B31148   4.346   6.996   8.306
 2185POPC   C3B31149   4.165   7.059   7.904
 2185POPC   C4B31150   4.028   7.151   7.462
 2186POPC   NC331151   0.121   0.136   9.477
 2186POPC   PO431152   0.606   0.589   9.632
 2186POPC   GL131153   0.433   0.467   9.238
 2186POPC   GL231154   0.585   0.123   9.212
 2186POPC   C1A31155   0.252   0.486   8.829
 2186POPC   D2A31156   0.446   0.538   8.430
 2186POPC   C3A31157   0.286   0.312   8.064
 2186POPC   C4A31158   0.426   0.422   7.646
 2186POPC   C1B31159   0.742   0.279   8.814
 2186POPC   C2B31160   0.938   0.311   8.393
 2186POPC   C3B31161   0.801   0.317   7.974
 2186POPC   C4B31162   0.975   0.230   7.566
 2187POPC   NC331163  36.530   5.748   9.439
 2187POPC   PO431164  37.236   5.761   9.474
 2187POPC   GL131165  36.965   5.876   9.149
 2187POPC   GL231166  36.792   5.581   9.052
 2187POPC   C1A31167  36.793   6.023   8.748
 2187POPC   D2A31168  36.808   5.810   8.344
 2187POPC   C3A31169  36.914   5.968   7.954
 2187POPC   C4A31170  36.572   6.109   7.784
 2187POPC   C1B31171  36.556   5.520   8.701
 2187POPC   C2B31172  36.424   5.436   8.300
 2187POPC   C3B31173  36.436   5.633   7.917
 2187POPC   C4B31174  36.663   5.490   7.569
 2188POPC   NC331175  10.202   0.758   9.205
 2188POPC   PO431176  10.532   0.221   9.483
 2188POPC   GL131177  10.386   0.322   9.052
 2188POPC   GL231178  10.564   0.588   8.854
 2188POPC   C1A31179  10.141   0.441   8.660
 2188POPC   D2A31180  10.286   0.765   8.395
 2188POPC   C3A31181  10.158   0.618   8.037
 2188POPC   C4A31182  10.393   0.351   7.795
 2188POPC   C1B31183  10.753   0.427   8.536
 2188POPC   C2B31184  10.739   0.506   8.133
 2188POPC   C3B31185  10.893   0.462   7.737
 2188POPC   C4B31186  10.891   0.766   7.424
 2189POPC   NC331187  36.357  18.409   9.352
 2189POPC   PO431188  35.691  18.079   9.321
 2189POPC   GL131189  36.066  18.126   9.045
 2189POPC   GL231190  36.130  18.474   8.889
 2189POPC   C1A31191  36.288  18.066   8.655
 2189POPC   D2A31192  36.078  18.210   8.277
 2189POPC   C3A31193  36.265  18.440   7.928
 2189POPC   C4A31194  36.266  18.066   7.756
 2189POPC   C1B31195  35.741  18.549   8.685
 2189POPC   C2B31196  35.629  18.440   8.264
 2189POPC   C3B31197  35.770  18.278   7.847
 2189POPC   C4B31198  36.002  18.468   7.476
 2190POPC   NC331199  28.130  40.261   9.417
 2190POPC   PO431200  28.495  39.767   9.590
 2190POPC   GL131201  28.393  39.923   9.176
 2190POPC   GL231202  28.578  40.254   9.155
 2190POPC   C1A31203  28.232  40.131   8.786
 2190POPC   D2A31204  28.274  39.941   8.401
 2190POPC   C3A31205  28.288  40.143   8.016
 2190POPC   C4A31206  28.269  39.884   7.684
 2190POPC   C1B31207  28.685  40.389   8.751
 2190POPC   C2B31208  28.774  40.240   8.330
 2190POPC   C3B31209  28.754  40.342   7.871
 2190POPC   C4B31210  28.428  40.378   7.558
 2191POPC   NC331211   7.828   9.656   9.460
 2191POPC   PO431212   8.286  10.005   9.597
 2191POPC   GL131213   8.235   9.888   9.166
 2191POPC   GL231214   8.323   9.527   9.178
 2191POPC   C1A31215   8.137  10.072   8.746
 2191POPC   D2A31216   7.855  10.133   8.387
 2191POPC   C3A31217   8.022  10.003   7.984
 2191POPC   C4A31218   8.119  10.170   7.562
 2191POPC   C1B31219   8.415   9.615   8.730
 2191POPC   C2B31220   8.383   9.832   8.320
 2191POPC   C3B31221   8.528  10.064   7.926
 2191POPC   C4B31222   8.454   9.748   7.618
 2192POPC   NC331223   0.275   9.133   9.494
 2192POPC   PO431224   0.461   9.807   9.426
 2192POPC   GL131225   0.437   9.754   8.979
 2192POPC   GL231226   0.763   9.677   8.911
 2192POPC   C1A31227   0.481   9.810   8.517
 2192POPC   D2A31228   0.520   9.683   8.114
 2192POPC   C3A31229   0.234   9.798   7.768
 2192POPC   C4A31230   0.302   9.729   7.341
 2192POPC   C1B31231   0.797  10.121   8.788
 2192POPC   C2B31232   0.594  10.313   8.413
 2192POPC   C3B31233   0.523  10.176   7.992
 2192POPC   C4B31234   0.819   9.882   7.764
 2193POPC   NC331235   2.301  21.329   9.536
 2193POPC   PO431236   1.674  21.264   9.735
 2193POPC   GL131237   1.826  21.479   9.293
 2193POPC   GL231238   2.164  21.550   9.113
 2193POPC   C1A31239   1.774  21.564   8.809
 2193POPC   D2A31240   1.982  21.363   8.458
 2193POPC   C3A31241   2.033  21.529   8.075
 2193POPC   C4A31242   1.729  21.393   7.810
 2193POPC   C1B31243   2.260  21.183   8.835
 2193POPC   C2B31244   2.290  20.946   8.397
 2193POPC   C3B31245   2.314  21.105   7.998
 2193POPC   C4B31246   2.141  21.168   7.602
 2194POPC   NC331247   6.298  21.475   9.507
 2194POPC   PO431248   5.661  21.243   9.457
 2194POPC   GL131249   5.974  21.343   9.136
 2194POPC   GL231250   6.062  21.695   9.092
 2194POPC   C1A31251   6.162  21.363   8.724
 2194POPC   D2A31252   6.156  21.115   8.402
 2194POPC   C3A31253   6.076  21.330   8.063
 2194POPC   C4A31254   6.015  21.316   7.650
 2194POPC   C1B31255   6.225  21.871   8.701
 2194POPC   C2B31256   6.090  21.846   8.263
 2194POPC   C3B31257   6.296  21.741   7.877
 2194POPC   C4B31258   6.172  21.772   7.472
 2195POPC   NC331259   3.308   1.509   9.389
 2195POPC   PO431260   3.736   1.164   9.762
 2195POPC   GL131261   3.697   1.121   9.285
 2195POPC   GL231262   3.677   1.403   9.043
 2195POPC   C1A31263   3.468   0.961   8.893
 2195POPC   D2A31264   3.476   0.863   8.440
 2195POPC   C3A31265   3.471   1.052   8.048
 2195POPC   C4A31266   3.729   1.349   7.904
 2195POPC   C1B31267   3.314   1.442   8.741
 2195POPC   C2B31268   3.421   1.483   8.333
 2195POPC   C3B31269   3.250   1.511   7.942
 2195POPC   C4B31270   3.287   1.273   7.565
 2196POPC   NC331271  23.801  43.525   9.608
 2196POPC   PO431272  23.343  42.976   9.529
 2196POPC   GL131273  23.585  43.019   9.154
 2196POPC   GL231274  23.835  43.298   9.168
 2196POPC   C1A31275  23.600  42.989   8.704
 2196POPC   D2A31276  23.799  43.170   8.342
 2196POPC   C3A31277  23.678  43.062   7.907
 2196POPC   C4A31278  23.546  42.674   7.692
 2196POPC   C1B31279  24.070  43.547   8.855
 2196POPC   C2B31280  23.994  43.646   8.419
 2196POPC   C3B31281  24.050  43.454   8.003
 2196POPC   C4B31282  24.039  43.288   7.569
 2197POPC   NC331283  20.157  42.905   9.608
 2197POPC   PO431284  19.692  43.401   9.454
 2197POPC   GL131285  19.863  43.082   9.185
 2197POPC   GL231286  20.068  43.323   9.067
 2197POPC   C1A31287  19.697  42.907   8.813
 2197POPC   D2A31288  19.724  43.083   8.388
 2197POPC   C3A31289  19.900  42.990   8.005
 2197POPC   C4A31290  19.745  42.793   7.620
 2197POPC   C1B31291  19.856  43.485   8.699
 2197POPC   C2B31292  19.622  43.573   8.308
 2197POPC   C3B31293  19.654  43.416   7.893
 2197POPC   C4B31294  19.585  43.347   7.427
 2198POPC   NC331295  44.897  43.024   9.223
 2198POPC   PO431296  44.320  42.819   9.588
 2198POPC   GL131297  44.393  43.005   9.166
 2198POPC   GL231298  44.449  43.354   9.296
 2198POPC   C1A31299  44.508  42.944   8.692
 2198POPC   D2A31300  44.831  43.146   8.411
 2198POPC   C3A31301  44.883  42.958   7.977
 2198POPC   C4A31302   0.010  43.065   7.535
 2198POPC   C1B31303  44.480  43.433   8.864
 2198POPC   C2B31304  44.283  43.443   8.460
 2198POPC   C3B31305  44.425  43.224   8.107
 2198POPC   C4B31306  44.588  43.293   7.695
 2199POPC   NC331307  25.691  15.413   9.470
 2199POPC   PO431308  26.262  15.015   9.466
 2199POPC   GL131309  26.171  14.925   9.063
 2199POPC   GL231310  25.841  15.062   9.107
 2199POPC   C1A31311  26.104  14.922   8.629
 2199POPC   D2A31312  26.261  15.194   8.326
 2199POPC   C3A31313  26.285  14.948   8.004
 2199POPC   C4A31314  26.189  14.995   7.617
 2199POPC   C1B31315  25.625  15.059   8.732
 2199POPC   C2B31316  25.750  15.140   8.315
 2199POPC   C3B31317  25.801  15.122   7.899
 2199POPC   C4B31318  25.696  14.995   7.463
 2200POPC   NC331319   3.380  28.506   9.425
 2200POPC   PO431320   3.975  28.310   9.733
 2200POPC   GL131321   3.865  28.349   9.221
 2200POPC   GL231322   3.525  28.169   9.074
 2200POPC   C1A31323   3.785  28.477   8.773
 2200POPC   D2A31324   3.854  28.600   8.351
 2200POPC   C3A31325   3.728  28.400   7.980
 2200POPC   C4A31326   3.933  28.494   7.637
 2200POPC   C1B31327   3.301  28.322   8.679
 2200POPC   C2B31328   3.345  28.536   8.272
 2200POPC   C3B31329   3.245  28.475   7.770
 2200POPC   C4B31330   3.180  28.219   7.318
 2201POPC   NC331331   4.326  32.298   9.563
 2201POPC   PO431332   4.209  31.735   9.302
 2201POPC   GL131333   4.261  32.087   9.087
 2201POPC   GL231334   4.376  32.454   9.086
 2201POPC   C1A31335   4.216  32.085   8.672
 2201POPC   D2A31336   4.414  32.284   8.344
 2201POPC   C3A31337   4.467  32.031   7.994
 2201POPC   C4A31338   4.759  31.995   7.645
 2201POPC   C1B31339   4.205  32.610   8.717
 2201POPC   C2B31340   3.905  32.424   8.440
 2201POPC   C3B31341   3.996  32.338   7.996
 2201POPC   C4B31342   3.894  32.187   7.585
 2202POPC   NC331343  15.327  10.526   9.496
 2202POPC   PO431344  14.730  10.179   9.420
 2202POPC   GL131345  15.037  10.309   9.114
 2202POPC   GL231346  15.181  10.654   9.014
 2202POPC   C1A31347  14.987  10.263   8.696
 2202POPC   D2A31348  15.031  10.488   8.337
 2202POPC   C3A31349  15.025  10.352   7.914
 2202POPC   C4A31350  15.197  10.653   7.630
 2202POPC   C1B31351  15.462  10.444   8.683
 2202POPC   C2B31352  15.519  10.301   8.226
 2202POPC   C3B31353  15.633  10.443   7.779
 2202POPC   C4B31354  15.535  10.457   7.305
 2203POPC   NC331355  11.171  11.082   9.666
 2203POPC   PO431356  10.558  11.366   9.555
 2203POPC   GL131357  10.612  11.421   9.174
 2203POPC   GL231358  10.954  11.291   9.147
 2203POPC   C1A31359  10.538  11.556   8.773
 2203POPC   D2A31360  10.632  11.378   8.407
 2203POPC   C3A31361  10.279  11.318   8.174
 2203POPC   C4A31362  10.210  11.573   7.830
 2203POPC   C1B31363  10.679  11.064   8.837
 2203POPC   C2B31364  10.536  10.863   8.481
 2203POPC   C3B31365  10.604  10.957   8.065
 2203POPC   C4B31366  10.710  11.368   7.901
 2204POPC   NC331367  27.300  21.584   9.493
 2204POPC   PO431368  27.898  21.220   9.579
 2204POPC   GL131369  28.014  21.349   9.163
 2204POPC   GL231370  27.650  21.326   9.130
 2204POPC   C1A31371  27.911  21.471   8.721
 2204POPC   D2A31372  27.727  21.237   8.396
 2204POPC   C3A31373  27.500  21.449   8.115
 2204POPC   C4A31374  27.683  21.656   7.821
 2204POPC   C1B31375  27.463  21.094   8.803
 2204POPC   C2B31376  27.202  21.150   8.415
 2204POPC   C3B31377  27.252  21.013   7.974
 2204POPC   C4B31378  27.382  21.246   7.632
 2205POPC   NC331379   0.256  23.223   9.763
 2205POPC   PO431380   0.561  23.786   9.512
 2205POPC   GL131381   0.484  23.639   9.108
 2205POPC   GL231382   0.688  23.306   9.149
 2205POPC   C1A31383   0.252  23.621   8.716
 2205POPC   D2A31384  44.927  23.654   8.402
 2205POPC   C3A31385   0.139  23.508   8.030
 2205POPC   C4A31386   0.414  23.785   7.815
 2205POPC   C1B31387   0.806  23.434   8.752
 2205POPC   C2B31388   0.582  23.386   8.392
 2205POPC   C3B31389   0.747  23.458   8.030
 2205POPC   C4B31390   0.882  23.606   7.678
 2206POPC   NC331391   2.440  44.436   9.633
 2206POPC   PO431392   3.058  44.694   9.571
 2206POPC   GL131393   2.757  44.532   9.250
 2206POPC   GL231394   2.807  44.864   9.153
 2206POPC   C1A31395   2.626  44.424   8.816
 2206POPC   D2A31396   2.714  44.610   8.428
 2206POPC   C3A31397   2.683  44.374   8.083
 2206POPC   C4A31398   2.781  44.458   7.669
 2206POPC   C1B31399   3.063   0.102   8.869
 2206POPC   C2B31400   3.032   0.006   8.473
 2206POPC   C3B31401   2.848  44.988   8.101
 2206POPC   C4B31402   3.059  44.924   7.730
 2207POPC   NC331403  40.850   2.253   9.472
 2207POPC   PO431404  40.440   1.695   9.564
 2207POPC   GL131405  40.643   1.853   9.227
 2207POPC   GL231406  40.492   2.171   9.123
 2207POPC   C1A31407  40.864   1.898   8.853
 2207POPC   D2A31408  40.854   2.059   8.448
 2207POPC   C3A31409  40.976   1.771   8.100
 2207POPC   C4A31410  40.860   2.015   7.740
 2207POPC   C1B31411  40.261   1.900   8.898
 2207POPC   C2B31412  40.288   1.838   8.488
 2207POPC   C3B31413  40.486   1.917   8.105
 2207POPC   C4B31414  40.334   1.869   7.693
 2208POPC   NC331415  30.093  44.406   9.522
 2208POPC   PO431416  29.635  44.973   9.554
 2208POPC   GL131417  29.811  44.819   9.172
 2208POPC   GL231418  29.664  44.538   9.215
 2208POPC   C1A31419  29.880  44.679   8.715
 2208POPC   D2A31420  30.112  44.408   8.386
 2208POPC   C3A31421  30.220  44.624   7.979
 2208POPC   C4A31422  30.069  44.764   7.547
 2208POPC   C1B31423  29.485  44.385   8.853
 2208POPC   C2B31424  29.485  44.531   8.432
 2208POPC   C3B31425  29.706  44.536   8.053
 2208POPC   C4B31426  29.560  44.652   7.644
 2209POPC   NC331427  31.243   0.503   9.464
 2209POPC   PO431428  31.859   0.143   9.427
 2209POPC   GL131429  31.664   0.447   9.127
 2209POPC   GL231430  31.322   0.424   8.977
 2209POPC   C1A31431  31.693   0.620   8.701
 2209POPC   D2A31432  31.422   0.557   8.352
 2209POPC   C3A31433  31.464   0.284   8.006
 2209POPC   C4A31434  31.696   0.578   7.769
 2209POPC   C1B31435  31.083   0.699   8.710
 2209POPC   C2B31436  31.062   0.905   8.267
 2209POPC   C3B31437  31.156   0.688   7.876
 2209POPC   C4B31438  31.166   0.912   7.486
 2210POPC   NC331439  44.647  24.833   9.777
 2210POPC   PO431440  44.835  24.212   9.461
 2210POPC   GL131441  44.805  24.511   9.147
 2210POPC   GL231442  44.491  24.674   9.195
 2210POPC   C1A31443  44.847  24.572   8.707
 2210POPC   D2A31444  44.881  24.697   8.291
 2210POPC   C3A31445  44.727  24.449   7.957
 2210POPC   C4A31446  44.538  24.714   7.683
 2210POPC   C1B31447  44.389  24.372   8.834
 2210POPC   C2B31448  44.410  24.481   8.384
 2210POPC   C3B31449  44.214  24.406   7.971
 2210POPC   C4B31450  44.331  24.253   7.542
 2211POPC   NC331451  23.431  22.496   9.565
 2211POPC   PO431452  23.001  21.995   9.412
 2211POPC   GL131453  22.955  22.098   8.975
 2211POPC   GL231454  22.856  22.437   8.996
 2211POPC   C1A31455  22.624  22.142   8.641
 2211POPC   D2A31456  22.486  22.390   8.278
 2211POPC   C3A31457  22.847  22.326   7.994
 2211POPC   C4A31458  23.115  21.984   7.887
 2211POPC   C1B31459  23.309  22.450   8.804
 2211POPC   C2B31460  23.512  22.524   8.365
 2211POPC   C3B31461  23.373  22.441   7.917
 2211POPC   C4B31462  23.123  22.478   7.528
 2212POPC   NC331463  41.743  15.074   9.366
 2212POPC   PO431464  41.171  15.445   9.422
 2212POPC   GL131465  41.394  15.266   9.027
 2212POPC   GL231466  41.432  14.878   8.997
 2212POPC   C1A31467  41.459  15.245   8.581
 2212POPC   D2A31468  41.257  15.189   8.186
 2212POPC   C3A31469  41.456  15.471   7.876
 2212POPC   C4A31470  41.894  15.519   7.768
 2212POPC   C1B31471  41.781  14.883   8.739
 2212POPC   C2B31472  41.951  15.122   8.422
 2212POPC   C3B31473  41.762  15.108   8.054
 2212POPC   C4B31474  41.462  14.842   7.868
 2213POPC   NC331475  44.137   2.606   9.365
 2213POPC   PO431476  43.571   3.159   9.427
 2213POPC   GL131477  43.659   3.111   9.020
 2213POPC   GL231478  43.780   2.794   9.064
 2213POPC   C1A31479  43.818   3.042   8.603
 2213POPC   D2A31480  44.081   2.874   8.293
 2213POPC   C3A31481  43.950   3.138   7.969
 2213POPC   C4A31482  44.165   3.308   7.624
 2213POPC   C1B31483  43.913   2.556   8.706
 2213POPC   C2B31484  43.682   2.533   8.305
 2213POPC   C3B31485  43.823   2.633   7.902
 2213POPC   C4B31486  44.242   2.776   7.770
 2214POPC   NC331487  15.308   8.436   9.688
 2214POPC   PO431488  15.045   7.885   9.682
 2214POPC   GL131489  15.253   8.128   9.271
 2214POPC   GL231490  15.472   8.464   9.201
 2214POPC   C1A31491  15.265   8.166   8.781
 2214POPC   D2A31492  15.000   8.158   8.363
 2214POPC   C3A31493  15.219   8.187   7.938
 2214POPC   C4A31494  15.181   8.122   7.459
 2214POPC   C1B31495  15.388   8.659   8.774
 2214POPC   C2B31496  15.332   8.536   8.312
 2214POPC   C3B31497  15.418   8.679   7.882
 2214POPC   C4B31498  15.430   8.616   7.434
 2215POPC   NC331499  33.824  37.403   9.679
 2215POPC   PO431500  33.622  38.002   9.680
 2215POPC   GL131501  33.584  37.937   9.233
 2215POPC   GL231502  33.600  37.592   9.247
 2215POPC   C1A31503  33.487  37.886   8.799
 2215POPC   D2A31504  33.569  37.614   8.427
 2215POPC   C3A31505  33.556  37.661   7.995
 2215POPC   C4A31506  33.853  37.807   7.719
 2215POPC   C1B31507  33.738  37.399   8.856
 2215POPC   C2B31508  33.878  37.209   8.443
 2215POPC   C3B31509  33.959  37.331   8.014
 2215POPC   C4B31510  33.979  37.312   7.575
 2216POPC   NC331511  40.215   2.090   9.548
 2216POPC   PO431512  39.784   1.889   9.869
 2216POPC   GL131513  39.877   1.834   9.307
 2216POPC   GL231514  39.933   2.208   9.162
 2216POPC   C1A31515  39.740   1.890   8.809
 2216POPC   D2A31516  39.815   1.699   8.377
 2216POPC   C3A31517  39.973   1.970   8.080
 2216POPC   C4A31518  39.767   2.038   7.726
 2216POPC   C1B31519  40.172   2.410   8.790
 2216POPC   C2B31520  40.247   2.348   8.337
 2216POPC   C3B31521  40.312   2.369   7.878
 2216POPC   C4B31522  40.111   2.292   7.461
 2217POPC   NC331523  40.837  18.190   9.393
 2217POPC   PO431524  40.201  18.329   9.480
 2217POPC   GL131525  40.400  18.279   9.088
 2217POPC   GL231526  40.654  18.545   9.001
 2217POPC   C1A31527  40.558  18.174   8.670
 2217POPC   D2A31528  40.656  18.438   8.306
 2217POPC   C3A31529  40.802  18.199   7.962
 2217POPC   C4A31530  40.835  17.790   7.761
 2217POPC   C1B31531  40.993  18.607   8.729
 2217POPC   C2B31532  41.161  18.425   8.389
 2217POPC   C3B31533  41.159  18.549   7.968
 2217POPC   C4B31534  41.115  18.372   7.566
 2218POPC   NC331535   0.621  12.553   9.423
 2218POPC   PO431536   0.126  13.019   9.490
 2218POPC   GL131537   0.369  12.998   9.115
 2218POPC   GL231538   0.319  12.639   9.016
 2218POPC   C1A31539   0.505  13.186   8.724
 2218POPC   D2A31540   0.513  12.942   8.362
 2218POPC   C3A31541   0.610  13.040   7.969
 2218POPC   C4A31542   0.338  12.781   7.753
 2218POPC   C1B31543   0.713  12.704   8.757
 2218POPC   C2B31544   0.964  12.730   8.327
 2218POPC   C3B31545   0.888  12.623   7.866
 2218POPC   C4B31546   0.746  12.747   7.456
 2219POPC   NC331547   1.038  19.096   9.575
 2219POPC   PO431548   1.628  18.914   9.499
 2219POPC   GL131549   1.429  19.085   9.127
 2219POPC   GL231550   1.103  19.221   9.077
 2219POPC   C1A31551   1.312  18.978   8.700
 2219POPC   D2A31552   1.230  18.711   8.368
 2219POPC   C3A31553   1.398  18.902   8.029
 2219POPC   C4A31554   1.223  19.110   7.719
 2219POPC   C1B31555   0.970  19.382   8.678
 2219POPC   C2B31556   1.041  19.227   8.292
 2219POPC   C3B31557   0.867  19.417   7.976
 2219POPC   C4B31558   0.789  19.311   7.576
 2220POPC   NC331559  38.144  23.257   9.434
 2220POPC   PO431560  37.619  22.927   9.542
 2220POPC   GL131561  37.793  22.934   9.182
 2220POPC   GL231562  38.059  22.714   9.228
 2220POPC   C1A31563  37.601  22.789   8.836
 2220POPC   D2A31564  37.401  22.807   8.440
 2220POPC   C3A31565  37.477  22.788   8.025
 2220POPC   C4A31566  37.278  23.122   7.776
 2220POPC   C1B31567  38.125  22.833   8.799
 2220POPC   C2B31568  37.908  22.883   8.434
 2220POPC   C3B31569  37.829  23.155   8.123
 2220POPC   C4B31570  37.899  22.922   7.773
 2221POPC   NC331571   1.861  20.799   9.649
 2221POPC   PO431572   2.540  20.940   9.434
 2221POPC   GL131573   2.130  20.831   9.194
 2221POPC   GL231574   1.969  20.471   9.212
 2221POPC   C1A31575   1.986  20.756   8.745
 2221POPC   D2A31576   1.749  20.918   8.346
 2221POPC   C3A31577   1.900  20.822   7.928
 2221POPC   C4A31578   2.108  20.435   7.853
 2221POPC   C1B31579   1.743  20.332   8.815
 2221POPC   C2B31580   1.805  20.392   8.363
 2221POPC   C3B31581   1.591  20.419   7.957
 2221POPC   C4B31582   1.643  20.378   7.517
 2222POPC   NC331583  26.021  36.633   9.605
 2222POPC   PO431584  25.940  35.966   9.516
 2222POPC   GL131585  26.106  36.014   9.148
 2222POPC   GL231586  26.028  36.344   9.138
 2222POPC   C1A31587  26.205  35.979   8.733
 2222POPC   D2A31588  25.975  36.168   8.411
 2222POPC   C3A31589  25.865  35.970   8.063
 2222POPC   C4A31590  25.561  36.184   7.842
 2222POPC   C1B31591  26.167  36.500   8.748
 2222POPC   C2B31592  26.242  36.631   8.339
 2222POPC   C3B31593  26.165  36.400   7.969
 2222POPC   C4B31594  26.325  36.503   7.573
 2223POPC   NC331595  27.896  33.637   9.542
 2223POPC   PO431596  27.297  33.963   9.590
 2223POPC   GL131597  27.477  33.708   9.205
 2223POPC   GL231598  27.667  33.420   9.112
 2223POPC   C1A31599  27.652  33.718   8.708
 2223POPC   D2A31600  27.436  34.019   8.444
 2223POPC   C3A31601  27.348  33.994   8.011
 2223POPC   C4A31602  27.674  33.833   7.688
 2223POPC   C1B31603  27.252  33.463   8.838
 2223POPC   C2B31604  27.251  33.547   8.392
 2223POPC   C3B31605  27.634  33.600   8.134
 2223POPC   C4B31606  27.793  33.344   7.769
 2224POPC   NC331607  18.207  29.470   9.586
 2224POPC   PO431608  18.406  28.827   9.527
 2224POPC   GL131609  18.259  29.118   9.197
 2224POPC   GL231610  18.475  29.376   9.133
 2224POPC   C1A31611  18.327  29.086   8.755
 2224POPC   D2A31612  18.098  28.990   8.414
 2224POPC   C3A31613  18.324  29.004   8.066
 2224POPC   C4A31614  18.260  29.044   7.654
 2224POPC   C1B31615  18.501  29.578   8.735
 2224POPC   C2B31616  18.410  29.502   8.292
 2224POPC   C3B31617  18.541  29.418   7.864
 2224POPC   C4B31618  18.411  29.484   7.417
 2225POPC   NC331619  41.779  41.192   9.556
 2225POPC   PO431620  41.608  40.536   9.432
 2225POPC   GL131621  41.680  40.703   9.069
 2225POPC   GL231622  41.843  40.997   9.087
 2225POPC   C1A31623  41.856  40.608   8.678
 2225POPC   D2A31624  41.870  40.783   8.273
 2225POPC   C3A31625  41.678  40.528   7.938
 2225POPC   C4A31626  41.865  40.421   7.522
 2225POPC   C1B31627  41.625  41.049   8.667
 2225POPC   C2B31628  41.403  40.986   8.253
 2225POPC   C3B31629  41.360  41.000   7.796
 2225POPC   C4B31630  41.230  41.023   7.334
 2226POPC   NC331631  31.126  15.590   9.826
 2226POPC   PO431632  31.576  16.027   9.574
 2226POPC   GL131633  31.396  16.106   9.184
 2226POPC   GL231634  31.687  15.984   8.985
 2226POPC   C1A31635  31.222  15.976   8.804
 2226POPC   D2A31636  31.417  15.896   8.460
 2226POPC   C3A31637  31.291  15.999   8.084
 2226POPC   C4A31638  31.472  15.807   7.768
 2226POPC   C1B31639  31.604  16.324   8.717
 2226POPC   C2B31640  31.526  16.407   8.302
 2226POPC   C3B31641  31.732  16.264   7.933
 2226POPC   C4B31642  31.588  16.287   7.505
 2227POPC   NC331643  33.014  19.902   9.738
 2227POPC   PO431644  33.475  19.462   9.551
 2227POPC   GL131645  33.067  19.519   9.281
 2227POPC   GL231646  33.012  19.846   9.132
 2227POPC   C1A31647  32.969  19.468   8.792
 2227POPC   D2A31648  33.024  19.682   8.367
 2227POPC   C3A31649  32.862  19.560   7.986
 2227POPC   C4A31650  33.234  19.567   7.735
 2227POPC   C1B31651  33.181  19.999   8.741
 2227POPC   C2B31652  33.104  20.191   8.324
 2227POPC   C3B31653  33.065  20.025   7.899
 2227POPC   C4B31654  32.982  20.066   7.448
 2228POPC   NC331655   3.410  33.589   9.573
 2228POPC   PO431656   3.546  34.174   9.369
 2228POPC   GL131657   3.629  33.814   9.124
 2228POPC   GL231658   3.303  33.675   9.075
 2228POPC   C1A31659   3.848  33.886   8.732
 2228POPC   D2A31660   3.710  33.926   8.333
 2228POPC   C3A31661   3.566  33.631   8.062
 2228POPC   C4A31662   3.790  33.884   7.779
 2228POPC   C1B31663   3.422  33.609   8.662
 2228POPC   C2B31664   3.154  33.477   8.390
 2228POPC   C3B31665   2.989  33.424   8.024
 2228POPC   C4B31666   3.176  33.622   7.710
 2229POPC   NC331667  25.697  13.033   9.367
 2229POPC   PO431668  26.176  12.697   9.568
 2229POPC   GL131669  26.091  12.835   9.141
 2229POPC   GL231670  25.920  13.113   8.919
 2229POPC   C1A31671  25.962  12.615   8.778
 2229POPC   D2A31672  25.900  12.816   8.410
 2229POPC   C3A31673  25.990  12.583   8.071
 2229POPC   C4A31674  26.278  12.661   7.725
 2229POPC   C1B31675  25.515  12.960   8.718
 2229POPC   C2B31676  25.455  13.042   8.255
 2229POPC   C3B31677  25.806  13.029   7.932
 2229POPC   C4B31678  25.811  12.701   7.594
 2230POPC   NC331679  30.377  10.302   9.772
 2230POPC   PO431680  29.883  10.723   9.850
 2230POPC   GL131681  30.145  10.809   9.375
 2230POPC   GL231682  30.223  10.524   9.160
 2230POPC   C1A31683  30.113  10.877   8.841
 2230POPC   D2A31684  30.129  10.627   8.423
 2230POPC   C3A31685  29.867  10.730   8.064
 2230POPC   C4A31686  29.724  10.603   7.662
 2230POPC   C1B31687  29.888  10.412   8.835
 2230POPC   C2B31688  29.619  10.451   8.455
 2230POPC   C3B31689  29.626  10.261   8.039
 2230POPC   C4B31690  29.558  10.112   7.618
 2231POPC   NC331691  35.715  26.205   9.366
 2231POPC   PO431692  35.153  25.948   9.537
 2231POPC   GL131693  35.187  26.102   9.159
 2231POPC   GL231694  34.939  26.349   9.181
 2231POPC   C1A31695  35.415  25.980   8.767
 2231POPC   D2A31696  35.662  26.013   8.386
 2231POPC   C3A31697  35.430  25.969   8.029
 2231POPC   C4A31698  35.371  26.054   7.626
 2231POPC   C1B31699  35.027  26.324   8.743
 2231POPC   C2B31700  35.062  26.025   8.382
 2231POPC   C3B31701  34.946  26.125   7.943
 2231POPC   C4B31702  34.906  25.954   7.509
 2232POPC   NC331703   8.735  36.109   9.651
 2232POPC   PO431704   9.315  35.811   9.638
 2232POPC   GL131705   9.109  36.019   9.211
 2232POPC   GL231706   8.803  36.243   9.161
 2232POPC   C1A31707   8.938  35.894   8.805
 2232POPC   D2A31708   8.729  36.022   8.438
 2232POPC   C3A31709   8.842  35.809   8.072
 2232POPC   C4A31710   8.794  36.018   7.672
 2232POPC   C1B31711   8.884  36.417   8.779
 2232POPC   C2B31712   8.909  36.516   8.363
 2232POPC   C3B31713   9.037  36.357   7.974
 2232POPC   C4B31714   9.267  36.488   7.624
 2233POPC   NC331715   8.492   5.631   9.513
 2233POPC   PO431716   8.470   6.356   9.420
 2233POPC   GL131717   8.364   6.027   9.086
 2233POPC   GL231718   8.345   5.689   9.042
 2233POPC   C1A31719   8.110   5.906   8.653
 2233POPC   D2A31720   8.004   5.937   8.184
 2233POPC   C3A31721   8.351   6.013   7.900
 2233POPC   C4A31722   8.349   6.027   7.438
 2233POPC   C1B31723   8.422   5.514   8.645
 2233POPC   C2B31724   8.437   5.589   8.216
 2233POPC   C3B31725   8.259   5.517   7.818
 2233POPC   C4B31726   8.299   5.525   7.381
 2234POPC   NC331727   2.480   1.112   9.373
 2234POPC   PO431728   1.784   0.971   9.462
 2234POPC   GL131729   2.028   1.231   9.159
 2234POPC   GL231730   2.332   1.445   9.038
 2234POPC   C1A31731   2.199   1.048   8.778
 2234POPC   D2A31732   1.996   0.905   8.424
 2234POPC   C3A31733   2.268   0.787   8.151
 2234POPC   C4A31734   2.151   0.967   7.750
 2234POPC   C1B31735   1.979   1.532   8.745
 2234POPC   C2B31736   1.741   1.380   8.383
 2234POPC   C3B31737   1.755   1.183   7.979
 2234POPC   C4B31738   1.802   1.416   7.579
 2235POPC   NC331739  14.153  32.740  10.259
 2235POPC   PO431740  14.205  33.013   9.582
 2235POPC   GL131741  14.343  32.956   9.137
 2235POPC   GL231742  14.701  32.952   9.049
 2235POPC   C1A31743  14.216  32.917   8.700
 2235POPC   D2A31744  14.022  32.778   8.315
 2235POPC   C3A31745  14.092  32.998   7.923
 2235POPC   C4A31746  14.088  32.806   7.467
 2235POPC   C1B31747  14.623  32.609   8.820
 2235POPC   C2B31748  14.511  32.619   8.417
 2235POPC   C3B31749  14.581  32.643   8.038
 2235POPC   C4B31750  14.531  32.891   7.718
 2236POPC   NC331751  35.266  23.412   9.610
 2236POPC   PO431752  35.403  24.060   9.479
 2236POPC   GL131753  35.434  23.726   9.171
 2236POPC   GL231754  35.112  23.576   9.124
 2236POPC   C1A31755  35.380  23.659   8.707
 2236POPC   D2A31756  35.432  23.926   8.338
 2236POPC   C3A31757  35.432  23.659   7.993
 2236POPC   C4A31758  35.609  23.603   7.629
 2236POPC   C1B31759  34.974  23.941   8.776
 2236POPC   C2B31760  34.956  24.087   8.353
 2236POPC   C3B31761  35.109  24.087   7.944
 2236POPC   C4B31762  35.185  23.900   7.541
 2237POPC   NC331763  38.611  42.681   9.562
 2237POPC   PO431764  38.303  42.159   9.779
 2237POPC   GL131765  38.412  42.280   9.288
 2237POPC   GL231766  38.356  42.633   9.126
 2237POPC   C1A31767  38.503  42.257   8.828
 2237POPC   D2A31768  38.694  42.474   8.503
 2237POPC   C3A31769  38.684  42.378   8.107
 2237POPC   C4A31770  38.467  42.171   7.781
 2237POPC   C1B31771  38.448  42.866   8.724
 2237POPC   C2B31772  38.434  42.841   8.233
 2237POPC   C3B31773  38.211  42.588   7.920
 2237POPC   C4B31774  38.211  42.490   7.442
 2238POPC   NC331775  10.062  37.019   9.507
 2238POPC   PO431776   9.432  37.320   9.459
 2238POPC   GL131777   9.727  37.140   9.108
 2238POPC   GL231778  10.125  37.151   9.024
 2238POPC   C1A31779   9.743  37.104   8.655
 2238POPC   D2A31780   9.806  37.262   8.247
 2238POPC   C3A31781   9.582  37.050   7.904
 2238POPC   C4A31782   9.487  37.143   7.480
 2238POPC   C1B31783  10.006  36.730   8.883
 2238POPC   C2B31784   9.787  36.600   8.530
 2238POPC   C3B31785   9.915  36.712   8.118
 2238POPC   C4B31786   9.740  36.568   7.750
 2239POPC   NC331787  23.068  44.953   9.416
 2239POPC   PO431788  22.466  44.576   9.535
 2239POPC   GL131789  22.655  44.731   9.226
 2239POPC   GL231790  22.865  44.438   9.150
 2239POPC   C1A31791  22.798  44.858   8.836
 2239POPC   D2A31792  23.068  44.839   8.522
 2239POPC   C3A31793  22.860  44.823   8.144
 2239POPC   C4A31794  22.975  44.860   7.731
 2239POPC   C1B31795  23.053  44.386   8.738
 2239POPC   C2B31796  23.031  44.370   8.294
 2239POPC   C3B31797  23.182  44.399   7.872
 2239POPC   C4B31798  23.014  44.413   7.449
 2240POPC   NC331799  19.120  19.339   9.428
 2240POPC   PO431800  19.391  18.778   9.658
 2240POPC   GL131801  19.265  18.927   9.196
 2240POPC   GL231802  18.886  18.846   9.161
 2240POPC   C1A31803  19.039  19.150   8.801
 2240POPC   D2A31804  18.898  19.073   8.390
 2240POPC   C3A31805  18.989  19.273   8.028
 2240POPC   C4A31806  19.154  19.206   7.635
 2240POPC   C1B31807  18.706  18.720   8.718
 2240POPC   C2B31808  18.609  18.694   8.244
 2240POPC   C3B31809  18.898  18.800   7.903
 2240POPC   C4B31810  19.084  18.707   7.515
 2241POPC   NC331811  17.145  18.314   9.515
 2241POPC   PO431812  17.739  18.080   9.568
 2241POPC   GL131813  17.711  18.403   9.215
 2241POPC   GL231814  17.377  18.545   9.114
 2241POPC   C1A31815  17.695  18.337   8.746
 2241POPC   D2A31816  17.456  18.378   8.354
 2241POPC   C3A31817  17.546  18.167   7.957
 2241POPC   C4A31818  17.417  17.865   7.634
 2241POPC   C1B31819  17.118  18.614   8.734
 2241POPC   C2B31820  16.972  18.493   8.308
 2241POPC   C3B31821  17.117  18.458   7.865
 2241POPC   C4B31822  16.967  18.379   7.410
 2242POPC   NC331823  38.709  27.041   9.423
 2242POPC   PO431824  38.450  26.460   9.707
 2242POPC   GL131825  38.403  26.671   9.263
 2242POPC   GL231826  38.685  26.540   9.181
 2242POPC   C1A31827  38.402  26.827   8.811
 2242POPC   D2A31828  38.504  26.881   8.360
 2242POPC   C3A31829  38.134  27.037   8.169
 2242POPC   C4A31830  38.193  27.213   7.795
 2242POPC   C1B31831  38.838  26.538   8.753
 2242POPC   C2B31832  38.971  26.654   8.355
 2242POPC   C3B31833  38.789  26.552   7.954
 2242POPC   C4B31834  38.422  26.748   7.776
 2243POPC   NC331835   1.606  12.385   9.392
 2243POPC   PO431836   0.947  12.179   9.383
 2243POPC   GL131837   1.103  11.917   9.039
 2243POPC   GL231838   1.443  11.689   9.070
 2243POPC   C1A31839   1.125  12.106   8.619
 2243POPC   D2A31840   0.959  12.232   8.200
 2243POPC   C3A31841   1.160  12.138   7.780
 2243POPC   C4A31842   1.122  11.831   7.416
 2243POPC   C1B31843   1.507  11.766   8.622
 2243POPC   C2B31844   1.371  11.909   8.211
 2243POPC   C3B31845   1.414  11.682   7.838
 2243POPC   C4B31846   1.609  11.875   7.535
 2244POPC   NC331847  29.121  17.932   9.443
 2244POPC   PO431848  28.881  17.267   9.395
 2244POPC   GL131849  29.081  17.299   9.016
 2244POPC   GL231850  29.296  17.557   9.083
 2244POPC   C1A31851  28.946  17.434   8.619
 2244POPC   D2A31852  28.730  17.453   8.239
 2244POPC   C3A31853  28.974  17.424   7.862
 2244POPC   C4A31854  28.943  17.304   7.407
 2244POPC   C1B31855  29.422  17.604   8.662
 2244POPC   C2B31856  29.179  17.775   8.297
 2244POPC   C3B31857  29.405  17.708   7.929
 2244POPC   C4B31858  29.378  17.575   7.508
 2245POPC   NC331859  35.841  22.921   9.613
 2245POPC   PO431860  36.478  22.682   9.530
 2245POPC   GL131861  36.146  22.793   9.192
 2245POPC   GL231862  35.791  22.732   9.151
 2245POPC   C1A31863  36.110  22.828   8.726
 2245POPC   D2A31864  35.890  23.012   8.344
 2245POPC   C3A31865  36.067  22.912   7.912
 2245POPC   C4A31866  36.381  22.638   7.673
 2245POPC   C1B31867  35.585  22.707   8.755
 2245POPC   C2B31868  35.630  22.552   8.349
 2245POPC   C3B31869  35.572  22.776   7.993
 2245POPC   C4B31870  35.705  22.690   7.597
 2246POPC   NC331871   3.921  27.764   9.822
 2246POPC   PO431872   4.574  27.674   9.576
 2246POPC   GL131873   4.358  27.598   9.186
 2246POPC   GL231874   4.151  27.856   9.040
 2246POPC   C1A31875   4.267  27.455   8.760
 2246POPC   D2A31876   4.446  27.392   8.365
 2246POPC   C3A31877   4.318  27.597   8.018
 2246POPC   C4A31878   4.223  27.467   7.648
 2246POPC   C1B31879   3.878  27.968   8.751
 2246POPC   C2B31880   3.807  28.096   8.378
 2246POPC   C3B31881   3.852  27.906   7.983
 2246POPC   C4B31882   4.091  27.983   7.670
 2247POPC   NC331883   5.714  28.228   9.571
 2247POPC   PO431884   6.148  28.678   9.397
 2247POPC   GL131885   5.939  28.404   9.147
 2247POPC   GL231886   6.017  28.041   9.184
 2247POPC   C1A31887   5.790  28.318   8.745
 2247POPC   D2A31888   6.003  28.404   8.349
 2247POPC   C3A31889   5.807  28.315   7.941
 2247POPC   C4A31890   5.514  28.592   7.718
 2247POPC   C1B31891   6.274  28.194   8.814
 2247POPC   C2B31892   6.385  28.074   8.402
 2247POPC   C3B31893   6.282  28.135   7.949
 2247POPC   C4B31894   6.088  27.887   7.612
 2248POPC   NC331895  33.921   2.652  10.076
 2248POPC   PO431896  33.869   3.032   9.497
 2248POPC   GL131897  33.660   2.658   9.251
 2248POPC   GL231898  33.698   2.889   8.982
 2248POPC   C1A31899  33.634   2.421   8.832
 2248POPC   D2A31900  33.878   2.505   8.451
 2248POPC   C3A31901  33.636   2.579   8.090
 2248POPC   C4A31902  33.683   2.887   7.746
 2248POPC   C1B31903  34.064   2.951   8.731
 2248POPC   C2B31904  34.299   2.862   8.370
 2248POPC   C3B31905  34.146   2.738   7.978
 2248POPC   C4B31906  34.156   2.827   7.549
 2249POPC   NC331907   2.729  28.223   9.684
 2249POPC   PO431908   2.784  27.515   9.598
 2249POPC   GL131909   2.768  27.450   9.199
 2249POPC   GL231910   2.769  27.787   9.133
 2249POPC   C1A31911   2.973  27.404   8.827
 2249POPC   D2A31912   2.796  27.264   8.458
 2249POPC   C3A31913   3.012  27.468   8.181
 2249POPC   C4A31914   2.913  27.501   7.808
 2249POPC   C1B31915   2.784  27.883   8.713
 2249POPC   C2B31916   2.993  27.980   8.337
 2249POPC   C3B31917   2.806  27.978   7.918
 2249POPC   C4B31918   2.746  27.849   7.473
 2250POPC   NC331919  39.590  29.091   9.340
 2250POPC   PO431920  40.145  28.758   9.454
 2250POPC   GL131921  40.277  28.800   9.043
 2250POPC   GL231922  39.975  28.967   8.996
 2250POPC   C1A31923  40.314  28.764   8.580
 2250POPC   D2A31924  40.281  28.647   8.117
 2250POPC   C3A31925  40.125  28.940   7.792
 2250POPC   C4A31926  40.054  29.380   7.603
 2250POPC   C1B31927  39.733  28.905   8.636
 2250POPC   C2B31928  39.812  28.990   8.199
 2250POPC   C3B31929  39.638  29.129   7.787
 2250POPC   C4B31930  39.577  29.434   7.423
 2251POPC   NC331931  24.089   9.679   9.469
 2251POPC   PO431932  24.593   9.975   9.471
 2251POPC   GL131933  24.489   9.622   9.145
 2251POPC   GL231934  24.191   9.362   9.101
 2251POPC   C1A31935  24.618   9.678   8.742
 2251POPC   D2A31936  24.824   9.808   8.387
 2251POPC   C3A31937  24.608   9.691   8.042
 2251POPC   C4A31938  24.398   9.896   7.765
 2251POPC   C1B31939  24.106   9.684   8.807
 2251POPC   C2B31940  24.235   9.623   8.395
 2251POPC   C3B31941  24.113   9.544   7.986
 2251POPC   C4B31942  24.343   9.402   7.639
 2252POPC   NC331943  11.123   4.783   9.586
 2252POPC   PO431944  10.933   5.380   9.339
 2252POPC   GL131945  11.170   5.008   9.108
 2252POPC   GL231946  11.477   4.873   9.186
 2252POPC   C1A31947  11.074   4.889   8.678
 2252POPC   D2A31948  11.114   5.140   8.316
 2252POPC   C3A31949  11.375   5.089   7.960
 2252POPC   C4A31950  11.386   5.132   7.525
 2252POPC   C1B31951  11.560   4.799   8.730
 2252POPC   C2B31952  11.434   4.704   8.277
 2252POPC   C3B31953  11.630   4.656   7.813
 2252POPC   C4B31954  11.692   4.783   7.333
 2253POPC   NC331955  28.769  37.380   9.532
 2253POPC   PO431956  28.249  37.771   9.454
 2253POPC   GL131957  28.577  37.695   9.176
 2253POPC   GL231958  28.569  37.404   9.017
 2253POPC   C1A31959  28.650  37.843   8.744
 2253POPC   D2A31960  28.372  37.982   8.406
 2253POPC   C3A31961  28.288  37.740   8.053
 2253POPC   C4A31962  28.316  37.973   7.676
 2253POPC   C1B31963  28.183  37.610   8.785
 2253POPC   C2B31964  27.903  37.508   8.408
 2253POPC   C3B31965  27.879  37.415   7.965
 2253POPC   C4B31966  28.271  37.257   7.800
 2254POPC   NC331967  19.955  22.410   9.368
 2254POPC   PO431968  19.578  21.891   9.387
 2254POPC   GL131969  19.767  22.033   9.048
 2254POPC   GL231970  19.681  22.387   8.945
 2254POPC   C1A31971  19.811  22.007   8.644
 2254POPC   D2A31972  19.771  22.318   8.383
 2254POPC   C3A31973  19.911  22.156   8.035
 2254POPC   C4A31974  19.697  22.064   7.688
 2254POPC   C1B31975  20.119  22.393   8.764
 2254POPC   C2B31976  20.317  22.502   8.401
 2254POPC   C3B31977  20.065  22.637   8.080
 2254POPC   C4B31978  20.009  22.504   7.668
 2255POPC   NC331979  15.519  17.905   9.656
 2255POPC   PO431980  16.005  17.456   9.557
 2255POPC   GL131981  16.077  17.748   9.196
 2255POPC   GL231982  15.740  17.799   9.068
 2255POPC   C1A31983  16.202  17.747   8.749
 2255POPC   D2A31984  15.987  17.836   8.342
 2255POPC   C3A31985  16.145  17.682   7.908
 2255POPC   C4A31986  15.958  17.743   7.465
 2255POPC   C1B31987  15.767  17.490   8.690
 2255POPC   C2B31988  15.846  17.359   8.230
 2255POPC   C3B31989  15.742  17.380   7.772
 2255POPC   C4B31990  15.622  17.322   7.328
 2256POPC   NC331991  43.392  43.796   9.508
 2256POPC   PO431992  42.710  43.615   9.281
 2256POPC   GL131993  42.964  43.890   9.049
 2256POPC   GL231994  43.282  43.732   9.020
 2256POPC   C1A31995  43.100  43.957   8.614
 2256POPC   D2A31996  43.081  43.580   8.391
 2256POPC   C3A31997  43.002  43.703   8.009
 2256POPC   C4A31998  43.267  43.916   7.726
 2256POPC   C1B31999  43.553  44.046   8.899
 2256POPC   C2B32000  43.638  44.150   8.489
 2256POPC   C3B32001  43.477  44.203   8.092
 2256POPC   C4B32002  43.645  44.280   7.687
 2257POPC   NC332003   5.835   4.530   9.649
 2257POPC   PO432004   5.742   4.022   9.255
 2257POPC   GL132005   5.731   4.396   9.025
 2257POPC   GL232006   5.538   4.602   9.228
 2257POPC   C1A32007   6.015   4.624   8.746
 2257POPC   D2A32008   6.192   4.622   8.320
 2257POPC   C3A32009   5.904   4.443   8.018
 2257POPC   C4A32010   5.958   4.320   7.544
 2257POPC   C1B32011   5.347   4.685   8.850
 2257POPC   C2B32012   5.486   4.611   8.455
 2257POPC   C3B32013   5.414   4.714   8.048
 2257POPC   C4B32014   5.512   4.492   7.711
 2258POPC   NC332015  38.900   6.732   9.510
 2258POPC   PO432016  38.239   6.684   9.617
 2258POPC   GL132017  38.460   6.755   9.241
 2258POPC   GL232018  38.619   6.425   9.167
 2258POPC   C1A32019  38.448   6.925   8.830
 2258POPC   D2A32020  38.523   6.659   8.481
 2258POPC   C3A32021  38.262   6.705   8.136
 2258POPC   C4A32022  38.434   6.951   7.794
 2258POPC   C1B32023  38.857   6.346   8.773
 2258POPC   C2B32024  38.957   6.426   8.334
 2258POPC   C3B32025  38.725   6.559   7.970
 2258POPC   C4B32026  38.706   6.563   7.512
 2259POPC   NC332027  11.649  35.419   9.941
 2259POPC   PO432028  11.146  35.367   9.539
 2259POPC   GL132029  11.385  35.349   9.154
 2259POPC   GL232030  11.110  35.412   9.002
 2259POPC   C1A32031  11.385  35.077   8.751
 2259POPC   D2A32032  11.314  35.301   8.369
 2259POPC   C3A32033  11.496  35.236   7.940
 2259POPC   C4A32034  11.512  35.474   7.520
 2259POPC   C1B32035  10.876  35.208   8.712
 2259POPC   C2B32036  10.806  35.375   8.324
 2259POPC   C3B32037  11.071  35.570   8.015
 2259POPC   C4B32038  10.992  35.470   7.556
 2260POPC   NC332039   8.168  44.822   9.480
 2260POPC   PO432040   8.367  44.205   9.381
 2260POPC   GL132041   8.241  44.492   9.105
 2260POPC   GL232042   8.520  44.771   9.147
 2260POPC   C1A32043   8.126  44.406   8.669
 2260POPC   D2A32044   8.344  44.478   8.263
 2260POPC   C3A32045   8.167  44.762   7.962
 2260POPC   C4A32046   8.059  44.443   7.724
 2260POPC   C1B32047   8.263  44.898   8.798
 2260POPC   C2B32048   8.414  44.946   8.399
 2260POPC   C3B32049   8.638  44.957   8.008
 2260POPC   C4B32050   8.555  44.927   7.535
 2261POPC   NC332051  22.292  11.851   9.445
 2261POPC   PO432052  22.197  11.154   9.486
 2261POPC   GL132053  22.154  11.254   9.101
 2261POPC   GL232054  22.393  11.524   9.061
 2261POPC   C1A32055  22.099  11.009   8.758
 2261POPC   D2A32056  22.197  11.065   8.359
 2261POPC   C3A32057  22.049  11.164   7.983
 2261POPC   C4A32058  22.364  10.947   7.854
 2261POPC   C1B32059  22.387  11.455   8.629
 2261POPC   C2B32060  22.436  11.509   8.191
 2261POPC   C3B32061  22.427  11.496   7.778
 2261POPC   C4B32062  22.291  11.679   7.392
 2262POPC   NC332063   3.711  25.864   9.485
 2262POPC   PO432064   3.359  26.341   9.712
 2262POPC   GL132065   3.341  26.206   9.281
 2262POPC   GL232066   3.698  26.271   9.169
 2262POPC   C1A32067   3.367  25.960   8.866
 2262POPC   D2A32068   3.480  25.825   8.420
 2262POPC   C3A32069   3.206  25.983   8.062
 2262POPC   C4A32070   3.149  26.108   7.642
 2262POPC   C1B32071   3.879  25.984   8.848
 2262POPC   C2B32072   4.096  25.969   8.468
 2262POPC   C3B32073   3.903  25.875   8.078
 2262POPC   C4B32074   3.635  26.076   7.769
 2263POPC   NC332075  35.604   5.388   9.550
 2263POPC   PO432076  35.509   6.029   9.561
 2263POPC   GL132077  35.378   5.844   9.193
 2263POPC   GL232078  35.714   5.679   9.135
 2263POPC   C1A32079  35.145   5.983   8.797
 2263POPC   D2A32080  34.886   6.021   8.426
 2263POPC   C3A32081  35.106   5.845   8.119
 2263POPC   C4A32082  35.180   5.836   7.715
 2263POPC   C1B32083  35.683   5.949   8.795
 2263POPC   C2B32084  35.527   5.807   8.416
 2263POPC   C3B32085  35.601   5.923   8.003
 2263POPC   C4B32086  35.648   5.980   7.579
 2264POPC   NC332087  28.404  15.211   9.843
 2264POPC   PO432088  28.281  14.552   9.580
 2264POPC   GL132089  28.158  14.461   9.189
 2264POPC   GL232090  28.485  14.329   9.147
 2264POPC   C1A32091  28.249  14.555   8.763
 2264POPC   D2A32092  28.508  14.827   8.524
 2264POPC   C3A32093  28.565  14.698   8.128
 2264POPC   C4A32094  28.389  14.465   7.796
 2264POPC   C1B32095  28.516  14.114   8.736
 2264POPC   C2B32096  28.326  14.268   8.336
 2264POPC   C3B32097  28.115  14.048   8.002
 2264POPC   C4B32098  28.420  13.894   7.739
 2265POPC   NC332099  43.373   8.111   9.432
 2265POPC   PO432100  42.811   8.667   9.545
 2265POPC   GL132101  42.897   8.333   9.208
 2265POPC   GL232102  42.998   7.994   9.131
 2265POPC   C1A32103  43.187   8.356   8.812
 2265POPC   D2A32104  43.408   8.508   8.425
 2265POPC   C3A32105  43.167   8.287   8.114
 2265POPC   C4A32106  43.007   8.268   7.723
 2265POPC   C1B32107  43.151   7.807   8.721
 2265POPC   C2B32108  43.099   7.761   8.256
 2265POPC   C3B32109  43.183   7.791   7.811
 2265POPC   C4B32110  43.005   7.874   7.404
 2266POPC   NC332111  18.166  34.049   9.422
 2266POPC   PO432112  18.283  33.422   9.155
 2266POPC   GL132113  18.338  33.848   8.997
 2266POPC   GL232114  18.029  33.739   8.849
 2266POPC   C1A32115  18.232  34.137   8.633
 2266POPC   D2A32116  17.871  33.940   8.374
 2266POPC   C3A32117  18.033  33.776   7.974
 2266POPC   C4A32118  18.431  33.902   7.826
 2266POPC   C1B32119  18.262  33.643   8.522
 2266POPC   C2B32120  18.563  33.794   8.312
 2266POPC   C3B32121  18.644  33.476   8.054
 2266POPC   C4B32122  18.354  33.380   7.770
 2267POPC   NC332123  28.155  31.405   9.509
 2267POPC   PO432124  27.550  31.412   9.604
 2267POPC   GL132125  27.780  31.561   9.213
 2267POPC   GL232126  27.989  31.288   9.041
 2267POPC   C1A32127  27.690  31.663   8.795
 2267POPC   D2A32128  27.766  31.786   8.372
 2267POPC   C3A32129  27.580  31.447   8.100
 2267POPC   C4A32130  27.351  31.352   7.708
 2267POPC   C1B32131  27.913  31.232   8.587
 2267POPC   C2B32132  27.976  31.126   8.143
 2267POPC   C3B32133  27.954  31.173   7.701
 2267POPC   C4B32134  27.992  31.164   7.230
 2268POPC   NC332135  15.395   8.972   9.711
 2268POPC   PO432136  14.985   8.555   9.368
 2268POPC   GL132137  15.021   8.869   9.084
 2268POPC   GL232138  15.253   9.112   9.225
 2268POPC   C1A32139  14.839   9.000   8.708
 2268POPC   D2A32140  15.099   8.964   8.372
 2268POPC   C3A32141  14.968   8.910   7.980
 2268POPC   C4A32142  15.122   9.000   7.553
 2268POPC   C1B32143  15.320   9.173   8.784
 2268POPC   C2B32144  15.330   9.399   8.387
 2268POPC   C3B32145  15.415   9.171   8.008
 2268POPC   C4B32146  15.610   9.106   7.598
 2269POPC   NC332147  13.484  20.566   9.441
 2269POPC   PO432148  14.022  20.983   9.321
 2269POPC   GL132149  13.780  20.672   9.032
 2269POPC   GL232150  13.370  20.728   8.970
 2269POPC   C1A32151  13.692  20.546   8.596
 2269POPC   D2A32152  13.352  20.501   8.269
 2269POPC   C3A32153  13.571  20.552   7.888
 2269POPC   C4A32154  13.945  20.720   7.730
 2269POPC   C1B32155  13.032  20.712   8.625
 2269POPC   C2B32156  12.996  20.873   8.188
 2269POPC   C3B32157  13.354  21.030   7.910
 2269POPC   C4B32158  13.524  20.877   7.497
 2270POPC   NC332159  42.643  40.400   9.700
 2270POPC   PO432160  43.024  39.847   9.629
 2270POPC   GL132161  43.060  39.857   9.143
 2270POPC   GL232162  42.883  40.216   9.065
 2270POPC   C1A32163  43.374  39.985   8.808
 2270POPC   D2A32164  43.448  40.326   8.508
 2270POPC   C3A32165  43.264  40.245   8.122
 2270POPC   C4A32166  43.278  39.830   7.933
 2270POPC   C1B32167  42.939  40.179   8.643
 2270POPC   C2B32168  42.966  39.876   8.346
 2270POPC   C3B32169  42.777  39.802   7.972
 2270POPC   C4B32170  42.921  39.935   7.578
 2271POPC   NC332171  33.431   6.360   9.348
 2271POPC   PO432172  34.018   6.639   9.504
 2271POPC   GL132173  33.855   6.685   9.077
 2271POPC   GL232174  33.772   7.046   9.020
 2271POPC   C1A32175  33.735   6.536   8.635
 2271POPC   D2A32176  33.547   6.303   8.294
 2271POPC   C3A32177  33.712   6.590   7.977
 2271POPC   C4A32178  33.731   6.950   7.697
 2271POPC   C1B32179  34.068   6.989   8.703
 2271POPC   C2B32180  34.112   6.778   8.326
 2271POPC   C3B32181  34.152   7.035   8.000
 2271POPC   C4B32182  34.237   7.120   7.616
 2272POPC   NC332183   3.145  15.313   9.619
 2272POPC   PO432184   2.496  15.203   9.578
 2272POPC   GL132185   2.805  15.101   9.282
 2272POPC   GL232186   2.805  15.468   9.203
 2272POPC   C1A32187   2.832  14.921   8.867
 2272POPC   D2A32188   2.776  15.089   8.420
 2272POPC   C3A32189   2.872  14.849   8.027
 2272POPC   C4A32190   2.865  14.911   7.580
 2272POPC   C1B32191   2.641  15.501   8.772
 2272POPC   C2B32192   2.735  15.612   8.332
 2272POPC   C3B32193   2.935  15.386   7.989
 2272POPC   C4B32194   2.803  15.421   7.581
 2273POPC   NC332195  21.763  44.862   9.656
 2273POPC   PO432196  21.351  44.375   9.522
 2273POPC   GL132197  21.504  44.639   9.213
 2273POPC   GL232198  21.660  44.385   9.004
 2273POPC   C1A32199  21.551  44.818   8.786
 2273POPC   D2A32200  21.410  44.775   8.371
 2273POPC   C3A32201  21.640  44.618   8.011
 2273POPC   C4A32202  21.634  44.854   7.625
 2273POPC   C1B32203  21.308  44.374   8.748
 2273POPC   C2B32204  21.087  44.363   8.365
 2273POPC   C3B32205  20.891  44.382   7.953
 2273POPC   C4B32206  21.257  44.447   7.692
 2274POPC   NC332207  41.865  19.624   9.544
 2274POPC   PO432208  41.264  19.603   9.506
 2274POPC   GL132209  41.489  19.861   9.181
 2274POPC   GL232210  41.863  19.828   9.093
 2274POPC   C1A32211  41.329  19.856   8.763
 2274POPC   D2A32212  41.032  19.654   8.490
 2274POPC   C3A32213  41.252  19.652   8.124
 2274POPC   C4A32214  41.466  19.792   7.756
 2274POPC   C1B32215  41.837  20.034   8.710
 2274POPC   C2B32216  42.013  20.011   8.297
 2274POPC   C3B32217  41.821  20.145   7.909
 2274POPC   C4B32218  41.996  20.220   7.504
 2275POPC   NC332219  27.259  12.498   9.487
 2275POPC   PO432220  27.674  12.955   9.763
 2275POPC   GL132221  27.672  12.766   9.303
 2275POPC   GL232222  27.760  12.387   9.270
 2275POPC   C1A32223  27.518  12.856   8.862
 2275POPC   D2A32224  27.694  12.846   8.437
 2275POPC   C3A32225  27.384  12.745   8.112
 2275POPC   C4A32226  27.449  12.897   7.718
 2275POPC   C1B32227  27.502  12.353   8.904
 2275POPC   C2B32228  27.481  12.378   8.482
 2275POPC   C3B32229  27.746  12.409   8.149
 2275POPC   C4B32230  27.731  12.470   7.739
 2276POPC   NC332231   5.682  35.745   9.428
 2276POPC   PO432232   5.744  35.049   9.451
 2276POPC   GL132233   5.781  35.157   9.061
 2276POPC   GL232234   5.464  35.011   9.012
 2276POPC   C1A32235   5.957  35.521   8.801
 2276POPC   D2A32236   6.139  35.672   8.387
 2276POPC   C3A32237   6.015  35.481   7.988
 2276POPC   C4A32238   6.000  35.016   7.930
 2276POPC   C1B32239   5.511  35.276   8.653
 2276POPC   C2B32240   5.635  35.230   8.259
 2276POPC   C3B32241   5.479  34.991   7.919
 2276POPC   C4B32242   5.667  35.050   7.544
 2277POPC   NC332243   9.804   3.046   9.735
 2277POPC   PO432244  10.060   3.664   9.429
 2277POPC   GL132245   9.922   3.448   9.084
 2277POPC   GL232246   9.657   3.324   9.171
 2277POPC   C1A32247   9.957   3.183   8.714
 2277POPC   D2A32248   9.857   3.475   8.456
 2277POPC   C3A32249   9.928   3.418   8.072
 2277POPC   C4A32250   9.755   3.652   7.726
 2277POPC   C1B32251   9.464   3.335   8.761
 2277POPC   C2B32252   9.455   3.167   8.327
 2277POPC   C3B32253   9.469   3.234   7.875
 2277POPC   C4B32254   9.448   3.262   7.409
 2278POPC   NC332255  39.711  23.494   9.484
 2278POPC   PO432256  39.946  22.821   9.650
 2278POPC   GL132257  39.932  23.063   9.256
 2278POPC   GL232258  40.142  22.801   9.082
 2278POPC   C1A32259  39.768  23.028   8.825
 2278POPC   D2A32260  40.027  22.874   8.486
 2278POPC   C3A32261  39.880  23.139   8.154
 2278POPC   C4A32262  39.701  23.058   7.776
 2278POPC   C1B32263  40.279  23.153   8.855
 2278POPC   C2B32264  40.354  23.239   8.400
 2278POPC   C3B32265  40.328  22.961   8.022
 2278POPC   C4B32266  40.181  23.083   7.640
 2279POPC   NC332267  11.976  41.582   9.652
 2279POPC   PO432268  12.216  41.008   9.700
 2279POPC   GL132269  12.033  41.266   9.287
 2279POPC   GL232270  12.242  41.525   9.175
 2279POPC   C1A32271  11.959  41.338   8.800
 2279POPC   D2A32272  12.089  41.218   8.358
 2279POPC   C3A32273  11.949  41.409   7.975
 2279POPC   C4A32274  11.830  41.685   7.646
 2279POPC   C1B32275  12.388  41.817   8.844
 2279POPC   C2B32276  12.596  41.776   8.454
 2279POPC   C3B32277  12.349  41.721   8.143
 2279POPC   C4B32278  12.371  41.853   7.714
 2280POPC   NC332279   5.644  23.334   9.461
 2280POPC   PO432280   6.062  22.771   9.509
 2280POPC   GL132281   5.833  22.963   9.183
 2280POPC   GL232282   6.097  23.251   9.229
 2280POPC   C1A32283   5.688  23.064   8.758
 2280POPC   D2A32284   5.674  22.853   8.366
 2280POPC   C3A32285   5.715  23.096   8.029
 2280POPC   C4A32286   5.537  22.926   7.705
 2280POPC   C1B32287   6.206  23.044   8.859
 2280POPC   C2B32288   6.112  23.141   8.455
 2280POPC   C3B32289   6.223  22.916   8.117
 2280POPC   C4B32290   6.111  22.968   7.726
 2281POPC   NC332291  34.526  35.644   9.555
 2281POPC   PO432292  35.003  35.157   9.466
 2281POPC   GL132293  34.846  35.482   9.189
 2281POPC   GL232294  34.514  35.338   9.153
 2281POPC   C1A32295  34.708  35.629   8.792
 2281POPC   D2A32296  34.772  35.439   8.422
 2281POPC   C3A32297  34.619  35.577   8.077
 2281POPC   C4A32298  34.482  35.378   7.727
 2281POPC   C1B32299  34.379  35.122   8.776
 2281POPC   C2B32300  34.283  35.165   8.345
 2281POPC   C3B32301  34.182  35.009   7.930
 2281POPC   C4B32302  34.012  35.242   7.614
 2282POPC   NC332303   1.196  24.860   9.501
 2282POPC   PO432304   1.382  24.170   9.483
 2282POPC   GL132305   1.184  24.233   9.114
 2282POPC   GL232306   1.067  24.582   9.097
 2282POPC   C1A32307   1.252  24.304   8.698
 2282POPC   D2A32308   1.277  24.619   8.389
 2282POPC   C3A32309   1.464  24.387   8.093
 2282POPC   C4A32310   1.406  24.331   7.693
 2282POPC   C1B32311   0.776  24.480   8.784
 2282POPC   C2B32312   0.830  24.337   8.376
 2282POPC   C3B32313   0.953  24.480   7.959
 2282POPC   C4B32314   0.660  24.586   7.630
 2283POPC   NC332315   8.708   9.180   9.491
 2283POPC   PO432316   8.769   8.481   9.460
 2283POPC   GL132317   8.827   8.801   9.133
 2283POPC   GL232318   9.119   8.976   9.203
 2283POPC   C1A32319   8.935   8.907   8.687
 2283POPC   D2A32320   9.264   8.729   8.408
 2283POPC   C3A32321   9.082   8.612   8.021
 2283POPC   C4A32322   8.860   8.907   7.821
 2283POPC   C1B32323   9.279   9.209   8.869
 2283POPC   C2B32324   9.367   9.236   8.440
 2283POPC   C3B32325   9.124   9.258   8.096
 2283POPC   C4B32326   9.266   9.172   7.699
 2284POPC   NC332327   5.204  32.230   9.599
 2284POPC   PO432328   4.573  31.910   9.704
 2284POPC   GL132329   4.759  32.160   9.294
 2284POPC   GL232330   5.101  32.125   9.113
 2284POPC   C1A32331   4.708  32.161   8.808
 2284POPC   D2A32332   4.910  32.051   8.395
 2284POPC   C3A32333   4.958  32.326   8.033
 2284POPC   C4A32334   5.270  32.583   7.783
 2284POPC   C1B32335   5.458  31.935   8.887
 2284POPC   C2B32336   5.436  31.933   8.460
 2284POPC   C3B32337   5.477  31.817   8.049
 2284POPC   C4B32338   5.311  32.080   7.748
 2285POPC   NC332339  32.226  38.136   9.739
 2285POPC   PO432340  32.657  38.604   9.762
 2285POPC   GL132341  32.440  38.486   9.287
 2285POPC   GL232342  32.195  38.312   9.181
 2285POPC   C1A32343  32.573  38.322   8.796
 2285POPC   D2A32344  32.424  38.423   8.366
 2285POPC   C3A32345  32.221  38.157   8.065
 2285POPC   C4A32346  32.340  38.207   7.633
 2285POPC   C1B32347  32.181  38.619   8.793
 2285POPC   C2B32348  32.037  38.766   8.360
 2285POPC   C3B32349  32.170  38.632   7.907
 2285POPC   C4B32350  32.042  38.761   7.476
 2286POPC   NC332351  14.448  38.387   9.675
 2286POPC   PO432352  14.028  38.860   9.481
 2286POPC   GL132353  14.333  38.609   9.228
 2286POPC   GL232354  14.198  38.262   9.222
 2286POPC   C1A32355  14.555  38.426   8.874
 2286POPC   D2A32356  14.409  38.543   8.457
 2286POPC   C3A32357  14.682  38.416   8.131
 2286POPC   C4A32358  14.540  38.445   7.717
 2286POPC   C1B32359  14.059  38.280   8.770
 2286POPC   C2B32360  13.886  38.463   8.379
 2286POPC   C3B32361  14.097  38.342   7.977
 2286POPC   C4B32362  14.071  38.377   7.509
 2287POPC   NC332363  17.007  43.711   9.497
 2287POPC   PO432364  16.318  43.730   9.206
 2287POPC   GL132365  16.709  43.900   9.097
 2287POPC   GL232366  16.990  43.653   9.010
 2287POPC   C1A32367  16.921  44.117   8.766
 2287POPC   D2A32368  17.104  44.153   8.352
 2287POPC   C3A32369  16.892  43.844   8.101
 2287POPC   C4A32370  16.832  43.758   7.688
 2287POPC   C1B32371  16.701  43.488   8.735
 2287POPC   C2B32372  16.737  43.368   8.352
 2287POPC   C3B32373  16.538  43.486   8.001
 2287POPC   C4B32374  16.395  43.389   7.631
 2288POPC   NC332375  33.584  11.204   9.383
 2288POPC   PO432376  34.151  10.879   9.556
 2288POPC   GL132377  34.043  11.072   9.159
 2288POPC   GL232378  34.018  11.428   9.179
 2288POPC   C1A32379  33.837  11.072   8.736
 2288POPC   D2A32380  33.861  11.208   8.274
 2288POPC   C3A32381  33.616  11.482   7.985
 2288POPC   C4A32382  33.618  11.386   7.549
 2288POPC   C1B32383  34.060  11.541   8.780
 2288POPC   C2B32384  34.262  11.550   8.406
 2288POPC   C3B32385  34.128  11.583   7.991
 2288POPC   C4B32386  34.048  11.202   7.766
 2289POPC   NC332387  13.424  13.434   9.759
 2289POPC   PO432388  13.772  13.839   9.578
 2289POPC   GL132389  13.693  13.430   9.316
 2289POPC   GL232390  13.416  13.517   9.207
 2289POPC   C1A32391  13.634  13.246   8.854
 2289POPC   D2A32392  13.553  13.413   8.428
 2289POPC   C3A32393  13.511  13.238   8.021
 2289POPC   C4A32394  13.451  13.295   7.573
 2289POPC   C1B32395  13.432  13.756   8.795
 2289POPC   C2B32396  13.197  13.764   8.365
 2289POPC   C3B32397  13.422  13.749   7.959
 2289POPC   C4B32398  13.691  13.894   7.604
 2290POPC   NC332399  32.302  13.955   9.521
 2290POPC   PO432400  31.779  13.516   9.515
 2290POPC   GL132401  32.100  13.566   9.206
 2290POPC   GL232402  32.430  13.677   9.105
 2290POPC   C1A32403  31.988  13.656   8.757
 2290POPC   D2A32404  31.790  13.550   8.350
 2290POPC   C3A32405  32.034  13.656   8.021
 2290POPC   C4A32406  32.027  13.831   7.620
 2290POPC   C1B32407  32.591  13.652   8.674
 2290POPC   C2B32408  32.511  13.550   8.242
 2290POPC   C3B32409  32.601  13.285   7.894
 2290POPC   C4B32410  32.532  13.314   7.457
 2291POPC   NC332411  32.252  38.815   9.686
 2291POPC   PO432412  32.659  39.178   9.395
 2291POPC   GL132413  32.424  38.969   9.080
 2291POPC   GL232414  32.079  38.864   9.213
 2291POPC   C1A32415  32.294  39.161   8.674
 2291POPC   D2A32416  32.275  39.593   8.408
 2291POPC   C3A32417  32.369  39.477   7.978
 2291POPC   C4A32418  32.386  39.069   7.804
 2291POPC   C1B32419  31.826  38.992   8.855
 2291POPC   C2B32420  31.833  39.321   8.522
 2291POPC   C3B32421  31.873  39.367   8.091
 2291POPC   C4B32422  31.811  38.992   7.898
 2292POPC   NC332423   4.047   2.890   9.350
 2292POPC   PO432424   4.543   2.401   9.415
 2292POPC   GL132425   4.353   2.510   9.050
 2292POPC   GL232426   4.027   2.467   9.020
 2292POPC   C1A32427   4.490   2.611   8.646
 2292POPC   D2A32428   4.422   3.013   8.422
 2292POPC   C3A32429   4.289   2.936   8.020
 2292POPC   C4A32430   4.512   2.555   7.926
 2292POPC   C1B32431   4.013   2.751   8.690
 2292POPC   C2B32432   4.102   2.567   8.299
 2292POPC   C3B32433   3.977   2.539   7.857
 2292POPC   C4B32434   3.925   2.431   7.410
 2293POPC   NC332435  17.324  35.648   9.552
 2293POPC   PO432436  17.761  35.163   9.466
 2293POPC   GL132437  17.652  35.450   9.152
 2293POPC   GL232438  17.300  35.429   9.111
 2293POPC   C1A32439  17.566  35.295   8.719
 2293POPC   D2A32440  17.343  35.221   8.404
 2293POPC   C3A32441  17.536  35.301   8.053
 2293POPC   C4A32442  17.551  35.359   7.649
 2293POPC   C1B32443  17.154  35.615   8.724
 2293POPC   C2B32444  17.021  35.592   8.271
 2293POPC   C3B32445  17.151  35.574   7.838
 2293POPC   C4B32446  17.294  35.694   7.383
 2294POPC   NC332447   9.498  26.658   9.389
 2294POPC   PO432448   9.161  27.211   9.267
 2294POPC   GL132449   9.263  26.921   8.940
 2294POPC   GL232450   8.944  26.782   8.853
 2294POPC   C1A32451   9.290  26.873   8.475
 2294POPC   D2A32452   8.936  26.640   8.326
 2294POPC   C3A32453   8.648  26.909   8.112
 2294POPC   C4A32454   8.820  27.154   7.763
 2294POPC   C1B32455   9.213  26.423   8.735
 2294POPC   C2B32456   9.224  26.205   8.351
 2294POPC   C3B32457   9.167  26.345   7.943
 2294POPC   C4B32458   8.955  26.661   7.785
 2295POPC   NC332459  32.465  17.061   9.541
 2295POPC   PO432460  32.057  17.575   9.447
 2295POPC   GL132461  32.206  17.485   9.068
 2295POPC   GL232462  32.189  17.103   9.096
 2295POPC   C1A32463  32.207  17.770   8.681
 2295POPC   D2A32464  32.018  17.896   8.273
 2295POPC   C3A32465  32.208  17.692   7.914
 2295POPC   C4A32466  32.420  17.288   7.882
 2295POPC   C1B32467  31.904  17.240   8.757
 2295POPC   C2B32468  32.014  17.391   8.367
 2295POPC   C3B32469  31.897  17.239   8.002
 2295POPC   C4B32470  32.011  17.080   7.661
 2296POPC   NC332471  27.046  10.824   9.382
 2296POPC   PO432472  26.858  11.444   9.369
 2296POPC   GL132473  26.741  11.122   9.079
 2296POPC   GL232474  26.373  11.036   9.033
 2296POPC   C1A32475  26.800  11.196   8.672
 2296POPC   D2A32476  26.944  11.525   8.420
 2296POPC   C3A32477  26.747  11.456   8.052
 2296POPC   C4A32478  26.871  11.283   7.684
 2296POPC   C1B32479  26.395  10.791   8.691
 2296POPC   C2B32480  26.602  10.830   8.312
 2296POPC   C3B32481  26.481  11.026   7.925
 2296POPC   C4B32482  26.460  11.077   7.459
 2297POPC   NC332483  27.231  26.361   9.380
 2297POPC   PO432484  27.872  25.964   9.489
 2297POPC   GL132485  27.597  25.974   9.138
 2297POPC   GL232486  27.789  25.679   9.071
 2297POPC   C1A32487  27.454  26.198   8.734
 2297POPC   D2A32488  27.236  26.154   8.336
 2297POPC   C3A32489  27.410  26.284   7.928
 2297POPC   C4A32490  27.415  26.171   7.456
 2297POPC   C1B32491  27.846  25.885   8.666
 2297POPC   C2B32492  27.735  26.004   8.230
 2297POPC   C3B32493  27.670  25.873   7.788
 2297POPC   C4B32494  27.917  26.077   7.486
 2298POPC   NC332495  25.607   6.995   9.437
 2298POPC   PO432496  26.146   7.062   9.253
 2298POPC   GL132497  25.887   6.658   9.103
 2298POPC   GL232498  25.530   6.707   9.005
 2298POPC   C1A32499  25.809   6.357   8.710
 2298POPC   D2A32500  25.949   6.105   8.319
 2298POPC   C3A32501  25.872   6.288   7.924
 2298POPC   C4A32502  25.536   6.569   7.871
 2298POPC   C1B32503  25.797   6.859   8.645
 2298POPC   C2B32504  25.997   6.639   8.290
 2298POPC   C3B32505  26.004   6.791   7.871
 2298POPC   C4B32506  25.671   7.030   7.639
 2299POPC   NC332507  25.711  26.170  10.095
 2299POPC   PO432508  26.188  25.841   9.675
 2299POPC   GL132509  26.056  25.977   9.237
 2299POPC   GL232510  25.749  26.172   9.319
 2299POPC   C1A32511  26.017  25.814   8.794
 2299POPC   D2A32512  26.243  25.837   8.402
 2299POPC   C3A32513  26.021  26.065   8.111
 2299POPC   C4A32514  26.133  26.104   7.711
 2299POPC   C1B32515  25.679  26.193   8.868
 2299POPC   C2B32516  25.688  26.303   8.446
 2299POPC   C3B32517  25.723  26.487   8.038
 2299POPC   C4B32518  25.647  26.313   7.651
 2300POPC   NC332519   1.220  17.035   9.537
 2300POPC   PO432520   1.419  16.379   9.519
 2300POPC   GL132521   1.326  16.640   9.193
 2300POPC   GL232522   0.989  16.689   9.201
 2300POPC   C1A32523   1.270  16.845   8.811
 2300POPC   D2A32524   1.511  17.019   8.517
 2300POPC   C3A32525   1.401  16.976   8.087
 2300POPC   C4A32526   1.710  16.995   7.784
 2300POPC   C1B32527   0.850  16.562   8.791
 2300POPC   C2B32528   1.003  16.747   8.364
 2300POPC   C3B32529   1.140  16.532   7.962
 2300POPC   C4B32530   1.333  16.672   7.595
 2301POPC   NC332531  42.067  13.441   9.486
 2301POPC   PO432532  42.394  14.046   9.511
 2301POPC   GL132533  42.411  13.743   9.200
 2301POPC   GL232534  42.060  13.802   9.148
 2301POPC   C1A32535  42.538  13.514   8.804
 2301POPC   D2A32536  42.348  13.307   8.389
 2301POPC   C3A32537  42.524  13.334   7.957
 2301POPC   C4A32538  42.521  13.302   7.484
 2301POPC   C1B32539  42.018  13.531   8.804
 2301POPC   C2B32540  41.942  13.648   8.399
 2301POPC   C3B32541  42.045  13.482   8.015
 2301POPC   C4B32542  42.139  13.620   7.625
 2302POPC   NC332543  35.316  27.509   9.484
 2302POPC   PO432544  34.817  27.154   9.292
 2302POPC   GL132545  35.073  27.347   9.022
 2302POPC   GL232546  35.199  27.688   9.021
 2302POPC   C1A32547  35.216  27.326   8.625
 2302POPC   D2A32548  35.296  27.562   8.256
 2302POPC   C3A32549  35.446  27.396   7.886
 2302POPC   C4A32550  35.063  27.261   7.783
 2302POPC   C1B32551  35.524  27.763   8.690
 2302POPC   C2B32552  35.594  27.974   8.289
 2302POPC   C3B32553  35.476  27.897   7.869
 2302POPC   C4B32554  35.667  27.733   7.455
 2303POPC   NC332555   7.181  27.580   9.455
 2303POPC   PO432556   7.666  27.972   9.389
 2303POPC   GL132557   7.781  27.627   9.120
 2303POPC   GL232558   7.456  27.440   9.055
 2303POPC   C1A32559   7.806  27.431   8.704
 2303POPC   D2A32560   7.450  27.474   8.412
 2303POPC   C3A32561   7.520  27.653   8.012
 2303POPC   C4A32562   7.844  27.538   7.729
 2303POPC   C1B32563   7.198  27.720   8.789
 2303POPC   C2B32564   7.081  27.906   8.392
 2303POPC   C3B32565   7.149  28.001   7.919
 2303POPC   C4B32566   7.087  27.722   7.609
 2304POPC   NC332567  44.479  13.449   9.454
 2304POPC   PO432568  44.829  13.964   9.629
 2304POPC   GL132569  44.885  13.770   9.215
 2304POPC   GL232570  44.948  13.418   9.221
 2304POPC   C1A32571  44.568  13.753   8.877
 2304POPC   D2A32572  44.362  13.551   8.557
 2304POPC   C3A32573  44.376  13.779   8.155
 2304POPC   C4A32574  44.358  13.670   7.727
 2304POPC   C1B32575  44.921  13.404   8.756
 2304POPC   C2B32576  44.833  13.662   8.367
 2304POPC   C3B32577  44.798  13.534   7.928
 2304POPC   C4B32578  44.870  13.385   7.465
 2305POPC   NC332579  27.138  17.431   9.481
 2305POPC   PO432580  26.463  17.420   9.526
 2305POPC   GL132581  26.730  17.239   9.177
 2305POPC   GL232582  26.936  17.532   9.035
 2305POPC   C1A32583  26.805  17.190   8.709
 2305POPC   D2A32584  27.173  17.303   8.430
 2305POPC   C3A32585  27.051  17.375   7.992
 2305POPC   C4A32586  26.697  17.543   7.738
 2305POPC   C1B32587  27.195  17.749   8.715
 2305POPC   C2B32588  27.319  17.792   8.267
 2305POPC   C3B32589  27.105  17.876   7.876
 2305POPC   C4B32590  26.883  17.984   7.483
 2306POPC   NC332591  34.022  16.655   9.306
 2306POPC   PO432592  34.642  16.844   9.702
 2306POPC   GL132593  34.742  16.833   9.207
 2306POPC   GL232594  34.405  16.948   9.110
 2306POPC   C1A32595  34.940  16.674   8.766
 2306POPC   D2A32596  34.916  16.389   8.364
 2306POPC   C3A32597  34.810  16.550   7.922
 2306POPC   C4A32598  34.426  16.579   7.635
 2306POPC   C1B32599  34.657  17.103   8.752
 2306POPC   C2B32600  34.792  16.976   8.319
 2306POPC   C3B32601  34.558  16.989   7.914
 2306POPC   C4B32602  34.691  17.010   7.511
 2307POPC   NC332603  44.809  36.587   9.485
 2307POPC   PO432604  44.954  37.260   9.421
 2307POPC   GL132605  44.758  37.019   9.083
 2307POPC   GL232606  44.529  36.735   8.908
 2307POPC   C1A32607  44.897  37.001   8.674
 2307POPC   D2A32608  44.675  37.135   8.324
 2307POPC   C3A32609  44.671  36.722   8.114
 2307POPC   C4A32610  44.942  36.577   7.797
 2307POPC   C1B32611  44.374  37.137   8.744
 2307POPC   C2B32612  44.176  37.376   8.413
 2307POPC   C3B32613  44.201  37.319   7.977
 2307POPC   C4B32614  44.563  37.118   7.824
 2308POPC   NC332615  44.562   1.666   9.540
 2308POPC   PO432616  44.785   2.215   9.500
 2308POPC   GL132617  44.593   1.991   9.149
 2308POPC   GL232618  44.867   1.781   9.079
 2308POPC   C1A32619  44.544   1.946   8.705
 2308POPC   D2A32620  44.810   1.844   8.347
 2308POPC   C3A32621  44.634   2.024   7.991
 2308POPC   C4A32622  44.574   1.996   7.542
 2308POPC   C1B32623   0.095   1.592   8.757
 2308POPC   C2B32624   0.235   1.555   8.337
 2308POPC   C3B32625   0.057   1.679   7.914
 2308POPC   C4B32626   0.045   1.815   7.460
 2309POPC   NC332627  32.055  21.318   9.571
 2309POPC   PO432628  32.538  21.754   9.786
 2309POPC   GL132629  32.522  21.715   9.251
 2309POPC   GL232630  32.252  21.483   9.117
 2309POPC   C1A32631  32.526  21.752   8.732
 2309POPC   D2A32632  32.630  21.552   8.271
 2309POPC   C3A32633  32.345  21.632   7.873
 2309POPC   C4A32634  31.896  21.766   7.802
 2309POPC   C1B32635  32.447  21.240   8.768
 2309POPC   C2B32636  32.425  21.074   8.359
 2309POPC   C3B32637  32.172  21.170   8.044
 2309POPC   C4B32638  32.460  21.151   7.749
 2310POPC   NC332639  28.048  34.278   9.147
 2310POPC   PO432640  28.338  34.851   9.447
 2310POPC   GL132641  28.387  34.662   9.057
 2310POPC   GL232642  28.572  34.353   9.084
 2310POPC   C1A32643  28.327  34.605   8.608
 2310POPC   D2A32644  28.407  34.716   8.175
 2310POPC   C3A32645  28.224  34.443   7.852
 2310POPC   C4A32646  28.182  34.071   7.573
 2310POPC   C1B32647  28.544  34.123   8.682
 2310POPC   C2B32648  28.446  34.088   8.230
 2310POPC   C3B32649  28.665  34.202   7.856
 2310POPC   C4B32650  28.720  34.641   7.773
 2311POPC   NC332651  31.091  29.850   9.459
 2311POPC   PO432652  30.478  30.168   9.527
 2311POPC   GL132653  30.654  29.942   9.216
 2311POPC   GL232654  30.394  29.943   9.069
 2311POPC   C1A32655  30.859  29.855   8.825
 2311POPC   D2A32656  30.922  30.146   8.491
 2311POPC   C3A32657  30.862  29.979   8.093
 2311POPC   C4A32658  30.848  29.826   7.685
 2311POPC   C1B32659  30.464  30.239   8.769
 2311POPC   C2B32660  30.195  30.317   8.436
 2311POPC   C3B32661  30.426  30.253   8.071
 2311POPC   C4B32662  30.387  30.074   7.678
 2312POPC   NC332663  18.382  25.675   9.642
 2312POPC   PO432664  18.289  26.319   9.448
 2312POPC   GL132665  18.597  26.217   9.135
 2312POPC   GL232666  18.543  25.875   9.178
 2312POPC   C1A32667  18.468  26.320   8.683
 2312POPC   D2A32668  18.170  26.344   8.347
 2312POPC   C3A32669  18.385  26.321   7.961
 2312POPC   C4A32670  18.235  26.074   7.614
 2312POPC   C1B32671  18.574  25.817   8.715
 2312POPC   C2B32672  18.455  25.884   8.264
 2312POPC   C3B32673  18.532  25.692   7.816
 2312POPC   C4B32674  18.575  25.784   7.355
 2313POPC   NC332675  42.495  12.067   9.347
 2313POPC   PO432676  41.926  12.244   9.579
 2313POPC   GL132677  42.027  12.097   9.147
 2313POPC   GL232678  42.162  12.438   9.172
 2313POPC   C1A32679  42.336  11.928   8.763
 2313POPC   D2A32680  42.527  11.830   8.364
 2313POPC   C3A32681  42.302  12.029   8.017
 2313POPC   C4A32682  42.324  11.907   7.583
 2313POPC   C1B32683  42.054  12.430   8.767
 2313POPC   C2B32684  42.378  12.350   8.455
 2313POPC   C3B32685  42.463  12.518   8.086
 2313POPC   C4B32686  42.570  12.331   7.676
 2314POPC   NC332687  19.931   1.701   9.498
 2314POPC   PO432688  20.001   2.386   9.472
 2314POPC   GL132689  19.999   2.259   9.044
 2314POPC   GL232690  19.961   1.967   9.076
 2314POPC   C1A32691  19.844   2.153   8.618
 2314POPC   D2A32692  19.472   2.046   8.418
 2314POPC   C3A32693  19.564   2.057   8.009
 2314POPC   C4A32694  19.953   2.252   7.873
 2314POPC   C1B32695  20.280   1.908   8.783
 2314POPC   C2B32696  20.163   1.612   8.513
 2314POPC   C3B32697  19.881   1.708   8.208
 2314POPC   C4B32698  19.950   1.740   7.793
 2315POPC   NC332699  28.317  21.002   9.530
 2315POPC   PO432700  28.571  21.629   9.529
 2315POPC   GL132701  28.562  21.370   9.175
 2315POPC   GL232702  28.434  21.031   9.046
 2315POPC   C1A32703  28.421  21.478   8.781
 2315POPC   D2A32704  28.304  21.267   8.436
 2315POPC   C3A32705  28.099  21.429   8.097
 2315POPC   C4A32706  28.235  21.320   7.728
 2315POPC   C1B32707  28.813  21.098   8.823
 2315POPC   C2B32708  28.897  21.138   8.385
 2315POPC   C3B32709  28.621  21.164   8.034
 2315POPC   C4B32710  28.642  20.994   7.633
 2316POPC   NC332711   9.400  44.629   9.697
 2316POPC   PO432712   8.734  44.670   9.744
 2316POPC   GL132713   8.963  44.564   9.326
 2316POPC   GL232714   8.776  44.316   9.116
 2316POPC   C1A32715   9.139  44.560   8.882
 2316POPC   D2A32716   9.319  44.831   8.571
 2316POPC   C3A32717   9.127  44.931   8.168
 2316POPC   C4A32718   9.042  44.753   7.768
 2316POPC   C1B32719   8.626  44.503   8.748
 2316POPC   C2B32720   8.837  44.621   8.437
 2316POPC   C3B32721   8.865  44.415   8.097
 2316POPC   C4B32722   8.571  44.487   7.786
 2317POPC   NC332723  16.350  18.457   9.589
 2317POPC   PO432724  15.723  18.330   9.741
 2317POPC   GL132725  15.902  18.243   9.321
 2317POPC   GL232726  16.009  18.568   9.164
 2317POPC   C1A32727  15.983  18.197   8.849
 2317POPC   D2A32728  16.017  18.502   8.502
 2317POPC   C3A32729  15.984  18.295   8.131
 2317POPC   C4A32730  15.782  18.031   7.844
 2317POPC   C1B32731  16.344  18.703   8.848
 2317POPC   C2B32732  16.509  18.699   8.384
 2317POPC   C3B32733  16.351  18.589   7.958
 2317POPC   C4B32734  15.923  18.531   7.693
 2318POPC   NC332735  34.884  44.498   9.419
 2318POPC   PO432736  34.211  44.862   9.475
 2318POPC   GL132737  34.401  44.714   9.119
 2318POPC   GL232738  34.551  44.369   9.054
 2318POPC   C1A32739  34.431  44.719   8.708
 2318POPC   D2A32740  34.554  44.566   8.339
 2318POPC   C3A32741  34.610  44.886   8.050
 2318POPC   C4A32742  34.515  44.750   7.652
 2318POPC   C1B32743  34.909  44.500   8.733
 2318POPC   C2B32744  35.053  44.687   8.345
 2318POPC   C3B32745  34.931  44.501   7.977
 2318POPC   C4B32746  34.975  44.547   7.574
 2319POPC   NC332747  30.203  19.114   9.555
 2319POPC   PO432748  29.507  19.348   9.440
 2319POPC   GL132749  29.861  19.069   9.176
 2319POPC   GL232750  30.199  18.840   9.129
 2319POPC   C1A32751  30.010  19.188   8.750
 2319POPC   D2A32752  29.723  19.227   8.368
 2319POPC   C3A32753  29.852  19.295   7.946
 2319POPC   C4A32754  29.787  19.338   7.526
 2319POPC   C1B32755  29.914  18.678   8.841
 2319POPC   C2B32756  30.007  18.791   8.423
 2319POPC   C3B32757  30.154  18.910   8.050
 2319POPC   C4B32758  29.956  18.748   7.694
 2320POPC   NC332759  42.502  25.784   9.515
 2320POPC   PO432760  42.126  26.369   9.392
 2320POPC   GL132761  42.415  26.193   9.126
 2320POPC   GL232762  42.371  25.840   9.047
 2320POPC   C1A32763  42.313  26.186   8.688
 2320POPC   D2A32764  42.458  25.989   8.316
 2320POPC   C3A32765  42.257  26.116   7.929
 2320POPC   C4A32766  42.460  26.324   7.579
 2320POPC   C1B32767  42.189  25.663   8.703
 2320POPC   C2B32768  42.327  25.474   8.342
 2320POPC   C3B32769  42.323  25.560   7.912
 2320POPC   C4B32770  42.493  25.810   7.591
 2321POPC   NC332771   6.502  27.987   9.636
 2321POPC   PO432772   6.404  27.302   9.502
 2321POPC   GL132773   6.562  27.633   9.240
 2321POPC   GL232774   6.828  27.434   9.137
 2321POPC   C1A32775   6.688  27.797   8.824
 2321POPC   D2A32776   6.675  27.625   8.437
 2321POPC   C3A32777   6.693  27.854   8.070
 2321POPC   C4A32778   6.600  27.832   7.677
 2321POPC   C1B32779   7.033  27.228   8.824
 2321POPC   C2B32780   7.038  27.182   8.401
 2321POPC   C3B32781   7.008  27.444   8.053
 2321POPC   C4B32782   6.780  27.320   7.682
 2322POPC   NC332783  12.300  33.478   9.536
 2322POPC   PO432784  12.078  34.087   9.548
 2322POPC   GL132785  12.070  33.792   9.191
 2322POPC   GL232786  11.751  33.677   9.036
 2322POPC   C1A32787  12.257  33.610   8.821
 2322POPC   D2A32788  12.517  33.682   8.453
 2322POPC   C3A32789  12.310  33.815   8.079
 2322POPC   C4A32790  12.050  33.805   7.702
 2322POPC   C1B32791  11.735  33.583   8.601
 2322POPC   C2B32792  11.818  33.642   8.149
 2322POPC   C3B32793  11.692  33.463   7.743
 2322POPC   C4B32794  11.584  33.781   7.416
 2323POPC   NC332795   6.057  34.086   9.542
 2323POPC   PO432796   6.090  33.408   9.549
 2323POPC   GL132797   5.891  33.545   9.210
 2323POPC   GL232798   5.788  33.903   9.153
 2323POPC   C1A32799   6.067  33.612   8.823
 2323POPC   D2A32800   5.983  33.858   8.476
 2323POPC   C3A32801   6.016  33.642   8.069
 2323POPC   C4A32802   5.715  33.621   7.759
 2323POPC   C1B32803   5.527  34.013   8.812
 2323POPC   C2B32804   5.509  34.166   8.418
 2323POPC   C3B32805   5.722  34.065   8.065
 2323POPC   C4B32806   5.545  34.086   7.687
 2324POPC   NC332807  28.019  18.303   9.751
 2324POPC   PO432808  28.643  18.132   9.457
 2324POPC   GL132809  28.271  18.344   9.278
 2324POPC   GL232810  28.285  18.086   9.035
 2324POPC   C1A32811  28.245  18.582   8.873
 2324POPC   D2A32812  28.251  18.257   8.548
 2324POPC   C3A32813  28.380  18.288   8.125
 2324POPC   C4A32814  28.491  18.178   7.678
 2324POPC   C1B32815  28.571  17.835   8.795
 2324POPC   C2B32816  28.743  17.999   8.446
 2324POPC   C3B32817  28.726  17.917   8.053
 2324POPC   C4B32818  28.999  17.956   7.772
 2325POPC   NC332819  32.757  27.960   9.776
 2325POPC   PO432820  33.220  28.226   9.362
 2325POPC   GL132821  32.921  28.156   9.068
 2325POPC   GL232822  32.846  28.467   8.980
 2325POPC   C1A32823  32.678  28.139   8.658
 2325POPC   D2A32824  32.710  28.343   8.273
 2325POPC   C3A32825  32.851  28.180   7.914
 2325POPC   C4A32826  33.215  28.229   7.690
 2325POPC   C1B32827  32.746  28.710   8.653
 2325POPC   C2B32828  32.927  28.807   8.267
 2325POPC   C3B32829  32.993  28.742   7.837
 2325POPC   C4B32830  33.200  28.736   7.429
 2326POPC   NC332831  43.371   4.763   9.476
 2326POPC   PO432832  43.276   4.039   9.477
 2326POPC   GL132833  43.094   4.261   9.093
 2326POPC   GL232834  43.294   4.551   9.022
 2326POPC   C1A32835  42.803   4.222   8.718
 2326POPC   D2A32836  42.677   4.327   8.293
 2326POPC   C3A32837  42.975   4.244   7.919
 2326POPC   C4A32838  42.991   4.290   7.447
 2326POPC   C1B32839  43.061   4.659   8.668
 2326POPC   C2B32840  43.101   4.621   8.229
 2326POPC   C3B32841  43.418   4.533   7.888
 2326POPC   C4B32842  43.459   4.495   7.414
 2327POPC   NC332843  30.846  23.418   9.438
 2327POPC   PO432844  30.894  24.042   9.398
 2327POPC   GL132845  30.619  23.948   9.101
 2327POPC   GL232846  30.672  23.586   8.994
 2327POPC   C1A32847  30.426  23.932   8.707
 2327POPC   D2A32848  30.491  23.587   8.462
 2327POPC   C3A32849  30.453  23.614   8.019
 2327POPC   C4A32850  30.823  23.769   7.805
 2327POPC   C1B32851  30.933  23.374   8.691
 2327POPC   C2B32852  31.179  23.280   8.336
 2327POPC   C3B32853  31.115  23.372   7.934
 2327POPC   C4B32854  30.738  23.241   7.799
 2328POPC   NC332855  44.466  39.222   9.343
 2328POPC   PO432856  44.995  38.839   9.547
 2328POPC   GL132857  44.819  38.903   9.127
 2328POPC   GL232858  44.886  39.247   9.016
 2328POPC   C1A32859  44.700  38.959   8.664
 2328POPC   D2A32860  44.980  39.105   8.348
 2328POPC   C3A32861  44.975  38.898   7.941
 2328POPC   C4A32862  44.962  39.107   7.607
 2328POPC   C1B32863  44.674  39.518   8.714
 2328POPC   C2B32864  44.554  39.404   8.303
 2328POPC   C3B32865  44.821  39.456   7.991
 2328POPC   C4B32866  44.705  39.559   7.608
 2329POPC   NC332867  22.432  34.014   9.820
 2329POPC   PO432868  21.859  33.859   9.529
 2329POPC   GL132869  22.091  33.725   9.184
 2329POPC   GL232870  22.073  34.001   9.029
 2329POPC   C1A32871  22.123  33.590   8.736
 2329POPC   D2A32872  22.297  33.774   8.361
 2329POPC   C3A32873  22.112  33.819   7.938
 2329POPC   C4A32874  21.983  33.516   7.631
 2329POPC   C1B32875  21.960  34.319   8.716
 2329POPC   C2B32876  21.978  34.192   8.319
 2329POPC   C3B32877  21.817  34.242   7.934
 2329POPC   C4B32878  21.885  34.461   7.587
 2330POPC   NC332879  21.105   8.841   9.553
 2330POPC   PO432880  21.717   8.974   9.570
 2330POPC   GL132881  21.484   8.853   9.174
 2330POPC   GL232882  21.199   9.113   9.134
 2330POPC   C1A32883  21.514   8.884   8.705
 2330POPC   D2A32884  21.501   8.647   8.301
 2330POPC   C3A32885  21.486   8.939   7.954
 2330POPC   C4A32886  21.704   9.015   7.559
 2330POPC   C1B32887  21.215   9.322   8.732
 2330POPC   C2B32888  21.060   9.487   8.328
 2330POPC   C3B32889  21.136   9.365   7.925
 2330POPC   C4B32890  20.956   9.065   7.696
 2331POPC   NC332891   1.673   5.432   9.453
 2331POPC   PO432892   1.841   4.800   9.277
 2331POPC   GL132893   2.186   5.005   9.079
 2331POPC   GL232894   2.144   5.362   9.170
 2331POPC   C1A32895   2.240   5.081   8.626
 2331POPC   D2A32896   1.861   5.207   8.350
 2331POPC   C3A32897   1.834   4.950   7.953
 2331POPC   C4A32898   2.204   4.683   7.762
 2331POPC   C1B32899   2.074   5.529   8.758
 2331POPC   C2B32900   2.235   5.571   8.345
 2331POPC   C3B32901   2.117   5.410   7.958
 2331POPC   C4B32902   2.232   5.389   7.542
 2332POPC   NC332903   8.294   8.532   9.571
 2332POPC   PO432904   8.403   7.878   9.691
 2332POPC   GL132905   8.380   8.139   9.211
 2332POPC   GL232906   8.409   8.492   9.101
 2332POPC   C1A32907   8.121   8.284   8.774
 2332POPC   D2A32908   8.266   8.378   8.335
 2332POPC   C3A32909   8.029   8.433   7.954
 2332POPC   C4A32910   7.829   8.079   7.787
 2332POPC   C1B32911   8.533   8.609   8.710
 2332POPC   C2B32912   8.637   8.754   8.282
 2332POPC   C3B32913   8.562   8.510   7.910
 2332POPC   C4B32914   8.382   8.456   7.509
 2333POPC   NC332915  30.596  21.888   9.426
 2333POPC   PO432916  31.039  22.377   9.540
 2333POPC   GL132917  30.851  22.299   9.183
 2333POPC   GL232918  30.515  22.410   9.243
 2333POPC   C1A32919  30.968  22.130   8.776
 2333POPC   D2A32920  30.720  21.969   8.437
 2333POPC   C3A32921  30.925  22.038   8.087
 2333POPC   C4A32922  30.965  22.386   7.827
 2333POPC   C1B32923  30.459  22.214   8.834
 2333POPC   C2B32924  30.287  22.270   8.428
 2333POPC   C3B32925  30.385  22.136   8.021
 2333POPC   C4B32926  30.146  21.905   7.677
 2334POPC   NC332927  29.187  37.862   9.534
 2334POPC   PO432928  29.196  37.305   9.697
 2334POPC   GL132929  29.081  37.569   9.163
 2334POPC   GL232930  29.035  37.912   9.064
 2334POPC   C1A32931  29.229  37.496   8.730
 2334POPC   D2A32932  29.266  37.210   8.380
 2334POPC   C3A32933  29.066  37.345   8.026
 2334POPC   C4A32934  29.323  37.604   7.799
 2334POPC   C1B32935  29.183  37.998   8.682
 2334POPC   C2B32936  28.989  37.780   8.337
 2334POPC   C3B32937  28.793  37.781   7.940
 2334POPC   C4B32938  28.972  37.876   7.573
 2335POPC   NC332939  32.586  14.679   9.863
 2335POPC   PO432940  32.019  14.324   9.546
 2335POPC   GL132941  32.298  14.298   9.162
 2335POPC   GL232942  32.366  14.640   9.149
 2335POPC   C1A32943  32.291  14.068   8.774
 2335POPC   D2A32944  32.027  14.024   8.392
 2335POPC   C3A32945  32.210  14.124   7.999
 2335POPC   C4A32946  32.372  14.195   7.586
 2335POPC   C1B32947  32.469  14.543   8.723
 2335POPC   C2B32948  32.316  14.487   8.328
 2335POPC   C3B32949  32.320  14.632   7.904
 2335POPC   C4B32950  31.977  14.905   7.744
 2336POPC   NC332951  18.288  19.670   9.458
 2336POPC   PO432952  18.064  20.319   9.417
 2336POPC   GL132953  18.184  20.029   9.058
 2336POPC   GL232954  18.506  19.824   9.029
 2336POPC   C1A32955  18.376  20.064   8.602
 2336POPC   D2A32956  18.175  20.114   8.194
 2336POPC   C3A32957  18.358  20.040   7.794
 2336POPC   C4A32958  18.154  19.783   7.467
 2336POPC   C1B32959  18.163  19.627   8.770
 2336POPC   C2B32960  18.040  19.640   8.343
 2336POPC   C3B32961  18.195  19.566   7.929
 2336POPC   C4B32962  18.621  19.578   7.719
 2337POPC   NC332963  37.924   2.609   9.607
 2337POPC   PO432964  37.516   3.125   9.463
 2337POPC   GL132965  37.576   2.806   9.180
 2337POPC   GL232966  37.311   2.579   9.063
 2337POPC   C1A32967  37.705   2.709   8.770
 2337POPC   D2A32968  37.564   2.676   8.343
 2337POPC   C3A32969  37.739   2.965   8.010
 2337POPC   C4A32970  37.821   2.764   7.594
 2337POPC   C1B32971  37.245   2.895   8.697
 2337POPC   C2B32972  37.289   3.065   8.225
 2337POPC   C3B32973  37.293   2.768   7.851
 2337POPC   C4B32974  37.354   2.819   7.378
 2338POPC   NC332975  10.189  19.399   9.491
 2338POPC   PO432976  10.475  18.747   9.556
 2338POPC   GL132977  10.385  18.873   9.147
 2338POPC   GL232978  10.469  19.214   9.115
 2338POPC   C1A32979  10.387  18.944   8.696
 2338POPC   D2A32980  10.432  19.224   8.386
 2338POPC   C3A32981  10.557  19.051   8.005
 2338POPC   C4A32982  10.330  19.172   7.653
 2338POPC   C1B32983  10.678  19.413   8.775
 2338POPC   C2B32984  10.835  19.528   8.397
 2338POPC   C3B32985  10.802  19.663   8.026
 2338POPC   C4B32986  10.802  19.403   7.702
 2339POPC   NC332987  43.711  37.901   9.600
 2339POPC   PO432988  43.983  37.290   9.521
 2339POPC   GL132989  43.812  37.556   9.240
 2339POPC   GL232990  43.546  37.359   9.177
 2339POPC   C1A32991  43.881  37.828   8.878
 2339POPC   D2A32992  43.729  37.748   8.476
 2339POPC   C3A32993  43.959  37.781   8.133
 2339POPC   C4A32994  43.889  37.757   7.728
 2339POPC   C1B32995  43.816  37.334   8.780
 2339POPC   C2B32996  43.695  37.247   8.312
 2339POPC   C3B32997  43.688  37.288   7.838
 2339POPC   C4B32998  43.683  37.424   7.389
 2340POPC   NC332999  35.518  42.803   9.468
 2340POPC   PO433000  35.257  43.439   9.577
 2340POPC   GL133001  35.182  43.174   9.222
 2340POPC   GL233002  35.466  43.150   9.103
 2340POPC   C1A33003  35.097  43.055   8.770
 2340POPC   D2A33004  35.241  42.861   8.364
 2340POPC   C3A33005  35.238  43.052   7.949
 2340POPC   C4A33006  35.471  43.413   7.738
 2340POPC   C1B33007  35.606  43.080   8.699
 2340POPC   C2B33008  35.761  43.218   8.315
 2340POPC   C3B33009  35.755  43.054   7.894
 2340POPC   C4B33010  35.690  43.031   7.441
 2341POPC   NC333011   5.060  24.061   9.346
 2341POPC   PO433012   5.541  24.561   9.484
 2341POPC   GL133013   5.300  24.516   9.100
 2341POPC   GL233014   4.926  24.582   9.022
 2341POPC   C1A33015   5.318  24.653   8.680
 2341POPC   D2A33016   5.342  24.436   8.297
 2341POPC   C3A33017   5.238  24.696   7.950
 2341POPC   C4A33018   5.060  24.695   7.539
 2341POPC   C1B33019   5.013  24.240   8.676
 2341POPC   C2B33020   4.917  24.105   8.246
 2341POPC   C3B33021   4.934  24.285   7.826
 2341POPC   C4B33022   4.833  24.232   7.370
 2342POPC   NC333023   7.200  39.301   9.887
 2342POPC   PO433024   7.474  39.935   9.570
 2342POPC   GL133025   7.344  39.930   9.125
 2342POPC   GL233026   7.128  40.210   9.114
 2342POPC   C1A33027   7.418  39.715   8.735
 2342POPC   D2A33028   7.650  39.737   8.340
 2342POPC   C3A33029   7.473  39.778   7.920
 2342POPC   C4A33030   7.458  40.103   7.611
 2342POPC   C1B33031   7.395  40.249   8.713
 2342POPC   C2B33032   7.568  40.285   8.289
 2342POPC   C3B33033   7.388  40.505   7.918
 2342POPC   C4B33034   7.267  40.527   7.442
 2343POPC   NC333035  14.650  43.940   9.293
 2343POPC   PO433036  14.129  43.510   9.364
 2343POPC   GL133037  14.335  43.675   9.016
 2343POPC   GL233038  14.229  44.017   8.934
 2343POPC   C1A33039  14.511  43.765   8.607
 2343POPC   D2A33040  14.280  44.124   8.422
 2343POPC   C3A33041  14.061  44.083   8.064
 2343POPC   C4A33042  14.320  44.012   7.671
 2343POPC   C1B33043  14.653  44.222   8.754
 2343POPC   C2B33044  14.857  44.132   8.403
 2343POPC   C3B33045  14.624  43.907   8.100
 2343POPC   C4B33046  14.767  43.755   7.738
 2344POPC   NC333047  17.878   8.138   9.378
 2344POPC   PO433048  18.036   8.776   9.355
 2344POPC   GL133049  17.749   8.518   9.072
 2344POPC   GL233050  17.391   8.428   9.163
 2344POPC   C1A33051  17.731   8.258   8.710
 2344POPC   D2A33052  17.573   8.314   8.298
 2344POPC   C3A33053  17.519   8.007   8.001
 2344POPC   C4A33054  17.843   7.916   7.703
 2344POPC   C1B33055  17.347   8.604   8.743
 2344POPC   C2B33056  17.205   8.658   8.329
 2344POPC   C3B33057  17.393   8.634   7.909
 2344POPC   C4B33058  17.183   8.503   7.546
 2345POPC   NC333059  10.625  24.147   9.520
 2345POPC   PO433060  10.380  23.569   9.498
 2345POPC   GL133061  10.355  23.712   9.082
 2345POPC   GL233062  10.334  24.065   9.099
 2345POPC   C1A33063  10.484  23.649   8.625
 2345POPC   D2A33064  10.583  23.494   8.223
 2345POPC   C3A33065  10.395  23.739   7.934
 2345POPC   C4A33066  10.032  23.931   7.772
 2345POPC   C1B33067  10.559  24.139   8.710
 2345POPC   C2B33068  10.437  24.135   8.259
 2345POPC   C3B33069  10.713  24.144   7.860
 2345POPC   C4B33070  10.918  23.886   7.525
 2346POPC   NC333071  33.355  33.988   9.671
 2346POPC   PO433072  33.913  33.832   9.460
 2346POPC   GL133073  33.554  33.933   9.199
 2346POPC   GL233074  33.460  33.582   9.256
 2346POPC   C1A33075  33.483  34.121   8.779
 2346POPC   D2A33076  33.704  33.953   8.408
 2346POPC   C3A33077  33.586  33.988   7.968
 2346POPC   C4A33078  33.941  33.922   7.690
 2346POPC   C1B33079  33.381  33.624   8.820
 2346POPC   C2B33080  33.232  33.786   8.432
 2346POPC   C3B33081  33.378  33.530   8.082
 2346POPC   C4B33082  33.566  33.548   7.674
 2347POPC   NC333083  22.830  33.177   9.964
 2347POPC   PO433084  23.301  33.336   9.644
 2347POPC   GL133085  23.036  33.366   9.215
 2347POPC   GL233086  22.680  33.271   9.258
 2347POPC   C1A33087  23.048  33.285   8.730
 2347POPC   D2A33088  22.882  32.967   8.398
 2347POPC   C3A33089  23.002  32.900   7.932
 2347POPC   C4A33090  22.835  32.864   7.485
 2347POPC   C1B33091  22.537  33.260   8.811
 2347POPC   C2B33092  22.675  33.432   8.408
 2347POPC   C3B33093  22.889  33.378   8.027
 2347POPC   C4B33094  22.686  33.324   7.633
 2348POPC   NC333095  38.020  26.639   9.593
 2348POPC   PO433096  37.478  27.069   9.738
 2348POPC   GL133097  37.527  26.920   9.303
 2348POPC   GL233098  37.602  26.592   9.287
 2348POPC   C1A33099  37.500  26.888   8.823
 2348POPC   D2A33100  37.424  26.783   8.358
 2348POPC   C3A33101  37.578  27.021   7.979
 2348POPC   C4A33102  37.436  26.943   7.511
 2348POPC   C1B33103  37.918  26.589   8.942
 2348POPC   C2B33104  38.013  26.617   8.494
 2348POPC   C3B33105  37.989  26.572   8.030
 2348POPC   C4B33106  37.906  26.809   7.659
 2349POPC   NC333107  41.210   7.250   9.484
 2349POPC   PO433108  40.516   7.392   9.470
 2349POPC   GL133109  40.652   7.381   9.098
 2349POPC   GL233110  40.986   7.466   9.085
 2349POPC   C1A33111  40.693   7.298   8.694
 2349POPC   D2A33112  40.666   7.509   8.307
 2349POPC   C3A33113  40.779   7.222   7.956
 2349POPC   C4A33114  40.946   7.066   7.550
 2349POPC   C1B33115  40.965   7.725   8.721
 2349POPC   C2B33116  41.129   7.788   8.349
 2349POPC   C3B33117  40.989   7.962   7.994
 2349POPC   C4B33118  40.682   7.727   7.851
 2350POPC   NC333119   9.665  22.570   9.563
 2350POPC   PO433120  10.065  21.980   9.583
 2350POPC   GL133121   9.904  21.975   9.178
 2350POPC   GL233122   9.637  22.208   9.197
 2350POPC   C1A33123   9.735  21.964   8.764
 2350POPC   D2A33124   9.649  21.763   8.375
 2350POPC   C3A33125   9.890  21.868   8.011
 2350POPC   C4A33126  10.011  21.869   7.585
 2350POPC   C1B33127   9.479  22.450   8.813
 2350POPC   C2B33128   9.449  22.302   8.376
 2350POPC   C3B33129   9.611  22.307   7.935
 2350POPC   C4B33130   9.300  22.367   7.537
 2351POPC   NC333131  27.303  19.859   9.515
 2351POPC   PO433132  27.933  19.596   9.573
 2351POPC   GL133133  27.707  19.643   9.225
 2351POPC   GL233134  27.687  19.983   9.193
 2351POPC   C1A33135  27.671  19.431   8.827
 2351POPC   D2A33136  27.432  19.382   8.440
 2351POPC   C3A33137  27.544  19.574   8.059
 2351POPC   C4A33138  27.706  19.605   7.659
 2351POPC   C1B33139  27.594  20.099   8.764
 2351POPC   C2B33140  27.681  20.229   8.322
 2351POPC   C3B33141  27.666  20.069   7.876
 2351POPC   C4B33142  27.688  20.033   7.400
 2352POPC   NC333143  14.447  43.644   9.668
 2352POPC   PO433144  14.170  43.033   9.694
 2352POPC   GL133145  14.269  43.024   9.215
 2352POPC   GL233146  14.565  43.270   9.205
 2352POPC   C1A33147  14.486  42.837   8.849
 2352POPC   D2A33148  14.352  42.745   8.420
 2352POPC   C3A33149  14.204  42.982   8.071
 2352POPC   C4A33150  14.278  42.793   7.704
 2352POPC   C1B33151  14.666  43.319   8.803
 2352POPC   C2B33152  14.479  43.270   8.400
 2352POPC   C3B33153  14.521  43.368   7.951
 2352POPC   C4B33154  14.799  43.271   7.593
 2353POPC   NC333155  39.786  21.352   9.487
 2353POPC   PO433156  40.082  21.905   9.618
 2353POPC   GL133157  40.178  21.641   9.237
 2353POPC   GL233158  40.244  21.256   9.187
 2353POPC   C1A33159  39.935  21.572   8.887
 2353POPC   D2A33160  40.064  21.572   8.497
 2353POPC   C3A33161  39.876  21.627   8.145
 2353POPC   C4A33162  40.241  21.642   7.886
 2353POPC   C1B33163  40.140  21.114   8.731
 2353POPC   C2B33164  40.135  21.117   8.251
 2353POPC   C3B33165  39.963  21.202   7.831
 2353POPC   C4B33166  39.728  21.222   7.401
 2354POPC   NC333167  30.275   5.536   9.637
 2354POPC   PO433168  30.724   5.847   9.545
 2354POPC   GL133169  30.866   5.830   9.121
 2354POPC   GL233170  30.780   5.501   9.120
 2354POPC   C1A33171  30.848   5.964   8.685
 2354POPC   D2A33172  30.727   5.749   8.294
 2354POPC   C3A33173  30.734   5.970   7.903
 2354POPC   C4A33174  30.466   6.029   7.551
 2354POPC   C1B33175  30.980   5.474   8.708
 2354POPC   C2B33176  31.043   5.335   8.269
 2354POPC   C3B33177  31.052   5.585   7.904
 2354POPC   C4B33178  31.341   5.657   7.547
 2355POPC   NC333179   4.517  21.067   9.604
 2355POPC   PO433180   4.034  21.456   9.549
 2355POPC   GL133181   4.207  21.368   9.155
 2355POPC   GL233182   4.555  21.388   9.184
 2355POPC   C1A33183   4.197  21.492   8.710
 2355POPC   D2A33184   4.025  21.488   8.267
 2355POPC   C3A33185   4.061  21.230   7.916
 2355POPC   C4A33186   4.153  21.379   7.512
 2355POPC   C1B33187   4.728  21.360   8.747
 2355POPC   C2B33188   4.721  21.522   8.288
 2355POPC   C3B33189   4.533  21.443   7.859
 2355POPC   C4B33190   4.642  21.295   7.392
 2356POPC   NC333191   8.629   0.127   9.792
 2356POPC   PO433192   8.024   0.265   9.531
 2356POPC   GL133193   8.327   0.256   9.229
 2356POPC   GL233194   8.059   0.364   9.031
 2356POPC   C1A33195   8.484   0.356   8.807
 2356POPC   D2A33196   8.153   0.355   8.511
 2356POPC   C3A33197   8.351   0.419   8.167
 2356POPC   C4A33198   8.282   0.264   7.798
 2356POPC   C1B33199   7.791   0.116   8.807
 2356POPC   C2B33200   7.661   0.261   8.415
 2356POPC   C3B33201   7.821   0.156   8.037
 2356POPC   C4B33202   7.701   0.405   7.714
 2357POPC   NC333203   3.045   5.100   9.410
 2357POPC   PO433204   2.635   4.646   9.616
 2357POPC   GL133205   2.690   4.851   9.142
 2357POPC   GL233206   2.651   5.247   9.092
 2357POPC   C1A33207   2.981   5.052   8.757
 2357POPC   D2A33208   3.068   5.286   8.362
 2357POPC   C3A33209   3.058   5.138   7.915
 2357POPC   C4A33210   2.679   4.893   7.771
 2357POPC   C1B33211   2.640   5.493   8.684
 2357POPC   C2B33212   2.730   5.657   8.247
 2357POPC   C3B33213   2.621   5.391   7.906
 2357POPC   C4B33214   2.754   5.334   7.467
 2358POPC   NC333215  26.624  25.803   9.918
 2358POPC   PO433216  27.158  25.893   9.438
 2358POPC   GL133217  26.803  26.047   9.198
 2358POPC   GL233218  26.994  26.183   8.935
 2358POPC   C1A33219  26.557  25.967   8.791
 2358POPC   D2A33220  26.749  25.983   8.369
 2358POPC   C3A33221  26.551  26.015   7.972
 2358POPC   C4A33222  26.576  25.918   7.479
 2358POPC   C1B33223  26.871  26.445   8.569
 2358POPC   C2B33224  26.865  26.436   8.096
 2358POPC   C3B33225  26.967  26.141   7.726
 2358POPC   C4B33226  26.943  26.223   7.258
 2359POPC   NC333227  28.591  30.254   9.292
 2359POPC   PO433228  28.814  29.573   9.318
 2359POPC   GL133229  28.509  29.809   9.069
 2359POPC   GL233230  28.165  29.961   9.195
 2359POPC   C1A33231  28.233  29.770   8.720
 2359POPC   D2A33232  28.015  29.574   8.390
 2359POPC   C3A33233  28.266  29.705   8.027
 2359POPC   C4A33234  28.588  29.773   7.710
 2359POPC   C1B33235  28.159  30.287   8.830
 2359POPC   C2B33236  28.404  30.367   8.459
 2359POPC   C3B33237  28.467  30.205   8.041
 2359POPC   C4B33238  28.246  30.151   7.654
 2360POPC   NC333239   3.613  29.513   9.334
 2360POPC   PO433240   3.728  28.875   9.354
 2360POPC   GL133241   3.528  29.058   9.024
 2360POPC   GL233242   3.770  29.303   8.899
 2360POPC   C1A33243   3.589  28.935   8.608
 2360POPC   D2A33244   3.722  29.084   8.233
 2360POPC   C3A33245   3.589  28.875   7.892
 2360POPC   C4A33246   3.333  29.035   7.584
 2360POPC   C1B33247   3.453  29.444   8.566
 2360POPC   C2B33248   3.328  29.378   8.110
 2360POPC   C3B33249   3.670  29.397   7.790
 2360POPC   C4B33250   3.928  29.633   7.480
 2361POPC   NC333251  33.212   4.070   9.505
 2361POPC   PO433252  33.095   3.393   9.509
 2361POPC   GL133253  33.143   3.442   9.081
 2361POPC   GL233254  33.123   3.790   9.093
 2361POPC   C1A33255  33.180   3.486   8.646
 2361POPC   D2A33256  32.964   3.277   8.300
 2361POPC   C3A33257  33.036   3.411   7.892
 2361POPC   C4A33258  33.266   3.135   7.610
 2361POPC   C1B33259  32.874   3.894   8.759
 2361POPC   C2B33260  32.842   3.754   8.357
 2361POPC   C3B33261  32.692   3.806   7.987
 2361POPC   C4B33262  32.973   3.893   7.680
 2362POPC   NC333263  31.824   1.293   9.546
 2362POPC   PO433264  32.488   1.213   9.572
 2362POPC   GL133265  32.317   1.283   9.174
 2362POPC   GL233266  32.060   1.532   9.128
 2362POPC   C1A33267  32.520   1.294   8.783
 2362POPC   D2A33268  32.556   1.033   8.430
 2362POPC   C3A33269  32.554   1.223   8.057
 2362POPC   C4A33270  32.361   1.199   7.679
 2362POPC   C1B33271  32.014   1.211   8.727
 2362POPC   C2B33272  31.810   1.063   8.297
 2362POPC   C3B33273  31.887   1.063   7.841
 2362POPC   C4B33274  32.046   0.830   7.493
 2363POPC   NC333275  30.795  19.539   9.616
 2363POPC   PO433276  30.655  18.882   9.521
 2363POPC   GL133277  30.654  19.125   9.148
 2363POPC   GL233278  30.344  19.334   9.119
 2363POPC   C1A33279  30.829  19.000   8.719
 2363POPC   D2A33280  30.982  19.083   8.278
 2363POPC   C3A33281  30.692  19.045   7.891
 2363POPC   C4A33282  30.734  19.219   7.428
 2363POPC   C1B33283  30.535  19.413   8.740
 2363POPC   C2B33284  30.489  19.196   8.347
 2363POPC   C3B33285  30.352  19.401   7.948
 2363POPC   C4B33286  30.257  19.148   7.590
 2364POPC   NC333287  15.588  29.420   9.500
 2364POPC   PO433288  15.098  28.979   9.369
 2364POPC   GL133289  15.111  29.315   9.086
 2364POPC   GL233290  15.072  29.680   9.196
 2364POPC   C1A33291  15.138  29.211   8.652
 2364POPC   D2A33292  15.275  29.198   8.260
 2364POPC   C3A33293  15.094  29.027   7.962
 2364POPC   C4A33294  15.381  29.011   7.668
 2364POPC   C1B33295  14.952  29.671   8.745
 2364POPC   C2B33296  14.898  29.531   8.271
 2364POPC   C3B33297  15.022  29.492   7.782
 2364POPC   C4B33298  14.906  29.599   7.300
 2365POPC   NC333299  10.369  37.915   9.586
 2365POPC   PO433300  10.319  38.610   9.653
 2365POPC   GL133301  10.513  38.651   9.243
 2365POPC   GL233302  10.515  38.277   9.216
 2365POPC   C1A33303  10.686  38.564   8.825
 2365POPC   D2A33304  10.559  38.341   8.461
 2365POPC   C3A33305  10.437  38.583   8.117
 2365POPC   C4A33306  10.533  38.490   7.702
 2365POPC   C1B33307  10.229  38.294   8.857
 2365POPC   C2B33308  10.054  38.253   8.416
 2365POPC   C3B33309  10.194  38.157   7.975
 2365POPC   C4B33310  10.200  38.181   7.522
 2366POPC   NC333311   7.294  23.091   9.627
 2366POPC   PO433312   7.758  22.691   9.585
 2366POPC   GL133313   7.487  22.801   9.226
 2366POPC   GL233314   7.599  23.143   9.157
 2366POPC   C1A33315   7.328  22.779   8.785
 2366POPC   D2A33316   7.543  22.960   8.431
 2366POPC   C3A33317   7.443  22.798   8.042
 2366POPC   C4A33318   7.619  22.999   7.732
 2366POPC   C1B33319   7.192  23.230   8.954
 2366POPC   C2B33320   7.066  23.157   8.499
 2366POPC   C3B33321   7.196  23.246   8.064
 2366POPC   C4B33322   6.986  23.232   7.677
 2367POPC   NC333323  12.539  10.483   9.459
 2367POPC   PO433324  13.197  10.494   9.435
 2367POPC   GL133325  12.912  10.495   9.085
 2367POPC   GL233326  12.796  10.153   9.115
 2367POPC   C1A33327  12.735  10.427   8.661
 2367POPC   D2A33328  12.830  10.479   8.229
 2367POPC   C3A33329  13.021  10.815   8.014
 2367POPC   C4A33330  12.936  10.887   7.595
 2367POPC   C1B33331  13.039   9.996   8.755
 2367POPC   C2B33332  12.928   9.992   8.314
 2367POPC   C3B33333  12.769  10.108   7.866
 2367POPC   C4B33334  12.798  10.393   7.496
 2368POPC   NC333335  35.232  21.260   9.442
 2368POPC   PO433336  35.329  21.887   9.559
 2368POPC   GL133337  35.231  21.724   9.186
 2368POPC   GL233338  35.547  21.617   9.136
 2368POPC   C1A33339  35.166  21.796   8.754
 2368POPC   D2A33340  35.227  21.581   8.367
 2368POPC   C3A33341  34.915  21.295   8.180
 2368POPC   C4A33342  34.948  21.174   7.728
 2368POPC   C1B33343  35.431  21.325   8.791
 2368POPC   C2B33344  35.483  21.126   8.371
 2368POPC   C3B33345  35.380  21.295   7.962
 2368POPC   C4B33346  35.540  21.208   7.583
 2369POPC   NC333347  11.047  13.398   9.413
 2369POPC   PO433348  11.525  13.777   9.374
 2369POPC   GL133349  11.387  13.565   9.073
 2369POPC   GL233350  11.127  13.803   9.059
 2369POPC   C1A33351  11.551  13.507   8.704
 2369POPC   D2A33352  11.266  13.480   8.404
 2369POPC   C3A33353  11.339  13.798   8.120
 2369POPC   C4A33354  11.391  13.610   7.755
 2369POPC   C1B33355  10.894  13.580   8.774
 2369POPC   C2B33356  10.761  13.586   8.363
 2369POPC   C3B33357  10.957  13.488   7.976
 2369POPC   C4B33358  10.864  13.497   7.548
 2370POPC   NC333359   8.349  33.648   9.473
 2370POPC   PO433360   7.973  34.094   9.500
 2370POPC   GL133361   8.175  34.056   9.103
 2370POPC   GL233362   8.418  33.793   9.006
 2370POPC   C1A33363   8.180  34.036   8.656
 2370POPC   D2A33364   8.308  33.706   8.422
 2370POPC   C3A33365   8.387  33.847   8.033
 2370POPC   C4A33366   8.130  33.928   7.684
 2370POPC   C1B33367   8.535  33.412   8.786
 2370POPC   C2B33368   8.376  33.170   8.437
 2370POPC   C3B33369   8.463  33.323   8.035
 2370POPC   C4B33370   8.424  33.523   7.638
 2371POPC   NC333371  17.804  31.837   9.483
 2371POPC   PO433372  18.009  31.234   9.542
 2371POPC   GL133373  17.590  31.394   9.280
 2371POPC   GL233374  17.594  31.724   9.051
 2371POPC   C1A33375  17.429  31.319   8.836
 2371POPC   D2A33376  17.673  31.415   8.465
 2371POPC   C3A33377  17.506  31.327   8.052
 2371POPC   C4A33378  17.524  31.043   7.693
 2371POPC   C1B33379  17.374  31.843   8.689
 2371POPC   C2B33380  17.472  31.843   8.263
 2371POPC   C3B33381  17.634  31.789   7.852
 2371POPC   C4B33382  17.666  31.824   7.402
 2372POPC   NC333383   8.137  12.325   9.580
 2372POPC   PO433384   8.053  11.681   9.362
 2372POPC   GL133385   8.201  12.057   9.130
 2372POPC   GL233386   8.490  11.973   9.012
 2372POPC   C1A33387   8.071  12.216   8.701
 2372POPC   D2A33388   7.998  12.087   8.306
 2372POPC   C3A33389   8.154  12.318   8.008
 2372POPC   C4A33390   7.944  12.433   7.679
 2372POPC   C1B33391   8.325  11.790   8.634
 2372POPC   C2B33392   8.444  11.875   8.185
 2372POPC   C3B33393   8.274  11.863   7.747
 2372POPC   C4B33394   8.401  11.750   7.299
 2373POPC   NC333395  23.277  44.170   9.346
 2373POPC   PO433396  23.927  43.992   9.496
 2373POPC   GL133397  23.783  43.839   9.154
 2373POPC   GL233398  23.483  43.682   9.220
 2373POPC   C1A33399  23.734  43.954   8.746
 2373POPC   D2A33400  23.925  44.191   8.438
 2373POPC   C3A33401  23.717  44.304   8.037
 2373POPC   C4A33402  23.729  44.057   7.679
 2373POPC   C1B33403  23.551  43.490   8.822
 2373POPC   C2B33404  23.446  43.536   8.451
 2373POPC   C3B33405  23.556  43.593   8.075
 2373POPC   C4B33406  23.250  43.363   7.845
 2374POPC   NC333407   6.562   5.163   9.581
 2374POPC   PO433408   6.925   4.558   9.494
 2374POPC   GL133409   6.614   4.829   9.197
 2374POPC   GL233410   6.676   5.216   9.090
 2374POPC   C1A33411   6.668   4.858   8.737
 2374POPC   D2A33412   6.860   5.145   8.439
 2374POPC   C3A33413   6.713   5.066   8.049
 2374POPC   C4A33414   6.866   4.976   7.667
 2374POPC   C1B33415   6.594   5.494   8.712
 2374POPC   C2B33416   6.550   5.588   8.271
 2374POPC   C3B33417   6.506   5.490   7.852
 2374POPC   C4B33418   6.597   5.510   7.393
 2375POPC   NC333419   9.589  13.110   9.549
 2375POPC   PO433420   9.515  12.466   9.604
 2375POPC   GL133421   9.740  12.719   9.208
 2375POPC   GL233422   9.481  12.922   9.097
 2375POPC   C1A33423   9.852  12.839   8.710
 2375POPC   D2A33424   9.643  12.992   8.286
 2375POPC   C3A33425   9.765  12.869   7.844
 2375POPC   C4A33426  10.186  12.777   7.664
 2375POPC   C1B33427   9.428  12.586   8.802
 2375POPC   C2B33428   9.596  12.476   8.440
 2375POPC   C3B33429   9.483  12.348   8.034
 2375POPC   C4B33430   9.396  12.570   7.662
 2376POPC   NC333431  35.020  43.091   9.803
 2376POPC   PO433432  34.452  43.278   9.540
 2376POPC   GL133433  34.436  43.210   9.124
 2376POPC   GL233434  34.704  42.988   9.135
 2376POPC   C1A33435  34.225  43.124   8.734
 2376POPC   D2A33436  34.282  43.320   8.335
 2376POPC   C3A33437  34.167  43.090   7.981
 2376POPC   C4A33438  34.324  43.008   7.606
 2376POPC   C1B33439  34.640  42.801   8.760
 2376POPC   C2B33440  34.723  43.038   8.409
 2376POPC   C3B33441  34.701  43.109   8.004
 2376POPC   C4B33442  34.807  42.805   7.709
 2377POPC   NC333443  20.159   7.727   9.479
 2377POPC   PO433444  19.845   7.140   9.579
 2377POPC   GL133445  19.800   7.378   9.188
 2377POPC   GL233446  19.834   7.701   9.094
 2377POPC   C1A33447  20.068   7.323   8.817
 2377POPC   D2A33448  19.949   7.200   8.405
 2377POPC   C3A33449  20.106   7.377   8.015
 2377POPC   C4A33450  19.905   7.345   7.586
 2377POPC   C1B33451  19.668   7.613   8.712
 2377POPC   C2B33452  19.864   7.727   8.327
 2377POPC   C3B33453  19.730   7.700   7.918
 2377POPC   C4B33454  19.627   7.998   7.626
 2378POPC   NC333455  24.904   7.625   9.590
 2378POPC   PO433456  24.492   7.105   9.584
 2378POPC   GL133457  24.513   7.435   9.244
 2378POPC   GL233458  24.827   7.376   9.120
 2378POPC   C1A33459  24.502   7.635   8.793
 2378POPC   D2A33460  24.361   7.480   8.368
 2378POPC   C3A33461  24.414   7.645   7.957
 2378POPC   C4A33462  24.141   7.413   7.679
 2378POPC   C1B33463  24.999   7.580   8.760
 2378POPC   C2B33464  24.849   7.638   8.336
 2378POPC   C3B33465  24.869   7.349   7.993
 2378POPC   C4B33466  24.693   7.297   7.595
 2379POPC   NC333467  30.914  26.742   9.414
 2379POPC   PO433468  30.218  26.849   9.590
 2379POPC   GL133469  30.322  26.953   9.117
 2379POPC   GL233470  30.607  26.782   9.032
 2379POPC   C1A33471  30.547  27.148   8.702
 2379POPC   D2A33472  30.934  27.136   8.468
 2379POPC   C3A33473  30.879  26.924   8.084
 2379POPC   C4A33474  30.577  26.839   7.806
 2379POPC   C1B33475  30.769  26.607   8.649
 2379POPC   C2B33476  30.706  26.448   8.223
 2379POPC   C3B33477  30.819  26.405   7.772
 2379POPC   C4B33478  31.097  26.591   7.462
 2380POPC   NC333479   6.407  41.853   9.543
 2380POPC   PO433480   6.720  41.202   9.547
 2380POPC   GL133481   6.730  41.514   9.181
 2380POPC   GL233482   6.428  41.672   9.050
 2380POPC   C1A33483   6.935  41.749   8.801
 2380POPC   D2A33484   7.096  41.589   8.367
 2380POPC   C3A33485   6.788  41.568   8.003
 2380POPC   C4A33486   6.690  41.597   7.528
 2380POPC   C1B33487   6.422  41.704   8.600
 2380POPC   C2B33488   6.310  41.557   8.183
 2380POPC   C3B33489   6.318  41.794   7.824
 2380POPC   C4B33490   6.237  41.748   7.328
 2381POPC   NC333491  11.053  41.307   9.436
 2381POPC   PO433492  11.565  41.787   9.597
 2381POPC   GL133493  11.360  41.676   9.219
 2381POPC   GL233494  11.508  41.351   9.110
 2381POPC   C1A33495  11.393  41.746   8.788
 2381POPC   D2A33496  11.552  41.503   8.438
 2381POPC   C3A33497  11.536  41.761   8.068
 2381POPC   C4A33498  11.279  41.813   7.663
 2381POPC   C1B33499  11.153  41.274   8.789
 2381POPC   C2B33500  11.101  41.133   8.360
 2381POPC   C3B33501  11.138  41.417   8.032
 2381POPC   C4B33502  11.465  41.350   7.790
 2382POPC   NC333503  12.971   9.139   9.467
 2382POPC   PO433504  12.596   8.716   9.879
 2382POPC   GL133505  12.597   8.605   9.351
 2382POPC   GL233506  12.792   8.815   9.122
 2382POPC   C1A33507  12.434   8.554   8.893
 2382POPC   D2A33508  12.697   8.663   8.502
 2382POPC   C3A33509  12.537   8.735   8.076
 2382POPC   C4A33510  12.832   8.836   7.703
 2382POPC   C1B33511  12.538   9.056   8.798
 2382POPC   C2B33512  12.523   9.174   8.343
 2382POPC   C3B33513  12.561   9.207   7.875
 2382POPC   C4B33514  12.596   9.263   7.404
 2383POPC   NC333515  40.819   8.642   9.417
 2383POPC   PO433516  40.492   9.202   9.476
 2383POPC   GL133517  40.611   9.022   9.108
 2383POPC   GL233518  40.419   8.736   9.100
 2383POPC   C1A33519  40.896   9.133   8.763
 2383POPC   D2A33520  40.906   9.383   8.388
 2383POPC   C3A33521  40.832   9.141   8.029
 2383POPC   C4A33522  40.890   9.158   7.586
 2383POPC   C1B33523  40.709   8.631   8.767
 2383POPC   C2B33524  40.878   8.765   8.396
 2383POPC   C3B33525  40.756   8.604   8.041
 2383POPC   C4B33526  40.677   8.723   7.688
 2384POPC   NC333527  21.962   4.587   9.484
 2384POPC   PO433528  22.215   3.986   9.503
 2384POPC   GL133529  22.191   4.267   9.153
 2384POPC   GL233530  22.348   4.640   9.171
 2384POPC   C1A33531  21.915   4.287   8.787
 2384POPC   D2A33532  22.016   4.362   8.374
 2384POPC   C3A33533  21.873   4.165   8.012
 2384POPC   C4A33534  22.010   4.390   7.701
 2384POPC   C1B33535  22.445   4.490   8.765
 2384POPC   C2B33536  22.546   4.418   8.357
 2384POPC   C3B33537  22.460   4.470   7.944
 2384POPC   C4B33538  22.524   4.469   7.500
 2385POPC   NC333539  31.423  26.741   9.597
 2385POPC   PO433540  30.922  27.169   9.233
 2385POPC   GL133541  31.247  26.796   9.068
 2385POPC   GL233542  31.610  26.773   9.110
 2385POPC   C1A33543  31.353  26.552   8.750
 2385POPC   D2A33544  31.207  26.690   8.381
 2385POPC   C3A33545  31.349  26.694   7.970
 2385POPC   C4A33546  31.240  27.048   7.725
 2385POPC   C1B33547  31.818  26.950   8.757
 2385POPC   C2B33548  31.676  26.936   8.317
 2385POPC   C3B33549  31.701  27.125   7.909
 2385POPC   C4B33550  32.029  27.286   7.684
 2386POPC   NC333551  13.893  36.334   9.637
 2386POPC   PO433552  13.640  35.768   9.456
 2386POPC   GL133553  13.811  36.067   9.120
 2386POPC   GL233554  13.923  36.450   9.129
 2386POPC   C1A33555  13.573  36.155   8.737
 2386POPC   D2A33556  13.293  36.165   8.375
 2386POPC   C3A33557  13.323  35.908   8.025
 2386POPC   C4A33558  13.660  35.913   7.775
 2386POPC   C1B33559  14.001  36.413   8.682
 2386POPC   C2B33560  13.834  36.260   8.269
 2386POPC   C3B33561  13.725  36.406   7.861
 2386POPC   C4B33562  13.350  36.488   7.622
 2387POPC   NC333563  19.570  29.424   9.597
 2387POPC   PO433564  20.138  29.155   9.500
 2387POPC   GL133565  19.939  29.414   9.202
 2387POPC   GL233566  19.635  29.253   9.116
 2387POPC   C1A33567  19.923  29.395   8.730
 2387POPC   D2A33568  19.834  29.190   8.316
 2387POPC   C3A33569  19.990  29.413   7.934
 2387POPC   C4A33570  20.346  29.503   7.658
 2387POPC   C1B33571  19.413  29.238   8.683
 2387POPC   C2B33572  19.344  29.140   8.204
 2387POPC   C3B33573  19.637  29.020   7.820
 2387POPC   C4B33574  19.597  28.765   7.408
 2388POPC   NC333575  33.614  20.837   9.668
 2388POPC   PO433576  33.323  20.249   9.636
 2388POPC   GL133577  33.662  20.418   9.322
 2388POPC   GL233578  33.969  20.696   9.319
 2388POPC   C1A33579  33.700  20.596   8.903
 2388POPC   D2A33580  33.821  20.546   8.496
 2388POPC   C3A33581  33.565  20.430   8.142
 2388POPC   C4A33582  33.712  20.515   7.726
 2388POPC   C1B33583  34.002  21.003   8.960
 2388POPC   C2B33584  33.888  21.086   8.538
 2388POPC   C3B33585  33.860  20.916   8.114
 2388POPC   C4B33586  33.890  21.105   7.720
 2389POPC   NC333587   0.138   1.925   9.487
 2389POPC   PO433588   0.720   1.865   9.445
 2389POPC   GL133589   0.464   1.800   9.090
 2389POPC   GL233590   0.286   2.118   9.039
 2389POPC   C1A33591   0.532   1.877   8.661
 2389POPC   D2A33592   0.378   2.103   8.344
 2389POPC   C3A33593   0.496   1.885   8.055
 2389POPC   C4A33594   0.512   1.885   7.666
 2389POPC   C1B33595   0.020   2.153   8.697
 2389POPC   C2B33596  44.939   2.350   8.280
 2389POPC   C3B33597   0.106   2.213   7.881
 2389POPC   C4B33598   0.443   2.382   7.677
 2390POPC   NC333599   0.129  20.752   9.489
 2390POPC   PO433600   0.701  20.427   9.503
 2390POPC   GL133601   0.508  20.567   9.172
 2390POPC   GL233602   0.235  20.346   9.189
 2390POPC   C1A33603   0.452  20.755   8.790
 2390POPC   D2A33604   0.350  20.616   8.393
 2390POPC   C3A33605   0.525  20.723   7.991
 2390POPC   C4A33606   0.229  20.689   7.673
 2390POPC   C1B33607   0.097  20.265   8.790
 2390POPC   C2B33608   0.219  20.122   8.405
 2390POPC   C3B33609   0.139  20.303   8.036
 2390POPC   C4B33610   0.136  20.089   7.711
 2391POPC   NC333611  22.850  14.138   9.519
 2391POPC   PO433612  23.423  14.434   9.251
 2391POPC   GL133613  23.073  14.238   9.071
 2391POPC   GL233614  22.734  14.431   9.127
 2391POPC   C1A33615  22.910  14.279   8.671
 2391POPC   D2A33616  23.159  14.556   8.467
 2391POPC   C3A33617  23.140  14.576   8.016
 2391POPC   C4A33618  22.844  14.381   7.725
 2391POPC   C1B33619  22.667  14.697   8.747
 2391POPC   C2B33620  22.656  14.583   8.307
 2391POPC   C3B33621  22.685  14.839   7.935
 2391POPC   C4B33622  22.587  14.747   7.512
 2392POPC   NC333623  32.566  30.135   9.561
 2392POPC   PO433624  32.189  29.618   9.528
 2392POPC   GL133625  32.281  29.893   9.172
 2392POPC   GL233626  31.993  29.930   9.028
 2392POPC   C1A33627  32.352  29.980   8.689
 2392POPC   D2A33628  32.174  29.913   8.251
 2392POPC   C3A33629  32.506  29.947   7.899
 2392POPC   C4A33630  32.585  29.889   7.439
 2392POPC   C1B33631  31.843  30.084   8.654
 2392POPC   C2B33632  31.695  30.132   8.238
 2392POPC   C3B33633  31.816  29.999   7.821
 2392POPC   C4B33634  32.061  29.990   7.456
 2393POPC   NC333635  43.250  12.239   9.495
 2393POPC   PO433636  42.783  11.737   9.487
 2393POPC   GL133637  43.101  11.845   9.205
 2393POPC   GL233638  42.953  12.115   9.109
 2393POPC   C1A33639  43.255  11.836   8.795
 2393POPC   D2A33640  43.055  11.891   8.416
 2393POPC   C3A33641  43.261  12.031   8.039
 2393POPC   C4A33642  43.329  11.804   7.697
 2393POPC   C1B33643  42.795  12.227   8.739
 2393POPC   C2B33644  42.916  12.426   8.378
 2393POPC   C3B33645  42.799  12.167   8.077
 2393POPC   C4B33646  42.804  11.818   7.807
 2394POPC   NC333647  37.784  20.041   9.512
 2394POPC   PO433648  37.639  19.399   9.589
 2394POPC   GL133649  37.797  19.622   9.200
 2394POPC   GL233650  37.670  19.980   9.040
 2394POPC   C1A33651  37.934  19.661   8.772
 2394POPC   D2A33652  37.900  19.681   8.367
 2394POPC   C3A33653  37.813  19.391   8.040
 2394POPC   C4A33654  37.654  19.563   7.683
 2394POPC   C1B33655  37.417  19.804   8.768
 2394POPC   C2B33656  37.394  19.590   8.403
 2394POPC   C3B33657  37.507  19.820   8.075
 2394POPC   C4B33658  37.342  19.998   7.715
 2395POPC   NC333659  28.624   0.145   9.351
 2395POPC   PO433660  28.227   0.748   9.451
 2395POPC   GL133661  28.288   0.532   9.106
 2395POPC   GL233662  28.589   0.602   9.095
 2395POPC   C1A33663  28.180   0.590   8.685
 2395POPC   D2A33664  28.340   0.717   8.283
 2395POPC   C3A33665  28.413   0.370   8.003
 2395POPC   C4A33666  28.274   0.294   7.581
 2395POPC   C1B33667  28.733   0.571   8.746
 2395POPC   C2B33668  28.757   0.434   8.374
 2395POPC   C3B33669  28.834   0.697   8.039
 2395POPC   C4B33670  28.673   0.612   7.646
 2396POPC   NC333671  41.220  24.646   9.595
 2396POPC   PO433672  41.881  24.455   9.528
 2396POPC   GL133673  41.645  24.397   9.156
 2396POPC   GL233674  41.526  24.712   9.176
 2396POPC   C1A33675  41.680  24.206   8.730
 2396POPC   D2A33676  41.450  24.324   8.340
 2396POPC   C3A33677  41.533  24.122   7.985
 2396POPC   C4A33678  41.900  24.232   7.818
 2396POPC   C1B33679  41.326  24.575   8.779
 2396POPC   C2B33680  41.064  24.639   8.408
 2396POPC   C3B33681  41.201  24.788   8.047
 2396POPC   C4B33682  41.328  24.544   7.740
 2397POPC   NC333683  26.207  16.269   9.445
 2397POPC   PO433684  25.674  15.871   9.422
 2397POPC   GL133685  25.991  15.776   9.107
 2397POPC   GL233686  26.190  15.458   9.067
 2397POPC   C1A33687  26.194  16.021   8.777
 2397POPC   D2A33688  26.116  16.277   8.396
 2397POPC   C3A33689  25.770  16.111   8.142
 2397POPC   C4A33690  25.808  15.954   7.748
 2397POPC   C1B33691  25.963  15.451   8.686
 2397POPC   C2B33692  25.989  15.632   8.262
 2397POPC   C3B33693  26.145  15.563   7.833
 2397POPC   C4B33694  26.234  15.858   7.463
 2398POPC   NC333695  20.677   1.651   9.724
 2398POPC   PO433696  20.913   2.217   9.452
 2398POPC   GL133697  20.631   2.098   9.150
 2398POPC   GL233698  20.417   1.858   9.284
 2398POPC   C1A33699  20.788   2.083   8.757
 2398POPC   D2A33700  20.725   2.181   8.352
 2398POPC   C3A33701  20.925   1.895   8.067
 2398POPC   C4A33702  21.015   2.084   7.672
 2398POPC   C1B33703  20.661   1.610   8.946
 2398POPC   C2B33704  20.663   1.670   8.478
 2398POPC   C3B33705  20.391   1.862   8.135
 2398POPC   C4B33706  20.546   1.871   7.716
 2399POPC   NC333707  22.665  34.715   9.626
 2399POPC   PO433708  23.172  34.222   9.580
 2399POPC   GL133709  23.141  34.468   9.211
 2399POPC   GL233710  22.819  34.546   9.182
 2399POPC   C1A33711  23.192  34.631   8.781
 2399POPC   D2A33712  23.244  34.873   8.422
 2399POPC   C3A33713  23.183  34.633   8.113
 2399POPC   C4A33714  23.202  34.657   7.723
 2399POPC   C1B33715  22.666  34.652   8.804
 2399POPC   C2B33716  22.787  34.537   8.415
 2399POPC   C3B33717  22.693  34.632   7.971
 2399POPC   C4B33718  22.884  34.267   7.830
 2400POPC   NC333719  44.849  40.713   9.875
 2400POPC   PO433720  44.498  40.282   9.469
 2400POPC   GL133721  44.751  40.556   9.190
 2400POPC   GL233722  44.765  40.917   9.323
 2400POPC   C1A33723  44.814  40.711   8.773
 2400POPC   D2A33724  44.358  40.659   8.578
 2400POPC   C3A33725  44.309  40.740   8.140
 2400POPC   C4A33726  44.699  40.723   7.935
 2400POPC   C1B33727  44.467  41.021   8.970
 2400POPC   C2B33728  44.610  41.127   8.540
 2400POPC   C3B33729  44.619  41.217   8.102
 2400POPC   C4B33730  44.358  41.239   7.761
 2401POPC   NC333731   1.601  27.408   9.399
 2401POPC   PO433732   1.009  27.672   9.426
 2401POPC   GL133733   1.226  27.700   9.062
 2401POPC   GL233734   1.499  27.920   9.155
 2401POPC   C1A33735   1.126  27.628   8.631
 2401POPC   D2A33736   1.289  27.479   8.240
 2401POPC   C3A33737   1.057  27.422   7.895
 2401POPC   C4A33738   1.169  27.519   7.484
 2401POPC   C1B33739   1.482  28.001   8.703
 2401POPC   C2B33740   1.260  27.993   8.305
 2401POPC   C3B33741   1.290  27.892   7.837
 2401POPC   C4B33742   1.344  28.028   7.356
 2402POPC   NC333743   3.804  29.958   9.903
 2402POPC   PO433744   3.237  29.735   9.501
 2402POPC   GL133745   3.447  29.999   9.218
 2402POPC   GL233746   3.664  30.215   9.412
 2402POPC   C1A33747   3.533  29.963   8.789
 2402POPC   D2A33748   3.738  29.892   8.435
 2402POPC   C3A33749   3.480  29.853   8.109
 2402POPC   C4A33750   3.592  29.930   7.725
 2402POPC   C1B33751   3.720  30.394   8.978
 2402POPC   C2B33752   3.709  30.401   8.506
 2402POPC   C3B33753   3.759  30.280   8.075
 2402POPC   C4B33754   3.648  30.432   7.654
 2403POPC   NC333755   4.375  24.785   9.422
 2403POPC   PO433756   4.645  24.195   9.231
 2403POPC   GL133757   4.321  24.400   9.048
 2403POPC   GL233758   4.390  24.729   8.899
 2403POPC   C1A33759   4.235  24.341   8.628
 2403POPC   D2A33760   4.342  24.599   8.317
 2403POPC   C3A33761   4.500  24.329   8.082
 2403POPC   C4A33762   4.464  24.004   7.822
 2403POPC   C1B33763   4.264  25.041   8.546
 2403POPC   C2B33764   4.054  25.003   8.158
 2403POPC   C3B33765   4.158  24.708   7.843
 2403POPC   C4B33766   4.476  24.501   7.599
 2404POPC   NC333767   4.360   8.116   9.478
 2404POPC   PO433768   3.686   7.900   9.543
 2404POPC   GL133769   3.915   7.964   9.152
 2404POPC   GL233770   3.972   8.315   9.123
 2404POPC   C1A33771   4.072   7.991   8.708
 2404POPC   D2A33772   4.290   8.003   8.288
 2404POPC   C3A33773   4.138   7.951   7.830
 2404POPC   C4A33774   4.438   7.915   7.455
 2404POPC   C1B33775   4.245   8.470   8.770
 2404POPC   C2B33776   4.359   8.588   8.361
 2404POPC   C3B33777   4.319   8.410   7.974
 2404POPC   C4B33778   4.047   8.478   7.642
 2405POPC   NC333779  29.956  20.840   9.701
 2405POPC   PO433780  29.883  20.244   9.404
 2405POPC   GL133781  29.868  20.521   9.067
 2405POPC   GL233782  30.176  20.524   9.073
 2405POPC   C1A33783  29.916  20.722   8.650
 2405POPC   D2A33784  29.755  20.551   8.254
 2405POPC   C3A33785  29.824  20.733   7.865
 2405POPC   C4A33786  29.626  21.078   7.637
 2405POPC   C1B33787  30.143  20.262   8.730
 2405POPC   C2B33788  30.243  20.430   8.361
 2405POPC   C3B33789  30.133  20.277   8.007
 2405POPC   C4B33790  30.221  20.457   7.670
 2406POPC   NC333791  42.876  37.341   9.464
 2406POPC   PO433792  43.250  37.870   9.577
 2406POPC   GL133793  42.966  37.831   9.239
 2406POPC   GL233794  43.076  37.551   9.070
 2406POPC   C1A33795  42.894  37.925   8.781
 2406POPC   D2A33796  42.690  37.955   8.370
 2406POPC   C3A33797  42.927  37.940   7.988
 2406POPC   C4A33798  42.920  37.543   7.809
 2406POPC   C1B33799  43.341  37.580   8.753
 2406POPC   C2B33800  43.223  37.762   8.375
 2406POPC   C3B33801  43.432  37.700   8.029
 2406POPC   C4B33802  43.356  37.728   7.616
 2407POPC   NC333803  43.802  16.648   9.663
 2407POPC   PO433804  43.929  17.348   9.514
 2407POPC   GL133805  43.918  16.963   9.230
 2407POPC   GL233806  44.106  17.089   8.937
 2407POPC   C1A33807  43.994  16.618   8.895
 2407POPC   D2A33808  44.118  16.841   8.491
 2407POPC   C3A33809  44.087  16.686   8.099
 2407POPC   C4A33810  43.837  16.778   7.792
 2407POPC   C1B33811  43.687  16.999   8.685
 2407POPC   C2B33812  43.557  17.030   8.225
 2407POPC   C3B33813  43.377  17.031   7.788
 2407POPC   C4B33814  43.585  16.975   7.386
 2408POPC   NC333815  13.005   8.584   9.686
 2408POPC   PO433816  12.657   8.017   9.631
 2408POPC   GL133817  12.904   8.197   9.307
 2408POPC   GL233818  12.949   7.915   9.133
 2408POPC   C1A33819  12.885   8.341   8.863
 2408POPC   D2A33820  12.933   8.209   8.410
 2408POPC   C3A33821  12.773   8.302   8.034
 2408POPC   C4A33822  12.933   8.352   7.636
 2408POPC   C1B33823  12.882   7.825   8.720
 2408POPC   C2B33824  13.104   7.725   8.339
 2408POPC   C3B33825  12.961   7.839   7.935
 2408POPC   C4B33826  12.921   7.736   7.502
 2409POPC   NC333827  26.238  33.077   9.690
 2409POPC   PO433828  25.713  32.733   9.583
 2409POPC   GL133829  25.894  33.071   9.305
 2409POPC   GL233830  26.210  33.315   9.253
 2409POPC   C1A33831  25.985  32.998   8.922
 2409POPC   D2A33832  26.055  32.774   8.589
 2409POPC   C3A33833  26.074  32.983   8.221
 2409POPC   C4A33834  26.086  32.750   7.823
 2409POPC   C1B33835  26.234  33.408   8.810
 2409POPC   C2B33836  26.421  33.286   8.434
 2409POPC   C3B33837  26.372  33.455   8.024
 2409POPC   C4B33838  26.057  33.250   7.780
 2410POPC   NC333839  34.232  41.760   9.530
 2410POPC   PO433840  33.634  41.684   9.698
 2410POPC   GL133841  33.752  41.912   9.286
 2410POPC   GL233842  33.927  41.634   9.135
 2410POPC   C1A33843  33.550  41.811   8.854
 2410POPC   D2A33844  33.512  41.449   8.550
 2410POPC   C3A33845  33.418  41.523   8.102
 2410POPC   C4A33846  33.516  41.433   7.651
 2410POPC   C1B33847  34.000  41.593   8.682
 2410POPC   C2B33848  34.042  41.731   8.241
 2410POPC   C3B33849  33.985  41.615   7.809
 2410POPC   C4B33850  33.880  41.791   7.412
 2411POPC   NC333851   7.665  35.203   9.273
 2411POPC   PO433852   7.540  35.874   9.481
 2411POPC   GL133853   7.407  35.635   9.069
 2411POPC   GL233854   7.192  35.322   9.050
 2411POPC   C1A33855   7.528  35.401   8.665
 2411POPC   D2A33856   7.859  35.207   8.452
 2411POPC   C3A33857   7.741  35.252   8.024
 2411POPC   C4A33858   7.625  35.621   7.775
 2411POPC   C1B33859   7.035  35.528   8.668
 2411POPC   C2B33860   7.259  35.534   8.248
 2411POPC   C3B33861   7.254  35.271   7.870
 2411POPC   C4B33862   6.908  35.078   7.702
 2412POPC   NC333863  38.063  20.828   9.340
 2412POPC   PO433864  38.157  20.248   9.697
 2412POPC   GL133865  38.375  20.435   9.225
 2412POPC   GL233866  38.655  20.643   9.195
 2412POPC   C1A33867  38.337  20.652   8.774
 2412POPC   D2A33868  38.603  20.774   8.404
 2412POPC   C3A33869  38.427  20.729   7.977
 2412POPC   C4A33870  38.601  20.797   7.541
 2412POPC   C1B33871  38.751  20.366   8.819
 2412POPC   C2B33872  38.668  20.265   8.375
 2412POPC   C3B33873  38.716  20.318   7.909
 2412POPC   C4B33874  38.731  20.195   7.465
 2413POPC   NC333875  10.521  14.159   9.560
 2413POPC   PO433876  11.023  14.621   9.551
 2413POPC   GL133877  10.736  14.506   9.220
 2413POPC   GL233878  10.806  14.812   9.085
 2413POPC   C1A33879  10.519  14.495   8.777
 2413POPC   D2A33880  10.348  14.360   8.359
 2413POPC   C3A33881  10.449  14.210   7.937
 2413POPC   C4A33882  10.285  14.306   7.497
 2413POPC   C1B33883  10.950  14.732   8.699
 2413POPC   C2B33884  10.690  14.747   8.339
 2413POPC   C3B33885  10.774  14.623   7.953
 2413POPC   C4B33886  10.632  14.853   7.568
 2414POPC   NC333887  42.216  28.057   9.489
 2414POPC   PO433888  42.436  28.686   9.449
 2414POPC   GL133889  42.157  28.533   9.115
 2414POPC   GL233890  42.242  28.173   9.002
 2414POPC   C1A33891  42.309  28.599   8.684
 2414POPC   D2A33892  42.701  28.543   8.434
 2414POPC   C3A33893  42.640  28.394   8.026
 2414POPC   C4A33894  42.449  28.586   7.656
 2414POPC   C1B33895  41.866  28.170   8.769
 2414POPC   C2B33896  41.880  28.396   8.405
 2414POPC   C3B33897  42.129  28.369   8.044
 2414POPC   C4B33898  42.219  28.112   7.657
 2415POPC   NC333899  41.964  33.836   9.858
 2415POPC   PO433900  41.506  33.610   9.363
 2415POPC   GL133901  41.530  33.642   8.993
 2415POPC   GL233902  41.473  33.977   9.007
 2415POPC   C1A33903  41.630  33.644   8.595
 2415POPC   D2A33904  41.460  33.858   8.294
 2415POPC   C3A33905  41.711  33.749   7.971
 2415POPC   C4A33906  41.544  33.505   7.658
 2415POPC   C1B33907  41.261  34.159   8.681
 2415POPC   C2B33908  41.334  34.374   8.323
 2415POPC   C3B33909  41.377  34.226   7.908
 2415POPC   C4B33910  41.624  34.035   7.562
 2416POPC   NC333911  25.157  22.622   9.592
 2416POPC   PO433912  25.576  22.225   9.655
 2416POPC   GL133913  25.507  22.437   9.223
 2416POPC   GL233914  25.186  22.269   9.177
 2416POPC   C1A33915  25.356  22.499   8.764
 2416POPC   D2A33916  25.120  22.357   8.399
 2416POPC   C3A33917  25.175  22.414   7.951
 2416POPC   C4A33918  25.356  22.128   7.648
 2416POPC   C1B33919  25.231  22.004   8.778
 2416POPC   C2B33920  25.150  21.849   8.336
 2416POPC   C3B33921  24.998  21.860   7.890
 2416POPC   C4B33922  25.074  21.742   7.435
 2417POPC   NC333923   1.309  34.884   9.414
 2417POPC   PO433924   1.076  34.180   9.566
 2417POPC   GL133925   1.022  34.467   9.192
 2417POPC   GL233926   0.921  34.841   9.102
 2417POPC   C1A33927   0.965  34.429   8.744
 2417POPC   D2A33928   0.926  34.616   8.327
 2417POPC   C3A33929   1.225  34.463   8.041
 2417POPC   C4A33930   1.269  34.385   7.586
 2417POPC   C1B33931   1.176  34.935   8.720
 2417POPC   C2B33932   1.393  34.908   8.292
 2417POPC   C3B33933   1.364  34.893   7.830
 2417POPC   C4B33934   0.949  34.756   7.719
 2418POPC   NC333935  19.160  36.129   9.505
 2418POPC   PO433936  18.547  35.780   9.501
 2418POPC   GL133937  18.753  36.008   9.171
 2418POPC   GL233938  18.649  36.306   9.080
 2418POPC   C1A33939  18.817  36.025   8.705
 2418POPC   D2A33940  19.018  36.184   8.363
 2418POPC   C3A33941  18.847  36.069   7.951
 2418POPC   C4A33942  19.112  35.701   7.782
 2418POPC   C1B33943  19.016  36.478   8.858
 2418POPC   C2B33944  19.179  36.658   8.465
 2418POPC   C3B33945  19.046  36.567   8.028
 2418POPC   C4B33946  19.232  36.571   7.632
 2419POPC   NC333947  24.073  13.355   9.440
 2419POPC   PO433948  23.699  12.847   9.652
 2419POPC   GL133949  23.751  12.874   9.163
 2419POPC   GL233950  23.904  13.116   9.045
 2419POPC   C1A33951  24.035  12.741   8.768
 2419POPC   D2A33952  23.832  12.775   8.378
 2419POPC   C3A33953  23.886  12.740   7.968
 2419POPC   C4A33954  23.646  12.766   7.591
 2419POPC   C1B33955  23.628  13.140   8.686
 2419POPC   C2B33956  23.533  13.155   8.239
 2419POPC   C3B33957  23.676  13.211   7.826
 2419POPC   C4B33958  23.905  13.228   7.435
 2420POPC   NC333959  39.717  15.508   9.379
 2420POPC   PO433960  39.549  14.879   9.447
 2420POPC   GL133961  39.757  15.048   9.089
 2420POPC   GL233962  40.094  15.102   9.079
 2420POPC   C1A33963  39.688  15.350   8.731
 2420POPC   D2A33964  39.892  15.319   8.321
 2420POPC   C3A33965  39.660  15.154   7.982
 2420POPC   C4A33966  39.291  15.075   7.740
 2420POPC   C1B33967  40.067  14.939   8.650
 2420POPC   C2B33968  40.267  14.978   8.222
 2420POPC   C3B33969  40.226  15.237   7.812
 2420POPC   C4B33970  40.283  15.434   7.344
 2421POPC   NC333971  11.573  24.367   9.751
 2421POPC   PO433972  11.021  24.380   9.534
 2421POPC   GL133973  11.138  24.576   9.157
 2421POPC   GL233974  11.440  24.742   9.164
 2421POPC   C1A33975  11.026  24.421   8.743
 2421POPC   D2A33976  10.877  24.361   8.337
 2421POPC   C3A33977  11.180  24.258   8.034
 2421POPC   C4A33978  11.158  24.336   7.592
 2421POPC   C1B33979  11.238  24.886   8.743
 2421POPC   C2B33980  11.263  24.722   8.294
 2421POPC   C3B33981  11.521  24.608   7.890
 2421POPC   C4B33982  11.878  24.745   7.600
 2422POPC   NC333983  39.221  12.192   9.360
 2422POPC   PO433984  39.047  11.491   9.447
 2422POPC   GL133985  39.121  11.722   9.057
 2422POPC   GL233986  38.890  11.960   9.041
 2422POPC   C1A33987  39.255  11.857   8.608
 2422POPC   D2A33988  39.532  11.831   8.221
 2422POPC   C3A33989  39.318  11.936   7.834
 2422POPC   C4A33990  39.415  12.314   7.555
 2422POPC   C1B33991  39.023  12.293   8.748
 2422POPC   C2B33992  39.098  12.282   8.324
 2422POPC   C3B33993  39.063  12.356   7.931
 2422POPC   C4B33994  38.944  12.133   7.586
 2423POPC   NC333995  17.234  40.657   9.406
 2423POPC   PO433996  17.879  40.744   9.552
 2423POPC   GL133997  17.746  40.770   9.165
 2423POPC   GL233998  17.569  41.050   9.147
 2423POPC   C1A33999  17.798  40.636   8.758
 2423POPC   D2A34000  17.617  40.754   8.382
 2423POPC   C3A34001  17.674  40.614   7.980
 2423POPC   C4A34002  17.277  40.528   7.806
 2423POPC   C1B34003  17.334  40.899   8.789
 2423POPC   C2B34004  17.219  41.076   8.419
 2423POPC   C3B34005  17.309  40.989   8.015
 2423POPC   C4B34006  17.031  41.168   7.730
 2424POPC   NC334007  19.319  31.180   9.467
 2424POPC   PO434008  19.152  30.503   9.527
 2424POPC   GL134009  19.087  30.398   9.094
 2424POPC   GL234010  19.102  30.748   9.033
 2424POPC   C1A34011  18.962  30.482   8.644
 2424POPC   D2A34012  18.957  30.742   8.305
 2424POPC   C3A34013  18.916  30.448   8.007
 2424POPC   C4A34014  19.072  30.382   7.619
 2424POPC   C1B34015  19.158  31.035   8.689
 2424POPC   C2B34016  19.473  30.966   8.408
 2424POPC   C3B34017  19.411  30.830   8.016
 2424POPC   C4B34018  19.118  30.895   7.749
 2425POPC   NC334019  23.322  36.355   9.486
 2425POPC   PO434020  22.655  36.145   9.580
 2425POPC   GL134021  22.792  36.070   9.135
 2425POPC   GL234022  23.131  36.072   9.124
 2425POPC   C1A34023  22.878  36.008   8.665
 2425POPC   D2A34024  22.959  35.837   8.242
 2425POPC   C3A34025  22.799  36.054   7.881
 2425POPC   C4A34026  22.697  35.981   7.422
 2425POPC   C1B34027  23.342  36.268   8.766
 2425POPC   C2B34028  23.232  36.274   8.335
 2425POPC   C3B34029  23.271  36.418   7.898
 2425POPC   C4B34030  23.163  36.177   7.545
 2426POPC   NC334031   1.109  23.000   9.402
 2426POPC   PO434032   1.402  22.329   9.458
 2426POPC   GL134033   1.278  22.603   9.106
 2426POPC   GL234034   1.465  22.918   9.073
 2426POPC   C1A34035   0.990  22.762   8.779
 2426POPC   D2A34036   0.918  22.950   8.359
 2426POPC   C3A34037   1.137  22.715   8.042
 2426POPC   C4A34038   1.021  22.506   7.657
 2426POPC   C1B34039   1.280  23.178   8.733
 2426POPC   C2B34040   1.169  23.394   8.381
 2426POPC   C3B34041   1.213  23.242   7.998
 2426POPC   C4B34042   1.259  23.306   7.586
 2427POPC   NC334043  17.020  28.766   9.335
 2427POPC   PO434044  16.776  29.339   9.486
 2427POPC   GL134045  16.670  29.105   9.148
 2427POPC   GL234046  16.427  29.319   9.071
 2427POPC   C1A34047  16.825  29.139   8.736
 2427POPC   D2A34048  16.698  29.131   8.284
 2427POPC   C3A34049  16.918  29.120   7.861
 2427POPC   C4A34050  16.826  29.000   7.408
 2427POPC   C1B34051  16.326  29.272   8.692
 2427POPC   C2B34052  16.339  29.513   8.359
 2427POPC   C3B34053  16.425  29.437   7.975
 2427POPC   C4B34054  16.523  29.375   7.578
 2428POPC   NC334055  32.890  35.719   9.415
 2428POPC   PO434056  33.418  35.291   9.573
 2428POPC   GL134057  33.223  35.409   9.189
 2428POPC   GL234058  33.388  35.721   9.132
 2428POPC   C1A34059  32.870  35.499   8.825
 2428POPC   D2A34060  32.747  35.187   8.539
 2428POPC   C3A34061  32.955  35.181   8.136
 2428POPC   C4A34062  32.824  35.146   7.726
 2428POPC   C1B34063  33.361  35.542   8.725
 2428POPC   C2B34064  33.109  35.585   8.385
 2428POPC   C3B34065  33.212  35.665   7.973
 2428POPC   C4B34066  33.003  35.616   7.568
 2429POPC   NC334067  33.930  19.288   9.493
 2429POPC   PO434068  33.518  18.785   9.310
 2429POPC   GL134069  33.660  19.165   9.079
 2429POPC   GL234070  33.504  19.503   9.016
 2429POPC   C1A34071  33.882  19.273   8.703
 2429POPC   D2A34072  33.930  19.050   8.329
 2429POPC   C3A34073  34.104  19.260   7.998
 2429POPC   C4A34074  33.968  19.109   7.634
 2429POPC   C1B34075  33.489  19.571   8.547
 2429POPC   C2B34076  33.594  19.397   8.104
 2429POPC   C3B34077  33.748  19.560   7.676
 2429POPC   C4B34078  34.137  19.533   7.409
 2430POPC   NC334079   6.344  10.106   9.927
 2430POPC   PO434080   6.617   9.566   9.528
 2430POPC   GL134081   6.645   9.754   9.073
 2430POPC   GL234082   6.369  10.055   8.928
 2430POPC   C1A34083   6.762   9.910   8.682
 2430POPC   D2A34084   6.580  10.209   8.450
 2430POPC   C3A34085   6.761  10.110   8.059
 2430POPC   C4A34086   6.919  10.016   7.661
 2430POPC   C1B34087   6.296   9.708   8.650
 2430POPC   C2B34088   6.553   9.512   8.324
 2430POPC   C3B34089   6.611   9.633   7.878
 2430POPC   C4B34090   6.397  10.002   7.696
 2431POPC   NC334091  44.379  33.863   9.632
 2431POPC   PO434092  43.750  33.816   9.503
 2431POPC   GL134093  43.968  33.961   9.166
 2431POPC   GL234094  44.223  34.214   9.247
 2431POPC   C1A34095  43.825  33.893   8.753
 2431POPC   D2A34096  43.573  33.912   8.392
 2431POPC   C3A34097  43.630  33.750   7.987
 2431POPC   C4A34098  43.690  33.972   7.629
 2431POPC   C1B34099  44.299  34.105   8.792
 2431POPC   C2B34100  44.081  34.170   8.366
 2431POPC   C3B34101  44.116  34.112   7.912
 2431POPC   C4B34102  44.140  33.696   7.724
 2432POPC   NC334103  11.756  30.190   9.565
 2432POPC   PO434104  12.169  29.695   9.750
 2432POPC   GL134105  12.197  29.805   9.301
 2432POPC   GL234106  11.983  30.058   9.134
 2432POPC   C1A34107  12.374  29.756   8.892
 2432POPC   D2A34108  12.137  29.758   8.484
 2432POPC   C3A34109  12.312  29.580   8.091
 2432POPC   C4A34110  12.312  29.863   7.717
 2432POPC   C1B34111  11.769  30.116   8.752
 2432POPC   C2B34112  11.795  30.182   8.328
 2432POPC   C3B34113  11.912  29.909   8.023
 2432POPC   C4B34114  11.802  29.923   7.589
 2433POPC   NC334115  41.634  31.931   9.506
 2433POPC   PO434116  41.577  32.614   9.414
 2433POPC   GL134117  41.362  32.422   9.073
 2433POPC   GL234118  41.453  32.059   9.045
 2433POPC   C1A34119  41.520  32.386   8.656
 2433POPC   D2A34120  41.555  32.061   8.340
 2433POPC   C3A34121  41.610  32.276   7.975
 2433POPC   C4A34122  41.379  32.626   7.936
 2433POPC   C1B34123  41.169  31.972   8.694
 2433POPC   C2B34124  41.033  31.962   8.263
 2433POPC   C3B34125  41.152  32.086   7.867
 2433POPC   C4B34126  41.482  31.854   7.657
 2434POPC   NC334127  22.978   2.760   9.821
 2434POPC   PO434128  22.596   2.839   9.247
 2434POPC   GL134129  22.952   2.785   9.020
 2434POPC   GL234130  22.817   2.470   8.925
 2434POPC   C1A34131  23.018   2.858   8.610
 2434POPC   D2A34132  22.738   3.031   8.313
 2434POPC   C3A34133  23.038   3.162   8.044
 2434POPC   C4A34134  23.313   2.958   7.798
 2434POPC   C1B34135  22.677   2.489   8.473
 2434POPC   C2B34136  22.700   2.592   8.035
 2434POPC   C3B34137  22.804   2.534   7.598
 2434POPC   C4B34138  22.549   2.350   7.238
 2435POPC   NC334139  15.640  44.841   9.534
 2435POPC   PO434140  16.263  44.562   9.602
 2435POPC   GL134141  16.075  44.867   9.279
 2435POPC   GL234142  15.872  44.620   9.147
 2435POPC   C1A34143  15.868  44.994   8.814
 2435POPC   D2A34144  15.765  44.844   8.360
 2435POPC   C3A34145  16.047  44.825   7.947
 2435POPC   C4A34146  16.123  44.980   7.479
 2435POPC   C1B34147  15.946  44.493   8.735
 2435POPC   C2B34148  16.060  44.402   8.316
 2435POPC   C3B34149  16.013  44.312   7.879
 2435POPC   C4B34150  16.419  44.463   7.766
 2436POPC   NC334151  23.977  11.474   9.435
 2436POPC   PO434152  24.019  10.794   9.460
 2436POPC   GL134153  23.790  11.028   9.140
 2436POPC   GL234154  23.513  11.288   9.231
 2436POPC   C1A34155  24.007  11.212   8.765
 2436POPC   D2A34156  24.168  11.114   8.339
 2436POPC   C3A34157  23.898  11.260   7.997
 2436POPC   C4A34158  23.697  11.040   7.638
 2436POPC   C1B34159  23.598  11.553   8.847
 2436POPC   C2B34160  23.727  11.511   8.409
 2436POPC   C3B34161  23.418  11.401   8.099
 2436POPC   C4B34162  23.222  11.225   7.751
 2437POPC   NC334163   8.735  25.942   9.375
 2437POPC   PO434164   9.299  26.259   9.539
 2437POPC   GL134165   9.169  26.094   9.147
 2437POPC   GL234166   8.935  26.361   9.156
 2437POPC   C1A34167   9.009  25.925   8.755
 2437POPC   D2A34168   9.050  25.713   8.363
 2437POPC   C3A34169   8.901  25.911   8.027
 2437POPC   C4A34170   9.092  25.904   7.661
 2437POPC   C1B34171   8.679  26.327   8.800
 2437POPC   C2B34172   8.695  26.187   8.413
 2437POPC   C3B34173   8.609  26.368   8.042
 2437POPC   C4B34174   8.700  26.235   7.660
 2438POPC   NC334175   5.461  29.705   9.471
 2438POPC   PO434176   4.896  30.137   9.500
 2438POPC   GL134177   4.953  29.995   9.122
 2438POPC   GL234178   5.312  30.028   9.111
 2438POPC   C1A34179   5.021  30.133   8.715
 2438POPC   D2A34180   5.007  29.805   8.464
 2438POPC   C3A34181   4.874  29.816   8.061
 2438POPC   C4A34182   4.963  30.111   7.736
 2438POPC   C1B34183   5.482  29.875   8.718
 2438POPC   C2B34184   5.473  29.698   8.285
 2438POPC   C3B34185   5.354  29.756   7.855
 2438POPC   C4B34186   5.449  29.506   7.453
 2439POPC   NC334187  24.810  11.109   9.597
 2439POPC   PO434188  24.405  11.602   9.560
 2439POPC   GL134189  24.659  11.439   9.231
 2439POPC   GL234190  24.523  11.089   9.161
 2439POPC   C1A34191  24.570  11.453   8.799
 2439POPC   D2A34192  24.299  11.600   8.500
 2439POPC   C3A34193  24.375  11.509   8.074
 2439POPC   C4A34194  24.129  11.656   7.762
 2439POPC   C1B34195  24.582  10.950   8.719
 2439POPC   C2B34196  24.691  11.197   8.343
 2439POPC   C3B34197  24.654  11.097   7.894
 2439POPC   C4B34198  24.231  11.055   7.692
 2440POPC   NC334199   3.360  43.298   9.317
 2440POPC   PO434200   3.849  42.879   9.481
 2440POPC   GL134201   3.598  42.821   9.080
 2440POPC   GL234202   3.241  42.678   9.041
 2440POPC   C1A34203   3.588  43.074   8.702
 2440POPC   D2A34204   3.507  43.461   8.486
 2440POPC   C3A34205   3.586  43.362   8.075
 2440POPC   C4A34206   3.563  43.484   7.673
 2440POPC   C1B34207   3.303  42.665   8.578
 2440POPC   C2B34208   3.425  42.870   8.179
 2440POPC   C3B34209   3.385  43.002   7.736
 2440POPC   C4B34210   3.130  42.849   7.368
 2441POPC   NC334211  11.122   1.634   9.612
 2441POPC   PO434212  11.494   2.233   9.546
 2441POPC   GL134213  11.349   1.930   9.224
 2441POPC   GL234214  11.018   1.989   9.170
 2441POPC   C1A34215  11.299   1.769   8.787
 2441POPC   D2A34216  11.402   1.667   8.356
 2441POPC   C3A34217  11.495   1.992   8.081
 2441POPC   C4A34218  11.422   2.059   7.660
 2441POPC   C1B34219  10.801   1.925   8.768
 2441POPC   C2B34220  10.913   1.791   8.363
 2441POPC   C3B34221  11.004   1.902   7.925
 2441POPC   C4B34222  10.780   1.724   7.596
 2442POPC   NC334223   1.168  26.546   9.506
 2442POPC   PO434224   0.894  25.959   9.540
 2442POPC   GL134225   1.165  26.118   9.206
 2442POPC   GL234226   0.959  26.400   9.063
 2442POPC   C1A34227   1.218  25.879   8.825
 2442POPC   D2A34228   0.912  25.970   8.524
 2442POPC   C3A34229   0.981  25.816   8.121
 2442POPC   C4A34230   1.029  25.767   7.672
 2442POPC   C1B34231   1.270  26.369   8.734
 2442POPC   C2B34232   1.394  26.102   8.365
 2442POPC   C3B34233   1.328  26.136   7.904
 2442POPC   C4B34234   1.443  26.464   7.584
 2443POPC   NC334235  23.507   7.436   9.772
 2443POPC   PO434236  22.822   7.455   9.684
 2443POPC   GL134237  22.979   7.476   9.280
 2443POPC   GL234238  23.252   7.251   9.252
 2443POPC   C1A34239  23.048   7.617   8.865
 2443POPC   D2A34240  23.290   7.568   8.508
 2443POPC   C3A34241  22.990   7.571   8.177
 2443POPC   C4A34242  22.817   7.483   7.804
 2443POPC   C1B34243  23.077   7.089   8.830
 2443POPC   C2B34244  22.761   7.181   8.461
 2443POPC   C3B34245  22.607   7.063   8.015
 2443POPC   C4B34246  22.668   7.105   7.513
 2444POPC   NC334247  18.443  24.839   9.624
 2444POPC   PO434248  18.319  24.179   9.619
 2444POPC   GL134249  18.624  24.325   9.279
 2444POPC   GL234250  18.626  24.656   9.155
 2444POPC   C1A34251  18.727  24.278   8.812
 2444POPC   D2A34252  18.890  24.408   8.378
 2444POPC   C3A34253  18.647  24.449   7.993
 2444POPC   C4A34254  18.550  24.493   7.558
 2444POPC   C1B34255  18.620  24.820   8.705
 2444POPC   C2B34256  18.599  24.891   8.242
 2444POPC   C3B34257  18.374  24.973   7.824
 2444POPC   C4B34258  18.388  25.310   7.487
 2445POPC   NC334259  28.908  35.912   9.557
 2445POPC   PO434260  29.483  36.355   9.581
 2445POPC   GL134261  29.278  36.342   9.156
 2445POPC   GL234262  28.927  36.282   9.160
 2445POPC   C1A34263  29.153  36.382   8.710
 2445POPC   D2A34264  29.353  36.316   8.348
 2445POPC   C3A34265  29.130  36.170   7.999
 2445POPC   C4A34266  29.055  36.390   7.616
 2445POPC   C1B34267  29.055  35.925   8.886
 2445POPC   C2B34268  29.198  35.831   8.460
 2445POPC   C3B34269  29.101  35.654   8.057
 2445POPC   C4B34270  28.801  35.831   7.768
 2446POPC   NC334271  40.539  29.949   9.531
 2446POPC   PO434272  41.152  30.151   9.379
 2446POPC   GL134273  40.897  29.976   9.094
 2446POPC   GL234274  40.654  29.726   9.063
 2446POPC   C1A34275  40.994  29.891   8.676
 2446POPC   D2A34276  41.109  30.060   8.296
 2446POPC   C3A34277  40.865  30.113   7.912
 2446POPC   C4A34278  40.783  29.847   7.555
 2446POPC   C1B34279  40.517  30.086   8.767
 2446POPC   C2B34280  40.474  30.167   8.303
 2446POPC   C3B34281  40.363  30.014   7.860
 2446POPC   C4B34282  40.298  29.803   7.437
 2447POPC   NC334283  30.628  26.102   9.559
 2447POPC   PO434284  30.449  25.565   9.253
 2447POPC   GL134285  30.638  25.922   9.042
 2447POPC   GL234286  30.750  26.278   9.081
 2447POPC   C1A34287  30.594  26.041   8.631
 2447POPC   D2A34288  30.808  25.939   8.279
 2447POPC   C3A34289  30.504  26.042   7.957
 2447POPC   C4A34290  30.445  25.844   7.565
 2447POPC   C1B34291  31.071  26.123   8.769
 2447POPC   C2B34292  31.340  26.209   8.379
 2447POPC   C3B34293  31.192  26.142   7.989
 2447POPC   C4B34294  30.928  25.880   7.741
 2448POPC   NC334295  19.411   9.004   9.336
 2448POPC   PO434296  18.991   8.484   9.400
 2448POPC   GL134297  18.979   8.802   9.087
 2448POPC   GL234298  18.924   9.165   9.174
 2448POPC   C1A34299  19.186   8.912   8.698
 2448POPC   D2A34300  19.028   9.044   8.326
 2448POPC   C3A34301  19.258   9.082   7.962
 2448POPC   C4A34302  19.144   8.736   7.741
 2448POPC   C1B34303  18.748   9.190   8.757
 2448POPC   C2B34304  18.619   9.344   8.361
 2448POPC   C3B34305  18.760   9.284   7.948
 2448POPC   C4B34306  18.624   9.417   7.554
 2449POPC   NC334307  40.277  36.394   9.301
 2449POPC   PO434308  40.052  35.841   9.626
 2449POPC   GL134309  40.145  35.893   9.189
 2449POPC   GL234310  39.851  36.097   9.093
 2449POPC   C1A34311  40.221  36.033   8.752
 2449POPC   D2A34312  39.933  36.095   8.435
 2449POPC   C3A34313  40.046  35.964   8.048
 2449POPC   C4A34314  39.773  35.949   7.687
 2449POPC   C1B34315  39.745  36.418   8.783
 2449POPC   C2B34316  39.707  36.583   8.367
 2449POPC   C3B34317  39.736  36.370   8.002
 2449POPC   C4B34318  40.020  36.389   7.655
 2450POPC   NC334319  39.887  22.314   9.742
 2450POPC   PO434320  40.445  22.546   9.400
 2450POPC   GL134321  40.168  22.227   9.175
 2450POPC   GL234322  39.839  22.042   9.182
 2450POPC   C1A34323  40.231  21.983   8.778
 2450POPC   D2A34324  40.324  21.991   8.296
 2450POPC   C3A34325  39.970  22.091   7.984
 2450POPC   C4A34326  39.970  22.105   7.546
 2450POPC   C1B34327  39.767  22.214   8.770
 2450POPC   C2B34328  39.978  22.366   8.414
 2450POPC   C3B34329  39.879  22.611   8.041
 2450POPC   C4B34330  39.614  22.415   7.740
 2451POPC   NC334331  25.285  34.671   9.655
 2451POPC   PO434332  24.762  35.015   9.349
 2451POPC   GL134333  25.130  34.780   9.177
 2451POPC   GL234334  25.515  34.738   9.216
 2451POPC   C1A34335  25.239  34.624   8.791
 2451POPC   D2A34336  25.225  34.844   8.433
 2451POPC   C3A34337  25.055  34.641   8.098
 2451POPC   C4A34338  25.002  34.755   7.709
 2451POPC   C1B34339  25.746  34.591   8.861
 2451POPC   C2B34340  25.644  34.538   8.443
 2451POPC   C3B34341  25.582  34.764   8.068
 2451POPC   C4B34342  25.479  34.543   7.740
 2452POPC   NC334343  19.942  25.594   9.549
 2452POPC   PO434344  19.570  25.108   9.489
 2452POPC   GL134345  19.702  25.344   9.126
 2452POPC   GL234346  19.939  25.096   9.113
 2452POPC   C1A34347  19.810  25.253   8.656
 2452POPC   D2A34348  19.661  24.952   8.379
 2452POPC   C3A34349  19.663  25.182   8.027
 2452POPC   C4A34350  19.741  25.136   7.599
 2452POPC   C1B34351  20.262  25.180   8.841
 2452POPC   C2B34352  20.249  25.465   8.480
 2452POPC   C3B34353  20.168  25.312   8.097
 2452POPC   C4B34354  20.106  25.445   7.765
 2453POPC   NC334355  18.515  27.599   9.444
 2453POPC   PO434356  18.043  27.176   9.272
 2453POPC   GL134357  18.313  27.398   9.003
 2453POPC   GL234358  18.207  27.723   8.970
 2453POPC   C1A34359  18.397  27.434   8.570
 2453POPC   D2A34360  18.328  27.271   8.187
 2453POPC   C3A34361  18.205  27.608   7.899
 2453POPC   C4A34362  18.153  27.424   7.480
 2453POPC   C1B34363  18.651  27.798   8.839
 2453POPC   C2B34364  18.819  27.836   8.440
 2453POPC   C3B34365  18.704  27.634   8.068
 2453POPC   C4B34366  18.617  27.683   7.632
 2454POPC   NC334367   6.384   8.417   9.471
 2454POPC   PO434368   6.991   8.642   9.609
 2454POPC   GL134369   6.843   8.315   9.296
 2454POPC   GL234370   6.929   8.529   9.088
 2454POPC   C1A34371   6.609   8.258   8.847
 2454POPC   D2A34372   6.790   8.164   8.431
 2454POPC   C3A34373   6.583   8.114   8.022
 2454POPC   C4A34374   6.465   8.356   7.660
 2454POPC   C1B34375   6.884   8.676   8.706
 2454POPC   C2B34376   7.114   8.556   8.375
 2454POPC   C3B34377   6.934   8.522   7.995
 2454POPC   C4B34378   6.983   8.251   7.698
 2455POPC   NC334379   2.288  10.857   9.606
 2455POPC   PO434380   1.657  11.239   9.516
 2455POPC   GL134381   1.812  11.289   9.080
 2455POPC   GL234382   2.137  11.212   9.027
 2455POPC   C1A34383   1.925  11.474   8.656
 2455POPC   D2A34384   2.153  11.401   8.306
 2455POPC   C3A34385   1.949  11.357   7.975
 2455POPC   C4A34386   1.812  11.409   7.605
 2455POPC   C1B34387   2.097  10.976   8.614
 2455POPC   C2B34388   1.967  10.869   8.164
 2455POPC   C3B34389   2.020  10.932   7.715
 2455POPC   C4B34390   2.260  10.898   7.373
 2456POPC   NC334391  35.845  12.502   9.374
 2456POPC   PO434392  36.530  12.811   9.445
 2456POPC   GL134393  36.246  12.694   9.088
 2456POPC   GL234394  36.199  12.310   9.056
 2456POPC   C1A34395  36.041  12.908   8.719
 2456POPC   D2A34396  35.894  12.826   8.273
 2456POPC   C3A34397  36.103  13.056   7.923
 2456POPC   C4A34398  36.229  13.302   7.557
 2456POPC   C1B34399  36.010  12.381   8.690
 2456POPC   C2B34400  36.312  12.557   8.442
 2456POPC   C3B34401  36.379  12.627   8.027
 2456POPC   C4B34402  36.515  12.675   7.624
 2457POPC   NC334403  31.868  16.286   9.333
 2457POPC   PO434404  32.344  15.948   9.616
 2457POPC   GL134405  32.203  15.830   9.192
 2457POPC   GL234406  32.569  15.813   9.103
 2457POPC   C1A34407  32.005  15.681   8.764
 2457POPC   D2A34408  31.913  15.940   8.366
 2457POPC   C3A34409  31.979  15.808   7.908
 2457POPC   C4A34410  32.128  16.148   7.608
 2457POPC   C1B34411  32.489  15.740   8.661
 2457POPC   C2B34412  32.375  15.688   8.233
 2457POPC   C3B34413  32.494  15.812   7.816
 2457POPC   C4B34414  32.618  15.998   7.435
 2458POPC   NC334415  11.323  42.147   9.451
 2458POPC   PO434416  10.890  42.687   9.411
 2458POPC   GL134417  11.124  42.454   9.098
 2458POPC   GL234418  11.028  42.098   9.016
 2458POPC   C1A34419  11.341  42.361   8.713
 2458POPC   D2A34420  11.110  42.499   8.363
 2458POPC   C3A34421  11.322  42.510   7.978
 2458POPC   C4A34422  11.552  42.204   7.817
 2458POPC   C1B34423  10.972  41.978   8.574
 2458POPC   C2B34424  11.093  42.037   8.132
 2458POPC   C3B34425  10.951  42.214   7.758
 2458POPC   C4B34426  10.913  42.030   7.329
 2459POPC   NC334427  13.022  33.295   9.465
 2459POPC   PO434428  12.506  32.734   9.496
 2459POPC   GL134429  12.772  32.994   9.147
 2459POPC   GL234430  12.647  33.379   9.134
 2459POPC   C1A34431  12.960  32.842   8.738
 2459POPC   D2A34432  12.828  32.722   8.321
 2459POPC   C3A34433  13.051  32.948   7.993
 2459POPC   C4A34434  12.873  33.173   7.666
 2459POPC   C1B34435  12.687  33.283   8.730
 2459POPC   C2B34436  12.845  33.290   8.334
 2459POPC   C3B34437  12.581  33.401   7.997
 2459POPC   C4B34438  12.387  33.398   7.587
 2460POPC   NC334439  23.569  10.681   9.516
 2460POPC   PO434440  23.848  10.079   9.346
 2460POPC   GL134441  23.791  10.467   9.118
 2460POPC   GL234442  23.429  10.610   9.033
 2460POPC   C1A34443  23.892  10.654   8.749
 2460POPC   D2A34444  23.831  10.451   8.364
 2460POPC   C3A34445  23.892  10.734   8.011
 2460POPC   C4A34446  23.965  10.633   7.565
 2460POPC   C1B34447  23.446  10.244   8.749
 2460POPC   C2B34448  23.374  10.113   8.323
 2460POPC   C3B34449  23.542  10.361   7.962
 2460POPC   C4B34450  23.617  10.264   7.524
 2461POPC   NC334451  42.891  23.388   9.563
 2461POPC   PO434452  43.313  23.861   9.389
 2461POPC   GL134453  43.052  23.636   9.138
 2461POPC   GL234454  42.823  23.856   9.043
 2461POPC   C1A34455  43.223  23.457   8.769
 2461POPC   D2A34456  43.054  23.370   8.387
 2461POPC   C3A34457  43.267  23.517   8.047
 2461POPC   C4A34458  43.173  23.434   7.647
 2461POPC   C1B34459  42.896  23.808   8.610
 2461POPC   C2B34460  42.821  23.770   8.151
 2461POPC   C3B34461  42.758  23.793   7.709
 2461POPC   C4B34462  42.687  24.100   7.367
 2462POPC   NC334463   5.573   1.943   9.273
 2462POPC   PO434464   6.082   1.600   9.548
 2462POPC   GL134465   5.936   1.621   9.136
 2462POPC   GL234466   6.044   1.953   9.113
 2462POPC   C1A34467   5.719   1.739   8.706
 2462POPC   D2A34468   5.613   1.596   8.300
 2462POPC   C3A34469   5.822   1.778   7.902
 2462POPC   C4A34470   5.602   1.877   7.527
 2462POPC   C1B34471   6.152   2.042   8.730
 2462POPC   C2B34472   6.006   1.960   8.358
 2462POPC   C3B34473   5.628   2.111   8.207
 2462POPC   C4B34474   5.677   2.312   7.808
 2463POPC   NC334475  24.910  13.587   9.638
 2463POPC   PO434476  24.282  13.954   9.427
 2463POPC   GL134477  24.487  13.704   9.120
 2463POPC   GL234478  24.344  13.376   9.020
 2463POPC   C1A34479  24.653  13.644   8.736
 2463POPC   D2A34480  24.448  13.671   8.345
 2463POPC   C3A34481  24.522  13.570   7.916
 2463POPC   C4A34482  24.433  13.754   7.472
 2463POPC   C1B34483  24.110  13.362   8.643
 2463POPC   C2B34484  24.000  13.421   8.218
 2463POPC   C3B34485  24.167  13.170   7.891
 2463POPC   C4B34486  24.440  13.223   7.541
 2464POPC   NC334487  42.311  15.894   9.439
 2464POPC   PO434488  42.770  16.353   9.392
 2464POPC   GL134489  42.608  16.059   9.068
 2464POPC   GL234490  42.691  15.697   9.132
 2464POPC   C1A34491  42.263  16.021   8.791
 2464POPC   D2A34492  41.955  16.022   8.464
 2464POPC   C3A34493  42.088  15.917   8.041
 2464POPC   C4A34494  42.158  16.218   7.748
 2464POPC   C1B34495  42.682  15.684   8.694
 2464POPC   C2B34496  42.485  15.856   8.335
 2464POPC   C3B34497  42.598  15.967   7.906
 2464POPC   C4B34498  42.961  15.781   7.727
 2465POPC   NC334499   3.306  16.168   9.577
 2465POPC   PO434500   2.969  16.652   9.654
 2465POPC   GL134501   3.200  16.797   9.286
 2465POPC   GL234502   3.228  16.466   9.121
 2465POPC   C1A34503   3.099  16.860   8.813
 2465POPC   D2A34504   3.343  16.809   8.400
 2465POPC   C3A34505   3.239  16.690   7.954
 2465POPC   C4A34506   3.493  16.857   7.590
 2465POPC   C1B34507   3.309  16.353   8.663
 2465POPC   C2B34508   3.466  16.326   8.234
 2465POPC   C3B34509   3.715  16.506   7.883
 2465POPC   C4B34510   3.839  16.527   7.415
 2466POPC   NC334511  44.971  34.513   9.292
 2466POPC   PO434512   0.532  34.605   9.701
 2466POPC   GL134513   0.481  34.627   9.247
 2466POPC   GL234514   0.530  34.266   9.245
 2466POPC   C1A34515   0.544  34.719   8.778
 2466POPC   D2A34516   0.292  34.748   8.382
 2466POPC   C3A34517   0.533  34.814   8.022
 2466POPC   C4A34518   0.463  34.659   7.603
 2466POPC   C1B34519   0.387  34.240   8.819
 2466POPC   C2B34520   0.526  34.302   8.404
 2466POPC   C3B34521   0.418  34.320   7.989
 2466POPC   C4B34522   0.132  34.278   7.632
 2467POPC   NC334523   7.219  10.435   9.596
 2467POPC   PO434524   7.665  10.776   9.533
 2467POPC   GL134525   7.415  10.688   9.178
 2467POPC   GL234526   7.460  10.391   9.112
 2467POPC   C1A34527   7.358  10.721   8.723
 2467POPC   D2A34528   7.448  10.474   8.369
 2467POPC   C3A34529   7.530  10.601   8.005
 2467POPC   C4A34530   7.382  10.896   7.783
 2467POPC   C1B34531   7.431  10.155   8.744
 2467POPC   C2B34532   7.147  10.073   8.400
 2467POPC   C3B34533   7.296  10.112   7.998
 2467POPC   C4B34534   7.330  10.364   7.605
 2468POPC   NC334535  13.707  30.956   9.665
 2468POPC   PO434536  13.232  30.689   9.327
 2468POPC   GL134537  13.629  30.714   9.192
 2468POPC   GL234538  13.812  30.382   9.208
 2468POPC   C1A34539  13.568  30.828   8.778
 2468POPC   D2A34540  13.441  30.579   8.445
 2468POPC   C3A34541  13.565  30.782   8.073
 2468POPC   C4A34542  13.501  30.642   7.679
 2468POPC   C1B34543  13.806  30.385   8.758
 2468POPC   C2B34544  13.949  30.605   8.372
 2468POPC   C3B34545  14.112  30.445   7.967
 2468POPC   C4B34546  13.926  30.397   7.549
 2469POPC   NC334547   7.281  12.827   9.455
 2469POPC   PO434548   7.834  12.439   9.232
 2469POPC   GL134549   7.697  12.602   8.864
 2469POPC   GL234550   7.576  12.873   9.013
 2469POPC   C1A34551   7.382  12.756   8.550
 2469POPC   D2A34552   7.041  12.545   8.304
 2469POPC   C3A34553   7.152  12.564   7.872
 2469POPC   C4A34554   7.443  12.338   7.606
 2469POPC   C1B34555   7.792  13.079   8.658
 2469POPC   C2B34556   7.769  13.158   8.195
 2469POPC   C3B34557   7.615  13.244   7.744
 2469POPC   C4B34558   7.482  13.323   7.311
 2470POPC   NC334559  13.198  15.885   9.672
 2470POPC   PO434560  12.811  16.333   9.398
 2470POPC   GL134561  12.859  15.993   9.080
 2470POPC   GL234562  13.056  15.706   9.202
 2470POPC   C1A34563  12.876  15.990   8.594
 2470POPC   D2A34564  13.211  16.117   8.260
 2470POPC   C3A34565  13.082  16.315   7.884
 2470POPC   C4A34566  12.625  16.370   7.782
 2470POPC   C1B34567  12.872  15.530   8.834
 2470POPC   C2B34568  12.701  15.536   8.436
 2470POPC   C3B34569  12.829  15.548   8.049
 2470POPC   C4B34570  12.966  15.837   7.742
 2471POPC   NC334571  39.111  18.020   9.488
 2471POPC   PO434572  39.114  18.694   9.393
 2471POPC   GL134573  39.324  18.434   9.109
 2471POPC   GL234574  39.383  18.086   9.091
 2471POPC   C1A34575  39.259  18.422   8.688
 2471POPC   D2A34576  38.967  18.295   8.398
 2471POPC   C3A34577  38.967  18.488   8.018
 2471POPC   C4A34578  38.900  18.401   7.627
 2471POPC   C1B34579  39.545  17.997   8.704
 2471POPC   C2B34580  39.358  17.959   8.313
 2471POPC   C3B34581  39.336  18.096   7.901
 2471POPC   C4B34582  39.641  18.135   7.550
 2472POPC   NC334583  11.645  36.909   9.416
 2472POPC   PO434584  11.082  37.060   9.736
 2472POPC   GL134585  11.117  36.974   9.242
 2472POPC   GL234586  10.868  37.123   9.026
 2472POPC   C1A34587  11.309  36.810   8.833
 2472POPC   D2A34588  11.269  36.635   8.406
 2472POPC   C3A34589  11.468  36.781   8.022
 2472POPC   C4A34590  11.379  36.780   7.579
 2472POPC   C1B34591  10.925  37.037   8.593
 2472POPC   C2B34592  11.270  37.143   8.334
 2472POPC   C3B34593  11.455  37.290   7.947
 2472POPC   C4B34594  11.470  37.370   7.489
 2473POPC   NC334595  40.980  26.202   9.353
 2473POPC   PO434596  40.331  26.153   9.435
 2473POPC   GL134597  40.534  26.256   9.101
 2473POPC   GL234598  40.662  25.896   9.096
 2473POPC   C1A34599  40.682  26.440   8.730
 2473POPC   D2A34600  40.945  26.389   8.383
 2473POPC   C3A34601  40.851  26.178   7.981
 2473POPC   C4A34602  40.716  26.095   7.550
 2473POPC   C1B34603  40.883  25.962   8.707
 2473POPC   C2B34604  40.809  25.773   8.299
 2473POPC   C3B34605  41.097  25.694   7.967
 2473POPC   C4B34606  41.071  25.747   7.528
 2474POPC   NC334607  25.712  13.770   9.405
 2474POPC   PO434608  25.091  14.008   9.666
 2474POPC   GL134609  24.991  13.659   9.157
 2474POPC   GL234610  25.302  13.441   9.138
 2474POPC   C1A34611  25.141  13.750   8.676
 2474POPC   D2A34612  25.500  13.957   8.492
 2474POPC   C3A34613  25.353  14.111   8.100
 2474POPC   C4A34614  25.320  13.839   7.725
 2474POPC   C1B34615  25.090  13.263   8.772
 2474POPC   C2B34616  24.906  13.413   8.356
 2474POPC   C3B34617  25.067  13.327   7.972
 2474POPC   C4B34618  25.456  13.365   7.790
 2475POPC   NC334619  22.091  16.834   9.616
 2475POPC   PO434620  21.842  16.335   9.526
 2475POPC   GL134621  21.972  16.539   9.129
 2475POPC   GL234622  22.119  16.866   9.099
 2475POPC   C1A34623  22.085  16.550   8.682
 2475POPC   D2A34624  22.368  16.696   8.351
 2475POPC   C3A34625  22.193  16.702   7.928
 2475POPC   C4A34626  22.016  16.751   7.509
 2475POPC   C1B34627  22.151  17.066   8.668
 2475POPC   C2B34628  22.281  17.191   8.227
 2475POPC   C3B34629  22.308  17.168   7.751
 2475POPC   C4B34630  22.386  17.119   7.289
 2476POPC   NC334631  19.689   6.697   9.559
 2476POPC   PO434632  20.291   6.530   9.658
 2476POPC   GL134633  20.053   6.535   9.249
 2476POPC   GL234634  19.964   6.902   9.141
 2476POPC   C1A34635  19.721   6.548   8.926
 2476POPC   D2A34636  19.926   6.707   8.594
 2476POPC   C3A34637  19.829   6.663   8.188
 2476POPC   C4A34638  19.675   6.616   7.779
 2476POPC   C1B34639  19.624   7.061   8.813
 2476POPC   C2B34640  19.445   7.026   8.371
 2476POPC   C3B34641  19.673   7.111   7.977
 2476POPC   C4B34642  20.076   6.914   7.800
 2477POPC   NC334643   2.608  18.502   9.468
 2477POPC   PO434644   2.037  18.007   9.514
 2477POPC   GL134645   1.838  18.017   9.125
 2477POPC   GL234646   2.107  18.247   9.030
 2477POPC   C1A34647   1.804  18.048   8.664
 2477POPC   D2A34648   1.819  18.398   8.335
 2477POPC   C3A34649   1.886  18.239   7.934
 2477POPC   C4A34650   1.835  17.825   7.806
 2477POPC   C1B34651   2.248  18.346   8.615
 2477POPC   C2B34652   2.328  18.758   8.410
 2477POPC   C3B34653   2.253  18.861   7.967
 2477POPC   C4B34654   2.001  18.657   7.663
 2478POPC   NC334655  30.839  33.703   9.603
 2478POPC   PO434656  30.311  33.303   9.429
 2478POPC   GL134657  30.518  33.687   9.183
 2478POPC   GL234658  30.911  33.776   9.105
 2478POPC   C1A34659  30.597  33.718   8.726
 2478POPC   D2A34660  30.478  33.814   8.317
 2478POPC   C3A34661  30.673  33.662   7.947
 2478POPC   C4A34662  30.454  33.837   7.615
 2478POPC   C1B34663  30.935  34.117   8.754
 2478POPC   C2B34664  30.665  34.300   8.384
 2478POPC   C3B34665  30.635  34.171   7.961
 2478POPC   C4B34666  30.998  34.079   7.770
 2479POPC   NC334667  44.474   4.398   9.478
 2479POPC   PO434668  44.918   3.886   9.383
 2479POPC   GL134669  44.735   4.139   9.075
 2479POPC   GL234670  44.408   4.060   9.118
 2479POPC   C1A34671  44.727   4.179   8.624
 2479POPC   D2A34672  44.583   4.423   8.276
 2479POPC   C3A34673  44.789   4.415   7.863
 2479POPC   C4A34674  44.804   4.411   7.388
 2479POPC   C1B34675  44.248   4.278   8.762
 2479POPC   C2B34676  44.155   4.621   8.474
 2479POPC   C3B34677  44.253   4.718   8.022
 2479POPC   C4B34678  44.315   4.466   7.661
 2480POPC   NC334679  17.057  41.581   9.378
 2480POPC   PO434680  16.530  41.937   9.270
 2480POPC   GL134681  16.717  41.651   8.979
 2480POPC   GL234682  16.661  41.345   9.136
 2480POPC   C1A34683  16.975  41.586   8.609
 2480POPC   D2A34684  17.061  41.533   8.182
 2480POPC   C3A34685  16.743  41.572   7.896
 2480POPC   C4A34686  16.740  41.841   7.534
 2480POPC   C1B34687  16.818  41.128   8.753
 2480POPC   C2B34688  16.721  41.154   8.331
 2480POPC   C3B34689  16.482  41.139   7.982
 2480POPC   C4B34690  16.518  41.263   7.557
 2481POPC   NC334691  44.935  15.014   9.537
 2481POPC   PO434692  44.387  15.413   9.726
 2481POPC   GL134693  44.470  15.252   9.262
 2481POPC   GL234694  44.833  15.318   9.123
 2481POPC   C1A34695  44.462  15.174   8.761
 2481POPC   D2A34696  44.517  15.352   8.309
 2481POPC   C3A34697  44.603  15.138   7.903
 2481POPC   C4A34698  44.456  15.150   7.453
 2481POPC   C1B34699   0.023  15.629   8.830
 2481POPC   C2B34700  44.863  15.754   8.418
 2481POPC   C3B34701  44.864  15.573   8.018
 2481POPC   C4B34702  44.990  15.388   7.642
 2482POPC   NC334703  37.469  16.325   9.391
 2482POPC   PO434704  37.976  15.817   9.547
 2482POPC   GL134705  37.733  15.796   9.164
 2482POPC   GL234706  37.388  15.851   9.207
 2482POPC   C1A34707  37.802  15.794   8.707
 2482POPC   D2A34708  37.590  15.549   8.376
 2482POPC   C3A34709  37.663  15.752   7.965
 2482POPC   C4A34710  37.856  16.145   7.863
 2482POPC   C1B34711  37.286  15.866   8.757
 2482POPC   C2B34712  37.477  16.060   8.374
 2482POPC   C3B34713  37.339  16.236   7.975
 2482POPC   C4B34714  37.423  16.124   7.551
 2483POPC   NC334715  13.198  19.965   9.427
 2483POPC   PO434716  12.626  19.631   9.536
 2483POPC   GL134717  12.740  19.953   9.200
 2483POPC   GL234718  12.439  20.145   9.114
 2483POPC   C1A34719  12.957  19.955   8.774
 2483POPC   D2A34720  13.182  19.817   8.402
 2483POPC   C3A34721  13.061  19.880   7.974
 2483POPC   C4A34722  13.235  19.683   7.602
 2483POPC   C1B34723  12.473  19.774   8.822
 2483POPC   C2B34724  12.672  19.584   8.460
 2483POPC   C3B34725  12.580  19.663   8.031
 2483POPC   C4B34726  12.597  19.998   7.758
 2484POPC   NC334727  19.743  19.081   9.694
 2484POPC   PO434728  20.344  19.382   9.709
 2484POPC   GL134729  20.046  19.348   9.306
 2484POPC   GL234730  19.753  19.154   9.198
 2484POPC   C1A34731  20.032  19.355   8.823
 2484POPC   D2A34732  19.784  19.422   8.439
 2484POPC   C3A34733  19.865  19.137   8.128
 2484POPC   C4A34734  19.889  19.234   7.735
 2484POPC   C1B34735  19.514  19.292   8.846
 2484POPC   C2B34736  19.409  19.066   8.451
 2484POPC   C3B34737  19.390  18.965   8.024
 2484POPC   C4B34738  19.546  18.873   7.620
 2485POPC   NC334739  35.760  22.016   9.424
 2485POPC   PO434740  35.093  22.376   9.472
 2485POPC   GL134741  35.193  22.226   9.092
 2485POPC   GL234742  35.523  22.293   9.098
 2485POPC   C1A34743  35.300  22.289   8.647
 2485POPC   D2A34744  35.415  22.046   8.309
 2485POPC   C3A34745  35.467  22.262   7.938
 2485POPC   C4A34746  35.211  22.206   7.593
 2485POPC   C1B34747  35.669  21.984   8.784
 2485POPC   C2B34748  35.899  22.101   8.418
 2485POPC   C3B34749  35.849  21.898   8.007
 2485POPC   C4B34750  35.672  21.953   7.579
 2486POPC   NC334751  11.571  15.605   9.498
 2486POPC   PO434752  11.124  16.193   9.473
 2486POPC   GL134753  11.385  15.988   9.199
 2486POPC   GL234754  11.152  15.716   9.134
 2486POPC   C1A34755  11.548  15.982   8.786
 2486POPC   D2A34756  11.666  16.129   8.374
 2486POPC   C3A34757  11.484  15.918   8.082
 2486POPC   C4A34758  11.420  16.092   7.712
 2486POPC   C1B34759  11.035  16.017   8.810
 2486POPC   C2B34760  11.079  16.053   8.370
 2486POPC   C3B34761  10.982  16.001   7.934
 2486POPC   C4B34762  10.991  16.216   7.485
 2487POPC   NC334763  15.906  38.343   9.646
 2487POPC   PO434764  16.510  38.652   9.704
 2487POPC   GL134765  16.195  38.600   9.308
 2487POPC   GL234766  16.014  38.306   9.166
 2487POPC   C1A34767  15.950  38.701   8.868
 2487POPC   D2A34768  16.005  38.518   8.414
 2487POPC   C3A34769  15.974  38.733   7.996
 2487POPC   C4A34770  16.179  38.731   7.550
 2487POPC   C1B34771  16.143  38.175   8.782
 2487POPC   C2B34772  15.997  38.011   8.400
 2487POPC   C3B34773  16.172  38.107   8.032
 2487POPC   C4B34774  15.966  38.311   7.713
 2488POPC   NC334775   2.641  22.967   9.650
 2488POPC   PO434776   2.623  22.375   9.818
 2488POPC   GL134777   2.523  22.660   9.286
 2488POPC   GL234778   2.527  23.082   9.177
 2488POPC   C1A34779   2.700  22.773   8.824
 2488POPC   D2A34780   2.545  22.928   8.368
 2488POPC   C3A34781   2.610  22.758   7.953
 2488POPC   C4A34782   3.026  22.657   7.720
 2488POPC   C1B34783   2.682  23.282   8.763
 2488POPC   C2B34784   2.535  23.462   8.390
 2488POPC   C3B34785   2.411  23.323   7.992
 2488POPC   C4B34786   2.632  23.184   7.648
 2489POPC   NC334787   7.353   4.720   9.398
 2489POPC   PO434788   7.647   5.247   9.555
 2489POPC   GL134789   7.531   5.137   9.154
 2489POPC   GL234790   7.786   4.867   9.119
 2489POPC   C1A34791   7.194   5.104   8.848
 2489POPC   D2A34792   7.361   5.262   8.467
 2489POPC   C3A34793   7.252   5.043   8.063
 2489POPC   C4A34794   7.380   5.108   7.622
 2489POPC   C1B34795   7.650   4.895   8.696
 2489POPC   C2B34796   7.740   4.992   8.261
 2489POPC   C3B34797   7.686   4.793   7.876
 2489POPC   C4B34798   7.819   4.739   7.405
 2490POPC   NC334799  26.285  34.684   9.697
 2490POPC   PO434800  25.980  34.215   9.549
 2490POPC   GL134801  26.043  34.537   9.268
 2490POPC   GL234802  26.151  34.310   9.036
 2490POPC   C1A34803  26.221  34.807   8.932
 2490POPC   D2A34804  26.100  34.794   8.527
 2490POPC   C3A34805  26.069  34.589   8.170
 2490POPC   C4A34806  26.053  34.719   7.780
 2490POPC   C1B34807  26.057  34.247   8.599
 2490POPC   C2B34808  25.901  34.122   8.189
 2490POPC   C3B34809  25.905  34.242   7.756
 2490POPC   C4B34810  25.843  34.186   7.313
 2491POPC   NC334811  32.492  30.856   9.366
 2491POPC   PO434812  32.152  30.335   9.562
 2491POPC   GL134813  31.929  30.644   9.312
 2491POPC   GL234814  31.789  30.390   9.139
 2491POPC   C1A34815  31.907  30.897   8.914
 2491POPC   D2A34816  32.172  30.940   8.519
 2491POPC   C3A34817  32.131  31.088   8.091
 2491POPC   C4A34818  32.377  30.820   7.806
 2491POPC   C1B34819  32.152  30.437   8.875
 2491POPC   C2B34820  32.175  30.423   8.426
 2491POPC   C3B34821  32.176  30.360   7.975
 2491POPC   C4B34822  32.384  30.344   7.581
 2492POPC   NC334823  44.372  17.250   9.363
 2492POPC   PO434824  44.250  16.586   9.520
 2492POPC   GL134825  44.481  16.595   9.143
 2492POPC   GL234826  44.630  16.917   9.053
 2492POPC   C1A34827  44.467  16.546   8.711
 2492POPC   D2A34828  44.571  16.742   8.314
 2492POPC   C3A34829  44.578  16.502   7.922
 2492POPC   C4A34830  44.417  16.215   7.628
 2492POPC   C1B34831  44.605  17.146   8.651
 2492POPC   C2B34832  44.575  17.240   8.183
 2492POPC   C3B34833  44.418  16.971   7.831
 2492POPC   C4B34834  44.505  16.733   7.435
 2493POPC   NC334835  28.427  44.220   9.798
 2493POPC   PO434836  28.611  44.685   9.407
 2493POPC   GL134837  28.208  44.672   9.205
 2493POPC   GL234838  28.181   0.022   9.130
 2493POPC   C1A34839  28.217  44.642   8.751
 2493POPC   D2A34840  28.586  44.506   8.512
 2493POPC   C3A34841  28.663  44.576   8.089
 2493POPC   C4A34842  28.488  44.420   7.736
 2493POPC   C1B34843  28.440   0.137   8.742
 2493POPC   C2B34844  28.400  44.961   8.350
 2493POPC   C3B34845  28.226  44.884   7.956
 2493POPC   C4B34846  28.596  44.948   7.743
 2494POPC   NC334847  41.194  40.784   9.437
 2494POPC   PO434848  40.632  40.972   9.360
 2494POPC   GL134849  40.981  41.077   9.059
 2494POPC   GL234850  41.327  41.096   9.048
 2494POPC   C1A34851  41.060  41.139   8.624
 2494POPC   D2A34852  40.955  40.784   8.384
 2494POPC   C3A34853  40.741  40.843   8.025
 2494POPC   C4A34854  40.848  40.930   7.628
 2494POPC   C1B34855  41.282  40.691   8.776
 2494POPC   C2B34856  41.408  40.490   8.382
 2494POPC   C3B34857  41.164  40.542   7.984
 2494POPC   C4B34858  40.809  40.438   7.675
 2495POPC   NC334859  39.233   8.433   9.602
 2495POPC   PO434860  39.062   7.920   9.846
 2495POPC   GL134861  39.030   8.037   9.344
 2495POPC   GL234862  39.274   8.254   9.118
 2495POPC   C1A34863  38.997   7.863   8.895
 2495POPC   D2A34864  39.105   7.845   8.445
 2495POPC   C3A34865  39.123   8.198   8.167
 2495POPC   C4A34866  38.963   8.311   7.786
 2495POPC   C1B34867  39.327   8.325   8.640
 2495POPC   C2B34868  39.598   8.404   8.237
 2495POPC   C3B34869  39.499   8.274   7.765
 2495POPC   C4B34870  39.644   8.341   7.316
 2496POPC   NC334871  10.374  13.598   9.932
 2496POPC   PO434872  10.862  13.832   9.534
 2496POPC   GL134873  10.631  13.865   9.137
 2496POPC   GL234874  10.544  13.514   9.193
 2496POPC   C1A34875  10.565  13.991   8.666
 2496POPC   D2A34876  10.302  13.831   8.301
 2496POPC   C3A34877  10.469  13.638   7.930
 2496POPC   C4A34878  10.534  13.866   7.539
 2496POPC   C1B34879  10.363  13.567   8.788
 2496POPC   C2B34880  10.324  13.333   8.429
 2496POPC   C3B34881  10.129  13.151   8.081
 2496POPC   C4B34882  10.188  13.281   7.665
 2497POPC   NC334883   9.289   0.734   9.350
 2497POPC   PO434884   8.682   0.498   9.533
 2497POPC   GL134885   8.843   0.173   9.231
 2497POPC   GL234886   9.185   0.265   9.091
 2497POPC   C1A34887   8.849   0.002   8.792
 2497POPC   D2A34888   8.809   0.255   8.412
 2497POPC   C3A34889   9.141   0.448   8.172
 2497POPC   C4A34890   9.225   0.260   7.774
 2497POPC   C1B34891   8.946   0.568   8.819
 2497POPC   C2B34892   8.688   0.743   8.478
 2497POPC   C3B34893   8.716   0.762   8.022
 2497POPC   C4B34894   9.023   0.734   7.701
 2498POPC   NC334895  27.678   2.276   9.535
 2498POPC   PO434896  27.801   1.649   9.373
 2498POPC   GL134897  27.418   1.858   9.270
 2498POPC   GL234898  27.612   2.057   9.069
 2498POPC   C1A34899  27.195   1.848   8.856
 2498POPC   D2A34900  27.448   1.947   8.495
 2498POPC   C3A34901  27.296   2.009   8.074
 2498POPC   C4A34902  27.490   2.033   7.686
 2498POPC   C1B34903  27.786   2.272   8.738
 2498POPC   C2B34904  27.923   2.115   8.351
 2498POPC   C3B34905  27.848   2.290   7.950
 2498POPC   C4B34906  27.868   2.300   7.500
 2499POPC   NC334907   7.962  10.393   9.480
 2499POPC   PO434908   8.598  10.419   9.263
 2499POPC   GL134909   8.299  10.676   9.079
 2499POPC   GL234910   7.966  10.796   9.135
 2499POPC   C1A34911   8.318  10.589   8.663
 2499POPC   D2A34912   8.351  10.345   8.326
 2499POPC   C3A34913   8.493  10.638   8.044
 2499POPC   C4A34914   8.391  10.598   7.627
 2499POPC   C1B34915   7.831  10.515   8.784
 2499POPC   C2B34916   7.922  10.649   8.351
 2499POPC   C3B34917   8.012  10.506   7.948
 2499POPC   C4B34918   7.831  10.626   7.547
 2500POPC   NC334919  11.682  20.544   9.572
 2500POPC   PO434920  12.234  20.926   9.477
 2500POPC   GL134921  12.014  20.626   9.201
 2500POPC   GL234922  11.772  20.875   9.151
 2500POPC   C1A34923  12.146  20.426   8.801
 2500POPC   D2A34924  12.234  20.262   8.357
 2500POPC   C3A34925  12.319  20.399   7.870
 2500POPC   C4A34926  12.125  20.457   7.411
 2500POPC   C1B34927  12.035  20.944   8.810
 2500POPC   C2B34928  12.089  21.073   8.399
 2500POPC   C3B34929  11.878  21.002   8.053
 2500POPC   C4B34930  12.091  20.842   7.742
 2501POPC   NC334931  27.847   9.978   9.602
 2501POPC   PO434932  27.292  10.169   9.762
 2501POPC   GL134933  27.487  10.077   9.249
 2501POPC   GL234934  27.818  10.036   9.108
 2501POPC   C1A34935  27.418   9.936   8.791
 2501POPC   D2A34936  27.522   9.609   8.465
 2501POPC   C3A34937  27.466   9.686   7.995
 2501POPC   C4A34938  27.590   9.676   7.528
 2501POPC   C1B34939  27.808  10.284   8.736
 2501POPC   C2B34940  27.697  10.087   8.345
 2501POPC   C3B34941  27.879   9.995   7.956
 2501POPC   C4B34942  27.675  10.182   7.626
 2502POPC   NC334943  35.886  23.983   9.425
 2502POPC   PO434944  36.024  23.325   9.472
 2502POPC   GL134945  36.064  23.601   9.150
 2502POPC   GL234946  36.332  23.877   9.185
 2502POPC   C1A34947  35.878  23.718   8.779
 2502POPC   D2A34948  35.777  23.557   8.379
 2502POPC   C3A34949  35.908  23.833   8.056
 2502POPC   C4A34950  36.022  23.898   7.625
 2502POPC   C1B34951  36.450  23.636   8.844
 2502POPC   C2B34952  36.203  23.361   8.602
 2502POPC   C3B34953  36.196  23.392   8.169
 2502POPC   C4B34954  36.068  23.416   7.780
 2503POPC   NC334955  13.080  15.076   9.581
 2503POPC   PO434956  12.748  15.721   9.636
 2503POPC   GL134957  12.728  15.343   9.296
 2503POPC   GL234958  12.545  15.054   9.307
 2503POPC   C1A34959  12.971  15.061   8.959
 2503POPC   D2A34960  12.993  15.131   8.507
 2503POPC   C3A34961  13.038  14.921   8.106
 2503POPC   C4A34962  13.022  15.166   7.718
 2503POPC   C1B34963  12.484  15.109   8.840
 2503POPC   C2B34964  12.493  15.044   8.397
 2503POPC   C3B34965  12.583  15.099   7.985
 2503POPC   C4B34966  12.575  15.420   7.638
 2504POPC   NC334967   0.024  33.550   9.570
 2504POPC   PO434968  44.685  34.172   9.482
 2504POPC   GL134969  44.586  33.823   9.158
 2504POPC   GL234970  44.897  33.615   9.081
 2504POPC   C1A34971  44.537  33.644   8.730
 2504POPC   D2A34972  44.666  33.863   8.364
 2504POPC   C3A34973  44.619  33.739   7.934
 2504POPC   C4A34974  44.644  34.116   7.703
 2504POPC   C1B34975  44.902  34.029   8.807
 2504POPC   C2B34976  44.998  34.279   8.400
 2504POPC   C3B34977   0.051  33.985   8.034
 2504POPC   C4B34978   0.124  33.539   7.958
 2505POPC   NC334979   7.397  30.939   9.486
 2505POPC   PO434980   7.506  30.321   9.512
 2505POPC   GL134981   7.472  30.463   9.100
 2505POPC   GL234982   7.405  30.832   9.002
 2505POPC   C1A34983   7.295  30.454   8.693
 2505POPC   D2A34984   7.287  30.819   8.428
 2505POPC   C3A34985   7.189  30.588   8.069
 2505POPC   C4A34986   7.211  30.308   7.735
 2505POPC   C1B34987   7.667  31.085   8.750
 2505POPC   C2B34988   7.770  31.004   8.339
 2505POPC   C3B34989   7.555  31.098   8.015
 2505POPC   C4B34990   7.787  31.164   7.671
 2506POPC   NC334991   7.735  33.790   9.753
 2506POPC   PO434992   7.307  34.183   9.499
 2506POPC   GL134993   7.318  33.776   9.259
 2506POPC   GL234994   7.668  33.662   9.252
 2506POPC   C1A34995   7.141  33.718   8.834
 2506POPC   D2A34996   7.209  33.961   8.444
 2506POPC   C3A34997   7.159  33.812   8.028
 2506POPC   C4A34998   7.285  33.932   7.627
 2506POPC   C1B34999   7.707  33.900   8.893
 2506POPC   C2B35000   7.751  33.870   8.450
 2506POPC   C3B35001   7.668  33.916   8.019
 2506POPC   C4B35002   7.710  33.671   7.657
 2507POPC   NC335003  33.644  13.182   9.542
 2507POPC   PO435004  34.190  13.469   9.568
 2507POPC   GL135005  33.883  13.569   9.222
 2507POPC   GL235006  33.696  13.890   9.205
 2507POPC   C1A35007  33.667  13.513   8.817
 2507POPC   D2A35008  33.838  13.452   8.423
 2507POPC   C3A35009  33.659  13.360   8.043
 2507POPC   C4A35010  33.799  13.560   7.661
 2507POPC   C1B35011  33.755  13.996   8.744
 2507POPC   C2B35012  33.620  13.901   8.286
 2507POPC   C3B35013  33.828  13.998   7.900
 2507POPC   C4B35014  34.084  13.993   7.470
 2508POPC   NC335015  18.044  36.993   9.422
 2508POPC   PO435016  18.547  36.600   9.480
 2508POPC   GL135017  18.323  36.696   9.096
 2508POPC   GL235018  17.986  36.744   8.976
 2508POPC   C1A35019  18.388  36.759   8.655
 2508POPC   D2A35020  18.184  36.841   8.266
 2508POPC   C3A35021  18.410  36.940   7.856
 2508POPC   C4A35022  18.857  36.960   7.717
 2508POPC   C1B35023  17.799  37.128   8.772
 2508POPC   C2B35024  17.756  37.370   8.350
 2508POPC   C3B35025  17.925  37.179   7.961
 2508POPC   C4B35026  17.911  36.714   7.870
 2509POPC   NC335027  31.945  13.073   9.575
 2509POPC   PO435028  32.454  12.687   9.528
 2509POPC   GL135029  32.237  12.825   9.156
 2509POPC   GL235030  32.372  13.129   9.236
 2509POPC   C1A35031  32.443  12.838   8.715
 2509POPC   D2A35032  32.229  12.751   8.302
 2509POPC   C3A35033  32.435  12.796   7.900
 2509POPC   C4A35034  32.482  12.788   7.443
 2509POPC   C1B35035  32.281  13.271   8.848
 2509POPC   C2B35036  32.181  13.238   8.446
 2509POPC   C3B35037  32.108  13.162   8.026
 2509POPC   C4B35038  32.074  13.324   7.633
 2510POPC   NC335039  35.200  12.766   9.480
 2510POPC   PO435040  35.808  12.963   9.388
 2510POPC   GL135041  35.508  12.839   9.068
 2510POPC   GL235042  35.238  12.570   9.012
 2510POPC   C1A35043  35.542  12.737   8.646
 2510POPC   D2A35044  35.243  12.662   8.323
 2510POPC   C3A35045  35.446  12.703   7.948
 2510POPC   C4A35046  35.856  12.588   7.812
 2510POPC   C1B35047  34.907  12.526   8.689
 2510POPC   C2B35048  34.750  12.504   8.256
 2510POPC   C3B35049  34.939  12.441   7.820
 2510POPC   C4B35050  35.091  12.551   7.360
 2511POPC   NC335051   3.985  41.746   9.449
 2511POPC   PO435052   3.444  41.272   9.503
 2511POPC   GL135053   3.431  41.443   9.150
 2511POPC   GL235054   3.760  41.429   9.117
 2511POPC   C1A35055   3.321  41.497   8.746
 2511POPC   D2A35056   3.540  41.440   8.374
 2511POPC   C3A35057   3.318  41.335   8.037
 2511POPC   C4A35058   3.453  41.437   7.663
 2511POPC   C1B35059   3.767  41.739   8.784
 2511POPC   C2B35060   3.985  41.684   8.377
 2511POPC   C3B35061   3.887  41.554   7.975
 2511POPC   C4B35062   3.885  41.673   7.557
 2512POPC   NC335063  36.670  43.858   9.781
 2512POPC   PO435064  36.043  43.946   9.577
 2512POPC   GL135065  35.946  43.994   9.172
 2512POPC   GL235066  36.249  44.212   9.137
 2512POPC   C1A35067  35.803  43.873   8.786
 2512POPC   D2A35068  36.045  43.786   8.395
 2512POPC   C3A35069  35.892  43.623   8.008
 2512POPC   C4A35070  36.063  43.884   7.718
 2512POPC   C1B35071  36.339  43.879   8.835
 2512POPC   C2B35072  36.567  43.932   8.448
 2512POPC   C3B35073  36.529  44.162   8.067
 2512POPC   C4B35074  36.588  43.995   7.657
 2513POPC   NC335075  33.256  41.405   9.643
 2513POPC   PO435076  32.669  41.711   9.435
 2513POPC   GL135077  32.853  41.401   9.124
 2513POPC   GL235078  33.241  41.404   9.139
 2513POPC   C1A35079  33.022  41.505   8.700
 2513POPC   D2A35080  33.183  41.841   8.473
 2513POPC   C3A35081  32.967  41.833   8.111
 2513POPC   C4A35082  33.091  41.710   7.727
 2513POPC   C1B35083  33.206  41.054   8.847
 2513POPC   C2B35084  33.120  41.057   8.385
 2513POPC   C3B35085  32.952  41.293   8.024
 2513POPC   C4B35086  33.015  41.220   7.581
 2514POPC   NC335087  17.783  43.081   9.506
 2514POPC   PO435088  17.176  43.253   9.448
 2514POPC   GL135089  17.455  43.276   9.122
 2514POPC   GL235090  17.702  43.549   9.200
 2514POPC   C1A35091  17.596  42.947   8.836
 2514POPC   D2A35092  17.479  42.789   8.446
 2514POPC   C3A35093  17.663  42.902   8.053
 2514POPC   C4A35094  17.374  43.037   7.694
 2514POPC   C1B35095  17.858  43.387   8.800
 2514POPC   C2B35096  17.656  43.280   8.411
 2514POPC   C3B35097  17.582  43.402   7.985
 2514POPC   C4B35098  17.820  43.480   7.627
 2515POPC   NC335099  33.608  24.854   9.381
 2515POPC   PO435100  33.962  24.347   9.757
 2515POPC   GL135101  33.829  24.375   9.290
 2515POPC   GL235102  33.840  24.022   9.261
 2515POPC   C1A35103  33.885  24.589   8.811
 2515POPC   D2A35104  33.617  24.766   8.462
 2515POPC   C3A35105  33.801  24.842   8.062
 2515POPC   C4A35106  34.006  24.647   7.697
 2515POPC   C1B35107  33.775  24.055   8.853
 2515POPC   C2B35108  33.870  24.126   8.439
 2515POPC   C3B35109  33.841  24.337   8.097
 2515POPC   C4B35110  33.732  24.203   7.722
 2516POPC   NC335111  13.953  39.988   9.396
 2516POPC   PO435112  14.497  40.299   9.680
 2516POPC   GL135113  14.369  40.236   9.231
 2516POPC   GL235114  14.412  39.906   9.146
 2516POPC   C1A35115  14.450  40.235   8.780
 2516POPC   D2A35116  14.281  40.195   8.406
 2516POPC   C3A35117  14.484  39.999   8.081
 2516POPC   C4A35118  14.469  40.180   7.701
 2516POPC   C1B35119  14.132  39.810   8.792
 2516POPC   C2B35120  14.101  39.730   8.358
 2516POPC   C3B35121  14.119  39.705   7.874
 2516POPC   C4B35122  14.106  39.584   7.389
 2517POPC   NC335123  29.609  34.636   9.450
 2517POPC   PO435124  30.162  34.835   9.696
 2517POPC   GL135125  30.004  34.554   9.152
 2517POPC   GL235126  29.665  34.346   9.045
 2517POPC   C1A35127  29.818  34.693   8.697
 2517POPC   D2A35128  29.780  34.937   8.299
 2517POPC   C3A35129  29.970  34.716   7.984
 2517POPC   C4A35130  30.102  34.241   8.085
 2517POPC   C1B35131  29.424  34.362   8.651
 2517POPC   C2B35132  29.613  34.395   8.226
 2517POPC   C3B35133  29.680  34.385   7.772
 2517POPC   C4B35134  29.435  34.548   7.447
 2518POPC   NC335135   5.267  20.963   9.538
 2518POPC   PO435136   4.812  20.401   9.481
 2518POPC   GL135137   4.985  20.705   9.220
 2518POPC   GL235138   4.693  20.893   9.155
 2518POPC   C1A35139   5.123  20.722   8.816
 2518POPC   D2A35140   5.104  20.836   8.397
 2518POPC   C3A35141   5.313  20.659   8.057
 2518POPC   C4A35142   4.979  20.739   7.753
 2518POPC   C1B35143   4.620  20.596   8.847
 2518POPC   C2B35144   4.813  20.407   8.534
 2518POPC   C3B35145   4.894  20.403   8.146
 2518POPC   C4B35146   5.047  20.242   7.775
 2519POPC   NC335147  11.088   2.432   9.422
 2519POPC   PO435148  11.097   3.133   9.361
 2519POPC   GL135149  11.357   2.817   9.126
 2519POPC   GL235150  11.409   2.433   9.046
 2519POPC   C1A35151  11.484   2.801   8.700
 2519POPC   D2A35152  11.306   2.715   8.326
 2519POPC   C3A35153  11.230   2.967   8.001
 2519POPC   C4A35154  11.493   2.868   7.682
 2519POPC   C1B35155  11.109   2.340   8.719
 2519POPC   C2B35156  11.102   2.259   8.278
 2519POPC   C3B35157  11.184   2.472   7.864
 2519POPC   C4B35158  11.269   2.485   7.372
 2520POPC   NC335159   0.581  10.897   9.646
 2520POPC   PO435160   0.225  11.497   9.501
 2520POPC   GL135161   0.368  11.316   9.124
 2520POPC   GL235162   0.435  10.971   9.155
 2520POPC   C1A35163   0.303  11.230   8.677
 2520POPC   D2A35164   0.303  11.551   8.318
 2520POPC   C3A35165   0.451  11.422   7.876
 2520POPC   C4A35166   0.194  11.516   7.473
 2520POPC   C1B35167   0.757  11.113   8.840
 2520POPC   C2B35168   0.734  11.269   8.407
 2520POPC   C3B35169   0.904  11.087   8.042
 2520POPC   C4B35170   0.719  10.935   7.664
 2521POPC   NC335171  43.680  24.075   9.584
 2521POPC   PO435172  44.195  24.397   9.553
 2521POPC   GL135173  43.997  24.535   9.134
 2521POPC   GL235174  44.024  24.922   9.095
 2521POPC   C1A35175  43.847  24.425   8.738
 2521POPC   D2A35176  43.979  24.171   8.400
 2521POPC   C3A35177  43.720  24.255   8.077
 2521POPC   C4A35178  43.802  24.292   7.657
 2521POPC   C1B35179  44.159  24.833   8.699
 2521POPC   C2B35180  43.952  24.729   8.323
 2521POPC   C3B35181  43.820  24.739   7.916
 2521POPC   C4B35182  44.055  24.722   7.568
 2522POPC   NC335183   3.858  31.439   9.260
 2522POPC   PO435184   3.236  31.708   9.535
 2522POPC   GL135185   3.414  31.710   9.143
 2522POPC   GL235186   3.722  31.914   9.181
 2522POPC   C1A35187   3.374  31.424   8.781
 2522POPC   D2A35188   3.176  31.363   8.392
 2522POPC   C3A35189   3.504  31.515   8.120
 2522POPC   C4A35190   3.620  31.346   7.750
 2522POPC   C1B35191   3.790  31.795   8.717
 2522POPC   C2B35192   4.039  31.727   8.319
 2522POPC   C3B35193   3.925  31.749   7.886
 2522POPC   C4B35194   3.808  31.699   7.430
 2523POPC   NC335195  31.036   8.723   9.469
 2523POPC   PO435196  30.595   9.195   9.568
 2523POPC   GL135197  30.723   9.104   9.143
 2523POPC   GL235198  30.751   8.768   9.044
 2523POPC   C1A35199  30.624   9.146   8.692
 2523POPC   D2A35200  30.914   9.130   8.338
 2523POPC   C3A35201  30.816   9.189   7.939
 2523POPC   C4A35202  30.383   9.264   7.863
 2523POPC   C1B35203  31.089   8.884   8.759
 2523POPC   C2B35204  31.159   8.694   8.336
 2523POPC   C3B35205  31.123   8.667   7.880
 2523POPC   C4B35206  30.983   8.502   7.476
 2524POPC   NC335207  44.256   4.984   9.504
 2524POPC   PO435208  43.579   5.237   9.446
 2524POPC   GL135209  43.928   5.184   9.170
 2524POPC   GL235210  44.234   5.401   9.187
 2524POPC   C1A35211  43.974   5.021   8.781
 2524POPC   D2A35212  43.753   5.099   8.418
 2524POPC   C3A35213  43.886   5.074   7.992
 2524POPC   C4A35214  43.852   4.725   7.681
 2524POPC   C1B35215  44.020   5.559   8.810
 2524POPC   C2B35216  44.014   5.544   8.371
 2524POPC   C3B35217  43.970   5.598   7.953
 2524POPC   C4B35218  44.223   5.561   7.584
 2525POPC   NC335219  14.317  30.740   9.747
 2525POPC   PO435220  14.778  30.542   9.257
 2525POPC   GL135221  14.335  30.499   9.143
 2525POPC   GL235222  14.127  30.792   9.272
 2525POPC   C1A35223  14.325  30.455   8.696
 2525POPC   D2A35224  14.708  30.468   8.435
 2525POPC   C3A35225  14.669  30.372   8.001
 2525POPC   C4A35226  14.515  30.733   7.750
 2525POPC   C1B35227  14.085  30.898   8.823
 2525POPC   C2B35228  14.345  30.934   8.437
 2525POPC   C3B35229  14.265  31.087   8.031
 2525POPC   C4B35230  13.973  30.887   7.757
 2526POPC   NC335231  16.609   1.443   9.496
 2526POPC   PO435232  17.033   0.936   9.368
 2526POPC   GL135233  16.916   1.186   9.074
 2526POPC   GL235234  16.591   1.129   9.086
 2526POPC   C1A35235  17.120   1.329   8.701
 2526POPC   D2A35236  16.967   1.257   8.290
 2526POPC   C3A35237  17.102   1.196   7.862
 2526POPC   C4A35238  16.807   0.987   7.523
 2526POPC   C1B35239  16.569   1.233   8.643
 2526POPC   C2B35240  16.482   1.317   8.187
 2526POPC   C3B35241  16.622   1.401   7.764
 2526POPC   C4B35242  16.525   1.617   7.365
 2527POPC   NC335243  14.181  41.273   9.436
 2527POPC   PO435244  14.753  41.657   9.417
 2527POPC   GL135245  14.456  41.575   9.119
 2527POPC   GL235246  14.511  41.198   9.063
 2527POPC   C1A35247  14.522  41.837   8.786
 2527POPC   D2A35248  14.640  41.768   8.400
 2527POPC   C3A35249  14.334  41.539   8.178
 2527POPC   C4A35250  14.289  41.719   7.780
 2527POPC   C1B35251  14.539  41.345   8.664
 2527POPC   C2B35252  14.786  41.267   8.342
 2527POPC   C3B35253  14.724  41.298   7.949
 2527POPC   C4B35254  14.352  41.189   7.752
 2528POPC   NC335255  11.057   5.797   9.468
 2528POPC   PO435256  11.697   5.931   9.614
 2528POPC   GL135257  11.473   5.815   9.185
 2528POPC   GL235258  11.400   5.467   9.151
 2528POPC   C1A35259  11.172   5.804   8.817
 2528POPC   D2A35260  11.285   5.985   8.442
 2528POPC   C3A35261  11.079   6.246   8.177
 2528POPC   C4A35262  11.291   6.040   7.825
 2528POPC   C1B35263  11.382   5.338   8.705
 2528POPC   C2B35264  11.468   5.508   8.254
 2528POPC   C3B35265  11.701   5.469   7.838
 2528POPC   C4B35266  11.893   5.237   7.484
 2529POPC   NC335267  15.844  34.367   9.317
 2529POPC   PO435268  16.145  34.887   9.634
 2529POPC   GL135269  16.119  34.806   9.225
 2529POPC   GL235270  15.825  34.904   9.157
 2529POPC   C1A35271  16.215  34.568   8.819
 2529POPC   D2A35272  16.364  34.427   8.427
 2529POPC   C3A35273  16.065  34.417   8.131
 2529POPC   C4A35274  16.050  34.439   7.716
 2529POPC   C1B35275  16.006  35.035   8.798
 2529POPC   C2B35276  15.944  34.869   8.431
 2529POPC   C3B35277  16.114  34.935   8.068
 2529POPC   C4B35278  15.996  34.959   7.707
 2530POPC   NC335279  18.390   7.559   9.699
 2530POPC   PO435280  18.403   8.168   9.453
 2530POPC   GL135281  18.582   8.309   9.073
 2530POPC   GL235282  18.242   8.382   8.996
 2530POPC   C1A35283  18.616   8.116   8.683
 2530POPC   D2A35284  18.355   7.800   8.482
 2530POPC   C3A35285  18.128   7.959   8.130
 2530POPC   C4A35286  18.315   8.167   7.792
 2530POPC   C1B35287  18.158   8.612   8.617
 2530POPC   C2B35288  18.137   8.510   8.172
 2530POPC   C3B35289  17.851   8.397   7.835
 2530POPC   C4B35290  18.036   8.302   7.398
 2531POPC   NC335291  37.300  21.703   9.434
 2531POPC   PO435292  37.768  21.160   9.574
 2531POPC   GL135293  37.598  21.141   9.209
 2531POPC   GL235294  37.246  21.152   9.312
 2531POPC   C1A35295  37.762  21.139   8.762
 2531POPC   D2A35296  37.694  21.225   8.300
 2531POPC   C3A35297  38.010  21.430   8.040
 2531POPC   C4A35298  37.919  21.858   7.991
 2531POPC   C1B35299  37.276  21.265   8.841
 2531POPC   C2B35300  37.190  21.109   8.411
 2531POPC   C3B35301  37.293  21.172   7.966
 2531POPC   C4B35302  37.582  21.481   7.727
 2532POPC   NC335303  19.208  26.212   9.470
 2532POPC   PO435304  18.837  25.771   9.644
 2532POPC   GL135305  19.030  25.751   9.188
 2532POPC   GL235306  19.375  25.753   9.117
 2532POPC   C1A35307  19.074  25.771   8.715
 2532POPC   D2A35308  18.953  26.123   8.440
 2532POPC   C3A35309  18.881  25.994   8.023
 2532POPC   C4A35310  18.770  26.185   7.647
 2532POPC   C1B35311  19.459  26.094   8.815
 2532POPC   C2B35312  19.443  25.945   8.391
 2532POPC   C3B35313  19.359  26.096   8.002
 2532POPC   C4B35314  19.262  26.328   7.645
 2533POPC   NC335315  20.817  43.505   9.568
 2533POPC   PO435316  20.436  44.068   9.491
 2533POPC   GL135317  20.667  43.967   9.134
 2533POPC   GL235318  20.480  43.655   9.113
 2533POPC   C1A35319  20.630  44.011   8.681
 2533POPC   D2A35320  20.461  43.806   8.305
 2533POPC   C3A35321  20.587  43.966   7.908
 2533POPC   C4A35322  20.752  44.067   7.495
 2533POPC   C1B35323  20.390  43.473   8.700
 2533POPC   C2B35324  20.183  43.367   8.301
 2533POPC   C3B35325  20.423  43.411   7.917
 2533POPC   C4B35326  20.419  43.643   7.558
 2534POPC   NC335327  25.321  38.985   9.688
 2534POPC   PO435328  25.046  39.530   9.598
 2534POPC   GL135329  25.300  39.324   9.236
 2534POPC   GL235330  25.252  39.613   9.063
 2534POPC   C1A35331  25.469  39.257   8.768
 2534POPC   D2A35332  25.568  39.438   8.326
 2534POPC   C3A35333  25.443  39.223   7.921
 2534POPC   C4A35334  25.203  39.114   7.537
 2534POPC   C1B35335  25.071  39.543   8.639
 2534POPC   C2B35336  25.066  39.538   8.187
 2534POPC   C3B35337  25.051  39.556   7.752
 2534POPC   C4B35338  24.772  39.760   7.454
 2535POPC   NC335339  36.941  13.106   9.496
 2535POPC   PO435340  37.027  12.410   9.566
 2535POPC   GL135341  37.066  12.686   9.171
 2535POPC   GL235342  37.107  13.044   9.034
 2535POPC   C1A35343  37.020  12.636   8.723
 2535POPC   D2A35344  37.255  12.802   8.371
 2535POPC   C3A35345  37.087  12.655   7.995
 2535POPC   C4A35346  37.005  12.777   7.572
 2535POPC   C1B35347  36.693  13.010   8.801
 2535POPC   C2B35348  36.720  12.872   8.352
 2535POPC   C3B35349  36.730  13.042   7.934
 2535POPC   C4B35350  36.889  13.416   7.738
 2536POPC   NC335351  28.765  32.962   9.862
 2536POPC   PO435352  28.148  33.264   9.733
 2536POPC   GL135353  28.120  33.218   9.268
 2536POPC   GL235354  28.223  32.892   9.121
 2536POPC   C1A35355  28.173  33.290   8.804
 2536POPC   D2A35356  28.065  33.452   8.391
 2536POPC   C3A35357  28.214  33.247   8.050
 2536POPC   C4A35358  28.428  32.987   7.790
 2536POPC   C1B35359  28.464  32.849   8.758
 2536POPC   C2B35360  28.573  32.959   8.321
 2536POPC   C3B35361  28.778  32.705   8.027
 2536POPC   C4B35362  28.913  32.824   7.641
 2537POPC   NC335363  29.790  27.996   9.489
 2537POPC   PO435364  30.100  28.559   9.455
 2537POPC   GL135365  29.806  28.447   9.136
 2537POPC   GL235366  30.069  28.192   9.045
 2537POPC   C1A35367  29.754  28.379   8.672
 2537POPC   D2A35368  30.033  28.083   8.422
 2537POPC   C3A35369  29.967  28.133   7.977
 2537POPC   C4A35370  29.657  28.282   7.685
 2537POPC   C1B35371  30.221  28.523   8.743
 2537POPC   C2B35372  30.054  28.781   8.428
 2537POPC   C3B35373  30.138  28.630   8.019
 2537POPC   C4B35374  30.027  28.612   7.614
 2538POPC   NC335375   3.297  17.958   9.538
 2538POPC   PO435376   3.032  18.492   9.255
 2538POPC   GL135377   2.665  18.265   9.043
 2538POPC   GL235378   2.522  18.571   8.964
 2538POPC   C1A35379   2.665  17.996   8.717
 2538POPC   D2A35380   2.990  18.047   8.443
 2538POPC   C3A35381   2.863  17.939   8.041
 2538POPC   C4A35382   2.720  18.027   7.644
 2538POPC   C1B35383   2.737  18.496   8.596
 2538POPC   C2B35384   2.624  18.367   8.205
 2538POPC   C3B35385   2.573  18.492   7.784
 2538POPC   C4B35386   2.869  18.548   7.426
 2539POPC   NC335387  27.632  30.163   9.560
 2539POPC   PO435388  27.990  29.529   9.497
 2539POPC   GL135389  27.779  29.626   9.122
 2539POPC   GL235390  27.583  29.948   9.107
 2539POPC   C1A35391  27.590  29.510   8.742
 2539POPC   D2A35392  27.518  29.741   8.364
 2539POPC   C3A35393  27.543  29.648   7.942
 2539POPC   C4A35394  27.355  30.017   7.788
 2539POPC   C1B35395  27.779  29.979   8.735
 2539POPC   C2B35396  27.994  30.072   8.358
 2539POPC   C3B35397  27.856  30.051   7.963
 2539POPC   C4B35398  27.746  30.298   7.623
 2540POPC   NC335399   1.098  38.826   9.481
 2540POPC   PO435400   1.277  39.451   9.746
 2540POPC   GL135401   1.130  39.299   9.329
 2540POPC   GL235402   1.423  39.177   9.268
 2540POPC   C1A35403   1.085  39.189   8.879
 2540POPC   D2A35404   1.178  39.259   8.453
 2540POPC   C3A35405   0.930  39.216   8.100
 2540POPC   C4A35406   1.164  38.993   7.805
 2540POPC   C1B35407   1.594  39.156   8.859
 2540POPC   C2B35408   1.688  39.060   8.429
 2540POPC   C3B35409   1.538  39.248   8.062
 2540POPC   C4B35410   1.642  39.104   7.665
 2541POPC   NC335411  31.286  24.229   9.532
 2541POPC   PO435412  31.710  23.726   9.460
 2541POPC   GL135413  31.313  23.733   9.216
 2541POPC   GL235414  31.235  23.400   9.112
 2541POPC   C1A35415  31.142  23.824   8.798
 2541POPC   D2A35416  31.262  24.119   8.486
 2541POPC   C3A35417  31.283  23.917   8.074
 2541POPC   C4A35418  31.525  24.024   7.715
 2541POPC   C1B35419  31.479  23.406   8.778
 2541POPC   C2B35420  31.525  23.630   8.431
 2541POPC   C3B35421  31.681  23.589   8.051
 2541POPC   C4B35422  31.523  23.509   7.659
 2542POPC   NC335423  28.055  11.802   9.475
 2542POPC   PO435424  27.446  11.995   9.493
 2542POPC   GL135425  27.565  11.891   9.075
 2542POPC   GL235426  27.886  11.881   9.020
 2542POPC   C1A35427  27.504  11.872   8.627
 2542POPC   D2A35428  27.160  12.005   8.331
 2542POPC   C3A35429  27.334  12.158   7.931
 2542POPC   C4A35430  27.607  11.919   7.640
 2542POPC   C1B35431  27.986  12.204   8.811
 2542POPC   C2B35432  28.038  12.092   8.431
 2542POPC   C3B35433  27.823  11.927   8.103
 2542POPC   C4B35434  28.078  12.106   7.759
 2543POPC   NC335435  41.115  43.131   9.671
 2543POPC   PO435436  40.489  42.934   9.392
 2543POPC   GL135437  40.806  43.110   9.188
 2543POPC   GL235438  40.718  42.874   8.913
 2543POPC   C1A35439  40.897  43.340   8.804
 2543POPC   D2A35440  40.868  43.062   8.436
 2543POPC   C3A35441  40.892  43.229   8.021
 2543POPC   C4A35442  41.005  42.878   7.782
 2543POPC   C1B35443  40.416  43.168   8.718
 2543POPC   C2B35444  40.396  43.227   8.295
 2543POPC   C3B35445  40.479  42.921   8.001
 2543POPC   C4B35446  40.512  43.117   7.645
 2544POPC   NC335447  39.373   3.291   9.562
 2544POPC   PO435448  38.939   3.884   9.630
 2544POPC   GL135449  39.131   3.716   9.272
 2544POPC   GL235450  38.949   3.437   9.333
 2544POPC   C1A35451  39.339   3.608   8.879
 2544POPC   D2A35452  39.167   3.476   8.493
 2544POPC   C3A35453  39.333   3.431   8.082
 2544POPC   C4A35454  39.122   3.710   7.779
 2544POPC   C1B35455  38.854   3.346   8.906
 2544POPC   C2B35456  38.658   3.362   8.492
 2544POPC   C3B35457  38.809   3.335   8.067
 2544POPC   C4B35458  39.031   3.140   7.736
 2545POPC   NC335459  36.439  23.142   9.412
 2545POPC   PO435460  37.069  22.965   9.586
 2545POPC   GL135461  36.937  22.726   9.239
 2545POPC   GL235462  36.650  22.808   9.074
 2545POPC   C1A35463  37.082  22.873   8.827
 2545POPC   D2A35464  36.997  23.100   8.417
 2545POPC   C3A35465  36.958  22.861   8.082
 2545POPC   C4A35466  37.088  22.623   7.747
 2545POPC   C1B35467  36.587  23.056   8.741
 2545POPC   C2B35468  36.451  22.983   8.329
 2545POPC   C3B35469  36.534  23.101   7.928
 2545POPC   C4B35470  36.781  22.970   7.592
 2546POPC   NC335471  43.834   5.626   9.460
 2546POPC   PO435472  44.101   6.149   9.693
 2546POPC   GL135473  44.083   6.037   9.243
 2546POPC   GL235474  43.746   5.971   9.043
 2546POPC   C1A35475  44.166   6.119   8.808
 2546POPC   D2A35476  43.861   6.005   8.517
 2546POPC   C3A35477  43.925   6.116   8.107
 2546POPC   C4A35478  44.124   6.083   7.731
 2546POPC   C1B35479  43.512   5.664   8.728
 2546POPC   C2B35480  43.494   5.507   8.265
 2546POPC   C3B35481  43.501   5.519   7.814
 2546POPC   C4B35482  43.748   5.807   7.551
 2547POPC   NC335483   2.596   2.431   9.414
 2547POPC   PO435484   3.009   1.865   9.577
 2547POPC   GL135485   2.973   2.092   9.178
 2547POPC   GL235486   2.605   2.036   9.061
 2547POPC   C1A35487   3.132   1.991   8.767
 2547POPC   D2A35488   2.990   1.788   8.371
 2547POPC   C3A35489   3.116   1.993   7.987
 2547POPC   C4A35490   3.066   1.881   7.576
 2547POPC   C1B35491   2.673   2.146   8.609
 2547POPC   C2B35492   2.671   2.212   8.154
 2547POPC   C3B35493   2.589   1.910   7.820
 2547POPC   C4B35494   2.572   1.801   7.350
 2548POPC   NC335495  29.320  16.389   9.283
 2548POPC   PO435496  29.280  15.754   9.460
 2548POPC   GL135497  29.087  15.926   9.059
 2548POPC   GL235498  28.863  16.234   8.997
 2548POPC   C1A35499  28.981  15.935   8.611
 2548POPC   D2A35500  28.929  15.600   8.316
 2548POPC   C3A35501  29.071  15.812   7.958
 2548POPC   C4A35502  28.939  16.173   7.744
 2548POPC   C1B35503  29.101  16.493   8.669
 2548POPC   C2B35504  29.147  16.388   8.207
 2548POPC   C3B35505  29.487  16.177   7.989
 2548POPC   C4B35506  29.544  16.128   7.559
 2549POPC   NC335507   0.066  15.769   9.520
 2549POPC   PO435508   0.727  15.765   9.739
 2549POPC   GL135509   0.613  15.961   9.319
 2549POPC   GL235510   0.586  16.329   9.198
 2549POPC   C1A35511   0.474  15.890   8.903
 2549POPC   D2A35512   0.662  15.854   8.499
 2549POPC   C3A35513   0.346  15.698   8.202
 2549POPC   C4A35514   0.288  15.779   7.793
 2549POPC   C1B35515   0.322  16.359   8.831
 2549POPC   C2B35516   0.211  16.136   8.440
 2549POPC   C3B35517   0.304  16.244   7.999
 2549POPC   C4B35518   0.319  16.220   7.547
 2550POPC   NC335519   3.422  42.688   9.548
 2550POPC   PO435520   3.729  42.152   9.453
 2550POPC   GL135521   3.316  42.190   9.211
 2550POPC   GL235522   3.325  41.920   9.027
 2550POPC   C1A35523   3.083  42.236   8.741
 2550POPC   D2A35524   2.986  42.336   8.283
 2550POPC   C3A35525   3.368  42.365   8.000
 2550POPC   C4A35526   3.745  42.605   7.830
 2550POPC   C1B35527   3.598  42.258   8.796
 2550POPC   C2B35528   3.793  42.401   8.406
 2550POPC   C3B35529   3.897  42.111   8.091
 2550POPC   C4B35530   3.709  42.111   7.706
 2551POPC   NC335531  28.697   0.874   9.501
 2551POPC   PO435532  29.051   0.269   9.496
 2551POPC   GL135533  29.042   0.359   9.110
 2551POPC   GL235534  29.116   0.704   9.185
 2551POPC   C1A35535  29.007   0.143   8.712
 2551POPC   D2A35536  28.978  44.933   8.304
 2551POPC   C3A35537  28.996   0.230   7.959
 2551POPC   C4A35538  28.959   0.203   7.518
 2551POPC   C1B35539  29.235   0.661   8.757
 2551POPC   C2B35540  29.264   0.503   8.355
 2551POPC   C3B35541  29.458   0.516   7.964
 2551POPC   C4B35542  29.200   0.621   7.626
 2552POPC   NC335543  34.745  26.152   9.620
 2552POPC   PO435544  34.113  26.051   9.402
 2552POPC   GL135545  34.449  26.175   9.174
 2552POPC   GL235546  34.690  25.891   9.192
 2552POPC   C1A35547  34.552  26.134   8.743
 2552POPC   D2A35548  34.675  26.355   8.370
 2552POPC   C3A35549  34.449  26.218   8.022
 2552POPC   C4A35550  34.547  26.309   7.624
 2552POPC   C1B35551  34.931  25.772   8.830
 2552POPC   C2B35552  34.887  25.541   8.428
 2552POPC   C3B35553  34.953  25.616   8.021
 2552POPC   C4B35554  34.571  25.729   7.808
 2553POPC   NC335555  24.874  15.844   9.529
 2553POPC   PO435556  24.868  16.462   9.440
 2553POPC   GL135557  24.738  16.097   9.116
 2553POPC   GL235558  24.403  15.887   9.163
 2553POPC   C1A35559  24.632  15.883   8.725
 2553POPC   D2A35560  24.731  16.017   8.337
 2553POPC   C3A35561  24.657  15.826   7.980
 2553POPC   C4A35562  24.511  16.113   7.727
 2553POPC   C1B35563  24.188  15.664   8.768
 2553POPC   C2B35564  24.278  15.727   8.306
 2553POPC   C3B35565  24.108  15.891   7.916
 2553POPC   C4B35566  24.193  15.824   7.424
 2554POPC   NC335567  13.808  15.005   9.403
 2554POPC   PO435568  13.426  15.490   9.575
 2554POPC   GL135569  13.386  15.277   9.191
 2554POPC   GL235570  13.701  15.373   9.102
 2554POPC   C1A35571  13.450  15.095   8.745
 2554POPC   D2A35572  13.447  15.205   8.291
 2554POPC   C3A35573  13.513  15.038   7.881
 2554POPC   C4A35574  13.300  14.736   7.617
 2554POPC   C1B35575  13.886  15.623   8.811
 2554POPC   C2B35576  13.825  15.525   8.382
 2554POPC   C3B35577  13.825  15.436   7.928
 2554POPC   C4B35578  13.920  15.398   7.460
 2555POPC   NC335579  19.225  25.504   9.592
 2555POPC   PO435580  18.881  24.952   9.518
 2555POPC   GL135581  18.960  25.029   9.100
 2555POPC   GL235582  19.186  25.250   9.161
 2555POPC   C1A35583  18.877  25.290   8.723
 2555POPC   D2A35584  18.818  25.507   8.312
 2555POPC   C3A35585  18.807  25.238   7.919
 2555POPC   C4A35586  18.775  24.955   7.512
 2555POPC   C1B35587  19.357  25.109   8.795
 2555POPC   C2B35588  19.368  25.413   8.451
 2555POPC   C3B35589  19.254  25.573   8.062
 2555POPC   C4B35590  19.272  25.285   7.728
 2556POPC   NC335591  30.194  17.550   9.366
 2556POPC   PO435592  29.551  17.713   9.494
 2556POPC   GL135593  29.776  17.780   9.123
 2556POPC   GL235594  29.806  17.401   9.031
 2556POPC   C1A35595  29.944  17.767   8.704
 2556POPC   D2A35596  29.850  17.543   8.337
 2556POPC   C3A35597  30.048  17.829   8.036
 2556POPC   C4A35598  30.237  17.739   7.631
 2556POPC   C1B35599  30.195  17.260   8.787
 2556POPC   C2B35600  30.257  17.058   8.393
 2556POPC   C3B35601  30.182  17.313   8.027
 2556POPC   C4B35602  29.810  17.443   7.791
 2557POPC   NC335603   5.919  27.350   9.543
 2557POPC   PO435604   5.494  27.877   9.377
 2557POPC   GL135605   5.678  27.521   9.120
 2557POPC   GL235606   6.066  27.519   9.103
 2557POPC   C1A35607   5.759  27.482   8.687
 2557POPC   D2A35608   5.785  27.882   8.454
 2557POPC   C3A35609   5.818  27.793   8.028
 2557POPC   C4A35610   5.835  27.373   7.824
 2557POPC   C1B35611   6.208  27.691   8.744
 2557POPC   C2B35612   6.173  27.544   8.348
 2557POPC   C3B35613   6.295  27.548   7.951
 2557POPC   C4B35614   6.289  27.405   7.529
 2558POPC   NC335615  37.769   0.174   9.494
 2558POPC   PO435616  38.230   0.762   9.437
 2558POPC   GL135617  37.846   0.583   9.217
 2558POPC   GL235618  37.461   0.548   9.290
 2558POPC   C1A35619  37.687   0.706   8.848
 2558POPC   D2A35620  37.931   0.860   8.515
 2558POPC   C3A35621  37.769   0.575   8.195
 2558POPC   C4A35622  37.611   0.621   7.788
 2558POPC   C1B35623  37.249   0.422   8.870
 2558POPC   C2B35624  37.141   0.501   8.413
 2558POPC   C3B35625  37.212   0.352   7.959
 2558POPC   C4B35626  37.238   0.384   7.496
 2559POPC   NC335627   6.624  42.795   9.306
 2559POPC   PO435628   6.792  42.197   9.617
 2559POPC   GL135629   6.590  42.249   9.211
 2559POPC   GL235630   6.906  42.391   9.106
 2559POPC   C1A35631   6.641  42.180   8.737
 2559POPC   D2A35632   6.823  42.029   8.338
 2559POPC   C3A35633   6.629  42.180   7.951
 2559POPC   C4A35634   6.532  42.120   7.506
 2559POPC   C1B35635   6.916  42.665   8.733
 2559POPC   C2B35636   6.726  42.569   8.336
 2559POPC   C3B35637   6.877  42.622   7.935
 2559POPC   C4B35638   6.948  42.376   7.566
 2560POPC   NC335639  10.791  26.457   9.426
 2560POPC   PO435640  10.397  26.909   9.572
 2560POPC   GL135641  10.463  26.753   9.175
 2560POPC   GL235642  10.759  26.925   9.162
 2560POPC   C1A35643  10.256  26.726   8.788
 2560POPC   D2A35644  10.459  26.656   8.406
 2560POPC   C3A35645  10.274  26.788   8.061
 2560POPC   C4A35646  10.374  26.657   7.667
 2560POPC   C1B35647  10.802  26.727   8.780
 2560POPC   C2B35648  10.912  26.898   8.384
 2560POPC   C3B35649  10.784  26.781   7.987
 2560POPC   C4B35650  10.677  27.092   7.685
 2561POPC   NC335651  18.553  26.662   9.574
 2561POPC   PO435652  19.213  26.691   9.534
 2561POPC   GL135653  18.937  26.628   9.233
 2561POPC   GL235654  19.052  26.921   9.077
 2561POPC   C1A35655  18.907  26.516   8.810
 2561POPC   D2A35656  18.995  26.722   8.434
 2561POPC   C3A35657  18.895  26.523   8.038
 2561POPC   C4A35658  18.953  26.742   7.646
 2561POPC   C1B35659  19.307  27.190   8.841
 2561POPC   C2B35660  19.342  27.121   8.392
 2561POPC   C3B35661  19.266  27.151   7.951
 2561POPC   C4B35662  19.410  27.058   7.545
 2562POPC   NC335663   9.946  30.377   9.418
 2562POPC   PO435664   9.286  30.549   9.444
 2562POPC   GL135665   9.621  30.688   9.156
 2562POPC   GL235666   9.937  30.897   9.178
 2562POPC   C1A35667   9.770  30.495   8.783
 2562POPC   D2A35668   9.603  30.408   8.379
 2562POPC   C3A35669   9.783  30.507   7.983
 2562POPC   C4A35670   9.525  30.412   7.613
 2562POPC   C1B35671   9.871  30.984   8.721
 2562POPC   C2B35672   9.831  31.007   8.276
 2562POPC   C3B35673   9.657  31.033   7.901
 2562POPC   C4B35674   9.951  30.862   7.663
 2563POPC   NC335675  12.532   1.400   9.620
 2563POPC   PO435676  13.044   1.013   9.532
 2563POPC   GL135677  12.735   1.125   9.175
 2563POPC   GL235678  12.592   1.461   9.125
 2563POPC   C1A35679  12.854   1.108   8.741
 2563POPC   D2A35680  12.892   0.897   8.338
 2563POPC   C3A35681  13.100   1.138   8.047
 2563POPC   C4A35682  13.124   1.321   7.648
 2563POPC   C1B35683  12.379   1.277   8.782
 2563POPC   C2B35684  12.533   1.252   8.354
 2563POPC   C3B35685  12.575   1.246   7.930
 2563POPC   C4B35686  12.672   1.570   7.668
 2564POPC   NC335687  17.221   9.800   9.748
 2564POPC   PO435688  17.775   9.520   9.705
 2564POPC   GL135689  17.463   9.487   9.351
 2564POPC   GL235690  17.373   9.807   9.225
 2564POPC   C1A35691  17.532   9.408   8.905
 2564POPC   D2A35692  17.783   9.478   8.551
 2564POPC   C3A35693  17.574   9.486   8.154
 2564POPC   C4A35694  17.461   9.807   7.856
 2564POPC   C1B35695  17.457   9.949   8.786
 2564POPC   C2B35696  17.314   9.874   8.378
 2564POPC   C3B35697  17.091  10.073   8.060
 2564POPC   C4B35698  17.307  10.281   7.740
 2565POPC   NC335699   6.493  43.687   9.528
 2565POPC   PO435700   6.705  44.305   9.653
 2565POPC   GL135701   6.790  44.053   9.253
 2565POPC   GL235702   6.526  43.853   9.050
 2565POPC   C1A35703   6.907  44.080   8.799
 2565POPC   D2A35704   6.714  44.319   8.469
 2565POPC   C3A35705   6.799  44.175   8.064
 2565POPC   C4A35706   6.910  43.841   7.776
 2565POPC   C1B35707   6.410  43.566   8.667
 2565POPC   C2B35708   6.223  43.410   8.258
 2565POPC   C3B35709   6.326  43.548   7.833
 2565POPC   C4B35710   6.462  43.996   7.686
 2566POPC   NC335711  31.285  28.569   9.510
 2566POPC   PO435712  31.475  27.950   9.400
 2566POPC   GL135713  31.365  28.240   9.101
 2566POPC   GL235714  31.635  28.471   9.164
 2566POPC   C1A35715  31.540  28.231   8.689
 2566POPC   D2A35716  31.792  28.031   8.379
 2566POPC   C3A35717  31.615  28.092   7.962
 2566POPC   C4A35718  31.276  28.041   7.645
 2566POPC   C1B35719  31.435  28.705   8.872
 2566POPC   C2B35720  31.439  28.771   8.443
 2566POPC   C3B35721  31.375  28.572   8.041
 2566POPC   C4B35722  31.213  28.545   7.612
 2567POPC   NC335723  17.299  29.714   9.492
 2567POPC   PO435724  17.576  30.375   9.382
 2567POPC   GL135725  17.619  29.992   9.109
 2567POPC   GL235726  17.532  29.630   9.034
 2567POPC   C1A35727  17.562  29.974   8.668
 2567POPC   D2A35728  17.336  29.746   8.368
 2567POPC   C3A35729  17.564  29.858   8.014
 2567POPC   C4A35730  17.470  30.152   7.661
 2567POPC   C1B35731  17.099  29.596   8.864
 2567POPC   C2B35732  16.818  29.600   8.524
 2567POPC   C3B35733  16.899  29.582   8.096
 2567POPC   C4B35734  17.123  29.781   7.770
 2568POPC   NC335735  24.829   9.577   9.518
 2568POPC   PO435736  25.493   9.534   9.472
 2568POPC   GL135737  25.335   9.797   9.143
 2568POPC   GL235738  25.022   9.987   9.183
 2568POPC   C1A35739  25.118   9.605   8.806
 2568POPC   D2A35740  25.243   9.464   8.409
 2568POPC   C3A35741  25.304   9.814   8.170
 2568POPC   C4A35742  25.029   9.942   7.911
 2568POPC   C1B35743  25.039  10.113   8.754
 2568POPC   C2B35744  25.037  10.261   8.324
 2568POPC   C3B35745  24.675  10.261   8.037
 2568POPC   C4B35746  24.747  10.192   7.577
 2569POPC   NC335747   9.976  23.410   9.332
 2569POPC   PO435748  10.096  22.828   9.658
 2569POPC   GL135749   9.901  22.906   9.228
 2569POPC   GL235750   9.564  22.830   9.140
 2569POPC   C1A35751   9.908  22.933   8.774
 2569POPC   D2A35752  10.076  22.718   8.439
 2569POPC   C3A35753   9.912  22.733   8.038
 2569POPC   C4A35754   9.789  23.097   7.790
 2569POPC   C1B35755   9.398  22.988   8.725
 2569POPC   C2B35756   9.465  22.817   8.309
 2569POPC   C3B35757   9.414  22.756   7.855
 2569POPC   C4B35758   9.604  22.782   7.425
 2570POPC   NC335759  12.610  19.170   9.573
 2570POPC   PO435760  13.070  18.757   9.340
 2570POPC   GL135761  12.675  18.987   9.099
 2570POPC   GL235762  12.580  19.364   9.105
 2570POPC   C1A35763  12.622  19.089   8.659
 2570POPC   D2A35764  12.886  18.863   8.365
 2570POPC   C3A35765  12.773  18.903   7.963
 2570POPC   C4A35766  12.907  18.885   7.522
 2570POPC   C1B35767  12.951  19.447   8.893
 2570POPC   C2B35768  13.106  19.313   8.504
 2570POPC   C3B35769  13.087  19.377   8.076
 2570POPC   C4B35770  12.842  19.366   7.718
 2571POPC   NC335771  34.100  31.370   9.839
 2571POPC   PO435772  33.496  31.158   9.705
 2571POPC   GL135773  33.669  31.254   9.239
 2571POPC   GL235774  33.657  30.948   9.092
 2571POPC   C1A35775  33.804  31.327   8.725
 2571POPC   D2A35776  33.791  31.126   8.250
 2571POPC   C3A35777  33.839  31.337   7.809
 2571POPC   C4A35778  33.808  31.723   7.550
 2571POPC   C1B35779  33.426  30.997   8.690
 2571POPC   C2B35780  33.233  30.994   8.275
 2571POPC   C3B35781  33.415  31.061   7.884
 2571POPC   C4B35782  33.604  30.907   7.498
 2572POPC   NC335783  29.293  42.575   9.333
 2572POPC   PO435784  28.855  42.346   9.809
 2572POPC   GL135785  28.845  42.382   9.353
 2572POPC   GL235786  29.066  42.113   9.236
 2572POPC   C1A35787  28.912  42.418   8.862
 2572POPC   D2A35788  28.927  42.294   8.402
 2572POPC   C3A35789  29.282  42.412   8.107
 2572POPC   C4A35790  29.367  42.545   7.660
 2572POPC   C1B35791  29.106  41.966   8.789
 2572POPC   C2B35792  29.293  41.931   8.372
 2572POPC   C3B35793  29.127  41.920   7.971
 2572POPC   C4B35794  28.947  42.218   7.714
 2573POPC   NC335795  20.134  19.779   9.559
 2573POPC   PO435796  19.540  19.485   9.536
 2573POPC   GL135797  19.673  19.681   9.150
 2573POPC   GL235798  20.010  19.806   9.040
 2573POPC   C1A35799  19.590  19.816   8.740
 2573POPC   D2A35800  19.619  20.106   8.421
 2573POPC   C3A35801  19.460  19.932   8.076
 2573POPC   C4A35802  19.485  19.487   7.945
 2573POPC   C1B35803  20.067  19.831   8.557
 2573POPC   C2B35804  19.948  19.761   8.097
 2573POPC   C3B35805  20.165  19.915   7.729
 2573POPC   C4B35806  20.264  20.008   7.293
 2574POPC   NC335807  38.517  14.465   9.605
 2574POPC   PO435808  37.909  14.625   9.620
 2574POPC   GL135809  38.166  14.575   9.208
 2574POPC   GL235810  38.448  14.292   9.144
 2574POPC   C1A35811  38.172  14.473   8.749
 2574POPC   D2A35812  37.990  14.489   8.324
 2574POPC   C3A35813  38.104  14.367   7.881
 2574POPC   C4A35814  38.141  14.361   7.422
 2574POPC   C1B35815  38.678  14.510   8.823
 2574POPC   C2B35816  38.696  14.414   8.396
 2574POPC   C3B35817  38.572  14.533   8.025
 2574POPC   C4B35818  38.614  14.332   7.639
 2575POPC   NC335819  20.357   8.707   9.462
 2575POPC   PO435820  20.767   9.291   9.557
 2575POPC   GL135821  20.419   9.184   9.243
 2575POPC   GL235822  20.678   9.069   9.026
 2575POPC   C1A35823  20.267   9.222   8.770
 2575POPC   D2A35824  20.540   8.970   8.517
 2575POPC   C3A35825  20.625   8.992   8.091
 2575POPC   C4A35826  20.571   8.725   7.743
 2575POPC   C1B35827  20.978   8.884   8.729
 2575POPC   C2B35828  21.089   8.955   8.318
 2575POPC   C3B35829  21.044   8.658   7.979
 2575POPC   C4B35830  21.273   8.646   7.599
 2576POPC   NC335831  30.676  41.265   9.420
 2576POPC   PO435832  31.118  41.784   9.461
 2576POPC   GL135833  30.962  41.584   9.137
 2576POPC   GL235834  30.646  41.758   9.201
 2576POPC   C1A35835  30.715  41.509   8.767
 2576POPC   D2A35836  30.734  41.237   8.454
 2576POPC   C3A35837  30.574  41.387   8.110
 2576POPC   C4A35838  30.357  41.399   7.726
 2576POPC   C1B35839  30.776  42.016   8.822
 2576POPC   C2B35840  30.646  42.084   8.361
 2576POPC   C3B35841  30.396  41.906   8.029
 2576POPC   C4B35842  30.710  41.764   7.790
 2577POPC   NC335843  44.652  27.703   9.521
 2577POPC   PO435844   0.272  27.368   9.356
 2577POPC   GL135845   0.398  27.774   9.196
 2577POPC   GL235846   0.712  27.809   9.024
 2577POPC   C1A35847   0.245  27.791   8.784
 2577POPC   D2A35848   0.353  27.613   8.417
 2577POPC   C3A35849   0.372  27.920   8.107
 2577POPC   C4A35850   0.237  27.994   7.694
 2577POPC   C1B35851   0.681  27.418   8.772
 2577POPC   C2B35852   0.775  27.256   8.354
 2577POPC   C3B35853   0.552  27.423   7.998
 2577POPC   C4B35854   0.692  27.730   7.737
 2578POPC   NC335855  26.774  22.626   9.560
 2578POPC   PO435856  27.081  21.985   9.677
 2578POPC   GL135857  27.044  22.016   9.240
 2578POPC   GL235858  26.961  22.339   9.175
 2578POPC   C1A35859  26.866  21.974   8.807
 2578POPC   D2A35860  26.593  21.959   8.442
 2578POPC   C3A35861  26.808  22.010   8.084
 2578POPC   C4A35862  26.769  22.040   7.677
 2578POPC   C1B35863  26.783  22.471   8.770
 2578POPC   C2B35864  26.709  22.455   8.338
 2578POPC   C3B35865  26.636  22.586   7.919
 2578POPC   C4B35866  26.761  22.505   7.505
 2579POPC   NC335867  40.447  11.424   9.521
 2579POPC   PO435868  41.204  11.395   9.554
 2579POPC   GL135869  40.934  11.214   9.223
 2579POPC   GL235870  40.565  11.222   9.092
 2579POPC   C1A35871  40.979  11.210   8.788
 2579POPC   D2A35872  41.023  11.583   8.522
 2579POPC   C3A35873  41.134  11.475   8.121
 2579POPC   C4A35874  40.965  11.379   7.743
 2579POPC   C1B35875  40.584  11.541   8.816
 2579POPC   C2B35876  40.531  11.618   8.392
 2579POPC   C3B35877  40.536  11.475   8.031
 2579POPC   C4B35878  40.475  11.643   7.649
 2580POPC   NC335879  44.354  27.897   9.977
 2580POPC   PO435880  44.383  27.285   9.667
 2580POPC   GL135881  44.458  27.347   9.197
 2580POPC   GL235882  44.254  27.631   9.158
 2580POPC   C1A35883  44.742  27.446   8.813
 2580POPC   D2A35884  44.848  27.726   8.433
 2580POPC   C3A35885   0.002  27.585   7.998
 2580POPC   C4A35886  44.939  27.614   7.526
 2580POPC   C1B35887  44.429  27.868   8.812
 2580POPC   C2B35888  44.424  27.998   8.365
 2580POPC   C3B35889  44.497  27.746   7.987
 2580POPC   C4B35890  44.622  27.971   7.612
 2581POPC   NC335891  18.599  10.357   9.324
 2581POPC   PO435892  18.839  10.857   9.770
 2581POPC   GL135893  18.994  10.778   9.295
 2581POPC   GL235894  18.756  10.672   8.982
 2581POPC   C1A35895  19.244  10.759   8.878
 2581POPC   D2A35896  19.373  10.599   8.447
 2581POPC   C3A35897  19.111  10.566   8.077
 2581POPC   C4A35898  18.949  10.792   7.709
 2581POPC   C1B35899  18.889  10.396   8.639
 2581POPC   C2B35900  18.745  10.221   8.246
 2581POPC   C3B35901  18.702  10.310   7.796
 2581POPC   C4B35902  18.790  10.412   7.347
 2582POPC   NC335903  38.882  23.796   9.515
 2582POPC   PO435904  39.510  23.931   9.438
 2582POPC   GL135905  39.201  23.798   9.112
 2582POPC   GL235906  38.946  23.487   9.114
 2582POPC   C1A35907  39.303  23.995   8.712
 2582POPC   D2A35908  39.544  23.992   8.345
 2582POPC   C3A35909  39.225  24.031   7.997
 2582POPC   C4A35910  39.376  23.851   7.602
 2582POPC   C1B35911  39.208  23.472   8.733
 2582POPC   C2B35912  39.161  23.630   8.313
 2582POPC   C3B35913  39.190  23.447   7.893
 2582POPC   C4B35914  38.855  23.284   7.560
 2583POPC   NC335915   9.969  25.077   9.921
 2583POPC   PO435916  10.383  25.142   9.420
 2583POPC   GL135917  10.434  25.348   9.053
 2583POPC   GL235918  10.042  25.300   9.078
 2583POPC   C1A35919  10.750  25.325   8.719
 2583POPC   D2A35920  10.995  25.304   8.321
 2583POPC   C3A35921  10.756  25.200   7.935
 2583POPC   C4A35922  10.686  25.280   7.489
 2583POPC   C1B35923  10.207  25.053   8.740
 2583POPC   C2B35924  10.378  25.189   8.379
 2583POPC   C3B35925  10.262  25.070   7.989
 2583POPC   C4B35926  10.387  24.882   7.598
 2584POPC   NC335927  44.180  17.553   9.857
 2584POPC   PO435928  43.556  17.708   9.596
 2584POPC   GL135929  43.714  17.543   9.103
 2584POPC   GL235930  44.140  17.579   9.027
 2584POPC   C1A35931  43.773  17.481   8.686
 2584POPC   D2A35932  44.162  17.371   8.491
 2584POPC   C3A35933  44.057  17.215   8.100
 2584POPC   C4A35934  43.804  17.301   7.757
 2584POPC   C1B35935  44.085  17.863   8.673
 2584POPC   C2B35936  43.906  17.764   8.264
 2584POPC   C3B35937  44.103  17.709   7.895
 2584POPC   C4B35938  44.293  17.421   7.634
 2585POPC   NC335939  15.257  32.093   9.495
 2585POPC   PO435940  14.860  32.683   9.471
 2585POPC   GL135941  15.195  32.489   9.188
 2585POPC   GL235942  15.040  32.149   9.035
 2585POPC   C1A35943  15.374  32.422   8.790
 2585POPC   D2A35944  15.008  32.401   8.521
 2585POPC   C3A35945  15.059  32.515   8.110
 2585POPC   C4A35946  15.304  32.364   7.787
 2585POPC   C1B35947  15.362  31.809   8.911
 2585POPC   C2B35948  15.514  31.702   8.500
 2585POPC   C3B35949  15.470  32.039   8.209
 2585POPC   C4B35950  15.493  31.863   7.798
 2586POPC   NC335951   2.742   9.968   9.556
 2586POPC   PO435952   2.586   9.294   9.552
 2586POPC   GL135953   2.785   9.501   9.204
 2586POPC   GL235954   2.648   9.785   9.054
 2586POPC   C1A35955   2.923   9.515   8.757
 2586POPC   D2A35956   2.705   9.753   8.427
 2586POPC   C3A35957   2.702   9.487   8.053
 2586POPC   C4A35958   2.613   9.537   7.593
 2586POPC   C1B35959   3.015  10.010   8.878
 2586POPC   C2B35960   3.059  10.172   8.469
 2586POPC   C3B35961   3.113  10.084   8.053
 2586POPC   C4B35962   3.046   9.747   7.783
 2587POPC   NC335963   7.642  24.772   9.562
 2587POPC   PO435964   7.281  24.205   9.595
 2587POPC   GL135965   7.311  24.450   9.224
 2587POPC   GL235966   7.629  24.440   9.176
 2587POPC   C1A35967   7.379  24.565   8.759
 2587POPC   D2A35968   7.490  24.883   8.471
 2587POPC   C3A35969   7.650  24.784   8.056
 2587POPC   C4A35970   7.407  24.810   7.709
 2587POPC   C1B35971   7.857  24.355   8.842
 2587POPC   C2B35972   7.824  24.467   8.439
 2587POPC   C3B35973   7.471  24.334   8.220
 2587POPC   C4B35974   7.562  24.310   7.785
 2588POPC   NC335975  41.243   5.864   9.381
 2588POPC   PO435976  41.830   6.132   9.227
 2588POPC   GL135977  41.556   5.957   8.960
 2588POPC   GL235978  41.489   5.630   8.989
 2588POPC   C1A35979  41.677   5.834   8.565
 2588POPC   D2A35980  41.448   5.816   8.224
 2588POPC   C3A35981  41.660   5.847   7.895
 2588POPC   C4A35982  41.335   5.896   7.573
 2588POPC   C1B35983  41.177   5.670   8.660
 2588POPC   C2B35984  41.054   5.475   8.256
 2588POPC   C3B35985  41.285   5.476   7.862
 2588POPC   C4B35986  41.215   5.444   7.365
 2589POPC   NC335987  39.710  10.893   9.503
 2589POPC   PO435988  39.998  11.522   9.666
 2589POPC   GL135989  40.022  11.471   9.182
 2589POPC   GL235990  39.768  11.215   9.064
 2589POPC   C1A35991  40.112  11.357   8.721
 2589POPC   D2A35992  40.137  11.185   8.269
 2589POPC   C3A35993  40.039  11.477   7.893
 2589POPC   C4A35994  39.978  11.617   7.456
 2589POPC   C1B35995  39.654  11.117   8.617
 2589POPC   C2B35996  39.609  10.786   8.284
 2589POPC   C3B35997  39.552  10.867   7.889
 2589POPC   C4B35998  39.837  11.094   7.649
 2590POPC   NC335999   4.535   9.784   9.436
 2590POPC   PO436000   3.858   9.512   9.491
 2590POPC   GL136001   4.115   9.745   9.147
 2590POPC   GL236002   4.025  10.065   9.075
 2590POPC   C1A36003   4.316   9.883   8.691
 2590POPC   D2A36004   4.458   9.676   8.258
 2590POPC   C3A36005   4.370   9.728   7.785
 2590POPC   C4A36006   4.616   9.899   7.401
 2590POPC   C1B36007   3.811   9.935   8.762
 2590POPC   C2B36008   3.937   9.795   8.361
 2590POPC   C3B36009   3.926   9.991   7.995
 2590POPC   C4B36010   4.006   9.995   7.553
 2591POPC   NC336011  13.162  12.518   9.456
 2591POPC   PO436012  12.838  11.878   9.427
 2591POPC   GL136013  12.881  12.192   9.153
 2591POPC   GL236014  13.225  12.126   9.074
 2591POPC   C1A36015  12.640  12.336   8.787
 2591POPC   D2A36016  12.722  12.622   8.448
 2591POPC   C3A36017  12.679  12.490   8.028
 2591POPC   C4A36018  12.695  12.225   7.669
 2591POPC   C1B36019  12.957  11.930   8.721
 2591POPC   C2B36020  12.871  12.083   8.300
 2591POPC   C3B36021  13.019  11.884   7.920
 2591POPC   C4B36022  13.311  11.926   7.597
 2592POPC   NC336023  22.698   3.964   9.623
 2592POPC   PO436024  22.857   4.693   9.622
 2592POPC   GL136025  22.854   4.576   9.262
 2592POPC   GL236026  22.703   4.275   9.226
 2592POPC   C1A36027  22.942   4.617   8.873
 2592POPC   D2A36028  23.036   4.432   8.507
 2592POPC   C3A36029  22.987   4.605   8.117
 2592POPC   C4A36030  22.965   4.424   7.731
 2592POPC   C1B36031  22.822   4.105   8.854
 2592POPC   C2B36032  22.783   3.960   8.459
 2592POPC   C3B36033  22.801   4.071   8.045
 2592POPC   C4B36034  22.845   3.940   7.608
 2593POPC   NC336035  12.169  31.654   9.328
 2593POPC   PO436036  11.547  31.429   9.413
 2593POPC   GL136037  11.857  31.376   9.063
 2593POPC   GL236038  12.139  31.140   9.143
 2593POPC   C1A36039  12.044  31.551   8.683
 2593POPC   D2A36040  12.294  31.489   8.316
 2593POPC   C3A36041  11.989  31.472   7.964
 2593POPC   C4A36042  12.016  31.375   7.510
 2593POPC   C1B36043  12.260  31.099   8.694
 2593POPC   C2B36044  12.131  31.003   8.266
 2593POPC   C3B36045  12.381  31.143   7.882
 2593POPC   C4B36046  12.442  31.085   7.418
 2594POPC   NC336047  32.808  16.031   9.558
 2594POPC   PO436048  33.266  15.626   9.576
 2594POPC   GL136049  33.089  15.839   9.166
 2594POPC   GL236050  32.946  16.229   9.131
 2594POPC   C1A36051  32.953  15.938   8.733
 2594POPC   D2A36052  33.160  15.981   8.388
 2594POPC   C3A36053  32.907  15.970   8.080
 2594POPC   C4A36054  33.046  15.927   7.675
 2594POPC   C1B36055  33.236  16.369   8.821
 2594POPC   C2B36056  33.177  16.481   8.392
 2594POPC   C3B36057  33.330  16.286   8.016
 2594POPC   C4B36058  33.286  16.417   7.631
 2595POPC   NC336059  32.600  36.353   9.461
 2595POPC   PO436060  33.256  36.037   9.517
 2595POPC   GL136061  33.179  36.204   9.137
 2595POPC   GL236062  32.846  36.175   9.066
 2595POPC   C1A36063  33.188  36.032   8.699
 2595POPC   D2A36064  33.233  36.281   8.315
 2595POPC   C3A36065  33.179  36.159   7.876
 2595POPC   C4A36066  33.072  36.091   7.412
 2595POPC   C1B36067  32.667  35.994   8.690
 2595POPC   C2B36068  32.790  35.962   8.251
 2595POPC   C3B36069  32.713  35.604   7.985
 2595POPC   C4B36070  32.441  35.548   7.656
 2596POPC   NC336071  25.814  35.504   9.598
 2596POPC   PO436072  26.390  35.121   9.656
 2596POPC   GL136073  26.182  35.222   9.268
 2596POPC   GL236074  25.918  35.031   9.355
 2596POPC   C1A36075  26.109  35.479   8.876
 2596POPC   D2A36076  25.959  35.615   8.432
 2596POPC   C3A36077  26.208  35.545   8.018
 2596POPC   C4A36078  26.254  35.494   7.546
 2596POPC   C1B36079  25.776  35.087   8.949
 2596POPC   C2B36080  25.671  35.062   8.541
 2596POPC   C3B36081  25.890  35.147   8.181
 2596POPC   C4B36082  25.913  35.197   7.771
 2597POPC   NC336083  19.498  23.954   9.500
 2597POPC   PO436084  20.143  23.721   9.407
 2597POPC   GL136085  20.105  23.862   9.026
 2597POPC   GL236086  19.763  23.906   9.074
 2597POPC   C1A36087  20.110  23.775   8.582
 2597POPC   D2A36088  20.137  24.046   8.234
 2597POPC   C3A36089  20.033  23.886   7.840
 2597POPC   C4A36090  19.896  23.475   7.720
 2597POPC   C1B36091  19.599  23.770   8.691
 2597POPC   C2B36092  19.657  23.970   8.301
 2597POPC   C3B36093  19.533  23.862   7.911
 2597POPC   C4B36094  19.149  23.706   7.791
 2598POPC   NC336095  23.999   0.309   9.493
 2598POPC   PO436096  23.332   0.330   9.545
 2598POPC   GL136097  23.578   0.482   9.181
 2598POPC   GL236098  23.874   0.720   9.184
 2598POPC   C1A36099  23.638   0.314   8.766
 2598POPC   D2A36100  23.406   0.203   8.389
 2598POPC   C3A36101  23.608   0.367   8.039
 2598POPC   C4A36102  23.654   0.726   7.766
 2598POPC   C1B36103  24.062   0.626   8.784
 2598POPC   C2B36104  24.005   0.530   8.364
 2598POPC   C3B36105  24.092   0.773   8.001
 2598POPC   C4B36106  24.109   0.773   7.544
 2599POPC   NC336107  39.745  12.984   9.519
 2599POPC   PO436108  40.244  12.653   9.235
 2599POPC   GL136109  40.106  13.049   9.129
 2599POPC   GL236110  39.757  13.071   9.026
 2599POPC   C1A36111  40.145  13.175   8.709
 2599POPC   D2A36112  40.204  12.845   8.435
 2599POPC   C3A36113  39.972  12.900   8.084
 2599POPC   C4A36114  40.134  12.931   7.709
 2599POPC   C1B36115  39.723  12.850   8.643
 2599POPC   C2B36116  39.534  12.461   8.502
 2599POPC   C3B36117  39.564  12.332   8.063
 2599POPC   C4B36118  39.895  12.464   7.774
 2600POPC   NC336119  17.643  19.175   9.619
 2600POPC   PO436120  17.073  18.803   9.495
 2600POPC   GL136121  17.321  19.085   9.179
 2600POPC   GL236122  17.670  18.963   9.153
 2600POPC   C1A36123  17.493  19.319   8.778
 2600POPC   D2A36124  17.666  19.307   8.343
 2600POPC   C3A36125  17.443  19.133   7.954
 2600POPC   C4A36126  17.086  19.290   7.723
 2600POPC   C1B36127  17.588  18.831   8.721
 2600POPC   C2B36128  17.691  18.810   8.284
 2600POPC   C3B36129  17.669  18.673   7.852
 2600POPC   C4B36130  17.971  18.592   7.491
 2601POPC   NC336131  23.882   2.739   9.393
 2601POPC   PO436132  23.243   2.891   9.473
 2601POPC   GL136133  23.521   2.835   9.043
 2601POPC   GL236134  23.720   2.517   8.959
 2601POPC   C1A36135  23.936   2.910   8.730
 2601POPC   D2A36136  24.066   2.637   8.351
 2601POPC   C3A36137  23.760   2.736   8.020
 2601POPC   C4A36138  23.782   2.930   7.624
 2601POPC   C1B36139  23.321   2.452   8.740
 2601POPC   C2B36140  23.149   2.393   8.340
 2601POPC   C3B36141  23.193   2.491   7.927
 2601POPC   C4B36142  23.511   2.465   7.632
 2602POPC   NC336143  21.130  13.979   9.784
 2602POPC   PO436144  21.517  14.519   9.745
 2602POPC   GL136145  21.409  14.328   9.298
 2602POPC   GL236146  21.548  14.599   9.117
 2602POPC   C1A36147  21.308  14.266   8.808
 2602POPC   D2A36148  21.286  14.459   8.365
 2602POPC   C3A36149  21.221  14.323   7.913
 2602POPC   C4A36150  21.529  13.986   7.745
 2602POPC   C1B36151  21.177  14.768   8.816
 2602POPC   C2B36152  20.951  14.846   8.363
 2602POPC   C3B36153  20.977  14.924   7.879
 2602POPC   C4B36154  21.274  14.774   7.605
 2603POPC   NC336155  43.164  21.819   9.412
 2603POPC   PO436156  42.634  22.180   9.617
 2603POPC   GL136157  42.919  22.228   9.212
 2603POPC   GL236158  43.255  22.336   9.246
 2603POPC   C1A36159  43.171  22.105   8.792
 2603POPC   D2A36160  43.319  22.001   8.356
 2603POPC   C3A36161  42.956  22.004   8.075
 2603POPC   C4A36162  42.842  22.235   7.714
 2603POPC   C1B36163  43.373  22.574   8.898
 2603POPC   C2B36164  43.304  22.531   8.467
 2603POPC   C3B36165  43.245  22.428   8.047
 2603POPC   C4B36166  43.345  22.129   7.706
 2604POPC   NC336167  22.389  35.336   9.574
 2604POPC   PO436168  21.832  35.050   9.548
 2604POPC   GL136169  22.094  35.129   9.194
 2604POPC   GL236170  22.492  34.983   9.195
 2604POPC   C1A36171  21.975  35.189   8.745
 2604POPC   D2A36172  22.259  35.158   8.382
 2604POPC   C3A36173  22.073  35.120   7.976
 2604POPC   C4A36174  21.720  35.285   7.770
 2604POPC   C1B36175  22.461  35.294   8.869
 2604POPC   C2B36176  22.657  35.505   8.508
 2604POPC   C3B36177  22.682  35.460   8.049
 2604POPC   C4B36178  22.542  35.166   7.738
 2605POPC   NC336179  43.762  38.985   9.385
 2605POPC   PO436180  43.590  38.336   9.681
 2605POPC   GL136181  43.517  38.258   9.231
 2605POPC   GL236182  43.455  37.922   9.125
 2605POPC   C1A36183  43.784  38.343   8.838
 2605POPC   D2A36184  44.070  38.143   8.505
 2605POPC   C3A36185  44.064  38.315   8.089
 2605POPC   C4A36186  43.775  38.648   7.917
 2605POPC   C1B36187  43.374  38.083   8.733
 2605POPC   C2B36188  43.567  38.212   8.333
 2605POPC   C3B36189  43.631  38.151   7.900
 2605POPC   C4B36190  43.920  38.301   7.565
 2606POPC   NC336191  32.965  21.624   9.851
 2606POPC   PO436192  33.229  21.068   9.571
 2606POPC   GL136193  33.073  21.257   9.214
 2606POPC   GL236194  32.707  21.204   9.211
 2606POPC   C1A36195  32.993  21.505   8.844
 2606POPC   D2A36196  33.088  21.740   8.468
 2606POPC   C3A36197  33.135  21.553   8.067
 2606POPC   C4A36198  32.906  21.416   7.706
 2606POPC   C1B36199  32.872  20.978   8.829
 2606POPC   C2B36200  32.994  21.188   8.440
 2606POPC   C3B36201  32.846  21.064   8.055
 2606POPC   C4B36202  32.862  20.872   7.618
 2607POPC   NC336203  29.952  23.207   9.244
 2607POPC   PO436204  29.495  22.800   9.450
 2607POPC   GL136205  29.767  22.729   9.105
 2607POPC   GL236206  30.074  22.685   9.283
 2607POPC   C1A36207  29.809  22.960   8.684
 2607POPC   D2A36208  29.618  23.130   8.306
 2607POPC   C3A36209  29.806  22.961   7.925
 2607POPC   C4A36210  29.765  23.039   7.478
 2607POPC   C1B36211  30.249  22.680   8.870
 2607POPC   C2B36212  30.216  22.774   8.430
 2607POPC   C3B36213  30.134  22.583   8.024
 2607POPC   C4B36214  30.284  22.415   7.605
 2608POPC   NC336215  31.029  40.496   9.295
 2608POPC   PO436216  30.349  40.560   9.336
 2608POPC   GL136217  30.649  40.726   9.019
 2608POPC   GL236218  30.820  41.048   8.991
 2608POPC   C1A36219  30.819  40.759   8.582
 2608POPC   D2A36220  30.623  40.822   8.158
 2608POPC   C3A36221  30.806  40.700   7.755
 2608POPC   C4A36222  30.585  40.541   7.392
 2608POPC   C1B36223  31.161  41.250   8.790
 2608POPC   C2B36224  31.256  41.284   8.392
 2608POPC   C3B36225  31.072  41.080   8.032
 2608POPC   C4B36226  30.820  41.215   7.693
 2609POPC   NC336227  23.846  14.473   9.387
 2609POPC   PO436228  23.342  14.036   9.586
 2609POPC   GL136229  23.555  14.002   9.086
 2609POPC   GL236230  23.885  14.166   9.024
 2609POPC   C1A36231  23.602  14.207   8.631
 2609POPC   D2A36232  23.589  14.083   8.217
 2609POPC   C3A36233  23.607  14.327   7.864
 2609POPC   C4A36234  23.334  14.482   7.536
 2609POPC   C1B36235  24.092  14.390   8.707
 2609POPC   C2B36236  24.132  14.471   8.299
 2609POPC   C3B36237  24.100  14.449   7.886
 2609POPC   C4B36238  24.030  14.170   7.547
 2610POPC   NC336239  40.864  31.277   9.427
 2610POPC   PO436240  41.256  31.691   9.446
 2610POPC   GL136241  41.241  31.393   9.085
 2610POPC   GL236242  40.895  31.455   8.946
 2610POPC   C1A36243  41.256  31.254   8.668
 2610POPC   D2A36244  40.940  31.481   8.406
 2610POPC   C3A36245  40.967  31.424   7.957
 2610POPC   C4A36246  40.701  31.301   7.597
 2610POPC   C1B36247  40.676  31.139   8.659
 2610POPC   C2B36248  40.559  31.126   8.214
 2610POPC   C3B36249  40.310  31.382   7.898
 2610POPC   C4B36250  40.200  31.253   7.442
 2611POPC   NC336251  29.757  26.464   9.227
 2611POPC   PO436252  30.177  26.044   9.668
 2611POPC   GL136253  30.208  26.108   9.234
 2611POPC   GL236254  30.291  26.443   9.286
 2611POPC   C1A36255  30.091  25.944   8.794
 2611POPC   D2A36256  29.754  25.866   8.461
 2611POPC   C3A36257  29.855  26.103   8.081
 2611POPC   C4A36258  29.908  26.065   7.635
 2611POPC   C1B36259  30.310  26.416   8.840
 2611POPC   C2B36260  30.211  26.347   8.407
 2611POPC   C3B36261  30.226  26.485   7.978
 2611POPC   C4B36262  30.319  26.339   7.582
 2612POPC   NC336263   9.207  33.651   9.563
 2612POPC   PO436264   8.604  33.920   9.729
 2612POPC   GL136265   8.831  33.826   9.281
 2612POPC   GL236266   9.191  33.972   9.181
 2612POPC   C1A36267   8.879  33.819   8.786
 2612POPC   D2A36268   8.804  33.590   8.369
 2612POPC   C3A36269   8.884  33.703   7.916
 2612POPC   C4A36270   8.895  33.575   7.456
 2612POPC   C1B36271   9.485  33.981   8.846
 2612POPC   C2B36272   9.460  33.824   8.415
 2612POPC   C3B36273   9.370  33.934   7.999
 2612POPC   C4B36274   9.300  33.827   7.603
 2613POPC   NC336275  29.311  43.860   9.822
 2613POPC   PO436276  28.851  43.715   9.354
 2613POPC   GL136277  29.040  43.882   9.065
 2613POPC   GL236278  28.923  43.602   8.843
 2613POPC   C1A36279  29.065  44.091   8.771
 2613POPC   D2A36280  28.740  43.988   8.536
 2613POPC   C3A36281  28.921  43.809   8.177
 2613POPC   C4A36282  28.884  44.037   7.795
 2613POPC   C1B36283  29.319  43.515   8.633
 2613POPC   C2B36284  29.608  43.542   8.287
 2613POPC   C3B36285  29.379  43.455   7.936
 2613POPC   C4B36286  29.134  43.604   7.641
 2614POPC   NC336287   7.468  26.479   9.677
 2614POPC   PO436288   7.288  27.112   9.457
 2614POPC   GL136289   7.435  26.931   9.100
 2614POPC   GL236290   7.375  26.616   9.191
 2614POPC   C1A36291   7.452  26.988   8.661
 2614POPC   D2A36292   7.306  26.718   8.341
 2614POPC   C3A36293   7.328  26.973   7.993
 2614POPC   C4A36294   7.357  27.290   7.706
 2614POPC   C1B36295   7.565  26.493   8.796
 2614POPC   C2B36296   7.811  26.542   8.417
 2614POPC   C3B36297   7.672  26.568   7.965
 2614POPC   C4B36298   7.699  26.391   7.549
 2615POPC   NC336299  12.690  28.049   9.510
 2615POPC   PO436300  13.153  27.527   9.471
 2615POPC   GL136301  13.094  27.654   9.053
 2615POPC   GL236302  13.028  28.005   9.121
 2615POPC   C1A36303  12.793  27.738   8.678
 2615POPC   D2A36304  12.687  27.825   8.199
 2615POPC   C3A36305  12.790  27.513   7.865
 2615POPC   C4A36306  12.605  27.494   7.451
 2615POPC   C1B36307  13.206  28.047   8.742
 2615POPC   C2B36308  13.174  27.826   8.346
 2615POPC   C3B36309  13.134  27.901   7.898
 2615POPC   C4B36310  13.091  27.767   7.426
 2616POPC   NC336311   5.513  25.840   9.540
 2616POPC   PO436312   4.861  25.866   9.484
 2616POPC   GL136313   4.911  26.155   9.166
 2616POPC   GL236314   5.278  26.131   9.154
 2616POPC   C1A36315   4.979  26.169   8.736
 2616POPC   D2A36316   4.989  26.222   8.304
 2616POPC   C3A36317   4.891  25.864   8.018
 2616POPC   C4A36318   4.824  25.976   7.624
 2616POPC   C1B36319   5.499  26.162   8.738
 2616POPC   C2B36320   5.493  26.125   8.282
 2616POPC   C3B36321   5.251  26.207   7.879
 2616POPC   C4B36322   5.309  26.537   7.570
 2617POPC   NC336323  24.658  11.982   9.617
 2617POPC   PO436324  24.358  12.553   9.403
 2617POPC   GL136325  24.499  12.258   9.098
 2617POPC   GL236326  24.687  11.947   9.114
 2617POPC   C1A36327  24.405  12.107   8.685
 2617POPC   D2A36328  24.165  12.377   8.412
 2617POPC   C3A36329  24.257  12.392   7.984
 2617POPC   C4A36330  24.157  12.153   7.688
 2617POPC   C1B36331  24.944  12.228   8.852
 2617POPC   C2B36332  24.885  12.175   8.437
 2617POPC   C3B36333  24.557  11.995   8.201
 2617POPC   C4B36334  24.592  11.879   7.786
 2618POPC   NC336335  33.643  35.746   9.588
 2618POPC   PO436336  33.969  36.329   9.545
 2618POPC   GL136337  33.705  36.162   9.219
 2618POPC   GL236338  33.891  35.877   9.176
 2618POPC   C1A36339  33.556  36.366   8.833
 2618POPC   D2A36340  33.758  36.280   8.439
 2618POPC   C3A36341  33.636  36.397   8.017
 2618POPC   C4A36342  33.904  36.238   7.694
 2618POPC   C1B36343  33.723  35.878   8.766
 2618POPC   C2B36344  33.541  35.846   8.358
 2618POPC   C3B36345  33.696  35.874   7.982
 2618POPC   C4B36346  33.640  35.599   7.667
 2619POPC   NC336347   7.940  44.066   9.467
 2619POPC   PO436348   7.325  43.689   9.425
 2619POPC   GL136349   7.567  43.862   9.095
 2619POPC   GL236350   7.762  43.592   9.139
 2619POPC   C1A36351   7.427  43.939   8.658
 2619POPC   D2A36352   7.134  43.842   8.307
 2619POPC   C3A36353   7.342  44.035   7.972
 2619POPC   C4A36354   7.713  44.083   7.738
 2619POPC   C1B36355   7.625  43.452   8.745
 2619POPC   C2B36356   7.840  43.454   8.351
 2619POPC   C3B36357   7.677  43.448   7.947
 2619POPC   C4B36358   7.287  43.535   7.828
 2620POPC   NC336359   0.885   5.482   9.574
 2620POPC   PO436360   1.405   5.083   9.615
 2620POPC   GL136361   1.186   5.208   9.251
 2620POPC   GL236362   0.876   5.019   9.351
 2620POPC   C1A36363   1.231   5.299   8.792
 2620POPC   D2A36364   1.358   5.113   8.370
 2620POPC   C3A36365   1.418   5.323   7.958
 2620POPC   C4A36366   1.039   5.351   7.709
 2620POPC   C1B36367   0.845   4.958   8.917
 2620POPC   C2B36368   0.783   5.149   8.529
 2620POPC   C3B36369   0.790   5.126   8.114
 2620POPC   C4B36370   1.121   4.891   7.954
 2621POPC   NC336371  32.151  35.114   9.571
 2621POPC   PO436372  32.750  35.188   9.371
 2621POPC   GL136373  32.391  35.316   9.121
 2621POPC   GL236374  32.035  35.456   9.183
 2621POPC   C1A36375  32.328  35.582   8.779
 2621POPC   D2A36376  32.403  35.595   8.373
 2621POPC   C3A36377  32.425  35.180   8.150
 2621POPC   C4A36378  32.342  35.020   7.755
 2621POPC   C1B36379  31.820  35.688   8.811
 2621POPC   C2B36380  31.899  35.699   8.335
 2621POPC   C3B36381  32.045  35.455   7.973
 2621POPC   C4B36382  31.866  35.159   7.676
 2622POPC   NC336383   5.453   3.696   9.424
 2622POPC   PO436384   4.865   3.873   9.887
 2622POPC   GL136385   4.700   3.671   9.216
 2622POPC   GL236386   5.055   3.480   9.130
 2622POPC   C1A36387   4.856   3.638   8.710
 2622POPC   D2A36388   4.840   3.318   8.336
 2622POPC   C3A36389   4.850   3.438   7.855
 2622POPC   C4A36390   5.133   3.666   7.526
 2622POPC   C1B36391   5.263   3.273   8.763
 2622POPC   C2B36392   5.262   3.015   8.404
 2622POPC   C3B36393   5.277   3.224   8.032
 2622POPC   C4B36394   5.459   3.241   7.659
 2623POPC   NC336395   8.242  31.283   9.408
 2623POPC   PO436396   8.508  31.788   9.737
 2623POPC   GL136397   8.353  31.778   9.300
 2623POPC   GL236398   8.590  31.575   9.134
 2623POPC   C1A36399   8.125  31.654   8.897
 2623POPC   D2A36400   7.967  31.443   8.517
 2623POPC   C3A36401   8.144  31.347   8.128
 2623POPC   C4A36402   8.185  31.489   7.707
 2623POPC   C1B36403   8.505  31.340   8.749
 2623POPC   C2B36404   8.543  31.150   8.384
 2623POPC   C3B36405   8.615  31.229   7.976
 2623POPC   C4B36406   8.534  31.066   7.605
 2624POPC   NC336407  37.196  21.743   9.990
 2624POPC   PO436408  36.873  21.304   9.664
 2624POPC   GL136409  36.729  21.232   9.237
 2624POPC   GL236410  36.915  21.520   9.110
 2624POPC   C1A36411  36.798  21.148   8.779
 2624POPC   D2A36412  36.806  21.496   8.468
 2624POPC   C3A36413  36.807  21.316   8.057
 2624POPC   C4A36414  36.828  21.197   7.628
 2624POPC   C1B36415  37.152  21.777   8.798
 2624POPC   C2B36416  37.328  21.617   8.422
 2624POPC   C3B36417  37.209  21.672   8.016
 2624POPC   C4B36418  37.233  21.829   7.620
 2625POPC   NC336419  21.265  24.087   9.646
 2625POPC   PO436420  21.640  24.656   9.477
 2625POPC   GL136421  21.497  24.383   9.134
 2625POPC   GL236422  21.162  24.253   9.167
 2625POPC   C1A36423  21.551  24.547   8.701
 2625POPC   D2A36424  21.361  24.707   8.351
 2625POPC   C3A36425  21.490  24.454   8.048
 2625POPC   C4A36426  21.366  24.258   7.720
 2625POPC   C1B36427  21.063  24.405   8.769
 2625POPC   C2B36428  21.117  24.262   8.373
 2625POPC   C3B36429  20.957  24.416   8.004
 2625POPC   C4B36430  20.808  24.205   7.638
 2626POPC   NC336431  42.967  39.256   9.334
 2626POPC   PO436432  43.612  39.456   9.381
 2626POPC   GL136433  43.370  39.453   9.039
 2626POPC   GL236434  43.223  39.127   8.903
 2626POPC   C1A36435  43.103  39.568   8.719
 2626POPC   D2A36436  42.942  39.342   8.421
 2626POPC   C3A36437  43.151  39.293   8.046
 2626POPC   C4A36438  43.003  39.440   7.694
 2626POPC   C1B36439  42.893  38.910   8.682
 2626POPC   C2B36440  42.944  38.825   8.234
 2626POPC   C3B36441  42.836  38.889   7.806
 2626POPC   C4B36442  42.883  39.068   7.389
 2627POPC   NC336443  27.083  11.821   9.241
 2627POPC   PO436444  26.784  12.375   9.497
 2627POPC   GL136445  26.781  12.225   9.129
 2627POPC   GL236446  26.557  11.958   9.167
 2627POPC   C1A36447  27.009  12.308   8.752
 2627POPC   D2A36448  26.787  12.382   8.380
 2627POPC   C3A36449  26.912  12.479   7.957
 2627POPC   C4A36450  26.958  12.248   7.569
 2627POPC   C1B36451  26.674  11.924   8.722
 2627POPC   C2B36452  26.566  11.882   8.323
 2627POPC   C3B36453  26.797  11.959   7.975
 2627POPC   C4B36454  26.741  11.762   7.592
 2628POPC   NC336455  18.436   0.835   9.465
 2628POPC   PO436456  18.130   0.185   9.410
 2628POPC   GL136457  18.325   0.442   9.145
 2628POPC   GL236458  18.060   0.680   9.140
 2628POPC   C1A36459  18.380   0.519   8.731
 2628POPC   D2A36460  18.525   0.633   8.354
 2628POPC   C3A36461  18.402   0.325   8.078
 2628POPC   C4A36462  18.282   0.310   7.677
 2628POPC   C1B36463  17.930   0.765   8.738
 2628POPC   C2B36464  18.007   0.597   8.340
 2628POPC   C3B36465  18.185   0.781   7.979
 2628POPC   C4B36466  17.971   0.711   7.631
 2629POPC   NC336467  14.356  28.285   9.643
 2629POPC   PO436468  14.112  28.911   9.520
 2629POPC   GL136469  14.067  28.562   9.241
 2629POPC   GL236470  14.423  28.577   9.222
 2629POPC   C1A36471  14.199  28.336   8.842
 2629POPC   D2A36472  14.510  28.441   8.514
 2629POPC   C3A36473  14.347  28.467   8.106
 2629POPC   C4A36474  14.371  28.229   7.744
 2629POPC   C1B36475  14.534  28.817   8.861
 2629POPC   C2B36476  14.753  28.914   8.454
 2629POPC   C3B36477  14.830  28.640   8.129
 2629POPC   C4B36478  14.622  28.755   7.761
 2630POPC   NC336479  18.907   9.643   9.601
 2630POPC   PO436480  19.067  10.260   9.346
 2630POPC   GL136481  18.980  10.027   9.013
 2630POPC   GL236482  19.052   9.696   9.119
 2630POPC   C1A36483  18.843   9.843   8.627
 2630POPC   D2A36484  18.998   9.689   8.247
 2630POPC   C3A36485  19.136  10.037   7.969
 2630POPC   C4A36486  19.052  10.019   7.535
 2630POPC   C1B36487  19.208   9.438   8.798
 2630POPC   C2B36488  19.407   9.374   8.415
 2630POPC   C3B36489  19.495   9.548   8.029
 2630POPC   C4B36490  19.128   9.577   7.765
 2631POPC   NC336491   1.113  36.539   9.514
 2631POPC   PO436492   0.953  37.229   9.458
 2631POPC   GL136493   1.121  37.030   9.072
 2631POPC   GL236494   1.333  36.728   9.096
 2631POPC   C1A36495   1.207  36.883   8.622
 2631POPC   D2A36496   1.058  36.676   8.234
 2631POPC   C3A36497   1.060  36.872   7.802
 2631POPC   C4A36498   0.894  36.787   7.409
 2631POPC   C1B36499   1.636  36.635   8.775
 2631POPC   C2B36500   1.497  36.457   8.388
 2631POPC   C3B36501   1.477  36.567   7.921
 2631POPC   C4B36502   1.397  36.637   7.463
 2632POPC   NC336503  27.069  33.553   9.562
 2632POPC   PO436504  26.759  34.206   9.493
 2632POPC   GL136505  26.751  33.925   9.127
 2632POPC   GL236506  26.662  33.590   9.241
 2632POPC   C1A36507  26.965  33.945   8.701
 2632POPC   D2A36508  26.975  34.245   8.344
 2632POPC   C3A36509  26.833  34.074   7.967
 2632POPC   C4A36510  26.790  33.847   7.590
 2632POPC   C1B36511  26.739  33.481   8.805
 2632POPC   C2B36512  26.744  33.652   8.364
 2632POPC   C3B36513  26.904  33.560   8.000
 2632POPC   C4B36514  27.259  33.532   7.757
 2633POPC   NC336515  19.120  18.428   9.767
 2633POPC   PO436516  18.597  18.135   9.587
 2633POPC   GL136517  18.895  18.185   9.218
 2633POPC   GL236518  19.182  18.420   9.212
 2633POPC   C1A36519  18.950  18.200   8.740
 2633POPC   D2A36520  18.748  18.195   8.314
 2633POPC   C3A36521  18.854  18.304   7.858
 2633POPC   C4A36522  18.712  18.386   7.408
 2633POPC   C1B36523  19.212  18.651   8.775
 2633POPC   C2B36524  19.126  18.600   8.319
 2633POPC   C3B36525  19.334  18.470   7.906
 2633POPC   C4B36526  19.684  18.356   7.617
 2634POPC   NC336527   1.808  28.533   9.449
 2634POPC   PO436528   2.209  28.073   9.746
 2634POPC   GL136529   2.318  28.211   9.292
 2634POPC   GL236530   1.977  28.133   9.163
 2634POPC   C1A36531   2.306  28.307   8.808
 2634POPC   D2A36532   2.170  28.700   8.548
 2634POPC   C3A36533   2.094  28.700   8.082
 2634POPC   C4A36534   1.736  28.650   7.802
 2634POPC   C1B36535   1.784  28.399   8.829
 2634POPC   C2B36536   1.704  28.374   8.404
 2634POPC   C3B36537   1.907  28.216   8.042
 2634POPC   C4B36538   1.714  28.132   7.686
 2635POPC   NC336539   3.063  40.961   9.530
 2635POPC   PO436540   2.460  40.522   9.608
 2635POPC   GL136541   2.734  40.655   9.278
 2635POPC   GL236542   2.654  40.999   9.185
 2635POPC   C1A36543   2.726  40.663   8.830
 2635POPC   D2A36544   2.657  40.877   8.467
 2635POPC   C3A36545   2.812  40.647   8.149
 2635POPC   C4A36546   2.782  40.648   7.730
 2635POPC   C1B36547   2.985  41.112   8.870
 2635POPC   C2B36548   2.991  41.262   8.430
 2635POPC   C3B36549   2.841  41.126   7.997
 2635POPC   C4B36550   2.958  41.119   7.552
 2636POPC   NC336551   5.456  13.555   9.954
 2636POPC   PO436552   4.829  13.541   9.730
 2636POPC   GL136553   4.839  13.411   9.278
 2636POPC   GL236554   5.166  13.291   9.202
 2636POPC   C1A36555   4.878  13.544   8.839
 2636POPC   D2A36556   4.692  13.507   8.443
 2636POPC   C3A36557   4.874  13.605   8.070
 2636POPC   C4A36558   4.689  13.919   7.819
 2636POPC   C1B36559   5.184  13.107   8.771
 2636POPC   C2B36560   5.055  13.162   8.346
 2636POPC   C3B36561   5.276  13.299   7.943
 2636POPC   C4B36562   5.258  13.291   7.461
 2637POPC   NC336563  11.096  43.105   9.446
 2637POPC   PO436564  11.583  42.531   9.401
 2637POPC   GL136565  11.455  42.862   9.157
 2637POPC   GL236566  11.517  43.220   9.166
 2637POPC   C1A36567  11.280  42.860   8.791
 2637POPC   D2A36568  11.449  42.856   8.416
 2637POPC   C3A36569  11.167  42.976   8.102
 2637POPC   C4A36570  11.261  42.905   7.653
 2637POPC   C1B36571  11.361  43.375   8.765
 2637POPC   C2B36572  11.157  43.444   8.349
 2637POPC   C3B36573  11.190  43.431   7.878
 2637POPC   C4B36574  11.638  43.444   7.828
 2638POPC   NC336575   1.322  43.793   9.579
 2638POPC   PO436576   1.075  44.212   9.153
 2638POPC   GL136577   1.360  43.897   9.021
 2638POPC   GL236578   1.331  43.533   9.099
 2638POPC   C1A36579   1.321  43.863   8.587
 2638POPC   D2A36580   0.932  43.721   8.419
 2638POPC   C3A36581   1.003  43.758   7.991
 2638POPC   C4A36582   1.041  44.065   7.704
 2638POPC   C1B36583   1.441  43.383   8.677
 2638POPC   C2B36584   1.609  43.511   8.263
 2638POPC   C3B36585   1.425  43.498   7.840
 2638POPC   C4B36586   1.078  43.580   7.496
 2639POPC   NC336587  16.245   8.260   9.682
 2639POPC   PO436588  15.741   8.631   9.658
 2639POPC   GL136589  15.994   8.514   9.279
 2639POPC   GL236590  16.129   8.188   9.180
 2639POPC   C1A36591  15.973   8.546   8.840
 2639POPC   D2A36592  15.754   8.350   8.525
 2639POPC   C3A36593  15.808   8.429   8.093
 2639POPC   C4A36594  15.676   8.254   7.700
 2639POPC   C1B36595  16.140   8.053   8.719
 2639POPC   C2B36596  16.135   8.054   8.240
 2639POPC   C3B36597  15.965   7.847   7.844
 2639POPC   C4B36598  16.041   7.571   7.437
 2640POPC   NC336599  40.959  22.578   9.358
 2640POPC   PO436600  41.006  21.857   9.345
 2640POPC   GL136601  40.703  21.967   9.014
 2640POPC   GL236602  40.663  22.266   9.048
 2640POPC   C1A36603  40.747  21.965   8.617
 2640POPC   D2A36604  41.094  22.079   8.405
 2640POPC   C3A36605  40.888  22.100   8.025
 2640POPC   C4A36606  40.946  21.870   7.683
 2640POPC   C1B36607  40.371  22.467   8.733
 2640POPC   C2B36608  40.447  22.553   8.300
 2640POPC   C3B36609  40.332  22.450   7.885
 2640POPC   C4B36610  40.455  22.082   7.753
 2641POPC   NC336611   5.499  38.042   9.369
 2641POPC   PO436612   6.022  38.577   9.407
 2641POPC   GL136613   5.872  38.323   9.096
 2641POPC   GL236614   5.958  38.579   8.847
 2641POPC   C1A36615   5.656  38.198   8.747
 2641POPC   D2A36616   5.617  38.481   8.444
 2641POPC   C3A36617   5.601  38.392   8.006
 2641POPC   C4A36618   5.888  38.631   7.763
 2641POPC   C1B36619   6.321  38.312   8.724
 2641POPC   C2B36620   6.481  38.036   8.397
 2641POPC   C3B36621   6.402  38.121   8.019
 2641POPC   C4B36622   6.022  38.136   7.776
 2642POPC   NC336623  10.840  20.733   9.400
 2642POPC   PO436624  11.478  20.989   9.568
 2642POPC   GL136625  11.311  20.677   9.225
 2642POPC   GL236626  11.480  20.379   9.149
 2642POPC   C1A36627  11.121  20.525   8.803
 2642POPC   D2A36628  11.049  20.661   8.378
 2642POPC   C3A36629  11.339  20.498   8.069
 2642POPC   C4A36630  11.196  20.539   7.625
 2642POPC   C1B36631  11.650  20.564   8.782
 2642POPC   C2B36632  11.884  20.614   8.420
 2642POPC   C3B36633  11.863  20.486   8.042
 2642POPC   C4B36634  11.700  20.441   7.682
 2643POPC   NC336635  10.345  39.078   9.563
 2643POPC   PO436636  10.986  39.194   9.436
 2643POPC   GL136637  10.628  39.236   9.164
 2643POPC   GL236638  10.385  39.502   9.217
 2643POPC   C1A36639  10.502  39.056   8.795
 2643POPC   D2A36640  10.686  38.933   8.415
 2643POPC   C3A36641  10.530  39.127   8.042
 2643POPC   C4A36642  10.435  38.983   7.650
 2643POPC   C1B36643  10.469  39.577   8.766
 2643POPC   C2B36644  10.465  39.778   8.349
 2643POPC   C3B36645  10.357  39.647   7.961
 2643POPC   C4B36646  10.511  39.473   7.618
 2644POPC   NC336647  42.729  34.274   9.386
 2644POPC   PO436648  42.234  34.614   9.707
 2644POPC   GL136649  42.394  34.671   9.275
 2644POPC   GL236650  42.543  35.024   9.243
 2644POPC   C1A36651  42.197  34.500   8.888
 2644POPC   D2A36652  42.280  34.275   8.506
 2644POPC   C3A36653  42.213  34.512   8.153
 2644POPC   C4A36654  42.225  34.607   7.712
 2644POPC   C1B36655  42.556  34.856   8.816
 2644POPC   C2B36656  42.524  34.977   8.397
 2644POPC   C3B36657  42.634  34.766   8.055
 2644POPC   C4B36658  42.698  34.846   7.685
 2645POPC   NC336659  12.161  29.276   9.568
 2645POPC   PO436660  11.678  29.691   9.307
 2645POPC   GL136661  12.007  29.411   9.060
 2645POPC   GL236662  12.057  29.046   9.129
 2645POPC   C1A36663  12.260  29.290   8.698
 2645POPC   D2A36664  12.126  29.112   8.312
 2645POPC   C3A36665  11.824  29.357   8.115
 2645POPC   C4A36666  11.933  29.465   7.745
 2645POPC   C1B36667  11.842  28.994   8.730
 2645POPC   C2B36668  11.706  28.797   8.326
 2645POPC   C3B36669  11.771  28.899   7.894
 2645POPC   C4B36670  12.187  29.026   7.811
 2646POPC   NC336671   6.905  40.742   9.565
 2646POPC   PO436672   6.378  40.662   9.222
 2646POPC   GL136673   6.563  41.005   9.050
 2646POPC   GL236674   6.927  41.025   9.125
 2646POPC   C1A36675   6.646  40.826   8.630
 2646POPC   D2A36676   6.787  40.415   8.479
 2646POPC   C3A36677   6.668  40.444   8.063
 2646POPC   C4A36678   6.900  40.592   7.758
 2646POPC   C1B36679   6.904  41.250   8.757
 2646POPC   C2B36680   6.661  41.285   8.424
 2646POPC   C3B36681   6.566  41.069   8.072
 2646POPC   C4B36682   6.810  41.145   7.708
 2647POPC   NC336683  37.274  23.496   9.835
 2647POPC   PO436684  37.822  23.606   9.436
 2647POPC   GL136685  37.911  23.616   9.031
 2647POPC   GL236686  38.043  23.318   8.944
 2647POPC   C1A36687  37.796  23.806   8.629
 2647POPC   D2A36688  37.487  24.016   8.387
 2647POPC   C3A36689  37.616  24.062   7.994
 2647POPC   C4A36690  37.373  24.053   7.638
 2647POPC   C1B36691  37.677  23.286   8.670
 2647POPC   C2B36692  37.457  23.487   8.314
 2647POPC   C3B36693  37.602  23.557   7.874
 2647POPC   C4B36694  37.992  23.434   7.659
 2648POPC   NC336695  33.572  28.473   9.508
 2648POPC   PO436696  34.210  28.346   9.434
 2648POPC   GL136697  33.821  28.156   9.184
 2648POPC   GL236698  33.528  28.361   8.991
 2648POPC   C1A36699  33.779  27.980   8.762
 2648POPC   D2A36700  33.556  28.043   8.383
 2648POPC   C3A36701  33.698  28.156   7.973
 2648POPC   C4A36702  33.972  28.450   7.728
 2648POPC   C1B36703  33.208  28.364   8.639
 2648POPC   C2B36704  33.244  28.404   8.180
 2648POPC   C3B36705  33.491  28.628   7.865
 2648POPC   C4B36706  33.487  29.053   7.735
 2649POPC   NC336707  38.810  12.857   9.459
 2649POPC   PO436708  39.438  12.603   9.511
 2649POPC   GL136709  39.296  12.951   9.230
 2649POPC   GL236710  39.361  12.692   8.981
 2649POPC   C1A36711  39.298  13.169   8.810
 2649POPC   D2A36712  39.244  12.942   8.453
 2649POPC   C3A36713  39.488  12.833   8.154
 2649POPC   C4A36714  39.483  12.782   7.744
 2649POPC   C1B36715  38.944  12.779   8.830
 2649POPC   C2B36716  38.802  12.734   8.383
 2649POPC   C3B36717  39.002  12.837   7.982
 2649POPC   C4B36718  39.014  12.676   7.532
 2650POPC   NC336719  19.969   1.051   9.365
 2650POPC   PO436720  19.513   1.474   9.457
 2650POPC   GL136721  19.729   1.489   9.076
 2650POPC   GL236722  20.097   1.477   9.043
 2650POPC   C1A36723  19.682   1.635   8.685
 2650POPC   D2A36724  19.468   1.427   8.367
 2650POPC   C3A36725  19.558   1.373   7.926
 2650POPC   C4A36726  19.626   1.018   7.624
 2650POPC   C1B36727  19.970   1.188   8.713
 2650POPC   C2B36728  19.921   1.193   8.271
 2650POPC   C3B36729  20.050   1.221   7.845
 2650POPC   C4B36730  20.396   1.019   7.658
 2651POPC   NC336731  36.170  13.269   9.428
 2651POPC   PO436732  35.741  13.811   9.378
 2651POPC   GL136733  36.039  13.665   9.112
 2651POPC   GL236734  36.398  13.787   9.182
 2651POPC   C1A36735  35.980  13.673   8.683
 2651POPC   D2A36736  36.015  13.344   8.385
 2651POPC   C3A36737  35.930  13.550   8.034
 2651POPC   C4A36738  35.855  13.619   7.638
 2651POPC   C1B36739  36.440  13.493   8.826
 2651POPC   C2B36740  36.541  13.349   8.404
 2651POPC   C3B36741  36.434  13.458   7.999
 2651POPC   C4B36742  36.318  13.810   7.785
 2652POPC   NC336743  36.536  24.770   9.726
 2652POPC   PO436744  36.219  24.300   9.468
 2652POPC   GL136745  36.077  24.321   9.081
 2652POPC   GL236746  36.005  24.632   9.052
 2652POPC   C1A36747  36.159  24.124   8.712
 2652POPC   D2A36748  36.296  23.866   8.385
 2652POPC   C3A36749  36.350  24.105   7.979
 2652POPC   C4A36750  36.456  24.152   7.526
 2652POPC   C1B36751  35.816  24.550   8.673
 2652POPC   C2B36752  35.781  24.313   8.315
 2652POPC   C3B36753  35.935  24.509   7.966
 2652POPC   C4B36754  36.004  24.405   7.559
 2653POPC   NC336755   8.397  35.172   9.426
 2653POPC   PO436756   7.967  35.532   9.111
 2653POPC   GL136757   8.357  35.406   8.923
 2653POPC   GL236758   8.619  35.160   8.978
 2653POPC   C1A36759   8.438  35.431   8.492
 2653POPC   D2A36760   8.140  35.528   8.163
 2653POPC   C3A36761   8.235  35.283   7.839
 2653POPC   C4A36762   8.501  35.605   7.736
 2653POPC   C1B36763   8.355  34.927   8.692
 2653POPC   C2B36764   8.266  34.971   8.264
 2653POPC   C3B36765   8.386  34.796   7.897
 2653POPC   C4B36766   8.321  34.920   7.439
 2654POPC   NC336767  10.480   5.504   9.329
 2654POPC   PO436768  10.247   4.917   9.472
 2654POPC   GL136769  10.420   5.001   9.085
 2654POPC   GL236770  10.694   5.072   9.026
 2654POPC   C1A36771  10.376   5.173   8.658
 2654POPC   D2A36772  10.194   5.091   8.284
 2654POPC   C3A36773  10.375   5.127   7.903
 2654POPC   C4A36774  10.157   4.939   7.582
 2654POPC   C1B36775  10.847   5.368   8.693
 2654POPC   C2B36776  10.655   5.384   8.258
 2654POPC   C3B36777  10.884   5.214   7.875
 2654POPC   C4B36778  11.191   5.540   7.787
 2655POPC   NC336779  17.959  42.008   9.488
 2655POPC   PO436780  18.655  42.255   9.554
 2655POPC   GL136781  18.407  42.265   9.159
 2655POPC   GL236782  18.205  41.973   9.053
 2655POPC   C1A36783  18.454  42.533   8.791
 2655POPC   D2A36784  18.617  42.493   8.399
 2655POPC   C3A36785  18.443  42.266   8.038
 2655POPC   C4A36786  18.684  42.079   7.695
 2655POPC   C1B36787  18.007  42.293   8.805
 2655POPC   C2B36788  18.088  42.401   8.391
 2655POPC   C3B36789  17.976  42.083   8.061
 2655POPC   C4B36790  17.770  42.220   7.694
 2656POPC   NC336791  26.879  36.797   9.398
 2656POPC   PO436792  26.424  37.328   9.433
 2656POPC   GL136793  26.589  37.063   9.102
 2656POPC   GL236794  26.918  37.133   8.929
 2656POPC   C1A36795  26.536  36.851   8.744
 2656POPC   D2A36796  26.753  37.028   8.424
 2656POPC   C3A36797  26.612  36.875   8.067
 2656POPC   C4A36798  26.407  36.993   7.740
 2656POPC   C1B36799  27.050  36.738   8.771
 2656POPC   C2B36800  26.974  36.591   8.383
 2656POPC   C3B36801  27.118  36.820   8.069
 2656POPC   C4B36802  27.180  36.496   7.857
 2657POPC   NC336803  11.158  29.774   9.409
 2657POPC   PO436804  11.331  30.241   9.746
 2657POPC   GL136805  11.434  30.145   9.193
 2657POPC   GL236806  11.607  30.468   9.075
 2657POPC   C1A36807  11.328  29.874   8.773
 2657POPC   D2A36808  11.590  29.719   8.401
 2657POPC   C3A36809  11.439  29.754   7.944
 2657POPC   C4A36810  11.021  29.642   7.814
 2657POPC   C1B36811  11.329  30.374   8.668
 2657POPC   C2B36812  11.001  30.173   8.416
 2657POPC   C3B36813  11.090  30.153   7.976
 2657POPC   C4B36814  11.381  30.287   7.662
 2658POPC   NC336815   7.245   0.982   9.697
 2658POPC   PO436816   7.538   1.502   9.395
 2658POPC   GL136817   7.496   1.259   9.042
 2658POPC   GL236818   7.283   0.968   9.150
 2658POPC   C1A36819   7.795   1.104   8.735
 2658POPC   D2A36820   7.798   0.844   8.351
 2658POPC   C3A36821   7.676   1.105   7.987
 2658POPC   C4A36822   7.553   1.393   7.637
 2658POPC   C1B36823   7.012   0.952   8.783
 2658POPC   C2B36824   7.024   0.990   8.313
 2658POPC   C3B36825   7.151   1.235   7.941
 2658POPC   C4B36826   7.047   1.219   7.497
 2659POPC   NC336827  42.856  13.985   9.542
 2659POPC   PO436828  43.200  13.455   9.476
 2659POPC   GL136829  43.307  13.568   9.097
 2659POPC   GL236830  42.982  13.748   9.083
 2659POPC   C1A36831  43.187  13.422   8.706
 2659POPC   D2A36832  42.861  13.339   8.430
 2659POPC   C3A36833  43.017  13.420   8.052
 2659POPC   C4A36834  43.217  13.487   7.678
 2659POPC   C1B36835  42.857  13.913   8.704
 2659POPC   C2B36836  42.914  13.868   8.303
 2659POPC   C3B36837  43.094  13.923   7.937
 2659POPC   C4B36838  42.767  13.705   7.702
 2660POPC   NC336839  36.427  19.172   9.479
 2660POPC   PO436840  35.994  18.715   9.323
 2660POPC   GL136841  36.332  18.898   9.076
 2660POPC   GL236842  36.099  19.178   9.060
 2660POPC   C1A36843  36.549  19.237   8.820
 2660POPC   D2A36844  36.670  19.324   8.392
 2660POPC   C3A36845  36.371  19.084   8.145
 2660POPC   C4A36846  36.311  18.960   7.715
 2660POPC   C1B36847  36.112  19.004   8.629
 2660POPC   C2B36848  36.056  18.723   8.294
 2660POPC   C3B36849  35.863  18.777   7.871
 2660POPC   C4B36850  35.901  18.963   7.427
 2661POPC   NC336851  19.678   4.877   9.608
 2661POPC   PO436852  19.968   5.423   9.549
 2661POPC   GL136853  19.849   5.208   9.186
 2661POPC   GL236854  19.773   5.470   8.992
 2661POPC   C1A36855  19.633   5.032   8.794
 2661POPC   D2A36856  19.582   5.088   8.342
 2661POPC   C3A36857  19.974   4.968   8.141
 2661POPC   C4A36858  20.056   4.932   7.715
 2661POPC   C1B36859  19.746   5.515   8.579
 2661POPC   C2B36860  19.970   5.478   8.253
 2661POPC   C3B36861  19.793   5.376   7.895
 2661POPC   C4B36862  19.560   4.967   7.818
 2662POPC   NC336863  18.788  30.803   9.435
 2662POPC   PO436864  18.182  30.588   9.469
 2662POPC   GL136865  18.341  30.769   9.138
 2662POPC   GL236866  18.586  30.509   9.025
 2662POPC   C1A36867  18.155  30.666   8.750
 2662POPC   D2A36868  18.000  30.532   8.375
 2662POPC   C3A36869  18.271  30.728   8.070
 2662POPC   C4A36870  18.175  30.678   7.645
 2662POPC   C1B36871  18.675  30.878   8.766
 2662POPC   C2B36872  18.587  31.090   8.398
 2662POPC   C3B36873  18.679  31.065   7.991
 2662POPC   C4B36874  18.656  30.747   7.705
 2663POPC   NC336875  35.045  25.490   9.566
 2663POPC   PO436876  35.490  24.984   9.484
 2663POPC   GL136877  35.276  25.238   9.177
 2663POPC   GL236878  35.322  25.603   9.152
 2663POPC   C1A36879  35.104  25.274   8.789
 2663POPC   D2A36880  34.925  25.024   8.467
 2663POPC   C3A36881  35.134  25.107   8.103
 2663POPC   C4A36882  35.145  24.890   7.727
 2663POPC   C1B36883  35.575  25.487   8.790
 2663POPC   C2B36884  35.406  25.555   8.376
 2663POPC   C3B36885  35.474  25.466   7.942
 2663POPC   C4B36886  35.214  25.545   7.590
 2664POPC   NC336887  10.008   6.371   9.490
 2664POPC   PO436888  10.613   5.953   9.427
 2664POPC   GL136889  10.729   5.909   9.035
 2664POPC   GL236890  10.988   6.203   9.138
 2664POPC   C1A36891  10.449   5.678   8.704
 2664POPC   D2A36892  10.145   5.582   8.376
 2664POPC   C3A36893  10.232   5.669   7.959
 2664POPC   C4A36894  10.303   5.953   7.597
 2664POPC   C1B36895  10.920   6.266   8.710
 2664POPC   C2B36896  10.744   5.979   8.448
 2664POPC   C3B36897  10.576   6.023   8.066
 2664POPC   C4B36898  10.793   6.157   7.754
 2665POPC   NC336899  26.454  24.019   9.544
 2665POPC   PO436900  25.882  23.784   9.486
 2665POPC   GL136901  26.116  23.499   9.195
 2665POPC   GL236902  26.461  23.603   9.157
 2665POPC   C1A36903  26.175  23.360   8.751
 2665POPC   D2A36904  26.062  23.569   8.361
 2665POPC   C3A36905  26.091  23.431   7.936
 2665POPC   C4A36906  25.916  23.716   7.593
 2665POPC   C1B36907  26.297  23.878   8.804
 2665POPC   C2B36908  26.440  23.896   8.349
 2665POPC   C3B36909  26.428  23.813   7.868
 2665POPC   C4B36910  26.351  23.969   7.421
 2666POPC   NC336911  25.152  41.637   9.920
 2666POPC   PO436912  25.609  41.200   9.788
 2666POPC   GL136913  25.463  41.454   9.410
 2666POPC   GL236914  25.710  41.516   9.146
 2666POPC   C1A36915  25.217  41.504   8.986
 2666POPC   D2A36916  25.117  41.263   8.557
 2666POPC   C3A36917  25.146  41.337   8.072
 2666POPC   C4A36918  25.212  41.704   7.763
 2666POPC   C1B36919  25.592  41.247   8.765
 2666POPC   C2B36920  25.607  41.297   8.316
 2666POPC   C3B36921  25.611  41.371   7.854
 2666POPC   C4B36922  25.330  41.281   7.465
 2667POPC   NC336923  35.298   0.836   9.607
 2667POPC   PO436924  35.033   0.187   9.709
 2667POPC   GL136925  35.002   0.408   9.254
 2667POPC   GL236926  35.249   0.660   9.131
 2667POPC   C1A36927  35.022   0.414   8.761
 2667POPC   D2A36928  35.269   0.156   8.418
 2667POPC   C3A36929  35.400   0.354   8.017
 2667POPC   C4A36930  35.202   0.737   7.871
 2667POPC   C1B36931  35.523   0.504   8.771
 2667POPC   C2B36932  35.757   0.516   8.363
 2667POPC   C3B36933  35.865   0.720   7.944
 2667POPC   C4B36934  35.740   0.550   7.533
 2668POPC   NC336935   8.984  20.323   9.815
 2668POPC   PO436936   9.068  19.800   9.457
 2668POPC   GL136937   9.205  19.827   9.054
 2668POPC   GL236938   9.437  20.080   9.135
 2668POPC   C1A36939   8.967  19.749   8.659
 2668POPC   D2A36940   8.626  19.531   8.414
 2668POPC   C3A36941   8.715  19.636   7.990
 2668POPC   C4A36942   9.072  19.849   7.825
 2668POPC   C1B36943   9.384  20.104   8.676
 2668POPC   C2B36944   9.247  20.143   8.231
 2668POPC   C3B36945   9.493  20.141   7.835
 2668POPC   C4B36946   9.426  19.896   7.447
 2669POPC   NC336947  14.948  21.983   9.802
 2669POPC   PO436948  15.344  21.621   9.692
 2669POPC   GL136949  15.298  21.845   9.234
 2669POPC   GL236950  15.212  22.194   9.307
 2669POPC   C1A36951  15.187  21.882   8.717
 2669POPC   D2A36952  15.361  21.938   8.244
 2669POPC   C3A36953  15.088  22.021   7.850
 2669POPC   C4A36954  15.043  21.896   7.423
 2669POPC   C1B36955  15.368  22.332   8.888
 2669POPC   C2B36956  15.219  22.394   8.454
 2669POPC   C3B36957  15.362  22.413   8.016
 2669POPC   C4B36958  15.409  22.358   7.565
 2670POPC   NC336959  15.655  21.301   9.616
 2670POPC   PO436960  16.300  21.389   9.510
 2670POPC   GL136961  16.109  21.208   9.129
 2670POPC   GL236962  15.765  21.067   9.159
 2670POPC   C1A36963  15.840  21.411   8.766
 2670POPC   D2A36964  15.536  21.481   8.410
 2670POPC   C3A36965  15.729  21.507   7.987
 2670POPC   C4A36966  16.153  21.419   7.817
 2670POPC   C1B36967  15.923  20.920   8.741
 2670POPC   C2B36968  16.015  21.131   8.320
 2670POPC   C3B36969  15.872  21.005   7.914
 2670POPC   C4B36970  15.886  21.018   7.437
 2671POPC   NC336971  10.206  33.646   9.611
 2671POPC   PO436972   9.598  33.931   9.618
 2671POPC   GL136973   9.816  33.763   9.265
 2671POPC   GL236974   9.555  33.585   9.187
 2671POPC   C1A36975  10.016  33.824   8.857
 2671POPC   D2A36976  10.085  33.644   8.440
 2671POPC   C3A36977  10.012  33.888   8.060
 2671POPC   C4A36978   9.781  33.989   7.677
 2671POPC   C1B36979   9.611  33.492   8.769
 2671POPC   C2B36980   9.632  33.317   8.343
 2671POPC   C3B36981   9.673  33.524   7.936
 2671POPC   C4B36982   9.667  33.513   7.479
 2672POPC   NC336983  26.897  44.226   9.623
 2672POPC   PO436984  27.228  43.655   9.610
 2672POPC   GL136985  27.017  43.876   9.250
 2672POPC   GL236986  26.686  43.764   9.150
 2672POPC   C1A36987  26.964  44.022   8.798
 2672POPC   D2A36988  26.902  44.200   8.366
 2672POPC   C3A36989  26.839  43.947   7.999
 2672POPC   C4A36990  27.148  43.846   7.700
 2672POPC   C1B36991  26.950  43.527   8.858
 2672POPC   C2B36992  26.951  43.556   8.420
 2672POPC   C3B36993  26.946  43.449   7.997
 2672POPC   C4B36994  26.842  43.478   7.533
 2673POPC   NC336995   3.204   4.297   9.704
 2673POPC   PO436996   3.916   4.409   9.564
 2673POPC   GL136997   3.708   4.308   9.181
 2673POPC   GL236998   3.374   4.267   9.183
 2673POPC   C1A36999   3.639   4.205   8.739
 2673POPC   D2A37000   3.650   3.924   8.425
 2673POPC   C3A37001   3.625   4.182   8.100
 2673POPC   C4A37002   3.472   4.379   7.731
 2673POPC   C1B37003   3.165   4.095   8.800
 2673POPC   C2B37004   3.159   3.955   8.392
 2673POPC   C3B37005   3.125   4.099   7.988
 2673POPC   C4B37006   3.285   3.847   7.648
 2674POPC   NC337007  32.506  43.477   9.356
 2674POPC   PO437008  31.975  43.007   9.548
 2674POPC   GL137009  32.076  42.933   9.142
 2674POPC   GL237010  32.366  43.148   9.010
 2674POPC   C1A37011  31.963  43.000   8.717
 2674POPC   D2A37012  32.187  43.264   8.402
 2674POPC   C3A37013  32.038  43.146   8.006
 2674POPC   C4A37014  31.886  42.894   7.684
 2674POPC   C1B37015  32.562  43.482   8.694
 2674POPC   C2B37016  32.424  43.737   8.307
 2674POPC   C3B37017  32.261  43.600   7.883
 2674POPC   C4B37018  32.219  43.250   7.536
 2675POPC   NC337019  37.855  16.952   9.923
 2675POPC   PO437020  37.911  17.568   9.802
 2675POPC   GL137021  37.835  17.540   9.290
 2675POPC   GL237022  38.106  17.702   9.121
 2675POPC   C1A37023  37.569  17.520   8.853
 2675POPC   D2A37024  37.531  17.710   8.402
 2675POPC   C3A37025  37.425  17.528   7.984
 2675POPC   C4A37026  37.754  17.468   7.659
 2675POPC   C1B37027  37.991  17.786   8.724
 2675POPC   C2B37028  37.966  18.015   8.336
 2675POPC   C3B37029  37.794  17.894   7.957
 2675POPC   C4B37030  37.675  17.952   7.536
 2676POPC   NC337031  43.133   8.972   9.712
 2676POPC   PO437032  43.542   8.601   9.385
 2676POPC   GL137033  43.187   8.748   9.139
 2676POPC   GL237034  42.925   8.995   9.169
 2676POPC   C1A37035  43.167   8.953   8.731
 2676POPC   D2A37036  43.116   9.127   8.330
 2676POPC   C3A37037  43.194   8.832   8.011
 2676POPC   C4A37038  43.455   8.956   7.710
 2676POPC   C1B37039  42.759   8.648   8.852
 2676POPC   C2B37040  42.911   8.637   8.427
 2676POPC   C3B37041  42.727   8.628   8.036
 2676POPC   C4B37042  42.831   8.719   7.614
 2677POPC   NC337043  15.715  36.093   9.479
 2677POPC   PO437044  16.362  36.244   9.537
 2677POPC   GL137045  16.157  36.213   9.138
 2677POPC   GL237046  16.274  36.534   9.055
 2677POPC   C1A37047  15.982  35.937   8.787
 2677POPC   D2A37048  16.094  35.855   8.344
 2677POPC   C3A37049  15.778  35.815   7.994
 2677POPC   C4A37050  15.877  35.778   7.533
 2677POPC   C1B37051  16.115  36.407   8.645
 2677POPC   C2B37052  16.078  36.355   8.205
 2677POPC   C3B37053  15.892  36.390   7.830
 2677POPC   C4B37054  15.521  36.558   7.744
 2678POPC   NC337055  10.804  38.483   9.629
 2678POPC   PO437056  11.508  38.603   9.631
 2678POPC   GL137057  11.327  38.522   9.230
 2678POPC   GL237058  11.028  38.315   9.196
 2678POPC   C1A37059  11.208  38.627   8.812
 2678POPC   D2A37060  11.032  38.555   8.413
 2678POPC   C3A37061  11.313  38.527   8.059
 2678POPC   C4A37062  11.573  38.347   7.736
 2678POPC   C1B37063  11.031  38.123   8.793
 2678POPC   C2B37064  10.941  38.011   8.374
 2678POPC   C3B37065  10.860  38.277   8.028
 2678POPC   C4B37066  10.883  38.753   7.928
 2679POPC   NC337067  25.232  14.527   9.537
 2679POPC   PO437068  25.334  13.985   9.212
 2679POPC   GL137069  25.044  14.181   8.945
 2679POPC   GL237070  25.013  14.522   9.049
 2679POPC   C1A37071  25.051  14.282   8.518
 2679POPC   D2A37072  24.936  14.556   8.208
 2679POPC   C3A37073  25.035  14.451   7.809
 2679POPC   C4A37074  25.394  14.323   7.636
 2679POPC   C1B37075  25.402  14.567   8.792
 2679POPC   C2B37076  25.404  14.751   8.358
 2679POPC   C3B37077  25.440  14.757   7.903
 2679POPC   C4B37078  25.250  14.765   7.460
 2680POPC   NC337079  38.253  12.328   9.518
 2680POPC   PO437080  38.363  13.054   9.492
 2680POPC   GL137081  38.444  12.982   9.093
 2680POPC   GL237082  38.209  12.698   9.146
 2680POPC   C1A37083  38.630  13.141   8.677
 2680POPC   D2A37084  38.857  13.249   8.292
 2680POPC   C3A37085  38.548  13.053   8.046
 2680POPC   C4A37086  38.180  13.152   7.855
 2680POPC   C1B37087  38.457  12.635   8.749
 2680POPC   C2B37088  38.284  12.738   8.399
 2680POPC   C3B37089  38.227  12.640   8.004
 2680POPC   C4B37090  38.574  12.459   7.798
 2681POPC   NC337091   0.763  32.971   9.914
 2681POPC   PO437092   0.195  32.729   9.549
 2681POPC   GL137093   0.220  32.837   9.133
 2681POPC   GL237094   0.238  33.195   9.253
 2681POPC   C1A37095   0.174  32.766   8.671
 2681POPC   D2A37096   0.171  32.951   8.251
 2681POPC   C3A37097   0.383  32.807   7.833
 2681POPC   C4A37098   0.545  32.807   7.379
 2681POPC   C1B37099   0.395  33.208   8.839
 2681POPC   C2B37100   0.373  33.370   8.435
 2681POPC   C3B37101   0.543  33.256   8.032
 2681POPC   C4B37102   0.379  33.253   7.592
 2682POPC   NC337103   4.778  38.062   9.583
 2682POPC   PO437104   5.258  38.514   9.506
 2682POPC   GL137105   5.180  38.631   9.107
 2682POPC   GL237106   5.498  38.719   8.984
 2682POPC   C1A37107   5.155  38.433   8.711
 2682POPC   D2A37108   4.900  38.230   8.444
 2682POPC   C3A37109   5.066  38.304   8.075
 2682POPC   C4A37110   5.051  38.593   7.799
 2682POPC   C1B37111   5.296  38.915   8.644
 2682POPC   C2B37112   5.286  38.785   8.235
 2682POPC   C3B37113   5.541  38.947   7.956
 2682POPC   C4B37114   5.443  38.801   7.577
 2683POPC   NC337115  14.367  20.217   9.552
 2683POPC   PO437116  14.510  19.560   9.422
 2683POPC   GL137117  14.514  19.645   9.016
 2683POPC   GL237118  14.830  19.589   8.978
 2683POPC   C1A37119  14.245  19.784   8.668
 2683POPC   D2A37120  14.149  19.934   8.282
 2683POPC   C3A37121  14.480  20.062   8.028
 2683POPC   C4A37122  14.439  20.017   7.576
 2683POPC   C1B37123  14.731  19.675   8.540
 2683POPC   C2B37124  14.374  19.487   8.280
 2683POPC   C3B37125  14.263  19.610   7.900
 2683POPC   C4B37126  14.690  19.621   7.806
 2684POPC   NC337127   0.275  28.876   9.514
 2684POPC   PO437128   0.681  29.327   9.373
 2684POPC   GL137129   0.408  29.150   9.095
 2684POPC   GL237130   0.553  28.842   9.085
 2684POPC   C1A37131   0.425  29.151   8.674
 2684POPC   D2A37132   0.237  29.321   8.344
 2684POPC   C3A37133   0.533  29.446   8.060
 2684POPC   C4A37134   0.553  29.326   7.641
 2684POPC   C1B37135   0.826  28.848   8.753
 2684POPC   C2B37136   0.695  28.876   8.350
 2684POPC   C3B37137   0.832  28.698   7.974
 2684POPC   C4B37138   0.768  28.879   7.583
 2685POPC   NC337139  43.435   9.876   9.684
 2685POPC   PO437140  42.931   9.373   9.560
 2685POPC   GL137141  43.085   9.649   9.247
 2685POPC   GL237142  43.252   9.974   9.219
 2685POPC   C1A37143  42.909   9.787   8.836
 2685POPC   D2A37144  42.838   9.542   8.470
 2685POPC   C3A37145  43.018   9.640   8.074
 2685POPC   C4A37146  43.190   9.395   7.757
 2685POPC   C1B37147  43.418   9.683   8.881
 2685POPC   C2B37148  43.474   9.791   8.470
 2685POPC   C3B37149  43.559   9.602   8.085
 2685POPC   C4B37150  43.476   9.819   7.720
 2686POPC   NC337151  44.331   0.232   9.416
 2686POPC   PO437152  44.941   0.590   9.423
 2686POPC   GL137153  44.596   0.608   9.175
 2686POPC   GL237154  44.365   0.925   9.168
 2686POPC   C1A37155  44.679   0.350   8.797
 2686POPC   D2A37156  44.798   0.182   8.406
 2686POPC   C3A37157  44.650   0.388   8.049
 2686POPC   C4A37158  44.895   0.348   7.730
 2686POPC   C1B37159  44.277   0.656   8.787
 2686POPC   C2B37160  44.447   0.765   8.381
 2686POPC   C3B37161  44.343   0.806   7.953
 2686POPC   C4B37162  44.469   0.616   7.581
 2687POPC   NC337163  43.641  15.551   9.450
 2687POPC   PO437164  43.735  16.197   9.601
 2687POPC   GL137165  43.747  16.221   9.167
 2687POPC   GL237166  43.614  15.909   9.114
 2687POPC   C1A37167  43.947  16.116   8.757
 2687POPC   D2A37168  44.140  16.289   8.397
 2687POPC   C3A37169  43.922  16.202   8.010
 2687POPC   C4A37170  43.913  16.181   7.568
 2687POPC   C1B37171  43.555  15.550   8.814
 2687POPC   C2B37172  43.551  15.523   8.406
 2687POPC   C3B37173  43.861  15.706   8.161
 2687POPC   C4B37174  43.934  15.728   7.771
 2688POPC   NC337175  27.662  19.197   9.489
 2688POPC   PO437176  27.250  18.660   9.563
 2688POPC   GL137177  27.414  18.880   9.172
 2688POPC   GL237178  27.773  18.845   9.083
 2688POPC   C1A37179  27.436  18.950   8.714
 2688POPC   D2A37180  27.570  18.917   8.262
 2688POPC   C3A37181  27.360  19.085   7.858
 2688POPC   C4A37182  27.334  18.839   7.462
 2688POPC   C1B37183  27.958  19.016   8.724
 2688POPC   C2B37184  27.947  19.265   8.345
 2688POPC   C3B37185  27.868  19.188   7.933
 2688POPC   C4B37186  27.949  18.847   7.678
 2689POPC   NC337187   4.511  26.230   9.503
 2689POPC   PO437188   4.115  25.640   9.531
 2689POPC   GL137189   4.261  25.891   9.194
 2689POPC   GL237190   4.225  26.262   9.089
 2689POPC   C1A37191   4.517  25.894   8.854
 2689POPC   D2A37192   4.614  25.939   8.450
 2689POPC   C3A37193   4.410  25.721   8.133
 2689POPC   C4A37194   4.276  25.859   7.721
 2689POPC   C1B37195   4.539  26.433   8.792
 2689POPC   C2B37196   4.575  26.528   8.340
 2689POPC   C3B37197   4.534  26.229   7.986
 2689POPC   C4B37198   4.430  26.321   7.519
 2690POPC   NC337199  32.106  23.849   9.651
 2690POPC   PO437200  32.584  24.169   9.256
 2690POPC   GL137201  32.113  23.943   9.133
 2690POPC   GL237202  31.972  23.583   9.045
 2690POPC   C1A37203  32.163  23.888   8.687
 2690POPC   D2A37204  32.388  23.991   8.327
 2690POPC   C3A37205  32.277  23.645   8.083
 2690POPC   C4A37206  32.427  23.545   7.704
 2690POPC   C1B37207  31.673  23.893   8.837
 2690POPC   C2B37208  31.757  24.081   8.421
 2690POPC   C3B37209  31.944  24.043   8.028
 2690POPC   C4B37210  31.975  23.751   7.672
 2691POPC   NC337211  17.450  36.322   9.512
 2691POPC   PO437212  16.954  35.902   9.447
 2691POPC   GL137213  17.370  35.952   9.151
 2691POPC   GL237214  17.619  36.215   9.075
 2691POPC   C1A37215  17.622  35.817   8.785
 2691POPC   D2A37216  17.513  35.718   8.370
 2691POPC   C3A37217  17.306  35.989   8.131
 2691POPC   C4A37218  17.459  35.986   7.754
 2691POPC   C1B37219  17.654  36.468   8.741
 2691POPC   C2B37220  17.907  36.434   8.413
 2691POPC   C3B37221  17.800  36.161   8.122
 2691POPC   C4B37222  17.924  36.191   7.735
 2692POPC   NC337223  35.295  13.746   9.513
 2692POPC   PO437224  34.970  13.161   9.453
 2692POPC   GL137225  35.228  13.291   9.138
 2692POPC   GL237226  35.563  13.375   9.188
 2692POPC   C1A37227  35.218  13.535   8.782
 2692POPC   D2A37228  35.079  13.489   8.352
 2692POPC   C3A37229  35.412  13.623   8.101
 2692POPC   C4A37230  35.497  13.934   7.804
 2692POPC   C1B37231  35.637  13.243   8.755
 2692POPC   C2B37232  35.489  13.144   8.327
 2692POPC   C3B37233  35.595  13.194   7.885
 2692POPC   C4B37234  35.372  13.478   7.587
 2693POPC   NC337235  21.121   5.819   9.453
 2693POPC   PO437236  21.799   6.018   9.456
 2693POPC   GL137237  21.499   5.902   9.138
 2693POPC   GL237238  21.295   6.159   8.969
 2693POPC   C1A37239  21.284   5.710   8.770
 2693POPC   D2A37240  21.282   6.020   8.443
 2693POPC   C3A37241  21.212   5.793   8.080
 2693POPC   C4A37242  21.428   5.552   7.785
 2693POPC   C1B37243  21.660   6.312   8.730
 2693POPC   C2B37244  21.806   6.142   8.323
 2693POPC   C3B37245  21.695   6.070   7.893
 2693POPC   C4B37246  21.704   6.277   7.478
 2694POPC   NC337247  12.984  31.076   9.373
 2694POPC   PO437248  12.616  30.474   9.553
 2694POPC   GL137249  12.724  30.677   9.143
 2694POPC   GL237250  12.625  31.012   9.032
 2694POPC   C1A37251  12.557  30.619   8.743
 2694POPC   D2A37252  12.609  30.842   8.390
 2694POPC   C3A37253  12.799  30.545   8.181
 2694POPC   C4A37254  12.584  30.270   7.914
 2694POPC   C1B37255  12.991  30.894   8.739
 2694POPC   C2B37256  13.140  30.967   8.333
 2694POPC   C3B37257  13.087  30.866   7.896
 2694POPC   C4B37258  12.697  30.742   7.712
 2695POPC   NC337259   6.862  11.567   9.465
 2695POPC   PO437260   6.317  11.264   9.547
 2695POPC   GL137261   6.551  11.291   9.168
 2695POPC   GL237262   6.634  10.956   9.176
 2695POPC   C1A37263   6.807  11.460   8.827
 2695POPC   D2A37264   6.744  11.603   8.437
 2695POPC   C3A37265   6.485  11.356   8.210
 2695POPC   C4A37266   6.456  11.445   7.798
 2695POPC   C1B37267   6.890  10.942   8.784
 2695POPC   C2B37268   6.933  11.099   8.338
 2695POPC   C3B37269   6.731  10.995   7.948
 2695POPC   C4B37270   6.327  10.936   7.750
 2696POPC   NC337271  13.854  12.676   9.369
 2696POPC   PO437272  13.338  13.015   9.554
 2696POPC   GL137273  13.330  12.950   9.137
 2696POPC   GL237274  13.466  12.609   9.022
 2696POPC   C1A37275  13.255  12.935   8.685
 2696POPC   D2A37276  13.607  12.898   8.443
 2696POPC   C3A37277  13.584  12.743   8.065
 2696POPC   C4A37278  13.350  12.820   7.743
 2696POPC   C1B37279  13.853  12.551   8.750
 2696POPC   C2B37280  14.077  12.696   8.385
 2696POPC   C3B37281  14.006  13.030   8.085
 2696POPC   C4B37282  13.840  12.986   7.685
 2697POPC   NC337283  18.472  12.007   9.501
 2697POPC   PO437284  17.919  11.868   9.621
 2697POPC   GL137285  18.088  11.885   9.154
 2697POPC   GL237286  18.452  11.887   9.012
 2697POPC   C1A37287  18.057  11.858   8.674
 2697POPC   D2A37288  18.263  11.807   8.257
 2697POPC   C3A37289  18.077  11.953   7.863
 2697POPC   C4A37290  17.942  11.841   7.439
 2697POPC   C1B37291  18.453  12.213   8.676
 2697POPC   C2B37292  18.554  12.233   8.220
 2697POPC   C3B37293  18.608  11.907   7.864
 2697POPC   C4B37294  18.714  11.750   7.426
 2698POPC   NC337295  44.436  32.750   9.449
 2698POPC   PO437296  44.515  33.449   9.490
 2698POPC   GL137297  44.478  33.269   9.081
 2698POPC   GL237298  44.765  33.088   9.108
 2698POPC   C1A37299  44.488  32.946   8.702
 2698POPC   D2A37300  44.698  32.729   8.317
 2698POPC   C3A37301  44.465  32.833   7.915
 2698POPC   C4A37302  44.463  33.286   7.721
 2698POPC   C1B37303  44.904  33.258   8.688
 2698POPC   C2B37304  44.775  33.294   8.236
 2698POPC   C3B37305  44.911  33.061   7.848
 2698POPC   C4B37306  44.928  32.588   7.852
 2699POPC   NC337307  25.368   2.544   9.571
 2699POPC   PO437308  24.943   3.039   9.512
 2699POPC   GL137309  25.139   2.802   9.150
 2699POPC   GL237310  25.494   2.717   9.115
 2699POPC   C1A37311  24.958   2.661   8.744
 2699POPC   D2A37312  24.921   2.952   8.425
 2699POPC   C3A37313  25.140   2.882   8.075
 2699POPC   C4A37314  24.951   2.655   7.727
 2699POPC   C1B37315  25.440   2.833   8.679
 2699POPC   C2B37316  25.636   2.730   8.287
 2699POPC   C3B37317  25.465   2.545   7.892
 2699POPC   C4B37318  25.575   2.964   7.755
 2700POPC   NC337319  38.500   3.653   9.674
 2700POPC   PO437320  38.502   3.009   9.583
 2700POPC   GL137321  38.452   3.396   9.235
 2700POPC   GL237322  38.602   3.784   9.203
 2700POPC   C1A37323  38.318   3.584   8.830
 2700POPC   D2A37324  38.117   3.376   8.486
 2700POPC   C3A37325  38.296   3.331   8.091
 2700POPC   C4A37326  38.336   3.143   7.681
 2700POPC   C1B37327  38.822   3.844   8.811
 2700POPC   C2B37328  38.610   3.891   8.422
 2700POPC   C3B37329  38.580   3.806   7.984
 2700POPC   C4B37330  38.256   3.677   7.698
 2701POPC   NC337331   1.683  14.057   9.320
 2701POPC   PO437332   2.242  13.675   9.450
 2701POPC   GL137333   2.058  13.635   9.080
 2701POPC   GL237334   1.737  13.493   9.147
 2701POPC   C1A37335   2.131  13.503   8.658
 2701POPC   D2A37336   1.952  13.170   8.413
 2701POPC   C3A37337   2.010  13.382   8.012
 2701POPC   C4A37338   2.193  13.527   7.634
 2701POPC   C1B37339   1.678  13.689   8.750
 2701POPC   C2B37340   1.845  13.768   8.311
 2701POPC   C3B37341   1.828  13.843   7.834
 2701POPC   C4B37342   1.515  13.845   7.484
 2702POPC   NC337343  15.282  38.931   9.580
 2702POPC   PO437344  14.836  39.371   9.522
 2702POPC   GL137345  14.954  39.064   9.197
 2702POPC   GL237346  15.323  39.113   9.113
 2702POPC   C1A37347  14.954  39.127   8.763
 2702POPC   D2A37348  15.213  39.133   8.427
 2702POPC   C3A37349  14.984  39.243   8.084
 2702POPC   C4A37350  15.117  39.459   7.709
 2702POPC   C1B37351  15.416  38.798   8.818
 2702POPC   C2B37352  15.570  38.764   8.409
 2702POPC   C3B37353  15.515  38.970   8.035
 2702POPC   C4B37354  15.222  38.972   7.726
 2703POPC   NC337355  33.344   2.254   9.588
 2703POPC   PO437356  32.990   1.711   9.554
 2703POPC   GL137357  32.946   2.028   9.200
 2703POPC   GL237358  33.261   2.206   9.107
 2703POPC   C1A37359  32.939   1.902   8.744
 2703POPC   D2A37360  32.755   1.942   8.339
 2703POPC   C3A37361  32.760   1.754   7.932
 2703POPC   C4A37362  32.877   2.164   7.757
 2703POPC   C1B37363  33.428   1.936   8.820
 2703POPC   C2B37364  33.330   1.681   8.458
 2703POPC   C3B37365  33.235   1.880   8.078
 2703POPC   C4B37366  33.404   2.165   7.794
 2704POPC   NC337367  30.277  43.777   9.397
 2704POPC   PO437368  30.521  44.256   9.661
 2704POPC   GL137369  30.756  44.112   9.308
 2704POPC   GL237370  30.458  44.199   9.142
 2704POPC   C1A37371  30.882  43.930   8.874
 2704POPC   D2A37372  30.968  44.024   8.418
 2704POPC   C3A37373  30.847  43.760   8.051
 2704POPC   C4A37374  30.904  43.826   7.605
 2704POPC   C1B37375  30.497  44.242   8.725
 2704POPC   C2B37376  30.473  43.939   8.424
 2704POPC   C3B37377  30.323  43.807   8.065
 2704POPC   C4B37378  30.303  43.941   7.643
 2705POPC   NC337379   3.282  36.023   9.477
 2705POPC   PO437380   3.715  36.544   9.685
 2705POPC   GL137381   3.717  36.279   9.245
 2705POPC   GL237382   3.427  36.177   9.016
 2705POPC   C1A37383   3.873  36.102   8.847
 2705POPC   D2A37384   3.594  36.114   8.484
 2705POPC   C3A37385   3.707  35.839   8.127
 2705POPC   C4A37386   3.642  36.035   7.737
 2705POPC   C1B37387   3.434  35.745   8.827
 2705POPC   C2B37388   3.279  35.701   8.403
 2705POPC   C3B37389   3.220  35.971   8.033
 2705POPC   C4B37390   3.162  36.256   7.692
 2706POPC   NC337391  44.978  28.406   9.578
 2706POPC   PO437392   0.604  28.541   9.496
 2706POPC   GL137393   0.373  28.346   9.199
 2706POPC   GL237394   0.116  28.574   9.113
 2706POPC   C1A37395   0.485  28.235   8.800
 2706POPC   D2A37396   0.558  28.406   8.400
 2706POPC   C3A37397   0.307  28.423   8.037
 2706POPC   C4A37398   0.500  28.461   7.669
 2706POPC   C1B37399   0.241  28.675   8.720
 2706POPC   C2B37400   0.125  28.814   8.336
 2706POPC   C3B37401   0.360  28.938   7.970
 2706POPC   C4B37402   0.246  28.898   7.560
 2707POPC   NC337403   1.830  22.381   9.641
 2707POPC   PO437404   2.167  22.964   9.569
 2707POPC   GL137405   2.045  22.902   9.146
 2707POPC   GL237406   1.885  23.198   9.041
 2707POPC   C1A37407   2.239  23.013   8.750
 2707POPC   D2A37408   2.069  23.207   8.366
 2707POPC   C3A37409   2.073  22.934   8.015
 2707POPC   C4A37410   2.198  22.968   7.560
 2707POPC   C1B37411   1.747  22.954   8.674
 2707POPC   C2B37412   1.538  22.974   8.291
 2707POPC   C3B37413   1.582  22.909   7.842
 2707POPC   C4B37414   1.675  23.029   7.432
 2708POPC   NC337415  23.977  24.813   9.401
 2708POPC   PO437416  23.573  24.378   9.696
 2708POPC   GL137417  23.609  24.441   9.232
 2708POPC   GL237418  23.471  24.766   9.251
 2708POPC   C1A37419  23.761  24.286   8.797
 2708POPC   D2A37420  23.742  24.049   8.391
 2708POPC   C3A37421  23.865  24.345   8.093
 2708POPC   C4A37422  23.880  24.442   7.705
 2708POPC   C1B37423  23.604  24.805   8.826
 2708POPC   C2B37424  23.734  25.054   8.479
 2708POPC   C3B37425  23.644  24.864   8.083
 2708POPC   C4B37426  23.735  24.937   7.676
 2709POPC   NC337427  44.147  11.192   9.967
 2709POPC   PO437428  43.499  11.082   9.730
 2709POPC   GL137429  43.687  11.191   9.295
 2709POPC   GL237430  43.874  11.530   9.240
 2709POPC   C1A37431  43.948  11.129   8.898
 2709POPC   D2A37432  43.963  11.293   8.469
 2709POPC   C3A37433  43.918  11.067   8.085
 2709POPC   C4A37434  43.729  11.129   7.652
 2709POPC   C1B37435  43.686  11.572   8.828
 2709POPC   C2B37436  43.442  11.416   8.478
 2709POPC   C3B37437  43.613  11.507   8.064
 2709POPC   C4B37438  43.798  11.617   7.693
 2710POPC   NC337439   2.690  13.910   9.464
 2710POPC   PO437440   3.217  13.563   9.637
 2710POPC   GL137441   2.903  13.455   9.282
 2710POPC   GL237442   2.586  13.584   9.079
 2710POPC   C1A37443   3.008  13.485   8.828
 2710POPC   D2A37444   2.765  13.632   8.487
 2710POPC   C3A37445   2.934  13.640   8.068
 2710POPC   C4A37446   2.706  13.520   7.708
 2710POPC   C1B37447   2.406  13.911   8.788
 2710POPC   C2B37448   2.293  14.088   8.371
 2710POPC   C3B37449   2.365  13.882   7.968
 2710POPC   C4B37450   2.494  13.963   7.526
 2711POPC   NC337451  36.419  43.232   9.402
 2711POPC   PO437452  35.991  42.770   9.460
 2711POPC   GL137453  35.971  43.064   9.124
 2711POPC   GL237454  35.868  43.455   9.191
 2711POPC   C1A37455  36.055  42.869   8.707
 2711POPC   D2A37456  36.272  42.902   8.330
 2711POPC   C3A37457  36.213  43.193   8.028
 2711POPC   C4A37458  36.204  43.053   7.640
 2711POPC   C1B37459  36.016  43.404   8.750
 2711POPC   C2B37460  36.378  43.422   8.459
 2711POPC   C3B37461  36.437  43.647   8.040
 2711POPC   C4B37462  36.419  43.524   7.610
 2712POPC   NC337463   8.227  30.588   9.499
 2712POPC   PO437464   8.661  31.075   9.314
 2712POPC   GL137465   8.292  30.920   9.056
 2712POPC   GL237466   7.940  30.801   9.092
 2712POPC   C1A37467   8.172  30.925   8.643
 2712POPC   D2A37468   8.350  30.686   8.297
 2712POPC   C3A37469   8.192  30.868   7.943
 2712POPC   C4A37470   8.094  30.710   7.562
 2712POPC   C1B37471   7.775  30.591   8.706
 2712POPC   C2B37472   7.665  30.494   8.284
 2712POPC   C3B37473   7.661  30.620   7.848
 2712POPC   C4B37474   7.717  30.365   7.499
 2713POPC   NC337475   4.957  23.336   9.574
 2713POPC   PO437476   5.424  23.768   9.346
 2713POPC   GL137477   5.117  23.505   9.137
 2713POPC   GL237478   5.332  23.246   9.052
 2713POPC   C1A37479   4.929  23.319   8.759
 2713POPC   D2A37480   4.941  23.596   8.388
 2713POPC   C3A37481   4.941  23.530   7.963
 2713POPC   C4A37482   4.912  23.813   7.639
 2713POPC   C1B37483   5.378  23.597   8.720
 2713POPC   C2B37484   5.371  23.917   8.394
 2713POPC   C3B37485   5.303  23.912   7.952
 2713POPC   C4B37486   5.442  23.499   7.781
 2714POPC   NC337487   2.234  35.488   9.489
 2714POPC   PO437488   1.656  35.146   9.593
 2714POPC   GL137489   1.930  35.153   9.204
 2714POPC   GL237490   1.992  35.484   9.048
 2714POPC   C1A37491   2.075  35.053   8.767
 2714POPC   D2A37492   1.901  34.845   8.425
 2714POPC   C3A37493   2.132  34.870   8.071
 2714POPC   C4A37494   1.983  34.989   7.659
 2714POPC   C1B37495   1.913  35.659   8.644
 2714POPC   C2B37496   1.886  35.694   8.187
 2714POPC   C3B37497   1.960  35.636   7.756
 2714POPC   C4B37498   2.358  35.701   7.532
 2715POPC   NC337499  28.756  41.911   9.607
 2715POPC   PO437500  29.305  41.499   9.525
 2715POPC   GL137501  29.181  41.595   9.139
 2715POPC   GL237502  28.805  41.680   9.115
 2715POPC   C1A37503  29.400  41.558   8.760
 2715POPC   D2A37504  29.272  41.427   8.364
 2715POPC   C3A37505  29.496  41.587   8.013
 2715POPC   C4A37506  29.356  41.666   7.578
 2715POPC   C1B37507  28.887  41.454   8.714
 2715POPC   C2B37508  28.755  41.337   8.250
 2715POPC   C3B37509  28.834  41.416   7.786
 2715POPC   C4B37510  28.801  41.154   7.383
 2716POPC   NC337511  25.456  24.906   9.444
 2716POPC   PO437512  25.009  24.271   9.474
 2716POPC   GL137513  25.177  24.534   9.160
 2716POPC   GL237514  25.091  24.887   9.093
 2716POPC   C1A37515  25.409  24.370   8.831
 2716POPC   D2A37516  25.458  24.312   8.411
 2716POPC   C3A37517  25.355  24.292   8.002
 2716POPC   C4A37518  25.545  24.487   7.643
 2716POPC   C1B37519  25.106  24.743   8.677
 2716POPC   C2B37520  25.027  24.575   8.284
 2716POPC   C3B37521  24.868  24.729   7.896
 2716POPC   C4B37522  25.053  25.073   7.710
 2717POPC   NC337523  26.579  36.107   9.375
 2717POPC   PO437524  27.155  36.418   9.423
 2717POPC   GL137525  26.931  36.349   9.087
 2717POPC   GL237526  26.992  36.010   9.039
 2717POPC   C1A37527  26.669  36.350   8.733
 2717POPC   D2A37528  26.491  36.193   8.359
 2717POPC   C3A37529  26.676  36.366   8.000
 2717POPC   C4A37530  26.722  36.181   7.607
 2717POPC   C1B37531  26.716  35.840   8.714
 2717POPC   C2B37532  26.647  35.707   8.262
 2717POPC   C3B37533  26.684  35.679   7.783
 2717POPC   C4B37534  26.588  35.771   7.310
 2718POPC   NC337535  36.546   2.168   9.475
 2718POPC   PO437536  37.033   1.743   9.500
 2718POPC   GL137537  36.912   1.947   9.141
 2718POPC   GL237538  36.888   2.258   9.116
 2718POPC   C1A37539  37.149   1.967   8.748
 2718POPC   D2A37540  37.340   1.986   8.319
 2718POPC   C3A37541  37.109   1.719   8.045
 2718POPC   C4A37542  36.709   1.809   7.908
 2718POPC   C1B37543  36.639   2.106   8.741
 2718POPC   C2B37544  36.830   2.083   8.328
 2718POPC   C3B37545  37.059   2.293   7.990
 2718POPC   C4B37546  37.063   2.418   7.547
 2719POPC   NC337547  11.838   8.862   9.513
 2719POPC   PO437548  12.512   9.078   9.510
 2719POPC   GL137549  12.237   8.938   9.201
 2719POPC   GL237550  12.008   9.184   9.149
 2719POPC   C1A37551  11.980   8.776   8.869
 2719POPC   D2A37552  12.198   8.762   8.482
 2719POPC   C3A37553  12.040   8.927   8.117
 2719POPC   C4A37554  11.842   8.719   7.789
 2719POPC   C1B37555  12.087   9.244   8.704
 2719POPC   C2B37556  12.188   9.555   8.418
 2719POPC   C3B37557  12.128   9.423   8.012
 2719POPC   C4B37558  12.116   9.310   7.579
 2720POPC   NC337559  43.908  32.388   9.651
 2720POPC   PO437560  43.434  32.264   9.251
 2720POPC   GL137561  43.817  32.385   9.111
 2720POPC   GL237562  44.030  32.116   9.230
 2720POPC   C1A37563  43.889  32.489   8.658
 2720POPC   D2A37564  43.787  32.352   8.214
 2720POPC   C3A37565  44.016  32.542   7.810
 2720POPC   C4A37566  44.177  32.586   7.334
 2720POPC   C1B37567  44.036  32.003   8.796
 2720POPC   C2B37568  44.214  31.827   8.417
 2720POPC   C3B37569  44.067  31.940   8.034
 2720POPC   C4B37570  43.756  32.093   7.781
 2721POPC   NC337571   8.199  18.701   9.528
 2721POPC   PO437572   8.258  19.231   9.602
 2721POPC   GL137573   8.227  19.285   9.163
 2721POPC   GL237574   8.048  18.977   9.100
 2721POPC   C1A37575   8.220  19.527   8.767
 2721POPC   D2A37576   7.999  19.455   8.375
 2721POPC   C3A37577   8.244  19.421   8.001
 2721POPC   C4A37578   8.168  19.355   7.573
 2721POPC   C1B37579   8.120  19.033   8.661
 2721POPC   C2B37580   8.398  19.050   8.307
 2721POPC   C3B37581   8.345  18.936   7.845
 2721POPC   C4B37582   8.415  18.917   7.377
 2722POPC   NC337583  38.958  33.841   9.566
 2722POPC   PO437584  38.373  34.113   9.469
 2722POPC   GL137585  38.653  33.928   9.134
 2722POPC   GL237586  38.785  33.587   9.119
 2722POPC   C1A37587  38.563  33.822   8.711
 2722POPC   D2A37588  38.552  33.614   8.324
 2722POPC   C3A37589  38.473  33.778   7.891
 2722POPC   C4A37590  38.154  33.837   7.540
 2722POPC   C1B37591  39.037  33.608   8.735
 2722POPC   C2B37592  39.047  33.421   8.324
 2722POPC   C3B37593  38.770  33.345   7.968
 2722POPC   C4B37594  38.815  33.534   7.573
 2723POPC   NC337595  11.427  39.024   9.442
 2723POPC   PO437596  11.610  39.635   9.622
 2723POPC   GL137597  11.561  39.449   9.135
 2723POPC   GL237598  11.254  39.338   9.041
 2723POPC   C1A37599  11.607  39.189   8.721
 2723POPC   D2A37600  11.238  39.035   8.483
 2723POPC   C3A37601  11.267  39.053   8.054
 2723POPC   C4A37602  11.447  39.249   7.708
 2723POPC   C1B37603  10.935  39.335   8.756
 2723POPC   C2B37604  10.842  39.427   8.355
 2723POPC   C3B37605  10.927  39.459   7.942
 2723POPC   C4B37606  10.938  39.174   7.642
 2724POPC   NC337607  43.536  28.067   9.412
 2724POPC   PO437608  44.267  27.993   9.533
 2724POPC   GL137609  44.167  28.203   9.150
 2724POPC   GL237610  43.818  28.194   8.999
 2724POPC   C1A37611  44.240  28.342   8.727
 2724POPC   D2A37612  43.941  28.178   8.415
 2724POPC   C3A37613  44.036  28.260   7.972
 2724POPC   C4A37614  44.064  28.486   7.564
 2724POPC   C1B37615  43.680  28.535   8.690
 2724POPC   C2B37616  43.627  28.556   8.245
 2724POPC   C3B37617  43.536  28.207   7.978
 2724POPC   C4B37618  43.712  28.139   7.553
 2725POPC   NC337619  44.208  39.868   9.530
 2725POPC   PO437620  44.789  39.609   9.353
 2725POPC   GL137621  44.592  39.946   9.082
 2725POPC   GL237622  44.232  40.108   9.072
 2725POPC   C1A37623  44.683  40.230   8.758
 2725POPC   D2A37624  44.953  40.347   8.395
 2725POPC   C3A37625  44.784  40.225   7.982
 2725POPC   C4A37626  44.706  40.072   7.546
 2725POPC   C1B37627  44.301  39.902   8.671
 2725POPC   C2B37628  44.588  39.912   8.351
 2725POPC   C3B37629  44.456  39.844   7.948
 2725POPC   C4B37630  44.267  39.818   7.526
 2726POPC   NC337631   1.604  39.228  10.012
 2726POPC   PO437632   2.143  38.959   9.651
 2726POPC   GL137633   1.940  39.101   9.259
 2726POPC   GL237634   1.836  39.439   9.386
 2726POPC   C1A37635   2.092  39.072   8.793
 2726POPC   D2A37636   2.212  39.278   8.388
 2726POPC   C3A37637   2.032  39.119   8.013
 2726POPC   C4A37638   2.128  39.013   7.567
 2726POPC   C1B37639   1.943  39.537   8.949
 2726POPC   C2B37640   1.798  39.546   8.537
 2726POPC   C3B37641   1.896  39.634   8.112
 2726POPC   C4B37642   2.143  39.520   7.732
 2727POPC   NC337643   6.246  41.014   9.483
 2727POPC   PO437644   5.953  41.661   9.523
 2727POPC   GL137645   5.808  41.559   9.157
 2727POPC   GL237646   6.054  41.310   9.111
 2727POPC   C1A37647   5.914  41.678   8.759
 2727POPC   D2A37648   5.872  41.449   8.415
 2727POPC   C3A37649   5.706  41.564   8.067
 2727POPC   C4A37650   5.869  41.628   7.694
 2727POPC   C1B37651   6.232  41.218   8.725
 2727POPC   C2B37652   6.126  40.994   8.365
 2727POPC   C3B37653   6.052  41.164   7.981
 2727POPC   C4B37654   6.295  41.316   7.680
 2728POPC   NC337655   0.996   2.213   9.523
 2728POPC   PO437656   1.505   1.830   9.448
 2728POPC   GL137657   1.179   2.024   9.093
 2728POPC   GL237658   0.814   2.191   9.062
 2728POPC   C1A37659   1.047   2.028   8.658
 2728POPC   D2A37660   1.353   2.213   8.432
 2728POPC   C3A37661   1.429   2.096   8.029
 2728POPC   C4A37662   1.281   1.957   7.618
 2728POPC   C1B37663   0.652   2.384   8.703
 2728POPC   C2B37664   0.819   2.364   8.312
 2728POPC   C3B37665   0.935   2.103   7.975
 2728POPC   C4B37666   0.933   1.667   7.867
 2729POPC   NC337667   2.045  11.474   9.486
 2729POPC   PO437668   2.008  12.171   9.429
 2729POPC   GL137669   2.268  12.046   9.109
 2729POPC   GL237670   2.066  11.761   9.045
 2729POPC   C1A37671   2.367  12.323   8.757
 2729POPC   D2A37672   2.470  12.298   8.317
 2729POPC   C3A37673   2.146  12.287   7.967
 2729POPC   C4A37674   1.677  12.306   7.873
 2729POPC   C1B37675   1.871  12.111   8.783
 2729POPC   C2B37676   1.828  12.099   8.355
 2729POPC   C3B37677   1.858  11.849   8.019
 2729POPC   C4B37678   2.139  11.788   7.712
 2730POPC   NC337679   2.029  40.336   9.591
 2730POPC   PO437680   2.248  39.781   9.605
 2730POPC   GL137681   1.921  39.933   9.263
 2730POPC   GL237682   2.020  40.218   9.103
 2730POPC   C1A37683   1.706  39.987   8.808
 2730POPC   D2A37684   1.923  40.188   8.454
 2730POPC   C3A37685   1.762  40.161   8.040
 2730POPC   C4A37686   1.979  40.009   7.740
 2730POPC   C1B37687   2.282  40.381   8.791
 2730POPC   C2B37688   2.444  40.378   8.407
 2730POPC   C3B37689   2.256  40.368   8.027
 2730POPC   C4B37690   2.309  40.486   7.611
 2731POPC   NC337691  21.070   0.022   9.370
 2731POPC   PO437692  21.089   0.704   9.371
 2731POPC   GL137693  20.820   0.406   9.165
 2731POPC   GL237694  20.477   0.329   9.222
 2731POPC   C1A37695  20.747   0.316   8.752
 2731POPC   D2A37696  20.771   0.582   8.402
 2731POPC   C3A37697  20.735   0.280   8.089
 2731POPC   C4A37698  20.846   0.402   7.723
 2731POPC   C1B37699  20.251   0.216   8.833
 2731POPC   C2B37700  20.330   0.357   8.426
 2731POPC   C3B37701  20.224   0.173   8.025
 2731POPC   C4B37702  20.360   0.301   7.660
 2732POPC   NC337703  15.228   0.487   9.727
 2732POPC   PO437704  15.183  44.882   9.677
 2732POPC   GL137705  15.199   0.242   9.272
 2732POPC   GL237706  15.290   0.621   9.236
 2732POPC   C1A37707  15.432   0.317   8.863
 2732POPC   D2A37708  15.290   0.437   8.426
 2732POPC   C3A37709  15.318   0.338   7.960
 2732POPC   C4A37710  15.207   0.421   7.500
 2732POPC   C1B37711  15.349   0.821   8.793
 2732POPC   C2B37712  15.062   0.879   8.427
 2732POPC   C3B37713  15.109   0.819   7.981
 2732POPC   C4B37714  14.953   0.858   7.565
 2733POPC   NC337715  28.173  28.123   9.436
 2733POPC   PO437716  28.505  28.694   9.277
 2733POPC   GL137717  28.309  28.432   9.036
 2733POPC   GL237718  27.956  28.545   9.048
 2733POPC   C1A37719  28.503  28.180   8.743
 2733POPC   D2A37720  28.666  28.238   8.347
 2733POPC   C3A37721  28.506  28.188   7.976
 2733POPC   C4A37722  28.456  28.536   7.651
 2733POPC   C1B37723  27.963  28.150   8.779
 2733POPC   C2B37724  28.131  28.177   8.368
 2733POPC   C3B37725  28.079  28.441   8.008
 2733POPC   C4B37726  28.093  28.156   7.684
 2734POPC   NC337727  22.457   4.922   9.591
 2734POPC   PO437728  21.852   5.022   9.519
 2734POPC   GL137729  22.005   5.044   9.164
 2734POPC   GL237730  22.264   5.218   9.226
 2734POPC   C1A37731  22.076   4.885   8.780
 2734POPC   D2A37732  22.210   4.834   8.381
 2734POPC   C3A37733  22.144   5.143   8.042
 2734POPC   C4A37734  22.227   4.874   7.700
 2734POPC   C1B37735  22.269   5.397   8.839
 2734POPC   C2B37736  22.424   5.294   8.463
 2734POPC   C3B37737  22.554   5.453   8.071
 2734POPC   C4B37738  22.479   5.311   7.651
 2735POPC   NC337739  15.407  31.389   9.608
 2735POPC   PO437740  15.995  31.522   9.471
 2735POPC   GL137741  15.978  31.413   9.077
 2735POPC   GL237742  15.648  31.326   9.117
 2735POPC   C1A37743  15.985  31.575   8.684
 2735POPC   D2A37744  15.925  31.404   8.272
 2735POPC   C3A37745  16.194  31.436   7.934
 2735POPC   C4A37746  16.351  31.820   7.818
 2735POPC   C1B37747  15.669  31.180   8.686
 2735POPC   C2B37748  15.464  31.212   8.282
 2735POPC   C3B37749  15.631  31.299   7.843
 2735POPC   C4B37750  15.570  31.207   7.371
 2736POPC   NC337751  24.881  35.452   9.396
 2736POPC   PO437752  25.500  35.104   9.637
 2736POPC   GL137753  25.390  35.250   9.249
 2736POPC   GL237754  25.433  35.604   9.244
 2736POPC   C1A37755  25.240  35.167   8.834
 2736POPC   D2A37756  24.981  35.328   8.483
 2736POPC   C3A37757  25.119  35.176   8.061
 2736POPC   C4A37758  25.000  35.438   7.737
 2736POPC   C1B37759  25.599  35.543   8.814
 2736POPC   C2B37760  25.456  35.493   8.362
 2736POPC   C3B37761  25.524  35.485   7.910
 2736POPC   C4B37762  25.794  35.718   7.638
 2737POPC   NC337763  35.072  17.007   9.559
 2737POPC   PO437764  35.676  17.321   9.401
 2737POPC   GL137765  35.380  17.411   9.067
 2737POPC   GL237766  35.065  17.216   9.084
 2737POPC   C1A37767  35.424  17.614   8.648
 2737POPC   D2A37768  35.560  17.496   8.197
 2737POPC   C3A37769  35.430  17.691   7.806
 2737POPC   C4A37770  35.569  17.601   7.383
 2737POPC   C1B37771  35.140  17.185   8.664
 2737POPC   C2B37772  35.072  17.415   8.328
 2737POPC   C3B37773  35.099  17.250   7.936
 2737POPC   C4B37774  35.144  17.312   7.511
 2738POPC   NC337775  43.595  39.759   9.712
 2738POPC   PO437776  44.135  39.389   9.616
 2738POPC   GL137777  44.025  39.350   9.137
 2738POPC   GL237778  44.241  39.586   9.073
 2738POPC   C1A37779  43.720  39.207   8.767
 2738POPC   D2A37780  43.418  39.045   8.431
 2738POPC   C3A37781  43.642  39.144   8.048
 2738POPC   C4A37782  43.688  39.544   7.902
 2738POPC   C1B37783  44.173  39.415   8.654
 2738POPC   C2B37784  44.081  39.632   8.259
 2738POPC   C3B37785  44.190  39.430   7.868
 2738POPC   C4B37786  44.493  39.103   7.804
 2739POPC   NC337787  40.619  12.977   9.381
 2739POPC   PO437788  40.406  12.491   9.732
 2739POPC   GL137789  40.685  12.487   9.163
 2739POPC   GL237790  40.815  12.797   8.970
 2739POPC   C1A37791  40.556  12.524   8.658
 2739POPC   D2A37792  40.723  12.900   8.426
 2739POPC   C3A37793  40.809  12.851   7.973
 2739POPC   C4A37794  40.632  12.916   7.545
 2739POPC   C1B37795  41.076  13.119   8.792
 2739POPC   C2B37796  41.287  13.051   8.413
 2739POPC   C3B37797  41.225  13.187   8.002
 2739POPC   C4B37798  41.220  12.959   7.641
 2740POPC   NC337799  21.535  14.999   9.653
 2740POPC   PO437800  20.889  15.118   9.394
 2740POPC   GL137801  21.347  15.077   9.186
 2740POPC   GL237802  21.639  15.279   9.243
 2740POPC   C1A37803  21.652  14.993   8.831
 2740POPC   D2A37804  21.520  14.882   8.464
 2740POPC   C3A37805  21.338  15.129   8.182
 2740POPC   C4A37806  21.400  15.239   7.784
 2740POPC   C1B37807  21.768  15.481   8.910
 2740POPC   C2B37808  21.735  15.363   8.494
 2740POPC   C3B37809  21.780  15.370   8.083
 2740POPC   C4B37810  21.873  15.426   7.665
 2741POPC   NC337811  29.652  22.365   9.487
 2741POPC   PO437812  30.134  21.960   9.449
 2741POPC   GL137813  30.015  22.186   9.107
 2741POPC   GL237814  29.650  22.200   9.009
 2741POPC   C1A37815  30.000  21.962   8.724
 2741POPC   D2A37816  29.673  22.033   8.422
 2741POPC   C3A37817  29.852  22.130   8.033
 2741POPC   C4A37818  29.673  22.024   7.615
 2741POPC   C1B37819  29.840  22.443   8.686
 2741POPC   C2B37820  29.686  22.611   8.329
 2741POPC   C3B37821  29.540  22.520   7.964
 2741POPC   C4B37822  29.791  22.518   7.654
 2742POPC   NC337823   2.541  27.095   9.531
 2742POPC   PO437824   3.183  26.920   9.532
 2742POPC   GL137825   2.934  26.786   9.178
 2742POPC   GL237826   2.579  26.834   9.108
 2742POPC   C1A37827   2.962  26.896   8.769
 2742POPC   D2A37828   3.186  26.811   8.432
 2742POPC   C3A37829   2.995  26.931   8.098
 2742POPC   C4A37830   2.823  26.711   7.737
 2742POPC   C1B37831   2.442  26.846   8.697
 2742POPC   C2B37832   2.543  26.826   8.310
 2742POPC   C3B37833   2.525  27.058   7.956
 2742POPC   C4B37834   2.320  26.938   7.578
 2743POPC   NC337835  25.194  43.283   9.498
 2743POPC   PO437836  24.950  42.735   9.430
 2743POPC   GL137837  25.087  42.992   9.097
 2743POPC   GL237838  25.456  43.050   9.139
 2743POPC   C1A37839  25.138  43.181   8.705
 2743POPC   D2A37840  25.012  43.361   8.336
 2743POPC   C3A37841  25.130  43.135   7.961
 2743POPC   C4A37842  25.286  43.021   7.577
 2743POPC   C1B37843  25.696  43.108   8.781
 2743POPC   C2B37844  25.857  42.989   8.414
 2743POPC   C3B37845  25.683  43.033   8.029
 2743POPC   C4B37846  25.768  42.891   7.628
 2744POPC   NC337847  38.844  22.179   9.546
 2744POPC   PO437848  39.490  22.242   9.499
 2744POPC   GL137849  39.222  22.152   9.128
 2744POPC   GL237850  39.023  21.841   9.201
 2744POPC   C1A37851  39.258  22.211   8.668
 2744POPC   D2A37852  39.481  22.200   8.261
 2744POPC   C3A37853  39.171  22.267   7.915
 2744POPC   C4A37854  39.161  22.492   7.524
 2744POPC   C1B37855  38.995  21.782   8.766
 2744POPC   C2B37856  38.860  22.003   8.417
 2744POPC   C3B37857  38.838  21.903   8.038
 2744POPC   C4B37858  38.959  21.804   7.669
 2745POPC   NC337859   8.745  39.198   9.516
 2745POPC   PO437860   9.466  39.019   9.593
 2745POPC   GL137861   9.194  39.286   9.278
 2745POPC   GL237862   8.915  39.168   9.035
 2745POPC   C1A37863   9.292  39.388   8.817
 2745POPC   D2A37864   9.066  39.143   8.483
 2745POPC   C3A37865   9.073  39.347   8.089
 2745POPC   C4A37866   9.406  39.362   7.764
 2745POPC   C1B37867   8.579  39.106   8.749
 2745POPC   C2B37868   8.558  39.261   8.350
 2745POPC   C3B37869   8.633  39.054   7.998
 2745POPC   C4B37870   9.000  38.843   7.859
 2746POPC   NC337871  20.720   8.116   9.521
 2746POPC   PO437872  20.782   8.660   9.292
 2746POPC   GL137873  20.724   8.454   8.966
 2746POPC   GL237874  20.468   8.277   9.094
 2746POPC   C1A37875  20.484   8.452   8.608
 2746POPC   D2A37876  20.462   8.491   8.194
 2746POPC   C3A37877  20.740   8.233   7.959
 2746POPC   C4A37878  20.809   8.332   7.525
 2746POPC   C1B37879  20.439   7.961   8.780
 2746POPC   C2B37880  20.295   8.026   8.360
 2746POPC   C3B37881  20.344   7.834   8.007
 2746POPC   C4B37882  20.577   7.815   7.668
 2747POPC   NC337883  39.834   9.791   9.604
 2747POPC   PO437884  39.143   9.703   9.586
 2747POPC   GL137885  39.109   9.916   9.207
 2747POPC   GL237886  39.480   9.918   9.239
 2747POPC   C1A37887  39.116  10.097   8.802
 2747POPC   D2A37888  38.973   9.900   8.431
 2747POPC   C3A37889  38.942  10.077   8.039
 2747POPC   C4A37890  39.097   9.714   7.855
 2747POPC   C1B37891  39.474   9.722   8.840
 2747POPC   C2B37892  39.491   9.771   8.399
 2747POPC   C3B37893  39.575   9.629   7.980
 2747POPC   C4B37894  39.646   9.282   7.722
 2748POPC   NC337895  31.772  44.617   9.585
 2748POPC   PO437896  31.222  44.372   9.441
 2748POPC   GL137897  31.442  44.570   9.117
 2748POPC   GL237898  31.466  44.905   9.205
 2748POPC   C1A37899  31.354  44.631   8.679
 2748POPC   D2A37900  31.180  44.505   8.322
 2748POPC   C3A37901  31.347  44.753   8.022
 2748POPC   C4A37902  31.366  44.587   7.641
 2748POPC   C1B37903  31.637   0.048   8.797
 2748POPC   C2B37904  31.693  44.961   8.367
 2748POPC   C3B37905  31.830  44.908   7.932
 2748POPC   C4B37906  31.597   0.022   7.554
 2749POPC   NC337907  21.419  35.181   9.390
 2749POPC   PO437908  21.001  35.591   9.380
 2749POPC   GL137909  21.066  35.308   9.023
 2749POPC   GL237910  20.922  35.000   8.975
 2749POPC   C1A37911  21.408  35.194   8.737
 2749POPC   D2A37912  21.602  35.116   8.333
 2749POPC   C3A37913  21.301  35.249   8.032
 2749POPC   C4A37914  21.239  35.471   7.636
 2749POPC   C1B37915  21.152  34.761   8.647
 2749POPC   C2B37916  21.233  34.754   8.189
 2749POPC   C3B37917  21.135  34.862   7.746
 2749POPC   C4B37918  21.180  35.081   7.323
 2750POPC   NC337919  32.403  22.788   9.648
 2750POPC   PO437920  32.200  23.417   9.476
 2750POPC   GL137921  32.148  23.075   9.157
 2750POPC   GL237922  32.345  22.763   9.152
 2750POPC   C1A37923  32.249  23.110   8.723
 2750POPC   D2A37924  32.263  22.889   8.339
 2750POPC   C3A37925  32.543  23.080   8.009
 2750POPC   C4A37926  32.499  23.089   7.554
 2750POPC   C1B37927  32.107  22.612   8.819
 2750POPC   C2B37928  31.851  22.520   8.461
 2750POPC   C3B37929  31.898  22.690   8.039
 2750POPC   C4B37930  32.076  22.792   7.641
 2751POPC   NC337931  13.922  35.379   9.435
 2751POPC   PO437932  13.277  35.162   9.485
 2751POPC   GL137933  13.526  35.263   9.133
 2751POPC   GL237934  13.752  34.992   9.047
 2751POPC   C1A37935  13.715  35.543   8.800
 2751POPC   D2A37936  13.646  35.771   8.406
 2751POPC   C3A37937  13.979  35.698   8.127
 2751POPC   C4A37938  13.999  35.500   7.751
 2751POPC   C1B37939  13.529  35.081   8.661
 2751POPC   C2B37940  13.695  35.280   8.292
 2751POPC   C3B37941  13.541  35.454   7.914
 2751POPC   C4B37942  13.576  35.537   7.453
 2752POPC   NC337943  38.101  24.014   9.469
 2752POPC   PO437944  38.567  23.448   9.478
 2752POPC   GL137945  38.445  23.717   9.177
 2752POPC   GL237946  38.695  23.977   9.079
 2752POPC   C1A37947  38.297  23.830   8.788
 2752POPC   D2A37948  38.235  24.042   8.436
 2752POPC   C3A37949  38.084  23.830   8.078
 2752POPC   C4A37950  38.347  23.799   7.712
 2752POPC   C1B37951  38.813  23.810   8.720
 2752POPC   C2B37952  38.610  23.695   8.374
 2752POPC   C3B37953  38.726  23.610   8.002
 2752POPC   C4B37954  38.875  23.777   7.669
 2753POPC   NC337955   7.529  21.154  10.114
 2753POPC   PO437956   7.495  21.682   9.713
 2753POPC   GL137957   7.430  21.526   9.248
 2753POPC   GL237958   7.354  21.184   9.158
 2753POPC   C1A37959   7.610  21.445   8.809
 2753POPC   D2A37960   7.578  21.583   8.392
 2753POPC   C3A37961   7.461  21.257   8.146
 2753POPC   C4A37962   7.546  21.251   7.724
 2753POPC   C1B37963   7.123  21.248   8.741
 2753POPC   C2B37964   7.006  21.380   8.321
 2753POPC   C3B37965   7.034  21.185   7.875
 2753POPC   C4B37966   7.213  20.933   7.496
 2754POPC   NC337967  38.272  27.836   9.356
 2754POPC   PO437968  38.210  27.138   9.421
 2754POPC   GL137969  38.460  27.278   9.045
 2754POPC   GL237970  38.533  27.622   8.978
 2754POPC   C1A37971  38.393  27.314   8.599
 2754POPC   D2A37972  38.518  27.375   8.182
 2754POPC   C3A37973  38.338  27.684   7.915
 2754POPC   C4A37974  38.198  27.650   7.493
 2754POPC   C1B37975  38.835  27.592   8.629
 2754POPC   C2B37976  38.876  27.744   8.240
 2754POPC   C3B37977  38.827  27.608   7.846
 2754POPC   C4B37978  38.706  27.723   7.412
 2755POPC   NC337979  19.145   3.305   9.610
 2755POPC   PO437980  19.001   3.974   9.523
 2755POPC   GL137981  19.085   3.621   9.204
 2755POPC   GL237982  18.892   3.339   9.115
 2755POPC   C1A37983  19.274   3.521   8.801
 2755POPC   D2A37984  19.052   3.597   8.443
 2755POPC   C3A37985  19.301   3.502   8.097
 2755POPC   C4A37986  19.311   3.407   7.700
 2755POPC   C1B37987  18.758   3.179   8.689
 2755POPC   C2B37988  18.707   3.024   8.247
 2755POPC   C3B37989  18.864   3.216   7.863
 2755POPC   C4B37990  18.978   3.021   7.460
 2756POPC   NC337991   9.086  32.789   9.404
 2756POPC   PO437992   8.687  33.350   9.423
 2756POPC   GL137993   8.881  33.162   9.111
 2756POPC   GL237994   9.093  33.432   9.061
 2756POPC   C1A37995   8.763  32.962   8.721
 2756POPC   D2A37996   8.872  33.081   8.305
 2756POPC   C3A37997   8.715  32.878   7.973
 2756POPC   C4A37998   8.726  33.122   7.636
 2756POPC   C1B37999   9.210  33.193   8.695
 2756POPC   C2B38000   9.320  32.860   8.388
 2756POPC   C3B38001   9.333  32.985   7.972
 2756POPC   C4B38002   9.239  33.339   7.736
 2757POPC   NC338003  44.198  42.360   9.669
 2757POPC   PO438004  43.585  42.321   9.429
 2757POPC   GL138005  43.957  42.309   9.180
 2757POPC   GL238006  44.263  42.063   9.257
 2757POPC   C1A38007  43.849  42.374   8.723
 2757POPC   D2A38008  43.576  42.113   8.431
 2757POPC   C3A38009  43.508  42.282   8.016
 2757POPC   C4A38010  43.761  42.496   7.679
 2757POPC   C1B38011  44.093  41.940   8.861
 2757POPC   C2B38012  44.099  42.033   8.435
 2757POPC   C3B38013  44.017  42.262   8.075
 2757POPC   C4B38014  43.925  42.018   7.710
 2758POPC   NC338015   3.725   7.490   9.323
 2758POPC   PO438016   3.421   6.947   9.688
 2758POPC   GL138017   3.202   7.087   9.261
 2758POPC   GL238018   3.287   7.397   9.137
 2758POPC   C1A38019   3.217   7.083   8.751
 2758POPC   D2A38020   3.485   7.357   8.519
 2758POPC   C3A38021   3.503   7.434   8.077
 2758POPC   C4A38022   3.867   7.488   7.858
 2758POPC   C1B38023   3.123   7.622   8.823
 2758POPC   C2B38024   3.179   7.750   8.427
 2758POPC   C3B38025   3.061   7.697   8.058
 2758POPC   C4B38026   3.279   7.703   7.686
 2759POPC   NC338027   7.885  21.658   9.442
 2759POPC   PO438028   8.279  21.181   9.679
 2759POPC   GL138029   8.325  21.325   9.251
 2759POPC   GL238030   8.519  21.584   9.135
 2759POPC   C1A38031   8.131  21.370   8.839
 2759POPC   D2A38032   8.224  21.296   8.408
 2759POPC   C3A38033   7.955  21.274   8.073
 2759POPC   C4A38034   8.060  21.154   7.653
 2759POPC   C1B38035   8.411  21.806   8.777
 2759POPC   C2B38036   8.075  21.763   8.492
 2759POPC   C3B38037   8.217  21.705   8.069
 2759POPC   C4B38038   7.944  21.651   7.720
 2760POPC   NC338039  28.676  24.161   9.771
 2760POPC   PO438040  29.154  24.495   9.470
 2760POPC   GL138041  29.312  24.564   9.107
 2760POPC   GL238042  29.475  24.862   9.062
 2760POPC   C1A38043  29.094  24.551   8.723
 2760POPC   D2A38044  28.864  24.318   8.410
 2760POPC   C3A38045  28.995  24.508   8.027
 2760POPC   C4A38046  29.210  24.329   7.716
 2760POPC   C1B38047  29.551  24.997   8.646
 2760POPC   C2B38048  29.660  24.839   8.234
 2760POPC   C3B38049  29.572  24.759   7.772
 2760POPC   C4B38050  29.492  24.803   7.280
 2761POPC   NC338051  10.902  34.169   9.537
 2761POPC   PO438052  10.538  34.758   9.589
 2761POPC   GL138053  10.558  34.474   9.216
 2761POPC   GL238054  10.863  34.363   9.067
 2761POPC   C1A38055  10.451  34.584   8.797
 2761POPC   D2A38056  10.628  34.495   8.413
 2761POPC   C3A38057  10.395  34.640   8.049
 2761POPC   C4A38058  10.040  34.392   7.910
 2761POPC   C1B38059  11.020  34.145   8.700
 2761POPC   C2B38060  10.993  34.089   8.261
 2761POPC   C3B38061  10.902  34.425   8.006
 2761POPC   C4B38062  10.798  34.682   7.694
 2762POPC   NC338063  21.224   1.917   9.286
 2762POPC   PO438064  21.659   2.366   9.450
 2762POPC   GL138065  21.612   2.111   9.036
 2762POPC   GL238066  21.572   1.720   8.982
 2762POPC   C1A38067  21.567   2.101   8.598
 2762POPC   D2A38068  21.244   2.229   8.314
 2762POPC   C3A38069  21.438   2.095   7.938
 2762POPC   C4A38070  21.824   2.109   7.731
 2762POPC   C1B38071  21.188   1.769   8.665
 2762POPC   C2B38072  21.377   1.715   8.280
 2762POPC   C3B38073  21.544   1.602   7.910
 2762POPC   C4B38074  21.165   1.564   7.699
 2763POPC   NC338075  27.814  44.624   9.622
 2763POPC   PO438076  27.565   0.162   9.428
 2763POPC   GL138077  27.699  44.829   9.143
 2763POPC   GL238078  27.578  44.481   9.200
 2763POPC   C1A38079  27.703  44.664   8.723
 2763POPC   D2A38080  27.907  44.760   8.340
 2763POPC   C3A38081  27.650  44.915   8.014
 2763POPC   C4A38082  27.410  44.649   7.752
 2763POPC   C1B38083  27.434  44.251   8.831
 2763POPC   C2B38084  27.399  44.385   8.369
 2763POPC   C3B38085  27.469  44.182   7.944
 2763POPC   C4B38086  27.444  44.191   7.463
 2764POPC   NC338087   0.898  28.118   9.448
 2764POPC   PO438088   1.362  28.613   9.540
 2764POPC   GL138089   1.277  28.432   9.155
 2764POPC   GL238090   0.916  28.471   9.081
 2764POPC   C1A38091   1.297  28.591   8.740
 2764POPC   D2A38092   1.076  28.491   8.380
 2764POPC   C3A38093   1.338  28.396   8.035
 2764POPC   C4A38094   1.294  28.447   7.635
 2764POPC   C1B38095   0.997  28.145   8.776
 2764POPC   C2B38096   0.768  27.945   8.443
 2764POPC   C3B38097   0.827  28.157   8.034
 2764POPC   C4B38098   0.905  28.152   7.612
 2765POPC   NC338099  34.943  22.855   9.516
 2765POPC   PO438100  34.360  22.785   9.539
 2765POPC   GL138101  34.550  22.834   9.143
 2765POPC   GL238102  34.836  23.056   9.073
 2765POPC   C1A38103  34.465  22.567   8.780
 2765POPC   D2A38104  34.344  22.704   8.403
 2765POPC   C3A38105  34.560  22.648   8.021
 2765POPC   C4A38106  34.383  22.803   7.639
 2765POPC   C1B38107  34.665  23.003   8.668
 2765POPC   C2B38108  34.712  23.095   8.273
 2765POPC   C3B38109  34.653  23.190   7.884
 2765POPC   C4B38110  34.867  22.957   7.636
 2766POPC   NC338111  12.366  35.161   9.548
 2766POPC   PO438112  11.757  35.012   9.748
 2766POPC   GL138113  11.874  35.277   9.326
 2766POPC   GL238114  12.216  35.361   9.130
 2766POPC   C1A38115  11.813  35.320   8.839
 2766POPC   D2A38116  11.792  35.115   8.399
 2766POPC   C3A38117  12.051  35.123   8.011
 2766POPC   C4A38118  12.162  35.308   7.610
 2766POPC   C1B38119  12.228  35.581   8.750
 2766POPC   C2B38120  12.234  35.423   8.378
 2766POPC   C3B38121  12.124  35.643   8.004
 2766POPC   C4B38122  12.372  35.766   7.636
 2767POPC   NC338123  39.174  10.169   9.640
 2767POPC   PO438124  39.295  10.815   9.742
 2767POPC   GL138125  39.056  10.545   9.335
 2767POPC   GL238126  39.328  10.398   9.198
 2767POPC   C1A38127  38.907  10.563   8.876
 2767POPC   D2A38128  38.875  10.406   8.440
 2767POPC   C3A38129  39.175  10.541   8.126
 2767POPC   C4A38130  39.104  10.708   7.733
 2767POPC   C1B38131  39.607  10.275   8.881
 2767POPC   C2B38132  39.504  10.282   8.453
 2767POPC   C3B38133  39.521  10.155   8.023
 2767POPC   C4B38134  39.273  10.179   7.652
 2768POPC   NC338135  14.656  33.159   9.504
 2768POPC   PO438136  14.411  33.827   9.414
 2768POPC   GL138137  14.630  33.832   9.079
 2768POPC   GL238138  14.736  33.482   9.108
 2768POPC   C1A38139  14.714  33.770   8.694
 2768POPC   D2A38140  14.757  33.633   8.283
 2768POPC   C3A38141  14.454  33.867   8.009
 2768POPC   C4A38142  14.244  33.945   7.625
 2768POPC   C1B38143  14.547  33.292   8.705
 2768POPC   C2B38144  14.476  33.156   8.257
 2768POPC   C3B38145  14.571  33.386   7.846
 2768POPC   C4B38146  14.579  33.621   7.435
 2769POPC   NC338147   7.446   3.156   9.466
 2769POPC   PO438148   7.533   3.888   9.453
 2769POPC   GL138149   7.418   3.588   9.177
 2769POPC   GL238150   7.755   3.454   9.169
 2769POPC   C1A38151   7.213   3.424   8.807
 2769POPC   D2A38152   7.086   3.623   8.411
 2769POPC   C3A38153   7.330   3.550   8.025
 2769POPC   C4A38154   7.572   3.883   7.817
 2769POPC   C1B38155   7.707   3.582   8.749
 2769POPC   C2B38156   7.701   3.421   8.356
 2769POPC   C3B38157   7.663   3.077   8.073
 2769POPC   C4B38158   7.565   3.230   7.654
 2770POPC   NC338159   2.939  11.565   9.451
 2770POPC   PO438160   2.408  11.299   9.708
 2770POPC   GL138161   2.503  11.515   9.201
 2770POPC   GL238162   2.840  11.363   9.012
 2770POPC   C1A38163   2.466  11.413   8.700
 2770POPC   D2A38164   2.709  11.475   8.287
 2770POPC   C3A38165   2.466  11.390   7.874
 2770POPC   C4A38166   2.286  11.391   7.442
 2770POPC   C1B38167   3.133  11.187   8.711
 2770POPC   C2B38168   3.201  10.960   8.339
 2770POPC   C3B38169   2.942  11.056   8.004
 2770POPC   C4B38170   2.984  11.447   7.818
 2771POPC   NC338171   9.226  25.004   9.501
 2771POPC   PO438172   9.027  25.597   9.432
 2771POPC   GL138173   8.869  25.528   9.071
 2771POPC   GL238174   8.951  25.174   9.103
 2771POPC   C1A38175   8.812  25.402   8.670
 2771POPC   D2A38176   8.864  25.153   8.298
 2771POPC   C3A38177   8.930  25.380   7.901
 2771POPC   C4A38178   8.668  25.633   7.651
 2771POPC   C1B38179   9.187  25.023   8.731
 2771POPC   C2B38180   9.365  24.998   8.324
 2771POPC   C3B38181   9.163  24.903   7.932
 2771POPC   C4B38182   9.083  25.018   7.509
 2772POPC   NC338183  27.703  20.811   9.644
 2772POPC   PO438184  27.529  20.249   9.597
 2772POPC   GL138185  27.760  20.491   9.232
 2772POPC   GL238186  27.935  20.833   9.174
 2772POPC   C1A38187  27.666  20.602   8.769
 2772POPC   D2A38188  27.555  20.762   8.344
 2772POPC   C3A38189  27.659  20.582   7.923
 2772POPC   C4A38190  27.392  20.406   7.576
 2772POPC   C1B38191  28.046  20.927   8.721
 2772POPC   C2B38192  28.043  20.879   8.241
 2772POPC   C3B38193  27.801  21.064   7.877
 2772POPC   C4B38194  27.699  20.859   7.459
 2773POPC   NC338195  21.679   0.671   9.825
 2773POPC   PO438196  21.506   0.181   9.390
 2773POPC   GL138197  21.582   0.280   8.987
 2773POPC   GL238198  21.244   0.219   8.927
 2773POPC   C1A38199  21.576   0.288   8.551
 2773POPC   D2A38200  21.198   0.243   8.323
 2773POPC   C3A38201  21.377   0.238   7.918
 2773POPC   C4A38202  21.763   0.353   7.822
 2773POPC   C1B38203  21.180   0.587   8.719
 2773POPC   C2B38204  21.185   0.884   8.409
 2773POPC   C3B38205  21.160   0.676   8.054
 2773POPC   C4B38206  21.275   0.663   7.658
 2774POPC   NC338207  21.095   9.818   9.337
 2774POPC   PO438208  21.746   9.793   9.378
 2774POPC   GL138209  21.491   9.626   9.069
 2774POPC   GL238210  21.672   9.313   9.063
 2774POPC   C1A38211  21.325   9.806   8.655
 2774POPC   D2A38212  21.580   9.855   8.281
 2774POPC   C3A38213  21.351   9.889   7.920
 2774POPC   C4A38214  20.948   9.820   7.761
 2774POPC   C1B38215  21.701   9.461   8.649
 2774POPC   C2B38216  21.536   9.329   8.290
 2774POPC   C3B38217  21.659   9.424   7.885
 2774POPC   C4B38218  21.417   9.549   7.520
 2775POPC   NC338219  34.793  16.385   9.633
 2775POPC   PO438220  35.407  16.602   9.575
 2775POPC   GL138221  35.269  16.727   9.184
 2775POPC   GL238222  35.082  16.422   9.183
 2775POPC   C1A38223  35.513  16.902   8.836
 2775POPC   D2A38224  35.564  17.042   8.398
 2775POPC   C3A38225  35.514  16.831   7.999
 2775POPC   C4A38226  35.194  16.822   7.637
 2775POPC   C1B38227  35.405  16.413   8.819
 2775POPC   C2B38228  35.391  16.551   8.397
 2775POPC   C3B38229  35.293  16.384   7.958
 2775POPC   C4B38230  35.589  16.511   7.597
 2776POPC   NC338231  34.816  43.502   9.375
 2776POPC   PO438232  34.496  44.054   9.501
 2776POPC   GL138233  34.544  43.850   9.132
 2776POPC   GL238234  34.911  43.971   9.148
 2776POPC   C1A38235  34.497  43.580   8.750
 2776POPC   D2A38236  34.737  43.562   8.339
 2776POPC   C3A38237  34.494  43.586   7.940
 2776POPC   C4A38238  34.277  43.992   7.794
 2776POPC   C1B38239  34.792  44.003   8.725
 2776POPC   C2B38240  34.909  44.137   8.347
 2776POPC   C3B38241  34.778  44.011   7.962
 2776POPC   C4B38242  35.031  44.051   7.656
 2777POPC   NC338243   6.318  25.959   9.630
 2777POPC   PO438244   6.729  25.623   9.278
 2777POPC   GL138245   6.616  25.993   9.075
 2777POPC   GL238246   6.330  26.062   9.120
 2777POPC   C1A38247   6.722  26.314   8.805
 2777POPC   D2A38248   7.007  26.294   8.451
 2777POPC   C3A38249   6.781  26.278   8.063
 2777POPC   C4A38250   6.631  26.063   7.692
 2777POPC   C1B38251   6.449  25.929   8.609
 2777POPC   C2B38252   6.568  25.815   8.177
 2777POPC   C3B38253   6.263  25.754   7.829
 2777POPC   C4B38254   6.238  25.902   7.376
 2778POPC   NC338255  42.389   1.399   9.897
 2778POPC   PO438256  41.890   1.321   9.474
 2778POPC   GL138257  42.231   1.220   9.175
 2778POPC   GL238258  42.527   1.449   9.218
 2778POPC   C1A38259  42.177   1.061   8.739
 2778POPC   D2A38260  42.000   0.994   8.317
 2778POPC   C3A38261  42.279   1.039   8.012
 2778POPC   C4A38262  42.082   1.168   7.665
 2778POPC   C1B38263  42.667   1.325   8.821
 2778POPC   C2B38264  42.497   1.339   8.419
 2778POPC   C3B38265  42.642   1.425   8.019
 2778POPC   C4B38266  42.560   1.304   7.618
 2779POPC   NC338267  43.660  20.838   9.344
 2779POPC   PO438268  43.847  20.322   9.661
 2779POPC   GL138269  44.119  20.507   9.214
 2779POPC   GL238270  44.067  20.884   9.066
 2779POPC   C1A38271  44.121  20.525   8.725
 2779POPC   D2A38272  44.198  20.325   8.340
 2779POPC   C3A38273  44.058  20.538   7.979
 2779POPC   C4A38274  43.655  20.462   7.780
 2779POPC   C1B38275  43.766  20.923   8.724
 2779POPC   C2B38276  43.663  20.731   8.326
 2779POPC   C3B38277  43.688  20.944   7.930
 2779POPC   C4B38278  43.978  21.041   7.613
 2780POPC   NC338279  17.228   1.472   5.558
 2780POPC   PO438280  17.764   1.039   5.494
 2780POPC   GL138281  17.547   1.078   5.840
 2780POPC   GL238282  17.649   1.401   5.863
 2780POPC   C1A38283  17.729   1.016   6.227
 2780POPC   D2A38284  17.941   0.859   6.569
 2780POPC   C3A38285  17.716   0.925   6.925
 2780POPC   C4A38286  17.774   1.052   7.308
 2780POPC   C1B38287  17.536   1.480   6.259
 2780POPC   C2B38288  17.436   1.228   6.613
 2780POPC   C3B38289  17.444   1.363   7.032
 2780POPC   C4B38290  17.378   1.755   7.229
 2781POPC   NC338291  27.620  12.271   5.455
 2781POPC   PO438292  27.886  11.606   5.347
 2781POPC   GL138293  27.848  11.857   5.761
 2781POPC   GL238294  27.498  11.978   5.848
 2781POPC   C1A38295  27.827  11.956   6.239
 2781POPC   D2A38296  27.689  12.144   6.636
 2781POPC   C3A38297  27.637  11.967   7.050
 2781POPC   C4A38298  27.871  12.216   7.303
 2781POPC   C1B38299  27.356  12.302   6.152
 2781POPC   C2B38300  27.172  12.238   6.561
 2781POPC   C3B38301  27.300  12.346   6.971
 2781POPC   C4B38302  27.403  12.304   7.393
 2782POPC   NC338303  33.273  23.847   5.312
 2782POPC   PO438304  32.939  23.352   5.486
 2782POPC   GL138305  32.855  23.527   5.905
 2782POPC   GL238306  33.111  23.756   5.853
 2782POPC   C1A38307  32.881  23.814   6.311
 2782POPC   D2A38308  32.821  23.731   6.748
 2782POPC   C3A38309  33.006  23.841   7.165
 2782POPC   C4A38310  32.830  23.911   7.589
 2782POPC   C1B38311  33.233  23.468   6.224
 2782POPC   C2B38312  33.087  23.254   6.577
 2782POPC   C3B38313  33.084  23.345   6.981
 2782POPC   C4B38314  33.313  23.461   7.319
 2783POPC   NC338315  41.990   0.945   5.505
 2783POPC   PO438316  42.671   1.072   5.499
 2783POPC   GL138317  42.595   1.338   5.804
 2783POPC   GL238318  42.256   1.439   5.700
 2783POPC   C1A38319  42.473   1.240   6.181
 2783POPC   D2A38320  42.227   1.217   6.500
 2783POPC   C3A38321  42.531   1.288   6.803
 2783POPC   C4A38322  42.399   1.159   7.169
 2783POPC   C1B38323  42.042   1.600   6.076
 2783POPC   C2B38324  41.857   1.610   6.483
 2783POPC   C3B38325  41.842   1.319   6.833
 2783POPC   C4B38326  41.961   1.414   7.236
 2784POPC   NC338327   1.813  39.435   5.436
 2784POPC   PO438328   2.166  38.940   5.436
 2784POPC   GL138329   1.957  39.075   5.804
 2784POPC   GL238330   2.118  39.391   5.828
 2784POPC   C1A38331   2.056  39.140   6.251
 2784POPC   D2A38332   1.890  39.385   6.551
 2784POPC   C3A38333   1.747  39.260   6.936
 2784POPC   C4A38334   1.892  39.358   7.303
 2784POPC   C1B38335   2.110  39.664   6.167
 2784POPC   C2B38336   2.147  39.853   6.546
 2784POPC   C3B38337   2.109  39.661   6.936
 2784POPC   C4B38338   2.172  39.828   7.318
 2785POPC   NC338339  31.354   9.462   5.596
 2785POPC   PO438340  31.361   8.828   5.280
 2785POPC   GL138341  31.399   8.963   5.714
 2785POPC   GL238342  31.107   8.976   5.872
 2785POPC   C1A38343  31.608   9.005   6.115
 2785POPC   D2A38344  31.813   9.124   6.495
 2785POPC   C3A38345  31.761   8.895   6.838
 2785POPC   C4A38346  31.756   9.005   7.229
 2785POPC   C1B38347  31.172   9.211   6.264
 2785POPC   C2B38348  31.322   9.162   6.704
 2785POPC   C3B38349  31.232   8.974   7.116
 2785POPC   C4B38350  31.070   9.020   7.515
 2786POPC   NC338351  13.066  44.566   5.410
 2786POPC   PO438352  12.454  44.998   5.336
 2786POPC   GL138353  12.473  44.798   5.756
 2786POPC   GL238354  12.719  44.553   5.808
 2786POPC   C1A38355  12.394  44.625   6.195
 2786POPC   D2A38356  12.606  44.362   6.479
 2786POPC   C3A38357  12.770  44.463   6.848
 2786POPC   C4A38358  12.578  44.601   7.200
 2786POPC   C1B38359  12.932  44.760   6.165
 2786POPC   C2B38360  12.996   0.007   6.565
 2786POPC   C3B38361  12.944  44.920   7.015
 2786POPC   C4B38362  13.163  44.572   7.200
 2787POPC   NC338363   8.311  33.892   5.296
 2787POPC   PO438364   7.912  33.433   5.400
 2787POPC   GL138365   8.107  33.773   5.750
 2787POPC   GL238366   8.428  34.035   5.789
 2787POPC   C1A38367   8.248  33.759   6.191
 2787POPC   D2A38368   8.410  33.765   6.618
 2787POPC   C3A38369   8.053  33.690   6.872
 2787POPC   C4A38370   8.029  33.548   7.291
 2787POPC   C1B38371   8.651  34.101   6.228
 2787POPC   C2B38372   8.678  34.198   6.696
 2787POPC   C3B38373   8.499  34.092   7.128
 2787POPC   C4B38374   8.622  33.977   7.565
 2788POPC   NC338375  10.963  33.211   5.309
 2788POPC   PO438376  10.340  33.008   5.323
 2788POPC   GL138377  10.364  33.215   5.704
 2788POPC   GL238378  10.279  32.889   5.819
 2788POPC   C1A38379  10.534  33.275   6.104
 2788POPC   D2A38380  10.493  32.984   6.455
 2788POPC   C3A38381  10.650  33.053   6.862
 2788POPC   C4A38382  10.515  33.198   7.236
 2788POPC   C1B38383  10.049  32.972   6.166
 2788POPC   C2B38384  10.039  32.774   6.575
 2788POPC   C3B38385  10.230  32.726   6.966
 2788POPC   C4B38386  10.205  32.840   7.390
 2789POPC   NC338387  40.517   4.993   5.512
 2789POPC   PO438388  40.927   5.470   5.260
 2789POPC   GL138389  40.947   5.252   5.676
 2789POPC   GL238390  41.193   4.990   5.727
 2789POPC   C1A38391  40.961   5.357   6.130
 2789POPC   D2A38392  41.107   5.457   6.556
 2789POPC   C3A38393  40.964   5.149   6.866
 2789POPC   C4A38394  40.746   5.076   7.239
 2789POPC   C1B38395  40.882   4.844   6.065
 2789POPC   C2B38396  40.719   4.742   6.494
 2789POPC   C3B38397  40.525   4.781   6.904
 2789POPC   C4B38398  40.449   4.580   7.313
 2790POPC   NC338399   0.183  28.914   4.920
 2790POPC   PO438400   0.591  29.127   5.393
 2790POPC   GL138401   0.262  28.885   5.586
 2790POPC   GL238402   0.019  29.126   5.719
 2790POPC   C1A38403   0.307  28.800   6.035
 2790POPC   D2A38404   0.497  29.014   6.422
 2790POPC   C3A38405   0.280  28.971   6.810
 2790POPC   C4A38406   0.380  29.178   7.178
 2790POPC   C1B38407   0.185  29.304   6.117
 2790POPC   C2B38408   0.025  29.540   6.474
 2790POPC   C3B38409   0.164  29.552   6.910
 2790POPC   C4B38410   0.094  29.600   7.362
 2791POPC   NC338411   3.290   7.036   5.160
 2791POPC   PO438412   3.663   7.595   5.455
 2791POPC   GL138413   3.447   7.469   5.821
 2791POPC   GL238414   3.096   7.605   5.776
 2791POPC   C1A38415   3.490   7.272   6.246
 2791POPC   D2A38416   3.558   7.473   6.626
 2791POPC   C3A38417   3.509   7.252   7.003
 2791POPC   C4A38418   3.552   7.331   7.450
 2791POPC   C1B38419   3.232   7.724   6.212
 2791POPC   C2B38420   3.394   7.961   6.544
 2791POPC   C3B38421   3.206   7.814   6.907
 2791POPC   C4B38422   3.126   7.506   7.237
 2792POPC   NC338423   5.235  13.528   5.402
 2792POPC   PO438424   4.787  13.920   5.430
 2792POPC   GL138425   4.891  13.592   5.789
 2792POPC   GL238426   4.832  13.228   5.810
 2792POPC   C1A38427   5.041  13.530   6.269
 2792POPC   D2A38428   5.205  13.592   6.737
 2792POPC   C3A38429   5.074  13.710   7.183
 2792POPC   C4A38430   5.160  13.760   7.655
 2792POPC   C1B38431   4.879  13.052   6.221
 2792POPC   C2B38432   4.933  13.171   6.652
 2792POPC   C3B38433   4.885  13.248   7.101
 2792POPC   C4B38434   4.760  13.466   7.527
 2793POPC   NC338435   0.762   3.263   5.392
 2793POPC   PO438436   0.452   3.871   5.268
 2793POPC   GL138437   0.242   3.694   5.679
 2793POPC   GL238438   0.360   3.367   5.765
 2793POPC   C1A38439   0.027   3.569   6.105
 2793POPC   D2A38440   0.164   3.348   6.469
 2793POPC   C3A38441   0.030   3.523   6.875
 2793POPC   C4A38442   0.298   3.696   7.189
 2793POPC   C1B38443   0.543   3.609   6.111
 2793POPC   C2B38444   0.762   3.568   6.495
 2793POPC   C3B38445   0.656   3.415   6.912
 2793POPC   C4B38446   0.680   3.401   7.372
 2794POPC   NC338447  29.654  29.973   5.360
 2794POPC   PO438448  30.350  29.751   5.331
 2794POPC   GL138449  30.091  29.710   5.729
 2794POPC   GL238450  29.990  30.063   5.756
 2794POPC   C1A38451  29.913  29.787   6.182
 2794POPC   D2A38452  29.889  30.030   6.603
 2794POPC   C3A38453  29.786  29.747   6.958
 2794POPC   C4A38454  29.988  29.482   7.266
 2794POPC   C1B38455  29.866  30.301   6.131
 2794POPC   C2B38456  29.766  30.611   6.455
 2794POPC   C3B38457  29.860  30.532   6.861
 2794POPC   C4B38458  30.040  30.186   7.101
 2795POPC   NC338459  30.246  19.563   5.400
 2795POPC   PO438460  29.638  19.598   5.534
 2795POPC   GL138461  29.781  19.936   5.751
 2795POPC   GL238462  30.114  19.990   5.700
 2795POPC   C1A38463  29.814  19.941   6.149
 2795POPC   D2A38464  29.689  19.856   6.520
 2795POPC   C3A38465  29.932  19.743   6.834
 2795POPC   C4A38466  29.782  19.822   7.250
 2795POPC   C1B38467  30.229  20.209   6.082
 2795POPC   C2B38468  30.144  20.108   6.528
 2795POPC   C3B38469  29.976  20.233   6.955
 2795POPC   C4B38470  30.200  20.098   7.313
 2796POPC   NC338471   0.360  13.277   5.513
 2796POPC   PO438472   0.527  13.899   5.234
 2796POPC   GL138473   0.588  13.784   5.668
 2796POPC   GL238474   0.791  13.477   5.754
 2796POPC   C1A38475   0.599  13.870   6.125
 2796POPC   D2A38476   0.375  13.681   6.474
 2796POPC   C3A38477   0.403  13.796   6.922
 2796POPC   C4A38478   0.320  13.606   7.342
 2796POPC   C1B38479   0.691  13.295   6.178
 2796POPC   C2B38480   0.680  13.284   6.649
 2796POPC   C3B38481   0.710  13.408   7.075
 2796POPC   C4B38482   0.872  13.838   7.155
 2797POPC   NC338483  39.975  26.486   5.377
 2797POPC   PO438484  40.367  26.964   5.524
 2797POPC   GL138485  40.083  26.811   5.840
 2797POPC   GL238486  40.122  26.455   5.869
 2797POPC   C1A38487  39.872  26.939   6.238
 2797POPC   D2A38488  39.862  27.001   6.694
 2797POPC   C3A38489  40.016  27.038   7.114
 2797POPC   C4A38490  40.305  26.833   7.373
 2797POPC   C1B38491  39.886  26.437   6.232
 2797POPC   C2B38492  40.086  26.511   6.624
 2797POPC   C3B38493  39.939  26.534   7.049
 2797POPC   C4B38494  39.589  26.365   7.287
 2798POPC   NC338495   1.139  35.818   5.673
 2798POPC   PO438496   0.956  35.178   5.439
 2798POPC   GL138497   1.167  35.322   5.789
 2798POPC   GL238498   0.918  35.441   5.959
 2798POPC   C1A38499   1.313  35.182   6.199
 2798POPC   D2A38500   1.088  35.047   6.547
 2798POPC   C3A38501   1.078  35.231   6.995
 2798POPC   C4A38502   1.477  35.346   7.133
 2798POPC   C1B38503   1.106  35.642   6.305
 2798POPC   C2B38504   1.276  35.598   6.694
 2798POPC   C3B38505   1.145  35.739   7.100
 2798POPC   C4B38506   0.780  35.564   7.304
 2799POPC   NC338507  34.869  27.343   5.515
 2799POPC   PO438508  34.169  27.338   5.406
 2799POPC   GL138509  34.355  27.262   5.820
 2799POPC   GL238510  34.608  26.975   5.881
 2799POPC   C1A38511  34.425  27.591   6.109
 2799POPC   D2A38512  34.507  27.616   6.528
 2799POPC   C3A38513  34.373  27.285   6.744
 2799POPC   C4A38514  34.157  27.361   7.119
 2799POPC   C1B38515  34.682  27.183   6.290
 2799POPC   C2B38516  35.084  27.260   6.532
 2799POPC   C3B38517  35.034  27.288   6.966
 2799POPC   C4B38518  34.678  27.562   7.091
 2800POPC   NC338519  33.768   9.421   5.419
 2800POPC   PO438520  33.557   8.781   5.416
 2800POPC   GL138521  33.829   8.950   5.757
 2800POPC   GL238522  34.183   9.065   5.610
 2800POPC   C1A38523  33.730   8.957   6.226
 2800POPC   D2A38524  33.607   8.744   6.632
 2800POPC   C3A38525  33.955   8.815   6.914
 2800POPC   C4A38526  33.784   9.230   6.953
 2800POPC   C1B38527  34.337   9.138   6.046
 2800POPC   C2B38528  34.403   9.150   6.521
 2800POPC   C3B38529  34.306   9.273   6.965
 2800POPC   C4B38530  34.131   9.106   7.318
 2801POPC   NC338531  26.646  24.215   5.450
 2801POPC   PO438532  26.698  23.598   5.339
 2801POPC   GL138533  26.832  23.777   5.703
 2801POPC   GL238534  27.069  23.959   5.664
 2801POPC   C1A38535  26.918  23.634   6.103
 2801POPC   D2A38536  27.128  23.587   6.475
 2801POPC   C3A38537  26.917  23.473   6.845
 2801POPC   C4A38538  26.683  23.714   7.159
 2801POPC   C1B38539  26.922  24.146   6.063
 2801POPC   C2B38540  26.865  24.041   6.459
 2801POPC   C3B38541  26.975  23.974   6.854
 2801POPC   C4B38542  27.010  24.218   7.224
 2802POPC   NC338543  34.114  39.165   5.381
 2802POPC   PO438544  33.496  39.161   5.442
 2802POPC   GL138545  33.758  39.337   5.772
 2802POPC   GL238546  34.091  39.313   5.853
 2802POPC   C1A38547  33.694  39.517   6.179
 2802POPC   D2A38548  33.557  39.345   6.557
 2802POPC   C3A38549  33.700  39.475   6.951
 2802POPC   C4A38550  33.566  39.415   7.333
 2802POPC   C1B38551  33.976  39.113   6.251
 2802POPC   C2B38552  34.025  39.138   6.690
 2802POPC   C3B38553  34.146  39.237   7.080
 2802POPC   C4B38554  33.915  39.037   7.388
 2803POPC   NC338555  36.516   3.443   5.713
 2803POPC   PO438556  37.152   3.659   5.302
 2803POPC   GL138557  37.055   3.550   5.721
 2803POPC   GL238558  36.974   3.836   5.919
 2803POPC   C1A38559  37.202   3.447   6.159
 2803POPC   D2A38560  37.167   3.313   6.579
 2803POPC   C3A38561  36.744   3.285   6.750
 2803POPC   C4A38562  36.660   3.304   7.179
 2803POPC   C1B38563  36.684   3.932   6.253
 2803POPC   C2B38564  36.863   3.750   6.595
 2803POPC   C3B38565  36.998   3.690   7.006
 2803POPC   C4B38566  36.705   3.928   7.246
 2804POPC   NC338567   3.997  44.471   5.463
 2804POPC   PO438568   4.544  44.879   5.299
 2804POPC   GL138569   4.465  44.674   5.719
 2804POPC   GL238570   4.365  44.904   5.982
 2804POPC   C1A38571   4.541  44.420   6.128
 2804POPC   D2A38572   4.574  44.377   6.604
 2804POPC   C3A38573   4.385  44.617   6.952
 2804POPC   C4A38574   4.389   0.026   7.168
 2804POPC   C1B38575   4.077  44.625   6.215
 2804POPC   C2B38576   3.990  44.381   6.570
 2804POPC   C3B38577   3.843  44.593   6.917
 2804POPC   C4B38578   4.001  44.648   7.309
 2805POPC   NC338579  35.802  11.728   5.402
 2805POPC   PO438580  36.256  12.179   5.317
 2805POPC   GL138581  36.002  12.199   5.696
 2805POPC   GL238582  36.308  12.325   5.840
 2805POPC   C1A38583  35.981  11.974   6.087
 2805POPC   D2A38584  36.137  11.847   6.486
 2805POPC   C3A38585  36.086  12.089   6.866
 2805POPC   C4A38586  36.132  11.914   7.250
 2805POPC   C1B38587  36.069  12.477   6.164
 2805POPC   C2B38588  35.933  12.464   6.558
 2805POPC   C3B38589  35.921  12.576   6.990
 2805POPC   C4B38590  35.836  12.298   7.362
 2806POPC   NC338591  40.664  20.594   5.483
 2806POPC   PO438592  39.951  20.505   5.488
 2806POPC   GL138593  40.009  20.554   5.878
 2806POPC   GL238594  40.365  20.640   5.918
 2806POPC   C1A38595  39.909  20.326   6.209
 2806POPC   D2A38596  40.058  20.305   6.593
 2806POPC   C3A38597  39.965  20.581   6.869
 2806POPC   C4A38598  39.984  20.405   7.253
 2806POPC   C1B38599  40.188  20.734   6.330
 2806POPC   C2B38600  39.826  20.941   6.510
 2806POPC   C3B38601  39.829  21.107   6.898
 2806POPC   C4B38602  40.107  20.960   7.214
 2807POPC   NC338603  10.180  39.158   5.446
 2807POPC   PO438604   9.530  39.188   5.277
 2807POPC   GL138605   9.474  39.268   5.720
 2807POPC   GL238606   9.693  39.012   5.753
 2807POPC   C1A38607   9.549  39.220   6.202
 2807POPC   D2A38608   9.878  39.327   6.511
 2807POPC   C3A38609   9.814  39.461   6.944
 2807POPC   C4A38610   9.589  39.304   7.286
 2807POPC   C1B38611   9.953  38.893   6.079
 2807POPC   C2B38612   9.830  38.834   6.479
 2807POPC   C3B38613   9.773  38.950   6.896
 2807POPC   C4B38614   9.745  38.784   7.303
 2808POPC   NC338615  18.608  44.998   5.335
 2808POPC   PO438616  18.090  44.536   5.164
 2808POPC   GL138617  18.181  44.591   5.651
 2808POPC   GL238618  18.539  44.533   5.760
 2808POPC   C1A38619  18.091  44.782   6.108
 2808POPC   D2A38620  17.818  44.802   6.492
 2808POPC   C3A38621  18.061  44.972   6.837
 2808POPC   C4A38622  18.234  44.994   7.279
 2808POPC   C1B38623  18.429  44.399   6.197
 2808POPC   C2B38624  18.261  44.481   6.609
 2808POPC   C3B38625  18.439  44.610   7.026
 2808POPC   C4B38626  18.637  44.461   7.432
 2809POPC   NC338627  23.230  34.540   5.459
 2809POPC   PO438628  22.560  34.833   5.350
 2809POPC   GL138629  22.817  34.829   5.731
 2809POPC   GL238630  22.867  34.487   5.819
 2809POPC   C1A38631  22.832  34.816   6.210
 2809POPC   D2A38632  22.972  34.639   6.611
 2809POPC   C3A38633  22.914  34.801   7.025
 2809POPC   C4A38634  22.784  34.591   7.434
 2809POPC   C1B38635  22.929  34.303   6.225
 2809POPC   C2B38636  23.178  34.185   6.600
 2809POPC   C3B38637  23.111  34.334   7.039
 2809POPC   C4B38638  23.248  34.236   7.460
 2810POPC   NC338639  35.486  25.001   5.147
 2810POPC   PO438640  35.049  25.251   5.540
 2810POPC   GL138641  35.424  25.169   5.747
 2810POPC   GL238642  35.486  25.454   5.938
 2810POPC   C1A38643  35.326  25.047   6.183
 2810POPC   D2A38644  35.295  25.296   6.557
 2810POPC   C3A38645  35.052  25.141   6.887
 2810POPC   C4A38646  35.091  25.139   7.288
 2810POPC   C1B38647  35.616  25.623   6.324
 2810POPC   C2B38648  35.791  25.579   6.713
 2810POPC   C3B38649  35.585  25.340   7.004
 2810POPC   C4B38650  35.562  25.195   7.420
 2811POPC   NC338651  35.499  27.383   5.236
 2811POPC   PO438652  35.060  27.790   5.443
 2811POPC   GL138653  35.284  27.493   5.772
 2811POPC   GL238654  35.088  27.221   5.965
 2811POPC   C1A38655  35.448  27.502   6.219
 2811POPC   D2A38656  35.468  27.730   6.626
 2811POPC   C3A38657  35.537  27.449   6.975
 2811POPC   C4A38658  35.382  27.330   7.365
 2811POPC   C1B38659  34.952  27.628   6.209
 2811POPC   C2B38660  34.967  27.743   6.683
 2811POPC   C3B38661  35.160  27.781   7.108
 2811POPC   C4B38662  35.107  27.727   7.558
 2812POPC   NC338663  23.150  22.373   5.019
 2812POPC   PO438664  22.689  22.229   5.454
 2812POPC   GL138665  22.622  22.098   5.900
 2812POPC   GL238666  22.938  22.058   6.090
 2812POPC   C1A38667  22.444  22.087   6.302
 2812POPC   D2A38668  22.509  21.942   6.739
 2812POPC   C3A38669  22.681  22.192   7.060
 2812POPC   C4A38670  22.796  22.104   7.497
 2812POPC   C1B38671  23.312  22.252   6.286
 2812POPC   C2B38672  23.363  22.372   6.705
 2812POPC   C3B38673  23.185  22.230   7.074
 2812POPC   C4B38674  23.311  21.993   7.421
 2813POPC   NC338675  15.753  19.684   5.552
 2813POPC   PO438676  16.434  19.845   5.399
 2813POPC   GL138677  16.182  19.688   5.812
 2813POPC   GL238678  16.009  20.004   5.848
 2813POPC   C1A38679  15.964  19.671   6.232
 2813POPC   D2A38680  16.026  19.890   6.609
 2813POPC   C3A38681  16.141  19.739   6.987
 2813POPC   C4A38682  15.864  19.722   7.306
 2813POPC   C1B38683  15.811  20.185   6.262
 2813POPC   C2B38684  15.539  20.200   6.650
 2813POPC   C3B38685  15.627  20.159   7.103
 2813POPC   C4B38686  15.558  20.086   7.576
 2814POPC   NC338687  28.063  38.179   5.011
 2814POPC   PO438688  28.531  38.412   5.416
 2814POPC   GL138689  28.352  38.524   5.811
 2814POPC   GL238690  28.083  38.359   5.951
 2814POPC   C1A38691  28.373  38.782   6.135
 2814POPC   D2A38692  28.566  38.655   6.482
 2814POPC   C3A38693  28.367  38.612   6.827
 2814POPC   C4A38694  28.490  38.665   7.204
 2814POPC   C1B38695  28.378  38.187   6.258
 2814POPC   C2B38696  28.300  37.992   6.672
 2814POPC   C3B38697  28.374  38.117   7.106
 2814POPC   C4B38698  28.671  38.237   7.401
 2815POPC   NC338699  32.404   8.157   5.295
 2815POPC   PO438700  31.806   8.464   5.242
 2815POPC   GL138701  32.082   8.326   5.697
 2815POPC   GL238702  32.378   8.080   5.780
 2815POPC   C1A38703  32.241   8.294   6.202
 2815POPC   D2A38704  32.507   8.269   6.590
 2815POPC   C3A38705  32.277   8.227   7.003
 2815POPC   C4A38706  32.334   8.310   7.453
 2815POPC   C1B38707  32.516   7.837   6.137
 2815POPC   C2B38708  32.340   7.764   6.519
 2815POPC   C3B38709  32.551   7.830   6.858
 2815POPC   C4B38710  32.578   7.871   7.265
 2816POPC   NC338711  35.580   9.182   5.315
 2816POPC   PO438712  36.227   9.053   5.229
 2816POPC   GL138713  36.125   8.944   5.654
 2816POPC   GL238714  35.912   9.204   5.694
 2816POPC   C1A38715  36.280   8.947   6.089
 2816POPC   D2A38716  36.242   8.698   6.482
 2816POPC   C3A38717  36.021   8.882   6.833
 2816POPC   C4A38718  36.310   9.000   7.131
 2816POPC   C1B38719  35.954   9.342   6.103
 2816POPC   C2B38720  36.132   9.240   6.509
 2816POPC   C3B38721  35.910   9.359   6.912
 2816POPC   C4B38722  36.029   9.392   7.298
 2817POPC   NC338723   0.965   0.582   5.499
 2817POPC   PO438724   1.599   0.833   5.511
 2817POPC   GL138725   1.288   0.787   5.830
 2817POPC   GL238726   1.369   0.436   5.837
 2817POPC   C1A38727   1.046   0.576   6.212
 2817POPC   D2A38728   1.144   0.204   6.528
 2817POPC   C3A38729   1.062   0.340   6.972
 2817POPC   C4A38730   1.235   0.676   7.264
 2817POPC   C1B38731   1.543   0.654   6.226
 2817POPC   C2B38732   1.547   0.505   6.633
 2817POPC   C3B38733   1.568   0.176   6.898
 2817POPC   C4B38734   1.405   0.182   7.307
 2818POPC   NC338735  39.970  35.697   5.571
 2818POPC   PO438736  39.617  36.224   5.379
 2818POPC   GL138737  39.931  36.155   5.789
 2818POPC   GL238738  40.192  35.925   5.947
 2818POPC   C1A38739  40.056  36.337   6.174
 2818POPC   D2A38740  39.971  36.244   6.586
 2818POPC   C3A38741  40.189  36.315   6.941
 2818POPC   C4A38742  39.960  36.093   7.247
 2818POPC   C1B38743  40.109  35.820   6.368
 2818POPC   C2B38744  40.401  35.913   6.710
 2818POPC   C3B38745  40.440  35.928   7.187
 2818POPC   C4B38746  40.268  35.839   7.612
 2819POPC   NC338747  11.520   9.353   5.509
 2819POPC   PO438748  11.631   9.988   5.323
 2819POPC   GL138749  11.397   9.831   5.721
 2819POPC   GL238750  11.092   9.572   5.713
 2819POPC   C1A38751  11.416   9.738   6.182
 2819POPC   D2A38752  11.312   9.899   6.609
 2819POPC   C3A38753  11.538   9.649   6.914
 2819POPC   C4A38754  11.731   9.628   7.295
 2819POPC   C1B38755  10.967   9.455   6.147
 2819POPC   C2B38756  11.151   9.401   6.577
 2819POPC   C3B38757  11.037   9.544   7.013
 2819POPC   C4B38758  11.162   9.593   7.465
 2820POPC   NC338759  18.937   1.033   5.361
 2820POPC   PO438760  19.192   1.644   5.484
 2820POPC   GL138761  19.134   1.315   5.842
 2820POPC   GL238762  18.792   1.209   5.858
 2820POPC   C1A38763  19.351   1.046   6.212
 2820POPC   D2A38764  19.274   0.917   6.678
 2820POPC   C3A38765  19.168   1.159   7.076
 2820POPC   C4A38766  19.223   1.293   7.507
 2820POPC   C1B38767  18.740   1.418   6.245
 2820POPC   C2B38768  18.880   1.276   6.650
 2820POPC   C3B38769  18.652   1.277   7.012
 2820POPC   C4B38770  18.710   1.690   7.051
 2821POPC   NC338771  16.909  39.785   5.504
 2821POPC   PO438772  16.566  40.353   5.537
 2821POPC   GL138773  16.871  40.165   5.834
 2821POPC   GL238774  16.614  39.931   5.891
 2821POPC   C1A38775  16.966  39.854   6.220
 2821POPC   D2A38776  17.008  39.996   6.650
 2821POPC   C3A38777  16.930  39.741   7.016
 2821POPC   C4A38778  16.837  39.939   7.406
 2821POPC   C1B38779  16.557  40.209   6.223
 2821POPC   C2B38780  16.480  40.085   6.611
 2821POPC   C3B38781  16.583  40.117   6.993
 2821POPC   C4B38782  16.652  40.421   7.268
 2822POPC   NC338783  20.460  31.711   5.460
 2822POPC   PO438784  20.405  32.375   5.515
 2822POPC   GL138785  20.410  32.314   5.934
 2822POPC   GL238786  20.268  32.008   5.874
 2822POPC   C1A38787  20.616  32.271   6.334
 2822POPC   D2A38788  20.512  32.487   6.727
 2822POPC   C3A38789  20.766  32.524   7.089
 2822POPC   C4A38790  20.672  32.398   7.506
 2822POPC   C1B38791  20.299  31.882   6.328
 2822POPC   C2B38792  20.456  31.972   6.740
 2822POPC   C3B38793  20.608  32.036   7.149
 2822POPC   C4B38794  20.546  31.890   7.595
 2823POPC   NC338795   5.382   8.726   5.374
 2823POPC   PO438796   4.872   9.101   5.561
 2823POPC   GL138797   5.076   8.824   5.806
 2823POPC   GL238798   5.404   8.937   5.864
 2823POPC   C1A38799   5.143   8.594   6.187
 2823POPC   D2A38800   5.300   8.595   6.596
 2823POPC   C3A38801   5.068   8.940   6.762
 2823POPC   C4A38802   4.902   9.197   7.095
 2823POPC   C1B38803   5.116   9.137   6.225
 2823POPC   C2B38804   5.120   9.431   6.594
 2823POPC   C3B38805   5.371   9.398   6.949
 2823POPC   C4B38806   5.377   9.020   7.185
 2824POPC   NC338807  43.493   2.257   5.102
 2824POPC   PO438808  42.921   1.943   5.382
 2824POPC   GL138809  43.054   2.132   5.718
 2824POPC   GL238810  43.392   2.168   5.627
 2824POPC   C1A38811  42.899   2.130   6.129
 2824POPC   D2A38812  42.694   2.146   6.520
 2824POPC   C3A38813  42.752   1.824   6.821
 2824POPC   C4A38814  42.863   1.959   7.214
 2824POPC   C1B38815  43.410   1.934   6.048
 2824POPC   C2B38816  43.221   1.893   6.459
 2824POPC   C3B38817  43.267   1.959   6.887
 2824POPC   C4B38818  43.301   1.664   7.241
 2825POPC   NC338819   8.295  22.039   5.198
 2825POPC   PO438820   7.999  22.628   5.224
 2825POPC   GL138821   8.084  22.440   5.657
 2825POPC   GL238822   8.259  22.100   5.715
 2825POPC   C1A38823   8.223  22.465   6.111
 2825POPC   D2A38824   8.191  22.258   6.515
 2825POPC   C3A38825   8.083  22.421   6.912
 2825POPC   C4A38826   8.306  22.284   7.258
 2825POPC   C1B38827   8.387  21.952   6.135
 2825POPC   C2B38828   8.516  21.873   6.576
 2825POPC   C3B38829   8.247  21.884   6.937
 2825POPC   C4B38830   8.345  21.789   7.376
 2826POPC   NC338831   9.266  37.988   5.472
 2826POPC   PO438832   8.974  37.388   5.454
 2826POPC   GL138833   9.202  37.582   5.804
 2826POPC   GL238834   9.022  37.897   5.917
 2826POPC   C1A38835   9.332  37.662   6.231
 2826POPC   D2A38836   9.042  37.831   6.510
 2826POPC   C3A38837   9.082  37.612   6.925
 2826POPC   C4A38838   8.926  37.405   7.316
 2826POPC   C1B38839   8.707  38.096   6.187
 2826POPC   C2B38840   8.556  38.017   6.576
 2826POPC   C3B38841   8.799  38.045   6.912
 2826POPC   C4B38842   8.964  37.975   7.292
 2827POPC   NC338843  13.972  44.250   5.501
 2827POPC   PO438844  13.898  43.569   5.315
 2827POPC   GL138845  13.656  43.872   5.701
 2827POPC   GL238846  13.657  44.260   5.893
 2827POPC   C1A38847  13.426  43.882   6.129
 2827POPC   D2A38848  13.555  43.789   6.554
 2827POPC   C3A38849  13.346  43.874   6.950
 2827POPC   C4A38850  13.503  43.752   7.345
 2827POPC   C1B38851  13.402  44.406   6.270
 2827POPC   C2B38852  13.408  44.353   6.760
 2827POPC   C3B38853  13.656  44.241   7.145
 2827POPC   C4B38854  14.117  44.275   7.258
 2828POPC   NC338855  28.565  21.934   5.330
 2828POPC   PO438856  28.132  22.381   5.379
 2828POPC   GL138857  28.219  22.083   5.701
 2828POPC   GL238858  28.546  22.096   5.818
 2828POPC   C1A38859  28.147  21.926   6.123
 2828POPC   D2A38860  28.095  22.155   6.525
 2828POPC   C3A38861  28.304  22.243   6.921
 2828POPC   C4A38862  28.145  22.424   7.309
 2828POPC   C1B38863  28.488  22.275   6.226
 2828POPC   C2B38864  28.659  22.074   6.595
 2828POPC   C3B38865  28.798  22.104   7.021
 2828POPC   C4B38866  28.875  22.439   7.328
 2829POPC   NC338867   6.055  20.604   5.405
 2829POPC   PO438868   6.682  20.486   5.272
 2829POPC   GL138869   6.659  20.733   5.705
 2829POPC   GL238870   6.341  20.705   5.850
 2829POPC   C1A38871   6.890  20.820   6.134
 2829POPC   D2A38872   6.831  20.598   6.576
 2829POPC   C3A38873   6.892  20.785   7.027
 2829POPC   C4A38874   6.806  20.611   7.463
 2829POPC   C1B38875   6.422  20.775   6.300
 2829POPC   C2B38876   6.299  20.688   6.709
 2829POPC   C3B38877   6.340  20.713   7.165
 2829POPC   C4B38878   6.229  20.868   7.564
 2830POPC   NC338879  21.037   0.274   5.538
 2830POPC   PO438880  20.394   0.154   5.382
 2830POPC   GL138881  20.566   0.427   5.740
 2830POPC   GL238882  20.591   0.783   5.885
 2830POPC   C1A38883  20.808   0.312   6.130
 2830POPC   D2A38884  20.745   0.405   6.532
 2830POPC   C3A38885  20.543   0.098   6.833
 2830POPC   C4A38886  20.667   0.095   7.268
 2830POPC   C1B38887  20.360   0.543   6.220
 2830POPC   C2B38888  20.243   0.492   6.653
 2830POPC   C3B38889  20.579   0.606   6.959
 2830POPC   C4B38890  20.547   0.648   7.361
 2831POPC   NC338891  41.735   1.786   5.400
 2831POPC   PO438892  41.313   2.320   5.477
 2831POPC   GL138893  41.424   2.178   5.885
 2831POPC   GL238894  41.594   1.834   5.896
 2831POPC   C1A38895  41.373   2.023   6.321
 2831POPC   D2A38896  41.477   1.897   6.748
 2831POPC   C3A38897  41.387   2.213   7.069
 2831POPC   C4A38898  41.425   2.221   7.519
 2831POPC   C1B38899  41.843   2.151   6.170
 2831POPC   C2B38900  41.771   2.360   6.590
 2831POPC   C3B38901  41.886   2.184   6.989
 2831POPC   C4B38902  41.880   2.421   7.362
 2832POPC   NC338903  42.126  38.771   5.470
 2832POPC   PO438904  42.483  38.234   5.370
 2832POPC   GL138905  42.316  38.092   5.751
 2832POPC   GL238906  42.029  38.297   5.745
 2832POPC   C1A38907  42.211  38.106   6.197
 2832POPC   D2A38908  42.469  38.073   6.560
 2832POPC   C3A38909  42.258  38.190   6.912
 2832POPC   C4A38910  42.461  38.260   7.278
 2832POPC   C1B38911  42.289  38.591   6.055
 2832POPC   C2B38912  42.335  38.599   6.511
 2832POPC   C3B38913  42.333  38.730   6.941
 2832POPC   C4B38914  42.017  38.551   7.215
 2833POPC   NC338915  20.329  25.318   5.361
 2833POPC   PO438916  21.013  25.370   5.292
 2833POPC   GL138917  20.898  25.319   5.795
 2833POPC   GL238918  20.553  25.411   5.876
 2833POPC   C1A38919  20.790  25.208   6.281
 2833POPC   D2A38920  20.637  25.391   6.700
 2833POPC   C3A38921  20.701  25.247   7.170
 2833POPC   C4A38922  20.542  25.189   7.631
 2833POPC   C1B38923  20.346  25.628   6.226
 2833POPC   C2B38924  20.146  25.485   6.599
 2833POPC   C3B38925  20.235  25.635   7.004
 2833POPC   C4B38926  20.405  25.667   7.401
 2834POPC   NC338927  42.921  17.057   5.502
 2834POPC   PO438928  43.454  16.640   5.368
 2834POPC   GL138929  43.052  16.577   5.671
 2834POPC   GL238930  42.854  16.801   5.923
 2834POPC   C1A38931  43.025  16.348   6.058
 2834POPC   D2A38932  43.283  16.325   6.434
 2834POPC   C3A38933  43.180  16.603   6.755
 2834POPC   C4A38934  43.206  16.639   7.198
 2834POPC   C1B38935  43.219  16.817   6.193
 2834POPC   C2B38936  43.222  17.078   6.544
 2834POPC   C3B38937  43.335  17.079   6.954
 2834POPC   C4B38938  43.120  17.114   7.328
 2835POPC   NC338939  22.582  24.616   5.592
 2835POPC   PO438940  22.098  24.256   5.330
 2835POPC   GL138941  22.139  24.424   5.794
 2835POPC   GL238942  22.073  24.770   5.878
 2835POPC   C1A38943  22.342  24.429   6.239
 2835POPC   D2A38944  22.272  24.478   6.701
 2835POPC   C3A38945  22.385  24.132   7.014
 2835POPC   C4A38946  22.195  24.006   7.440
 2835POPC   C1B38947  21.885  24.642   6.296
 2835POPC   C2B38948  21.768  24.328   6.601
 2835POPC   C3B38949  21.897  24.356   7.031
 2835POPC   C4B38950  22.010  24.790   7.071
 2836POPC   NC338951  35.576  33.599   5.393
 2836POPC   PO438952  35.583  34.202   5.207
 2836POPC   GL138953  35.382  34.039   5.650
 2836POPC   GL238954  35.347  33.682   5.831
 2836POPC   C1A38955  35.307  34.054   6.153
 2836POPC   D2A38956  35.345  33.733   6.515
 2836POPC   C3A38957  35.337  33.823   6.986
 2836POPC   C4A38958  35.567  33.810   7.397
 2836POPC   C1B38959  35.644  33.488   6.151
 2836POPC   C2B38960  35.692  33.298   6.593
 2836POPC   C3B38961  35.627  33.370   7.073
 2836POPC   C4B38962  35.608  33.300   7.540
 2837POPC   NC338963  18.754  31.888   5.581
 2837POPC   PO438964  18.010  31.806   5.604
 2837POPC   GL138965  18.358  31.482   5.745
 2837POPC   GL238966  18.224  31.135   5.758
 2837POPC   C1A38967  18.574  31.504   6.162
 2837POPC   D2A38968  18.462  31.676   6.582
 2837POPC   C3A38969  18.434  31.417   6.916
 2837POPC   C4A38970  18.454  31.515   7.319
 2837POPC   C1B38971  18.144  31.223   6.212
 2837POPC   C2B38972  18.016  31.430   6.617
 2837POPC   C3B38973  17.978  31.552   7.088
 2837POPC   C4B38974  17.973  31.487   7.579
 2838POPC   NC338975   0.766   1.530   5.609
 2838POPC   PO438976   0.683   1.019   5.155
 2838POPC   GL138977   0.431   1.129   5.611
 2838POPC   GL238978   0.548   0.865   5.791
 2838POPC   C1A38979   0.443   1.294   6.120
 2838POPC   D2A38980   0.623   1.604   6.473
 2838POPC   C3A38981   0.611   1.456   6.918
 2838POPC   C4A38982   0.452   1.071   7.100
 2838POPC   C1B38983   0.561   0.806   6.225
 2838POPC   C2B38984   0.572   1.045   6.593
 2838POPC   C3B38985   0.890   0.920   6.905
 2838POPC   C4B38986   0.732   0.650   7.236
 2839POPC   NC338987   1.378  34.987   5.414
 2839POPC   PO438988   0.949  34.466   5.477
 2839POPC   GL138989   0.998  34.499   5.888
 2839POPC   GL238990   1.136  34.820   5.833
 2839POPC   C1A38991   1.044  34.595   6.308
 2839POPC   D2A38992   1.188  34.332   6.636
 2839POPC   C3A38993   1.203  34.458   7.064
 2839POPC   C4A38994   0.827  34.439   7.318
 2839POPC   C1B38995   1.493  34.719   6.052
 2839POPC   C2B38996   1.513  34.696   6.486
 2839POPC   C3B38997   1.435  34.895   6.877
 2839POPC   C4B38998   1.323  34.877   7.316
 2840POPC   NC338999  14.175   8.415   5.324
 2840POPC   PO439000  14.634   8.033   5.420
 2840POPC   GL139001  14.418   8.256   5.815
 2840POPC   GL239002  14.025   8.324   5.825
 2840POPC   C1A39003  14.620   8.373   6.253
 2840POPC   D2A39004  14.632   8.484   6.705
 2840POPC   C3A39005  14.486   8.247   7.066
 2840POPC   C4A39006  14.537   8.301   7.513
 2840POPC   C1B39007  14.116   8.383   6.270
 2840POPC   C2B39008  14.235   8.143   6.615
 2840POPC   C3B39009  14.060   7.986   6.994
 2840POPC   C4B39010  14.030   8.255   7.347
 2841POPC   NC339011  32.673  28.308   5.053
 2841POPC   PO439012  32.079  28.560   5.308
 2841POPC   GL139013  32.280  28.324   5.688
 2841POPC   GL239014  32.466  28.550   5.891
 2841POPC   C1A39015  32.178  28.225   6.173
 2841POPC   D2A39016  31.983  28.429   6.585
 2841POPC   C3A39017  32.099  28.255   7.054
 2841POPC   C4A39018  31.877  28.098   7.448
 2841POPC   C1B39019  32.532  28.566   6.320
 2841POPC   C2B39020  32.464  28.448   6.732
 2841POPC   C3B39021  32.532  28.573   7.128
 2841POPC   C4B39022  32.799  28.431   7.456
 2842POPC   NC339023  24.092   3.129   5.383
 2842POPC   PO439024  23.607   3.529   5.359
 2842POPC   GL139025  23.593   3.573   5.803
 2842POPC   GL239026  23.760   3.314   5.890
 2842POPC   C1A39027  23.540   3.593   6.267
 2842POPC   D2A39028  23.735   3.445   6.645
 2842POPC   C3A39029  23.559   3.601   7.035
 2842POPC   C4A39030  23.800   3.922   7.220
 2842POPC   C1B39031  24.080   3.171   6.123
 2842POPC   C2B39032  24.157   3.007   6.538
 2842POPC   C3B39033  23.961   3.069   6.895
 2842POPC   C4B39034  23.892   3.266   7.216
 2843POPC   NC339035  27.572  31.950   5.478
 2843POPC   PO439036  27.518  32.578   5.375
 2843POPC   GL139037  27.398  32.361   5.730
 2843POPC   GL239038  27.709  32.302   5.850
 2843POPC   C1A39039  27.304  32.246   6.138
 2843POPC   D2A39040  27.492  32.252   6.515
 2843POPC   C3A39041  27.347  32.452   6.831
 2843POPC   C4A39042  27.223  32.374   7.210
 2843POPC   C1B39043  27.722  31.964   6.158
 2843POPC   C2B39044  27.695  31.802   6.604
 2843POPC   C3B39045  27.625  32.030   7.006
 2843POPC   C4B39046  27.809  32.211   7.405
 2844POPC   NC339047  32.287  14.154   5.328
 2844POPC   PO439048  32.495  13.562   5.160
 2844POPC   GL139049  32.395  13.724   5.607
 2844POPC   GL239050  32.031  13.803   5.693
 2844POPC   C1A39051  32.391  13.689   6.077
 2844POPC   D2A39052  32.556  13.460   6.455
 2844POPC   C3A39053  32.343  13.501   6.874
 2844POPC   C4A39054  32.364  13.738   7.254
 2844POPC   C1B39055  31.968  13.986   6.135
 2844POPC   C2B39056  32.115  13.853   6.522
 2844POPC   C3B39057  32.260  14.058   6.879
 2844POPC   C4B39058  32.037  14.145   7.225
 2845POPC   NC339059  31.245  39.576   5.502
 2845POPC   PO439060  31.375  40.296   5.328
 2845POPC   GL139061  31.627  40.169   5.705
 2845POPC   GL239062  31.676  39.783   5.770
 2845POPC   C1A39063  31.808  40.143   6.122
 2845POPC   D2A39064  31.721  39.837   6.479
 2845POPC   C3A39065  31.807  39.996   6.888
 2845POPC   C4A39066  31.827  39.965   7.323
 2845POPC   C1B39067  31.349  39.888   6.101
 2845POPC   C2B39068  31.220  39.879   6.541
 2845POPC   C3B39069  31.395  39.676   6.908
 2845POPC   C4B39070  31.288  39.914   7.241
 2846POPC   NC339071   2.847  35.662   5.415
 2846POPC   PO439072   2.978  34.951   5.432
 2846POPC   GL139073   2.899  35.265   5.741
 2846POPC   GL239074   2.942  35.030   5.945
 2846POPC   C1A39075   2.800  35.489   6.164
 2846POPC   D2A39076   2.475  35.451   6.536
 2846POPC   C3A39077   2.624  35.405   6.964
 2846POPC   C4A39078   3.084  35.447   7.016
 2846POPC   C1B39079   2.704  35.013   6.269
 2846POPC   C2B39080   2.857  35.062   6.636
 2846POPC   C3B39081   2.737  34.890   6.975
 2846POPC   C4B39082   2.819  35.035   7.346
 2847POPC   NC339083  17.257  38.330   5.513
 2847POPC   PO439084  17.708  38.630   5.389
 2847POPC   GL139085  17.530  38.619   5.850
 2847POPC   GL239086  17.199  38.750   5.975
 2847POPC   C1A39087  17.597  38.402   6.301
 2847POPC   D2A39088  17.764  38.258   6.746
 2847POPC   C3A39089  17.612  38.468   7.106
 2847POPC   C4A39090  17.418  38.542   7.488
 2847POPC   C1B39091  17.086  38.408   6.282
 2847POPC   C2B39092  17.217  38.172   6.688
 2847POPC   C3B39093  17.183  38.144   7.175
 2847POPC   C4B39094  16.970  38.301   7.559
 2848POPC   NC339095  20.327  17.731   5.467
 2848POPC   PO439096  20.723  17.339   5.660
 2848POPC   GL139097  20.372  17.459   5.954
 2848POPC   GL239098  20.104  17.712   5.935
 2848POPC   C1A39099  20.472  17.363   6.366
 2848POPC   D2A39100  20.804  17.319   6.655
 2848POPC   C3A39101  20.646  17.387   7.071
 2848POPC   C4A39102  20.660  17.339   7.521
 2848POPC   C1B39103  20.297  17.842   6.321
 2848POPC   C2B39104  20.505  17.758   6.733
 2848POPC   C3B39105  20.552  17.895   7.179
 2848POPC   C4B39106  20.307  18.201   7.452
 2849POPC   NC339107  41.180  23.142   5.460
 2849POPC   PO439108  41.648  22.701   5.533
 2849POPC   GL139109  41.496  22.982   5.827
 2849POPC   GL239110  41.278  22.691   5.922
 2849POPC   C1A39111  41.392  23.067   6.253
 2849POPC   D2A39112  41.358  22.765   6.562
 2849POPC   C3A39113  41.433  22.981   6.921
 2849POPC   C4A39114  41.460  23.020   7.342
 2849POPC   C1B39115  41.722  22.675   6.170
 2849POPC   C2B39116  41.951  22.777   6.548
 2849POPC   C3B39117  41.835  22.655   6.964
 2849POPC   C4B39118  42.033  22.508   7.328
 2850POPC   NC339119  13.349  18.249   5.387
 2850POPC   PO439120  14.028  18.505   5.298
 2850POPC   GL139121  13.771  18.448   5.710
 2850POPC   GL239122  13.643  18.124   5.787
 2850POPC   C1A39123  13.652  18.491   6.180
 2850POPC   D2A39124  13.528  18.316   6.599
 2850POPC   C3A39125  13.589  18.517   7.012
 2850POPC   C4A39126  13.903  18.674   7.320
 2850POPC   C1B39127  13.551  17.978   6.179
 2850POPC   C2B39128  13.285  17.854   6.487
 2850POPC   C3B39129  13.429  17.918   6.887
 2850POPC   C4B39130  13.495  18.076   7.239
 2851POPC   NC339131   9.714  36.259   5.455
 2851POPC   PO439132   9.410  35.702   5.407
 2851POPC   GL139133   9.488  35.971   5.815
 2851POPC   GL239134   9.841  36.104   5.922
 2851POPC   C1A39135   9.529  35.991   6.280
 2851POPC   D2A39136   9.820  36.124   6.548
 2851POPC   C3A39137   9.717  35.975   6.934
 2851POPC   C4A39138   9.654  36.212   7.288
 2851POPC   C1B39139  10.032  36.450   6.173
 2851POPC   C2B39140  10.187  36.484   6.610
 2851POPC   C3B39141  10.070  36.364   7.005
 2851POPC   C4B39142  10.096  36.410   7.434
 2852POPC   NC339143  41.575   9.502   5.337
 2852POPC   PO439144  41.827   8.840   5.520
 2852POPC   GL139145  41.622   9.070   5.856
 2852POPC   GL239146  41.905   9.285   5.813
 2852POPC   C1A39147  41.504   8.936   6.315
 2852POPC   D2A39148  41.374   8.881   6.775
 2852POPC   C3A39149  41.608   8.691   7.137
 2852POPC   C4A39150  41.490   8.535   7.554
 2852POPC   C1B39151  41.987   9.123   6.225
 2852POPC   C2B39152  41.876   9.048   6.656
 2852POPC   C3B39153  42.045   9.014   7.063
 2852POPC   C4B39154  41.945   8.999   7.494
 2853POPC   NC339155  39.567  17.069   5.406
 2853POPC   PO439156  39.025  16.628   5.427
 2853POPC   GL139157  39.147  16.408   5.793
 2853POPC   GL239158  39.479  16.578   5.793
 2853POPC   C1A39159  39.216  16.453   6.227
 2853POPC   D2A39160  39.195  16.796   6.507
 2853POPC   C3A39161  39.140  16.610   6.896
 2853POPC   C4A39162  38.853  16.651   7.242
 2853POPC   C1B39163  39.597  16.892   6.113
 2853POPC   C2B39164  39.571  17.168   6.477
 2853POPC   C3B39165  39.535  16.975   6.879
 2853POPC   C4B39166  39.252  17.005   7.191
 2854POPC   NC339167   9.337   8.010   5.352
 2854POPC   PO439168   9.813   8.417   5.471
 2854POPC   GL139169   9.802   8.430   5.889
 2854POPC   GL239170   9.440   8.319   5.925
 2854POPC   C1A39171   9.805   8.412   6.293
 2854POPC   D2A39172   9.601   8.602   6.601
 2854POPC   C3A39173   9.784   8.433   6.967
 2854POPC   C4A39174   9.639   8.281   7.341
 2854POPC   C1B39175   9.474   8.024   6.251
 2854POPC   C2B39176   9.698   8.016   6.631
 2854POPC   C3B39177   9.623   7.865   7.040
 2854POPC   C4B39178   9.831   7.790   7.427
 2855POPC   NC339179  13.126  28.142   5.607
 2855POPC   PO439180  12.680  28.511   5.263
 2855POPC   GL139181  12.744  28.525   5.758
 2855POPC   GL239182  13.086  28.597   5.861
 2855POPC   C1A39183  12.776  28.575   6.265
 2855POPC   D2A39184  12.720  28.312   6.669
 2855POPC   C3A39185  12.482  28.400   7.072
 2855POPC   C4A39186  12.642  28.455   7.513
 2855POPC   C1B39187  13.253  28.400   6.250
 2855POPC   C2B39188  13.237  28.466   6.703
 2855POPC   C3B39189  12.995  28.476   7.100
 2855POPC   C4B39190  13.092  28.266   7.506
 2856POPC   NC339191  19.841  10.755   5.220
 2856POPC   PO439192  19.540  10.106   5.335
 2856POPC   GL139193  19.884  10.234   5.612
 2856POPC   GL239194  19.889  10.576   5.707
 2856POPC   C1A39195  19.910  10.209   6.075
 2856POPC   D2A39196  20.079  10.124   6.473
 2856POPC   C3A39197  19.848  10.152   6.848
 2856POPC   C4A39198  19.748  10.234   7.262
 2856POPC   C1B39199  19.738  10.706   6.123
 2856POPC   C2B39200  19.794  10.586   6.542
 2856POPC   C3B39201  19.585  10.609   6.919
 2856POPC   C4B39202  19.647  10.744   7.331
 2857POPC   NC339203  25.957  34.036   5.578
 2857POPC   PO439204  25.748  34.551   5.216
 2857POPC   GL139205  25.850  34.536   5.690
 2857POPC   GL239206  25.785  34.816   5.879
 2857POPC   C1A39207  26.162  34.492   6.103
 2857POPC   D2A39208  26.120  34.619   6.561
 2857POPC   C3A39209  26.379  34.633   6.947
 2857POPC   C4A39210  26.224  34.508   7.331
 2857POPC   C1B39211  25.670  34.454   6.166
 2857POPC   C2B39212  25.744  34.272   6.581
 2857POPC   C3B39213  25.788  34.539   6.953
 2857POPC   C4B39214  25.763  34.724   7.359
 2858POPC   NC339215  29.169  30.397   5.551
 2858POPC   PO439216  29.044  29.793   5.320
 2858POPC   GL139217  29.174  29.918   5.730
 2858POPC   GL239218  29.474  30.128   5.850
 2858POPC   C1A39219  28.996  29.977   6.126
 2858POPC   D2A39220  28.939  30.023   6.563
 2858POPC   C3A39221  29.203  29.851   6.889
 2858POPC   C4A39222  29.018  29.868   7.279
 2858POPC   C1B39223  29.360  30.323   6.286
 2858POPC   C2B39224  29.414  30.316   6.759
 2858POPC   C3B39225  29.536  30.126   7.185
 2858POPC   C4B39226  29.488  29.705   7.398
 2859POPC   NC339227  43.947  18.028   5.273
 2859POPC   PO439228  44.101  18.716   5.387
 2859POPC   GL139229  44.047  18.385   5.727
 2859POPC   GL239230  43.684  18.320   5.743
 2859POPC   C1A39231  43.968  18.124   6.139
 2859POPC   D2A39232  43.872  18.242   6.594
 2859POPC   C3A39233  44.165  18.459   6.906
 2859POPC   C4A39234  44.288  18.527   7.359
 2859POPC   C1B39235  43.524  18.372   6.174
 2859POPC   C2B39236  43.395  18.451   6.613
 2859POPC   C3B39237  43.614  18.404   7.008
 2859POPC   C4B39238  43.541  18.068   7.350
 2860POPC   NC339239  35.153  12.488   5.370
 2860POPC   PO439240  35.349  11.759   5.336
 2860POPC   GL139241  35.471  12.141   5.635
 2860POPC   GL239242  35.154  12.199   5.795
 2860POPC   C1A39243  35.569  12.267   6.099
 2860POPC   D2A39244  35.646  12.035   6.487
 2860POPC   C3A39245  35.571  12.194   6.894
 2860POPC   C4A39246  35.585  11.881   7.197
 2860POPC   C1B39247  35.050  11.876   6.124
 2860POPC   C2B39248  35.186  11.694   6.533
 2860POPC   C3B39249  35.062  11.716   6.967
 2860POPC   C4B39250  35.109  12.074   7.223
 2861POPC   NC339251   5.207  35.653   5.624
 2861POPC   PO439252   4.853  35.090   5.617
 2861POPC   GL139253   4.849  35.407   5.934
 2861POPC   GL239254   4.749  35.751   5.852
 2861POPC   C1A39255   5.102  35.401   6.297
 2861POPC   D2A39256   5.213  35.340   6.725
 2861POPC   C3A39257   4.972  35.172   7.017
 2861POPC   C4A39258   5.351  34.999   7.173
 2861POPC   C1B39259   4.798  35.823   6.262
 2861POPC   C2B39260   4.767  35.619   6.644
 2861POPC   C3B39261   4.923  35.706   7.024
 2861POPC   C4B39262   4.815  35.695   7.426
 2862POPC   NC339263   8.506   8.811   5.402
 2862POPC   PO439264   7.963   9.248   5.375
 2862POPC   GL139265   8.164   9.026   5.736
 2862POPC   GL239266   8.168   8.690   5.893
 2862POPC   C1A39267   8.288   9.171   6.145
 2862POPC   D2A39268   8.061   9.275   6.515
 2862POPC   C3A39269   8.285   9.192   6.887
 2862POPC   C4A39270   8.352   9.374   7.275
 2862POPC   C1B39271   8.138   8.740   6.387
 2862POPC   C2B39272   8.200   8.693   6.855
 2862POPC   C3B39273   8.060   8.853   7.270
 2862POPC   C4B39274   7.777   8.798   7.667
 2863POPC   NC339275  19.941   4.644   5.371
 2863POPC   PO439276  19.907   5.289   5.378
 2863POPC   GL139277  19.870   5.214   5.821
 2863POPC   GL239278  19.991   4.880   5.860
 2863POPC   C1A39279  19.896   5.195   6.299
 2863POPC   D2A39280  19.998   5.041   6.716
 2863POPC   C3A39281  19.705   5.173   7.008
 2863POPC   C4A39282  19.749   5.251   7.420
 2863POPC   C1B39283  19.654   4.777   6.161
 2863POPC   C2B39284  19.497   4.865   6.580
 2863POPC   C3B39285  19.590   4.664   6.959
 2863POPC   C4B39286  19.787   4.756   7.324
 2864POPC   NC339287  39.508   0.794   5.053
 2864POPC   PO439288  39.034   0.535   5.487
 2864POPC   GL139289  39.312   0.396   5.821
 2864POPC   GL239290  39.630   0.539   5.763
 2864POPC   C1A39291  39.349   0.251   6.222
 2864POPC   D2A39292  39.144   0.356   6.602
 2864POPC   C3A39293  39.301   0.510   6.954
 2864POPC   C4A39294  39.439   0.292   7.316
 2864POPC   C1B39295  39.625   0.711   6.181
 2864POPC   C2B39296  39.486   0.857   6.588
 2864POPC   C3B39297  39.694   0.850   7.001
 2864POPC   C4B39298  39.428   0.821   7.337
 2865POPC   NC339299   0.592   7.829   5.543
 2865POPC   PO439300   0.152   8.359   5.313
 2865POPC   GL139301   0.454   8.298   5.689
 2865POPC   GL239302   0.233   8.075   5.866
 2865POPC   C1A39303   0.668   8.154   6.131
 2865POPC   D2A39304   0.713   7.999   6.567
 2865POPC   C3A39305   0.667   8.270   6.925
 2865POPC   C4A39306   0.693   8.133   7.321
 2865POPC   C1B39307  44.921   8.358   6.050
 2865POPC   C2B39308  44.958   8.368   6.490
 2865POPC   C3B39309   0.171   8.123   6.782
 2865POPC   C4B39310   0.211   8.190   7.233
 2866POPC   NC339311   1.129   4.887   5.477
 2866POPC   PO439312   1.776   5.035   5.316
 2866POPC   GL139313   1.548   5.089   5.696
 2866POPC   GL239314   1.532   4.738   5.781
 2866POPC   C1A39315   1.283   5.173   6.070
 2866POPC   D2A39316   0.986   5.063   6.412
 2866POPC   C3A39317   1.077   5.158   6.842
 2866POPC   C4A39318   1.017   5.082   7.284
 2866POPC   C1B39319   1.685   4.892   6.190
 2866POPC   C2B39320   1.559   5.068   6.626
 2866POPC   C3B39321   1.502   4.955   7.092
 2866POPC   C4B39322   1.442   4.908   7.579
 2867POPC   NC339323   6.366  12.597   5.536
 2867POPC   PO439324   6.578  13.128   5.176
 2867POPC   GL139325   6.675  12.996   5.650
 2867POPC   GL239326   6.923  12.730   5.745
 2867POPC   C1A39327   6.779  13.175   6.085
 2867POPC   D2A39328   6.604  13.198   6.518
 2867POPC   C3A39329   6.765  13.129   6.932
 2867POPC   C4A39330   6.732  13.025   7.364
 2867POPC   C1B39331   6.721  12.693   6.174
 2867POPC   C2B39332   6.617  12.684   6.626
 2867POPC   C3B39333   6.738  12.630   7.036
 2867POPC   C4B39334   7.043  12.521   7.348
 2868POPC   NC339335   1.938  44.841   5.225
 2868POPC   PO439336   1.978  44.197   5.394
 2868POPC   GL139337   2.147  44.521   5.729
 2868POPC   GL239338   2.200  44.874   5.675
 2868POPC   C1A39339   2.315  44.466   6.153
 2868POPC   D2A39340   2.029  44.561   6.518
 2868POPC   C3A39341   2.094  44.370   6.922
 2868POPC   C4A39342   2.406  44.450   7.244
 2868POPC   C1B39343   2.070  44.916   6.087
 2868POPC   C2B39344   2.000   0.076   6.481
 2868POPC   C3B39345   2.161  44.926   6.886
 2868POPC   C4B39346   2.003  44.765   7.247
 2869POPC   NC339347  41.770   0.282   5.145
 2869POPC   PO439348  41.530   0.684   5.589
 2869POPC   GL139349  41.834   0.505   5.844
 2869POPC   GL239350  41.931   0.174   5.751
 2869POPC   C1A39351  41.789   0.508   6.287
 2869POPC   D2A39352  41.405   0.547   6.597
 2869POPC   C3A39353  41.346   0.392   7.051
 2869POPC   C4A39354  41.564   0.515   7.436
 2869POPC   C1B39355  41.696   0.021   6.154
 2869POPC   C2B39356  41.709   0.117   6.593
 2869POPC   C3B39357  41.837   0.375   6.923
 2869POPC   C4B39358  41.828   0.119   7.269
 2870POPC   NC339359   0.199  22.121   5.190
 2870POPC   PO439360  44.597  22.192   5.436
 2870POPC   GL139361  44.410  22.223   5.826
 2870POPC   GL239362  44.641  22.458   5.885
 2870POPC   C1A39363  44.412  22.268   6.284
 2870POPC   D2A39364  44.673  22.076   6.575
 2870POPC   C3A39365  44.528  22.157   6.942
 2870POPC   C4A39366  44.671  22.186   7.348
 2870POPC   C1B39367  44.800  22.639   6.232
 2870POPC   C2B39368  44.684  22.592   6.630
 2870POPC   C3B39369  44.835  22.579   7.022
 2870POPC   C4B39370   0.122  22.437   7.330
 2871POPC   NC339371   6.707  21.345   5.239
 2871POPC   PO439372   6.186  21.034   5.479
 2871POPC   GL139373   6.446  21.267   5.760
 2871POPC   GL239374   6.829  21.224   5.773
 2871POPC   C1A39375   6.549  21.271   6.201
 2871POPC   D2A39376   6.760  21.100   6.570
 2871POPC   C3A39377   6.510  21.118   6.912
 2871POPC   C4A39378   6.293  21.328   7.230
 2871POPC   C1B39379   7.065  21.314   6.199
 2871POPC   C2B39380   7.005  21.548   6.602
 2871POPC   C3B39381   6.877  21.445   7.030
 2871POPC   C4B39382   7.108  21.418   7.424
 2872POPC   NC339383  40.463  34.205   5.355
 2872POPC   PO439384  39.923  33.794   5.377
 2872POPC   GL139385  39.954  33.701   5.827
 2872POPC   GL239386  40.284  33.841   5.795
 2872POPC   C1A39387  40.111  33.707   6.282
 2872POPC   D2A39388  39.896  33.798   6.687
 2872POPC   C3A39389  40.039  33.633   7.059
 2872POPC   C4A39390  39.764  33.435   7.319
 2872POPC   C1B39391  40.174  34.173   6.085
 2872POPC   C2B39392  40.149  34.244   6.550
 2872POPC   C3B39393  40.134  34.142   6.995
 2872POPC   C4B39394  40.359  34.061   7.359
 2873POPC   NC339395   2.203   8.727   5.416
 2873POPC   PO439396   1.656   9.079   5.463
 2873POPC   GL139397   1.843   8.887   5.812
 2873POPC   GL239398   2.156   9.031   5.835
 2873POPC   C1A39399   1.837   9.003   6.267
 2873POPC   D2A39400   1.778   9.381   6.539
 2873POPC   C3A39401   1.899   9.316   6.967
 2873POPC   C4A39402   1.789   9.056   7.333
 2873POPC   C1B39403   2.365   8.924   6.230
 2873POPC   C2B39404   2.228   8.811   6.654
 2873POPC   C3B39405   2.233   8.910   7.095
 2873POPC   C4B39406   2.149   8.768   7.523
 2874POPC   NC339407  18.566  34.572   5.213
 2874POPC   PO439408  17.908  34.821   5.314
 2874POPC   GL139409  18.204  34.742   5.695
 2874POPC   GL239410  18.524  34.512   5.714
 2874POPC   C1A39411  18.188  34.497   6.078
 2874POPC   D2A39412  18.005  34.454   6.445
 2874POPC   C3A39413  18.131  34.549   6.844
 2874POPC   C4A39414  17.954  34.794   7.152
 2874POPC   C1B39415  18.684  34.533   6.145
 2874POPC   C2B39416  18.563  34.495   6.553
 2874POPC   C3B39417  18.615  34.374   6.965
 2874POPC   C4B39418  18.372  34.506   7.324
 2875POPC   NC339419  16.310  10.542   5.449
 2875POPC   PO439420  16.968  10.337   5.337
 2875POPC   GL139421  16.799  10.685   5.601
 2875POPC   GL239422  17.064  10.902   5.741
 2875POPC   C1A39423  16.671  10.630   6.045
 2875POPC   D2A39424  16.957  10.428   6.338
 2875POPC   C3A39425  16.940  10.456   6.777
 2875POPC   C4A39426  16.974  10.480   7.223
 2875POPC   C1B39427  16.954  11.034   6.181
 2875POPC   C2B39428  16.690  10.864   6.528
 2875POPC   C3B39429  16.684  10.840   6.983
 2875POPC   C4B39430  16.858  11.023   7.366
 2876POPC   NC339431  11.879  31.105   5.389
 2876POPC   PO439432  12.393  30.572   5.339
 2876POPC   GL139433  12.273  30.883   5.656
 2876POPC   GL239434  11.942  30.750   5.741
 2876POPC   C1A39435  12.171  31.031   6.092
 2876POPC   D2A39436  12.188  30.794   6.478
 2876POPC   C3A39437  11.920  30.876   6.807
 2876POPC   C4A39438  11.997  30.857   7.255
 2876POPC   C1B39439  11.807  30.639   6.161
 2876POPC   C2B39440  11.807  30.440   6.551
 2876POPC   C3B39441  11.966  30.389   6.959
 2876POPC   C4B39442  11.813  30.376   7.378
 2877POPC   NC339443   0.433   0.651   5.310
 2877POPC   PO439444   0.868   0.175   5.698
 2877POPC   GL139445   0.492   0.379   5.909
 2877POPC   GL239446   0.186   0.501   5.743
 2877POPC   C1A39447   0.191   0.429   6.255
 2877POPC   D2A39448   0.345   0.537   6.660
 2877POPC   C3A39449   0.273   0.207   6.949
 2877POPC   C4A39450   0.597   0.162   7.234
 2877POPC   C1B39451   0.094   0.880   6.014
 2877POPC   C2B39452   0.048   0.915   6.454
 2877POPC   C3B39453   0.037   0.853   6.889
 2877POPC   C4B39454   0.230   0.628   7.223
 2878POPC   NC339455  15.323  33.935   5.389
 2878POPC   PO439456  15.449  33.319   5.549
 2878POPC   GL139457  15.202  33.593   5.798
 2878POPC   GL239458  15.011  33.361   5.957
 2878POPC   C1A39459  15.169  33.745   6.250
 2878POPC   D2A39460  15.298  33.609   6.679
 2878POPC   C3A39461  15.375  33.923   7.034
 2878POPC   C4A39462  15.518  33.962   7.518
 2878POPC   C1B39463  14.722  33.492   6.239
 2878POPC   C2B39464  14.745  33.705   6.613
 2878POPC   C3B39465  14.895  33.653   7.020
 2878POPC   C4B39466  15.126  33.645   7.392
 2879POPC   NC339467  18.810   6.062   5.461
 2879POPC   PO439468  19.484   6.083   5.549
 2879POPC   GL139469  19.158   5.901   5.819
 2879POPC   GL239470  18.960   6.174   5.933
 2879POPC   C1A39471  18.972   5.770   6.221
 2879POPC   D2A39472  19.060   5.595   6.606
 2879POPC   C3A39473  18.802   5.651   6.943
 2879POPC   C4A39474  18.999   5.665   7.298
 2879POPC   C1B39475  19.164   6.239   6.363
 2879POPC   C2B39476  19.155   6.076   6.813
 2879POPC   C3B39477  18.948   6.175   7.208
 2879POPC   C4B39478  18.848   6.081   7.652
 2880POPC   NC339479  11.051   6.417   5.450
 2880POPC   PO439480  11.729   6.484   5.394
 2880POPC   GL139481  11.544   6.730   5.724
 2880POPC   GL239482  11.327   6.491   5.853
 2880POPC   C1A39483  11.412   6.879   6.157
 2880POPC   D2A39484  11.162   6.864   6.514
 2880POPC   C3A39485  11.386   6.823   6.887
 2880POPC   C4A39486  11.344   6.704   7.302
 2880POPC   C1B39487  11.215   6.409   6.246
 2880POPC   C2B39488  11.368   6.393   6.615
 2880POPC   C3B39489  11.278   6.302   6.999
 2880POPC   C4B39490  11.419   6.184   7.359
 2881POPC   NC339491  16.965  36.299   4.954
 2881POPC   PO439492  16.577  36.387   5.507
 2881POPC   GL139493  16.619  36.060   5.849
 2881POPC   GL239494  16.288  35.887   5.991
 2881POPC   C1A39495  16.832  36.129   6.216
 2881POPC   D2A39496  17.136  36.060   6.488
 2881POPC   C3A39497  16.965  36.143   6.885
 2881POPC   C4A39498  16.872  35.902   7.235
 2881POPC   C1B39499  16.342  36.232   6.248
 2881POPC   C2B39500  16.500  36.282   6.657
 2881POPC   C3B39501  16.467  36.136   7.057
 2881POPC   C4B39502  16.593  36.230   7.489
 2882POPC   NC339503  17.636  40.432   5.328
 2882POPC   PO439504  17.274  40.882   5.230
 2882POPC   GL139505  17.371  40.825   5.698
 2882POPC   GL239506  17.409  40.484   5.821
 2882POPC   C1A39507  17.337  40.922   6.176
 2882POPC   D2A39508  17.246  40.741   6.610
 2882POPC   C3A39509  17.327  40.964   7.008
 2882POPC   C4A39510  17.402  40.873   7.462
 2882POPC   C1B39511  17.449  40.413   6.244
 2882POPC   C2B39512  17.676  40.385   6.629
 2882POPC   C3B39513  17.623  40.532   7.064
 2882POPC   C4B39514  17.644  40.388   7.489
 2883POPC   NC339515   2.924   1.085   4.955
 2883POPC   PO439516   2.547   0.989   5.522
 2883POPC   GL139517   2.770   1.211   5.840
 2883POPC   GL239518   2.520   1.462   5.925
 2883POPC   C1A39519   2.761   1.124   6.273
 2883POPC   D2A39520   2.701   1.215   6.695
 2883POPC   C3A39521   2.795   0.918   6.999
 2883POPC   C4A39522   2.812   1.038   7.426
 2883POPC   C1B39523   2.471   1.755   6.295
 2883POPC   C2B39524   2.470   1.679   6.768
 2883POPC   C3B39525   2.488   1.332   7.130
 2883POPC   C4B39526   2.340   1.375   7.543
 2884POPC   NC339527  20.101   0.545   5.314
 2884POPC   PO439528  19.687   0.189   5.631
 2884POPC   GL139529  20.054   0.308   5.874
 2884POPC   GL239530  20.085   0.677   5.820
 2884POPC   C1A39531  20.013   0.152   6.315
 2884POPC   D2A39532  19.675   0.265   6.621
 2884POPC   C3A39533  19.831   0.412   7.007
 2884POPC   C4A39534  20.202   0.318   7.171
 2884POPC   C1B39535  19.850   0.647   6.240
 2884POPC   C2B39536  19.792   0.804   6.668
 2884POPC   C3B39537  19.609   0.858   7.105
 2884POPC   C4B39538  19.546   0.552   7.426
 2885POPC   NC339539  26.126  44.542   5.407
 2885POPC   PO439540  25.979   0.280   5.328
 2885POPC   GL139541  25.952  44.998   5.687
 2885POPC   GL239542  26.287  44.917   5.795
 2885POPC   C1A39543  25.884  44.705   6.075
 2885POPC   D2A39544  25.989  44.442   6.438
 2885POPC   C3A39545  25.883  44.612   6.853
 2885POPC   C4A39546  26.242  44.495   7.113
 2885POPC   C1B39547  26.151   0.126   6.134
 2885POPC   C2B39548  26.119  44.933   6.484
 2885POPC   C3B39549  26.294  44.928   6.850
 2885POPC   C4B39550  26.265   0.011   7.250
 2886POPC   NC339551   1.085  38.754   5.497
 2886POPC   PO439552   1.528  38.273   5.333
 2886POPC   GL139553   1.449  38.441   5.741
 2886POPC   GL239554   1.519  38.773   5.852
 2886POPC   C1A39555   1.350  38.332   6.152
 2886POPC   D2A39556   1.618  38.302   6.495
 2886POPC   C3A39557   1.385  38.218   6.844
 2886POPC   C4A39558   1.512  38.265   7.264
 2886POPC   C1B39559   1.195  38.817   6.178
 2886POPC   C2B39560   1.249  38.659   6.605
 2886POPC   C3B39561   1.507  38.704   6.971
 2886POPC   C4B39562   1.337  38.856   7.345
 2887POPC   NC339563  29.112  36.443   5.354
 2887POPC   PO439564  29.135  35.770   5.319
 2887POPC   GL139565  29.105  36.063   5.715
 2887POPC   GL239566  29.264  36.431   5.833
 2887POPC   C1A39567  29.228  36.037   6.152
 2887POPC   D2A39568  29.056  35.909   6.527
 2887POPC   C3A39569  29.225  36.086   6.888
 2887POPC   C4A39570  29.130  35.994   7.311
 2887POPC   C1B39571  28.967  36.479   6.196
 2887POPC   C2B39572  28.853  36.463   6.671
 2887POPC   C3B39573  28.957  36.443   7.096
 2887POPC   C4B39574  29.384  36.428   7.233
 2888POPC   NC339575  18.142  10.769   5.354
 2888POPC   PO439576  18.580  10.314   5.543
 2888POPC   GL139577  18.341  10.108   5.865
 2888POPC   GL239578  18.177  10.416   5.881
 2888POPC   C1A39579  18.376  10.125   6.316
 2888POPC   D2A39580  18.156  10.376   6.657
 2888POPC   C3A39581  18.418  10.581   6.996
 2888POPC   C4A39582  18.642  10.901   7.255
 2888POPC   C1B39583  17.891  10.234   6.185
 2888POPC   C2B39584  17.642  10.469   6.504
 2888POPC   C3B39585  17.778  10.610   6.922
 2888POPC   C4B39586  18.012  10.287   7.168
 2889POPC   NC339587  13.882  12.358   5.204
 2889POPC   PO439588  14.468  12.126   5.460
 2889POPC   GL139589  14.499  11.953   5.884
 2889POPC   GL239590  14.794  11.719   5.917
 2889POPC   C1A39591  14.227  11.993   6.260
 2889POPC   D2A39592  14.080  11.745   6.628
 2889POPC   C3A39593  14.114  11.934   7.047
 2889POPC   C4A39594  14.369  11.952   7.418
 2889POPC   C1B39595  14.734  11.924   6.343
 2889POPC   C2B39596  14.551  11.931   6.770
 2889POPC   C3B39597  14.808  12.011   7.149
 2889POPC   C4B39598  15.262  12.037   7.330
 2890POPC   NC339599  43.796   5.974   5.511
 2890POPC   PO439600  43.838   6.628   5.390
 2890POPC   GL139601  43.973   6.417   5.744
 2890POPC   GL239602  43.637   6.314   5.860
 2890POPC   C1A39603  44.149   6.448   6.178
 2890POPC   D2A39604  43.974   6.544   6.590
 2890POPC   C3A39605  44.206   6.705   6.971
 2890POPC   C4A39606  43.986   6.888   7.320
 2890POPC   C1B39607  43.687   6.691   6.147
 2890POPC   C2B39608  43.604   6.911   6.574
 2890POPC   C3B39609  43.656   6.688   6.984
 2890POPC   C4B39610  43.522   6.689   7.414
 2891POPC   NC339611  10.162  20.991   5.028
 2891POPC   PO439612   9.729  20.788   5.535
 2891POPC   GL139613   9.742  20.632   5.922
 2891POPC   GL239614  10.048  20.460   5.898
 2891POPC   C1A39615   9.659  20.487   6.304
 2891POPC   D2A39616   9.789  20.680   6.653
 2891POPC   C3A39617   9.602  20.615   7.013
 2891POPC   C4A39618   9.823  20.818   7.324
 2891POPC   C1B39619  10.071  20.196   6.261
 2891POPC   C2B39620   9.993  20.196   6.703
 2891POPC   C3B39621  10.060  20.393   7.052
 2891POPC   C4B39622  10.221  20.516   7.425
 2892POPC   NC339623  38.014   9.351   5.465
 2892POPC   PO439624  37.462   9.805   5.294
 2892POPC   GL139625  37.560   9.814   5.774
 2892POPC   GL239626  37.695   9.471   5.843
 2892POPC   C1A39627  37.786   9.879   6.184
 2892POPC   D2A39628  37.824  10.162   6.545
 2892POPC   C3A39629  37.732   9.927   6.899
 2892POPC   C4A39630  37.590   9.934   7.296
 2892POPC   C1B39631  37.423   9.433   6.178
 2892POPC   C2B39632  37.399   9.305   6.586
 2892POPC   C3B39633  37.676   9.420   6.857
 2892POPC   C4B39634  37.543   9.417   7.255
 2893POPC   NC339635  40.353   6.557   5.439
 2893POPC   PO439636  40.965   6.756   5.536
 2893POPC   GL139637  40.894   6.490   5.881
 2893POPC   GL239638  40.597   6.279   5.798
 2893POPC   C1A39639  40.668   6.696   6.219
 2893POPC   D2A39640  40.580   6.915   6.620
 2893POPC   C3A39641  40.758   6.598   6.894
 2893POPC   C4A39642  40.979   6.581   7.291
 2893POPC   C1B39643  40.458   6.211   6.223
 2893POPC   C2B39644  40.357   6.439   6.586
 2893POPC   C3B39645  40.312   6.275   6.981
 2893POPC   C4B39646  40.471   6.460   7.346
 2894POPC   NC339647  41.942  10.217   5.556
 2894POPC   PO439648  42.010   9.596   5.152
 2894POPC   GL139649  42.075   9.725   5.629
 2894POPC   GL239650  42.404   9.900   5.704
 2894POPC   C1A39651  42.043   9.667   6.138
 2894POPC   D2A39652  41.934   9.556   6.616
 2894POPC   C3A39653  42.068   9.775   7.036
 2894POPC   C4A39654  42.097   9.811   7.523
 2894POPC   C1B39655  42.402  10.052   6.153
 2894POPC   C2B39656  42.312   9.941   6.598
 2894POPC   C3B39657  42.565   9.885   6.985
 2894POPC   C4B39658  42.562  10.009   7.415
 2895POPC   NC339659  24.173  12.176   5.566
 2895POPC   PO439660  23.891  11.588   5.397
 2895POPC   GL139661  23.746  11.911   5.791
 2895POPC   GL239662  23.499  12.214   5.921
 2895POPC   C1A39663  23.630  11.877   6.263
 2895POPC   D2A39664  23.542  12.083   6.646
 2895POPC   C3A39665  23.825  12.055   6.971
 2895POPC   C4A39666  23.811  11.916   7.391
 2895POPC   C1B39667  23.771  12.370   6.282
 2895POPC   C2B39668  24.151  12.332   6.558
 2895POPC   C3B39669  24.260  12.419   6.998
 2895POPC   C4B39670  23.942  12.421   7.308
 2896POPC   NC339671  38.144  19.220   5.394
 2896POPC   PO439672  37.502  18.995   5.302
 2896POPC   GL139673  37.683  19.002   5.701
 2896POPC   GL239674  37.352  18.899   5.822
 2896POPC   C1A39675  37.747  18.851   6.137
 2896POPC   D2A39676  37.668  19.052   6.519
 2896POPC   C3A39677  37.957  19.070   6.853
 2896POPC   C4A39678  37.735  18.909   7.188
 2896POPC   C1B39679  37.383  19.261   6.117
 2896POPC   C2B39680  37.219  19.326   6.546
 2896POPC   C3B39681  37.363  19.165   6.931
 2896POPC   C4B39682  37.559  19.362   7.253
 2897POPC   NC339683  37.548  20.189   5.384
 2897POPC   PO439684  37.911  19.630   5.404
 2897POPC   GL139685  37.775  19.859   5.769
 2897POPC   GL239686  38.048  20.020   5.947
 2897POPC   C1A39687  37.591  19.746   6.180
 2897POPC   D2A39688  37.683  19.572   6.581
 2897POPC   C3A39689  37.486  19.745   6.925
 2897POPC   C4A39690  37.661  19.889   7.303
 2897POPC   C1B39691  37.951  20.057   6.385
 2897POPC   C2B39692  37.907  20.041   6.842
 2897POPC   C3B39693  37.922  20.296   7.195
 2897POPC   C4B39694  37.782  20.250   7.644
 2898POPC   NC339695  11.555  17.894   5.561
 2898POPC   PO439696  11.117  17.420   5.300
 2898POPC   GL139697  11.226  17.449   5.729
 2898POPC   GL239698  10.955  17.656   5.815
 2898POPC   C1A39699  11.114  17.294   6.164
 2898POPC   D2A39700  11.075  17.452   6.603
 2898POPC   C3A39701  11.366  17.357   6.948
 2898POPC   C4A39702  11.424  17.574   7.347
 2898POPC   C1B39703  10.984  17.853   6.226
 2898POPC   C2B39704  11.090  17.949   6.644
 2898POPC   C3B39705  11.031  17.744   7.053
 2898POPC   C4B39706  11.003  17.822   7.530
 2899POPC   NC339707  35.828  25.879   5.200
 2899POPC   PO439708  36.448  25.978   5.354
 2899POPC   GL139709  36.152  26.001   5.694
 2899POPC   GL239710  35.918  26.249   5.766
 2899POPC   C1A39711  36.240  26.119   6.135
 2899POPC   D2A39712  36.261  26.269   6.559
 2899POPC   C3A39713  36.173  25.947   6.853
 2899POPC   C4A39714  36.160  25.900   7.282
 2899POPC   C1B39715  35.722  26.078   6.139
 2899POPC   C2B39716  35.730  26.090   6.602
 2899POPC   C3B39717  35.704  25.989   7.072
 2899POPC   C4B39718  35.832  26.195   7.512
 2900POPC   NC339719  23.343  12.001   5.431
 2900POPC   PO439720  22.889  12.514   5.460
 2900POPC   GL139721  22.940  12.251   5.838
 2900POPC   GL239722  23.084  11.918   5.862
 2900POPC   C1A39723  22.673  12.212   6.225
 2900POPC   D2A39724  22.731  12.503   6.540
 2900POPC   C3A39725  22.606  12.427   6.961
 2900POPC   C4A39726  22.756  12.585   7.363
 2900POPC   C1B39727  23.161  12.114   6.293
 2900POPC   C2B39728  22.999  12.103   6.737
 2900POPC   C3B39729  23.054  12.078   7.197
 2900POPC   C4B39730  23.319  11.906   7.563
 2901POPC   NC339731   0.595  30.162   5.169
 2901POPC   PO439732   0.451  30.682   5.400
 2901POPC   GL139733   0.373  30.685   5.820
 2901POPC   GL239734   0.313  31.006   5.913
 2901POPC   C1A39735   0.569  30.487   6.161
 2901POPC   D2A39736   0.489  30.347   6.566
 2901POPC   C3A39737   0.415  30.539   7.002
 2901POPC   C4A39738   0.303  30.481   7.493
 2901POPC   C1B39739   0.343  30.935   6.379
 2901POPC   C2B39740   0.666  30.922   6.728
 2901POPC   C3B39741   0.689  30.951   7.181
 2901POPC   C4B39742   0.306  30.946   7.355
 2902POPC   NC339743  44.091  19.378   5.669
 2902POPC   PO439744  44.667  19.059   5.383
 2902POPC   GL139745  44.700  18.989   5.834
 2902POPC   GL239746  44.780  19.345   5.927
 2902POPC   C1A39747  44.622  18.820   6.281
 2902POPC   D2A39748  44.591  18.687   6.750
 2902POPC   C3A39749  44.805  18.945   7.079
 2902POPC   C4A39750   0.121  19.267   7.033
 2902POPC   C1B39751  44.444  19.312   6.232
 2902POPC   C2B39752  44.344  19.159   6.660
 2902POPC   C3B39753  44.486  19.323   7.055
 2902POPC   C4B39754  44.681  19.359   7.439
 2903POPC   NC339755  19.989   8.023   5.515
 2903POPC   PO439756  19.594   8.474   5.295
 2903POPC   GL139757  19.741   8.400   5.765
 2903POPC   GL239758  19.749   8.056   5.948
 2903POPC   C1A39759  19.604   8.434   6.228
 2903POPC   D2A39760  19.593   8.242   6.632
 2903POPC   C3A39761  19.768   8.479   6.987
 2903POPC   C4A39762  19.983   8.250   7.305
 2903POPC   C1B39763  19.978   7.797   6.223
 2903POPC   C2B39764  20.064   7.864   6.649
 2903POPC   C3B39765  20.072   7.791   7.081
 2903POPC   C4B39766  20.094   7.807   7.543
 2904POPC   NC339767  20.524  43.198   5.389
 2904POPC   PO439768  21.018  42.732   5.380
 2904POPC   GL139769  20.878  43.052   5.747
 2904POPC   GL239770  20.549  43.222   5.881
 2904POPC   C1A39771  20.882  43.085   6.226
 2904POPC   D2A39772  20.692  43.216   6.614
 2904POPC   C3A39773  20.877  43.156   7.001
 2904POPC   C4A39774  20.732  42.790   7.164
 2904POPC   C1B39775  20.356  43.358   6.255
 2904POPC   C2B39776  20.206  43.358   6.686
 2904POPC   C3B39777  20.368  43.175   7.085
 2904POPC   C4B39778  20.605  43.182   7.476
 2905POPC   NC339779  34.822  23.804   5.526
 2905POPC   PO439780  34.315  23.402   5.438
 2905POPC   GL139781  34.573  23.466   5.822
 2905POPC   GL239782  34.465  23.830   5.923
 2905POPC   C1A39783  34.630  23.510   6.276
 2905POPC   D2A39784  34.346  23.733   6.570
 2905POPC   C3A39785  34.448  23.612   6.986
 2905POPC   C4A39786  34.755  23.709   7.271
 2905POPC   C1B39787  34.090  24.014   6.191
 2905POPC   C2B39788  33.848  23.968   6.583
 2905POPC   C3B39789  34.023  23.899   6.987
 2905POPC   C4B39790  34.248  23.856   7.426
 2906POPC   NC339791  21.938  16.150   5.400
 2906POPC   PO439792  22.495  16.450   5.519
 2906POPC   GL139793  22.105  16.454   5.792
 2906POPC   GL239794  21.908  16.161   5.933
 2906POPC   C1A39795  22.066  16.599   6.226
 2906POPC   D2A39796  22.270  16.435   6.615
 2906POPC   C3A39797  22.257  16.650   7.047
 2906POPC   C4A39798  22.519  16.654   7.453
 2906POPC   C1B39799  21.808  16.195   6.378
 2906POPC   C2B39800  21.794  16.405   6.796
 2906POPC   C3B39801  21.904  16.330   7.226
 2906POPC   C4B39802  21.675  16.301   7.637
 2907POPC   NC339803  16.035  30.903   5.429
 2907POPC   PO439804  15.506  30.382   5.405
 2907POPC   GL139805  15.707  30.658   5.762
 2907POPC   GL239806  16.070  30.578   5.814
 2907POPC   C1A39807  15.820  30.875   6.201
 2907POPC   D2A39808  16.098  30.986   6.617
 2907POPC   C3A39809  15.916  30.910   7.025
 2907POPC   C4A39810  15.614  30.681   7.188
 2907POPC   C1B39811  16.292  30.678   6.200
 2907POPC   C2B39812  16.437  30.596   6.605
 2907POPC   C3B39813  16.381  30.694   7.022
 2907POPC   C4B39814  16.199  30.711   7.430
 2908POPC   NC339815  33.714   6.390   5.200
 2908POPC   PO439816  33.613   5.718   5.342
 2908POPC   GL139817  33.859   5.892   5.728
 2908POPC   GL239818  34.143   6.136   5.659
 2908POPC   C1A39819  33.963   5.783   6.176
 2908POPC   D2A39820  34.116   5.852   6.587
 2908POPC   C3A39821  33.871   5.892   6.964
 2908POPC   C4A39822  33.950   5.737   7.396
 2908POPC   C1B39823  34.287   6.165   6.084
 2908POPC   C2B39824  34.226   6.366   6.479
 2908POPC   C3B39825  34.174   6.306   6.913
 2908POPC   C4B39826  34.059   6.247   7.360
 2909POPC   NC339827  31.541  27.982   5.504
 2909POPC   PO439828  31.292  28.645   5.460
 2909POPC   GL139829  31.417  28.379   5.795
 2909POPC   GL239830  31.769  28.421   5.706
 2909POPC   C1A39831  31.662  28.242   6.183
 2909POPC   D2A39832  31.793  27.959   6.552
 2909POPC   C3A39833  31.616  28.196   6.919
 2909POPC   C4A39834  31.228  28.328   7.131
 2909POPC   C1B39835  31.644  28.764   6.006
 2909POPC   C2B39836  31.570  28.728   6.427
 2909POPC   C3B39837  31.543  28.749   6.856
 2909POPC   C4B39838  31.239  28.840   7.153
 2910POPC   NC339839   7.917  31.416   5.280
 2910POPC   PO439840   8.292  31.956   5.185
 2910POPC   GL139841   8.376  31.732   5.601
 2910POPC   GL239842   8.158  31.470   5.721
 2910POPC   C1A39843   8.360  31.763   6.096
 2910POPC   D2A39844   8.336  31.466   6.485
 2910POPC   C3A39845   8.228  31.521   6.927
 2910POPC   C4A39846   8.290  31.776   7.296
 2910POPC   C1B39847   8.018  31.313   6.108
 2910POPC   C2B39848   7.849  31.385   6.528
 2910POPC   C3B39849   7.804  31.216   6.935
 2910POPC   C4B39850   7.829  31.516   7.283
 2911POPC   NC339851  43.703  33.975   5.265
 2911POPC   PO439852  43.897  33.305   5.351
 2911POPC   GL139853  43.905  33.634   5.670
 2911POPC   GL239854  44.251  33.770   5.711
 2911POPC   C1A39855  43.658  33.842   6.023
 2911POPC   D2A39856  43.759  34.090   6.437
 2911POPC   C3A39857  43.852  33.866   6.846
 2911POPC   C4A39858  43.584  33.723   7.193
 2911POPC   C1B39859  44.151  33.903   6.122
 2911POPC   C2B39860  44.282  33.988   6.549
 2911POPC   C3B39861  44.354  34.013   6.995
 2911POPC   C4B39862  44.093  34.030   7.341
 2912POPC   NC339863  12.293  42.184   5.342
 2912POPC   PO439864  11.823  42.632   5.381
 2912POPC   GL139865  11.990  42.640   5.813
 2912POPC   GL239866  12.334  42.539   5.780
 2912POPC   C1A39867  12.073  42.413   6.218
 2912POPC   D2A39868  12.041  42.075   6.537
 2912POPC   C3A39869  11.934  42.157   6.970
 2912POPC   C4A39870  11.614  41.983   7.276
 2912POPC   C1B39871  12.591  42.434   6.133
 2912POPC   C2B39872  12.467  42.364   6.553
 2912POPC   C3B39873  12.495  42.553   6.941
 2912POPC   C4B39874  12.252  42.440   7.266
 2913POPC   NC339875  12.639  15.781   5.404
 2913POPC   PO439876  13.174  16.241   5.378
 2913POPC   GL139877  13.054  15.936   5.747
 2913POPC   GL239878  12.702  15.997   5.835
 2913POPC   C1A39879  12.978  15.983   6.232
 2913POPC   D2A39880  12.844  16.165   6.616
 2913POPC   C3A39881  12.964  15.892   6.947
 2913POPC   C4A39882  13.205  15.960   7.299
 2913POPC   C1B39883  12.485  16.074   6.201
 2913POPC   C2B39884  12.402  15.907   6.575
 2913POPC   C3B39885  12.468  16.059   6.978
 2913POPC   C4B39886  12.655  15.928   7.360
 2914POPC   NC339887   4.064  36.692   5.294
 2914POPC   PO439888   4.706  36.968   5.436
 2914POPC   GL139889   4.423  37.007   5.815
 2914POPC   GL239890   4.195  36.729   5.786
 2914POPC   C1A39891   4.234  37.022   6.267
 2914POPC   D2A39892   4.101  37.157   6.715
 2914POPC   C3A39893   4.220  36.820   7.040
 2914POPC   C4A39894   4.449  36.518   7.346
 2914POPC   C1B39895   4.179  36.503   6.165
 2914POPC   C2B39896   4.082  36.550   6.592
 2914POPC   C3B39897   3.911  36.414   6.989
 2914POPC   C4B39898   3.728  36.703   7.263
 2915POPC   NC339899  25.568  41.422   5.511
 2915POPC   PO439900  24.863  41.315   5.487
 2915POPC   GL139901  25.112  41.473   5.843
 2915POPC   GL239902  25.315  41.771   5.828
 2915POPC   C1A39903  25.157  41.624   6.278
 2915POPC   D2A39904  25.316  41.798   6.608
 2915POPC   C3A39905  25.061  41.585   6.879
 2915POPC   C4A39906  25.015  41.660   7.292
 2915POPC   C1B39907  25.640  41.601   6.143
 2915POPC   C2B39908  25.608  41.386   6.540
 2915POPC   C3B39909  25.542  41.384   6.974
 2915POPC   C4B39910  25.456  41.793   7.107
 2916POPC   NC339911  17.929  36.024   5.212
 2916POPC   PO439912  17.353  36.359   5.190
 2916POPC   GL139913  17.445  36.091   5.568
 2916POPC   GL239914  17.145  36.191   5.789
 2916POPC   C1A39915  17.569  36.065   6.042
 2916POPC   D2A39916  17.664  35.964   6.485
 2916POPC   C3A39917  17.457  36.017   6.886
 2916POPC   C4A39918  17.548  36.122   7.285
 2916POPC   C1B39919  17.247  36.457   6.162
 2916POPC   C2B39920  17.443  36.453   6.590
 2916POPC   C3B39921  17.283  36.534   7.019
 2916POPC   C4B39922  17.100  36.324   7.384
 2917POPC   NC339923  34.965  20.181   5.274
 2917POPC   PO439924  34.394  19.797   5.384
 2917POPC   GL139925  34.496  19.886   5.776
 2917POPC   GL239926  34.850  19.869   5.805
 2917POPC   C1A39927  34.329  20.143   6.109
 2917POPC   D2A39928  34.295  20.072   6.525
 2917POPC   C3A39929  34.535  20.123   6.882
 2917POPC   C4A39930  34.348  20.044   7.291
 2917POPC   C1B39931  34.714  19.840   6.254
 2917POPC   C2B39932  34.425  19.557   6.528
 2917POPC   C3B39933  34.395  19.615   6.973
 2917POPC   C4B39934  34.747  19.764   7.200
 2918POPC   NC339935  30.954  34.568   5.319
 2918POPC   PO439936  30.294  34.787   5.357
 2918POPC   GL139937  30.587  34.741   5.665
 2918POPC   GL239938  30.673  34.401   5.750
 2918POPC   C1A39939  30.503  34.760   6.096
 2918POPC   D2A39940  30.620  34.733   6.520
 2918POPC   C3A39941  30.319  34.796   6.805
 2918POPC   C4A39942  30.382  34.697   7.232
 2918POPC   C1B39943  30.416  34.233   6.110
 2918POPC   C2B39944  30.341  34.291   6.563
 2918POPC   C3B39945  30.597  34.336   6.936
 2918POPC   C4B39946  30.694  34.291   7.409
 2919POPC   NC339947  13.318  19.808   5.384
 2919POPC   PO439948  13.968  20.070   5.610
 2919POPC   GL139949  13.575  19.882   5.812
 2919POPC   GL239950  13.343  19.575   5.864
 2919POPC   C1A39951  13.366  19.995   6.180
 2919POPC   D2A39952  13.336  19.782   6.560
 2919POPC   C3A39953  13.572  19.956   6.878
 2919POPC   C4A39954  13.434  20.009   7.269
 2919POPC   C1B39955  13.656  19.537   6.225
 2919POPC   C2B39956  13.692  19.441   6.706
 2919POPC   C3B39957  13.575  19.534   7.170
 2919POPC   C4B39958  13.802  19.650   7.593
 2920POPC   NC339959  33.568  33.956   5.368
 2920POPC   PO439960  33.489  33.288   5.405
 2920POPC   GL139961  33.494  33.658   5.773
 2920POPC   GL239962  33.841  33.847   5.789
 2920POPC   C1A39963  33.518  33.989   6.151
 2920POPC   D2A39964  33.736  34.203   6.526
 2920POPC   C3A39965  33.665  34.078   6.910
 2920POPC   C4A39966  33.618  33.914   7.303
 2920POPC   C1B39967  34.038  33.965   6.200
 2920POPC   C2B39968  34.130  33.916   6.661
 2920POPC   C3B39969  34.132  34.035   7.102
 2920POPC   C4B39970  34.388  34.055   7.479
 2921POPC   NC339971  44.304   3.727   5.394
 2921POPC   PO439972  43.622   3.355   5.496
 2921POPC   GL139973  43.794   3.597   5.791
 2921POPC   GL239974  44.142   3.499   5.822
 2921POPC   C1A39975  43.612   3.593   6.201
 2921POPC   D2A39976  43.615   3.378   6.605
 2921POPC   C3A39977  43.617   3.566   6.979
 2921POPC   C4A39978  43.699   3.425   7.380
 2921POPC   C1B39979  44.072   3.362   6.264
 2921POPC   C2B39980  44.134   3.457   6.707
 2921POPC   C3B39981  44.133   3.494   7.143
 2921POPC   C4B39982  44.154   3.802   7.503
 2922POPC   NC339983  14.091  38.297   5.548
 2922POPC   PO439984  13.410  38.219   5.515
 2922POPC   GL139985  13.667  38.302   5.837
 2922POPC   GL239986  13.703  38.641   5.801
 2922POPC   C1A39987  13.582  38.329   6.252
 2922POPC   D2A39988  13.481  38.012   6.565
 2922POPC   C3A39989  13.567  38.129   7.010
 2922POPC   C4A39990  13.432  38.230   7.444
 2922POPC   C1B39991  13.454  38.840   6.156
 2922POPC   C2B39992  13.320  38.856   6.601
 2922POPC   C3B39993  13.302  38.597   7.010
 2922POPC   C4B39994  13.716  38.594   7.232
 2923POPC   NC339995  32.669  21.219   5.302
 2923POPC   PO439996  32.420  21.841   5.438
 2923POPC   GL139997  32.311  21.539   5.842
 2923POPC   GL239998  32.466  21.187   5.784
 2923POPC   C1A39999  32.003  21.472   6.268
 2923POPC   D2A40000  31.849  21.508   6.718
 2923POPC   C3A40001  32.173  21.527   7.057
 2923POPC   C4A40002  32.115  21.367   7.478
 2923POPC   C1B40003  32.402  21.143   6.230
 2923POPC   C2B40004  32.270  21.238   6.651
 2923POPC   C3B40005  32.130  21.026   7.040
 2923POPC   C4B40006  32.381  20.850   7.358
 2924POPC   NC340007  32.241  16.139   5.397
 2924POPC   PO440008  32.029  15.494   5.402
 2924POPC   GL140009  32.255  15.717   5.717
 2924POPC   GL240010  32.024  15.938   5.814
 2924POPC   C1A40011  32.324  15.778   6.201
 2924POPC   D2A40012  32.441  15.532   6.570
 2924POPC   C3A40013  32.483  15.734   6.991
 2924POPC   C4A40014  32.210  15.718   7.359
 2924POPC   C1B40015  31.917  16.179   6.171
 2924POPC   C2B40016  31.821  15.944   6.535
 2924POPC   C3B40017  32.009  15.903   6.908
 2924POPC   C4B40018  31.945  16.264   7.129
 2925POPC   NC340019  38.229  19.957   5.465
 2925POPC   PO440020  38.652  19.493   5.471
 2925POPC   GL140021  38.500  19.712   5.837
 2925POPC   GL240022  38.184  19.541   5.827
 2925POPC   C1A40023  38.459  19.979   6.249
 2925POPC   D2A40024  38.372  20.171   6.681
 2925POPC   C3A40025  38.362  19.940   7.075
 2925POPC   C4A40026  38.247  20.071   7.497
 2925POPC   C1B40027  38.319  19.491   6.251
 2925POPC   C2B40028  38.209  19.659   6.644
 2925POPC   C3B40029  37.977  19.567   7.017
 2925POPC   C4B40030  38.086  19.591   7.429
 2926POPC   NC340031  41.361  37.768   5.269
 2926POPC   PO440032  41.634  37.207   5.392
 2926POPC   GL140033  41.538  37.508   5.721
 2926POPC   GL240034  41.559  37.888   5.738
 2926POPC   C1A40035  41.530  37.463   6.165
 2926POPC   D2A40036  41.606  37.670   6.542
 2926POPC   C3A40037  41.554  37.404   6.862
 2926POPC   C4A40038  41.781  37.390   7.234
 2926POPC   C1B40039  41.243  37.873   6.088
 2926POPC   C2B40040  41.223  38.029   6.528
 2926POPC   C3B40041  41.159  37.854   6.938
 2926POPC   C4B40042  41.324  37.626   7.273
 2927POPC   NC340043  27.807  22.736   5.466
 2927POPC   PO440044  27.184  23.047   5.413
 2927POPC   GL140045  27.471  22.938   5.797
 2927POPC   GL240046  27.826  23.095   5.855
 2927POPC   C1A40047  27.485  22.787   6.258
 2927POPC   D2A40048  27.316  22.705   6.709
 2927POPC   C3A40049  27.592  22.731   7.077
 2927POPC   C4A40050  27.684  22.806   7.501
 2927POPC   C1B40051  27.943  23.035   6.297
 2927POPC   C2B40052  27.902  22.974   6.742
 2927POPC   C3B40053  27.767  23.258   7.071
 2927POPC   C4B40054  27.819  23.293   7.548
 2928POPC   NC340055  35.782  15.024   5.368
 2928POPC   PO440056  35.262  15.433   5.353
 2928POPC   GL140057  35.254  15.224   5.723
 2928POPC   GL240058  35.590  15.200   5.806
 2928POPC   C1A40059  35.230  15.393   6.143
 2928POPC   D2A40060  34.963  15.449   6.493
 2928POPC   C3A40061  35.214  15.520   6.852
 2928POPC   C4A40062  35.174  15.361   7.243
 2928POPC   C1B40063  35.420  14.936   6.123
 2928POPC   C2B40064  35.290  15.058   6.540
 2928POPC   C3B40065  35.528  15.116   6.909
 2928POPC   C4B40066  35.657  15.289   7.313
 2929POPC   NC340067  43.348  26.283   5.450
 2929POPC   PO440068  42.735  25.945   5.376
 2929POPC   GL140069  42.978  26.046   5.777
 2929POPC   GL240070  43.319  25.880   5.820
 2929POPC   C1A40071  42.996  25.974   6.248
 2929POPC   D2A40072  42.947  25.792   6.669
 2929POPC   C3A40073  42.807  26.130   6.898
 2929POPC   C4A40074  42.877  26.237   7.301
 2929POPC   C1B40075  43.493  26.070   6.214
 2929POPC   C2B40076  43.402  25.998   6.662
 2929POPC   C3B40077  43.272  25.968   7.103
 2929POPC   C4B40078  43.356  26.098   7.531
 2930POPC   NC340079  43.369   6.581   5.474
 2930POPC   PO440080  42.934   7.012   5.199
 2930POPC   GL140081  42.808   6.843   5.637
 2930POPC   GL240082  42.932   6.541   5.719
 2930POPC   C1A40083  42.779   6.872   6.103
 2930POPC   D2A40084  42.671   6.684   6.516
 2930POPC   C3A40085  42.762   6.893   6.917
 2930POPC   C4A40086  43.126   6.914   7.176
 2930POPC   C1B40087  43.174   6.512   6.094
 2930POPC   C2B40088  43.363   6.466   6.461
 2930POPC   C3B40089  43.193   6.588   6.805
 2930POPC   C4B40090  43.169   6.396   7.211
 2931POPC   NC340091   9.547   4.313   5.427
 2931POPC   PO440092  10.245   4.429   5.496
 2931POPC   GL140093   9.887   4.413   5.819
 2931POPC   GL240094   9.584   4.655   5.792
 2931POPC   C1A40095   9.724   4.212   6.232
 2931POPC   D2A40096   9.907   3.992   6.620
 2931POPC   C3A40097   9.901   4.185   7.030
 2931POPC   C4A40098   9.702   4.256   7.439
 2931POPC   C1B40099   9.461   4.666   6.227
 2931POPC   C2B40100   9.660   4.555   6.647
 2931POPC   C3B40101   9.540   4.579   7.080
 2931POPC   C4B40102   9.651   4.768   7.540
 2932POPC   NC340103   9.785  40.501   5.421
 2932POPC   PO440104   9.653  41.094   5.066
 2932POPC   GL140105   9.910  41.038   5.607
 2932POPC   GL240106   9.888  40.696   5.858
 2932POPC   C1A40107   9.890  41.097   6.139
 2932POPC   D2A40108   9.765  40.819   6.510
 2932POPC   C3A40109   9.611  40.985   6.921
 2932POPC   C4A40110   9.621  40.863   7.342
 2932POPC   C1B40111  10.028  40.379   6.172
 2932POPC   C2B40112  10.076  40.330   6.623
 2932POPC   C3B40113   9.858  40.529   6.992
 2932POPC   C4B40114  10.014  40.581   7.463
 2933POPC   NC340115  29.419  34.707   5.444
 2933POPC   PO440116  29.040  34.200   5.402
 2933POPC   GL140117  29.067  34.482   5.776
 2933POPC   GL240118  29.411  34.539   5.924
 2933POPC   C1A40119  28.941  34.459   6.210
 2933POPC   D2A40120  28.642  34.433   6.543
 2933POPC   C3A40121  28.797  34.380   6.953
 2933POPC   C4A40122  29.036  34.705   7.139
 2933POPC   C1B40123  29.390  34.655   6.347
 2933POPC   C2B40124  29.249  34.487   6.699
 2933POPC   C3B40125  29.519  34.625   6.959
 2933POPC   C4B40126  29.394  35.036   6.884
 2934POPC   NC340127  33.749  12.331   5.320
 2934POPC   PO440128  34.113  11.764   5.419
 2934POPC   GL140129  34.014  12.083   5.703
 2934POPC   GL240130  33.670  12.162   5.774
 2934POPC   C1A40131  34.036  12.034   6.127
 2934POPC   D2A40132  33.898  11.838   6.446
 2934POPC   C3A40133  33.775  11.960   6.823
 2934POPC   C4A40134  33.704  11.672   7.140
 2934POPC   C1B40135  33.840  12.482   6.057
 2934POPC   C2B40136  33.822  12.383   6.477
 2934POPC   C3B40137  33.814  12.445   6.938
 2934POPC   C4B40138  33.604  12.222   7.241
 2935POPC   NC340139  20.268  19.236   4.966
 2935POPC   PO440140  19.733  19.101   5.484
 2935POPC   GL140141  19.721  19.065   5.860
 2935POPC   GL240142  19.722  18.713   5.859
 2935POPC   C1A40143  19.588  19.008   6.253
 2935POPC   D2A40144  19.625  19.205   6.581
 2935POPC   C3A40145  19.690  18.948   6.900
 2935POPC   C4A40146  19.840  19.077   7.263
 2935POPC   C1B40147  19.952  18.644   6.266
 2935POPC   C2B40148  20.036  18.604   6.718
 2935POPC   C3B40149  20.171  18.715   7.138
 2935POPC   C4B40150  20.042  18.723   7.592
 2936POPC   NC340151  40.564  35.100   5.471
 2936POPC   PO440152  41.212  35.196   5.444
 2936POPC   GL140153  40.873  35.384   5.784
 2936POPC   GL240154  40.501  35.548   5.751
 2936POPC   C1A40155  40.803  35.184   6.203
 2936POPC   D2A40156  40.939  35.026   6.604
 2936POPC   C3A40157  40.850  35.199   7.035
 2936POPC   C4A40158  40.932  35.133   7.513
 2936POPC   C1B40159  40.541  35.627   6.200
 2936POPC   C2B40160  40.779  35.555   6.581
 2936POPC   C3B40161  40.867  35.724   6.976
 2936POPC   C4B40162  41.013  35.606   7.380
 2937POPC   NC340163   2.993  18.714   5.531
 2937POPC   PO440164   2.931  19.325   5.513
 2937POPC   GL140165   2.722  19.159   5.859
 2937POPC   GL240166   2.766  18.818   5.963
 2937POPC   C1A40167   2.614  19.159   6.296
 2937POPC   D2A40168   2.683  19.133   6.728
 2937POPC   C3A40169   2.362  18.907   6.950
 2937POPC   C4A40170   2.387  18.661   7.327
 2937POPC   C1B40171   3.080  19.010   6.232
 2937POPC   C2B40172   3.135  19.298   6.540
 2937POPC   C3B40173   3.109  19.297   6.980
 2937POPC   C4B40174   2.820  18.984   7.185
 2938POPC   NC340175  30.426  39.442   5.475
 2938POPC   PO440176  30.870  38.991   5.119
 2938POPC   GL140177  30.876  39.165   5.619
 2938POPC   GL240178  30.537  39.093   5.828
 2938POPC   C1A40179  30.952  39.148   6.110
 2938POPC   D2A40180  31.036  38.947   6.531
 2938POPC   C3A40181  30.768  39.032   6.890
 2938POPC   C4A40182  30.813  38.879   7.295
 2938POPC   C1B40183  30.392  39.279   6.186
 2938POPC   C2B40184  30.481  39.423   6.583
 2938POPC   C3B40185  30.365  39.462   6.983
 2938POPC   C4B40186  30.389  39.153   7.299
 2939POPC   NC340187   1.004  14.013   5.319
 2939POPC   PO440188   1.271  13.430   5.524
 2939POPC   GL140189   1.292  13.674   5.856
 2939POPC   GL240190   1.057  13.926   5.841
 2939POPC   C1A40191   1.143  13.547   6.254
 2939POPC   D2A40192   1.172  13.190   6.521
 2939POPC   C3A40193   1.177  13.421   6.887
 2939POPC   C4A40194   1.186  13.469   7.320
 2939POPC   C1B40195   1.251  14.044   6.236
 2939POPC   C2B40196   1.247  13.926   6.689
 2939POPC   C3B40197   1.295  14.128   7.096
 2939POPC   C4B40198   1.096  14.159   7.519
 2940POPC   NC340199  38.083   1.522   5.564
 2940POPC   PO440200  38.185   0.932   5.223
 2940POPC   GL140201  38.328   0.943   5.720
 2940POPC   GL240202  38.679   0.793   5.813
 2940POPC   C1A40203  38.320   1.214   6.138
 2940POPC   D2A40204  38.686   1.315   6.433
 2940POPC   C3A40205  38.664   1.246   6.884
 2940POPC   C4A40206  38.728   1.274   7.341
 2940POPC   C1B40207  38.643   0.843   6.241
 2940POPC   C2B40208  38.365   0.908   6.571
 2940POPC   C3B40209  38.397   0.826   7.000
 2940POPC   C4B40210  38.552   0.772   7.430
 2941POPC   NC340211  41.449  17.756   5.600
 2941POPC   PO440212  41.672  17.161   5.382
 2941POPC   GL140213  41.450  17.199   5.773
 2941POPC   GL240214  41.698  17.052   5.963
 2941POPC   C1A40215  41.316  17.447   6.145
 2941POPC   D2A40216  41.403  17.694   6.504
 2941POPC   C3A40217  41.503  17.442   6.867
 2941POPC   C4A40218  41.499  17.613   7.277
 2941POPC   C1B40219  41.619  17.138   6.408
 2941POPC   C2B40220  41.903  17.099   6.738
 2941POPC   C3B40221  41.797  17.092   7.143
 2941POPC   C4B40222  41.702  17.195   7.550
 2942POPC   NC340223  28.393  26.443   5.554
 2942POPC   PO440224  28.061  25.931   5.237
 2942POPC   GL140225  28.276  25.941   5.700
 2942POPC   GL240226  28.071  26.193   5.855
 2942POPC   C1A40227  28.498  26.127   6.127
 2942POPC   D2A40228  28.284  26.375   6.480
 2942POPC   C3A40229  28.231  26.214   6.911
 2942POPC   C4A40230  28.506  26.045   7.192
 2942POPC   C1B40231  28.037  25.962   6.234
 2942POPC   C2B40232  28.307  25.828   6.563
 2942POPC   C3B40233  28.356  25.609   6.940
 2942POPC   C4B40234  28.163  25.681   7.330
 2943POPC   NC340235   9.103  35.369   5.546
 2943POPC   PO440236   8.605  35.865   5.558
 2943POPC   GL140237   8.725  35.549   5.831
 2943POPC   GL240238   9.031  35.734   5.899
 2943POPC   C1A40239   8.864  35.295   6.188
 2943POPC   D2A40240   9.136  35.177   6.552
 2943POPC   C3A40241   8.938  35.290   6.942
 2943POPC   C4A40242   8.805  34.991   7.228
 2943POPC   C1B40243   9.318  35.545   6.206
 2943POPC   C2B40244   9.408  35.615   6.658
 2943POPC   C3B40245   9.279  35.667   7.090
 2943POPC   C4B40246   8.865  35.835   7.189
 2944POPC   NC340247   7.005  24.496   5.196
 2944POPC   PO440248   7.493  24.293   5.619
 2944POPC   GL140249   7.482  24.324   5.975
 2944POPC   GL240250   7.786  24.092   5.983
 2944POPC   C1A40251   7.239  24.466   6.309
 2944POPC   D2A40252   7.416  24.489   6.689
 2944POPC   C3A40253   7.166  24.552   7.010
 2944POPC   C4A40254   7.397  24.477   7.342
 2944POPC   C1B40255   7.786  24.302   6.367
 2944POPC   C2B40256   7.815  24.136   6.743
 2944POPC   C3B40257   7.775  24.333   7.067
 2944POPC   C4B40258   7.965  24.227   7.433
 2945POPC   NC340259  41.320  28.798   5.486
 2945POPC   PO440260  41.692  29.339   5.437
 2945POPC   GL140261  41.488  29.174   5.814
 2945POPC   GL240262  41.660  28.866   5.850
 2945POPC   C1A40263  41.349  29.054   6.234
 2945POPC   D2A40264  41.553  29.013   6.642
 2945POPC   C3A40265  41.517  29.268   7.030
 2945POPC   C4A40266  41.410  29.196   7.464
 2945POPC   C1B40267  41.852  29.018   6.204
 2945POPC   C2B40268  42.079  29.027   6.574
 2945POPC   C3B40269  41.941  28.993   6.976
 2945POPC   C4B40270  41.766  28.828   7.320
 2946POPC   NC340271  19.337  22.998   5.429
 2946POPC   PO440272  18.675  23.158   5.403
 2946POPC   GL140273  18.769  22.994   5.833
 2946POPC   GL240274  19.028  22.757   5.806
 2946POPC   C1A40275  18.969  23.064   6.266
 2946POPC   D2A40276  19.273  23.245   6.628
 2946POPC   C3A40277  19.252  23.070   7.003
 2946POPC   C4A40278  18.814  23.004   7.108
 2946POPC   C1B40279  19.179  22.591   6.220
 2946POPC   C2B40280  19.065  22.722   6.657
 2946POPC   C3B40281  19.152  22.582   7.081
 2946POPC   C4B40282  19.393  22.402   7.449
 2947POPC   NC340283   1.709  13.574   5.507
 2947POPC   PO440284   2.285  13.987   5.390
 2947POPC   GL140285   2.067  13.955   5.791
 2947POPC   GL240286   2.072  13.590   5.878
 2947POPC   C1A40287   2.161  13.891   6.266
 2947POPC   D2A40288   2.074  13.538   6.530
 2947POPC   C3A40289   2.117  13.681   6.947
 2947POPC   C4A40290   2.005  13.909   7.323
 2947POPC   C1B40291   1.702  13.669   6.169
 2947POPC   C2B40292   1.561  13.538   6.567
 2947POPC   C3B40293   1.606  13.680   7.000
 2947POPC   C4B40294   1.831  13.430   7.303
 2948POPC   NC340295  28.070  39.633   5.425
 2948POPC   PO440296  28.093  40.291   5.150
 2948POPC   GL140297  28.217  40.133   5.541
 2948POPC   GL240298  27.974  40.314   5.713
 2948POPC   C1A40299  28.275  39.973   5.988
 2948POPC   D2A40300  28.427  40.088   6.420
 2948POPC   C3A40301  28.324  39.821   6.779
 2948POPC   C4A40302  28.307  39.965   7.197
 2948POPC   C1B40303  28.074  40.431   6.158
 2948POPC   C2B40304  28.076  40.391   6.642
 2948POPC   C3B40305  28.115  40.415   7.099
 2948POPC   C4B40306  27.949  40.238   7.495
 2949POPC   NC340307  15.434   1.220   5.391
 2949POPC   PO440308  15.968   0.887   5.362
 2949POPC   GL140309  16.220   0.857   5.764
 2949POPC   GL240310  16.234   1.184   5.917
 2949POPC   C1A40311  16.251   0.789   6.239
 2949POPC   D2A40312  16.332   0.909   6.704
 2949POPC   C3A40313  16.011   0.798   7.043
 2949POPC   C4A40314  15.889   0.979   7.452
 2949POPC   C1B40315  15.907   1.155   6.285
 2949POPC   C2B40316  15.842   1.193   6.751
 2949POPC   C3B40317  15.946   1.396   7.164
 2949POPC   C4B40318  16.108   1.423   7.620
 2950POPC   NC340319   2.427  17.553   5.412
 2950POPC   PO440320   1.762  17.400   5.493
 2950POPC   GL140321   1.789  17.652   5.855
 2950POPC   GL240322   2.143  17.644   5.856
 2950POPC   C1A40323   1.908  17.727   6.289
 2950POPC   D2A40324   1.996  17.843   6.660
 2950POPC   C3A40325   1.889  17.606   7.012
 2950POPC   C4A40326   1.996  17.819   7.326
 2950POPC   C1B40327   2.297  17.394   6.227
 2950POPC   C2B40328   2.188  17.350   6.672
 2950POPC   C3B40329   2.297  17.254   7.119
 2950POPC   C4B40330   2.452  17.204   7.575
 2951POPC   NC340331  25.546   5.160   5.173
 2951POPC   PO440332  26.151   5.340   5.358
 2951POPC   GL140333  26.130   5.191   5.814
 2951POPC   GL240334  26.358   5.371   6.028
 2951POPC   C1A40335  26.081   5.013   6.265
 2951POPC   D2A40336  26.161   5.081   6.727
 2951POPC   C3A40337  25.910   4.849   7.055
 2951POPC   C4A40338  25.660   5.000   7.400
 2951POPC   C1B40339  25.996   5.528   6.313
 2951POPC   C2B40340  25.848   5.545   6.767
 2951POPC   C3B40341  26.002   5.342   7.157
 2951POPC   C4B40342  26.035   5.409   7.593
 2952POPC   NC340343  12.895  41.918   5.343
 2952POPC   PO440344  12.572  42.551   5.330
 2952POPC   GL140345  12.815  42.346   5.653
 2952POPC   GL240346  12.620  42.060   5.770
 2952POPC   C1A40347  13.046  42.240   6.037
 2952POPC   D2A40348  12.897  42.100   6.461
 2952POPC   C3A40349  12.947  42.301   6.881
 2952POPC   C4A40350  13.130  42.521   7.271
 2952POPC   C1B40351  12.408  41.959   6.166
 2952POPC   C2B40352  12.485  41.837   6.583
 2952POPC   C3B40353  12.492  42.044   6.977
 2952POPC   C4B40354  12.715  42.212   7.347
 2953POPC   NC340355  43.750  22.399   5.054
 2953POPC   PO440356  43.988  22.952   5.444
 2953POPC   GL140357  43.937  22.895   5.859
 2953POPC   GL240358  44.104  22.615   5.922
 2953POPC   C1A40359  43.866  23.175   6.193
 2953POPC   D2A40360  44.077  23.197   6.581
 2953POPC   C3A40361  43.863  23.081   6.935
 2953POPC   C4A40362  43.985  23.255   7.303
 2953POPC   C1B40363  43.945  22.503   6.343
 2953POPC   C2B40364  43.759  22.518   6.769
 2953POPC   C3B40365  43.909  22.624   7.195
 2953POPC   C4B40366  43.964  22.843   7.576
 2954POPC   NC340367  32.352   9.491   5.541
 2954POPC   PO440368  32.227  10.083   5.305
 2954POPC   GL140369  32.162   9.930   5.760
 2954POPC   GL240370  32.505   9.832   5.925
 2954POPC   C1A40371  32.097   9.919   6.239
 2954POPC   D2A40372  32.309   9.997   6.670
 2954POPC   C3A40373  32.192   9.837   7.083
 2954POPC   C4A40374  32.068   9.899   7.536
 2954POPC   C1B40375  32.522   9.631   6.365
 2954POPC   C2B40376  32.538   9.547   6.834
 2954POPC   C3B40377  32.479   9.504   7.314
 2954POPC   C4B40378  32.712   9.384   7.665
 2955POPC   NC340379  14.241  31.742   5.294
 2955POPC   PO440380  14.520  32.391   5.387
 2955POPC   GL140381  14.530  32.047   5.655
 2955POPC   GL240382  14.195  31.960   5.763
 2955POPC   C1A40383  14.598  32.079   6.117
 2955POPC   D2A40384  14.442  32.234   6.532
 2955POPC   C3A40385  14.678  32.295   6.913
 2955POPC   C4A40386  14.670  32.044   7.274
 2955POPC   C1B40387  14.083  31.829   6.186
 2955POPC   C2B40388  14.111  31.833   6.641
 2955POPC   C3B40389  14.230  32.050   7.019
 2955POPC   C4B40390  14.205  31.882   7.476
 2956POPC   NC340391   3.623  23.389   5.313
 2956POPC   PO440392   3.351  24.006   5.183
 2956POPC   GL140393   3.498  23.870   5.579
 2956POPC   GL240394   3.389  23.563   5.732
 2956POPC   C1A40395   3.631  23.910   6.019
 2956POPC   D2A40396   3.870  23.706   6.340
 2956POPC   C3A40397   3.731  23.799   6.766
 2956POPC   C4A40398   3.707  23.756   7.229
 2956POPC   C1B40399   3.205  23.611   6.156
 2956POPC   C2B40400   3.349  23.486   6.581
 2956POPC   C3B40401   3.245  23.703   6.986
 2956POPC   C4B40402   3.261  23.867   7.430
 2957POPC   NC340403  11.955   6.067   5.353
 2957POPC   PO440404  12.149   5.744   5.919
 2957POPC   GL140405  11.967   6.078   6.049
 2957POPC   GL240406  11.671   6.129   5.849
 2957POPC   C1A40407  12.010   6.168   6.497
 2957POPC   D2A40408  12.097   5.767   6.781
 2957POPC   C3A40409  12.240   5.646   7.213
 2957POPC   C4A40410  12.172   5.632   7.666
 2957POPC   C1B40411  11.538   6.009   6.316
 2957POPC   C2B40412  11.644   6.008   6.801
 2957POPC   C3B40413  11.863   5.998   7.211
 2957POPC   C4B40414  11.785   5.982   7.677
 2958POPC   NC340415  11.217  38.349   5.013
 2958POPC   PO440416  11.360  38.660   5.604
 2958POPC   GL140417  11.290  38.500   6.001
 2958POPC   GL240418  11.484  38.182   6.112
 2958POPC   C1A40419  11.172  38.459   6.406
 2958POPC   D2A40420  11.365  38.475   6.763
 2958POPC   C3A40421  11.046  38.563   7.047
 2958POPC   C4A40422  10.831  38.753   7.382
 2958POPC   C1B40423  11.310  37.932   6.412
 2958POPC   C2B40424  11.041  38.056   6.754
 2958POPC   C3B40425  11.100  38.066   7.179
 2958POPC   C4B40426  11.079  38.314   7.571
 2959POPC   NC340427   0.543  40.713   5.321
 2959POPC   PO440428   0.660  41.268   5.528
 2959POPC   GL140429   0.542  40.916   5.807
 2959POPC   GL240430   0.735  40.600   5.810
 2959POPC   C1A40431   0.282  40.654   6.099
 2959POPC   D2A40432   0.089  40.802   6.474
 2959POPC   C3A40433   0.138  40.680   6.897
 2959POPC   C4A40434   0.200  40.759   7.332
 2959POPC   C1B40435   0.754  40.768   6.259
 2959POPC   C2B40436   0.640  40.641   6.670
 2959POPC   C3B40437   0.645  40.788   7.087
 2959POPC   C4B40438   0.674  40.678   7.539
 2960POPC   NC340439  23.942   0.024   5.446
 2960POPC   PO440440  23.620  44.461   5.417
 2960POPC   GL140441  23.758  44.635   5.749
 2960POPC   GL240442  24.079  44.522   5.680
 2960POPC   C1A40443  23.591  44.710   6.157
 2960POPC   D2A40444  23.777  44.731   6.564
 2960POPC   C3A40445  23.575  44.686   6.967
 2960POPC   C4A40446  23.706  44.998   7.288
 2960POPC   C1B40447  24.094  44.481   6.154
 2960POPC   C2B40448  24.188  44.442   6.645
 2960POPC   C3B40449  24.082  44.708   7.045
 2960POPC   C4B40450  24.022  44.698   7.530
 2961POPC   NC340451  12.933  29.908   5.407
 2961POPC   PO440452  12.321  29.718   5.441
 2961POPC   GL140453  12.593  29.957   5.805
 2961POPC   GL240454  13.011  29.908   5.897
 2961POPC   C1A40455  12.696  30.018   6.271
 2961POPC   D2A40456  13.037  30.063   6.576
 2961POPC   C3A40457  12.949  30.236   6.993
 2961POPC   C4A40458  12.679  30.260   7.396
 2961POPC   C1B40459  13.015  29.555   6.210
 2961POPC   C2B40460  12.913  29.537   6.651
 2961POPC   C3B40461  13.013  29.674   7.066
 2961POPC   C4B40462  12.630  29.763   7.271
 2962POPC   NC340463  29.342  19.973   5.495
 2962POPC   PO440464  29.043  19.415   5.307
 2962POPC   GL140465  29.088  19.599   5.757
 2962POPC   GL240466  28.787  19.712   5.950
 2962POPC   C1A40467  29.261  19.710   6.207
 2962POPC   D2A40468  29.163  19.844   6.642
 2962POPC   C3A40469  29.301  19.743   7.081
 2962POPC   C4A40470  29.032  19.683   7.467
 2962POPC   C1B40471  28.942  20.121   6.156
 2962POPC   C2B40472  28.961  20.302   6.572
 2962POPC   C3B40473  29.021  20.171   7.021
 2962POPC   C4B40474  28.790  20.170   7.393
 2963POPC   NC340475  42.721  43.232   5.472
 2963POPC   PO440476  43.225  42.957   5.055
 2963POPC   GL140477  43.109  42.941   5.569
 2963POPC   GL240478  43.128  43.316   5.743
 2963POPC   C1A40479  43.144  42.942   6.061
 2963POPC   D2A40480  42.899  42.935   6.476
 2963POPC   C3A40481  43.086  43.026   6.891
 2963POPC   C4A40482  43.332  43.082   7.276
 2963POPC   C1B40483  42.882  43.372   6.170
 2963POPC   C2B40484  42.940  43.495   6.645
 2963POPC   C3B40485  42.899  43.452   7.119
 2963POPC   C4B40486  42.786  43.521   7.578
 2964POPC   NC340487  39.687   6.680   5.389
 2964POPC   PO440488  40.079   6.329   5.715
 2964POPC   GL140489  40.058   6.779   5.804
 2964POPC   GL240490  39.732   6.954   5.820
 2964POPC   C1A40491  40.189   6.888   6.219
 2964POPC   D2A40492  39.983   6.835   6.613
 2964POPC   C3A40493  40.182   6.767   6.983
 2964POPC   C4A40494  40.006   6.744   7.399
 2964POPC   C1B40495  39.701   6.709   6.193
 2964POPC   C2B40496  39.866   6.363   6.467
 2964POPC   C3B40497  39.823   6.389   6.938
 2964POPC   C4B40498  39.971   6.241   7.378
 2965POPC   NC340499  20.892  25.759   5.535
 2965POPC   PO440500  21.422  26.081   5.180
 2965POPC   GL140501  21.429  26.191   5.643
 2965POPC   GL240502  21.071  26.196   5.784
 2965POPC   C1A40503  21.430  26.113   6.136
 2965POPC   D2A40504  21.381  26.225   6.571
 2965POPC   C3A40505  21.423  25.979   6.942
 2965POPC   C4A40506  21.686  25.654   7.104
 2965POPC   C1B40507  20.945  26.211   6.269
 2965POPC   C2B40508  20.904  26.247   6.741
 2965POPC   C3B40509  21.016  26.186   7.212
 2965POPC   C4B40510  21.181  26.282   7.632
 2966POPC   NC340511  23.089   8.818   5.426
 2966POPC   PO440512  22.641   9.423   5.491
 2966POPC   GL140513  22.711   9.025   5.730
 2966POPC   GL240514  23.041   9.143   5.822
 2966POPC   C1A40515  22.798   8.865   6.184
 2966POPC   D2A40516  22.893   8.693   6.619
 2966POPC   C3A40517  22.835   8.954   7.009
 2966POPC   C4A40518  22.742   9.063   7.461
 2966POPC   C1B40519  23.262   9.066   6.224
 2966POPC   C2B40520  23.217   9.099   6.667
 2966POPC   C3B40521  23.312   8.783   6.965
 2966POPC   C4B40522  23.212   8.850   7.369
 2967POPC   NC340523   1.583  44.114   5.105
 2967POPC   PO440524   1.866  43.591   5.455
 2967POPC   GL140525   2.056  43.656   5.836
 2967POPC   GL240526   2.176  44.011   5.838
 2967POPC   C1A40527   2.013  43.732   6.272
 2967POPC   D2A40528   2.047  43.523   6.655
 2967POPC   C3A40529   1.945  43.819   7.008
 2967POPC   C4A40530   2.196  43.996   7.331
 2967POPC   C1B40531   1.886  44.217   6.151
 2967POPC   C2B40532   1.743  44.119   6.546
 2967POPC   C3B40533   1.573  44.177   6.928
 2967POPC   C4B40534   1.773  44.274   7.312
 2968POPC   NC340535  35.653  24.056   5.429
 2968POPC   PO440536  35.179  23.511   5.470
 2968POPC   GL140537  35.209  23.698   5.864
 2968POPC   GL240538  35.571  23.680   5.804
 2968POPC   C1A40539  34.969  23.919   6.224
 2968POPC   D2A40540  34.816  23.935   6.686
 2968POPC   C3A40541  35.163  23.884   6.992
 2968POPC   C4A40542  35.394  23.538   7.181
 2968POPC   C1B40543  35.538  23.963   6.157
 2968POPC   C2B40544  35.544  23.845   6.578
 2968POPC   C3B40545  35.648  24.093   6.905
 2968POPC   C4B40546  35.623  24.024   7.321
 2969POPC   NC340547  33.569  21.595   5.079
 2969POPC   PO440548  33.133  21.147   5.345
 2969POPC   GL140549  33.015  21.198   5.775
 2969POPC   GL240550  33.240  20.939   5.824
 2969POPC   C1A40551  32.893  21.390   6.181
 2969POPC   D2A40552  32.734  21.625   6.544
 2969POPC   C3A40553  32.820  21.501   6.963
 2969POPC   C4A40554  32.598  21.310   7.291
 2969POPC   C1B40555  33.336  21.071   6.210
 2969POPC   C2B40556  33.222  20.938   6.571
 2969POPC   C3B40557  33.364  21.052   6.941
 2969POPC   C4B40558  33.136  21.218   7.302
 2970POPC   NC340559  31.163  35.542   5.405
 2970POPC   PO440560  31.760  35.377   5.490
 2970POPC   GL140561  31.425  35.359   5.804
 2970POPC   GL240562  31.568  35.070   5.987
 2970POPC   C1A40563  31.434  35.537   6.219
 2970POPC   D2A40564  31.833  35.566   6.468
 2970POPC   C3A40565  31.762  35.556   6.904
 2970POPC   C4A40566  31.628  35.259   7.214
 2970POPC   C1B40567  31.148  35.070   6.136
 2970POPC   C2B40568  31.017  35.058   6.543
 2970POPC   C3B40569  31.212  35.198   6.905
 2970POPC   C4B40570  31.197  34.986   7.318
 2971POPC   NC340571  11.558  36.094   5.511
 2971POPC   PO440572  11.028  35.727   5.652
 2971POPC   GL140573  11.233  36.022   5.911
 2971POPC   GL240574  11.242  36.395   5.805
 2971POPC   C1A40575  11.573  35.904   6.180
 2971POPC   D2A40576  11.859  35.815   6.524
 2971POPC   C3A40577  11.663  35.832   6.932
 2971POPC   C4A40578  11.584  36.014   7.346
 2971POPC   C1B40579  11.440  36.463   6.208
 2971POPC   C2B40580  11.540  36.243   6.591
 2971POPC   C3B40581  11.324  36.259   6.990
 2971POPC   C4B40582  11.148  36.332   7.418
 2972POPC   NC340583  19.400  33.227   5.406
 2972POPC   PO440584  18.704  32.981   5.379
 2972POPC   GL140585  18.893  33.055   5.825
 2972POPC   GL240586  19.252  32.957   5.838
 2972POPC   C1A40587  19.085  33.290   6.205
 2972POPC   D2A40588  18.926  33.485   6.595
 2972POPC   C3A40589  18.978  33.354   7.016
 2972POPC   C4A40590  19.342  33.424   7.236
 2972POPC   C1B40591  19.000  32.777   6.218
 2972POPC   C2B40592  18.942  32.958   6.620
 2972POPC   C3B40593  18.859  32.838   7.053
 2972POPC   C4B40594  19.084  32.824   7.447
 2973POPC   NC340595  31.022  23.584   5.588
 2973POPC   PO440596  30.632  24.082   5.308
 2973POPC   GL140597  30.625  23.922   5.754
 2973POPC   GL240598  30.547  23.584   5.829
 2973POPC   C1A40599  30.709  23.940   6.245
 2973POPC   D2A40600  30.761  24.149   6.692
 2973POPC   C3A40601  30.743  23.840   7.070
 2973POPC   C4A40602  30.648  23.501   7.386
 2973POPC   C1B40603  30.772  23.431   6.197
 2973POPC   C2B40604  30.840  23.565   6.618
 2973POPC   C3B40605  30.902  23.342   6.992
 2973POPC   C4B40606  31.145  23.295   7.382
 2974POPC   NC340607  16.015   8.169   5.328
 2974POPC   PO440608  16.286   8.741   5.534
 2974POPC   GL140609  16.131   8.407   5.814
 2974POPC   GL240610  15.922   8.099   5.846
 2974POPC   C1A40611  15.951   8.421   6.237
 2974POPC   D2A40612  16.160   8.440   6.633
 2974POPC   C3A40613  16.053   8.146   6.931
 2974POPC   C4A40614  16.032   8.076   7.378
 2974POPC   C1B40615  15.594   8.078   6.200
 2974POPC   C2B40616  15.616   8.061   6.674
 2974POPC   C3B40617  15.739   7.757   7.044
 2974POPC   C4B40618  15.583   7.791   7.491
 2975POPC   NC340619   1.380   6.580   5.215
 2975POPC   PO440620   2.088   6.677   5.487
 2975POPC   GL140621   1.952   6.778   5.924
 2975POPC   GL240622   1.973   6.443   6.072
 2975POPC   C1A40623   1.779   6.805   6.383
 2975POPC   D2A40624   1.526   6.794   6.759
 2975POPC   C3A40625   1.855   6.746   7.044
 2975POPC   C4A40626   2.311   6.819   7.083
 2975POPC   C1B40627   2.271   6.676   6.318
 2975POPC   C2B40628   2.464   6.556   6.672
 2975POPC   C3B40629   2.225   6.278   6.972
 2975POPC   C4B40630   1.910   6.315   7.307
 2976POPC   NC340631  24.099  11.178   5.551
 2976POPC   PO440632  24.677  11.458   5.344
 2976POPC   GL140633  24.480  11.438   5.770
 2976POPC   GL240634  24.562  11.068   5.738
 2976POPC   C1A40635  24.413  11.559   6.232
 2976POPC   D2A40636  24.293  11.361   6.638
 2976POPC   C3A40637  24.505  11.459   7.049
 2976POPC   C4A40638  24.525  11.437   7.532
 2976POPC   C1B40639  24.502  11.063   6.171
 2976POPC   C2B40640  24.772  11.212   6.514
 2976POPC   C3B40641  24.735  10.991   6.897
 2976POPC   C4B40642  24.548  10.998   7.298
 2977POPC   NC340643  29.991  27.690   5.166
 2977POPC   PO440644  30.246  27.389   5.682
 2977POPC   GL140645  30.030  27.676   5.919
 2977POPC   GL240646  29.734  27.575   5.679
 2977POPC   C1A40647  30.243  27.678   6.360
 2977POPC   D2A40648  30.170  27.385   6.741
 2977POPC   C3A40649  30.139  27.533   7.194
 2977POPC   C4A40650  29.956  27.886   7.487
 2977POPC   C1B40651  29.561  27.558   6.101
 2977POPC   C2B40652  29.749  27.773   6.454
 2977POPC   C3B40653  29.768  27.718   6.876
 2977POPC   C4B40654  29.599  27.557   7.222
 2978POPC   NC340655  39.683  14.559   5.106
 2978POPC   PO440656  40.187  14.121   5.476
 2978POPC   GL140657  40.055  14.358   5.792
 2978POPC   GL240658  39.769  14.520   5.643
 2978POPC   C1A40659  40.176  14.352   6.209
 2978POPC   D2A40660  40.338  14.249   6.583
 2978POPC   C3A40661  40.149  14.360   6.974
 2978POPC   C4A40662  40.058  14.506   7.391
 2978POPC   C1B40663  39.772  14.638   6.115
 2978POPC   C2B40664  39.855  14.512   6.578
 2978POPC   C3B40665  39.661  14.521   7.029
 2978POPC   C4B40666  39.601  14.789   7.419
 2979POPC   NC340667  33.212  42.751   5.406
 2979POPC   PO440668  32.958  43.319   5.224
 2979POPC   GL140669  32.864  43.150   5.671
 2979POPC   GL240670  32.961  42.808   5.843
 2979POPC   C1A40671  32.959  43.241   6.127
 2979POPC   D2A40672  33.180  43.194   6.518
 2979POPC   C3A40673  32.950  43.402   6.839
 2979POPC   C4A40674  32.864  43.478   7.255
 2979POPC   C1B40675  32.710  42.790   6.249
 2979POPC   C2B40676  32.754  42.945   6.699
 2979POPC   C3B40677  33.013  42.849   7.103
 2979POPC   C4B40678  32.884  42.690   7.562
 2980POPC   NC340679  30.610  18.794   5.384
 2980POPC   PO440680  31.120  19.155   5.678
 2980POPC   GL140681  30.787  18.985   5.882
 2980POPC   GL240682  30.491  19.146   5.799
 2980POPC   C1A40683  30.585  18.858   6.293
 2980POPC   D2A40684  30.545  18.652   6.711
 2980POPC   C3A40685  30.859  18.815   6.962
 2980POPC   C4A40686  31.134  18.912   7.275
 2980POPC   C1B40687  30.672  19.369   6.185
 2980POPC   C2B40688  30.769  19.301   6.569
 2980POPC   C3B40689  30.451  19.163   6.786
 2980POPC   C4B40690  30.393  18.959   7.134
 2981POPC   NC340691   8.616   5.644   5.389
 2981POPC   PO440692   9.206   5.481   5.401
 2981POPC   GL140693   9.237   5.818   5.700
 2981POPC   GL240694   8.905   5.947   5.806
 2981POPC   C1A40695   9.283   5.838   6.152
 2981POPC   D2A40696   9.400   5.661   6.551
 2981POPC   C3A40697   9.147   5.782   6.894
 2981POPC   C4A40698   9.114   5.589   7.307
 2981POPC   C1B40699   8.668   6.096   6.187
 2981POPC   C2B40700   8.580   6.051   6.646
 2981POPC   C3B40701   8.526   6.296   7.037
 2981POPC   C4B40702   8.789   6.385   7.389
 2982POPC   NC340703  10.804  21.448   5.057
 2982POPC   PO440704  10.257  21.480   5.554
 2982POPC   GL140705  10.514  21.494   5.872
 2982POPC   GL240706  10.866  21.504   5.782
 2982POPC   C1A40707  10.356  21.366   6.262
 2982POPC   D2A40708  10.413  21.144   6.626
 2982POPC   C3A40709  10.209  21.401   6.931
 2982POPC   C4A40710  10.300  21.509   7.356
 2982POPC   C1B40711  10.838  21.261   6.194
 2982POPC   C2B40712  10.900  21.250   6.619
 2982POPC   C3B40713  10.702  21.309   7.018
 2982POPC   C4B40714  10.794  21.497   7.384
 2983POPC   NC340715  39.243  15.470   5.452
 2983POPC   PO440716  39.222  14.782   5.213
 2983POPC   GL140717  39.245  14.988   5.682
 2983POPC   GL240718  39.550  14.974   5.786
 2983POPC   C1A40719  39.117  15.317   6.077
 2983POPC   D2A40720  39.118  15.191   6.553
 2983POPC   C3A40721  39.106  15.431   6.962
 2983POPC   C4A40722  39.335  15.388   7.341
 2983POPC   C1B40723  39.353  14.898   6.201
 2983POPC   C2B40724  39.400  14.739   6.591
 2983POPC   C3B40725  39.413  14.977   6.958
 2983POPC   C4B40726  39.110  14.931   7.275
 2984POPC   NC340727  14.309  31.029   5.562
 2984POPC   PO440728  14.659  31.535   5.336
 2984POPC   GL140729  14.671  31.586   5.834
 2984POPC   GL240730  14.602  31.267   5.920
 2984POPC   C1A40731  14.760  31.650   6.336
 2984POPC   D2A40732  14.653  31.800   6.773
 2984POPC   C3A40733  14.461  31.596   7.124
 2984POPC   C4A40734  14.034  31.569   7.115
 2984POPC   C1B40735  14.346  31.388   6.262
 2984POPC   C2B40736  14.336  31.377   6.683
 2984POPC   C3B40737  14.273  31.133   7.039
 2984POPC   C4B40738  14.572  31.106   7.367
 2985POPC   NC340739  42.851   5.660   5.413
 2985POPC   PO440740  43.396   6.131   5.305
 2985POPC   GL140741  43.133   6.058   5.665
 2985POPC   GL240742  43.329   5.774   5.734
 2985POPC   C1A40743  42.846   5.853   6.043
 2985POPC   D2A40744  42.675   5.764   6.479
 2985POPC   C3A40745  42.930   5.812   6.849
 2985POPC   C4A40746  42.818   5.991   7.231
 2985POPC   C1B40747  43.317   6.010   6.122
 2985POPC   C2B40748  43.329   5.949   6.535
 2985POPC   C3B40749  43.487   6.163   6.867
 2985POPC   C4B40750  43.415   5.963   7.217
 2986POPC   NC340751   5.786  18.997   4.951
 2986POPC   PO440752   5.525  19.387   5.318
 2986POPC   GL140753   5.676  19.288   5.775
 2986POPC   GL240754   5.767  18.928   5.801
 2986POPC   C1A40755   5.896  19.218   6.221
 2986POPC   D2A40756   5.981  18.928   6.609
 2986POPC   C3A40757   6.079  19.048   7.054
 2986POPC   C4A40758   6.304  19.019   7.471
 2986POPC   C1B40759   5.665  18.756   6.221
 2986POPC   C2B40760   5.585  18.595   6.638
 2986POPC   C3B40761   5.586  18.848   7.037
 2986POPC   C4B40762   5.404  18.955   7.467
 2987POPC   NC340763  34.215  20.280   5.473
 2987POPC   PO440764  33.598  20.206   5.283
 2987POPC   GL140765  33.615  19.942   5.684
 2987POPC   GL240766  33.973  19.887   5.751
 2987POPC   C1A40767  33.602  19.694   6.108
 2987POPC   D2A40768  33.462  19.740   6.564
 2987POPC   C3A40769  33.786  19.696   6.890
 2987POPC   C4A40770  33.841  19.915   7.273
 2987POPC   C1B40771  33.802  20.197   6.088
 2987POPC   C2B40772  33.788  20.127   6.535
 2987POPC   C3B40773  34.025  20.234   6.925
 2987POPC   C4B40774  34.043  20.441   7.327
 2988POPC   NC340775  11.943  27.525   5.163
 2988POPC   PO440776  12.393  27.926   5.378
 2988POPC   GL140777  12.025  27.903   5.645
 2988POPC   GL240778  11.874  27.596   5.749
 2988POPC   C1A40779  11.984  27.957   6.112
 2988POPC   D2A40780  12.145  27.842   6.529
 2988POPC   C3A40781  11.918  27.704   6.913
 2988POPC   C4A40782  12.134  27.702   7.300
 2988POPC   C1B40783  12.001  27.450   6.182
 2988POPC   C2B40784  12.015  27.287   6.631
 2988POPC   C3B40785  12.231  27.271   7.058
 2988POPC   C4B40786  12.173  27.238   7.536
 2989POPC   NC340787  38.147  44.792   5.155
 2989POPC   PO440788  38.641  44.802   5.588
 2989POPC   GL140789  38.566  44.554   5.908
 2989POPC   GL240790  38.570  44.851   6.085
 2989POPC   C1A40791  38.311  44.438   6.288
 2989POPC   D2A40792  38.180  44.216   6.655
 2989POPC   C3A40793  38.090  44.472   7.013
 2989POPC   C4A40794  38.395  44.478   7.301
 2989POPC   C1B40795  38.412   0.017   6.393
 2989POPC   C2B40796  38.387  44.763   6.711
 2989POPC   C3B40797  38.578  44.892   7.050
 2989POPC   C4B40798  38.316  44.957   7.338
 2990POPC   NC340799  11.668  11.340   5.282
 2990POPC   PO440800  11.042  11.675   5.173
 2990POPC   GL140801  11.325  11.530   5.634
 2990POPC   GL240802  11.551  11.252   5.772
 2990POPC   C1A40803  11.289  11.523   6.143
 2990POPC   D2A40804  11.253  11.678   6.613
 2990POPC   C3A40805  11.162  11.383   7.001
 2990POPC   C4A40806  10.951  11.008   7.253
 2990POPC   C1B40807  11.776  11.336   6.176
 2990POPC   C2B40808  11.774  11.496   6.609
 2990POPC   C3B40809  11.708  11.258   6.993
 2990POPC   C4B40810  11.449  11.148   7.360
 2991POPC   NC340811   4.355   3.907   5.511
 2991POPC   PO440812   4.224   4.517   5.453
 2991POPC   GL140813   4.117   4.474   5.850
 2991POPC   GL240814   4.051   4.148   5.852
 2991POPC   C1A40815   4.403   4.368   6.174
 2991POPC   D2A40816   4.606   4.544   6.521
 2991POPC   C3A40817   4.430   4.358   6.873
 2991POPC   C4A40818   4.513   4.014   7.111
 2991POPC   C1B40819   3.908   4.235   6.260
 2991POPC   C2B40820   3.967   4.443   6.657
 2991POPC   C3B40821   3.981   4.297   7.114
 2991POPC   C4B40822   3.900   4.534   7.500
 2992POPC   NC340823  16.822   7.904   5.270
 2992POPC   PO440824  17.058   7.238   5.308
 2992POPC   GL140825  16.858   7.389   5.720
 2992POPC   GL240826  16.871   7.754   5.750
 2992POPC   C1A40827  16.781   7.305   6.207
 2992POPC   D2A40828  16.540   7.464   6.599
 2992POPC   C3A40829  16.653   7.314   7.032
 2992POPC   C4A40830  16.511   7.395   7.440
 2992POPC   C1B40831  16.807   7.808   6.162
 2992POPC   C2B40832  16.991   7.668   6.511
 2992POPC   C3B40833  16.882   7.748   6.893
 2992POPC   C4B40834  16.807   7.807   7.307
 2993POPC   NC340835  40.545  22.503   5.377
 2993POPC   PO440836  40.619  21.903   5.250
 2993POPC   GL140837  40.765  22.126   5.655
 2993POPC   GL240838  40.454  22.231   5.793
 2993POPC   C1A40839  40.866  22.318   6.099
 2993POPC   D2A40840  40.675  22.084   6.502
 2993POPC   C3A40841  40.829  22.108   6.961
 2993POPC   C4A40842  40.783  22.288   7.406
 2993POPC   C1B40843  40.380  22.412   6.199
 2993POPC   C2B40844  40.624  22.600   6.537
 2993POPC   C3B40845  40.544  22.547   6.965
 2993POPC   C4B40846  40.306  22.292   7.241
 2994POPC   NC340847   7.680  23.570   5.537
 2994POPC   PO440848   7.233  23.948   5.247
 2994POPC   GL140849   7.347  23.847   5.798
 2994POPC   GL240850   7.481  23.577   5.989
 2994POPC   C1A40851   7.365  23.946   6.294
 2994POPC   D2A40852   7.443  23.779   6.722
 2994POPC   C3A40853   7.253  24.068   7.026
 2994POPC   C4A40854   7.206  24.052   7.510
 2994POPC   C1B40855   7.739  23.346   6.234
 2994POPC   C2B40856   7.848  23.401   6.660
 2994POPC   C3B40857   7.667  23.395   7.039
 2994POPC   C4B40858   7.813  23.418   7.471
 2995POPC   NC340859  42.900  22.788   5.409
 2995POPC   PO440860  43.361  22.289   5.301
 2995POPC   GL140861  43.211  22.233   5.736
 2995POPC   GL240862  43.172  22.578   5.809
 2995POPC   C1A40863  42.978  21.978   6.087
 2995POPC   D2A40864  42.822  22.008   6.540
 2995POPC   C3A40865  43.110  22.024   6.901
 2995POPC   C4A40866  43.230  21.831   7.303
 2995POPC   C1B40867  43.182  22.434   6.228
 2995POPC   C2B40868  42.959  22.560   6.587
 2995POPC   C3B40869  42.792  22.445   6.972
 2995POPC   C4B40870  43.107  22.369   7.298
 2996POPC   NC340871   1.743   3.464   5.109
 2996POPC   PO440872   1.178   3.496   5.443
 2996POPC   GL140873   1.208   3.398   5.861
 2996POPC   GL240874   0.865   3.266   5.895
 2996POPC   C1A40875   1.402   3.475   6.275
 2996POPC   D2A40876   1.638   3.492   6.676
 2996POPC   C3A40877   1.516   3.738   7.027
 2996POPC   C4A40878   1.097   3.666   7.153
 2996POPC   C1B40879   1.005   3.142   6.288
 2996POPC   C2B40880   1.152   3.272   6.713
 2996POPC   C3B40881   1.057   3.172   7.128
 2996POPC   C4B40882   1.110   3.203   7.591
 2997POPC   NC340883   3.271  40.327   5.698
 2997POPC   PO440884   3.690  40.012   5.310
 2997POPC   GL140885   3.682  39.917   5.765
 2997POPC   GL240886   3.367  39.772   5.879
 2997POPC   C1A40887   3.673  39.894   6.232
 2997POPC   D2A40888   3.541  40.089   6.596
 2997POPC   C3A40889   3.651  39.803   6.889
 2997POPC   C4A40890   3.746  39.915   7.268
 2997POPC   C1B40891   3.077  39.689   6.176
 2997POPC   C2B40892   3.243  39.665   6.588
 2997POPC   C3B40893   3.149  39.724   7.008
 2997POPC   C4B40894   3.256  39.837   7.411
 2998POPC   NC340895  36.211   9.519   5.218
 2998POPC   PO440896  35.596   9.610   5.474
 2998POPC   GL140897  36.040   9.710   5.675
 2998POPC   GL240898  36.338   9.453   5.722
 2998POPC   C1A40899  36.133   9.819   6.111
 2998POPC   D2A40900  35.907   9.686   6.510
 2998POPC   C3A40901  35.940   9.858   6.951
 2998POPC   C4A40902  35.924   9.866   7.412
 2998POPC   C1B40903  36.460   9.444   6.157
 2998POPC   C2B40904  36.439   9.654   6.537
 2998POPC   C3B40905  36.412   9.496   6.930
 2998POPC   C4B40906  36.395   9.763   7.266
 2999POPC   NC340907  10.302   1.104   5.556
 2999POPC   PO440908  10.796   0.949   5.167
 2999POPC   GL140909  10.798   1.031   5.716
 2999POPC   GL240910  10.541   1.244   5.980
 2999POPC   C1A40911  10.745   0.847   6.178
 2999POPC   D2A40912  10.472   1.063   6.509
 2999POPC   C3A40913  10.553   1.326   6.839
 2999POPC   C4A40914  10.726   1.200   7.201
 2999POPC   C1B40915  10.143   1.308   6.186
 2999POPC   C2B40916  10.001   1.331   6.603
 2999POPC   C3B40917  10.081   1.192   7.017
 2999POPC   C4B40918  10.266   1.033   7.389
 3000POPC   NC340919   7.036  24.183   5.598
 3000POPC   PO440920   6.664  24.764   5.352
 3000POPC   GL140921   6.763  24.602   5.765
 3000POPC   GL240922   6.519  24.366   5.900
 3000POPC   C1A40923   6.736  24.708   6.235
 3000POPC   D2A40924   6.883  24.811   6.673
 3000POPC   C3A40925   6.678  24.654   7.072
 3000POPC   C4A40926   6.787  24.217   7.242
 3000POPC   C1B40927   6.821  24.157   6.211
 3000POPC   C2B40928   6.897  24.232   6.658
 3000POPC   C3B40929   6.481  24.250   6.832
 3000POPC   C4B40930   6.237  24.219   7.193
 3001POPC   NC340931  29.333  44.424   5.426
 3001POPC   PO440932  29.130   0.016   5.521
 3001POPC   GL140933  29.156  44.706   5.830
 3001POPC   GL240934  28.882  44.455   5.774
 3001POPC   C1A40935  29.371  44.545   6.192
 3001POPC   D2A40936  29.553  44.620   6.603
 3001POPC   C3A40937  29.300  44.827   6.860
 3001POPC   C4A40938  29.198  44.805   7.286
 3001POPC   C1B40939  28.827  44.594   6.213
 3001POPC   C2B40940  29.028  44.468   6.594
 3001POPC   C3B40941  29.085  44.372   7.031
 3001POPC   C4B40942  29.141  44.348   7.491
 3002POPC   NC340943  43.612  38.883   5.483
 3002POPC   PO440944  44.120  39.362   5.439
 3002POPC   GL140945  44.138  39.211   5.834
 3002POPC   GL240946  43.818  39.126   5.899
 3002POPC   C1A40947  44.155  39.423   6.227
 3002POPC   D2A40948  44.088  39.235   6.625
 3002POPC   C3A40949  44.201  39.472   6.977
 3002POPC   C4A40950  44.318  39.314   7.369
 3002POPC   C1B40951  43.640  39.239   6.298
 3002POPC   C2B40952  43.586  39.229   6.737
 3002POPC   C3B40953  43.836  39.152   7.149
 3002POPC   C4B40954  43.938  39.064   7.612
 3003POPC   NC340955  20.728   7.824   5.416
 3003POPC   PO440956  20.304   8.361   5.374
 3003POPC   GL140957  20.454   8.148   5.712
 3003POPC   GL240958  20.786   8.235   5.791
 3003POPC   C1A40959  20.401   8.104   6.143
 3003POPC   D2A40960  20.612   8.161   6.526
 3003POPC   C3A40961  20.345   8.249   6.871
 3003POPC   C4A40962  20.474   8.077   7.241
 3003POPC   C1B40963  21.019   8.156   6.191
 3003POPC   C2B40964  21.126   8.292   6.617
 3003POPC   C3B40965  20.942   8.035   6.934
 3003POPC   C4B40966  20.955   7.887   7.347
 3004POPC   NC340967   7.827   2.039   5.438
 3004POPC   PO440968   8.489   2.110   5.485
 3004POPC   GL140969   8.223   1.918   5.790
 3004POPC   GL240970   7.942   2.109   5.939
 3004POPC   C1A40971   8.267   1.800   6.217
 3004POPC   D2A40972   8.070   1.843   6.609
 3004POPC   C3A40973   8.293   1.828   6.999
 3004POPC   C4A40974   8.066   1.821   7.384
 3004POPC   C1B40975   8.228   2.437   6.090
 3004POPC   C2B40976   8.397   2.645   6.440
 3004POPC   C3B40977   8.257   2.496   6.826
 3004POPC   C4B40978   8.143   2.298   7.213
 3005POPC   NC340979  29.458   9.857   5.508
 3005POPC   PO440980  30.081   9.841   5.363
 3005POPC   GL140981  29.963   9.674   5.764
 3005POPC   GL240982  29.695   9.844   5.965
 3005POPC   C1A40983  30.114   9.683   6.212
 3005POPC   D2A40984  29.844   9.808   6.546
 3005POPC   C3A40985  29.981   9.887   6.961
 3005POPC   C4A40986  29.907   9.812   7.395
 3005POPC   C1B40987  29.661   9.440   6.191
 3005POPC   C2B40988  29.761   9.306   6.629
 3005POPC   C3B40989  29.600   9.555   6.990
 3005POPC   C4B40990  29.493  10.013   7.100
 3006POPC   NC340991  20.721  27.838   5.423
 3006POPC   PO440992  20.324  27.322   5.402
 3006POPC   GL140993  20.325  27.623   5.773
 3006POPC   GL240994  20.685  27.572   5.885
 3006POPC   C1A40995  20.351  27.561   6.246
 3006POPC   D2A40996  20.513  27.454   6.670
 3006POPC   C3A40997  20.311  27.627   7.040
 3006POPC   C4A40998  20.424  27.811   7.456
 3006POPC   C1B40999  20.748  27.225   6.258
 3006POPC   C2B41000  20.934  27.175   6.708
 3006POPC   C3B41001  21.047  27.275   7.145
 3006POPC   C4B41002  21.380  27.513   7.382
 3007POPC   NC341003  31.189  41.961   5.529
 3007POPC   PO441004  30.686  41.638   5.193
 3007POPC   GL141005  30.756  41.728   5.663
 3007POPC   GL241006  30.509  41.862   5.835
 3007POPC   C1A41007  30.808  41.596   6.145
 3007POPC   D2A41008  31.006  41.621   6.579
 3007POPC   C3A41009  30.722  41.458   6.895
 3007POPC   C4A41010  30.689  41.548   7.332
 3007POPC   C1B41011  30.505  42.024   6.240
 3007POPC   C2B41012  30.632  41.929   6.662
 3007POPC   C3B41013  30.437  41.874   7.054
 3007POPC   C4B41014  30.344  41.915   7.494
 3008POPC   NC341015  33.606  20.960   5.487
 3008POPC   PO441016  33.038  20.510   5.319
 3008POPC   GL141017  32.977  20.489   5.747
 3008POPC   GL241018  32.758  20.754   5.752
 3008POPC   C1A41019  32.864  20.385   6.178
 3008POPC   D2A41020  32.798  20.596   6.568
 3008POPC   C3A41021  33.079  20.539   6.879
 3008POPC   C4A41022  33.177  20.699   7.249
 3008POPC   C1B41023  32.853  20.896   6.171
 3008POPC   C2B41024  32.758  21.105   6.604
 3008POPC   C3B41025  32.758  20.908   7.018
 3008POPC   C4B41026  32.729  20.490   7.280
 3009POPC   NC341027  13.374  30.700   5.434
 3009POPC   PO441028  13.835  30.176   5.280
 3009POPC   GL141029  13.735  30.449   5.666
 3009POPC   GL241030  13.664  30.789   5.837
 3009POPC   C1A41031  13.462  30.364   6.050
 3009POPC   D2A41032  13.503  30.282   6.494
 3009POPC   C3A41033  13.359  30.515   6.855
 3009POPC   C4A41034  13.510  30.368   7.249
 3009POPC   C1B41035  13.365  30.863   6.159
 3009POPC   C2B41036  13.378  31.098   6.531
 3009POPC   C3B41037  13.268  31.130   6.933
 3009POPC   C4B41038  13.427  30.883   7.235
 3010POPC   NC341039  44.916  24.729   5.419
 3010POPC   PO441040  44.496  24.206   5.717
 3010POPC   GL141041  44.580  24.600   5.838
 3010POPC   GL241042  44.242  24.738   5.828
 3010POPC   C1A41043  44.894  24.788   6.131
 3010POPC   D2A41044   0.127  24.691   6.541
 3010POPC   C3A41045  44.890  24.663   6.959
 3010POPC   C4A41046  44.824  24.430   7.368
 3010POPC   C1B41047  44.209  24.477   6.233
 3010POPC   C2B41048  44.324  24.183   6.580
 3010POPC   C3B41049  44.460  24.291   7.009
 3010POPC   C4B41050  44.418  24.717   7.190
 3011POPC   NC341051   2.061   6.197   5.639
 3011POPC   PO441052   1.916   5.582   5.516
 3011POPC   GL141053   1.958   5.750   5.900
 3011POPC   GL241054   2.290   5.807   5.925
 3011POPC   C1A41055   1.966   5.941   6.301
 3011POPC   D2A41056   1.687   5.840   6.605
 3011POPC   C3A41057   1.867   5.870   6.971
 3011POPC   C4A41058   1.586   5.890   7.278
 3011POPC   C1B41059   2.307   5.534   6.267
 3011POPC   C2B41060   2.450   5.620   6.678
 3011POPC   C3B41061   2.306   5.604   7.088
 3011POPC   C4B41062   2.107   5.873   7.430
 3012POPC   NC341063   4.098  33.343   5.351
 3012POPC   PO441064   4.590  32.986   5.545
 3012POPC   GL141065   4.343  33.219   5.820
 3012POPC   GL241066   4.022  33.076   5.790
 3012POPC   C1A41067   4.303  33.123   6.266
 3012POPC   D2A41068   4.366  32.832   6.622
 3012POPC   C3A41069   4.494  33.091   6.973
 3012POPC   C4A41070   4.365  33.500   7.135
 3012POPC   C1B41071   3.942  32.782   6.136
 3012POPC   C2B41072   3.859  32.763   6.576
 3012POPC   C3B41073   4.006  32.896   6.997
 3012POPC   C4B41074   4.015  32.679   7.400
 3013POPC   NC341075  30.025  23.519   5.549
 3013POPC   PO441076  29.746  22.920   5.443
 3013POPC   GL141077  29.847  23.118   5.817
 3013POPC   GL241078  30.175  23.086   5.873
 3013POPC   C1A41079  29.818  23.026   6.247
 3013POPC   D2A41080  30.022  22.894   6.613
 3013POPC   C3A41081  29.758  22.878   6.970
 3013POPC   C4A41082  30.012  22.669   7.236
 3013POPC   C1B41083  30.248  23.384   6.234
 3013POPC   C2B41084  30.338  23.306   6.689
 3013POPC   C3B41085  30.271  23.114   7.108
 3013POPC   C4B41086  30.258  22.953   7.554
 3014POPC   NC341087  10.783  15.296   5.337
 3014POPC   PO441088  10.233  14.952   5.403
 3014POPC   GL141089  10.462  15.104   5.790
 3014POPC   GL241090  10.840  15.055   5.819
 3014POPC   C1A41091  10.530  14.978   6.256
 3014POPC   D2A41092  10.522  14.892   6.726
 3014POPC   C3A41093  10.289  15.201   7.025
 3014POPC   C4A41094  10.451  15.374   7.437
 3014POPC   C1B41095  10.808  15.396   6.140
 3014POPC   C2B41096  10.604  15.413   6.576
 3014POPC   C3B41097  10.788  15.270   6.987
 3014POPC   C4B41098  11.127  15.467   7.142
 3015POPC   NC341099  40.302  31.754   5.431
 3015POPC   PO441100  39.969  32.314   5.598
 3015POPC   GL141101  40.276  32.522   5.855
 3015POPC   GL241102  40.476  32.235   5.763
 3015POPC   C1A41103  40.344  32.682   6.298
 3015POPC   D2A41104  40.072  32.841   6.670
 3015POPC   C3A41105  40.014  32.562   7.092
 3015POPC   C4A41106  39.879  32.124   7.288
 3015POPC   C1B41107  40.376  32.141   6.196
 3015POPC   C2B41108  40.442  32.284   6.623
 3015POPC   C3B41109  40.330  32.154   7.042
 3015POPC   C4B41110  40.332  32.154   7.504
 3016POPC   NC341111  38.933  44.268   5.483
 3016POPC   PO441112  38.419  43.890   5.244
 3016POPC   GL141113  38.373  43.925   5.731
 3016POPC   GL241114  38.693  44.054   5.895
 3016POPC   C1A41115  38.374  43.833   6.217
 3016POPC   D2A41116  38.584  43.882   6.638
 3016POPC   C3A41117  38.298  43.813   6.992
 3016POPC   C4A41118  38.252  44.006   7.381
 3016POPC   C1B41119  38.825  44.338   6.278
 3016POPC   C2B41120  38.712  44.367   6.743
 3016POPC   C3B41121  38.719  44.096   7.137
 3016POPC   C4B41122  38.706  44.227   7.607
 3017POPC   NC341123  44.990   3.885   5.266
 3017POPC   PO441124  44.614   3.335   5.369
 3017POPC   GL141125  44.662   3.517   5.751
 3017POPC   GL241126  44.774   3.880   5.765
 3017POPC   C1A41127  44.583   3.279   6.142
 3017POPC   D2A41128  44.731   3.073   6.542
 3017POPC   C3A41129  44.567   3.250   6.940
 3017POPC   C4A41130  44.577   3.500   7.348
 3017POPC   C1B41131  44.565   3.829   6.153
 3017POPC   C2B41132  44.615   3.606   6.535
 3017POPC   C3B41133  44.541   3.781   6.920
 3017POPC   C4B41134  44.853   3.938   7.201
 3018POPC   NC341135  10.404  27.103   5.387
 3018POPC   PO441136  10.300  26.399   5.273
 3018POPC   GL141137  10.250  26.705   5.662
 3018POPC   GL241138  10.602  26.734   5.762
 3018POPC   C1A41139  10.315  26.914   6.120
 3018POPC   D2A41140  10.537  26.822   6.532
 3018POPC   C3A41141  10.296  26.629   6.846
 3018POPC   C4A41142  10.115  26.767   7.213
 3018POPC   C1B41143  10.847  26.901   6.128
 3018POPC   C2B41144  10.974  27.116   6.528
 3018POPC   C3B41145  10.910  26.931   6.929
 3018POPC   C4B41146  10.624  26.839   7.255
 3019POPC   NC341147   7.455  37.152   5.425
 3019POPC   PO441148   7.505  36.495   5.462
 3019POPC   GL141149   7.291  36.771   5.787
 3019POPC   GL241150   7.068  37.086   5.749
 3019POPC   C1A41151   7.466  36.855   6.192
 3019POPC   D2A41152   7.392  36.625   6.551
 3019POPC   C3A41153   7.516  36.754   6.916
 3019POPC   C4A41154   7.342  36.735   7.293
 3019POPC   C1B41155   7.176  37.257   6.131
 3019POPC   C2B41156   7.251  37.212   6.542
 3019POPC   C3B41157   7.228  37.154   6.963
 3019POPC   C4B41158   7.620  37.216   7.169
 3020POPC   NC341159  11.651  18.718   5.499
 3020POPC   PO441160  11.379  19.284   5.343
 3020POPC   GL141161  11.388  19.177   5.807
 3020POPC   GL241162  11.718  19.115   5.806
 3020POPC   C1A41163  11.244  19.023   6.243
 3020POPC   D2A41164  11.056  19.212   6.645
 3020POPC   C3A41165  11.127  19.098   7.111
 3020POPC   C4A41166  11.232  19.208   7.533
 3020POPC   C1B41167  11.760  18.963   6.204
 3020POPC   C2B41168  11.613  18.819   6.575
 3020POPC   C3B41169  11.567  19.054   6.892
 3020POPC   C4B41170  11.606  18.942   7.311
 3021POPC   NC341171   7.940   3.944   5.313
 3021POPC   PO441172   8.354   4.478   5.247
 3021POPC   GL141173   8.336   4.428   5.707
 3021POPC   GL241174   8.472   4.099   5.762
 3021POPC   C1A41175   8.203   4.315   6.181
 3021POPC   D2A41176   7.895   4.246   6.550
 3021POPC   C3A41177   7.920   4.426   6.958
 3021POPC   C4A41178   8.156   4.236   7.257
 3021POPC   C1B41179   8.704   4.356   6.042
 3021POPC   C2B41180   8.664   4.353   6.470
 3021POPC   C3B41181   8.517   4.165   6.853
 3021POPC   C4B41182   8.662   4.236   7.262
 3022POPC   NC341183  44.495  10.433   5.357
 3022POPC   PO441184   0.134  10.101   5.301
 3022POPC   GL141185  44.941  10.267   5.733
 3022POPC   GL241186  44.803  10.010   5.986
 3022POPC   C1A41187  44.881  10.471   6.152
 3022POPC   D2A41188  44.728  10.211   6.512
 3022POPC   C3A41189  44.954  10.334   6.873
 3022POPC   C4A41190   0.020  10.633   7.150
 3022POPC   C1B41191  44.400  10.241   6.110
 3022POPC   C2B41192  44.193  10.255   6.505
 3022POPC   C3B41193  44.411  10.401   6.894
 3022POPC   C4B41194  44.609  10.334   7.289
 3023POPC   NC341195  31.069  32.967   5.541
 3023POPC   PO441196  31.701  32.830   5.362
 3023POPC   GL141197  31.609  32.935   5.788
 3023POPC   GL241198  31.438  33.225   5.772
 3023POPC   C1A41199  31.703  33.274   6.179
 3023POPC   D2A41200  31.592  33.091   6.562
 3023POPC   C3A41201  31.649  33.176   6.979
 3023POPC   C4A41202  31.465  32.846   7.193
 3023POPC   C1B41203  31.274  32.988   6.161
 3023POPC   C2B41204  30.974  33.043   6.477
 3023POPC   C3B41205  31.150  33.097   6.864
 3023POPC   C4B41206  31.162  33.239   7.287
 3024POPC   NC341207  34.110  43.716   5.371
 3024POPC   PO441208  34.626  44.039   5.532
 3024POPC   GL141209  34.557  44.017   5.939
 3024POPC   GL241210  34.279  43.783   5.894
 3024POPC   C1A41211  34.780  43.810   6.281
 3024POPC   D2A41212  34.968  43.813   6.699
 3024POPC   C3A41213  34.786  43.593   7.056
 3024POPC   C4A41214  34.634  43.774   7.479
 3024POPC   C1B41215  34.274  43.862   6.333
 3024POPC   C2B41216  34.453  43.788   6.698
 3024POPC   C3B41217  34.438  44.009   7.052
 3024POPC   C4B41218  34.158  43.842   7.331
 3025POPC   NC341219  26.418  23.242   5.364
 3025POPC   PO441220  26.465  22.608   5.510
 3025POPC   GL141221  26.559  23.010   5.801
 3025POPC   GL241222  26.859  23.257   5.754
 3025POPC   C1A41223  26.656  23.197   6.229
 3025POPC   D2A41224  26.956  23.045   6.541
 3025POPC   C3A41225  26.748  22.883   6.887
 3025POPC   C4A41226  26.525  23.232   7.038
 3025POPC   C1B41227  27.203  23.214   6.120
 3025POPC   C2B41228  27.447  23.196   6.558
 3025POPC   C3B41229  27.278  23.143   6.958
 3025POPC   C4B41230  27.353  23.201   7.370
 3026POPC   NC341231  39.513  33.954   5.539
 3026POPC   PO441232  39.679  33.271   5.634
 3026POPC   GL141233  39.432  33.549   5.914
 3026POPC   GL241234  39.262  33.924   5.969
 3026POPC   C1A41235  39.601  33.761   6.275
 3026POPC   D2A41236  39.371  33.930   6.612
 3026POPC   C3A41237  39.436  33.687   6.965
 3026POPC   C4A41238  39.660  33.939   7.211
 3026POPC   C1B41239  39.066  33.694   6.264
 3026POPC   C2B41240  38.967  33.619   6.683
 3026POPC   C3B41241  38.930  33.714   7.089
 3026POPC   C4B41242  39.150  33.875   7.420
 3027POPC   NC341243  13.730  35.528   5.381
 3027POPC   PO441244  13.978  34.909   5.545
 3027POPC   GL141245  13.758  35.272   5.831
 3027POPC   GL241246  13.857  35.684   5.834
 3027POPC   C1A41247  13.509  35.351   6.225
 3027POPC   D2A41248  13.329  35.564   6.625
 3027POPC   C3A41249  13.428  35.321   7.005
 3027POPC   C4A41250  13.792  35.131   7.219
 3027POPC   C1B41251  13.892  35.698   6.244
 3027POPC   C2B41252  13.846  35.444   6.598
 3027POPC   C3B41253  13.948  35.558   6.991
 3027POPC   C4B41254  13.986  35.806   7.362
 3028POPC   NC341255   0.280  11.667   5.175
 3028POPC   PO441256   0.666  12.164   5.412
 3028POPC   GL141257   0.373  12.112   5.752
 3028POPC   GL241258   0.217  11.784   5.734
 3028POPC   C1A41259   0.329  12.201   6.200
 3028POPC   D2A41260   0.121  12.161   6.586
 3028POPC   C3A41261   0.379  12.193   6.933
 3028POPC   C4A41262   0.277  12.041   7.331
 3028POPC   C1B41263   0.516  11.746   6.128
 3028POPC   C2B41264   0.543  11.807   6.618
 3028POPC   C3B41265   0.660  11.789   7.092
 3028POPC   C4B41266   0.649  11.794   7.577
 3029POPC   NC341267  19.088   7.749   5.429
 3029POPC   PO441268  19.422   7.081   5.505
 3029POPC   GL141269  19.297   7.193   5.911
 3029POPC   GL241270  19.068   7.460   5.891
 3029POPC   C1A41271  19.291   7.246   6.345
 3029POPC   D2A41272  19.017   7.281   6.670
 3029POPC   C3A41273  19.137   7.036   6.982
 3029POPC   C4A41274  19.019   7.077   7.408
 3029POPC   C1B41275  18.961   7.655   6.313
 3029POPC   C2B41276  19.058   7.776   6.775
 3029POPC   C3B41277  19.109   7.520   7.173
 3029POPC   C4B41278  18.862   7.528   7.579
 3030POPC   NC341279  39.634   1.036   5.591
 3030POPC   PO441280  40.230   1.430   5.499
 3030POPC   GL141281  40.056   1.226   5.853
 3030POPC   GL241282  40.072   1.557   6.042
 3030POPC   C1A41283  39.808   1.198   6.259
 3030POPC   D2A41284  39.957   1.510   6.566
 3030POPC   C3A41285  39.934   1.331   6.953
 3030POPC   C4A41286  39.735   1.258   7.336
 3030POPC   C1B41287  40.337   1.245   6.322
 3030POPC   C2B41288  40.420   0.964   6.726
 3030POPC   C3B41289  40.220   0.957   7.144
 3030POPC   C4B41290  40.223   1.294   7.474
 3031POPC   NC341291   4.694  28.592   5.093
 3031POPC   PO441292   4.334  28.082   5.228
 3031POPC   GL141293   4.396  28.169   5.658
 3031POPC   GL241294   4.757  28.032   5.641
 3031POPC   C1A41295   4.252  28.343   6.086
 3031POPC   D2A41296   4.398  28.481   6.504
 3031POPC   C3A41297   4.268  28.325   6.878
 3031POPC   C4A41298   4.245  28.562   7.251
 3031POPC   C1B41299   4.655  28.022   6.075
 3031POPC   C2B41300   4.419  27.959   6.432
 3031POPC   C3B41301   4.540  27.886   6.834
 3031POPC   C4B41302   4.770  27.723   7.170
 3032POPC   NC341303  20.585   7.220   5.525
 3032POPC   PO441304  20.994   7.573   5.142
 3032POPC   GL141305  21.008   7.503   5.678
 3032POPC   GL241306  20.851   7.241   5.944
 3032POPC   C1A41307  20.786   7.719   6.069
 3032POPC   D2A41308  20.470   7.652   6.397
 3032POPC   C3A41309  20.547   7.734   6.834
 3032POPC   C4A41310  20.503   7.574   7.238
 3032POPC   C1B41311  20.632   7.143   6.324
 3032POPC   C2B41312  20.722   7.221   6.746
 3032POPC   C3B41313  20.664   7.117   7.165
 3032POPC   C4B41314  20.292   6.916   7.240
 3033POPC   NC341315   8.186  43.641   5.440
 3033POPC   PO441316   8.073  44.336   5.366
 3033POPC   GL141317   8.164  44.054   5.745
 3033POPC   GL241318   8.501  43.867   5.783
 3033POPC   C1A41319   8.162  43.863   6.178
 3033POPC   D2A41320   8.331  43.937   6.602
 3033POPC   C3A41321   8.083  43.841   6.961
 3033POPC   C4A41322   7.996  44.116   7.300
 3033POPC   C1B41323   8.579  43.540   6.118
 3033POPC   C2B41324   8.463  43.448   6.578
 3033POPC   C3B41325   8.521  43.569   7.008
 3033POPC   C4B41326   8.484  43.306   7.383
 3034POPC   NC341327   6.807  23.220   5.443
 3034POPC   PO441328   6.385  22.695   5.365
 3034POPC   GL141329   6.799  22.776   5.688
 3034POPC   GL241330   6.760  23.061   5.927
 3034POPC   C1A41331   6.968  22.658   6.157
 3034POPC   D2A41332   6.932  22.903   6.556
 3034POPC   C3A41333   6.723  22.795   6.944
 3034POPC   C4A41334   6.940  22.835   7.330
 3034POPC   C1B41335   6.641  23.250   6.324
 3034POPC   C2B41336   6.598  23.283   6.785
 3034POPC   C3B41337   6.717  23.317   7.238
 3034POPC   C4B41338   6.496  23.384   7.680
 3035POPC   NC341339  38.894  14.611   5.483
 3035POPC   PO441340  39.429  14.146   5.561
 3035POPC   GL141341  39.094  14.274   5.822
 3035POPC   GL241342  39.319  14.508   5.910
 3035POPC   C1A41343  38.999  14.395   6.278
 3035POPC   D2A41344  39.179  14.264   6.655
 3035POPC   C3A41345  39.151  14.505   6.996
 3035POPC   C4A41346  38.984  14.269   7.281
 3035POPC   C1B41347  39.524  14.223   6.277
 3035POPC   C2B41348  39.637  14.081   6.748
 3035POPC   C3B41349  39.475  14.071   7.184
 3035POPC   C4B41350  39.633  14.278   7.581
 3036POPC   NC341351  39.526  23.649   5.411
 3036POPC   PO441352  38.957  23.867   5.641
 3036POPC   GL141353  39.297  23.844   5.855
 3036POPC   GL241354  39.278  23.501   5.840
 3036POPC   C1A41355  39.176  23.818   6.271
 3036POPC   D2A41356  39.406  23.944   6.580
 3036POPC   C3A41357  39.200  23.748   6.888
 3036POPC   C4A41358  39.039  23.619   7.231
 3036POPC   C1B41359  39.487  23.414   6.223
 3036POPC   C2B41360  39.603  23.475   6.669
 3036POPC   C3B41361  39.422  23.279   7.018
 3036POPC   C4B41362  39.401  23.327   7.446
 3037POPC   NC341363  36.976   4.082   5.437
 3037POPC   PO441364  36.607   4.611   5.502
 3037POPC   GL141365  36.766   4.395   5.903
 3037POPC   GL241366  37.133   4.310   5.906
 3037POPC   C1A41367  36.731   4.479   6.377
 3037POPC   D2A41368  36.469   4.576   6.775
 3037POPC   C3A41369  36.714   4.477   7.150
 3037POPC   C4A41370  37.163   4.611   7.270
 3037POPC   C1B41371  37.134   4.166   6.345
 3037POPC   C2B41372  37.048   4.185   6.816
 3037POPC   C3B41373  37.185   4.111   7.259
 3037POPC   C4B41374  37.374   4.293   7.670
 3038POPC   NC341375  36.682  18.398   5.492
 3038POPC   PO441376  37.341  18.228   5.407
 3038POPC   GL141377  37.127  18.429   5.734
 3038POPC   GL241378  36.934  18.112   5.834
 3038POPC   C1A41379  36.905  18.531   6.136
 3038POPC   D2A41380  36.870  18.301   6.513
 3038POPC   C3A41381  36.692  18.481   6.879
 3038POPC   C4A41382  36.921  18.426   7.218
 3038POPC   C1B41383  36.625  18.017   6.155
 3038POPC   C2B41384  36.620  17.810   6.554
 3038POPC   C3B41385  36.461  17.926   6.957
 3038POPC   C4B41386  36.416  17.795   7.376
 3039POPC   NC341387   2.197   7.997   5.398
 3039POPC   PO441388   1.790   8.509   5.412
 3039POPC   GL141389   2.030   8.317   5.764
 3039POPC   GL241390   1.913   7.934   5.846
 3039POPC   C1A41391   2.271   8.160   6.125
 3039POPC   D2A41392   2.106   7.986   6.515
 3039POPC   C3A41393   2.185   8.303   6.801
 3039POPC   C4A41394   2.215   8.388   7.204
 3039POPC   C1B41395   1.735   8.184   6.204
 3039POPC   C2B41396   1.797   8.521   6.511
 3039POPC   C3B41397   1.804   8.666   6.937
 3039POPC   C4B41398   1.746   8.510   7.324
 3040POPC   NC341399  25.050  33.745   5.531
 3040POPC   PO441400  25.671  33.656   5.250
 3040POPC   GL141401  25.553  33.724   5.692
 3040POPC   GL241402  25.558  34.063   5.866
 3040POPC   C1A41403  25.472  33.662   6.150
 3040POPC   D2A41404  25.149  33.705   6.492
 3040POPC   C3A41405  25.269  33.682   6.930
 3040POPC   C4A41406  25.583  33.737   7.242
 3040POPC   C1B41407  25.243  34.144   6.178
 3040POPC   C2B41408  25.244  34.209   6.620
 3040POPC   C3B41409  25.409  34.190   7.025
 3040POPC   C4B41410  25.368  34.146   7.462
 3041POPC   NC341411  43.040  30.242   5.408
 3041POPC   PO441412  43.282  29.569   5.426
 3041POPC   GL141413  43.087  29.825   5.730
 3041POPC   GL241414  43.279  30.150   5.850
 3041POPC   C1A41415  43.053  29.774   6.173
 3041POPC   D2A41416  43.308  29.985   6.494
 3041POPC   C3A41417  43.198  29.868   6.900
 3041POPC   C4A41418  43.174  30.042   7.315
 3041POPC   C1B41419  42.899  30.249   6.116
 3041POPC   C2B41420  42.812  30.086   6.546
 3041POPC   C3B41421  42.775  30.151   6.987
 3041POPC   C4B41422  42.686  30.176   7.421
 3042POPC   NC341423  39.759  13.810   5.561
 3042POPC   PO441424  40.246  13.425   5.215
 3042POPC   GL141425  40.221  13.613   5.667
 3042POPC   GL241426  39.920  13.442   5.872
 3042POPC   C1A41427  40.277  13.826   6.074
 3042POPC   D2A41428  39.980  13.912   6.411
 3042POPC   C3A41429  40.091  13.845   6.850
 3042POPC   C4A41430  40.073  13.525   7.196
 3042POPC   C1B41431  39.649  13.514   6.243
 3042POPC   C2B41432  39.716  13.404   6.683
 3042POPC   C3B41433  39.750  13.146   7.055
 3042POPC   C4B41434  39.771  13.223   7.501
 3043POPC   NC341435  39.584  39.178   5.467
 3043POPC   PO441436  39.129  38.872   5.507
 3043POPC   GL141437  39.298  39.099   5.912
 3043POPC   GL241438  39.542  39.389   5.941
 3043POPC   C1A41439  39.113  39.250   6.319
 3043POPC   D2A41440  38.884  39.425   6.705
 3043POPC   C3A41441  38.933  39.138   7.051
 3043POPC   C4A41442  39.245  38.858   7.151
 3043POPC   C1B41443  39.531  39.527   6.397
 3043POPC   C2B41444  39.384  39.309   6.777
 3043POPC   C3B41445  39.515  39.285   7.187
 3043POPC   C4B41446  39.526  39.497   7.551
 3044POPC   NC341447  37.328   5.603   5.303
 3044POPC   PO441448  37.633   6.220   5.513
 3044POPC   GL141449  37.553   5.977   5.876
 3044POPC   GL241450  37.433   5.679   5.805
 3044POPC   C1A41451  37.614   5.856   6.311
 3044POPC   D2A41452  37.632   5.852   6.746
 3044POPC   C3A41453  38.001   5.987   6.922
 3044POPC   C4A41454  38.187   5.804   7.253
 3044POPC   C1B41455  37.191   5.595   6.192
 3044POPC   C2B41456  37.126   5.490   6.647
 3044POPC   C3B41457  37.379   5.542   7.038
 3044POPC   C4B41458  37.653   5.803   7.301
 3045POPC   NC341459  36.456  16.401   5.456
 3045POPC   PO441460  36.006  15.836   5.360
 3045POPC   GL141461  36.116  16.073   5.710
 3045POPC   GL241462  35.815  16.205   5.782
 3045POPC   C1A41463  36.115  16.058   6.157
 3045POPC   D2A41464  35.966  15.958   6.572
 3045POPC   C3A41465  36.243  16.023   6.941
 3045POPC   C4A41466  36.285  15.966   7.391
 3045POPC   C1B41467  35.603  16.171   6.140
 3045POPC   C2B41468  35.644  16.391   6.513
 3045POPC   C3B41469  35.672  16.262   6.914
 3045POPC   C4B41470  35.812  16.132   7.276
 3046POPC   NC341471  34.647  35.391   5.170
 3046POPC   PO441472  34.138  34.975   5.337
 3046POPC   GL141473  34.333  35.360   5.604
 3046POPC   GL241474  34.486  35.169   5.789
 3046POPC   C1A41475  34.458  35.541   6.084
 3046POPC   D2A41476  34.401  35.386   6.517
 3046POPC   C3A41477  34.599  35.533   6.889
 3046POPC   C4A41478  34.448  35.655   7.294
 3046POPC   C1B41479  34.760  35.153   6.186
 3046POPC   C2B41480  34.924  35.251   6.592
 3046POPC   C3B41481  34.832  35.084   6.988
 3046POPC   C4B41482  34.812  35.316   7.352
 3047POPC   NC341483  16.267  21.454   5.307
 3047POPC   PO441484  16.891  21.154   5.237
 3047POPC   GL141485  16.894  21.279   5.661
 3047POPC   GL241486  16.538  21.147   5.635
 3047POPC   C1A41487  17.058  21.357   6.112
 3047POPC   D2A41488  17.118  21.143   6.548
 3047POPC   C3A41489  17.172  21.259   6.998
 3047POPC   C4A41490  16.824  21.411   7.238
 3047POPC   C1B41491  16.515  21.245   6.056
 3047POPC   C2B41492  16.620  21.286   6.485
 3047POPC   C3B41493  16.425  21.367   6.889
 3047POPC   C4B41494  16.319  21.296   7.327
 3048POPC   NC341495   7.872  30.774   5.535
 3048POPC   PO441496   8.342  31.139   5.351
 3048POPC   GL141497   8.294  30.943   5.782
 3048POPC   GL241498   8.331  30.561   5.753
 3048POPC   C1A41499   8.095  30.808   6.197
 3048POPC   D2A41500   8.171  30.986   6.616
 3048POPC   C3A41501   8.285  30.845   7.029
 3048POPC   C4A41502   8.159  31.149   7.305
 3048POPC   C1B41503   8.406  30.397   6.175
 3048POPC   C2B41504   8.241  30.451   6.625
 3048POPC   C3B41505   8.323  30.321   7.071
 3048POPC   C4B41506   8.545  30.573   7.422
 3049POPC   NC341507  23.099   9.628   5.418
 3049POPC   PO441508  22.669  10.179   5.421
 3049POPC   GL141509  22.667   9.868   5.802
 3049POPC   GL241510  22.917   9.639   5.882
 3049POPC   C1A41511  22.498   9.870   6.210
 3049POPC   D2A41512  22.410   9.634   6.567
 3049POPC   C3A41513  22.513   9.863   6.909
 3049POPC   C4A41514  22.778   9.698   7.173
 3049POPC   C1B41515  23.041   9.527   6.268
 3049POPC   C2B41516  22.938   9.712   6.625
 3049POPC   C3B41517  23.230   9.668   6.932
 3049POPC   C4B41518  23.129   9.323   7.215
 3050POPC   NC341519  16.983  27.725   5.479
 3050POPC   PO441520  17.654  27.478   5.332
 3050POPC   GL141521  17.670  27.639   5.764
 3050POPC   GL241522  17.351  27.586   5.810
 3050POPC   C1A41523  17.738  27.643   6.248
 3050POPC   D2A41524  17.846  27.829   6.654
 3050POPC   C3A41525  17.835  27.632   7.093
 3050POPC   C4A41526  17.821  27.821   7.517
 3050POPC   C1B41527  17.300  27.874   6.134
 3050POPC   C2B41528  17.328  27.679   6.547
 3050POPC   C3B41529  17.332  27.709   6.983
 3050POPC   C4B41530  17.149  28.078   7.147
 3051POPC   NC341531  43.204  27.092   5.430
 3051POPC   PO441532  42.654  26.714   5.352
 3051POPC   GL141533  42.997  26.611   5.664
 3051POPC   GL241534  43.130  26.884   5.869
 3051POPC   C1A41535  43.169  26.429   6.077
 3051POPC   D2A41536  43.037  26.387   6.529
 3051POPC   C3A41537  43.089  26.567   6.956
 3051POPC   C4A41538  43.377  26.900   7.070
 3051POPC   C1B41539  42.890  26.814   6.225
 3051POPC   C2B41540  43.071  26.949   6.623
 3051POPC   C3B41541  42.868  27.095   6.990
 3051POPC   C4B41542  42.504  27.363   7.051
 3052POPC   NC341543  29.551  43.811   5.520
 3052POPC   PO441544  28.991  44.116   5.392
 3052POPC   GL141545  29.126  43.969   5.768
 3052POPC   GL241546  29.197  43.597   5.820
 3052POPC   C1A41547  29.054  44.130   6.150
 3052POPC   D2A41548  28.876  43.988   6.511
 3052POPC   C3A41549  28.872  43.900   6.935
 3052POPC   C4A41550  29.138  43.906   7.243
 3052POPC   C1B41551  29.208  43.638   6.280
 3052POPC   C2B41552  29.300  43.693   6.718
 3052POPC   C3B41553  29.526  43.633   7.077
 3052POPC   C4B41554  29.590  43.448   7.466
 3053POPC   NC341555  36.852   0.674   5.436
 3053POPC   PO441556  36.737  44.986   5.420
 3053POPC   GL141557  36.877   0.247   5.779
 3053POPC   GL241558  36.853   0.581   5.926
 3053POPC   C1A41559  37.039   0.121   6.189
 3053POPC   D2A41560  37.175   0.211   6.598
 3053POPC   C3A41561  36.889   0.454   6.805
 3053POPC   C4A41562  36.882   0.224   7.137
 3053POPC   C1B41563  36.707   0.494   6.331
 3053POPC   C2B41564  36.420   0.645   6.646
 3053POPC   C3B41565  36.589   0.852   7.015
 3053POPC   C4B41566  36.894   0.692   7.288
 3054POPC   NC341567   5.586  33.489   5.381
 3054POPC   PO441568   6.100  33.864   5.388
 3054POPC   GL141569   5.907  33.713   5.750
 3054POPC   GL241570   6.160  33.543   5.903
 3054POPC   C1A41571   5.763  33.789   6.180
 3054POPC   D2A41572   5.855  33.728   6.621
 3054POPC   C3A41573   5.610  33.577   6.935
 3054POPC   C4A41574   5.460  33.712   7.320
 3054POPC   C1B41575   6.289  33.654   6.298
 3054POPC   C2B41576   6.347  33.724   6.716
 3054POPC   C3B41577   6.138  33.623   7.097
 3054POPC   C4B41578   6.206  33.631   7.566
 3055POPC   NC341579  32.170  30.463   5.542
 3055POPC   PO441580  32.271  30.990   5.152
 3055POPC   GL141581  32.390  30.840   5.774
 3055POPC   GL241582  32.135  30.651   6.028
 3055POPC   C1A41583  32.520  30.895   6.237
 3055POPC   D2A41584  32.358  30.627   6.585
 3055POPC   C3A41585  32.448  30.783   6.973
 3055POPC   C4A41586  32.229  30.763   7.333
 3055POPC   C1B41587  31.892  30.777   6.401
 3055POPC   C2B41588  31.909  30.764   6.863
 3055POPC   C3B41589  31.716  30.730   7.279
 3055POPC   C4B41590  31.879  30.873   7.684
 3056POPC   NC341591  28.236  38.068   5.560
 3056POPC   PO441592  28.305  37.442   5.326
 3056POPC   GL141593  28.426  37.429   5.762
 3056POPC   GL241594  28.143  37.607   5.838
 3056POPC   C1A41595  28.503  37.655   6.200
 3056POPC   D2A41596  28.550  37.495   6.629
 3056POPC   C3A41597  28.359  37.589   7.032
 3056POPC   C4A41598  28.556  37.613   7.429
 3056POPC   C1B41599  28.080  37.388   6.228
 3056POPC   C2B41600  28.020  37.517   6.652
 3056POPC   C3B41601  27.880  37.373   7.063
 3056POPC   C4B41602  28.038  37.571   7.459
 3057POPC   NC341603  25.363  34.808   5.357
 3057POPC   PO441604  25.294  34.131   5.443
 3057POPC   GL141605  25.292  34.525   5.792
 3057POPC   GL241606  25.239  34.947   5.829
 3057POPC   C1A41607  25.215  34.662   6.241
 3057POPC   D2A41608  25.497  34.734   6.563
 3057POPC   C3A41609  25.263  34.668   6.877
 3057POPC   C4A41610  25.252  34.625   7.290
 3057POPC   C1B41611  25.520  35.106   6.202
 3057POPC   C2B41612  25.560  35.235   6.663
 3057POPC   C3B41613  25.487  35.065   7.099
 3057POPC   C4B41614  25.452  35.045   7.608
 3058POPC   NC341615   3.197   7.996   5.423
 3058POPC   PO441616   2.553   8.328   5.424
 3058POPC   GL141617   2.748   8.066   5.733
 3058POPC   GL241618   3.025   8.269   5.828
 3058POPC   C1A41619   2.773   7.953   6.174
 3058POPC   D2A41620   2.608   8.135   6.551
 3058POPC   C3A41621   2.788   8.093   6.947
 3058POPC   C4A41622   2.667   8.209   7.327
 3058POPC   C1B41623   3.188   8.327   6.241
 3058POPC   C2B41624   3.111   8.375   6.691
 3058POPC   C3B41625   3.085   8.474   7.130
 3058POPC   C4B41626   3.164   8.117   7.395
 3059POPC   NC341627  35.248   6.990   5.494
 3059POPC   PO441628  35.640   6.299   5.507
 3059POPC   GL141629  35.495   6.534   5.863
 3059POPC   GL241630  35.160   6.611   5.812
 3059POPC   C1A41631  35.448   6.919   6.132
 3059POPC   D2A41632  35.544   7.106   6.524
 3059POPC   C3A41633  35.506   6.826   6.896
 3059POPC   C4A41634  35.705   6.825   7.276
 3059POPC   C1B41635  34.953   6.823   6.151
 3059POPC   C2B41636  35.124   6.748   6.570
 3059POPC   C3B41637  34.957   6.778   7.010
 3059POPC   C4B41638  34.983   6.680   7.459
 3060POPC   NC341639  41.154   0.979   5.512
 3060POPC   PO441640  41.735   1.335   5.501
 3060POPC   GL141641  41.580   1.163   5.849
 3060POPC   GL241642  41.292   1.386   5.806
 3060POPC   C1A41643  41.792   1.070   6.261
 3060POPC   D2A41644  41.942   0.823   6.640
 3060POPC   C3A41645  41.636   0.849   6.956
 3060POPC   C4A41646  41.818   0.929   7.320
 3060POPC   C1B41647  41.417   1.475   6.243
 3060POPC   C2B41648  41.352   1.383   6.687
 3060POPC   C3B41649  41.367   1.516   7.131
 3060POPC   C4B41650  41.071   1.429   7.493
 3061POPC   NC341651   0.708  43.773   5.291
 3061POPC   PO441652   0.352  44.275   5.404
 3061POPC   GL141653   0.493  44.081   5.781
 3061POPC   GL241654   0.573  43.737   5.773
 3061POPC   C1A41655   0.305  43.961   6.165
 3061POPC   D2A41656   0.129  44.001   6.579
 3061POPC   C3A41657   0.446  44.063   6.885
 3061POPC   C4A41658   0.363  44.180   7.288
 3061POPC   C1B41659   0.784  43.595   6.126
 3061POPC   C2B41660   0.752  43.794   6.519
 3061POPC   C3B41661   0.843  43.690   6.920
 3061POPC   C4B41662   0.804  43.933   7.279
 3062POPC   NC341663   6.860  26.141   5.500
 3062POPC   PO441664   6.260  25.960   5.270
 3062POPC   GL141665   6.467  25.789   5.692
 3062POPC   GL241666   6.775  25.605   5.651
 3062POPC   C1A41667   6.506  25.893   6.165
 3062POPC   D2A41668   6.424  26.191   6.527
 3062POPC   C3A41669   6.501  26.084   6.961
 3062POPC   C4A41670   6.747  26.316   7.257
 3062POPC   C1B41671   6.961  25.662   6.088
 3062POPC   C2B41672   6.905  25.855   6.515
 3062POPC   C3B41673   7.016  25.929   6.949
 3062POPC   C4B41674   6.765  25.708   7.220
 3063POPC   NC341675  37.098  25.420   5.518
 3063POPC   PO441676  36.497  25.095   5.514
 3063POPC   GL141677  36.608  25.226   5.891
 3063POPC   GL241678  36.953  25.085   5.874
 3063POPC   C1A41679  36.654  24.971   6.273
 3063POPC   D2A41680  36.914  24.988   6.635
 3063POPC   C3A41681  36.717  25.222   6.936
 3063POPC   C4A41682  36.460  25.154   7.314
 3063POPC   C1B41683  36.996  25.380   6.216
 3063POPC   C2B41684  37.121  25.467   6.641
 3063POPC   C3B41685  37.253  25.202   6.989
 3063POPC   C4B41686  37.014  25.340   7.319
 3064POPC   NC341687  42.292   3.167   5.597
 3064POPC   PO441688  42.178   2.482   5.568
 3064POPC   GL141689  42.095   2.752   5.842
 3064POPC   GL241690  42.438   2.753   5.908
 3064POPC   C1A41691  42.041   2.682   6.250
 3064POPC   D2A41692  42.332   2.575   6.533
 3064POPC   C3A41693  42.189   2.580   6.920
 3064POPC   C4A41694  42.367   2.561   7.294
 3064POPC   C1B41695  42.718   2.604   6.194
 3064POPC   C2B41696  42.795   2.783   6.598
 3064POPC   C3B41697  42.780   2.694   7.028
 3064POPC   C4B41698  42.731   2.825   7.499
 3065POPC   NC341699   1.808  27.061   5.460
 3065POPC   PO441700   1.181  26.653   5.444
 3065POPC   GL141701   0.883  26.725   5.836
 3065POPC   GL241702   0.714  26.392   5.807
 3065POPC   C1A41703   0.923  26.946   6.292
 3065POPC   D2A41704   1.232  27.033   6.664
 3065POPC   C3A41705   1.072  26.964   7.091
 3065POPC   C4A41706   1.216  26.991   7.561
 3065POPC   C1B41707   0.955  26.401   6.222
 3065POPC   C2B41708   0.973  26.553   6.683
 3065POPC   C3B41709   1.043  26.401   7.121
 3065POPC   C4B41710   0.951  26.255   7.570
 3066POPC   NC341711  23.144  24.922   5.295
 3066POPC   PO441712  22.865  24.290   5.377
 3066POPC   GL141713  22.964  24.377   5.800
 3066POPC   GL241714  23.036  24.760   5.798
 3066POPC   C1A41715  22.842  24.437   6.201
 3066POPC   D2A41716  22.726  24.660   6.558
 3066POPC   C3A41717  22.707  24.560   6.996
 3066POPC   C4A41718  22.781  24.243   7.303
 3066POPC   C1B41719  23.254  24.721   6.205
 3066POPC   C2B41720  23.196  24.416   6.562
 3066POPC   C3B41721  23.170  24.299   6.973
 3066POPC   C4B41722  23.140  24.584   7.303
 3067POPC   NC341723  19.978   8.733   5.329
 3067POPC   PO441724  19.257   8.901   5.263
 3067POPC   GL141725  19.617   8.875   5.665
 3067POPC   GL241726  19.987   9.009   5.757
 3067POPC   C1A41727  19.684   8.931   6.173
 3067POPC   D2A41728  19.879   9.146   6.535
 3067POPC   C3A41729  19.792   9.028   6.972
 3067POPC   C4A41730  19.982   9.202   7.350
 3067POPC   C1B41731  20.083   8.634   6.059
 3067POPC   C2B41732  20.005   8.636   6.534
 3067POPC   C3B41733  20.216   8.760   6.942
 3067POPC   C4B41734  20.414   8.583   7.284
 3068POPC   NC341735  42.817  36.356   5.396
 3068POPC   PO441736  43.342  35.971   5.457
 3068POPC   GL141737  43.253  36.171   5.852
 3068POPC   GL241738  43.189  35.862   6.030
 3068POPC   C1A41739  43.019  36.312   6.249
 3068POPC   D2A41740  42.810  36.215   6.653
 3068POPC   C3A41741  42.962  36.460   6.991
 3068POPC   C4A41742  43.337  36.322   7.124
 3068POPC   C1B41743  43.432  36.026   6.375
 3068POPC   C2B41744  43.506  35.943   6.814
 3068POPC   C3B41745  43.348  35.832   7.210
 3068POPC   C4B41746  42.929  36.036   7.315
 3069POPC   NC341747   0.115  17.001   5.351
 3069POPC   PO441748   0.685  16.763   5.354
 3069POPC   GL141749   0.465  16.681   5.743
 3069POPC   GL241750   0.380  16.334   5.839
 3069POPC   C1A41751   0.308  16.714   6.162
 3069POPC   D2A41752   0.512  16.669   6.546
 3069POPC   C3A41753   0.325  16.614   6.939
 3069POPC   C4A41754   0.433  16.680   7.369
 3069POPC   C1B41755   0.651  16.297   6.219
 3069POPC   C2B41756   0.843  16.295   6.672
 3069POPC   C3B41757   0.699  16.274   7.111
 3069POPC   C4B41758   0.833  16.356   7.538
 3070POPC   NC341759  26.773  44.224   5.497
 3070POPC   PO441760  26.781  43.508   5.547
 3070POPC   GL141761  26.979  43.781   5.874
 3070POPC   GL241762  26.807  44.087   5.978
 3070POPC   C1A41763  26.984  43.746   6.335
 3070POPC   D2A41764  26.706  43.508   6.582
 3070POPC   C3A41765  26.690  43.588   7.021
 3070POPC   C4A41766  26.995  43.848   7.227
 3070POPC   C1B41767  26.785  44.217   6.393
 3070POPC   C2B41768  26.791  44.039   6.786
 3070POPC   C3B41769  26.711  44.251   7.168
 3070POPC   C4B41770  26.940  44.299   7.575
 3071POPC   NC341771  12.906   7.383   5.284
 3071POPC   PO441772  12.269   7.326   5.400
 3071POPC   GL141773  12.609   7.514   5.733
 3071POPC   GL241774  12.983   7.477   5.768
 3071POPC   C1A41775  12.579   7.647   6.182
 3071POPC   D2A41776  12.712   7.369   6.554
 3071POPC   C3A41777  12.726   7.525   6.966
 3071POPC   C4A41778  12.586   7.913   7.091
 3071POPC   C1B41779  13.065   7.511   6.206
 3071POPC   C2B41780  13.109   7.720   6.625
 3071POPC   C3B41781  13.203   7.652   7.066
 3071POPC   C4B41782  13.399   7.565   7.458
 3072POPC   NC341783  35.912  17.761   5.531
 3072POPC   PO441784  36.260  17.194   5.315
 3072POPC   GL141785  36.194  17.165   5.809
 3072POPC   GL241786  35.859  17.203   5.971
 3072POPC   C1A41787  36.240  17.243   6.291
 3072POPC   D2A41788  36.154  17.569   6.623
 3072POPC   C3A41789  36.292  17.433   7.041
 3072POPC   C4A41790  36.455  17.292   7.443
 3072POPC   C1B41791  35.763  17.584   6.223
 3072POPC   C2B41792  35.587  17.612   6.634
 3072POPC   C3B41793  35.786  17.381   6.964
 3072POPC   C4B41794  35.978  17.146   7.337
 3073POPC   NC341795   6.979  36.510   5.460
 3073POPC   PO441796   6.361  36.273   5.643
 3073POPC   GL141797   6.459  36.456   5.995
 3073POPC   GL241798   6.813  36.359   5.924
 3073POPC   C1A41799   6.580  36.455   6.406
 3073POPC   D2A41800   6.569  36.052   6.570
 3073POPC   C3A41801   6.287  36.043   6.905
 3073POPC   C4A41802   6.357  36.276   7.308
 3073POPC   C1B41803   7.066  36.334   6.280
 3073POPC   C2B41804   6.989  36.357   6.716
 3073POPC   C3B41805   6.760  36.193   7.041
 3073POPC   C4B41806   6.828  36.197   7.501
 3074POPC   NC341807  20.783  35.186   5.590
 3074POPC   PO441808  20.230  35.423   5.380
 3074POPC   GL141809  20.336  35.293   5.823
 3074POPC   GL241810  20.201  34.978   5.869
 3074POPC   C1A41811  20.499  35.462   6.242
 3074POPC   D2A41812  20.333  35.631   6.653
 3074POPC   C3A41813  20.510  35.429   7.011
 3074POPC   C4A41814  20.787  35.088   7.015
 3074POPC   C1B41815  20.461  34.957   6.219
 3074POPC   C2B41816  20.463  35.093   6.624
 3074POPC   C3B41817  20.335  34.874   6.993
 3074POPC   C4B41818  20.337  35.063   7.347
 3075POPC   NC341819  29.423  16.993   5.197
 3075POPC   PO441820  29.014  16.547   5.587
 3075POPC   GL141821  29.106  16.947   5.752
 3075POPC   GL241822  29.465  16.901   5.853
 3075POPC   C1A41823  28.991  17.202   6.136
 3075POPC   D2A41824  29.178  17.215   6.567
 3075POPC   C3A41825  28.997  17.050   6.950
 3075POPC   C4A41826  29.246  16.897   7.334
 3075POPC   C1B41827  29.201  16.720   6.211
 3075POPC   C2B41828  28.918  16.699   6.565
 3075POPC   C3B41829  29.024  16.492   6.940
 3075POPC   C4B41830  29.175  16.383   7.338
 3076POPC   NC341831   8.715  36.282   5.418
 3076POPC   PO441832   9.334  36.544   5.464
 3076POPC   GL141833   9.069  36.260   5.784
 3076POPC   GL241834   8.690  36.242   5.913
 3076POPC   C1A41835   9.057  36.137   6.231
 3076POPC   D2A41836   9.253  36.326   6.564
 3076POPC   C3A41837   9.227  36.178   6.971
 3076POPC   C4A41838   8.948  36.333   7.257
 3076POPC   C1B41839   8.632  36.408   6.325
 3076POPC   C2B41840   8.741  36.330   6.753
 3076POPC   C3B41841   8.473  36.295   7.105
 3076POPC   C4B41842   8.404  36.305   7.584
 3077POPC   NC341843  40.533  32.651   5.422
 3077POPC   PO441844  40.791  32.077   5.383
 3077POPC   GL141845  40.959  32.376   5.711
 3077POPC   GL241846  41.154  32.143   5.924
 3077POPC   C1A41847  40.791  32.428   6.149
 3077POPC   D2A41848  40.994  32.163   6.493
 3077POPC   C3A41849  40.842  32.128   6.910
 3077POPC   C4A41850  40.734  32.381   7.230
 3077POPC   C1B41851  41.289  32.459   6.198
 3077POPC   C2B41852  41.351  32.543   6.648
 3077POPC   C3B41853  41.191  32.529   7.070
 3077POPC   C4B41854  41.113  32.558   7.522
 3078POPC   NC341855  40.721  10.735   5.336
 3078POPC   PO441856  41.167  10.399   5.607
 3078POPC   GL141857  40.760  10.490   5.818
 3078POPC   GL241858  40.396  10.484   5.644
 3078POPC   C1A41859  40.706  10.448   6.283
 3078POPC   D2A41860  40.925  10.532   6.669
 3078POPC   C3A41861  40.610  10.551   6.996
 3078POPC   C4A41862  40.515  10.812   7.338
 3078POPC   C1B41863  40.381  10.180   5.978
 3078POPC   C2B41864  40.589   9.956   6.348
 3078POPC   C3B41865  40.719  10.069   6.749
 3078POPC   C4B41866  40.638  10.057   7.194
 3079POPC   NC341867   7.767   3.476   5.539
 3079POPC   PO441868   8.379   3.762   5.346
 3079POPC   GL141869   8.178   3.684   5.726
 3079POPC   GL241870   8.208   3.355   5.851
 3079POPC   C1A41871   8.270   3.794   6.150
 3079POPC   D2A41872   8.236   3.828   6.592
 3079POPC   C3A41873   8.474   3.519   6.797
 3079POPC   C4A41874   8.478   3.260   7.160
 3079POPC   C1B41875   7.857   3.474   6.153
 3079POPC   C2B41876   7.763   3.626   6.554
 3079POPC   C3B41877   7.981   3.507   6.972
 3079POPC   C4B41878   8.036   3.317   7.398
 3080POPC   NC341879  33.390   4.482   5.386
 3080POPC   PO441880  32.845   4.135   5.171
 3080POPC   GL141881  33.108   4.159   5.632
 3080POPC   GL241882  33.224   4.495   5.862
 3080POPC   C1A41883  33.163   4.068   6.110
 3080POPC   D2A41884  33.272   3.977   6.572
 3080POPC   C3A41885  33.204   4.289   6.919
 3080POPC   C4A41886  32.977   4.258   7.338
 3080POPC   C1B41887  32.927   4.530   6.191
 3080POPC   C2B41888  32.846   4.316   6.566
 3080POPC   C3B41889  32.740   4.488   6.968
 3080POPC   C4B41890  33.032   4.741   7.237
 3081POPC   NC341891  15.241  36.932   5.313
 3081POPC   PO441892  15.568  37.393   5.498
 3081POPC   GL141893  15.421  37.047   5.798
 3081POPC   GL241894  15.367  36.670   5.753
 3081POPC   C1A41895  15.388  36.899   6.237
 3081POPC   D2A41896  15.299  37.122   6.617
 3081POPC   C3A41897  15.516  37.022   6.997
 3081POPC   C4A41898  15.183  37.123   7.243
 3081POPC   C1B41899  15.043  36.544   6.062
 3081POPC   C2B41900  15.094  36.482   6.489
 3081POPC   C3B41901  15.159  36.425   6.926
 3081POPC   C4B41902  15.328  36.621   7.282
 3082POPC   NC341903   2.192   5.229   5.420
 3082POPC   PO441904   2.314   4.504   5.432
 3082POPC   GL141905   2.061   4.810   5.749
 3082POPC   GL241906   1.999   5.200   5.888
 3082POPC   C1A41907   2.188   4.849   6.202
 3082POPC   D2A41908   1.960   4.743   6.598
 3082POPC   C3A41909   2.037   4.972   6.983
 3082POPC   C4A41910   1.918   4.990   7.440
 3082POPC   C1B41911   1.799   5.398   6.274
 3082POPC   C2B41912   1.952   5.413   6.719
 3082POPC   C3B41913   1.839   5.414   7.179
 3082POPC   C4B41914   1.466   5.366   7.407
 3083POPC   NC341915  28.099  37.078   5.506
 3083POPC   PO441916  28.667  36.655   5.349
 3083POPC   GL141917  28.515  36.851   5.728
 3083POPC   GL241918  28.218  36.671   5.829
 3083POPC   C1A41919  28.554  37.081   6.136
 3083POPC   D2A41920  28.610  36.974   6.581
 3083POPC   C3A41921  28.255  37.083   6.847
 3083POPC   C4A41922  28.270  37.119   7.308
 3083POPC   C1B41923  28.450  36.560   6.209
 3083POPC   C2B41924  28.326  36.537   6.651
 3083POPC   C3B41925  28.503  36.675   7.038
 3083POPC   C4B41926  28.675  36.679   7.438
 3084POPC   NC341927  28.220  44.925   5.183
 3084POPC   PO441928  28.622   0.433   5.429
 3084POPC   GL141929  28.312   0.240   5.658
 3084POPC   GL241930  28.242   0.574   5.800
 3084POPC   C1A41931  28.222   0.153   6.103
 3084POPC   D2A41932  28.418   0.434   6.415
 3084POPC   C3A41933  28.630   0.324   6.806
 3084POPC   C4A41934  28.580   0.132   7.211
 3084POPC   C1B41935  28.661   0.714   6.044
 3084POPC   C2B41936  28.724   0.925   6.467
 3084POPC   C3B41937  28.544   0.873   6.875
 3084POPC   C4B41938  28.353   0.595   7.177
 3085POPC   NC341939  40.401   0.330   5.401
 3085POPC   PO441940  39.958   0.812   5.337
 3085POPC   GL141941  40.140   0.644   5.733
 3085POPC   GL241942  40.081   0.263   5.794
 3085POPC   C1A41943  40.158   0.772   6.164
 3085POPC   D2A41944  39.980   0.772   6.576
 3085POPC   C3A41945  40.024   0.462   6.929
 3085POPC   C4A41946  40.169   0.450   7.338
 3085POPC   C1B41947  39.935   0.299   6.223
 3085POPC   C2B41948  39.671   0.354   6.583
 3085POPC   C3B41949  39.598   0.069   6.889
 3085POPC   C4B41950  39.873   0.014   7.215
 3086POPC   NC341951  34.292  34.524   5.397
 3086POPC   PO441952  34.866  34.674   5.483
 3086POPC   GL141953  34.554  34.677   5.825
 3086POPC   GL241954  34.171  34.775   5.817
 3086POPC   C1A41955  34.553  34.511   6.230
 3086POPC   D2A41956  34.872  34.480   6.572
 3086POPC   C3A41957  34.733  34.573   6.995
 3086POPC   C4A41958  34.350  34.514   7.218
 3086POPC   C1B41959  34.277  34.969   6.210
 3086POPC   C2B41960  34.542  34.889   6.568
 3086POPC   C3B41961  34.345  34.916   6.915
 3086POPC   C4B41962  34.391  35.043   7.335
 3087POPC   NC341963  38.722  43.551   5.336
 3087POPC   PO441964  38.642  42.929   5.408
 3087POPC   GL141965  38.503  43.031   5.782
 3087POPC   GL241966  38.436  42.690   5.828
 3087POPC   C1A41967  38.356  43.262   6.145
 3087POPC   D2A41968  38.606  43.401   6.489
 3087POPC   C3A41969  38.554  43.331   6.928
 3087POPC   C4A41970  38.667  43.247   7.351
 3087POPC   C1B41971  38.463  42.754   6.256
 3087POPC   C2B41972  38.283  42.961   6.608
 3087POPC   C3B41973  38.295  42.893   7.046
 3087POPC   C4B41974  38.651  42.766   7.225
 3088POPC   NC341975  37.807   8.073   5.002
 3088POPC   PO441976  37.329   8.122   5.510
 3088POPC   GL141977  37.772   8.235   5.594
 3088POPC   GL241978  37.897   7.893   5.567
 3088POPC   C1A41979  37.858   8.441   6.031
 3088POPC   D2A41980  37.605   8.559   6.426
 3088POPC   C3A41981  37.746   8.454   6.856
 3088POPC   C4A41982  37.851   8.567   7.270
 3088POPC   C1B41983  37.775   7.937   6.021
 3088POPC   C2B41984  37.703   8.055   6.480
 3088POPC   C3B41985  37.372   8.134   6.845
 3088POPC   C4B41986  37.544   8.164   7.267
 3089POPC   NC341987  40.183   3.101   5.415
 3089POPC   PO441988  40.289   3.804   5.325
 3089POPC   GL141989  39.981   3.734   5.680
 3089POPC   GL241990  39.971   3.381   5.812
 3089POPC   C1A41991  39.905   3.792   6.143
 3089POPC   D2A41992  39.949   3.551   6.606
 3089POPC   C3A41993  40.049   3.643   7.073
 3089POPC   C4A41994  39.884   3.770   7.461
 3089POPC   C1B41995  40.214   3.395   6.197
 3089POPC   C2B41996  40.417   3.197   6.530
 3089POPC   C3B41997  40.404   3.068   6.943
 3089POPC   C4B41998  40.269   3.147   7.359
 3090POPC   NC341999  12.270  18.195   5.583
 3090POPC   PO442000  11.613  18.288   5.341
 3090POPC   GL142001  11.808  18.275   5.775
 3090POPC   GL242002  11.885  18.580   5.914
 3090POPC   C1A42003  11.940  18.160   6.208
 3090POPC   D2A42004  11.939  18.379   6.615
 3090POPC   C3A42005  12.003  18.064   6.932
 3090POPC   C4A42006  11.832  17.936   7.333
 3090POPC   C1B42007  12.214  18.605   6.191
 3090POPC   C2B42008  12.389  18.718   6.581
 3090POPC   C3B42009  12.385  18.454   6.922
 3090POPC   C4B42010  12.108  18.411   7.280
 3091POPC   NC342011  19.220   4.203   4.871
 3091POPC   PO442012  19.481   4.533   5.481
 3091POPC   GL142013  19.428   4.414   5.876
 3091POPC   GL242014  19.083   4.362   5.872
 3091POPC   C1A42015  19.552   4.283   6.290
 3091POPC   D2A42016  19.304   4.394   6.635
 3091POPC   C3A42017  19.227   4.119   6.971
 3091POPC   C4A42018  19.085   4.198   7.396
 3091POPC   C1B42019  19.032   4.196   6.243
 3091POPC   C2B42020  18.812   4.285   6.596
 3091POPC   C3B42021  18.743   4.260   7.013
 3091POPC   C4B42022  18.693   3.851   7.198
 3092POPC   NC342023   0.434  25.564   5.235
 3092POPC   PO442024   0.231  25.055   5.576
 3092POPC   GL142025   0.424  25.231   5.868
 3092POPC   GL242026   0.757  25.098   5.896
 3092POPC   C1A42027   0.206  25.185   6.242
 3092POPC   D2A42028  44.887  25.158   6.517
 3092POPC   C3A42029   0.136  25.106   6.855
 3092POPC   C4A42030   0.317  25.231   7.200
 3092POPC   C1B42031   0.689  25.412   6.259
 3092POPC   C2B42032   0.659  25.476   6.707
 3092POPC   C3B42033   0.805  25.204   6.995
 3092POPC   C4B42034   0.763  24.976   7.328
 3093POPC   NC342035  14.765  16.580   5.688
 3093POPC   PO442036  14.175  16.813   5.441
 3093POPC   GL142037  14.331  16.813   5.841
 3093POPC   GL242038  14.302  16.458   5.876
 3093POPC   C1A42039  14.501  16.816   6.275
 3093POPC   D2A42040  14.437  17.002   6.685
 3093POPC   C3A42041  14.539  16.753   7.065
 3093POPC   C4A42042  14.347  16.769   7.473
 3093POPC   C1B42043  14.416  16.314   6.308
 3093POPC   C2B42044  14.502  16.327   6.760
 3093POPC   C3B42045  14.173  16.325   7.079
 3093POPC   C4B42046  14.160  16.287   7.514
 3094POPC   NC342047  39.060  35.567   5.404
 3094POPC   PO442048  39.462  35.092   5.177
 3094POPC   GL142049  39.417  35.199   5.635
 3094POPC   GL242050  39.093  35.204   5.751
 3094POPC   C1A42051  39.486  35.406   6.045
 3094POPC   D2A42052  39.391  35.308   6.462
 3094POPC   C3A42053  39.543  35.488   6.833
 3094POPC   C4A42054  39.508  35.253   7.229
 3094POPC   C1B42055  38.976  35.410   6.131
 3094POPC   C2B42056  38.920  35.458   6.581
 3094POPC   C3B42057  39.129  35.171   6.889
 3094POPC   C4B42058  39.010  35.050   7.309
 3095POPC   NC342059  36.592   8.916   5.452
 3095POPC   PO442060  37.256   9.032   5.626
 3095POPC   GL142061  36.950   8.835   5.872
 3095POPC   GL242062  36.720   9.113   5.884
 3095POPC   C1A42063  36.730   8.764   6.268
 3095POPC   D2A42064  36.646   9.057   6.624
 3095POPC   C3A42065  36.810   8.903   7.048
 3095POPC   C4A42066  36.681   8.823   7.491
 3095POPC   C1B42067  36.941   9.306   6.183
 3095POPC   C2B42068  36.945   9.538   6.533
 3095POPC   C3B42069  36.948   9.365   6.933
 3095POPC   C4B42070  37.083   9.238   7.366
 3096POPC   NC342071  31.681  27.000   5.630
 3096POPC   PO442072  31.136  26.809   5.341
 3096POPC   GL142073  31.244  26.787   5.811
 3096POPC   GL242074  31.553  26.615   5.978
 3096POPC   C1A42075  31.342  27.042   6.208
 3096POPC   D2A42076  31.460  27.131   6.641
 3096POPC   C3A42077  31.347  27.004   7.064
 3096POPC   C4A42078  31.576  27.265   7.371
 3096POPC   C1B42079  31.211  26.523   6.281
 3096POPC   C2B42080  31.275  26.542   6.732
 3096POPC   C3B42081  31.491  26.480   7.131
 3096POPC   C4B42082  31.593  26.774   7.482
 3097POPC   NC342083  41.818  40.901   5.523
 3097POPC   PO442084  41.141  40.970   5.546
 3097POPC   GL142085  41.436  41.016   5.909
 3097POPC   GL242086  41.802  41.078   6.004
 3097POPC   C1A42087  41.451  40.963   6.366
 3097POPC   D2A42088  41.349  40.616   6.654
 3097POPC   C3A42089  41.472  40.670   7.078
 3097POPC   C4A42090  41.356  40.552   7.522
 3097POPC   C1B42091  41.880  40.688   6.251
 3097POPC   C2B42092  41.875  40.645   6.707
 3097POPC   C3B42093  41.974  40.725   7.129
 3097POPC   C4B42094  41.743  40.922   7.468
 3098POPC   NC342095  11.496  21.440   5.504
 3098POPC   PO442096  12.197  21.311   5.494
 3098POPC   GL142097  12.098  21.215   5.890
 3098POPC   GL242098  11.738  21.198   5.886
 3098POPC   C1A42099  12.138  20.953   6.254
 3098POPC   D2A42100  12.281  20.860   6.658
 3098POPC   C3A42101  12.325  21.233   6.903
 3098POPC   C4A42102  12.029  21.387   7.167
 3098POPC   C1B42103  11.748  21.269   6.271
 3098POPC   C2B42104  11.891  21.279   6.649
 3098POPC   C3B42105  11.655  21.556   6.872
 3098POPC   C4B42106  11.684  21.750   7.241
 3099POPC   NC342107  14.685   6.707   5.464
 3099POPC   PO442108  14.189   6.840   5.280
 3099POPC   GL142109  14.255   6.834   5.779
 3099POPC   GL242110  14.400   6.507   5.856
 3099POPC   C1A42111  14.231   6.844   6.292
 3099POPC   D2A42112  14.320   6.932   6.788
 3099POPC   C3A42113  14.261   6.623   7.139
 3099POPC   C4A42114  14.064   6.548   7.563
 3099POPC   C1B42115  14.613   6.494   6.253
 3099POPC   C2B42116  14.527   6.477   6.698
 3099POPC   C3B42117  14.775   6.504   7.079
 3099POPC   C4B42118  15.022   6.194   7.345
 3100POPC   NC342119   3.864  12.545   5.420
 3100POPC   PO442120   3.194  12.311   5.449
 3100POPC   GL142121   3.407  12.610   5.831
 3100POPC   GL242122   3.723  12.782   5.882
 3100POPC   C1A42123   3.282  12.884   6.218
 3100POPC   D2A42124   3.147  12.890   6.698
 3100POPC   C3A42125   3.513  12.772   6.982
 3100POPC   C4A42126   3.884  12.506   7.134
 3100POPC   C1B42127   3.944  12.837   6.283
 3100POPC   C2B42128   4.001  12.850   6.743
 3100POPC   C3B42129   3.916  13.039   7.152
 3100POPC   C4B42130   3.912  12.938   7.588
 3101POPC   NC342131  41.143   7.918   5.279
 3101POPC   PO442132  40.880   8.575   5.469
 3101POPC   GL142133  40.633   8.217   5.718
 3101POPC   GL242134  40.860   7.917   5.824
 3101POPC   C1A42135  40.563   8.128   6.181
 3101POPC   D2A42136  40.918   8.201   6.480
 3101POPC   C3A42137  40.832   8.383   6.881
 3101POPC   C4A42138  40.660   8.376   7.299
 3101POPC   C1B42139  41.020   7.729   6.247
 3101POPC   C2B42140  41.081   7.766   6.711
 3101POPC   C3B42141  40.829   7.903   7.046
 3101POPC   C4B42142  40.921   7.939   7.474
 3102POPC   NC342143  32.528  37.335   5.438
 3102POPC   PO442144  32.164  36.844   5.255
 3102POPC   GL142145  32.193  37.016   5.684
 3102POPC   GL242146  32.527  36.888   5.760
 3102POPC   C1A42147  32.085  36.975   6.143
 3102POPC   D2A42148  32.071  36.717   6.539
 3102POPC   C3A42149  32.008  36.888   6.967
 3102POPC   C4A42150  32.087  36.597   7.318
 3102POPC   C1B42151  32.581  37.113   6.167
 3102POPC   C2B42152  32.339  37.167   6.562
 3102POPC   C3B42153  32.482  37.088   6.970
 3102POPC   C4B42154  32.677  36.952   7.347
 3103POPC   NC342155  12.039  35.253   5.391
 3103POPC   PO442156  12.561  35.705   5.608
 3103POPC   GL142157  12.170  35.514   5.841
 3103POPC   GL242158  11.810  35.313   5.842
 3103POPC   C1A42159  12.092  35.370   6.281
 3103POPC   D2A42160  12.251  35.172   6.667
 3103POPC   C3A42161  12.042  35.406   6.982
 3103POPC   C4A42162  11.953  35.662   7.330
 3103POPC   C1B42163  11.781  34.954   6.161
 3103POPC   C2B42164  11.775  34.908   6.630
 3103POPC   C3B42165  11.981  34.907   7.047
 3103POPC   C4B42166  12.390  35.049   7.216
 3104POPC   NC342167   3.806   1.216   5.390
 3104POPC   PO442168   4.435   1.434   5.321
 3104POPC   GL142169   4.343   1.204   5.710
 3104POPC   GL242170   4.017   1.156   5.869
 3104POPC   C1A42171   4.580   1.134   6.085
 3104POPC   D2A42172   4.580   1.058   6.532
 3104POPC   C3A42173   4.371   1.387   6.773
 3104POPC   C4A42174   4.372   1.489   7.215
 3104POPC   C1B42175   4.158   0.852   6.210
 3104POPC   C2B42176   4.167   0.737   6.652
 3104POPC   C3B42177   4.353   0.939   7.015
 3104POPC   C4B42178   4.207   1.030   7.426
 3105POPC   NC342179  37.198  44.939   5.436
 3105POPC   PO442180  36.851  44.330   5.456
 3105POPC   GL142181  37.039  44.425   5.850
 3105POPC   GL242182  36.856  44.751   5.871
 3105POPC   C1A42183  37.121  44.620   6.270
 3105POPC   D2A42184  36.845  44.826   6.556
 3105POPC   C3A42185  37.018  44.777   6.932
 3105POPC   C4A42186  36.981  44.450   7.179
 3105POPC   C1B42187  36.550   0.048   6.152
 3105POPC   C2B42188  36.410   0.122   6.587
 3105POPC   C3B42189  36.489  44.855   6.956
 3105POPC   C4B42190  36.549  44.948   7.386
 3106POPC   NC342191   8.695   4.124   5.300
 3106POPC   PO442192   9.164   4.565   5.425
 3106POPC   GL142193   9.166   4.338   5.813
 3106POPC   GL242194   8.995   4.032   5.767
 3106POPC   C1A42195   9.164   4.252   6.266
 3106POPC   D2A42196   9.145   4.541   6.613
 3106POPC   C3A42197   9.041   4.439   7.011
 3106POPC   C4A42198   9.207   4.532   7.440
 3106POPC   C1B42199   9.300   3.799   6.040
 3106POPC   C2B42200   9.425   3.807   6.496
 3106POPC   C3B42201   9.425   4.092   6.869
 3106POPC   C4B42202   9.215   4.048   7.281
 3107POPC   NC342203  20.024  30.858   5.454
 3107POPC   PO442204  20.646  31.048   5.392
 3107POPC   GL142205  20.693  30.776   5.785
 3107POPC   GL242206  20.325  30.762   5.907
 3107POPC   C1A42207  20.752  30.660   6.245
 3107POPC   D2A42208  20.604  30.718   6.683
 3107POPC   C3A42209  20.805  30.615   7.079
 3107POPC   C4A42210  20.851  30.828   7.478
 3107POPC   C1B42211  20.277  30.476   6.282
 3107POPC   C2B42212  20.124  30.502   6.718
 3107POPC   C3B42213  20.226  30.744   7.059
 3107POPC   C4B42214  20.288  30.982   7.407
 3108POPC   NC342215  22.450  12.478   5.336
 3108POPC   PO442216  22.126  11.871   5.391
 3108POPC   GL142217  22.087  12.202   5.722
 3108POPC   GL242218  22.417  12.198   5.787
 3108POPC   C1A42219  21.999  12.085   6.170
 3108POPC   D2A42220  21.830  11.737   6.403
 3108POPC   C3A42221  21.909  11.787   6.838
 3108POPC   C4A42222  22.064  12.069   7.141
 3108POPC   C1B42223  22.395  11.806   6.051
 3108POPC   C2B42224  22.345  11.799   6.516
 3108POPC   C3B42225  22.509  11.901   6.942
 3108POPC   C4B42226  22.554  12.113   7.361
 3109POPC   NC342227  17.536   7.244   5.290
 3109POPC   PO442228  17.941   7.824   5.343
 3109POPC   GL142229  17.684   7.680   5.717
 3109POPC   GL242230  17.335   7.631   5.594
 3109POPC   C1A42231  17.713   7.405   6.114
 3109POPC   D2A42232  17.868   7.438   6.563
 3109POPC   C3A42233  17.739   7.410   7.011
 3109POPC   C4A42234  17.624   7.748   7.288
 3109POPC   C1B42235  17.227   7.500   6.043
 3109POPC   C2B42236  17.340   7.312   6.464
 3109POPC   C3B42237  17.154   7.293   6.879
 3109POPC   C4B42238  17.193   7.492   7.268
 3110POPC   NC342239  33.281  21.555   5.533
 3110POPC   PO442240  33.853  21.219   5.199
 3110POPC   GL142241  33.965  21.240   5.708
 3110POPC   GL242242  33.636  21.309   5.883
 3110POPC   C1A42243  34.078  21.295   6.154
 3110POPC   D2A42244  33.735  21.293   6.475
 3110POPC   C3A42245  33.811  21.405   6.900
 3110POPC   C4A42246  33.688  21.260   7.279
 3110POPC   C1B42247  33.390  21.570   6.187
 3110POPC   C2B42248  33.227  21.447   6.587
 3110POPC   C3B42249  33.335  21.571   6.994
 3110POPC   C4B42250  33.588  21.760   7.286
 3111POPC   NC342251  24.833  13.614   5.473
 3111POPC   PO442252  24.265  13.316   5.419
 3111POPC   GL142253  24.453  13.477   5.813
 3111POPC   GL242254  24.756  13.240   5.883
 3111POPC   C1A42255  24.311  13.807   6.156
 3111POPC   D2A42256  24.297  14.015   6.577
 3111POPC   C3A42257  24.262  13.687   6.844
 3111POPC   C4A42258  24.437  13.369   7.064
 3111POPC   C1B42259  24.805  13.605   6.201
 3111POPC   C2B42260  24.762  13.768   6.659
 3111POPC   C3B42261  24.833  13.699   7.120
 3111POPC   C4B42262  24.894  13.597   7.568
 3112POPC   NC342263   9.182  43.709   5.492
 3112POPC   PO442264   8.760  44.164   5.448
 3112POPC   GL142265   9.000  44.063   5.790
 3112POPC   GL242266   9.273  44.266   5.823
 3112POPC   C1A42267   9.082  43.804   6.143
 3112POPC   D2A42268   8.822  43.795   6.490
 3112POPC   C3A42269   9.015  43.631   6.831
 3112POPC   C4A42270   8.947  43.735   7.243
 3112POPC   C1B42271   9.097  44.294   6.223
 3112POPC   C2B42272   9.223  44.086   6.592
 3112POPC   C3B42273   9.105  44.192   6.998
 3112POPC   C4B42274   9.275  44.154   7.405
 3113POPC   NC342275  38.076   3.046   5.353
 3113POPC   PO442276  37.475   2.750   5.407
 3113POPC   GL142277  37.590   2.827   5.831
 3113POPC   GL242278  37.950   2.808   5.795
 3113POPC   C1A42279  37.426   2.863   6.282
 3113POPC   D2A42280  37.337   2.864   6.741
 3113POPC   C3A42281  37.682   2.736   7.017
 3113POPC   C4A42282  38.070   2.906   7.161
 3113POPC   C1B42283  37.935   2.957   6.229
 3113POPC   C2B42284  37.844   2.651   6.543
 3113POPC   C3B42285  38.105   2.449   6.841
 3113POPC   C4B42286  38.011   2.387   7.258
 3114POPC   NC342287  22.129  36.945   5.254
 3114POPC   PO442288  22.303  36.437   5.376
 3114POPC   GL142289  22.129  36.729   5.744
 3114POPC   GL242290  22.207  37.099   5.774
 3114POPC   C1A42291  21.997  36.824   6.214
 3114POPC   D2A42292  22.115  36.990   6.652
 3114POPC   C3A42293  21.966  36.840   7.082
 3114POPC   C4A42294  21.921  36.665   7.519
 3114POPC   C1B42295  22.379  37.207   6.217
 3114POPC   C2B42296  22.571  37.205   6.660
 3114POPC   C3B42297  22.440  37.052   7.095
 3114POPC   C4B42298  22.191  37.107   7.496
 3115POPC   NC342299  28.633  19.767   5.466
 3115POPC   PO442300  28.227  20.211   5.188
 3115POPC   GL142301  28.205  20.060   5.660
 3115POPC   GL242302  28.261  19.687   5.779
 3115POPC   C1A42303  28.427  20.069   6.101
 3115POPC   D2A42304  28.678  19.818   6.461
 3115POPC   C3A42305  28.579  19.920   6.914
 3115POPC   C4A42306  28.299  20.144   7.216
 3115POPC   C1B42307  28.307  19.565   6.199
 3115POPC   C2B42308  28.299  19.521   6.633
 3115POPC   C3B42309  28.339  19.462   7.046
 3115POPC   C4B42310  28.021  19.690   7.227
 3116POPC   NC342311  44.330  13.931   5.425
 3116POPC   PO442312  44.916  13.581   5.409
 3116POPC   GL142313  44.608  13.652   5.736
 3116POPC   GL242314  44.743  13.986   5.742
 3116POPC   C1A42315  44.394  13.739   6.113
 3116POPC   D2A42316  44.552  13.570   6.478
 3116POPC   C3A42317  44.396  13.682   6.849
 3116POPC   C4A42318  44.432  13.636   7.246
 3116POPC   C1B42319  44.920  13.827   6.153
 3116POPC   C2B42320  44.942  13.927   6.616
 3116POPC   C3B42321  44.898  13.770   7.070
 3116POPC   C4B42322  44.793  13.870   7.531
 3117POPC   NC342323  10.760  28.380   5.407
 3117POPC   PO442324  10.132  28.492   5.350
 3117POPC   GL142325  10.370  28.453   5.764
 3117POPC   GL242326  10.654  28.632   5.838
 3117POPC   C1A42327  10.518  28.284   6.171
 3117POPC   D2A42328  10.662  28.350   6.583
 3117POPC   C3A42329  10.483  28.133   6.922
 3117POPC   C4A42330  10.759  28.070   7.235
 3117POPC   C1B42331  10.558  28.809   6.229
 3117POPC   C2B42332  10.276  28.660   6.544
 3117POPC   C3B42333  10.258  28.583   6.930
 3117POPC   C4B42334  10.569  28.556   7.288
 3118POPC   NC342335  36.081  24.841   5.452
 3118POPC   PO442336  36.528  24.376   5.521
 3118POPC   GL142337  36.198  24.469   5.836
 3118POPC   GL242338  36.306  24.798   5.910
 3118POPC   C1A42339  36.011  24.304   6.259
 3118POPC   D2A42340  35.894  24.540   6.692
 3118POPC   C3A42341  36.161  24.503   7.049
 3118POPC   C4A42342  36.113  24.099   7.166
 3118POPC   C1B42343  36.166  24.794   6.324
 3118POPC   C2B42344  36.388  24.853   6.707
 3118POPC   C3B42345  36.617  24.733   7.061
 3118POPC   C4B42346  36.438  24.655   7.476
 3119POPC   NC342347  17.630   9.012   5.049
 3119POPC   PO442348  17.279   8.822   5.621
 3119POPC   GL142349  17.658   8.933   5.848
 3119POPC   GL242350  17.732   8.618   5.940
 3119POPC   C1A42351  17.733   9.095   6.274
 3119POPC   D2A42352  17.757   8.776   6.597
 3119POPC   C3A42353  17.679   8.956   6.991
 3119POPC   C4A42354  17.781   9.322   7.221
 3119POPC   C1B42355  17.361   8.753   6.239
 3119POPC   C2B42356  17.224   8.620   6.629
 3119POPC   C3B42357  17.287   8.589   7.046
 3119POPC   C4B42358  17.238   8.939   7.308
 3120POPC   NC342359  34.000  31.675   4.986
 3120POPC   PO442360  33.583  31.566   5.384
 3120POPC   GL142361  33.608  31.545   5.857
 3120POPC   GL242362  33.851  31.818   5.862
 3120POPC   C1A42363  33.523  31.296   6.298
 3120POPC   D2A42364  33.382  31.159   6.743
 3120POPC   C3A42365  33.694  31.184   7.083
 3120POPC   C4A42366  34.052  31.130   7.383
 3120POPC   C1B42367  33.697  31.781   6.320
 3120POPC   C2B42368  33.766  31.542   6.709
 3120POPC   C3B42369  34.028  31.583   7.106
 3120POPC   C4B42370  34.293  31.552   7.520
 3121POPC   NC342371   6.423  34.112   5.168
 3121POPC   PO442372   6.586  34.735   5.321
 3121POPC   GL142373   6.751  34.687   5.738
 3121POPC   GL242374   6.416  34.775   5.831
 3121POPC   C1A42375   6.694  34.474   6.152
 3121POPC   D2A42376   6.472  34.262   6.490
 3121POPC   C3A42377   6.538  34.479   6.907
 3121POPC   C4A42378   6.819  34.361   7.260
 3121POPC   C1B42379   6.443  35.009   6.239
 3121POPC   C2B42380   6.727  35.166   6.575
 3121POPC   C3B42381   6.840  34.912   6.936
 3121POPC   C4B42382   6.627  34.830   7.340
 3122POPC   NC342383  40.061  36.362   5.366
 3122POPC   PO442384  40.221  37.013   5.270
 3122POPC   GL142385  40.242  36.777   5.664
 3122POPC   GL242386  39.929  36.675   5.791
 3122POPC   C1A42387  40.368  36.743   6.108
 3122POPC   D2A42388  40.296  36.623   6.526
 3122POPC   C3A42389  40.224  36.839   6.904
 3122POPC   C4A42390  40.256  36.666   7.300
 3122POPC   C1B42391  39.830  36.779   6.238
 3122POPC   C2B42392  39.780  36.703   6.680
 3122POPC   C3B42393  39.779  36.578   7.119
 3122POPC   C4B42394  39.802  36.841   7.497
 3123POPC   NC342395  11.005  27.414   5.393
 3123POPC   PO442396  10.397  27.538   5.210
 3123POPC   GL142397  10.533  27.524   5.651
 3123POPC   GL242398  10.698  27.244   5.787
 3123POPC   C1A42399  10.533  27.804   6.008
 3123POPC   D2A42400  10.547  27.834   6.495
 3123POPC   C3A42401  10.727  27.675   6.920
 3123POPC   C4A42402  10.534  27.642   7.400
 3123POPC   C1B42403  10.666  27.372   6.214
 3123POPC   C2B42404  10.455  27.332   6.603
 3123POPC   C3B42405  10.497  27.243   7.016
 3123POPC   C4B42406  10.891  27.321   7.268
 3124POPC   NC342407  31.462  19.318   5.384
 3124POPC   PO442408  31.299  18.733   5.244
 3124POPC   GL142409  31.594  18.900   5.659
 3124POPC   GL242410  31.661  19.250   5.839
 3124POPC   C1A42411  31.505  18.902   6.159
 3124POPC   D2A42412  31.795  18.834   6.501
 3124POPC   C3A42413  31.821  19.136   6.828
 3124POPC   C4A42414  31.538  19.186   7.153
 3124POPC   C1B42415  31.704  19.355   6.294
 3124POPC   C2B42416  31.366  19.323   6.621
 3124POPC   C3B42417  31.067  19.331   6.977
 3124POPC   C4B42418  31.182  19.461   7.380
 3125POPC   NC342419  11.256   7.606   5.407
 3125POPC   PO442420  11.034   6.893   5.341
 3125POPC   GL142421  11.258   7.174   5.669
 3125POPC   GL242422  11.009   7.456   5.840
 3125POPC   C1A42423  11.468   7.367   6.038
 3125POPC   D2A42424  11.256   7.363   6.429
 3125POPC   C3A42425  11.444   7.359   6.816
 3125POPC   C4A42426  11.373   7.206   7.215
 3125POPC   C1B42427  11.119   7.796   6.198
 3125POPC   C2B42428  11.265   7.838   6.678
 3125POPC   C3B42429  11.305   7.708   7.148
 3125POPC   C4B42430  11.123   7.846   7.514
 3126POPC   NC342431  38.429  26.493   5.406
 3126POPC   PO442432  38.695  27.126   5.487
 3126POPC   GL142433  38.426  26.873   5.775
 3126POPC   GL242434  38.652  26.639   5.824
 3126POPC   C1A42435  38.451  26.824   6.255
 3126POPC   D2A42436  38.240  26.666   6.639
 3126POPC   C3A42437  38.312  26.911   6.965
 3126POPC   C4A42438  38.231  27.022   7.339
 3126POPC   C1B42439  38.787  26.401   6.147
 3126POPC   C2B42440  38.702  26.472   6.559
 3126POPC   C3B42441  38.664  26.376   6.992
 3126POPC   C4B42442  38.627  26.267   7.428
 3127POPC   NC342443   3.163  28.165   5.465
 3127POPC   PO442444   2.866  28.756   5.430
 3127POPC   GL142445   2.963  28.530   5.775
 3127POPC   GL242446   3.151  28.783   5.944
 3127POPC   C1A42447   2.811  28.196   6.082
 3127POPC   D2A42448   2.544  28.188   6.478
 3127POPC   C3A42449   2.708  28.140   6.907
 3127POPC   C4A42450   2.434  28.184   7.246
 3127POPC   C1B42451   3.227  28.474   6.219
 3127POPC   C2B42452   3.038  28.335   6.558
 3127POPC   C3B42453   3.102  28.537   6.929
 3127POPC   C4B42454   3.022  28.727   7.309
 3128POPC   NC342455  26.202   9.925   5.619
 3128POPC   PO442456  26.765   9.786   5.254
 3128POPC   GL142457  26.950   9.874   5.657
 3128POPC   GL242458  26.821   9.615   5.865
 3128POPC   C1A42459  27.078   9.998   6.090
 3128POPC   D2A42460  26.841  10.047   6.473
 3128POPC   C3A42461  26.946   9.976   6.934
 3128POPC   C4A42462  26.812   9.911   7.392
 3128POPC   C1B42463  26.506   9.728   6.223
 3128POPC   C2B42464  26.361   9.882   6.632
 3128POPC   C3B42465  26.507   9.722   7.006
 3128POPC   C4B42466  26.620   9.444   7.338
 3129POPC   NC342467  34.339  17.195   5.362
 3129POPC   PO442468  34.645  16.632   5.155
 3129POPC   GL142469  34.562  16.682   5.666
 3129POPC   GL242470  34.548  17.036   5.815
 3129POPC   C1A42471  34.639  16.600   6.150
 3129POPC   D2A42472  34.485  16.747   6.569
 3129POPC   C3A42473  34.603  16.709   7.025
 3129POPC   C4A42474  34.856  16.546   7.358
 3129POPC   C1B42475  34.218  16.961   6.136
 3129POPC   C2B42476  34.102  17.148   6.528
 3129POPC   C3B42477  34.178  16.976   6.912
 3129POPC   C4B42478  34.295  17.215   7.260
 3130POPC   NC342479  11.869  38.820   5.527
 3130POPC   PO442480  11.857  38.121   5.414
 3130POPC   GL142481  12.142  38.382   5.702
 3130POPC   GL242482  11.832  38.449   5.865
 3130POPC   C1A42483  12.230  38.563   6.149
 3130POPC   D2A42484  12.067  38.466   6.559
 3130POPC   C3A42485  12.336  38.518   6.887
 3130POPC   C4A42486  12.306  38.458   7.292
 3130POPC   C1B42487  11.720  38.665   6.235
 3130POPC   C2B42488  11.731  38.842   6.648
 3130POPC   C3B42489  11.817  38.550   6.997
 3130POPC   C4B42490  11.497  38.372   7.245
 3131POPC   NC342491  15.364  19.025   5.255
 3131POPC   PO442492  15.405  19.646   5.257
 3131POPC   GL142493  15.186  19.278   5.652
 3131POPC   GL242494  15.383  19.047   5.927
 3131POPC   C1A42495  15.004  19.341   6.036
 3131POPC   D2A42496  15.187  19.223   6.440
 3131POPC   C3A42497  15.178  19.316   6.876
 3131POPC   C4A42498  15.358  18.990   7.151
 3131POPC   C1B42499  15.203  18.753   6.253
 3131POPC   C2B42500  15.105  18.753   6.716
 3131POPC   C3B42501  15.097  18.570   7.143
 3131POPC   C4B42502  15.450  18.562   7.462
 3132POPC   NC342503  35.149   8.814   5.551
 3132POPC   PO442504  35.690   8.750   5.171
 3132POPC   GL142505  35.633   8.766   5.679
 3132POPC   GL242506  35.440   9.113   5.814
 3132POPC   C1A42507  35.415   8.514   6.064
 3132POPC   D2A42508  35.225   8.616   6.475
 3132POPC   C3A42509  35.389   8.571   6.906
 3132POPC   C4A42510  35.138   8.909   7.112
 3132POPC   C1B42511  35.596   8.985   6.194
 3132POPC   C2B42512  35.601   9.257   6.522
 3132POPC   C3B42513  35.371   9.327   6.891
 3132POPC   C4B42514  35.439   9.259   7.337
 3133POPC   NC342515  31.697  23.608   5.287
 3133POPC   PO442516  31.129  23.953   5.337
 3133POPC   GL142517  31.433  23.820   5.716
 3133POPC   GL242518  31.450  23.454   5.865
 3133POPC   C1A42519  31.672  23.900   6.051
 3133POPC   D2A42520  31.711  23.623   6.389
 3133POPC   C3A42521  31.745  23.780   6.801
 3133POPC   C4A42522  31.678  23.772   7.258
 3133POPC   C1B42523  31.212  23.712   6.202
 3133POPC   C2B42524  31.222  23.913   6.599
 3133POPC   C3B42525  31.242  23.736   6.996
 3133POPC   C4B42526  31.153  23.821   7.429
 3134POPC   NC342527  42.265   9.075   5.463
 3134POPC   PO442528  42.802   8.650   5.404
 3134POPC   GL142529  42.488   8.780   5.787
 3134POPC   GL242530  42.421   9.165   5.938
 3134POPC   C1A42531  42.495   8.784   6.256
 3134POPC   D2A42532  42.768   8.726   6.611
 3134POPC   C3A42533  42.632   8.919   7.022
 3134POPC   C4A42534  42.387   8.720   7.325
 3134POPC   C1B42535  42.422   9.352   6.382
 3134POPC   C2B42536  42.397   9.403   6.851
 3134POPC   C3B42537  42.279   9.403   7.297
 3134POPC   C4B42538  42.143   9.365   7.775
 3135POPC   NC342539  40.691  37.136   5.300
 3135POPC   PO442540  41.008  36.563   5.440
 3135POPC   GL142541  40.991  36.763   5.817
 3135POPC   GL242542  40.701  36.965   5.789
 3135POPC   C1A42543  40.895  36.833   6.243
 3135POPC   D2A42544  40.798  36.622   6.588
 3135POPC   C3A42545  40.877  36.829   6.967
 3135POPC   C4A42546  40.712  36.866   7.430
 3135POPC   C1B42547  40.564  37.219   6.143
 3135POPC   C2B42548  40.627  37.309   6.593
 3135POPC   C3B42549  40.558  37.195   7.043
 3135POPC   C4B42550  40.500  37.378   7.422
 3136POPC   NC342551  29.404  31.281   5.402
 3136POPC   PO442552  28.857  31.729   5.614
 3136POPC   GL142553  29.269  31.581   5.790
 3136POPC   GL242554  29.226  31.225   5.878
 3136POPC   C1A42555  29.491  31.535   6.182
 3136POPC   D2A42556  29.217  31.529   6.547
 3136POPC   C3A42557  29.423  31.565   6.912
 3136POPC   C4A42558  29.422  31.264   7.198
 3136POPC   C1B42559  28.920  31.251   6.217
 3136POPC   C2B42560  28.827  31.122   6.639
 3136POPC   C3B42561  28.950  31.347   7.003
 3136POPC   C4B42562  28.973  31.155   7.398
 3137POPC   NC342563  10.285  31.044   5.403
 3137POPC   PO442564  10.682  30.549   5.368
 3137POPC   GL142565  10.446  30.651   5.711
 3137POPC   GL242566  10.198  30.377   5.708
 3137POPC   C1A42567  10.632  30.729   6.096
 3137POPC   D2A42568  10.934  30.701   6.422
 3137POPC   C3A42569  10.869  30.669   6.876
 3137POPC   C4A42570  10.731  30.835   7.269
 3137POPC   C1B42571  10.488  30.241   6.020
 3137POPC   C2B42572  10.518  30.372   6.445
 3137POPC   C3B42573  10.480  30.354   6.872
 3137POPC   C4B42574  10.537  30.348   7.281
 3138POPC   NC342575  33.701  22.308   5.406
 3138POPC   PO442576  33.729  21.647   5.520
 3138POPC   GL142577  33.647  21.880   5.860
 3138POPC   GL242578  33.467  22.188   5.839
 3138POPC   C1A42579  33.832  21.812   6.257
 3138POPC   D2A42580  33.622  21.800   6.622
 3138POPC   C3A42581  33.886  21.923   6.915
 3138POPC   C4A42582  33.975  22.089   7.280
 3138POPC   C1B42583  33.416  22.151   6.285
 3138POPC   C2B42584  33.525  22.316   6.690
 3138POPC   C3B42585  33.470  22.238   7.122
 3138POPC   C4B42586  33.568  22.211   7.583
 3139POPC   NC342587  41.288  11.477   5.431
 3139POPC   PO442588  41.858  11.100   5.432
 3139POPC   GL142589  41.604  11.160   5.823
 3139POPC   GL242590  41.237  11.075   5.832
 3139POPC   C1A42591  41.695  11.383   6.243
 3139POPC   D2A42592  41.475  11.435   6.644
 3139POPC   C3A42593  41.730  11.451   7.021
 3139POPC   C4A42594  41.894  11.056   7.212
 3139POPC   C1B42595  41.260  11.117   6.275
 3139POPC   C2B42596  41.293  10.916   6.666
 3139POPC   C3B42597  41.373  11.100   7.074
 3139POPC   C4B42598  41.159  11.411   7.267
 3140POPC   NC342599   1.510  28.459   5.270
 3140POPC   PO442600   0.907  28.179   5.425
 3140POPC   GL142601   1.219  28.377   5.700
 3140POPC   GL242602   1.413  28.079   5.751
 3140POPC   C1A42603   1.591  28.518   6.001
 3140POPC   D2A42604   1.758  28.748   6.391
 3140POPC   C3A42605   1.656  28.606   6.827
 3140POPC   C4A42606   1.648  28.507   7.291
 3140POPC   C1B42607   1.210  28.174   6.181
 3140POPC   C2B42608   1.161  28.172   6.647
 3140POPC   C3B42609   1.216  28.384   7.020
 3140POPC   C4B42610   0.926  28.524   7.282
 3141POPC   NC342611  32.228  31.267   5.511
 3141POPC   PO442612  32.699  31.842   5.469
 3141POPC   GL142613  32.380  31.696   5.837
 3141POPC   GL242614  32.023  31.571   5.836
 3141POPC   C1A42615  32.108  31.823   6.244
 3141POPC   D2A42616  31.880  31.765   6.633
 3141POPC   C3A42617  32.172  31.678   6.950
 3141POPC   C4A42618  32.568  31.453   6.911
 3141POPC   C1B42619  32.124  31.239   6.183
 3141POPC   C2B42620  32.226  31.136   6.636
 3141POPC   C3B42621  32.121  31.190   7.084
 3141POPC   C4B42622  32.167  31.241   7.526
 3142POPC   NC342623  17.218  43.752   5.502
 3142POPC   PO442624  17.696  44.237   5.494
 3142POPC   GL142625  17.431  44.123   5.882
 3142POPC   GL242626  17.175  43.817   5.987
 3142POPC   C1A42627  17.544  43.963   6.301
 3142POPC   D2A42628  17.603  43.789   6.701
 3142POPC   C3A42629  17.674  44.030   7.056
 3142POPC   C4A42630  17.620  43.907   7.474
 3142POPC   C1B42631  17.057  44.139   6.258
 3142POPC   C2B42632  17.221  44.165   6.663
 3142POPC   C3B42633  17.153  44.024   7.071
 3142POPC   C4B42634  17.168  44.075   7.503
 3143POPC   NC342635  12.709   1.360   5.445
 3143POPC   PO442636  13.020   0.803   5.159
 3143POPC   GL142637  12.824   0.890   5.664
 3143POPC   GL242638  12.769   1.190   5.918
 3143POPC   C1A42639  13.015   0.821   6.126
 3143POPC   D2A42640  12.747   0.910   6.501
 3143POPC   C3A42641  12.926   0.927   6.925
 3143POPC   C4A42642  12.931   1.311   7.175
 3143POPC   C1B42643  12.476   1.528   6.089
 3143POPC   C2B42644  12.465   1.771   6.474
 3143POPC   C3B42645  12.589   1.618   6.896
 3143POPC   C4B42646  12.789   1.823   7.250
 3144POPC   NC342647   2.616  32.279   5.435
 3144POPC   PO442648   3.118  31.928   5.433
 3144POPC   GL142649   3.027  32.145   5.782
 3144POPC   GL242650   2.999  32.484   5.721
 3144POPC   C1A42651   2.770  32.230   6.128
 3144POPC   D2A42652   2.497  31.968   6.377
 3144POPC   C3A42653   2.712  31.874   6.779
 3144POPC   C4A42654   2.564  31.950   7.190
 3144POPC   C1B42655   3.271  32.459   6.107
 3144POPC   C2B42656   3.413  32.494   6.569
 3144POPC   C3B42657   3.230  32.441   6.999
 3144POPC   C4B42658   2.785  32.412   7.118
 3145POPC   NC342659  41.393   8.595   5.563
 3145POPC   PO442660  41.631   8.069   5.184
 3145POPC   GL142661  41.559   8.083   5.640
 3145POPC   GL242662  41.914   8.128   5.728
 3145POPC   C1A42663  41.341   8.120   6.068
 3145POPC   D2A42664  41.455   8.063   6.504
 3145POPC   C3A42665  41.339   8.348   6.812
 3145POPC   C4A42666  41.222   8.250   7.214
 3145POPC   C1B42667  41.856   8.219   6.143
 3145POPC   C2B42668  41.980   8.096   6.540
 3145POPC   C3B42669  41.843   8.255   6.916
 3145POPC   C4B42670  41.725   8.145   7.321
 3146POPC   NC342671   5.332   0.573   5.407
 3146POPC   PO442672   4.704   0.601   5.376
 3146POPC   GL142673   4.912   0.401   5.707
 3146POPC   GL242674   5.160   0.120   5.703
 3146POPC   C1A42675   5.129   0.470   6.084
 3146POPC   D2A42676   4.954   0.422   6.489
 3146POPC   C3A42677   5.223   0.357   6.828
 3146POPC   C4A42678   5.245   0.582   7.197
 3146POPC   C1B42679   4.858   0.024   6.083
 3146POPC   C2B42680   4.795  44.894   6.548
 3146POPC   C3B42681   4.865   0.027   6.997
 3146POPC   C4B42682   4.777   0.333   7.338
 3147POPC   NC342683  32.452  25.210   5.545
 3147POPC   PO442684  31.893  25.587   5.568
 3147POPC   GL142685  32.060  25.293   5.846
 3147POPC   GL242686  32.350  25.534   5.931
 3147POPC   C1A42687  32.277  25.135   6.230
 3147POPC   D2A42688  32.364  25.382   6.595
 3147POPC   C3A42689  32.415  25.083   6.945
 3147POPC   C4A42690  32.085  24.821   7.094
 3147POPC   C1B42691  31.997  25.587   6.241
 3147POPC   C2B42692  31.804  25.699   6.584
 3147POPC   C3B42693  31.964  25.690   6.988
 3147POPC   C4B42694  32.384  25.582   7.064
 3148POPC   NC342695  14.898  38.517   5.493
 3148POPC   PO442696  15.514  38.858   5.458
 3148POPC   GL142697  15.481  38.704   5.846
 3148POPC   GL242698  15.313  38.379   5.808
 3148POPC   C1A42699  15.258  38.666   6.241
 3148POPC   D2A42700  14.921  38.548   6.564
 3148POPC   C3A42701  15.131  38.602   6.912
 3148POPC   C4A42702  15.245  38.741   7.291
 3148POPC   C1B42703  14.932  38.305   6.130
 3148POPC   C2B42704  14.849  38.012   6.475
 3148POPC   C3B42705  14.954  37.974   6.911
 3148POPC   C4B42706  15.016  38.252   7.258
 3149POPC   NC342707  23.866  10.454   5.457
 3149POPC   PO442708  23.379  10.818   5.241
 3149POPC   GL142709  23.432  10.513   5.705
 3149POPC   GL242710  23.804  10.514   5.950
 3149POPC   C1A42711  23.375  10.362   6.135
 3149POPC   D2A42712  23.611  10.454   6.507
 3149POPC   C3A42713  23.483  10.344   6.931
 3149POPC   C4A42714  23.876  10.408   7.096
 3149POPC   C1B42715  24.004  10.860   6.217
 3149POPC   C2B42716  23.995  10.925   6.650
 3149POPC   C3B42717  23.621  10.848   6.869
 3149POPC   C4B42718  23.533  10.717   7.274
 3150POPC   NC342719  40.970  36.096   5.425
 3150POPC   PO442720  40.318  35.979   5.440
 3150POPC   GL142721  40.553  36.231   5.774
 3150POPC   GL242722  40.804  35.973   5.901
 3150POPC   C1A42723  40.543  36.218   6.259
 3150POPC   D2A42724  40.870  36.099   6.554
 3150POPC   C3A42725  40.736  36.258   6.931
 3150POPC   C4A42726  40.677  36.382   7.324
 3150POPC   C1B42727  41.020  36.345   6.103
 3150POPC   C2B42728  41.280  36.526   6.439
 3150POPC   C3B42729  41.231  36.443   6.878
 3150POPC   C4B42730  41.156  36.603   7.298
 3151POPC   NC342731  27.587  43.651   5.407
 3151POPC   PO442732  27.372  44.265   5.265
 3151POPC   GL142733  27.505  44.043   5.719
 3151POPC   GL242734  27.719  43.786   5.879
 3151POPC   C1A42735  27.397  44.022   6.192
 3151POPC   D2A42736  27.500  43.780   6.548
 3151POPC   C3A42737  27.419  43.913   6.950
 3151POPC   C4A42738  27.463  43.659   7.319
 3151POPC   C1B42739  27.863  44.190   6.060
 3151POPC   C2B42740  27.855  44.174   6.495
 3151POPC   C3B42741  28.069  44.185   6.848
 3151POPC   C4B42742  27.846  44.008   7.210
 3152POPC   NC342743  31.781  24.513   5.304
 3152POPC   PO442744  32.378  24.767   5.404
 3152POPC   GL142745  32.218  24.500   5.784
 3152POPC   GL242746  32.043  24.154   5.783
 3152POPC   C1A42747  32.322  24.580   6.216
 3152POPC   D2A42748  32.230  24.765   6.592
 3152POPC   C3A42749  32.451  24.539   6.896
 3152POPC   C4A42750  32.340  24.422   7.279
 3152POPC   C1B42751  32.062  24.153   6.258
 3152POPC   C2B42752  32.048  24.279   6.684
 3152POPC   C3B42753  31.995  24.124   7.091
 3152POPC   C4B42754  31.972  24.234   7.552
 3153POPC   NC342755  43.689  31.556   5.558
 3153POPC   PO442756  44.196  31.693   5.153
 3153POPC   GL142757  44.165  31.710   5.721
 3153POPC   GL242758  43.945  31.860   5.902
 3153POPC   C1A42759  44.145  31.482   6.183
 3153POPC   D2A42760  44.160  31.097   6.461
 3153POPC   C3A42761  44.116  31.182   6.930
 3153POPC   C4A42762  44.207  31.570   7.203
 3153POPC   C1B42763  43.699  31.733   6.247
 3153POPC   C2B42764  43.846  31.555   6.621
 3153POPC   C3B42765  43.819  31.791   6.982
 3153POPC   C4B42766  43.648  31.873   7.346
 3154POPC   NC342767  15.979  30.338   5.353
 3154POPC   PO442768  16.196  29.664   5.307
 3154POPC   GL142769  16.037  29.900   5.708
 3154POPC   GL242770  15.795  30.142   5.781
 3154POPC   C1A42771  15.913  29.857   6.177
 3154POPC   D2A42772  15.737  30.024   6.573
 3154POPC   C3A42773  15.936  29.872   6.932
 3154POPC   C4A42774  15.751  29.808   7.330
 3154POPC   C1B42775  15.834  30.365   6.202
 3154POPC   C2B42776  15.932  30.500   6.644
 3154POPC   C3B42777  15.992  30.366   7.074
 3154POPC   C4B42778  15.956  30.261   7.502
 3155POPC   NC342779  22.949  42.040   5.388
 3155POPC   PO442780  22.532  42.495   5.457
 3155POPC   GL142781  22.934  42.437   5.735
 3155POPC   GL242782  22.941  42.109   5.922
 3155POPC   C1A42783  23.199  42.513   6.122
 3155POPC   D2A42784  23.325  42.387   6.564
 3155POPC   C3A42785  23.082  42.424   6.959
 3155POPC   C4A42786  22.669  42.431   7.189
 3155POPC   C1B42787  22.879  42.139   6.396
 3155POPC   C2B42788  22.791  42.027   6.851
 3155POPC   C3B42789  22.933  42.013   7.287
 3155POPC   C4B42790  22.715  42.196   7.656
 3156POPC   NC342791  19.111   4.779   5.559
 3156POPC   PO442792  18.909   5.354   5.359
 3156POPC   GL142793  19.104   5.335   5.780
 3156POPC   GL242794  19.346   5.070   5.895
 3156POPC   C1A42795  18.935   5.245   6.201
 3156POPC   D2A42796  18.703   5.231   6.600
 3156POPC   C3A42797  18.982   5.176   6.968
 3156POPC   C4A42798  18.859   5.172   7.401
 3156POPC   C1B42799  19.139   4.750   6.214
 3156POPC   C2B42800  18.939   4.769   6.624
 3156POPC   C3B42801  19.078   4.660   7.033
 3156POPC   C4B42802  19.314   4.941   7.309
 3157POPC   NC342803   6.117   0.675   5.469
 3157POPC   PO442804   5.621   0.205   5.405
 3157POPC   GL142805   5.642   0.440   5.802
 3157POPC   GL242806   5.983   0.390   5.857
 3157POPC   C1A42807   5.607   0.436   6.265
 3157POPC   D2A42808   5.683   0.226   6.634
 3157POPC   C3A42809   5.714   0.328   7.064
 3157POPC   C4A42810   5.717   0.165   7.475
 3157POPC   C1B42811   6.050   0.658   6.222
 3157POPC   C2B42812   6.047   0.671   6.685
 3157POPC   C3B42813   6.187   0.573   7.105
 3157POPC   C4B42814   5.994   0.621   7.494
 3158POPC   NC342815  20.769  14.318   5.169
 3158POPC   PO442816  20.339  14.801   5.303
 3158POPC   GL142817  20.578  14.546   5.684
 3158POPC   GL242818  20.869  14.712   5.862
 3158POPC   C1A42819  20.745  14.304   6.116
 3158POPC   D2A42820  20.616  14.331   6.584
 3158POPC   C3A42821  20.808  14.301   6.999
 3158POPC   C4A42822  20.912  14.024   7.350
 3158POPC   C1B42823  20.739  14.772   6.331
 3158POPC   C2B42824  20.716  14.810   6.805
 3158POPC   C3B42825  20.494  14.681   7.165
 3158POPC   C4B42826  20.420  14.819   7.579
 3159POPC   NC342827  10.603   5.575   5.263
 3159POPC   PO442828  11.139   5.928   5.583
 3159POPC   GL142829  11.115   6.002   5.981
 3159POPC   GL242830  10.850   6.236   5.889
 3159POPC   C1A42831  11.008   5.750   6.366
 3159POPC   D2A42832  10.911   5.604   6.775
 3159POPC   C3A42833  11.265   5.750   7.007
 3159POPC   C4A42834  11.507   5.646   7.383
 3159POPC   C1B42835  10.702   6.144   6.269
 3159POPC   C2B42836  10.894   6.210   6.630
 3159POPC   C3B42837  10.835   6.067   7.018
 3159POPC   C4B42838  11.007   5.910   7.396
 3160POPC   NC342839  32.180  33.179   5.358
 3160POPC   PO442840  32.161  32.541   5.592
 3160POPC   GL142841  32.321  32.896   5.820
 3160POPC   GL242842  32.067  33.131   5.843
 3160POPC   C1A42843  32.368  33.097   6.248
 3160POPC   D2A42844  32.469  33.198   6.652
 3160POPC   C3A42845  32.170  33.185   6.950
 3160POPC   C4A42846  32.355  32.968   7.253
 3160POPC   C1B42847  31.927  32.822   6.185
 3160POPC   C2B42848  31.841  32.639   6.607
 3160POPC   C3B42849  31.937  32.691   7.060
 3160POPC   C4B42850  31.883  32.983   7.416
 3161POPC   NC342851  31.322  44.542   5.401
 3161POPC   PO442852  31.968  44.770   5.197
 3161POPC   GL142853  31.725  44.768   5.634
 3161POPC   GL242854  31.694  44.421   5.797
 3161POPC   C1A42855  31.720  44.839   6.128
 3161POPC   D2A42856  31.883  44.743   6.582
 3161POPC   C3A42857  31.751  44.849   7.028
 3161POPC   C4A42858  31.326  44.780   7.177
 3161POPC   C1B42859  31.461  44.393   6.235
 3161POPC   C2B42860  31.219  44.586   6.619
 3161POPC   C3B42861  31.006  44.417   7.003
 3161POPC   C4B42862  30.986  44.312   7.466
 3162POPC   NC342863  21.555  24.077   5.091
 3162POPC   PO442864  21.246  24.590   5.438
 3162POPC   GL142865  21.292  24.367   5.816
 3162POPC   GL242866  21.626  24.467   5.899
 3162POPC   C1A42867  21.260  24.370   6.274
 3162POPC   D2A42868  21.238  24.083   6.585
 3162POPC   C3A42869  21.412  24.124   6.949
 3162POPC   C4A42870  21.191  24.011   7.331
 3162POPC   C1B42871  21.433  24.820   6.093
 3162POPC   C2B42872  21.347  24.874   6.537
 3162POPC   C3B42873  21.511  24.671   6.887
 3162POPC   C4B42874  21.460  24.491   7.279
 3163POPC   NC342875  18.963  32.636   5.527
 3163POPC   PO442876  19.202  32.025   5.525
 3163POPC   GL142877  19.058  32.239   5.875
 3163POPC   GL242878  19.350  32.444   5.852
 3163POPC   C1A42879  19.110  32.282   6.327
 3163POPC   D2A42880  19.149  31.960   6.651
 3163POPC   C3A42881  19.069  32.055   7.071
 3163POPC   C4A42882  19.381  32.017   7.407
 3163POPC   C1B42883  19.487  32.642   6.229
 3163POPC   C2B42884  19.365  32.665   6.690
 3163POPC   C3B42885  19.315  32.499   7.120
 3163POPC   C4B42886  19.454  32.503   7.587
 3164POPC   NC342887  24.015   9.010   5.522
 3164POPC   PO442888  23.412   9.257   5.348
 3164POPC   GL142889  23.560   9.140   5.751
 3164POPC   GL242890  23.462   9.431   5.948
 3164POPC   C1A42891  23.677   8.800   6.067
 3164POPC   D2A42892  23.574   8.760   6.508
 3164POPC   C3A42893  23.812   8.853   6.896
 3164POPC   C4A42894  23.706   8.688   7.311
 3164POPC   C1B42895  23.845   9.284   6.162
 3164POPC   C2B42896  24.038   9.225   6.569
 3164POPC   C3B42897  24.062   9.546   6.884
 3164POPC   C4B42898  23.966   9.474   7.318
 3165POPC   NC342899  34.181  22.774   5.558
 3165POPC   PO442900  34.860  22.597   5.479
 3165POPC   GL142901  34.833  22.847   5.872
 3165POPC   GL242902  34.480  22.935   5.951
 3165POPC   C1A42903  34.812  22.729   6.318
 3165POPC   D2A42904  34.813  22.878   6.763
 3165POPC   C3A42905  34.682  22.832   7.183
 3165POPC   C4A42906  34.567  23.246   7.357
 3165POPC   C1B42907  34.351  22.548   6.195
 3165POPC   C2B42908  34.457  22.478   6.639
 3165POPC   C3B42909  34.297  22.828   6.858
 3165POPC   C4B42910  34.145  22.971   7.239
 3166POPC   NC342911   8.421  25.679   5.538
 3166POPC   PO442912   8.029  26.273   5.563
 3166POPC   GL142913   8.122  25.974   5.862
 3166POPC   GL242914   7.943  25.651   5.799
 3166POPC   C1A42915   8.366  26.048   6.242
 3166POPC   D2A42916   8.400  26.304   6.601
 3166POPC   C3A42917   8.306  26.110   6.954
 3166POPC   C4A42918   7.947  26.132   7.191
 3166POPC   C1B42919   8.033  25.642   6.241
 3166POPC   C2B42920   8.290  25.637   6.632
 3166POPC   C3B42921   8.104  25.662   7.042
 3166POPC   C4B42922   7.807  25.593   7.338
 3167POPC   NC342923  35.487  35.478   5.313
 3167POPC   PO442924  34.844  35.615   5.541
 3167POPC   GL142925  35.116  35.901   5.840
 3167POPC   GL242926  35.060  36.258   5.953
 3167POPC   C1A42927  35.334  35.987   6.276
 3167POPC   D2A42928  35.411  36.232   6.663
 3167POPC   C3A42929  35.125  36.128   7.003
 3167POPC   C4A42930  34.966  35.763   7.169
 3167POPC   C1B42931  34.932  36.265   6.446
 3167POPC   C2B42932  34.868  36.538   6.843
 3167POPC   C3B42933  35.168  36.591   7.196
 3167POPC   C4B42934  35.486  36.414   7.475
 3168POPC   NC342935   3.506  27.288   5.462
 3168POPC   PO442936   3.747  26.667   5.385
 3168POPC   GL142937   3.776  26.933   5.720
 3168POPC   GL242938   3.421  26.841   5.780
 3168POPC   C1A42939   3.812  27.074   6.133
 3168POPC   D2A42940   3.666  26.902   6.505
 3168POPC   C3A42941   3.920  26.930   6.874
 3168POPC   C4A42942   3.703  26.747   7.222
 3168POPC   C1B42943   3.206  26.603   6.114
 3168POPC   C2B42944   3.169  26.699   6.546
 3168POPC   C3B42945   3.249  26.588   6.957
 3168POPC   C4B42946   3.013  26.467   7.329
 3169POPC   NC342947  38.042  11.245   5.289
 3169POPC   PO442948  38.636  11.012   5.508
 3169POPC   GL142949  38.495  11.308   5.794
 3169POPC   GL242950  38.190  11.179   5.783
 3169POPC   C1A42951  38.599  11.350   6.233
 3169POPC   D2A42952  38.668  11.077   6.609
 3169POPC   C3A42953  38.700  11.314   7.007
 3169POPC   C4A42954  38.492  11.365   7.426
 3169POPC   C1B42955  38.224  10.996   6.192
 3169POPC   C2B42956  38.131  11.039   6.631
 3169POPC   C3B42957  38.298  11.000   7.059
 3169POPC   C4B42958  38.095  10.858   7.456
 3170POPC   NC342959  30.711  30.089   5.361
 3170POPC   PO442960  31.152  29.623   5.610
 3170POPC   GL142961  30.958  29.883   5.812
 3170POPC   GL242962  30.642  29.748   5.753
 3170POPC   C1A42963  30.900  30.066   6.207
 3170POPC   D2A42964  30.634  29.972   6.542
 3170POPC   C3A42965  30.798  29.893   6.963
 3170POPC   C4A42966  30.951  30.162   7.303
 3170POPC   C1B42967  30.426  29.744   6.126
 3170POPC   C2B42968  30.251  29.631   6.526
 3170POPC   C3B42969  30.299  29.800   6.922
 3170POPC   C4B42970  30.458  29.708   7.335
 3171POPC   NC342971  10.272  34.492   5.019
 3171POPC   PO442972  10.720  34.604   5.477
 3171POPC   GL142973  10.572  34.332   5.827
 3171POPC   GL242974  10.834  34.099   5.767
 3171POPC   C1A42975  10.476  34.443   6.287
 3171POPC   D2A42976  10.449  34.764   6.641
 3171POPC   C3A42977  10.583  34.613   7.056
 3171POPC   C4A42978  10.356  34.579   7.462
 3171POPC   C1B42979  10.945  34.246   6.192
 3171POPC   C2B42980  10.808  34.273   6.639
 3171POPC   C3B42981  10.861  34.155   7.038
 3171POPC   C4B42982  10.731  34.245   7.428
 3172POPC   NC342983   9.302  25.652   5.446
 3172POPC   PO442984   8.914  25.082   5.401
 3172POPC   GL142985   8.951  25.036   5.841
 3172POPC   GL242986   9.116  25.355   5.821
 3172POPC   C1A42987   8.836  25.046   6.291
 3172POPC   D2A42988   8.804  25.325   6.670
 3172POPC   C3A42989   8.832  25.104   7.076
 3172POPC   C4A42990   8.594  25.158   7.491
 3172POPC   C1B42991   8.986  25.534   6.194
 3172POPC   C2B42992   9.127  25.764   6.528
 3172POPC   C3B42993   9.149  25.644   6.943
 3172POPC   C4B42994   9.042  25.491   7.346
 3173POPC   NC342995   4.031  30.267   5.451
 3173POPC   PO442996   4.504  29.790   5.374
 3173POPC   GL142997   4.456  30.109   5.677
 3173POPC   GL242998   4.722  30.055   5.851
 3173POPC   C1A42999   4.262  30.134   6.083
 3173POPC   D2A43000   4.297  29.878   6.449
 3173POPC   C3A43001   4.256  30.012   6.837
 3173POPC   C4A43002   4.270  29.942   7.256
 3173POPC   C1B43003   4.578  29.693   6.051
 3173POPC   C2B43004   4.615  29.479   6.441
 3173POPC   C3B43005   4.600  29.615   6.858
 3173POPC   C4B43006   4.563  29.510   7.275
 3174POPC   NC343007  30.171  16.529   5.329
 3174POPC   PO443008  29.846  17.053   5.361
 3174POPC   GL143009  29.992  16.805   5.746
 3174POPC   GL243010  29.814  16.486   5.758
 3174POPC   C1A43011  29.947  16.774   6.207
 3174POPC   D2A43012  29.770  16.854   6.612
 3174POPC   C3A43013  29.952  16.670   6.977
 3174POPC   C4A43014  30.132  16.740   7.401
 3174POPC   C1B43015  29.606  16.398   6.167
 3174POPC   C2B43016  29.449  16.430   6.597
 3174POPC   C3B43017  29.580  16.278   7.016
 3174POPC   C4B43018  29.649  16.574   7.374
 3175POPC   NC343019  13.824  13.293   5.553
 3175POPC   PO443020  13.334  12.836   5.266
 3175POPC   GL143021  13.372  12.954   5.699
 3175POPC   GL243022  13.068  13.163   5.693
 3175POPC   C1A43023  13.512  12.804   6.122
 3175POPC   D2A43024  13.734  12.748   6.527
 3175POPC   C3A43025  13.622  12.861   6.933
 3175POPC   C4A43026  13.666  12.697   7.317
 3175POPC   C1B43027  13.147  13.212   6.144
 3175POPC   C2B43028  13.288  13.057   6.537
 3175POPC   C3B43029  13.245  13.202   6.952
 3175POPC   C4B43030  13.211  12.914   7.275
 3176POPC   NC343031  35.240  13.074   5.687
 3176POPC   PO443032  35.616  12.659   5.359
 3176POPC   GL143033  35.564  12.668   5.799
 3176POPC   GL243034  35.251  12.661   5.998
 3176POPC   C1A43035  35.667  12.797   6.247
 3176POPC   D2A43036  35.484  12.691   6.643
 3176POPC   C3A43037  35.550  12.937   7.000
 3176POPC   C4A43038  35.583  12.723   7.391
 3176POPC   C1B43039  35.201  13.003   6.334
 3176POPC   C2B43040  35.093  13.016   6.771
 3176POPC   C3B43041  35.047  13.030   7.197
 3176POPC   C4B43042  35.228  12.997   7.590
 3177POPC   NC343043   6.419  38.274   5.492
 3177POPC   PO443044   6.812  38.858   5.370
 3177POPC   GL143045   6.654  38.666   5.743
 3177POPC   GL243046   6.881  38.382   5.864
 3177POPC   C1A43047   6.670  38.723   6.179
 3177POPC   D2A43048   6.889  38.634   6.565
 3177POPC   C3A43049   6.853  38.641   7.004
 3177POPC   C4A43050   6.800  38.961   7.293
 3177POPC   C1B43051   6.608  38.232   6.225
 3177POPC   C2B43052   6.464  38.297   6.660
 3177POPC   C3B43053   6.512  38.259   7.108
 3177POPC   C4B43054   6.488  38.237   7.549
 3178POPC   NC343055  23.279  36.107   5.394
 3178POPC   PO443056  23.791  35.810   5.547
 3178POPC   GL143057  23.606  35.888   5.871
 3178POPC   GL243058  23.637  36.224   5.859
 3178POPC   C1A43059  23.542  35.756   6.248
 3178POPC   D2A43060  23.774  35.795   6.604
 3178POPC   C3A43061  23.848  35.910   7.011
 3178POPC   C4A43062  23.537  36.123   7.163
 3178POPC   C1B43063  23.893  36.150   6.248
 3178POPC   C2B43064  23.901  36.310   6.695
 3178POPC   C3B43065  23.952  36.471   7.142
 3178POPC   C4B43066  23.808  36.761   7.503
 3179POPC   NC343067  23.970   5.741   5.240
 3179POPC   PO443068  23.789   6.325   5.523
 3179POPC   GL143069  23.668   6.036   5.812
 3179POPC   GL243070  23.329   5.989   5.759
 3179POPC   C1A43071  23.677   5.903   6.235
 3179POPC   D2A43072  23.801   5.709   6.640
 3179POPC   C3A43073  23.881   5.955   7.011
 3179POPC   C4A43074  23.942   6.236   7.378
 3179POPC   C1B43075  23.284   6.237   6.153
 3179POPC   C2B43076  23.203   6.174   6.585
 3179POPC   C3B43077  23.377   5.954   6.897
 3179POPC   C4B43078  23.471   6.062   7.298
 3180POPC   NC343079  33.542  17.334   5.479
 3180POPC   PO443080  34.106  17.542   5.178
 3180POPC   GL143081  33.988  17.565   5.683
 3180POPC   GL243082  33.993  17.940   5.720
 3180POPC   C1A43083  33.818  17.340   6.137
 3180POPC   D2A43084  33.647  17.428   6.598
 3180POPC   C3A43085  33.876  17.370   7.010
 3180POPC   C4A43086  33.767  17.328   7.481
 3180POPC   C1B43087  33.815  17.844   6.129
 3180POPC   C2B43088  34.041  17.709   6.502
 3180POPC   C3B43089  33.880  17.854   6.908
 3180POPC   C4B43090  34.037  17.740   7.334
 3181POPC   NC343091  40.668  30.288   5.288
 3181POPC   PO443092  40.809  29.623   5.335
 3181POPC   GL143093  40.804  29.795   5.789
 3181POPC   GL243094  40.817  30.162   5.790
 3181POPC   C1A43095  40.956  29.929   6.244
 3181POPC   D2A43096  40.952  29.702   6.625
 3181POPC   C3A43097  40.844  29.908   7.003
 3181POPC   C4A43098  40.907  30.316   7.125
 3181POPC   C1B43099  40.499  30.093   6.132
 3181POPC   C2B43100  40.528  30.098   6.608
 3181POPC   C3B43101  40.381  30.142   7.055
 3181POPC   C4B43102  40.496  30.305   7.455
 3182POPC   NC343103   6.069  22.428   5.590
 3182POPC   PO443104   5.736  21.869   5.475
 3182POPC   GL143105   5.773  22.001   5.898
 3182POPC   GL243106   5.658  22.311   5.896
 3182POPC   C1A43107   6.027  22.136   6.260
 3182POPC   D2A43108   6.169  22.041   6.669
 3182POPC   C3A43109   5.788  21.997   6.925
 3182POPC   C4A43110   5.721  22.021   7.368
 3182POPC   C1B43111   5.686  22.503   6.286
 3182POPC   C2B43112   5.555  22.418   6.709
 3182POPC   C3B43113   5.640  22.468   7.145
 3182POPC   C4B43114   5.512  22.411   7.612
 3183POPC   NC343115  32.340  29.757   5.375
 3183POPC   PO443116  31.802  30.217   5.360
 3183POPC   GL143117  32.012  30.016   5.771
 3183POPC   GL243118  32.051  29.649   5.786
 3183POPC   C1A43119  31.927  29.830   6.234
 3183POPC   D2A43120  31.869  29.685   6.671
 3183POPC   C3A43121  32.150  29.899   6.960
 3183POPC   C4A43122  32.131  30.341   7.072
 3183POPC   C1B43123  32.406  29.770   6.068
 3183POPC   C2B43124  32.424  29.904   6.520
 3183POPC   C3B43125  32.664  29.821   6.924
 3183POPC   C4B43126  32.697  29.447   7.188
 3184POPC   NC343127  32.885  13.646   5.406
 3184POPC   PO443128  33.517  13.741   5.280
 3184POPC   GL143129  33.310  13.624   5.703
 3184POPC   GL243130  33.149  13.922   5.785
 3184POPC   C1A43131  33.093  13.513   6.136
 3184POPC   D2A43132  33.040  13.687   6.590
 3184POPC   C3A43133  32.883  13.554   7.031
 3184POPC   C4A43134  32.962  13.569   7.501
 3184POPC   C1B43135  32.823  13.947   6.109
 3184POPC   C2B43136  32.610  13.972   6.499
 3184POPC   C3B43137  32.776  14.026   6.906
 3184POPC   C4B43138  32.768  14.012   7.361
 3185POPC   NC343139  12.483  19.258   5.373
 3185POPC   PO443140  12.137  18.646   5.476
 3185POPC   GL143141  12.220  19.000   5.794
 3185POPC   GL243142  12.153  19.400   5.762
 3185POPC   C1A43143  12.250  19.104   6.242
 3185POPC   D2A43144  12.022  19.116   6.643
 3185POPC   C3A43145  12.016  18.817   6.961
 3185POPC   C4A43146  12.309  18.864   7.290
 3185POPC   C1B43147  12.316  19.589   6.162
 3185POPC   C2B43148  12.402  19.450   6.604
 3185POPC   C3B43149  12.251  19.454   7.045
 3185POPC   C4B43150  12.352  19.596   7.525
 3186POPC   NC343151  30.056   0.686   5.530
 3186POPC   PO443152  29.924   1.353   5.424
 3186POPC   GL143153  30.083   1.159   5.816
 3186POPC   GL243154  30.350   0.871   5.892
 3186POPC   C1A43155  30.025   1.342   6.205
 3186POPC   D2A43156  30.243   1.352   6.580
 3186POPC   C3A43157  29.955   1.280   6.856
 3186POPC   C4A43158  29.845   1.520   7.214
 3186POPC   C1B43159  30.254   0.894   6.318
 3186POPC   C2B43160  29.819   0.940   6.476
 3186POPC   C3B43161  29.676   0.848   6.872
 3186POPC   C4B43162  29.858   1.007   7.262
 3187POPC   NC343163  43.164  34.269   5.723
 3187POPC   PO443164  43.216  33.811   5.268
 3187POPC   GL143165  43.175  33.670   5.724
 3187POPC   GL243166  42.848  33.738   5.856
 3187POPC   C1A43167  43.231  33.589   6.204
 3187POPC   D2A43168  43.349  33.433   6.671
 3187POPC   C3A43169  43.109  33.546   7.093
 3187POPC   C4A43170  43.273  33.568   7.589
 3187POPC   C1B43171  42.885  33.969   6.248
 3187POPC   C2B43172  43.104  33.887   6.611
 3187POPC   C3B43173  43.125  34.036   6.988
 3187POPC   C4B43174  42.775  34.090   7.252
 3188POPC   NC343175   7.972  36.552   5.569
 3188POPC   PO443176   7.943  35.910   5.371
 3188POPC   GL143177   8.171  36.092   5.740
 3188POPC   GL243178   8.337  35.855   5.976
 3188POPC   C1A43179   8.162  36.290   6.156
 3188POPC   D2A43180   8.298  36.054   6.531
 3188POPC   C3A43181   8.069  36.076   6.905
 3188POPC   C4A43182   7.999  36.256   7.291
 3188POPC   C1B43183   8.669  35.800   6.262
 3188POPC   C2B43184   8.808  35.728   6.662
 3188POPC   C3B43185   8.458  35.744   6.925
 3188POPC   C4B43186   8.354  35.871   7.328
 3189POPC   NC343187  42.619  23.220   5.307
 3189POPC   PO443188  42.202  23.751   5.277
 3189POPC   GL143189  42.104  23.642   5.713
 3189POPC   GL243190  42.312  23.380   5.875
 3189POPC   C1A43191  42.039  23.742   6.168
 3189POPC   D2A43192  42.271  23.736   6.552
 3189POPC   C3A43193  42.024  23.625   6.887
 3189POPC   C4A43194  41.941  23.527   7.332
 3189POPC   C1B43195  42.382  23.265   6.326
 3189POPC   C2B43196  42.430  23.298   6.781
 3189POPC   C3B43197  42.444  23.586   7.153
 3189POPC   C4B43198  42.425  23.442   7.560
 3190POPC   NC343199  12.637  16.694   5.149
 3190POPC   PO443200  11.929  16.871   5.230
 3190POPC   GL143201  11.971  16.835   5.713
 3190POPC   GL243202  12.319  16.828   5.838
 3190POPC   C1A43203  11.933  16.939   6.176
 3190POPC   D2A43204  12.015  16.753   6.576
 3190POPC   C3A43205  11.777  16.910   6.918
 3190POPC   C4A43206  11.865  16.725   7.323
 3190POPC   C1B43207  12.439  17.049   6.247
 3190POPC   C2B43208  12.249  17.188   6.650
 3190POPC   C3B43209  12.265  17.023   7.079
 3190POPC   C4B43210  12.281  17.151   7.526
 3191POPC   NC343211  17.170  20.792   5.388
 3191POPC   PO443212  17.827  20.540   5.380
 3191POPC   GL143213  17.665  20.549   5.830
 3191POPC   GL243214  17.398  20.319   5.700
 3191POPC   C1A43215  17.665  20.791   6.255
 3191POPC   D2A43216  17.580  20.987   6.669
 3191POPC   C3A43217  17.674  20.844   7.068
 3191POPC   C4A43218  17.636  20.456   7.225
 3191POPC   C1B43219  17.204  20.524   6.052
 3191POPC   C2B43220  17.201  20.640   6.484
 3191POPC   C3B43221  17.173  20.749   6.921
 3191POPC   C4B43222  17.266  20.815   7.373
 3192POPC   NC343223   2.577  37.886   5.541
 3192POPC   PO443224   2.938  37.266   5.501
 3192POPC   GL143225   3.039  37.447   5.916
 3192POPC   GL243226   3.069  37.829   5.871
 3192POPC   C1A43227   2.896  37.517   6.365
 3192POPC   D2A43228   2.547  37.573   6.690
 3192POPC   C3A43229   2.613  37.606   7.146
 3192POPC   C4A43230   2.554  37.564   7.604
 3192POPC   C1B43231   3.085  38.113   6.250
 3192POPC   C2B43232   2.836  38.059   6.641
 3192POPC   C3B43233   2.944  38.039   7.076
 3192POPC   C4B43234   2.975  37.840   7.467
 3193POPC   NC343235  27.360   2.830   5.350
 3193POPC   PO443236  27.664   2.369   5.255
 3193POPC   GL143237  27.447   2.394   5.702
 3193POPC   GL243238  27.740   2.281   5.865
 3193POPC   C1A43239  27.366   2.552   6.182
 3193POPC   D2A43240  27.291   2.597   6.685
 3193POPC   C3A43241  27.433   2.917   7.002
 3193POPC   C4A43242  27.349   3.131   7.400
 3193POPC   C1B43243  27.706   2.146   6.306
 3193POPC   C2B43244  27.718   2.318   6.725
 3193POPC   C3B43245  27.819   2.574   7.074
 3193POPC   C4B43246  28.222   2.612   7.293
 3194POPC   NC343247  27.523  40.525   5.584
 3194POPC   PO443248  27.656  39.823   5.533
 3194POPC   GL143249  27.726  39.900   5.935
 3194POPC   GL243250  27.544  40.193   5.973
 3194POPC   C1A43251  27.871  39.940   6.371
 3194POPC   D2A43252  27.898  39.560   6.659
 3194POPC   C3A43253  27.687  39.594   7.055
 3194POPC   C4A43254  27.835  39.735   7.442
 3194POPC   C1B43255  27.337  39.952   6.270
 3194POPC   C2B43256  27.444  39.855   6.662
 3194POPC   C3B43257  27.737  40.080   6.900
 3194POPC   C4B43258  27.524  40.298   7.198
 3195POPC   NC343259  13.133  19.217   5.514
 3195POPC   PO443260  12.704  18.864   5.259
 3195POPC   GL143261  12.739  18.951   5.723
 3195POPC   GL243262  12.651  19.289   5.856
 3195POPC   C1A43263  12.695  18.846   6.169
 3195POPC   D2A43264  12.854  19.007   6.564
 3195POPC   C3A43265  12.688  18.928   6.959
 3195POPC   C4A43266  12.647  19.249   7.269
 3195POPC   C1B43267  12.985  19.284   6.136
 3195POPC   C2B43268  13.281  19.274   6.443
 3195POPC   C3B43269  13.242  19.249   6.875
 3195POPC   C4B43270  13.154  19.277   7.307
 3196POPC   NC343271   0.581   9.603   5.482
 3196POPC   PO443272   1.181   9.589   5.160
 3196POPC   GL143273   1.182   9.708   5.646
 3196POPC   GL243274   1.154  10.072   5.728
 3196POPC   C1A43275   1.311   9.778   6.137
 3196POPC   D2A43276   1.506   9.827   6.588
 3196POPC   C3A43277   1.286   9.749   6.975
 3196POPC   C4A43278   1.457   9.428   7.228
 3196POPC   C1B43279   1.084  10.270   6.145
 3196POPC   C2B43280   1.067  10.090   6.556
 3196POPC   C3B43281   1.081  10.228   6.970
 3196POPC   C4B43282   1.128  10.070   7.384
 3197POPC   NC343283  28.784  37.262   5.336
 3197POPC   PO443284  29.350  36.873   5.401
 3197POPC   GL143285  29.366  36.997   5.794
 3197POPC   GL243286  29.012  36.951   5.881
 3197POPC   C1A43287  29.397  36.787   6.181
 3197POPC   D2A43288  29.103  36.854   6.496
 3197POPC   C3A43289  29.249  36.800   6.883
 3197POPC   C4A43290  29.105  36.896   7.290
 3197POPC   C1B43291  29.104  37.280   6.214
 3197POPC   C2B43292  29.037  37.331   6.702
 3197POPC   C3B43293  28.734  37.194   7.064
 3197POPC   C4B43294  28.733  37.167   7.560
 3198POPC   NC343295  24.860   3.333   5.590
 3198POPC   PO443296  25.363   3.736   5.247
 3198POPC   GL143297  25.297   3.619   5.705
 3198POPC   GL243298  24.982   3.770   5.827
 3198POPC   C1A43299  25.271   3.428   6.151
 3198POPC   D2A43300  25.340   3.510   6.608
 3198POPC   C3A43301  25.180   3.288   6.966
 3198POPC   C4A43302  25.366   3.196   7.343
 3198POPC   C1B43303  24.821   3.710   6.230
 3198POPC   C2B43304  24.999   3.904   6.599
 3198POPC   C3B43305  25.167   3.836   7.024
 3198POPC   C4B43306  25.038   3.600   7.387
 3199POPC   NC343307   2.690  20.111   5.339
 3199POPC   PO443308   2.260  19.619   5.252
 3199POPC   GL143309   2.555  19.711   5.659
 3199POPC   GL243310   2.915  19.774   5.719
 3199POPC   C1A43311   2.633  20.004   6.062
 3199POPC   D2A43312   2.897  20.070   6.418
 3199POPC   C3A43313   2.678  20.151   6.814
 3199POPC   C4A43314   2.622  20.027   7.256
 3199POPC   C1B43315   2.912  19.560   6.130
 3199POPC   C2B43316   2.730  19.604   6.534
 3199POPC   C3B43317   2.704  19.618   6.971
 3199POPC   C4B43318   2.652  19.418   7.380
 3200POPC   NC343319   9.709  31.108   4.884
 3200POPC   PO443320   9.546  30.922   5.475
 3200POPC   GL143321   9.605  30.760   5.859
 3200POPC   GL243322   9.953  30.799   5.846
 3200POPC   C1A43323   9.650  30.653   6.270
 3200POPC   D2A43324   9.768  30.962   6.568
 3200POPC   C3A43325   9.629  30.760   6.890
 3200POPC   C4A43326   9.655  30.798   7.286
 3200POPC   C1B43327  10.148  30.732   6.246
 3200POPC   C2B43328  10.069  30.569   6.670
 3200POPC   C3B43329  10.127  30.655   7.122
 3200POPC   C4B43330  10.015  30.378   7.473
 3201POPC   NC343331   9.712  20.308   5.520
 3201POPC   PO443332   9.854  19.731   5.428
 3201POPC   GL143333   9.467  19.887   5.690
 3201POPC   GL243334   9.750  19.987   5.908
 3201POPC   C1A43335   9.323  20.108   6.107
 3201POPC   D2A43336   9.611  20.007   6.447
 3201POPC   C3A43337   9.541  20.056   6.909
 3201POPC   C4A43338   9.877  19.903   7.168
 3201POPC   C1B43339   9.972  19.701   6.143
 3201POPC   C2B43340  10.035  19.646   6.549
 3201POPC   C3B43341   9.988  19.432   6.924
 3201POPC   C4B43342  10.209  19.481   7.266
 3202POPC   NC343343  18.228  29.528   5.501
 3202POPC   PO443344  18.047  30.153   5.533
 3202POPC   GL143345  18.032  30.097   5.964
 3202POPC   GL243346  17.974  29.746   5.896
 3202POPC   C1A43347  18.210  30.082   6.403
 3202POPC   D2A43348  18.387  29.796   6.754
 3202POPC   C3A43349  18.405  29.978   7.184
 3202POPC   C4A43350  18.505  30.366   7.423
 3202POPC   C1B43351  18.212  29.596   6.244
 3202POPC   C2B43352  18.111  29.376   6.606
 3202POPC   C3B43353  18.062  29.472   7.020
 3202POPC   C4B43354  17.974  29.737   7.345
 3203POPC   NC343355   4.473  24.654   5.527
 3203POPC   PO443356   4.153  25.319   5.478
 3203POPC   GL143357   4.428  25.331   5.811
 3203POPC   GL243358   4.576  25.631   5.903
 3203POPC   C1A43359   4.502  25.083   6.168
 3203POPC   D2A43360   4.461  25.264   6.555
 3203POPC   C3A43361   4.450  24.985   6.845
 3203POPC   C4A43362   4.277  24.996   7.222
 3203POPC   C1B43363   4.613  25.823   6.315
 3203POPC   C2B43364   4.529  25.749   6.745
 3203POPC   C3B43365   4.524  25.440   7.078
 3203POPC   C4B43366   4.631  25.506   7.569
 3204POPC   NC343367   5.720  40.923   5.249
 3204POPC   PO443368   6.158  40.424   5.469
 3204POPC   GL143369   5.954  40.628   5.865
 3204POPC   GL243370   5.687  40.890   5.787
 3204POPC   C1A43371   5.953  40.581   6.348
 3204POPC   D2A43372   5.862  40.843   6.688
 3204POPC   C3A43373   5.945  40.881   7.092
 3204POPC   C4A43374   6.024  40.916   7.515
 3204POPC   C1B43375   5.498  40.732   6.185
 3204POPC   C2B43376   5.357  40.663   6.626
 3204POPC   C3B43377   5.427  40.830   7.041
 3204POPC   C4B43378   5.568  40.731   7.444
 3205POPC   NC343379  29.575  24.352   5.457
 3205POPC   PO443380  28.894  24.394   5.314
 3205POPC   GL143381  29.084  24.559   5.724
 3205POPC   GL243382  28.858  24.737   5.952
 3205POPC   C1A43383  29.232  24.328   6.098
 3205POPC   D2A43384  29.087  24.183   6.526
 3205POPC   C3A43385  29.368  24.248   6.874
 3205POPC   C4A43386  29.197  24.408   7.234
 3205POPC   C1B43387  29.051  24.703   6.370
 3205POPC   C2B43388  29.121  24.706   6.806
 3205POPC   C3B43389  28.922  24.807   7.173
 3205POPC   C4B43390  29.091  24.819   7.611
 3206POPC   NC343391  19.131  42.713   5.328
 3206POPC   PO443392  19.319  42.106   5.461
 3206POPC   GL143393  19.043  42.326   5.795
 3206POPC   GL243394  19.117  42.692   5.856
 3206POPC   C1A43395  18.870  42.208   6.235
 3206POPC   D2A43396  19.072  42.311   6.621
 3206POPC   C3A43397  18.902  42.141   6.995
 3206POPC   C4A43398  19.058  42.030   7.340
 3206POPC   C1B43399  18.916  42.699   6.273
 3206POPC   C2B43400  18.763  42.708   6.707
 3206POPC   C3B43401  19.016  42.629   7.047
 3206POPC   C4B43402  18.900  42.482   7.435
 3207POPC   NC343403  26.372  42.552   5.110
 3207POPC   PO443404  25.903  43.112   5.281
 3207POPC   GL143405  25.972  43.187   5.731
 3207POPC   GL243406  25.680  43.376   5.844
 3207POPC   C1A43407  25.861  43.009   6.157
 3207POPC   D2A43408  25.650  42.743   6.455
 3207POPC   C3A43409  25.797  42.757   6.917
 3207POPC   C4A43410  26.068  43.063   7.209
 3207POPC   C1B43411  26.049  43.477   6.164
 3207POPC   C2B43412  26.177  43.553   6.593
 3207POPC   C3B43413  25.988  43.526   6.975
 3207POPC   C4B43414  25.747  43.707   7.273
 3208POPC   NC343415  27.209  13.439   5.582
 3208POPC   PO443416  26.948  14.008   5.430
 3208POPC   GL143417  26.842  13.773   5.821
 3208POPC   GL243418  26.778  13.436   5.894
 3208POPC   C1A43419  26.633  13.795   6.237
 3208POPC   D2A43420  26.354  13.784   6.594
 3208POPC   C3A43421  26.598  13.718   6.952
 3208POPC   C4A43422  26.898  13.832   7.231
 3208POPC   C1B43423  26.865  13.155   6.188
 3208POPC   C2B43424  26.922  13.225   6.590
 3208POPC   C3B43425  26.999  13.361   6.982
 3208POPC   C4B43426  26.937  13.355   7.407
 3209POPC   NC343427  35.193   6.001   5.353
 3209POPC   PO443428  35.442   5.517   5.808
 3209POPC   GL143429  35.209   5.786   6.021
 3209POPC   GL243430  35.144   6.092   5.851
 3209POPC   C1A43431  35.457   5.949   6.358
 3209POPC   D2A43432  35.762   6.053   6.650
 3209POPC   C3A43433  35.563   5.722   6.885
 3209POPC   C4A43434  35.300   5.815   7.223
 3209POPC   C1B43435  35.181   6.339   6.222
 3209POPC   C2B43436  35.076   6.210   6.619
 3209POPC   C3B43437  35.135   6.288   7.030
 3209POPC   C4B43438  34.964   6.145   7.408
 3210POPC   NC343439  41.367   0.239   5.644
 3210POPC   PO443440  40.764   0.632   5.489
 3210POPC   GL143441  40.848   0.286   5.798
 3210POPC   GL243442  40.574   0.047   5.807
 3210POPC   C1A43443  40.977   0.395   6.241
 3210POPC   D2A43444  40.927   0.785   6.511
 3210POPC   C3A43445  40.953   0.740   6.955
 3210POPC   C4A43446  40.610   0.627   7.191
 3210POPC   C1B43447  40.458   0.347   6.135
 3210POPC   C2B43448  40.394   0.411   6.578
 3210POPC   C3B43449  40.451   0.167   6.984
 3210POPC   C4B43450  40.837   0.162   7.221
 3211POPC   NC343451  23.064  15.136   5.320
 3211POPC   PO443452  22.435  15.147   5.355
 3211POPC   GL143453  22.756  15.186   5.743
 3211POPC   GL243454  23.116  15.103   5.839
 3211POPC   C1A43455  22.791  15.117   6.218
 3211POPC   D2A43456  22.719  15.294   6.631
 3211POPC   C3A43457  22.806  15.059   7.009
 3211POPC   C4A43458  22.429  15.083   7.180
 3211POPC   C1B43459  23.183  14.787   6.191
 3211POPC   C2B43460  23.267  14.786   6.664
 3211POPC   C3B43461  23.303  14.882   7.111
 3211POPC   C4B43462  23.187  15.295   7.301
 3212POPC   NC343463  34.342  14.776   5.639
 3212POPC   PO443464  33.751  14.565   5.293
 3212POPC   GL143465  33.688  14.520   5.777
 3212POPC   GL243466  33.914  14.795   5.914
 3212POPC   C1A43467  33.639  14.438   6.261
 3212POPC   D2A43468  33.831  14.413   6.703
 3212POPC   C3A43469  33.594  14.428   7.117
 3212POPC   C4A43470  33.588  14.119   7.482
 3212POPC   C1B43471  34.111  14.401   6.076
 3212POPC   C2B43472  34.287  14.291   6.448
 3212POPC   C3B43473  34.298  14.261   6.908
 3212POPC   C4B43474  34.091  14.458   7.220
 3213POPC   NC343475  36.089   8.530   5.303
 3213POPC   PO443476  36.027   7.831   5.380
 3213POPC   GL143477  36.224   8.063   5.736
 3213POPC   GL243478  36.016   8.349   5.763
 3213POPC   C1A43479  36.252   8.212   6.197
 3213POPC   D2A43480  36.463   8.222   6.599
 3213POPC   C3A43481  36.246   7.964   6.874
 3213POPC   C4A43482  36.129   8.083   7.225
 3213POPC   C1B43483  35.914   8.598   6.091
 3213POPC   C2B43484  35.748   8.536   6.503
 3213POPC   C3B43485  35.947   8.409   6.889
 3213POPC   C4B43486  35.763   8.424   7.308
 3214POPC   NC343487  27.392  17.659   5.642
 3214POPC   PO443488  27.657  17.106   5.346
 3214POPC   GL143489  27.614  17.178   5.800
 3214POPC   GL243490  27.794  17.498   5.900
 3214POPC   C1A43491  27.488  17.312   6.237
 3214POPC   D2A43492  27.542  17.512   6.635
 3214POPC   C3A43493  27.385  17.317   7.004
 3214POPC   C4A43494  27.566  17.084   7.256
 3214POPC   C1B43495  27.667  17.813   6.220
 3214POPC   C2B43496  27.534  18.031   6.587
 3214POPC   C3B43497  27.500  17.851   7.011
 3214POPC   C4B43498  27.658  17.574   7.345
 3215POPC   NC343499   2.475  40.183   5.478
 3215POPC   PO443500   3.177  39.908   5.460
 3215POPC   GL143501   2.844  39.941   5.761
 3215POPC   GL243502   2.848  40.220   5.946
 3215POPC   C1A43503   2.571  39.864   6.138
 3215POPC   D2A43504   2.722  39.815   6.550
 3215POPC   C3A43505   2.531  39.951   6.926
 3215POPC   C4A43506   2.715  39.806   7.295
 3215POPC   C1B43507   3.100  40.200   6.321
 3215POPC   C2B43508   3.198  40.466   6.680
 3215POPC   C3B43509   3.194  40.244   7.079
 3215POPC   C4B43510   2.917  40.240   7.450
 3216POPC   NC343511  42.758  33.662   5.356
 3216POPC   PO443512  42.339  34.291   5.263
 3216POPC   GL143513  42.397  33.868   5.640
 3216POPC   GL243514  42.109  33.635   5.741
 3216POPC   C1A43515  42.406  33.838   6.117
 3216POPC   D2A43516  42.461  34.095   6.508
 3216POPC   C3A43517  42.603  33.833   6.854
 3216POPC   C4A43518  42.520  33.630   7.270
 3216POPC   C1B43519  41.923  33.677   6.162
 3216POPC   C2B43520  42.102  33.712   6.605
 3216POPC   C3B43521  42.123  33.891   7.048
 3216POPC   C4B43522  42.055  33.716   7.507
 3217POPC   NC343523   2.992  31.434   5.415
 3217POPC   PO443524   2.424  31.904   5.617
 3217POPC   GL143525   2.763  31.698   5.800
 3217POPC   GL243526   2.768  31.334   5.868
 3217POPC   C1A43527   2.979  31.711   6.199
 3217POPC   D2A43528   3.208  31.542   6.578
 3217POPC   C3A43529   3.028  31.501   6.953
 3217POPC   C4A43530   2.800  31.481   7.338
 3217POPC   C1B43531   3.042  31.193   6.235
 3217POPC   C2B43532   2.921  31.050   6.673
 3217POPC   C3B43533   2.926  31.022   7.136
 3217POPC   C4B43534   2.878  31.018   7.593
 3218POPC   NC343535  10.876   4.737   5.374
 3218POPC   PO443536  10.540   5.289   5.638
 3218POPC   GL143537  10.617   5.214   6.002
 3218POPC   GL243538  10.269   5.257   6.064
 3218POPC   C1A43539  10.656   5.280   6.416
 3218POPC   D2A43540  10.433   5.360   6.740
 3218POPC   C3A43541  10.690   5.194   7.029
 3218POPC   C4A43542  10.620   5.154   7.446
 3218POPC   C1B43543  10.285   4.905   6.298
 3218POPC   C2B43544  10.121   4.955   6.672
 3218POPC   C3B43545  10.200   5.056   7.086
 3218POPC   C4B43546  10.028   4.656   7.187
 3219POPC   NC343547  28.270  36.405   5.367
 3219POPC   PO443548  28.253  35.749   5.439
 3219POPC   GL143549  28.290  36.092   5.777
 3219POPC   GL243550  28.617  36.315   5.749
 3219POPC   C1A43551  28.159  36.136   6.229
 3219POPC   D2A43552  28.131  35.906   6.677
 3219POPC   C3A43553  28.272  36.179   7.032
 3219POPC   C4A43554  28.259  36.409   7.440
 3219POPC   C1B43555  28.693  36.065   6.108
 3219POPC   C2B43556  28.574  36.086   6.524
 3219POPC   C3B43557  28.731  35.987   6.939
 3219POPC   C4B43558  28.659  36.125   7.365
 3220POPC   NC343559  35.179  26.463   5.461
 3220POPC   PO443560  35.556  27.010   5.481
 3220POPC   GL143561  35.472  26.675   5.852
 3220POPC   GL243562  35.107  26.692   5.904
 3220POPC   C1A43563  35.466  26.661   6.342
 3220POPC   D2A43564  35.547  27.011   6.668
 3220POPC   C3A43565  35.508  26.883   7.103
 3220POPC   C4A43566  35.452  26.513   7.355
 3220POPC   C1B43567  34.990  26.793   6.286
 3220POPC   C2B43568  35.095  26.792   6.706
 3220POPC   C3B43569  35.027  26.711   7.093
 3220POPC   C4B43570  35.032  26.972   7.383
 3221POPC   NC343571   4.329  13.951   5.413
 3221POPC   PO443572   4.153  13.299   5.344
 3221POPC   GL143573   4.359  13.440   5.709
 3221POPC   GL243574   4.028  13.488   5.867
 3221POPC   C1A43575   4.532  13.501   6.144
 3221POPC   D2A43576   4.508  13.429   6.601
 3221POPC   C3A43577   4.503  13.602   7.048
 3221POPC   C4A43578   4.635  13.953   7.314
 3221POPC   C1B43579   4.072  13.331   6.318
 3221POPC   C2B43580   4.023  13.377   6.777
 3221POPC   C3B43581   3.972  13.559   7.198
 3221POPC   C4B43582   3.875  13.417   7.626
 3222POPC   NC343583  17.488  11.524   5.318
 3222POPC   PO443584  17.680  10.883   5.393
 3222POPC   GL143585  17.524  11.144   5.738
 3222POPC   GL243586  17.669  11.473   5.816
 3222POPC   C1A43587  17.478  11.184   6.211
 3222POPC   D2A43588  17.697  10.989   6.566
 3222POPC   C3A43589  17.664  11.191   6.970
 3222POPC   C4A43590  17.326  11.258   7.301
 3222POPC   C1B43591  17.583  11.681   6.244
 3222POPC   C2B43592  17.433  11.553   6.676
 3222POPC   C3B43593  17.554  11.685   7.129
 3222POPC   C4B43594  17.485  11.683   7.619
 3223POPC   NC343595  19.082  41.723   5.454
 3223POPC   PO443596  18.673  41.292   5.485
 3223POPC   GL143597  18.886  41.490   5.873
 3223POPC   GL243598  18.827  41.858   5.874
 3223POPC   C1A43599  19.055  41.486   6.315
 3223POPC   D2A43600  19.038  41.778   6.677
 3223POPC   C3A43601  19.001  41.588   7.124
 3223POPC   C4A43602  18.960  41.635   7.621
 3223POPC   C1B43603  19.250  41.903   6.100
 3223POPC   C2B43604  19.472  41.987   6.501
 3223POPC   C3B43605  19.425  42.089   6.954
 3223POPC   C4B43606  19.547  41.918   7.379
 3224POPC   NC343607  28.855  41.456   5.345
 3224POPC   PO443608  29.566  41.657   5.319
 3224POPC   GL143609  29.366  41.529   5.752
 3224POPC   GL243610  29.245  41.856   5.903
 3224POPC   C1A43611  29.264  41.501   6.247
 3224POPC   D2A43612  29.335  41.877   6.553
 3224POPC   C3A43613  29.368  41.741   6.993
 3224POPC   C4A43614  29.149  41.388   7.113
 3224POPC   C1B43615  28.880  41.864   6.154
 3224POPC   C2B43616  28.784  41.729   6.553
 3224POPC   C3B43617  28.890  41.913   6.949
 3224POPC   C4B43618  28.900  41.801   7.392
 3225POPC   NC343619   6.927   7.699   4.922
 3225POPC   PO443620   7.464   7.679   5.415
 3225POPC   GL143621   7.387   7.420   5.750
 3225POPC   GL243622   7.676   7.539   5.911
 3225POPC   C1A43623   7.326   7.283   6.188
 3225POPC   D2A43624   7.302   7.617   6.489
 3225POPC   C3A43625   7.197   7.502   6.901
 3225POPC   C4A43626   7.110   7.630   7.283
 3225POPC   C1B43627   7.808   7.486   6.330
 3225POPC   C2B43628   7.688   7.441   6.768
 3225POPC   C3B43629   7.625   7.474   7.232
 3225POPC   C4B43630   7.794   7.586   7.645
 3226POPC   NC343631  19.920  14.654   5.380
 3226POPC   PO443632  19.598  14.170   5.461
 3226POPC   GL143633  19.934  14.340   5.802
 3226POPC   GL243634  19.852  14.680   5.911
 3226POPC   C1A43635  20.250  14.485   6.170
 3226POPC   D2A43636  20.245  14.673   6.619
 3226POPC   C3A43637  20.133  14.387   6.969
 3226POPC   C4A43638  20.054  14.515   7.401
 3226POPC   C1B43639  19.784  14.626   6.390
 3226POPC   C2B43640  19.711  14.645   6.875
 3226POPC   C3B43641  19.546  14.366   7.232
 3226POPC   C4B43642  19.216  14.363   7.565
 3227POPC   NC343643  27.621  35.183   5.426
 3227POPC   PO443644  27.256  35.773   5.514
 3227POPC   GL143645  27.383  35.459   5.830
 3227POPC   GL243646  27.572  35.135   5.936
 3227POPC   C1A43647  27.478  35.533   6.259
 3227POPC   D2A43648  27.757  35.567   6.577
 3227POPC   C3A43649  27.755  35.490   7.006
 3227POPC   C4A43650  28.021  35.736   7.258
 3227POPC   C1B43651  27.755  35.080   6.336
 3227POPC   C2B43652  27.505  35.106   6.708
 3227POPC   C3B43653  27.350  35.167   7.121
 3227POPC   C4B43654  27.659  35.082   7.441
 3228POPC   NC343655  29.579  32.232   5.448
 3228POPC   PO443656  30.307  32.113   5.472
 3228POPC   GL143657  30.010  32.134   5.846
 3228POPC   GL243658  29.681  31.929   5.865
 3228POPC   C1A43659  30.104  32.200   6.311
 3228POPC   D2A43660  30.341  32.095   6.724
 3228POPC   C3A43661  30.069  32.130   7.073
 3228POPC   C4A43662  29.629  31.982   7.117
 3228POPC   C1B43663  29.565  32.251   6.182
 3228POPC   C2B43664  29.600  32.433   6.622
 3228POPC   C3B43665  29.670  32.504   7.088
 3228POPC   C4B43666  29.508  32.238   7.523
 3229POPC   NC343667   6.356   1.613   5.534
 3229POPC   PO443668   6.801   2.200   5.509
 3229POPC   GL143669   6.642   1.956   5.843
 3229POPC   GL243670   6.860   1.682   5.940
 3229POPC   C1A43671   6.709   1.981   6.294
 3229POPC   D2A43672   6.494   2.044   6.643
 3229POPC   C3A43673   6.665   1.875   6.976
 3229POPC   C4A43674   6.456   2.162   7.203
 3229POPC   C1B43675   6.460   1.534   6.177
 3229POPC   C2B43676   6.236   1.594   6.591
 3229POPC   C3B43677   6.287   1.491   7.027
 3229POPC   C4B43678   6.425   1.714   7.424
 3230POPC   NC343679   8.492  44.543   5.438
 3230POPC   PO443680   8.034   0.063   5.356
 3230POPC   GL143681   8.230  44.867   5.765
 3230POPC   GL243682   8.310  44.516   5.917
 3230POPC   C1A43683   8.299  44.996   6.208
 3230POPC   D2A43684   8.117  44.921   6.627
 3230POPC   C3A43685   8.299  44.976   7.061
 3230POPC   C4A43686   8.033  44.956   7.472
 3230POPC   C1B43687   8.590  44.185   6.171
 3230POPC   C2B43688   8.703  44.289   6.617
 3230POPC   C3B43689   8.345  44.434   6.881
 3230POPC   C4B43690   8.328  44.525   7.316
 3231POPC   NC343691  35.584  22.435   4.888
 3231POPC   PO443692  35.324  21.978   5.377
 3231POPC   GL143693  35.239  22.068   5.831
 3231POPC   GL243694  34.945  21.842   5.936
 3231POPC   C1A43695  35.510  22.201   6.173
 3231POPC   D2A43696  35.496  22.506   6.493
 3231POPC   C3A43697  35.735  22.508   6.877
 3231POPC   C4A43698  35.567  22.347   7.242
 3231POPC   C1B43699  35.240  21.763   6.285
 3231POPC   C2B43700  35.353  21.996   6.685
 3231POPC   C3B43701  35.279  21.927   7.160
 3231POPC   C4B43702  35.206  21.699   7.616
 3232POPC   NC343703  37.372  35.318   5.329
 3232POPC   PO443704  37.976  35.370   5.363
 3232POPC   GL143705  37.749  35.228   5.758
 3232POPC   GL243706  37.436  35.423   5.870
 3232POPC   C1A43707  37.626  35.079   6.200
 3232POPC   D2A43708  37.382  35.109   6.577
 3232POPC   C3A43709  37.545  35.099   6.962
 3232POPC   C4A43710  37.437  35.385   7.302
 3232POPC   C1B43711  37.397  35.552   6.337
 3232POPC   C2B43712  37.359  35.585   6.821
 3232POPC   C3B43713  37.253  35.833   7.230
 3232POPC   C4B43714  37.329  35.716   7.694
 3233POPC   NC343715  22.241  23.415   5.394
 3233POPC   PO443716  21.954  22.856   5.251
 3233POPC   GL143717  22.043  23.039   5.686
 3233POPC   GL243718  21.768  23.210   5.816
 3233POPC   C1A43719  22.130  23.097   6.183
 3233POPC   D2A43720  22.240  22.969   6.629
 3233POPC   C3A43721  22.120  23.063   7.061
 3233POPC   C4A43722  22.454  23.037   7.391
 3233POPC   C1B43723  21.799  22.761   6.020
 3233POPC   C2B43724  21.828  22.716   6.467
 3233POPC   C3B43725  21.904  22.618   6.898
 3233POPC   C4B43726  21.927  22.661   7.348
 3234POPC   NC343727  35.288  34.552   5.302
 3234POPC   PO443728  35.126  35.189   5.167
 3234POPC   GL143729  35.277  34.861   5.698
 3234POPC   GL243730  35.373  34.530   5.813
 3234POPC   C1A43731  35.043  34.733   6.144
 3234POPC   D2A43732  35.229  34.854   6.591
 3234POPC   C3A43733  35.220  34.756   7.042
 3234POPC   C4A43734  35.203  34.994   7.439
 3234POPC   C1B43735  35.480  34.518   6.286
 3234POPC   C2B43736  35.356  34.341   6.718
 3234POPC   C3B43737  35.443  34.290   7.183
 3234POPC   C4B43738  35.803  34.268   7.488
 3235POPC   NC343739  20.887  42.308   5.311
 3235POPC   PO443740  20.300  42.165   5.274
 3235POPC   GL143741  20.356  42.468   5.636
 3235POPC   GL243742  20.708  42.551   5.755
 3235POPC   C1A43743  20.328  42.620   6.084
 3235POPC   D2A43744  20.280  42.879   6.468
 3235POPC   C3A43745  20.277  42.696   6.898
 3235POPC   C4A43746  20.433  42.362   7.164
 3235POPC   C1B43747  20.789  42.450   6.223
 3235POPC   C2B43748  20.633  42.366   6.663
 3235POPC   C3B43749  20.929  42.347   7.027
 3235POPC   C4B43750  21.150  42.509   7.403
 3236POPC   NC343751  31.738  43.517   5.674
 3236POPC   PO443752  31.410  44.082   5.447
 3236POPC   GL143753  31.507  43.938   5.892
 3236POPC   GL243754  31.308  43.655   5.941
 3236POPC   C1A43755  31.568  43.877   6.360
 3236POPC   D2A43756  31.317  44.085   6.676
 3236POPC   C3A43757  31.524  44.226   7.032
 3236POPC   C4A43758  31.654  43.826   7.190
 3236POPC   C1B43759  31.081  43.771   6.322
 3236POPC   C2B43760  31.094  43.585   6.711
 3236POPC   C3B43761  31.383  43.410   6.978
 3236POPC   C4B43762  31.667  43.152   7.229
 3237POPC   NC343763   7.481  21.717   5.462
 3237POPC   PO443764   7.169  21.128   5.378
 3237POPC   GL143765   7.348  21.316   5.769
 3237POPC   GL243766   7.313  20.987   5.876
 3237POPC   C1A43767   7.477  21.635   6.137
 3237POPC   D2A43768   7.446  21.818   6.562
 3237POPC   C3A43769   7.338  21.700   6.991
 3237POPC   C4A43770   7.539  21.650   7.397
 3237POPC   C1B43771   7.623  21.147   6.194
 3237POPC   C2B43772   7.457  21.296   6.587
 3237POPC   C3B43773   7.338  21.192   7.015
 3237POPC   C4B43774   7.671  21.086   7.261
 3238POPC   NC343775  43.378  20.484   5.308
 3238POPC   PO443776  42.811  20.735   5.469
 3238POPC   GL143777  43.102  20.576   5.753
 3238POPC   GL243778  42.976  20.284   5.895
 3238POPC   C1A43779  43.175  20.792   6.149
 3238POPC   D2A43780  43.224  21.096   6.483
 3238POPC   C3A43781  43.318  20.917   6.869
 3238POPC   C4A43782  43.142  20.622   7.119
 3238POPC   C1B43783  43.322  20.285   6.142
 3238POPC   C2B43784  43.394  20.419   6.564
 3238POPC   C3B43785  43.312  20.172   6.938
 3238POPC   C4B43786  43.405  20.272   7.372
 3239POPC   NC343787  39.799  44.487   5.324
 3239POPC   PO443788  40.311  44.878   5.395
 3239POPC   GL143789  40.161  44.742   5.800
 3239POPC   GL243790  39.828  44.578   5.817
 3239POPC   C1A43791  40.268  44.872   6.226
 3239POPC   D2A43792  40.078  44.999   6.628
 3239POPC   C3A43793  40.182  44.711   6.940
 3239POPC   C4A43794  40.109  44.541   7.338
 3239POPC   C1B43795  39.781  44.752   6.217
 3239POPC   C2B43796  39.861  44.519   6.589
 3239POPC   C3B43797  39.685  44.554   6.998
 3239POPC   C4B43798  39.409  44.769   7.300
 3240POPC   NC343799  37.403  11.593   5.445
 3240POPC   PO443800  37.799  10.883   5.437
 3240POPC   GL143801  37.698  11.240   5.701
 3240POPC   GL243802  37.394  11.142   5.837
 3240POPC   C1A43803  37.857  11.381   6.116
 3240POPC   D2A43804  37.656  11.332   6.520
 3240POPC   C3A43805  37.861  11.417   6.902
 3240POPC   C4A43806  37.997  11.330   7.288
 3240POPC   C1B43807  37.366  11.537   6.103
 3240POPC   C2B43808  37.264  11.667   6.526
 3240POPC   C3B43809  37.440  11.694   6.943
 3240POPC   C4B43810  37.638  11.712   7.318
 3241POPC   NC343811  33.800  14.085   5.194
 3241POPC   PO443812  34.273  13.686   5.385
 3241POPC   GL143813  34.064  13.932   5.756
 3241POPC   GL243814  33.695  13.947   5.756
 3241POPC   C1A43815  33.925  13.961   6.227
 3241POPC   D2A43816  34.037  13.906   6.658
 3241POPC   C3A43817  33.792  13.956   7.013
 3241POPC   C4A43818  33.922  13.576   7.169
 3241POPC   C1B43819  33.643  13.560   6.085
 3241POPC   C2B43820  33.746  13.484   6.541
 3241POPC   C3B43821  33.455  13.534   6.895
 3241POPC   C4B43822  33.436  13.610   7.327
 3242POPC   NC343823  15.726  35.306   5.106
 3242POPC   PO443824  16.106  35.605   5.597
 3242POPC   GL143825  16.113  35.291   5.874
 3242POPC   GL243826  15.838  35.103   5.745
 3242POPC   C1A43827  16.118  35.411   6.301
 3242POPC   D2A43828  15.893  35.664   6.615
 3242POPC   C3A43829  16.003  35.484   6.995
 3242POPC   C4A43830  16.032  35.326   7.386
 3242POPC   C1B43831  15.671  35.105   6.166
 3242POPC   C2B43832  15.685  35.184   6.607
 3242POPC   C3B43833  15.730  35.044   7.021
 3242POPC   C4B43834  15.593  35.002   7.418
 3243POPC   NC343835  10.951  38.707   5.378
 3243POPC   PO443836  10.616  39.338   5.459
 3243POPC   GL143837  10.847  39.077   5.724
 3243POPC   GL243838  10.564  38.817   5.687
 3243POPC   C1A43839  10.921  39.228   6.141
 3243POPC   D2A43840  10.675  39.420   6.461
 3243POPC   C3A43841  10.759  39.236   6.830
 3243POPC   C4A43842  10.622  39.186   7.223
 3243POPC   C1B43843  10.467  38.991   6.099
 3243POPC   C2B43844  10.321  39.008   6.507
 3243POPC   C3B43845  10.242  39.153   6.875
 3243POPC   C4B43846  10.110  39.147   7.269
 3244POPC   NC343847  20.802  24.388   5.502
 3244POPC   PO443848  20.239  24.760   5.461
 3244POPC   GL143849  20.426  24.569   5.870
 3244POPC   GL243850  20.766  24.379   5.994
 3244POPC   C1A43851  20.577  24.725   6.295
 3244POPC   D2A43852  20.743  24.866   6.681
 3244POPC   C3A43853  20.548  24.610   6.969
 3244POPC   C4A43854  20.404  24.797   7.309
 3244POPC   C1B43855  20.491  24.192   6.300
 3244POPC   C2B43856  20.732  24.180   6.653
 3244POPC   C3B43857  21.027  24.452   6.862
 3244POPC   C4B43858  20.967  24.537   7.273
 3245POPC   NC343859   3.824   2.693   5.243
 3245POPC   PO443860   4.311   2.390   5.534
 3245POPC   GL143861   4.304   2.667   5.881
 3245POPC   GL243862   4.321   3.034   5.872
 3245POPC   C1A43863   4.280   2.626   6.322
 3245POPC   D2A43864   4.515   2.672   6.688
 3245POPC   C3A43865   4.253   2.554   7.019
 3245POPC   C4A43866   4.408   2.586   7.436
 3245POPC   C1B43867   4.191   3.132   6.284
 3245POPC   C2B43868   4.188   3.048   6.772
 3245POPC   C3B43869   4.461   3.010   7.153
 3245POPC   C4B43870   4.559   3.038   7.616
 3246POPC   NC343871  10.956   1.356   5.327
 3246POPC   PO443872  11.622   1.377   5.526
 3246POPC   GL143873  11.302   1.244   5.861
 3246POPC   GL243874  11.015   1.486   5.833
 3246POPC   C1A43875  11.316   0.948   6.262
 3246POPC   D2A43876  11.533   0.870   6.682
 3246POPC   C3A43877  11.472   1.183   7.013
 3246POPC   C4A43878  11.227   1.118   7.340
 3246POPC   C1B43879  10.957   1.319   6.262
 3246POPC   C2B43880  11.054   1.231   6.710
 3246POPC   C3B43881  11.092   1.527   7.078
 3246POPC   C4B43882  11.261   1.580   7.536
 3247POPC   NC343883  28.635  11.244   5.115
 3247POPC   PO443884  29.263  11.431   5.228
 3247POPC   GL143885  29.351  11.354   5.673
 3247POPC   GL243886  29.024  11.503   5.722
 3247POPC   C1A43887  29.438  11.176   6.122
 3247POPC   D2A43888  29.454  10.988   6.583
 3247POPC   C3A43889  29.326  11.214   6.999
 3247POPC   C4A43890  29.216  11.173   7.450
 3247POPC   C1B43891  28.960  11.353   6.140
 3247POPC   C2B43892  29.000  11.240   6.582
 3247POPC   C3B43893  28.783  11.180   7.006
 3247POPC   C4B43894  28.773  11.410   7.421
 3248POPC   NC343895  25.520   0.247   5.412
 3248POPC   PO443896  25.670  44.624   5.473
 3248POPC   GL143897  25.436  44.846   5.818
 3248POPC   GL243898  25.088  44.696   5.868
 3248POPC   C1A43899  25.419  44.750   6.282
 3248POPC   D2A43900  25.499  44.391   6.533
 3248POPC   C3A43901  25.370  44.371   6.918
 3248POPC   C4A43902  25.409  44.791   7.085
 3248POPC   C1B43903  25.038  44.429   6.258
 3248POPC   C2B43904  25.038  44.674   6.658
 3248POPC   C3B43905  24.937  44.585   7.106
 3248POPC   C4B43906  25.083  44.471   7.536
 3249POPC   NC343907  24.810  23.496   5.456
 3249POPC   PO443908  24.166  23.888   5.645
 3249POPC   GL143909  24.437  23.998   5.963
 3249POPC   GL243910  24.632  23.726   5.881
 3249POPC   C1A43911  24.504  23.844   6.408
 3249POPC   D2A43912  24.244  23.586   6.701
 3249POPC   C3A43913  24.252  23.823   7.073
 3249POPC   C4A43914  24.558  24.106   7.225
 3249POPC   C1B43915  24.692  23.424   6.196
 3249POPC   C2B43916  24.649  23.260   6.600
 3249POPC   C3B43917  24.656  23.473   7.001
 3249POPC   C4B43918  24.944  23.463   7.317
 3250POPC   NC343919  37.170  10.789   5.463
 3250POPC   PO443920  36.930  11.373   5.369
 3250POPC   GL143921  36.886  11.103   5.744
 3250POPC   GL243922  36.572  11.013   5.870
 3250POPC   C1A43923  36.986  11.197   6.175
 3250POPC   D2A43924  36.888  11.313   6.599
 3250POPC   C3A43925  37.238  11.244   6.868
 3250POPC   C4A43926  37.286  11.331   7.307
 3250POPC   C1B43927  36.612  10.894   6.337
 3250POPC   C2B43928  36.597  10.930   6.790
 3250POPC   C3B43929  36.774  11.191   7.114
 3250POPC   C4B43930  36.870  11.112   7.553
 3251POPC   NC343931  28.211  11.289   5.466
 3251POPC   PO443932  28.827  10.904   5.360
 3251POPC   GL143933  28.621  11.173   5.731
 3251POPC   GL243934  28.284  11.005   5.855
 3251POPC   C1A43935  28.453  11.435   6.120
 3251POPC   D2A43936  28.484  11.312   6.589
 3251POPC   C3A43937  28.407  11.535   7.035
 3251POPC   C4A43938  28.283  11.315   7.453
 3251POPC   C1B43939  28.102  11.021   6.237
 3251POPC   C2B43940  28.175  10.846   6.622
 3251POPC   C3B43941  28.211  11.074   6.942
 3251POPC   C4B43942  27.905  11.345   7.095
 3252POPC   NC343943  26.948  34.708   5.412
 3252POPC   PO443944  26.283  34.355   5.496
 3252POPC   GL143945  26.548  34.595   5.719
 3252POPC   GL243946  26.825  34.333   5.730
 3252POPC   C1A43947  26.631  34.793   6.126
 3252POPC   D2A43948  26.549  34.952   6.566
 3252POPC   C3A43949  26.937  34.972   6.832
 3252POPC   C4A43950  27.065  34.740   7.236
 3252POPC   C1B43951  26.615  34.249   6.118
 3252POPC   C2B43952  26.612  34.453   6.514
 3252POPC   C3B43953  26.839  34.405   6.890
 3252POPC   C4B43954  26.767  34.288   7.307
 3253POPC   NC343955  30.956  10.195   5.494
 3253POPC   PO443956  30.439  10.554   5.407
 3253POPC   GL143957  30.689  10.560   5.781
 3253POPC   GL243958  30.641  10.229   5.897
 3253POPC   C1A43959  30.648  10.630   6.230
 3253POPC   D2A43960  30.382  10.698   6.591
 3253POPC   C3A43961  30.526  10.694   6.993
 3253POPC   C4A43962  30.945  10.724   7.077
 3253POPC   C1B43963  30.973  10.244   6.207
 3253POPC   C2B43964  30.904  10.446   6.638
 3253POPC   C3B43965  30.705  10.224   7.019
 3253POPC   C4B43966  30.346  10.128   7.279
 3254POPC   NC343967  40.649  11.377   5.067
 3254POPC   PO443968  41.095  11.043   5.338
 3254POPC   GL143969  40.807  11.270   5.595
 3254POPC   GL243970  40.602  11.013   5.742
 3254POPC   C1A43971  40.868  11.413   6.044
 3254POPC   D2A43972  40.986  11.519   6.492
 3254POPC   C3A43973  40.780  11.487   6.906
 3254POPC   C4A43974  40.670  11.320   7.326
 3254POPC   C1B43975  40.815  10.912   6.127
 3254POPC   C2B43976  40.806  11.028   6.571
 3254POPC   C3B43977  40.893  10.980   7.022
 3254POPC   C4B43978  40.996  10.927   7.503
 3255POPC   NC343979  40.385  18.414   5.402
 3255POPC   PO443980  39.867  17.978   5.467
 3255POPC   GL143981  39.965  18.148   5.838
 3255POPC   GL243982  40.007  18.510   5.790
 3255POPC   C1A43983  40.072  17.967   6.220
 3255POPC   D2A43984  40.116  18.133   6.640
 3255POPC   C3A43985  40.047  17.947   7.044
 3255POPC   C4A43986  40.137  18.169   7.437
 3255POPC   C1B43987  39.953  18.469   6.244
 3255POPC   C2B43988  39.749  18.470   6.630
 3255POPC   C3B43989  39.791  18.417   7.082
 3255POPC   C4B43990  39.862  18.591   7.501
 3256POPC   NC343991  21.674  26.514   5.232
 3256POPC   PO443992  21.017  26.602   5.424
 3256POPC   GL143993  21.293  26.667   5.785
 3256POPC   GL243994  21.626  26.760   5.709
 3256POPC   C1A43995  21.250  26.611   6.217
 3256POPC   D2A43996  21.093  26.702   6.614
 3256POPC   C3A43997  21.289  26.542   6.973
 3256POPC   C4A43998  21.465  26.607   7.381
 3256POPC   C1B43999  21.597  26.994   6.149
 3256POPC   C2B44000  21.429  27.102   6.591
 3256POPC   C3B44001  21.506  27.018   7.050
 3256POPC   C4B44002  21.638  27.086   7.492
 3257POPC   NC344003   2.932  24.738   5.421
 3257POPC   PO444004   2.811  25.345   5.262
 3257POPC   GL144005   2.846  25.337   5.729
 3257POPC   GL244006   3.066  25.059   5.875
 3257POPC   C1A44007   2.604  25.173   6.110
 3257POPC   D2A44008   2.564  25.000   6.548
 3257POPC   C3A44009   2.798  25.235   6.899
 3257POPC   C4A44010   2.935  25.129   7.350
 3257POPC   C1B44011   3.056  25.416   6.216
 3257POPC   C2B44012   3.115  25.587   6.660
 3257POPC   C3B44013   3.002  25.683   7.107
 3257POPC   C4B44014   3.019  25.612   7.591
 3258POPC   NC344015  13.204  38.657   5.532
 3258POPC   PO444016  12.548  38.462   5.333
 3258POPC   GL144017  12.820  38.305   5.666
 3258POPC   GL244018  12.661  38.554   5.861
 3258POPC   C1A44019  13.037  38.296   6.092
 3258POPC   D2A44020  13.141  38.393   6.513
 3258POPC   C3A44021  12.835  38.470   6.803
 3258POPC   C4A44022  12.802  38.283   7.205
 3258POPC   C1B44023  12.518  38.145   6.063
 3258POPC   C2B44024  12.426  38.122   6.485
 3258POPC   C3B44025  12.529  37.989   6.879
 3258POPC   C4B44026  12.437  37.956   7.303
 3259POPC   NC344027  35.995  20.917   5.368
 3259POPC   PO444028  36.184  20.240   5.357
 3259POPC   GL144029  36.014  20.483   5.690
 3259POPC   GL244030  36.185  20.797   5.815
 3259POPC   C1A44031  35.980  20.459   6.141
 3259POPC   D2A44032  36.185  20.312   6.507
 3259POPC   C3A44033  35.885  20.420   6.786
 3259POPC   C4A44034  35.869  20.801   6.979
 3259POPC   C1B44035  36.358  20.784   6.231
 3259POPC   C2B44036  36.542  20.671   6.632
 3259POPC   C3B44037  36.363  20.660   7.019
 3259POPC   C4B44038  36.459  20.912   7.384
 3260POPC   NC344039  12.235  42.884   5.367
 3260POPC   PO444040  12.058  43.493   5.265
 3260POPC   GL144041  12.002  43.145   5.701
 3260POPC   GL244042  12.298  43.059   5.868
 3260POPC   C1A44043  11.976  43.179   6.239
 3260POPC   D2A44044  12.066  43.355   6.681
 3260POPC   C3A44045  11.816  43.279   7.067
 3260POPC   C4A44046  11.866  43.131   7.504
 3260POPC   C1B44047  12.352  42.845   6.284
 3260POPC   C2B44048  12.114  42.802   6.689
 3260POPC   C3B44049  12.200  42.930   7.147
 3260POPC   C4B44050  12.231  42.803   7.632
 3261POPC   NC344051  37.921  16.941   5.460
 3261POPC   PO444052  37.502  16.503   5.566
 3261POPC   GL144053  37.701  16.589   5.944
 3261POPC   GL244054  37.412  16.425   6.081
 3261POPC   C1A44055  38.048  16.835   6.167
 3261POPC   D2A44056  38.182  17.055   6.552
 3261POPC   C3A44057  37.999  16.852   6.883
 3261POPC   C4A44058  37.827  16.831   7.278
 3261POPC   C1B44059  37.389  16.767   6.374
 3261POPC   C2B44060  37.456  16.824   6.799
 3261POPC   C3B44061  37.288  17.044   7.129
 3261POPC   C4B44062  37.458  17.072   7.561
 3262POPC   NC344063  22.496  23.976   5.336
 3262POPC   PO444064  21.847  23.659   5.437
 3262POPC   GL144065  22.022  23.668   5.814
 3262POPC   GL244066  22.236  23.928   5.779
 3262POPC   C1A44067  21.896  23.551   6.226
 3262POPC   D2A44068  21.933  23.399   6.654
 3262POPC   C3A44069  22.315  23.509   6.863
 3262POPC   C4A44070  22.237  23.510   7.276
 3262POPC   C1B44071  22.005  24.057   6.182
 3262POPC   C2B44072  22.159  23.964   6.594
 3262POPC   C3B44073  21.970  23.854   6.997
 3262POPC   C4B44074  21.699  23.960   7.335
 3263POPC   NC344075  35.507   3.638   5.376
 3263POPC   PO444076  35.208   3.065   5.505
 3263POPC   GL144077  35.187   3.508   5.746
 3263POPC   GL244078  35.497   3.766   5.858
 3263POPC   C1A44079  35.122   3.589   6.168
 3263POPC   D2A44080  35.046   3.459   6.588
 3263POPC   C3A44081  35.381   3.518   6.891
 3263POPC   C4A44082  35.245   3.401   7.313
 3263POPC   C1B44083  35.637   3.773   6.286
 3263POPC   C2B44084  35.814   3.474   6.594
 3263POPC   C3B44085  35.809   3.271   6.996
 3263POPC   C4B44086  35.716   3.425   7.436
 3264POPC   NC344087  31.922  26.050   5.424
 3264POPC   PO444088  32.583  26.134   5.295
 3264POPC   GL144089  32.364  26.051   5.722
 3264POPC   GL244090  32.073  26.237   5.849
 3264POPC   C1A44091  32.371  25.957   6.202
 3264POPC   D2A44092  32.279  25.897   6.630
 3264POPC   C3A44093  32.461  26.102   6.986
 3264POPC   C4A44094  32.228  25.995   7.328
 3264POPC   C1B44095  31.958  26.347   6.244
 3264POPC   C2B44096  31.862  26.494   6.635
 3264POPC   C3B44097  31.954  26.251   6.965
 3264POPC   C4B44098  31.947  26.427   7.368
 3265POPC   NC344099  40.434  25.605   5.496
 3265POPC   PO444100  39.946  25.154   5.417
 3265POPC   GL144101  39.893  25.328   5.853
 3265POPC   GL244102  40.242  25.411   5.925
 3265POPC   C1A44103  39.965  25.274   6.319
 3265POPC   D2A44104  40.224  24.981   6.561
 3265POPC   C3A44105  40.076  25.048   6.977
 3265POPC   C4A44106  39.736  25.277   7.135
 3265POPC   C1B44107  40.417  25.619   6.296
 3265POPC   C2B44108  40.256  25.495   6.676
 3265POPC   C3B44109  40.175  25.576   7.065
 3265POPC   C4B44110  40.265  25.333   7.408
 3266POPC   NC344111  44.800  42.203   5.652
 3266POPC   PO444112  44.910  42.730   5.238
 3266POPC   GL144113  44.575  42.769   5.600
 3266POPC   GL244114  44.380  42.506   5.670
 3266POPC   C1A44115  44.489  42.860   6.057
 3266POPC   D2A44116  44.820  42.709   6.390
 3266POPC   C3A44117  44.824  42.426   6.780
 3266POPC   C4A44118  44.604  42.426   7.182
 3266POPC   C1B44119  44.394  42.359   6.118
 3266POPC   C2B44120  44.361  42.344   6.571
 3266POPC   C3B44121  44.337  42.078   6.940
 3266POPC   C4B44122  44.329  42.057   7.393
 3267POPC   NC344123   4.925  40.411   5.574
 3267POPC   PO444124   5.354  39.948   5.361
 3267POPC   GL144125   5.103  39.812   5.717
 3267POPC   GL244126   4.943  40.067   5.928
 3267POPC   C1A44127   5.292  39.777   6.136
 3267POPC   D2A44128   5.106  39.767   6.535
 3267POPC   C3A44129   5.374  39.832   6.900
 3267POPC   C4A44130   5.147  39.998   7.265
 3267POPC   C1B44131   4.644  40.302   6.200
 3267POPC   C2B44132   4.536  40.274   6.640
 3267POPC   C3B44133   4.691  40.056   7.030
 3267POPC   C4B44134   4.722  40.192   7.483
 3268POPC   NC344135  11.768  15.359   5.502
 3268POPC   PO444136  11.141  15.011   5.398
 3268POPC   GL144137  11.360  14.949   5.775
 3268POPC   GL244138  11.696  14.944   5.887
 3268POPC   C1A44139  11.227  15.062   6.175
 3268POPC   D2A44140  11.024  15.115   6.550
 3268POPC   C3A44141  11.324  15.037   6.868
 3268POPC   C4A44142  11.387  15.052   7.288
 3268POPC   C1B44143  11.699  15.274   6.152
 3268POPC   C2B44144  11.490  15.364   6.509
 3268POPC   C3B44145  11.533  15.561   6.868
 3268POPC   C4B44146  11.734  15.555   7.262
 3269POPC   NC344147  26.452  17.324   5.574
 3269POPC   PO444148  27.116  17.305   5.603
 3269POPC   GL144149  27.065  17.448   5.970
 3269POPC   GL244150  26.755  17.582   5.934
 3269POPC   C1A44151  27.137  17.669   6.334
 3269POPC   D2A44152  27.030  17.446   6.685
 3269POPC   C3A44153  27.022  17.668   7.087
 3269POPC   C4A44154  27.163  17.534   7.488
 3269POPC   C1B44155  26.623  17.512   6.371
 3269POPC   C2B44156  26.562  17.579   6.832
 3269POPC   C3B44157  26.536  17.659   7.269
 3269POPC   C4B44158  26.364  17.945   7.586
 3270POPC   NC344159   9.444  38.746   5.369
 3270POPC   PO444160  10.150  38.680   5.285
 3270POPC   GL144161   9.818  38.529   5.669
 3270POPC   GL244162   9.477  38.376   5.758
 3270POPC   C1A44163   9.887  38.375   6.092
 3270POPC   D2A44164  10.220  38.528   6.363
 3270POPC   C3A44165  10.098  38.549   6.793
 3270POPC   C4A44166   9.934  38.293   7.123
 3270POPC   C1B44167   9.392  38.208   6.175
 3270POPC   C2B44168   9.637  38.374   6.543
 3270POPC   C3B44169   9.518  38.500   6.937
 3270POPC   C4B44170   9.409  38.167   7.194
 3271POPC   NC344171  34.455  18.699   5.374
 3271POPC   PO444172  34.857  18.147   5.440
 3271POPC   GL144173  34.670  18.407   5.731
 3271POPC   GL244174  34.371  18.284   5.773
 3271POPC   C1A44175  34.664  18.371   6.162
 3271POPC   D2A44176  34.527  18.459   6.526
 3271POPC   C3A44177  34.745  18.296   6.842
 3271POPC   C4A44178  34.739  18.237   7.267
 3271POPC   C1B44179  34.256  18.080   6.166
 3271POPC   C2B44180  34.087  18.203   6.576
 3271POPC   C3B44181  34.277  18.161   6.995
 3271POPC   C4B44182  34.273  18.202   7.442
 3272POPC   NC344183   4.931  32.633   5.522
 3272POPC   PO444184   5.317  33.108   5.361
 3272POPC   GL144185   5.131  33.006   5.792
 3272POPC   GL244186   5.064  33.275   5.976
 3272POPC   C1A44187   4.806  32.895   6.155
 3272POPC   D2A44188   4.772  33.131   6.528
 3272POPC   C3A44189   5.032  32.959   6.844
 3272POPC   C4A44190   5.009  32.876   7.268
 3272POPC   C1B44191   5.285  33.104   6.313
 3272POPC   C2B44192   5.562  33.120   6.665
 3272POPC   C3B44193   5.447  33.106   7.088
 3272POPC   C4B44194   5.496  32.798   7.385
 3273POPC   NC344195   7.521  35.670   5.456
 3273POPC   PO444196   7.125  35.253   5.167
 3273POPC   GL144197   7.110  35.407   5.655
 3273POPC   GL244198   7.445  35.421   5.898
 3273POPC   C1A44199   7.008  35.366   6.129
 3273POPC   D2A44200   7.319  35.411   6.484
 3273POPC   C3A44201   7.207  35.307   6.923
 3273POPC   C4A44202   7.292  35.439   7.381
 3273POPC   C1B44203   7.767  35.334   6.254
 3273POPC   C2B44204   7.756  35.275   6.719
 3273POPC   C3B44205   7.673  35.179   7.143
 3273POPC   C4B44206   7.810  35.092   7.549
 3274POPC   NC344207  24.705   9.298   5.335
 3274POPC   PO444208  24.338   8.730   5.360
 3274POPC   GL144209  24.486   9.017   5.718
 3274POPC   GL244210  24.830   9.089   5.800
 3274POPC   C1A44211  24.348   9.062   6.155
 3274POPC   D2A44212  24.432   8.787   6.517
 3274POPC   C3A44213  24.328   8.889   6.942
 3274POPC   C4A44214  24.420   9.277   7.151
 3274POPC   C1B44215  24.822   9.218   6.259
 3274POPC   C2B44216  24.947   9.079   6.702
 3274POPC   C3B44217  24.816   8.957   7.107
 3274POPC   C4B44218  24.785   9.165   7.526
 3275POPC   NC344219   4.976  39.938   5.088
 3275POPC   PO444220   5.008  39.300   5.192
 3275POPC   GL144221   5.062  39.273   5.684
 3275POPC   GL244222   4.746  39.409   5.803
 3275POPC   C1A44223   5.348  39.167   6.058
 3275POPC   D2A44224   5.479  39.413   6.436
 3275POPC   C3A44225   5.334  39.307   6.829
 3275POPC   C4A44226   5.372  39.050   7.156
 3275POPC   C1B44227   4.915  39.378   6.226
 3275POPC   C2B44228   4.817  39.342   6.659
 3275POPC   C3B44229   4.942  39.592   6.996
 3275POPC   C4B44230   5.147  39.468   7.350
 3276POPC   NC344231   4.557  12.060   5.400
 3276POPC   PO444232   5.267  12.126   5.293
 3276POPC   GL144233   5.077  12.125   5.723
 3276POPC   GL244234   5.342  12.270   5.811
 3276POPC   C1A44235   5.132  12.050   6.229
 3276POPC   D2A44236   5.108  11.961   6.707
 3276POPC   C3A44237   5.064  12.025   7.181
 3276POPC   C4A44238   4.717  12.030   7.522
 3276POPC   C1B44239   5.433  12.448   6.157
 3276POPC   C2B44240   5.462  12.319   6.575
 3276POPC   C3B44241   5.273  12.419   6.943
 3276POPC   C4B44242   5.426  12.378   7.376
 3277POPC   NC344243  10.360  12.616   5.440
 3277POPC   PO444244  10.974  12.392   5.352
 3277POPC   GL144245  10.821  12.704   5.674
 3277POPC   GL244246  10.561  12.516   5.881
 3277POPC   C1A44247  10.695  12.957   6.058
 3277POPC   D2A44248  10.419  12.851   6.428
 3277POPC   C3A44249  10.441  13.015   6.836
 3277POPC   C4A44250  10.468  12.810   7.233
 3277POPC   C1B44251  10.543  12.315   6.256
 3277POPC   C2B44252  10.255  12.341   6.564
 3277POPC   C3B44253  10.146  12.480   6.964
 3277POPC   C4B44254  10.282  12.353   7.372
 3278POPC   NC344255  22.380  10.697   5.593
 3278POPC   PO444256  21.915  10.170   5.539
 3278POPC   GL144257  22.263  10.251   5.834
 3278POPC   GL244258  21.998  10.266   6.065
 3278POPC   C1A44259  22.450  10.401   6.247
 3278POPC   D2A44260  22.671  10.250   6.611
 3278POPC   C3A44261  22.548  10.399   7.050
 3278POPC   C4A44262  22.559  10.859   7.188
 3278POPC   C1B44263  21.892  10.507   6.435
 3278POPC   C2B44264  22.160  10.675   6.786
 3278POPC   C3B44265  22.116  10.626   7.258
 3278POPC   C4B44266  22.107  10.265   7.571
 3279POPC   NC344267  18.120   0.738   5.387
 3279POPC   PO444268  18.409   0.183   5.700
 3279POPC   GL144269  18.253   0.553   5.822
 3279POPC   GL244270  18.511   0.778   5.763
 3279POPC   C1A44271  17.993   0.589   6.142
 3279POPC   D2A44272  17.797   0.329   6.450
 3279POPC   C3A44273  17.833   0.430   6.871
 3279POPC   C4A44274  18.099   0.505   7.196
 3279POPC   C1B44275  18.531   0.562   6.221
 3279POPC   C2B44276  18.292   0.480   6.580
 3279POPC   C3B44277  18.470   0.276   6.905
 3279POPC   C4B44278  18.582   0.368   7.284
 3280POPC   NC344279  15.730  31.563   5.461
 3280POPC   PO444280  16.331  31.245   5.498
 3280POPC   GL144281  15.999  31.283   5.803
 3280POPC   GL244282  15.979  31.666   5.901
 3280POPC   C1A44283  16.101  31.297   6.226
 3280POPC   D2A44284  16.213  31.546   6.590
 3280POPC   C3A44285  16.064  31.401   7.032
 3280POPC   C4A44286  16.069  31.199   7.483
 3280POPC   C1B44287  15.751  31.652   6.321
 3280POPC   C2B44288  15.831  31.878   6.720
 3280POPC   C3B44289  15.914  31.886   7.179
 3280POPC   C4B44290  15.894  31.660   7.563
 3281POPC   NC344291   6.310   4.078   5.493
 3281POPC   PO444292   6.853   4.430   5.460
 3281POPC   GL144293   6.916   4.174   5.778
 3281POPC   GL244294   6.613   4.191   5.891
 3281POPC   C1A44295   6.996   4.294   6.198
 3281POPC   D2A44296   6.800   4.401   6.565
 3281POPC   C3A44297   6.992   4.299   6.944
 3281POPC   C4A44298   6.822   4.049   7.262
 3281POPC   C1B44299   6.324   3.996   6.156
 3281POPC   C2B44300   6.313   3.783   6.557
 3281POPC   C3B44301   6.385   4.010   6.944
 3281POPC   C4B44302   6.354   3.832   7.338
 3282POPC   NC344303  38.240  25.992   5.398
 3282POPC   PO444304  38.874  26.387   5.445
 3282POPC   GL144305  38.604  26.123   5.741
 3282POPC   GL244306  38.273  26.266   5.841
 3282POPC   C1A44307  38.534  25.909   6.142
 3282POPC   D2A44308  38.812  25.972   6.470
 3282POPC   C3A44309  38.793  25.902   6.876
 3282POPC   C4A44310  38.514  25.835   7.155
 3282POPC   C1B44311  38.264  26.325   6.269
 3282POPC   C2B44312  38.306  26.136   6.687
 3282POPC   C3B44313  38.187  26.215   7.132
 3282POPC   C4B44314  38.127  26.359   7.567
 3283POPC   NC344315  33.030  35.508   5.463
 3283POPC   PO444316  33.373  35.039   5.588
 3283POPC   GL144317  33.127  35.267   5.891
 3283POPC   GL244318  32.832  35.220   5.837
 3283POPC   C1A44319  32.970  35.256   6.324
 3283POPC   D2A44320  33.191  35.020   6.590
 3283POPC   C3A44321  33.070  35.178   6.943
 3283POPC   C4A44322  33.136  35.186   7.332
 3283POPC   C1B44323  32.629  34.931   6.106
 3283POPC   C2B44324  32.596  34.865   6.546
 3283POPC   C3B44325  32.541  35.116   6.905
 3283POPC   C4B44326  32.662  35.341   7.261
 3284POPC   NC344327  43.383  23.651   5.375
 3284POPC   PO444328  42.752  23.509   5.635
 3284POPC   GL144329  43.178  23.569   5.834
 3284POPC   GL244330  43.370  23.889   5.825
 3284POPC   C1A44331  43.260  23.347   6.214
 3284POPC   D2A44332  43.174  23.639   6.542
 3284POPC   C3A44333  42.908  23.575   6.879
 3284POPC   C4A44334  42.884  23.363   7.243
 3284POPC   C1B44335  43.268  24.072   6.211
 3284POPC   C2B44336  43.415  24.080   6.612
 3284POPC   C3B44337  43.435  23.827   6.952
 3284POPC   C4B44338  43.139  23.809   7.304
 3285POPC   NC344339   8.540  37.290   5.552
 3285POPC   PO444340   7.931  36.970   5.358
 3285POPC   GL144341   8.188  36.973   5.766
 3285POPC   GL244342   8.397  36.666   5.846
 3285POPC   C1A44343   8.039  36.826   6.181
 3285POPC   D2A44344   7.871  36.858   6.567
 3285POPC   C3A44345   8.002  36.584   6.891
 3285POPC   C4A44346   7.866  36.736   7.290
 3285POPC   C1B44347   8.541  36.911   6.212
 3285POPC   C2B44348   8.415  36.781   6.652
 3285POPC   C3B44349   8.216  37.021   7.022
 3285POPC   C4B44350   8.431  37.266   7.330
 3286POPC   NC344351  36.522  43.024   5.379
 3286POPC   PO444352  35.844  43.338   5.443
 3286POPC   GL144353  35.882  43.125   5.795
 3286POPC   GL244354  36.225  43.084   5.812
 3286POPC   C1A44355  35.777  42.917   6.151
 3286POPC   D2A44356  35.740  43.166   6.496
 3286POPC   C3A44357  35.793  43.030   6.912
 3286POPC   C4A44358  36.109  43.043   7.164
 3286POPC   C1B44359  36.203  43.207   6.264
 3286POPC   C2B44360  36.308  43.215   6.720
 3286POPC   C3B44361  36.528  43.326   7.144
 3286POPC   C4B44362  36.712  43.120   7.540
 3287POPC   NC344363   1.788  38.666   5.402
 3287POPC   PO444364   2.332  38.251   5.338
 3287POPC   GL144365   2.021  38.238   5.686
 3287POPC   GL244366   2.050  38.567   5.817
 3287POPC   C1A44367   2.071  38.195   6.160
 3287POPC   D2A44368   2.184  38.421   6.552
 3287POPC   C3A44369   1.912  38.351   6.909
 3287POPC   C4A44370   2.015  38.188   7.281
 3287POPC   C1B44371   1.854  38.674   6.221
 3287POPC   C2B44372   1.907  38.850   6.654
 3287POPC   C3B44373   1.995  38.815   7.110
 3287POPC   C4B44374   1.788  38.639   7.463
 3288POPC   NC344375  26.421   0.151   5.369
 3288POPC   PO444376  26.423   0.861   5.497
 3288POPC   GL144377  26.143   0.531   5.794
 3288POPC   GL244378  25.771   0.470   5.790
 3288POPC   C1A44379  25.944   0.595   6.234
 3288POPC   D2A44380  26.037   0.402   6.619
 3288POPC   C3A44381  26.198   0.501   7.014
 3288POPC   C4A44382  25.815   0.619   7.233
 3288POPC   C1B44383  25.650   0.192   6.163
 3288POPC   C2B44384  25.650   0.053   6.624
 3288POPC   C3B44385  25.822   0.124   7.032
 3288POPC   C4B44386  25.847   0.174   7.506
 3289POPC   NC344387  17.976  28.905   5.553
 3289POPC   PO444388  18.073  28.338   5.234
 3289POPC   GL144389  18.339  28.382   5.673
 3289POPC   GL244390  18.323  28.721   5.878
 3289POPC   C1A44391  18.549  28.335   6.116
 3289POPC   D2A44392  18.465  28.604   6.495
 3289POPC   C3A44393  18.493  28.399   6.901
 3289POPC   C4A44394  18.639  28.222   7.273
 3289POPC   C1B44395  18.066  28.473   6.187
 3289POPC   C2B44396  17.968  28.375   6.637
 3289POPC   C3B44397  18.015  28.524   7.052
 3289POPC   C4B44398  17.994  28.283   7.431
 3290POPC   NC344399   7.096  27.834   5.208
 3290POPC   PO444400   6.718  27.380   5.532
 3290POPC   GL144401   6.378  27.413   5.822
 3290POPC   GL244402   6.399  27.751   5.832
 3290POPC   C1A44403   6.377  27.416   6.281
 3290POPC   D2A44404   6.663  27.467   6.604
 3290POPC   C3A44405   6.587  27.320   7.014
 3290POPC   C4A44406   6.721  27.616   7.259
 3290POPC   C1B44407   6.767  27.720   6.128
 3290POPC   C2B44408   6.985  27.854   6.522
 3290POPC   C3B44409   7.101  27.797   6.963
 3290POPC   C4B44410   6.959  28.098   7.288
 3291POPC   NC344411  17.263  41.358   5.267
 3291POPC   PO444412  17.833  41.684   5.441
 3291POPC   GL144413  17.668  41.615   5.844
 3291POPC   GL244414  17.445  41.327   5.810
 3291POPC   C1A44415  17.684  41.850   6.258
 3291POPC   D2A44416  17.483  41.729   6.630
 3291POPC   C3A44417  17.571  41.734   7.080
 3291POPC   C4A44418  17.456  41.369   7.348
 3291POPC   C1B44419  17.632  41.340   6.286
 3291POPC   C2B44420  17.673  41.271   6.776
 3291POPC   C3B44421  17.815  41.049   7.182
 3291POPC   C4B44422  17.791  41.103   7.662
 3292POPC   NC344423   0.016  30.572   5.472
 3292POPC   PO444424  44.385  30.665   5.249
 3292POPC   GL144425  44.497  30.670   5.716
 3292POPC   GL244426  44.818  30.761   5.891
 3292POPC   C1A44427  44.383  30.685   6.187
 3292POPC   D2A44428  44.210  30.601   6.633
 3292POPC   C3A44429  44.481  30.645   6.989
 3292POPC   C4A44430  44.450  30.980   7.292
 3292POPC   C1B44431   0.045  30.528   6.192
 3292POPC   C2B44432   0.023  30.530   6.626
 3292POPC   C3B44433  44.937  30.404   7.022
 3292POPC   C4B44434  44.873  30.667   7.307
 3293POPC   NC344435   5.392  27.882   5.184
 3293POPC   PO444436   4.996  27.339   5.209
 3293POPC   GL144437   5.046  27.546   5.674
 3293POPC   GL244438   5.230  27.855   5.805
 3293POPC   C1A44439   5.134  27.380   6.123
 3293POPC   D2A44440   5.448  27.280   6.476
 3293POPC   C3A44441   5.350  27.374   6.911
 3293POPC   C4A44442   4.968  27.259   7.113
 3293POPC   C1B44443   5.110  27.932   6.281
 3293POPC   C2B44444   5.036  27.792   6.718
 3293POPC   C3B44445   5.264  27.858   7.117
 3293POPC   C4B44446   5.069  27.887   7.538
 3294POPC   NC344447  31.114  24.399   5.472
 3294POPC   PO444448  31.658  24.074   5.360
 3294POPC   GL144449  31.555  24.355   5.747
 3294POPC   GL244450  31.294  24.626   5.888
 3294POPC   C1A44451  31.749  24.519   6.117
 3294POPC   D2A44452  31.575  24.244   6.429
 3294POPC   C3A44453  31.549  24.247   6.858
 3294POPC   C4A44454  31.544  24.277   7.276
 3294POPC   C1B44455  31.360  24.747   6.350
 3294POPC   C2B44456  31.676  24.720   6.678
 3294POPC   C3B44457  31.587  24.771   7.118
 3294POPC   C4B44458  31.302  24.891   7.425
 3295POPC   NC344459  31.516  10.971   5.355
 3295POPC   PO444460  31.403  10.287   5.421
 3295POPC   GL144461  31.244  10.539   5.792
 3295POPC   GL244462  31.557  10.737   5.856
 3295POPC   C1A44463  31.182  10.721   6.237
 3295POPC   D2A44464  31.332  10.953   6.613
 3295POPC   C3A44465  31.424  10.634   6.904
 3295POPC   C4A44466  31.215  10.280   7.012
 3295POPC   C1B44467  31.739  10.894   6.265
 3295POPC   C2B44468  31.873  10.843   6.719
 3295POPC   C3B44469  31.800  10.829   7.183
 3295POPC   C4B44470  31.822  10.837   7.658
 3296POPC   NC344471  42.595   2.286   5.490
 3296POPC   PO444472  42.165   1.843   5.263
 3296POPC   GL144473  42.246   1.971   5.718
 3296POPC   GL244474  42.589   1.850   5.744
 3296POPC   C1A44475  42.348   2.215   6.141
 3296POPC   D2A44476  42.188   2.103   6.576
 3296POPC   C3A44477  42.407   2.140   6.998
 3296POPC   C4A44478  42.270   2.098   7.452
 3296POPC   C1B44479  42.533   1.750   6.128
 3296POPC   C2B44480  42.400   1.674   6.482
 3296POPC   C3B44481  42.207   1.684   6.867
 3296POPC   C4B44482  42.414   1.669   7.229
 3297POPC   NC344483  38.525  34.065   5.440
 3297POPC   PO444484  39.058  33.725   5.547
 3297POPC   GL144485  38.766  33.850   5.872
 3297POPC   GL244486  38.428  33.767   5.884
 3297POPC   C1A44487  38.741  34.106   6.250
 3297POPC   D2A44488  38.901  34.164   6.679
 3297POPC   C3A44489  38.600  34.102   7.012
 3297POPC   C4A44490  38.634  33.980   7.444
 3297POPC   C1B44491  38.563  33.614   6.320
 3297POPC   C2B44492  38.475  33.662   6.769
 3297POPC   C3B44493  38.440  33.570   7.208
 3297POPC   C4B44494  38.354  33.343   7.612
 3298POPC   NC344495  32.517  43.433   5.358
 3298POPC   PO444496  32.009  43.020   5.325
 3298POPC   GL144497  32.184  43.209   5.706
 3298POPC   GL244498  32.262  43.558   5.810
 3298POPC   C1A44499  32.256  43.005   6.102
 3298POPC   D2A44500  32.263  42.918   6.534
 3298POPC   C3A44501  32.037  43.033   6.895
 3298POPC   C4A44502  32.132  42.821   7.257
 3298POPC   C1B44503  32.487  43.464   6.184
 3298POPC   C2B44504  32.463  43.372   6.613
 3298POPC   C3B44505  32.463  43.248   7.027
 3298POPC   C4B44506  32.617  43.038   7.335
 3299POPC   NC344507   7.453  29.996   5.638
 3299POPC   PO444508   6.954  29.920   5.163
 3299POPC   GL144509   6.941  29.957   5.664
 3299POPC   GL244510   7.069  29.658   5.847
 3299POPC   C1A44511   7.060  30.097   6.133
 3299POPC   D2A44512   7.258  30.007   6.545
 3299POPC   C3A44513   7.606  30.083   6.814
 3299POPC   C4A44514   7.384  30.100   7.196
 3299POPC   C1B44515   7.399  29.666   6.186
 3299POPC   C2B44516   7.592  29.610   6.565
 3299POPC   C3B44517   7.414  29.630   6.966
 3299POPC   C4B44518   7.631  29.564   7.314
 3300POPC   NC344519   1.414  18.736   5.529
 3300POPC   PO444520   0.870  18.886   5.180
 3300POPC   GL144521   0.969  19.014   5.624
 3300POPC   GL244522   0.855  18.693   5.719
 3300POPC   C1A44523   1.112  19.103   6.079
 3300POPC   D2A44524   1.079  19.356   6.495
 3300POPC   C3A44525   1.255  19.141   6.855
 3300POPC   C4A44526   1.436  19.073   7.237
 3300POPC   C1B44527   0.894  18.626   6.160
 3300POPC   C2B44528   0.972  18.841   6.537
 3300POPC   C3B44529   1.027  18.705   6.963
 3300POPC   C4B44530   0.990  18.838   7.377
 3301POPC   NC344531  36.020   1.524   5.490
 3301POPC   PO444532  35.956   2.215   5.445
 3301POPC   GL144533  36.087   1.972   5.797
 3301POPC   GL244534  36.391   1.734   5.759
 3301POPC   C1A44535  36.079   2.184   6.204
 3301POPC   D2A44536  36.184   2.463   6.561
 3301POPC   C3A44537  36.094   2.259   6.947
 3301POPC   C4A44538  36.232   2.199   7.366
 3301POPC   C1B44539  36.211   1.609   6.176
 3301POPC   C2B44540  35.846   1.771   6.409
 3301POPC   C3B44541  35.729   1.828   6.834
 3301POPC   C4B44542  35.778   1.954   7.233
 3302POPC   NC344543  19.018  10.235   5.410
 3302POPC   PO444544  19.416  10.814   5.391
 3302POPC   GL144545  19.372  10.642   5.765
 3302POPC   GL244546  19.391  10.310   5.808
 3302POPC   C1A44547  19.125  10.721   6.106
 3302POPC   D2A44548  19.249  10.772   6.524
 3302POPC   C3A44549  19.006  10.635   6.857
 3302POPC   C4A44550  19.133  10.769   7.232
 3302POPC   C1B44551  19.423  10.347   6.270
 3302POPC   C2B44552  19.343  10.199   6.700
 3302POPC   C3B44553  19.251  10.288   7.144
 3302POPC   C4B44554  19.298  10.435   7.588
 3303POPC   NC344555  13.282  21.542   5.340
 3303POPC   PO444556  13.421  20.899   5.597
 3303POPC   GL144557  13.522  21.069   5.957
 3303POPC   GL244558  13.451  21.398   5.832
 3303POPC   C1A44559  13.602  21.285   6.349
 3303POPC   D2A44560  13.470  21.241   6.778
 3303POPC   C3A44561  13.661  21.282   7.193
 3303POPC   C4A44562  13.808  21.262   7.649
 3303POPC   C1B44563  13.141  21.521   6.142
 3303POPC   C2B44564  13.054  21.473   6.605
 3303POPC   C3B44565  13.214  21.573   7.064
 3303POPC   C4B44566  13.494  21.698   7.437
 3304POPC   NC344567  34.899  44.399   5.485
 3304POPC   PO444568  34.709  44.961   5.154
 3304POPC   GL144569  34.524  44.729   5.604
 3304POPC   GL244570  34.686  44.547   5.909
 3304POPC   C1A44571  34.305  44.867   6.011
 3304POPC   D2A44572  34.248  44.779   6.452
 3304POPC   C3A44573  34.446  44.814   6.841
 3304POPC   C4A44574  34.246  44.549   7.166
 3304POPC   C1B44575  34.685  44.350   6.324
 3304POPC   C2B44576  34.905  44.412   6.724
 3304POPC   C3B44577  34.759  44.542   7.134
 3304POPC   C4B44578  34.560  44.275   7.480
 3305POPC   NC344579  42.722  37.080   5.315
 3305POPC   PO444580  43.239  36.647   5.457
 3305POPC   GL144581  42.997  36.900   5.738
 3305POPC   GL244582  43.243  37.086   5.939
 3305POPC   C1A44583  42.812  36.802   6.151
 3305POPC   D2A44584  42.981  36.751   6.563
 3305POPC   C3A44585  43.012  36.984   6.955
 3305POPC   C4A44586  42.759  36.944   7.312
 3305POPC   C1B44587  43.361  36.679   6.170
 3305POPC   C2B44588  43.401  36.489   6.620
 3305POPC   C3B44589  43.496  36.769   6.982
 3305POPC   C4B44590  43.388  37.034   7.337
 3306POPC   NC344591  30.910  40.311   5.383
 3306POPC   PO444592  30.807  39.689   5.576
 3306POPC   GL144593  30.575  40.033   5.743
 3306POPC   GL244594  30.897  40.162   5.856
 3306POPC   C1A44595  30.415  40.031   6.179
 3306POPC   D2A44596  30.697  39.893   6.527
 3306POPC   C3A44597  30.597  39.937   6.964
 3306POPC   C4A44598  30.729  40.027   7.384
 3306POPC   C1B44599  30.783  40.404   6.178
 3306POPC   C2B44600  30.963  40.340   6.561
 3306POPC   C3B44601  30.853  40.436   6.964
 3306POPC   C4B44602  31.093  40.382   7.331
 3307POPC   NC344603   7.808   8.793   5.421
 3307POPC   PO444604   7.247   9.259   5.372
 3307POPC   GL144605   7.207   9.111   5.798
 3307POPC   GL244606   7.487   8.902   5.804
 3307POPC   C1A44607   7.239   9.075   6.256
 3307POPC   D2A44608   7.640   8.902   6.417
 3307POPC   C3A44609   7.773   9.000   6.852
 3307POPC   C4A44610   7.596   9.061   7.259
 3307POPC   C1B44611   7.359   8.591   6.087
 3307POPC   C2B44612   7.182   8.611   6.485
 3307POPC   C3B44613   7.308   8.785   6.858
 3307POPC   C4B44614   7.513   8.571   7.162
 3308POPC   NC344615  42.646  40.941   5.555
 3308POPC   PO444616  43.255  40.724   5.468
 3308POPC   GL144617  43.026  40.736   5.843
 3308POPC   GL244618  42.992  41.087   5.884
 3308POPC   C1A44619  43.030  40.758   6.299
 3308POPC   D2A44620  43.231  40.647   6.689
 3308POPC   C3A44621  42.936  40.444   6.956
 3308POPC   C4A44622  42.934  40.414   7.396
 3308POPC   C1B44623  43.377  41.089   6.127
 3308POPC   C2B44624  43.558  41.071   6.546
 3308POPC   C3B44625  43.386  41.061   6.944
 3308POPC   C4B44626  43.126  40.850   7.208
 3309POPC   NC344627  31.972  17.878   5.487
 3309POPC   PO444628  32.255  17.204   5.498
 3309POPC   GL144629  32.123  17.227   5.921
 3309POPC   GL244630  31.887  17.503   5.850
 3309POPC   C1A44631  32.223  17.328   6.377
 3309POPC   D2A44632  32.296  17.721   6.639
 3309POPC   C3A44633  32.482  17.651   7.064
 3309POPC   C4A44634  32.267  17.481   7.429
 3309POPC   C1B44635  31.786  17.594   6.288
 3309POPC   C2B44636  31.733  17.726   6.722
 3309POPC   C3B44637  31.971  17.608   7.032
 3309POPC   C4B44638  32.237  17.221   6.957
 3310POPC   NC344639  17.203  33.727   5.539
 3310POPC   PO444640  16.501  34.066   5.419
 3310POPC   GL144641  16.687  34.038   5.833
 3310POPC   GL244642  16.631  33.668   5.927
 3310POPC   C1A44643  16.898  33.994   6.255
 3310POPC   D2A44644  16.775  33.737   6.595
 3310POPC   C3A44645  16.950  33.694   6.974
 3310POPC   C4A44646  16.772  33.431   7.248
 3310POPC   C1B44647  16.392  33.897   6.256
 3310POPC   C2B44648  16.293  33.859   6.687
 3310POPC   C3B44649  16.469  33.846   7.111
 3310POPC   C4B44650  16.773  33.893   7.476
 3311POPC   NC344651  28.579  12.713   5.366
 3311POPC   PO444652  27.945  12.481   5.179
 3311POPC   GL144653  28.125  12.839   5.598
 3311POPC   GL244654  28.403  12.732   5.829
 3311POPC   C1A44655  28.083  13.037   6.053
 3311POPC   D2A44656  28.425  13.101   6.381
 3311POPC   C3A44657  28.404  12.962   6.819
 3311POPC   C4A44658  28.093  12.967   7.150
 3311POPC   C1B44659  28.274  12.597   6.251
 3311POPC   C2B44660  28.188  12.349   6.604
 3311POPC   C3B44661  28.273  12.488   7.029
 3311POPC   C4B44662  28.178  12.561   7.465
 3312POPC   NC344663  12.058  12.513   5.392
 3312POPC   PO444664  11.672  11.842   5.379
 3312POPC   GL144665  11.771  11.958   5.815
 3312POPC   GL244666  11.916  12.272   5.858
 3312POPC   C1A44667  11.940  11.839   6.247
 3312POPC   D2A44668  12.063  11.981   6.689
 3312POPC   C3A44669  11.841  11.891   7.065
 3312POPC   C4A44670  11.818  12.020   7.492
 3312POPC   C1B44671  12.029  12.338   6.296
 3312POPC   C2B44672  11.969  12.495   6.733
 3312POPC   C3B44673  11.836  12.424   7.166
 3312POPC   C4B44674  11.873  12.501   7.618
 3313POPC   NC344675   0.131  11.199   5.441
 3313POPC   PO444676   0.637  11.388   5.094
 3313POPC   GL144677   0.594  11.435   5.645
 3313POPC   GL244678   0.297  11.291   5.892
 3313POPC   C1A44679   0.721  11.284   6.127
 3313POPC   D2A44680   0.404  11.332   6.482
 3313POPC   C3A44681   0.524  11.277   6.909
 3313POPC   C4A44682   0.630  11.326   7.344
 3313POPC   C1B44683   0.056  11.537   6.159
 3313POPC   C2B44684   0.014  11.670   6.574
 3313POPC   C3B44685   0.112  11.562   6.973
 3313POPC   C4B44686   0.007  11.155   7.149
 3314POPC   NC344687   1.704  37.834   5.248
 3314POPC   PO444688   1.063  37.750   5.500
 3314POPC   GL144689   1.296  37.706   5.813
 3314POPC   GL244690   1.573  37.930   5.738
 3314POPC   C1A44691   1.179  37.666   6.212
 3314POPC   D2A44692   1.061  37.998   6.443
 3314POPC   C3A44693   1.025  37.815   6.822
 3314POPC   C4A44694   1.122  37.953   7.208
 3314POPC   C1B44695   1.634  37.907   6.171
 3314POPC   C2B44696   1.504  37.795   6.592
 3314POPC   C3B44697   1.613  37.803   7.040
 3314POPC   C4B44698   1.416  37.588   7.394
 3315POPC   NC344699  34.663   4.086   5.424
 3315POPC   PO444700  34.587   4.758   5.402
 3315POPC   GL144701  34.516   4.495   5.786
 3315POPC   GL244702  34.206   4.304   5.728
 3315POPC   C1A44703  34.791   4.351   6.154
 3315POPC   D2A44704  34.954   4.448   6.586
 3315POPC   C3A44705  34.749   4.391   6.973
 3315POPC   C4A44706  34.524   4.663   7.217
 3315POPC   C1B44707  34.315   4.143   6.143
 3315POPC   C2B44708  34.426   4.259   6.577
 3315POPC   C3B44709  34.213   4.356   6.971
 3315POPC   C4B44710  34.243   4.262   7.433
 3316POPC   NC344711   2.246  21.565   5.365
 3316POPC   PO444712   1.885  21.039   5.311
 3316POPC   GL144713   1.996  21.283   5.708
 3316POPC   GL244714   2.343  21.168   5.738
 3316POPC   C1A44715   2.069  21.387   6.159
 3316POPC   D2A44716   2.339  21.482   6.519
 3316POPC   C3A44717   2.091  21.400   6.855
 3316POPC   C4A44718   1.893  21.405   7.241
 3316POPC   C1B44719   2.317  20.931   6.163
 3316POPC   C2B44720   2.212  20.911   6.646
 3316POPC   C3B44721   2.363  21.025   7.095
 3316POPC   C4B44722   2.410  21.440   7.260
 3317POPC   NC344723  11.329  42.245   5.082
 3317POPC   PO444724  10.884  42.557   5.461
 3317POPC   GL144725  11.221  42.586   5.765
 3317POPC   GL244726  11.051  42.334   5.927
 3317POPC   C1A44727  11.554  42.482   6.103
 3317POPC   D2A44728  11.701  42.506   6.573
 3317POPC   C3A44729  11.471  42.388   6.973
 3317POPC   C4A44730  11.314  42.391   7.417
 3317POPC   C1B44731  11.086  42.605   6.275
 3317POPC   C2B44732  11.207  42.728   6.665
 3317POPC   C3B44733  11.049  42.665   7.073
 3317POPC   C4B44734  10.869  42.622   7.480
 3318POPC   NC344735   9.432  41.299   5.420
 3318POPC   PO444736   8.878  41.664   5.340
 3318POPC   GL144737   9.029  41.490   5.725
 3318POPC   GL244738   8.854  41.180   5.711
 3318POPC   C1A44739   9.102  41.654   6.155
 3318POPC   D2A44740   8.956  41.537   6.566
 3318POPC   C3A44741   8.892  41.829   6.895
 3318POPC   C4A44742   9.045  41.852   7.318
 3318POPC   C1B44743   8.899  41.161   6.189
 3318POPC   C2B44744   8.853  41.037   6.650
 3318POPC   C3B44745   9.006  41.250   7.050
 3318POPC   C4B44746   8.956  41.270   7.533
 3319POPC   NC344747   6.371  29.069   5.603
 3319POPC   PO444748   5.859  29.196   5.239
 3319POPC   GL144749   5.892  29.228   5.716
 3319POPC   GL244750   5.636  29.022   5.889
 3319POPC   C1A44751   6.088  29.232   6.157
 3319POPC   D2A44752   6.066  28.968   6.529
 3319POPC   C3A44753   5.998  29.177   6.917
 3319POPC   C4A44754   6.089  29.007   7.289
 3319POPC   C1B44755   5.602  29.414   6.159
 3319POPC   C2B44756   5.596  29.279   6.588
 3319POPC   C3B44757   5.616  28.837   6.793
 3319POPC   C4B44758   5.652  28.730   7.240
 3320POPC   NC344759   9.478   8.706   5.612
 3320POPC   PO444760   9.500   9.363   5.387
 3320POPC   GL144761   9.696   9.222   5.776
 3320POPC   GL244762   9.929   8.919   5.770
 3320POPC   C1A44763   9.655   9.086   6.209
 3320POPC   D2A44764   9.840   9.182   6.598
 3320POPC   C3A44765   9.725   8.961   6.945
 3320POPC   C4A44766   9.527   9.004   7.300
 3320POPC   C1B44767  10.085   8.834   6.188
 3320POPC   C2B44768  10.090   8.691   6.625
 3320POPC   C3B44769  10.189   8.790   7.069
 3320POPC   C4B44770  10.133   9.167   7.331
 3321POPC   NC344771  12.655   8.433   5.362
 3321POPC   PO444772  12.926   7.833   5.389
 3321POPC   GL144773  12.663   8.029   5.718
 3321POPC   GL244774  12.950   7.958   5.932
 3321POPC   C1A44775  12.543   8.168   6.146
 3321POPC   D2A44776  12.758   8.063   6.516
 3321POPC   C3A44777  12.784   8.326   6.851
 3321POPC   C4A44778  12.546   8.419   7.201
 3321POPC   C1B44779  13.111   8.278   6.180
 3321POPC   C2B44780  13.239   8.430   6.567
 3321POPC   C3B44781  13.281   8.148   6.859
 3321POPC   C4B44782  13.055   8.115   7.216
 3322POPC   NC344783  38.688   9.808   5.506
 3322POPC   PO444784  38.010   9.832   5.571
 3322POPC   GL144785  38.347   9.892   5.871
 3322POPC   GL244786  38.443   9.538   5.916
 3322POPC   C1A44787  38.477   9.973   6.288
 3322POPC   D2A44788  38.180   9.812   6.591
 3322POPC   C3A44789  38.202   9.979   7.008
 3322POPC   C4A44790  38.016   9.592   7.210
 3322POPC   C1B44791  38.547   9.480   6.394
 3322POPC   C2B44792  38.618   9.737   6.820
 3322POPC   C3B44793  38.508   9.713   7.282
 3322POPC   C4B44794  38.737   9.429   7.617
 3323POPC   NC344795   7.215  42.334   5.597
 3323POPC   PO444796   7.510  41.864   5.669
 3323POPC   GL144797   7.594  42.144   5.947
 3323POPC   GL244798   7.871  42.378   5.911
 3323POPC   C1A44799   7.479  42.064   6.372
 3323POPC   D2A44800   7.557  41.815   6.739
 3323POPC   C3A44801   7.366  41.987   7.111
 3323POPC   C4A44802   7.422  42.199   7.510
 3323POPC   C1B44803   7.588  42.559   6.231
 3323POPC   C2B44804   7.588  42.603   6.675
 3323POPC   C3B44805   7.679  42.387   7.058
 3323POPC   C4B44806   7.749  42.598   7.454
 3324POPC   NC344807  28.752  19.030   5.272
 3324POPC   PO444808  29.331  18.659   5.374
 3324POPC   GL144809  29.014  18.728   5.695
 3324POPC   GL244810  29.000  19.089   5.728
 3324POPC   C1A44811  29.163  18.775   6.113
 3324POPC   D2A44812  29.374  19.034   6.401
 3324POPC   C3A44813  29.316  18.979   6.865
 3324POPC   C4A44814  29.158  18.723   7.216
 3324POPC   C1B44815  28.993  19.266   6.154
 3324POPC   C2B44816  28.969  19.353   6.601
 3324POPC   C3B44817  28.857  19.481   7.022
 3324POPC   C4B44818  28.683  19.266   7.399
 3325POPC   NC344819  13.161   0.555   5.516
 3325POPC   PO444820  13.840   0.622   5.277
 3325POPC   GL144821  13.913   0.402   5.693
 3325POPC   GL244822  13.554   0.297   5.751
 3325POPC   C1A44823  13.899   0.221   6.094
 3325POPC   D2A44824  13.741   0.241   6.466
 3325POPC   C3A44825  13.871   0.434   6.841
 3325POPC   C4A44826  13.872   0.205   7.174
 3325POPC   C1B44827  13.483   0.543   6.118
 3325POPC   C2B44828  13.590   0.713   6.522
 3325POPC   C3B44829  13.417   0.692   6.929
 3325POPC   C4B44830  13.567   0.604   7.321
 3326POPC   NC344831   2.015  35.487   5.323
 3326POPC   PO444832   1.402  35.639   5.327
 3326POPC   GL144833   1.654  35.387   5.674
 3326POPC   GL244834   1.910  35.611   5.807
 3326POPC   C1A44835   1.825  35.135   6.065
 3326POPC   D2A44836   1.827  35.082   6.545
 3326POPC   C3A44837   2.090  35.295   6.874
 3326POPC   C4A44838   1.954  35.469   7.269
 3326POPC   C1B44839   1.626  35.608   6.163
 3326POPC   C2B44840   1.782  35.608   6.582
 3326POPC   C3B44841   1.680  35.787   6.958
 3326POPC   C4B44842   1.582  35.801   7.381
 3327POPC   NC344843   0.072  32.971   5.245
 3327POPC   PO444844   0.715  33.032   5.307
 3327POPC   GL144845   0.549  33.029   5.742
 3327POPC   GL244846   0.735  33.340   5.776
 3327POPC   C1A44847   0.313  32.899   6.164
 3327POPC   D2A44848   0.016  32.742   6.521
 3327POPC   C3A44849   0.181  32.719   6.971
 3327POPC   C4A44850   0.053  32.841   7.404
 3327POPC   C1B44851   0.796  33.127   6.168
 3327POPC   C2B44852   0.699  32.942   6.538
 3327POPC   C3B44853   0.811  32.881   6.936
 3327POPC   C4B44854   0.867  33.168   7.276
 3328POPC   NC344855  15.109  30.570   5.566
 3328POPC   PO444856  15.558  31.110   5.439
 3328POPC   GL144857  15.296  30.985   5.814
 3328POPC   GL244858  14.929  30.884   5.908
 3328POPC   C1A44859  15.308  30.813   6.252
 3328POPC   D2A44860  15.496  30.773   6.678
 3328POPC   C3A44861  15.255  31.007   6.992
 3328POPC   C4A44862  15.072  31.002   7.405
 3328POPC   C1B44863  14.848  30.572   6.265
 3328POPC   C2B44864  15.002  30.570   6.719
 3328POPC   C3B44865  15.147  30.528   7.164
 3328POPC   C4B44866  15.032  30.559   7.667
 3329POPC   NC344867   7.982  12.067   5.414
 3329POPC   PO444868   8.604  11.940   5.489
 3329POPC   GL144869   8.357  12.117   5.793
 3329POPC   GL244870   8.136  11.827   5.864
 3329POPC   C1A44871   8.415  12.245   6.235
 3329POPC   D2A44872   8.518  12.460   6.632
 3329POPC   C3A44873   8.369  12.225   6.994
 3329POPC   C4A44874   8.334  12.245   7.425
 3329POPC   C1B44875   7.938  12.097   6.141
 3329POPC   C2B44876   7.977  12.265   6.546
 3329POPC   C3B44877   7.860  12.031   6.889
 3329POPC   C4B44878   7.924  11.907   7.344
 3330POPC   NC344879  11.327  28.675   5.441
 3330POPC   PO444880  11.030  28.038   5.557
 3330POPC   GL144881  11.088  28.354   5.815
 3330POPC   GL244882  11.408  28.428   5.912
 3330POPC   C1A44883  10.994  28.504   6.220
 3330POPC   D2A44884  11.207  28.483   6.609
 3330POPC   C3A44885  10.980  28.481   6.972
 3330POPC   C4A44886  11.142  28.383   7.360
 3330POPC   C1B44887  11.460  28.731   6.235
 3330POPC   C2B44888  11.647  28.743   6.648
 3330POPC   C3B44889  11.539  28.539   7.019
 3330POPC   C4B44890  11.719  28.616   7.388
 3331POPC   NC344891  35.611   4.312   5.347
 3331POPC   PO444892  35.108   3.904   5.398
 3331POPC   GL144893  35.091   4.073   5.833
 3331POPC   GL244894  35.406   4.284   5.860
 3331POPC   C1A44895  35.204   4.069   6.295
 3331POPC   D2A44896  35.440   4.203   6.646
 3331POPC   C3A44897  35.349   4.009   7.015
 3331POPC   C4A44898  35.036   4.096   7.297
 3331POPC   C1B44899  35.293   4.565   6.221
 3331POPC   C2B44900  35.381   4.736   6.653
 3331POPC   C3B44901  35.272   4.512   7.041
 3331POPC   C4B44902  35.421   4.401   7.474
 3332POPC   NC344903  10.077  19.335   5.494
 3332POPC   PO444904   9.814  18.733   5.401
 3332POPC   GL144905   9.830  19.037   5.806
 3332POPC   GL244906   9.694  19.423   5.831
 3332POPC   C1A44907   9.848  19.189   6.253
 3332POPC   D2A44908   9.715  18.921   6.574
 3332POPC   C3A44909   9.842  18.928   6.969
 3332POPC   C4A44910  10.245  18.968   7.087
 3332POPC   C1B44911   9.473  19.575   6.219
 3332POPC   C2B44912   9.527  19.559   6.699
 3332POPC   C3B44913   9.535  19.484   7.169
 3332POPC   C4B44914   9.428  19.369   7.613
 3333POPC   NC344915  39.132  14.094   5.219
 3333POPC   PO444916  39.387  13.504   5.547
 3333POPC   GL144917  39.099  13.612   5.873
 3333POPC   GL244918  38.888  13.826   5.666
 3333POPC   C1A44919  39.071  13.497   6.326
 3333POPC   D2A44920  39.291  13.711   6.686
 3333POPC   C3A44921  39.415  13.556   7.091
 3333POPC   C4A44922  39.159  13.553   7.434
 3333POPC   C1B44923  38.783  13.957   6.108
 3333POPC   C2B44924  38.826  13.896   6.570
 3333POPC   C3B44925  38.892  13.812   7.044
 3333POPC   C4B44926  38.749  13.846   7.503
 3334POPC   NC344927  33.875  15.020   5.199
 3334POPC   PO444928  33.484  15.540   5.289
 3334POPC   GL144929  33.661  15.311   5.690
 3334POPC   GL244930  33.523  14.982   5.605
 3334POPC   C1A44931  33.831  15.357   6.157
 3334POPC   D2A44932  33.661  15.407   6.623
 3334POPC   C3A44933  33.878  15.430   7.066
 3334POPC   C4A44934  34.151  15.310   7.481
 3334POPC   C1B44935  33.472  14.963   6.068
 3334POPC   C2B44936  33.780  14.903   6.423
 3334POPC   C3B44937  33.789  14.926   6.863
 3334POPC   C4B44938  33.894  14.925   7.282
 3335POPC   NC344939   1.858   4.549   5.331
 3335POPC   PO444940   1.981   3.843   5.287
 3335POPC   GL144941   2.013   4.143   5.669
 3335POPC   GL244942   1.695   4.248   5.821
 3335POPC   C1A44943   2.192   4.327   6.077
 3335POPC   D2A44944   2.386   4.470   6.491
 3335POPC   C3A44945   2.148   4.349   6.866
 3335POPC   C4A44946   2.122   4.536   7.257
 3335POPC   C1B44947   1.669   4.330   6.290
 3335POPC   C2B44948   1.666   4.164   6.745
 3335POPC   C3B44949   1.738   4.165   7.226
 3335POPC   C4B44950   1.704   4.017   7.710
 3336POPC   NC344951   8.858   0.918   5.067
 3336POPC   PO444952   9.121   1.441   5.507
 3336POPC   GL144953   8.991   1.434   5.946
 3336POPC   GL244954   8.658   1.622   5.925
 3336POPC   C1A44955   8.956   1.192   6.370
 3336POPC   D2A44956   8.633   1.001   6.676
 3336POPC   C3A44957   8.837   0.797   7.077
 3336POPC   C4A44958   9.204   1.007   7.275
 3336POPC   C1B44959   8.779   1.690   6.357
 3336POPC   C2B44960   9.197   1.632   6.517
 3336POPC   C3B44961   9.195   1.459   6.917
 3336POPC   C4B44962   8.810   1.295   7.073
 3337POPC   NC344963  22.009  15.395   5.552
 3337POPC   PO444964  21.487  15.125   5.211
 3337POPC   GL144965  21.523  15.273   5.669
 3337POPC   GL244966  21.482  14.941   5.811
 3337POPC   C1A44967  21.543  15.296   6.151
 3337POPC   D2A44968  21.554  15.050   6.545
 3337POPC   C3A44969  21.321  15.124   6.903
 3337POPC   C4A44970  21.450  15.158   7.293
 3337POPC   C1B44971  21.248  14.825   6.199
 3337POPC   C2B44972  21.173  14.642   6.635
 3337POPC   C3B44973  21.137  14.681   7.091
 3337POPC   C4B44974  20.889  14.966   7.328
 3338POPC   NC344975  15.793  39.233   5.405
 3338POPC   PO444976  16.452  39.583   5.548
 3338POPC   GL144977  16.291  39.232   5.860
 3338POPC   GL244978  15.938  39.110   5.862
 3338POPC   C1A44979  16.183  39.172   6.299
 3338POPC   D2A44980  16.307  39.131   6.690
 3338POPC   C3A44981  16.016  39.278   6.941
 3338POPC   C4A44982  15.986  39.136   7.329
 3338POPC   C1B44983  15.672  39.027   6.204
 3338POPC   C2B44984  15.636  39.162   6.629
 3338POPC   C3B44985  15.644  38.897   7.041
 3338POPC   C4B44986  15.676  38.795   7.547
 3339POPC   NC344987  14.961  33.189   5.495
 3339POPC   PO444988  15.350  32.729   5.536
 3339POPC   GL144989  15.323  32.955   5.872
 3339POPC   GL244990  15.029  32.818   5.945
 3339POPC   C1A44991  15.365  33.172   6.259
 3339POPC   D2A44992  15.343  32.948   6.601
 3339POPC   C3A44993  15.288  33.170   6.959
 3339POPC   C4A44994  15.104  32.871   7.156
 3339POPC   C1B44995  14.861  32.999   6.279
 3339POPC   C2B44996  14.895  33.214   6.638
 3339POPC   C3B44997  14.698  33.164   7.013
 3339POPC   C4B44998  14.840  33.199   7.447
 3340POPC   NC344999  24.551  41.945   5.447
 3340POPC   PO445000  24.185  42.588   5.532
 3340POPC   GL145001  24.529  42.428   5.766
 3340POPC   GL245002  24.445  42.144   5.934
 3340POPC   C1A45003  24.680  42.588   6.133
 3340POPC   D2A45004  24.441  42.448   6.450
 3340POPC   C3A45005  24.559  42.461   6.837
 3340POPC   C4A45006  24.659  42.168   7.142
 3340POPC   C1B45007  24.231  41.976   6.337
 3340POPC   C2B45008  24.232  42.058   6.792
 3340POPC   C3B45009  24.182  42.001   7.236
 3340POPC   C4B45010  24.148  41.997   7.701
 3341POPC   NC345011  37.392   8.581   5.606
 3341POPC   PO445012  37.977   8.877   5.407
 3341POPC   GL145013  37.835   8.958   5.856
 3341POPC   GL245014  37.511   8.847   6.013
 3341POPC   C1A45015  37.804   9.109   6.313
 3341POPC   D2A45016  37.790   8.932   6.717
 3341POPC   C3A45017  37.939   9.052   7.100
 3341POPC   C4A45018  37.947   9.162   7.513
 3341POPC   C1B45019  37.223   8.902   6.339
 3341POPC   C2B45020  37.277   8.832   6.773
 3341POPC   C3B45021  37.312   8.623   7.149
 3341POPC   C4B45022  37.510   8.924   7.382
 3342POPC   NC345023   1.179  20.360   5.316
 3342POPC   PO445024   1.036  21.083   5.458
 3342POPC   GL145025   1.094  20.741   5.755
 3342POPC   GL245026   1.411  20.796   5.904
 3342POPC   C1A45027   1.143  20.428   6.126
 3342POPC   D2A45028   1.399  20.433   6.498
 3342POPC   C3A45029   1.238  20.268   6.864
 3342POPC   C4A45030   0.968  20.409   7.184
 3342POPC   C1B45031   1.209  20.920   6.291
 3342POPC   C2B45032   1.179  21.022   6.713
 3342POPC   C3B45033   1.115  20.877   7.077
 3342POPC   C4B45034   1.470  20.635   7.129
 3343POPC   NC345035   1.711  15.205   5.491
 3343POPC   PO445036   2.194  15.611   5.630
 3343POPC   GL145037   2.057  15.295   5.870
 3343POPC   GL245038   2.275  15.002   5.894
 3343POPC   C1A45039   1.898  15.269   6.267
 3343POPC   D2A45040   2.092  15.164   6.637
 3343POPC   C3A45041   1.934  15.351   7.026
 3343POPC   C4A45042   1.905  15.192   7.439
 3343POPC   C1B45043   1.938  14.782   6.115
 3343POPC   C2B45044   1.762  14.782   6.522
 3343POPC   C3B45045   1.814  14.841   6.975
 3343POPC   C4B45046   1.542  14.805   7.342
 3344POPC   NC345047   7.345   0.953   5.546
 3344POPC   PO445048   7.620   1.620   5.456
 3344POPC   GL145049   7.583   1.349   5.797
 3344POPC   GL245050   7.221   1.333   5.859
 3344POPC   C1A45051   7.605   1.166   6.201
 3344POPC   D2A45052   7.281   1.021   6.457
 3344POPC   C3A45053   7.199   1.108   6.895
 3344POPC   C4A45054   7.464   1.081   7.230
 3344POPC   C1B45055   7.213   1.511   6.278
 3344POPC   C2B45056   7.154   1.589   6.742
 3344POPC   C3B45057   7.256   1.570   7.186
 3344POPC   C4B45058   7.166   1.751   7.605
 3345POPC   NC345059   4.916  38.119   5.447
 3345POPC   PO445060   5.179  38.800   5.434
 3345POPC   GL145061   5.082  38.544   5.780
 3345POPC   GL245062   5.242  38.224   5.867
 3345POPC   C1A45063   5.215  38.643   6.193
 3345POPC   D2A45064   5.120  38.954   6.495
 3345POPC   C3A45065   5.064  38.754   6.880
 3345POPC   C4A45066   5.039  38.647   7.299
 3345POPC   C1B45067   4.975  38.161   6.252
 3345POPC   C2B45068   4.938  38.261   6.713
 3345POPC   C3B45069   5.195  38.203   7.113
 3345POPC   C4B45070   5.153  38.146   7.583
 3346POPC   NC345071  33.177   7.737   5.225
 3346POPC   PO445072  32.903   7.179   5.272
 3346POPC   GL145073  33.053   7.444   5.652
 3346POPC   GL245074  33.292   7.251   5.859
 3346POPC   C1A45075  33.007   7.651   6.088
 3346POPC   D2A45076  32.805   7.551   6.501
 3346POPC   C3A45077  32.963   7.548   6.919
 3346POPC   C4A45078  33.090   7.817   7.234
 3346POPC   C1B45079  33.100   7.177   6.295
 3346POPC   C2B45080  33.066   7.070   6.763
 3346POPC   C3B45081  32.805   6.985   7.158
 3346POPC   C4B45082  32.801   7.090   7.633
 3347POPC   NC345083  43.919  30.607   5.339
 3347POPC   PO445084  44.046  31.250   5.591
 3347POPC   GL145085  43.989  30.867   5.836
 3347POPC   GL245086  43.631  30.756   5.783
 3347POPC   C1A45087  43.865  30.681   6.246
 3347POPC   D2A45088  43.538  30.526   6.517
 3347POPC   C3A45089  43.766  30.400   6.886
 3347POPC   C4A45090  44.017  30.695   7.150
 3347POPC   C1B45091  43.559  31.064   6.139
 3347POPC   C2B45092  43.643  31.058   6.606
 3347POPC   C3B45093  43.560  30.865   7.027
 3347POPC   C4B45094  43.540  30.484   7.327
 3348POPC   NC345095  28.698   4.304   4.916
 3348POPC   PO445096  28.955   4.291   5.451
 3348POPC   GL145097  29.070   4.193   5.873
 3348POPC   GL245098  28.879   4.443   5.990
 3348POPC   C1A45099  29.231   4.255   6.317
 3348POPC   D2A45100  29.035   4.260   6.728
 3348POPC   C3A45101  29.177   4.133   7.148
 3348POPC   C4A45102  29.450   4.253   7.507
 3348POPC   C1B45103  28.885   4.637   6.372
 3348POPC   C2B45104  29.076   4.756   6.749
 3348POPC   C3B45105  29.285   4.632   7.136
 3348POPC   C4B45106  29.056   4.614   7.539
 3349POPC   NC345107  25.537   8.093   5.062
 3349POPC   PO445108  24.866   8.061   5.219
 3349POPC   GL145109  24.906   8.165   5.709
 3349POPC   GL245110  25.233   8.287   5.909
 3349POPC   C1A45111  24.850   8.143   6.194
 3349POPC   D2A45112  25.094   8.133   6.572
 3349POPC   C3A45113  24.996   8.041   7.002
 3349POPC   C4A45114  25.233   7.944   7.404
 3349POPC   C1B45115  25.405   8.492   6.284
 3349POPC   C2B45116  25.536   8.344   6.699
 3349POPC   C3B45117  25.594   8.183   7.116
 3349POPC   C4B45118  25.763   7.891   7.426
 3350POPC   NC345119  30.596  17.078   5.409
 3350POPC   PO445120  30.611  16.409   5.357
 3350POPC   GL145121  30.674  16.645   5.727
 3350POPC   GL245122  30.940  16.430   5.798
 3350POPC   C1A45123  30.453  16.704   6.133
 3350POPC   D2A45124  30.405  16.485   6.539
 3350POPC   C3A45125  30.462  16.665   6.976
 3350POPC   C4A45126  30.555  16.484   7.380
 3350POPC   C1B45127  30.930  16.569   6.226
 3350POPC   C2B45128  30.838  16.732   6.616
 3350POPC   C3B45129  30.979  16.644   7.025
 3350POPC   C4B45130  31.099  16.426   7.382
 3351POPC   NC345131  17.453   9.229   5.489
 3351POPC   PO445132  17.400   9.927   5.470
 3351POPC   GL145133  17.633   9.794   5.844
 3351POPC   GL245134  17.656   9.447   5.895
 3351POPC   C1A45135  17.607   9.733   6.299
 3351POPC   D2A45136  17.672   9.500   6.679
 3351POPC   C3A45137  17.583   9.790   7.043
 3351POPC   C4A45138  17.732   9.953   7.456
 3351POPC   C1B45139  17.306   9.308   6.188
 3351POPC   C2B45140  17.333   9.122   6.611
 3351POPC   C3B45141  17.315   9.337   7.008
 3351POPC   C4B45142  17.340   9.526   7.421
 3352POPC   NC345143  39.083  42.889   5.563
 3352POPC   PO445144  39.539  43.260   5.342
 3352POPC   GL145145  39.305  43.358   5.728
 3352POPC   GL245146  38.932  43.338   5.784
 3352POPC   C1A45147  39.336  43.132   6.130
 3352POPC   D2A45148  39.237  43.136   6.540
 3352POPC   C3A45149  39.493  42.957   6.826
 3352POPC   C4A45150  39.472  43.148   7.231
 3352POPC   C1B45151  38.840  43.074   6.178
 3352POPC   C2B45152  38.792  42.931   6.642
 3352POPC   C3B45153  39.018  43.041   7.026
 3352POPC   C4B45154  39.062  42.941   7.500
 3353POPC   NC345155  33.126  19.081   5.372
 3353POPC   PO445156  32.489  18.993   5.289
 3353POPC   GL145157  32.596  19.039   5.763
 3353POPC   GL245158  32.898  18.853   5.862
 3353POPC   C1A45159  32.645  19.170   6.221
 3353POPC   D2A45160  32.929  19.248   6.593
 3353POPC   C3A45161  32.876  19.020   7.022
 3353POPC   C4A45162  33.141  18.806   7.400
 3353POPC   C1B45163  33.192  19.127   6.081
 3353POPC   C2B45164  33.433  19.236   6.452
 3353POPC   C3B45165  33.339  19.365   6.886
 3353POPC   C4B45166  33.186  19.304   7.291
 3354POPC   NC345167  19.281  27.791   5.594
 3354POPC   PO445168  18.611  27.580   5.602
 3354POPC   GL145169  18.907  27.606   5.867
 3354POPC   GL245170  18.802  27.961   5.867
 3354POPC   C1A45171  19.143  27.738   6.240
 3354POPC   D2A45172  19.175  27.848   6.662
 3354POPC   C3A45173  19.076  27.496   6.937
 3354POPC   C4A45174  19.360  27.488   7.280
 3354POPC   C1B45175  18.625  27.825   6.221
 3354POPC   C2B45176  18.709  27.661   6.587
 3354POPC   C3B45177  18.701  27.873   6.933
 3354POPC   C4B45178  18.971  27.843   7.296
 3355POPC   NC345179   3.695  13.500   5.405
 3355POPC   PO445180   3.510  12.869   5.414
 3355POPC   GL145181   3.402  13.179   5.760
 3355POPC   GL245182   3.352  13.565   5.778
 3355POPC   C1A45183   3.573  13.307   6.165
 3355POPC   D2A45184   3.606  13.121   6.574
 3355POPC   C3A45185   3.505  13.343   6.947
 3355POPC   C4A45186   3.481  13.710   7.225
 3355POPC   C1B45187   3.317  13.764   6.221
 3355POPC   C2B45188   3.374  13.809   6.686
 3355POPC   C3B45189   3.111  13.979   7.026
 3355POPC   C4B45190   3.001  13.887   7.471
 3356POPC   NC345191  24.453  35.222   5.345
 3356POPC   PO445192  24.722  35.775   5.506
 3356POPC   GL145193  24.510  35.490   5.784
 3356POPC   GL245194  24.810  35.299   5.823
 3356POPC   C1A45195  24.443  35.301   6.195
 3356POPC   D2A45196  24.679  35.412   6.563
 3356POPC   C3A45197  24.521  35.252   6.954
 3356POPC   C4A45198  24.692  35.444   7.326
 3356POPC   C1B45199  24.809  34.960   6.143
 3356POPC   C2B45200  24.600  34.911   6.535
 3356POPC   C3B45201  24.790  34.836   6.932
 3356POPC   C4B45202  24.648  34.754   7.304
 3357POPC   NC345203   6.601   3.121   5.487
 3357POPC   PO445204   6.503   3.770   5.209
 3357POPC   GL145205   6.606   3.718   5.717
 3357POPC   GL245206   6.816   3.475   5.824
 3357POPC   C1A45207   6.433   3.483   6.152
 3357POPC   D2A45208   6.679   3.393   6.537
 3357POPC   C3A45209   6.520   3.491   6.977
 3357POPC   C4A45210   6.635   3.406   7.444
 3357POPC   C1B45211   6.801   3.806   6.219
 3357POPC   C2B45212   6.826   3.863   6.703
 3357POPC   C3B45213   6.993   3.614   7.094
 3357POPC   C4B45214   7.110   3.667   7.557
 3358POPC   NC345215   1.535  41.157   5.623
 3358POPC   PO445216   1.395  40.611   5.356
 3358POPC   GL145217   1.226  40.711   5.734
 3358POPC   GL245218   1.053  41.005   5.714
 3358POPC   C1A45219   1.185  40.520   6.124
 3358POPC   D2A45220   1.041  40.341   6.520
 3358POPC   C3A45221   1.148  40.630   6.845
 3358POPC   C4A45222   1.093  40.611   7.262
 3358POPC   C1B45223   1.041  41.167   6.124
 3358POPC   C2B45224   0.964  41.307   6.544
 3358POPC   C3B45225   1.133  41.445   6.931
 3358POPC   C4B45226   1.197  41.115   7.228
 3359POPC   NC345227  20.085  26.113   5.472
 3359POPC   PO445228  19.386  26.084   5.438
 3359POPC   GL145229  19.672  26.082   5.762
 3359POPC   GL245230  19.600  25.755   5.809
 3359POPC   C1A45231  19.960  26.110   6.117
 3359POPC   D2A45232  19.892  26.326   6.510
 3359POPC   C3A45233  20.068  26.383   6.913
 3359POPC   C4A45234  20.097  26.082   7.276
 3359POPC   C1B45235  19.502  25.937   6.218
 3359POPC   C2B45236  19.791  25.833   6.528
 3359POPC   C3B45237  19.788  25.913   6.924
 3359POPC   C4B45238  19.503  25.982   7.262
 3360POPC   NC345239   2.937   5.646   5.612
 3360POPC   PO445240   2.485   6.071   5.542
 3360POPC   GL145241   2.751   6.037   5.893
 3360POPC   GL245242   2.994   6.241   5.755
 3360POPC   C1A45243   2.789   5.790   6.296
 3360POPC   D2A45244   2.989   5.560   6.663
 3360POPC   C3A45245   2.849   5.685   7.085
 3360POPC   C4A45246   2.569   5.986   7.279
 3360POPC   C1B45247   2.879   6.430   6.191
 3360POPC   C2B45248   3.027   6.424   6.622
 3360POPC   C3B45249   3.128   6.081   6.910
 3360POPC   C4B45250   3.059   6.100   7.367
 3361POPC   NC345251  21.017  30.794   5.365
 3361POPC   PO445252  21.502  30.545   5.510
 3361POPC   GL145253  21.257  30.751   5.835
 3361POPC   GL245254  21.142  30.463   5.980
 3361POPC   C1A45255  21.209  30.863   6.305
 3361POPC   D2A45256  21.142  30.572   6.686
 3361POPC   C3A45257  21.291  30.749   7.116
 3361POPC   C4A45258  21.169  31.169   7.263
 3361POPC   C1B45259  21.492  30.443   6.312
 3361POPC   C2B45260  21.619  30.416   6.775
 3361POPC   C3B45261  21.479  30.268   7.197
 3361POPC   C4B45262  21.269  30.470   7.534
 3362POPC   NC345263  28.686  24.808   5.472
 3362POPC   PO445264  28.893  25.393   5.375
 3362POPC   GL145265  29.036  25.153   5.693
 3362POPC   GL245266  28.728  25.215   5.842
 3362POPC   C1A45267  29.288  25.038   6.047
 3362POPC   D2A45268  29.347  25.080   6.509
 3362POPC   C3A45269  29.160  25.310   6.816
 3362POPC   C4A45270  29.196  25.241   7.267
 3362POPC   C1B45271  28.841  25.165   6.267
 3362POPC   C2B45272  28.749  25.029   6.662
 3362POPC   C3B45273  28.712  25.237   7.042
 3362POPC   C4B45274  28.736  25.146   7.489
 3363POPC   NC345275  32.697  44.150   5.446
 3363POPC   PO445276  32.088  43.697   5.347
 3363POPC   GL145277  31.989  43.987   5.689
 3363POPC   GL245278  32.310  44.096   5.767
 3363POPC   C1A45279  32.023  43.938   6.154
 3363POPC   D2A45280  32.203  43.801   6.558
 3363POPC   C3A45281  32.099  43.985   6.987
 3363POPC   C4A45282  32.414  44.165   7.252
 3363POPC   C1B45283  32.545  43.984   6.157
 3363POPC   C2B45284  32.728  43.823   6.551
 3363POPC   C3B45285  32.550  43.746   6.963
 3363POPC   C4B45286  32.421  43.686   7.395
 3364POPC   NC345287  32.390   5.641   5.281
 3364POPC   PO445288  31.866   5.778   5.349
 3364POPC   GL145289  32.187   5.747   5.741
 3364POPC   GL245290  32.572   5.648   5.769
 3364POPC   C1A45291  32.131   5.592   6.174
 3364POPC   D2A45292  31.897   5.670   6.573
 3364POPC   C3A45293  32.108   5.690   6.967
 3364POPC   C4A45294  32.292   6.043   7.155
 3364POPC   C1B45295  32.589   5.828   6.217
 3364POPC   C2B45296  32.526   5.940   6.679
 3364POPC   C3B45297  32.780   6.054   7.043
 3364POPC   C4B45298  32.686   6.017   7.528
 3365POPC   NC345299   0.632  24.835   5.432
 3365POPC   PO445300   1.100  24.318   5.261
 3365POPC   GL145301   1.108  24.588   5.627
 3365POPC   GL245302   0.823  24.578   5.842
 3365POPC   C1A45303   1.346  24.523   6.020
 3365POPC   D2A45304   1.341  24.226   6.358
 3365POPC   C3A45305   1.286  24.351   6.793
 3365POPC   C4A45306   1.527  24.523   7.145
 3365POPC   C1B45307   0.951  24.764   6.259
 3365POPC   C2B45308   0.988  24.785   6.727
 3365POPC   C3B45309   0.933  24.543   7.112
 3365POPC   C4B45310   1.169  24.196   7.275
 3366POPC   NC345311  16.564  32.851   5.386
 3366POPC   PO445312  17.065  33.248   5.530
 3366POPC   GL145313  16.751  33.080   5.800
 3366POPC   GL245314  16.418  33.243   5.675
 3366POPC   C1A45315  16.777  32.997   6.247
 3366POPC   D2A45316  16.882  33.209   6.648
 3366POPC   C3A45317  16.773  32.938   6.994
 3366POPC   C4A45318  16.880  32.947   7.410
 3366POPC   C1B45319  16.323  33.154   6.065
 3366POPC   C2B45320  16.432  33.392   6.413
 3366POPC   C3B45321  16.415  33.281   6.825
 3366POPC   C4B45322  16.343  33.181   7.245
 3367POPC   NC345323   8.671  12.382   5.387
 3367POPC   PO445324   9.042  12.956   5.565
 3367POPC   GL145325   8.909  12.751   5.901
 3367POPC   GL245326   9.204  12.560   5.959
 3367POPC   C1A45327   9.030  12.877   6.331
 3367POPC   D2A45328   9.174  13.216   6.571
 3367POPC   C3A45329   9.086  13.201   7.044
 3367POPC   C4A45330   9.309  12.897   7.295
 3367POPC   C1B45331   8.914  12.393   6.277
 3367POPC   C2B45332   9.284  12.461   6.535
 3367POPC   C3B45333   9.170  12.757   6.825
 3367POPC   C4B45334   8.765  12.785   7.046
 3368POPC   NC345335  29.227  29.384   5.449
 3368POPC   PO445336  29.770  28.902   5.341
 3368POPC   GL145337  29.470  28.815   5.728
 3368POPC   GL245338  29.100  28.942   5.762
 3368POPC   C1A45339  29.402  29.005   6.180
 3368POPC   D2A45340  29.116  29.217   6.506
 3368POPC   C3A45341  29.195  29.287   6.944
 3368POPC   C4A45342  29.227  28.915   7.150
 3368POPC   C1B45343  28.918  29.287   6.041
 3368POPC   C2B45344  28.756  29.574   6.416
 3368POPC   C3B45345  28.754  29.586   6.901
 3368POPC   C4B45346  28.801  29.427   7.354
 3369POPC   NC345347   2.451  34.972   5.529
 3369POPC   PO445348   2.584  34.353   5.364
 3369POPC   GL145349   2.815  34.481   5.760
 3369POPC   GL245350   2.591  34.657   5.918
 3369POPC   C1A45351   2.885  34.319   6.187
 3369POPC   D2A45352   2.693  34.563   6.496
 3369POPC   C3A45353   2.708  34.387   6.860
 3369POPC   C4A45354   2.924  34.435   7.218
 3369POPC   C1B45355   2.251  34.761   6.180
 3369POPC   C2B45356   2.308  34.899   6.597
 3369POPC   C3B45357   2.263  34.649   6.932
 3369POPC   C4B45358   2.457  34.620   7.307
 3370POPC   NC345359  14.453  18.697   5.504
 3370POPC   PO445360  14.548  19.353   5.395
 3370POPC   GL145361  14.613  19.120   5.789
 3370POPC   GL245362  14.872  18.847   5.843
 3370POPC   C1A45363  14.282  19.026   6.108
 3370POPC   D2A45364  14.105  19.288   6.433
 3370POPC   C3A45365  14.154  19.163   6.852
 3370POPC   C4A45366  14.301  19.014   7.224
 3370POPC   C1B45367  14.752  18.991   6.279
 3370POPC   C2B45368  14.646  19.012   6.706
 3370POPC   C3B45369  14.817  18.982   7.100
 3370POPC   C4B45370  14.642  18.691   7.390
 3371POPC   NC345371  38.489   3.683   5.326
 3371POPC   PO445372  38.370   3.093   5.693
 3371POPC   GL145373  38.202   3.517   5.722
 3371POPC   GL245374  38.525   3.698   5.823
 3371POPC   C1A45375  38.098   3.641   6.129
 3371POPC   D2A45376  38.206   3.368   6.499
 3371POPC   C3A45377  38.152   3.567   6.885
 3371POPC   C4A45378  38.183   3.393   7.282
 3371POPC   C1B45379  38.602   3.533   6.217
 3371POPC   C2B45380  38.616   3.688   6.648
 3371POPC   C3B45381  38.639   3.570   7.107
 3371POPC   C4B45382  38.699   3.511   7.568
 3372POPC   NC345383  26.997  43.097   5.552
 3372POPC   PO445384  26.444  42.970   5.289
 3372POPC   GL145385  26.491  43.022   5.759
 3372POPC   GL245386  26.598  43.338   5.988
 3372POPC   C1A45387  26.712  42.851   6.148
 3372POPC   D2A45388  26.815  43.000   6.571
 3372POPC   C3A45389  26.482  43.132   6.856
 3372POPC   C4A45390  26.614  43.085   7.262
 3372POPC   C1B45391  27.048  43.262   6.189
 3372POPC   C2B45392  27.247  43.320   6.609
 3372POPC   C3B45393  27.141  43.353   7.054
 3372POPC   C4B45394  27.099  43.073   7.412
 3373POPC   NC345395  37.061   2.615   5.582
 3373POPC   PO445396  36.522   3.038   5.493
 3373POPC   GL145397  36.746   2.915   5.871
 3373POPC   GL245398  36.689   2.550   5.984
 3373POPC   C1A45399  36.910   2.909   6.301
 3373POPC   D2A45400  36.852   2.594   6.634
 3373POPC   C3A45401  36.829   2.854   7.002
 3373POPC   C4A45402  37.156   3.191   7.091
 3373POPC   C1B45403  37.095   2.434   6.209
 3373POPC   C2B45404  37.317   2.390   6.586
 3373POPC   C3B45405  37.154   2.470   7.019
 3373POPC   C4B45406  36.673   2.368   7.062
 3374POPC   NC345407   4.444  34.979   5.442
 3374POPC   PO445408   4.135  35.538   5.458
 3374POPC   GL145409   4.337  35.444   5.839
 3374POPC   GL245410   4.416  35.100   5.930
 3374POPC   C1A45411   4.439  35.441   6.288
 3374POPC   D2A45412   4.428  35.227   6.703
 3374POPC   C3A45413   4.427  35.528   7.032
 3374POPC   C4A45414   4.164  35.555   7.377
 3374POPC   C1B45415   4.180  34.979   6.302
 3374POPC   C2B45416   4.000  34.930   6.711
 3374POPC   C3B45417   4.152  34.958   7.107
 3374POPC   C4B45418   4.536  35.093   7.281
 3375POPC   NC345419  44.701  30.370   5.093
 3375POPC   PO445420  44.907  29.849   5.499
 3375POPC   GL145421  44.803  29.959   5.890
 3375POPC   GL245422  44.829  29.612   5.951
 3375POPC   C1A45423  44.839  30.046   6.337
 3375POPC   D2A45424   0.081  30.017   6.703
 3375POPC   C3A45425  44.835  29.911   7.047
 3375POPC   C4A45426  44.507  30.150   7.159
 3375POPC   C1B45427  44.509  29.647   6.236
 3375POPC   C2B45428  44.558  29.703   6.654
 3375POPC   C3B45429  44.515  29.503   7.011
 3375POPC   C4B45430  44.513  29.679   7.381
 3376POPC   NC345431   4.438   1.914   5.371
 3376POPC   PO445432   3.768   1.964   5.471
 3376POPC   GL145433   4.145   1.947   5.789
 3376POPC   GL245434   4.404   1.689   5.864
 3376POPC   C1A45435   4.406   2.132   6.139
 3376POPC   D2A45436   4.555   2.181   6.565
 3376POPC   C3A45437   4.312   2.021   6.909
 3376POPC   C4A45438   4.316   2.102   7.330
 3376POPC   C1B45439   4.540   1.635   6.335
 3376POPC   C2B45440   4.736   1.750   6.765
 3376POPC   C3B45441   4.740   1.840   7.221
 3376POPC   C4B45442   4.527   1.775   7.656
 3377POPC   NC345443  44.473  31.427   5.419
 3377POPC   PO445444   0.016  31.034   5.484
 3377POPC   GL145445  44.762  31.256   5.792
 3377POPC   GL245446  44.436  31.148   5.890
 3377POPC   C1A45447  44.631  31.585   6.093
 3377POPC   D2A45448  44.763  31.827   6.438
 3377POPC   C3A45449  44.578  31.781   6.850
 3377POPC   C4A45450  44.641  31.907   7.299
 3377POPC   C1B45451  44.674  31.095   6.258
 3377POPC   C2B45452  44.693  30.924   6.632
 3377POPC   C3B45453  44.883  31.071   7.002
 3377POPC   C4B45454  44.687  31.415   7.193
 3378POPC   NC345455  13.840  40.130   5.391
 3378POPC   PO445456  13.234  39.894   5.464
 3378POPC   GL145457  13.593  39.812   5.753
 3378POPC   GL245458  13.764  40.123   5.880
 3378POPC   C1A45459  13.543  39.823   6.217
 3378POPC   D2A45460  13.629  40.110   6.538
 3378POPC   C3A45461  13.532  39.919   6.914
 3378POPC   C4A45462  13.531  40.026   7.348
 3378POPC   C1B45463  14.056  40.076   6.227
 3378POPC   C2B45464  14.113  40.111   6.681
 3378POPC   C3B45465  14.002  40.022   7.096
 3378POPC   C4B45466  14.008  40.073   7.538
 3379POPC   NC345467  15.560  44.770   5.638
 3379POPC   PO445468  15.086  44.417   5.286
 3379POPC   GL145469  15.180  44.432   5.839
 3379POPC   GL245470  15.550  44.455   6.026
 3379POPC   C1A45471  15.193  44.693   6.303
 3379POPC   D2A45472  15.250  44.883   6.720
 3379POPC   C3A45473  14.955  44.744   7.021
 3379POPC   C4A45474  15.060  44.518   7.423
 3379POPC   C1B45475  15.314  44.205   6.292
 3379POPC   C2B45476  15.209  44.341   6.712
 3379POPC   C3B45477  15.241  44.121   7.094
 3379POPC   C4B45478  15.575  44.240   7.355
 3380POPC   NC345479  17.454  23.238   5.446
 3380POPC   PO445480  17.209  22.673   5.315
 3380POPC   GL145481  17.487  22.777   5.743
 3380POPC   GL245482  17.726  23.075   5.850
 3380POPC   C1A45483  17.500  22.819   6.224
 3380POPC   D2A45484  17.303  22.930   6.637
 3380POPC   C3A45485  17.416  22.812   7.058
 3380POPC   C4A45486  17.399  23.057   7.427
 3380POPC   C1B45487  17.904  23.114   6.304
 3380POPC   C2B45488  17.836  22.952   6.739
 3380POPC   C3B45489  17.855  23.056   7.173
 3380POPC   C4B45490  17.760  23.424   7.438
 3381POPC   NC345491  29.909  26.218   5.554
 3381POPC   PO445492  29.557  25.687   5.261
 3381POPC   GL145493  29.516  25.891   5.740
 3381POPC   GL245494  29.551  26.265   5.907
 3381POPC   C1A45495  29.544  25.881   6.226
 3381POPC   D2A45496  29.603  26.174   6.584
 3381POPC   C3A45497  29.759  26.007   6.985
 3381POPC   C4A45498  30.183  25.991   7.174
 3381POPC   C1B45499  29.962  26.213   6.198
 3381POPC   C2B45500  30.168  26.472   6.530
 3381POPC   C3B45501  30.267  26.473   6.972
 3381POPC   C4B45502  29.918  26.412   7.265
 3382POPC   NC345503  33.969  36.311   5.275
 3382POPC   PO445504  33.776  36.968   5.430
 3382POPC   GL145505  33.877  36.642   5.732
 3382POPC   GL245506  33.543  36.624   5.849
 3382POPC   C1A45507  34.048  36.729   6.157
 3382POPC   D2A45508  33.760  36.688   6.528
 3382POPC   C3A45509  33.918  36.783   6.867
 3382POPC   C4A45510  34.008  36.954   7.222
 3382POPC   C1B45511  33.440  36.884   6.206
 3382POPC   C2B45512  33.444  37.142   6.596
 3382POPC   C3B45513  33.593  37.181   7.010
 3382POPC   C4B45514  33.485  36.764   7.119
 3383POPC   NC345515   1.365   1.230   5.472
 3383POPC   PO445516   2.052   1.340   5.215
 3383POPC   GL145517   1.876   1.306   5.663
 3383POPC   GL245518   1.866   0.997   5.901
 3383POPC   C1A45519   2.036   1.452   6.064
 3383POPC   D2A45520   2.283   1.297   6.403
 3383POPC   C3A45521   2.113   1.312   6.790
 3383POPC   C4A45522   2.005   1.131   7.220
 3383POPC   C1B45523   1.792   1.102   6.347
 3383POPC   C2B45524   1.771   0.951   6.759
 3383POPC   C3B45525   1.718   0.693   7.087
 3383POPC   C4B45526   1.761   0.753   7.512
 3384POPC   NC345527  31.356   1.514   5.448
 3384POPC   PO445528  31.481   2.195   5.315
 3384POPC   GL145529  31.451   2.180   5.760
 3384POPC   GL245530  31.584   1.873   5.771
 3384POPC   C1A45531  31.332   2.033   6.184
 3384POPC   D2A45532  31.520   1.951   6.550
 3384POPC   C3A45533  31.334   2.184   6.858
 3384POPC   C4A45534  31.245   2.123   7.248
 3384POPC   C1B45535  31.583   1.578   6.099
 3384POPC   C2B45536  31.782   1.520   6.497
 3384POPC   C3B45537  31.673   1.487   6.932
 3384POPC   C4B45538  31.540   1.711   7.293
 3385POPC   NC345539  25.011  40.892   5.370
 3385POPC   PO445540  25.646  40.972   5.389
 3385POPC   GL145541  25.352  41.021   5.757
 3385POPC   GL245542  25.332  40.710   5.933
 3385POPC   C1A45543  25.228  41.127   6.196
 3385POPC   D2A45544  25.324  40.967   6.611
 3385POPC   C3A45545  25.115  40.827   7.005
 3385POPC   C4A45546  25.072  40.457   7.253
 3385POPC   C1B45547  25.617  40.588   6.300
 3385POPC   C2B45548  25.759  40.448   6.744
 3385POPC   C3B45549  25.524  40.271   7.123
 3385POPC   C4B45550  25.249  40.027   7.450
 3386POPC   NC345551  30.197  14.997   5.439
 3386POPC   PO445552  29.622  15.215   5.371
 3386POPC   GL145553  29.726  15.295   5.825
 3386POPC   GL245554  30.092  15.376   5.848
 3386POPC   C1A45555  29.846  15.136   6.256
 3386POPC   D2A45556  30.159  14.904   6.525
 3386POPC   C3A45557  30.066  14.829   6.977
 3386POPC   C4A45558  29.672  14.911   7.226
 3386POPC   C1B45559  30.327  15.320   6.244
 3386POPC   C2B45560  30.113  15.438   6.617
 3386POPC   C3B45561  30.009  15.344   7.036
 3386POPC   C4B45562  30.326  15.217   7.347
 3387POPC   NC345563  43.595  21.413   5.005
 3387POPC   PO445564  44.135  21.354   5.461
 3387POPC   GL145565  44.027  21.430   5.878
 3387POPC   GL245566  43.692  21.574   5.938
 3387POPC   C1A45567  44.253  21.381   6.249
 3387POPC   D2A45568  44.112  21.233   6.637
 3387POPC   C3A45569  44.021  21.537   6.926
 3387POPC   C4A45570  44.176  21.304   7.239
 3387POPC   C1B45571  43.697  21.267   6.285
 3387POPC   C2B45572  43.618  21.304   6.723
 3387POPC   C3B45573  43.674  21.229   7.159
 3387POPC   C4B45574  43.575  21.340   7.593
 3388POPC   NC345575  32.569  20.486   5.310
 3388POPC   PO445576  32.150  20.968   5.366
 3388POPC   GL145577  32.258  20.651   5.729
 3388POPC   GL245578  32.490  20.317   5.773
 3388POPC   C1A45579  32.404  20.617   6.180
 3388POPC   D2A45580  32.297  20.733   6.627
 3388POPC   C3A45581  32.281  20.473   7.019
 3388POPC   C4A45582  32.266  20.377   7.491
 3388POPC   C1B45583  32.457  20.065   6.123
 3388POPC   C2B45584  32.448  20.225   6.514
 3388POPC   C3B45585  32.687  20.196   6.853
 3388POPC   C4B45586  32.546  20.016   7.175
 3389POPC   NC345587  34.573  16.223   5.343
 3389POPC   PO445588  34.428  15.552   5.290
 3389POPC   GL145589  34.670  15.746   5.635
 3389POPC   GL245590  34.619  16.073   5.842
 3389POPC   C1A45591  34.793  15.639   6.038
 3389POPC   D2A45592  34.628  15.846   6.421
 3389POPC   C3A45593  34.734  15.725   6.871
 3389POPC   C4A45594  34.890  15.800   7.285
 3389POPC   C1B45595  34.244  16.222   6.078
 3389POPC   C2B45596  34.291  16.251   6.493
 3389POPC   C3B45597  34.626  16.246   6.764
 3389POPC   C4B45598  34.531  16.170   7.156
 3390POPC   NC345599  41.548  19.285   5.417
 3390POPC   PO445600  41.477  18.579   5.425
 3390POPC   GL145601  41.611  18.825   5.807
 3390POPC   GL245602  41.721  19.186   5.882
 3390POPC   C1A45603  41.383  18.934   6.217
 3390POPC   D2A45604  41.411  19.076   6.662
 3390POPC   C3A45605  41.164  18.868   7.046
 3390POPC   C4A45606  41.226  18.870   7.516
 3390POPC   C1B45607  41.812  19.223   6.329
 3390POPC   C2B45608  41.838  19.538   6.626
 3390POPC   C3B45609  41.625  19.445   6.983
 3390POPC   C4B45610  41.612  19.042   7.149
 3391POPC   NC345611  40.401  39.462   5.677
 3391POPC   PO445612  40.928  39.080   5.357
 3391POPC   GL145613  40.824  39.187   5.792
 3391POPC   GL245614  41.009  39.483   5.850
 3391POPC   C1A45615  40.712  39.054   6.243
 3391POPC   D2A45616  40.907  38.960   6.674
 3391POPC   C3A45617  40.665  39.030   7.092
 3391POPC   C4A45618  40.678  38.841   7.546
 3391POPC   C1B45619  40.839  39.540   6.283
 3391POPC   C2B45620  40.669  39.414   6.696
 3391POPC   C3B45621  40.562  39.559   7.120
 3391POPC   C4B45622  40.558  39.750   7.542
 3392POPC   NC345623  21.664  11.370   5.406
 3392POPC   PO445624  21.206  10.872   5.481
 3392POPC   GL145625  21.492  11.100   5.803
 3392POPC   GL245626  21.410  11.482   5.829
 3392POPC   C1A45627  21.622  11.269   6.241
 3392POPC   D2A45628  21.483  11.427   6.643
 3392POPC   C3A45629  21.456  11.197   7.044
 3392POPC   C4A45630  21.167  11.093   7.398
 3392POPC   C1B45631  21.328  11.700   6.213
 3392POPC   C2B45632  21.393  11.940   6.601
 3392POPC   C3B45633  21.420  11.764   7.006
 3392POPC   C4B45634  21.124  11.574   7.230
 3393POPC   NC345635   3.657   8.883   5.467
 3393POPC   PO445636   3.087   9.024   5.211
 3393POPC   GL145637   3.229   8.991   5.717
 3393POPC   GL245638   3.577   9.195   5.843
 3393POPC   C1A45639   3.398   8.792   6.104
 3393POPC   D2A45640   3.205   8.819   6.484
 3393POPC   C3A45641   3.398   8.798   6.879
 3393POPC   C4A45642   3.346   9.010   7.239
 3393POPC   C1B45643   3.737   9.280   6.214
 3393POPC   C2B45644   3.721   8.970   6.510
 3393POPC   C3B45645   3.905   8.909   6.888
 3393POPC   C4B45646   3.824   9.219   7.206
 3394POPC   NC345647  25.490  14.967   5.415
 3394POPC   PO445648  24.868  14.785   5.541
 3394POPC   GL145649  25.111  14.966   5.851
 3394POPC   GL245650  25.282  15.269   5.759
 3394POPC   C1A45651  25.360  14.990   6.227
 3394POPC   D2A45652  25.171  15.191   6.600
 3394POPC   C3A45653  25.269  15.065   7.003
 3394POPC   C4A45654  24.962  15.130   7.290
 3394POPC   C1B45655  25.086  15.394   6.137
 3394POPC   C2B45656  25.319  15.637   6.435
 3394POPC   C3B45657  25.363  15.684   6.880
 3394POPC   C4B45658  25.245  15.552   7.303
 3395POPC   NC345659  18.435   9.090   5.359
 3395POPC   PO445660  17.989   8.542   5.260
 3395POPC   GL145661  18.176   8.750   5.705
 3395POPC   GL245662  18.343   9.108   5.855
 3395POPC   C1A45663  18.123   8.821   6.191
 3395POPC   D2A45664  18.160   9.228   6.497
 3395POPC   C3A45665  18.206   9.153   6.948
 3395POPC   C4A45666  18.169   8.759   7.161
 3395POPC   C1B45667  18.573   9.009   6.267
 3395POPC   C2B45668  18.467   8.801   6.651
 3395POPC   C3B45669  18.690   8.703   7.016
 3395POPC   C4B45670  18.657   8.879   7.451
 3396POPC   NC345671  11.052  36.936   5.476
 3396POPC   PO445672  11.553  37.304   5.524
 3396POPC   GL145673  11.512  37.186   5.968
 3396POPC   GL245674  11.239  36.912   5.980
 3396POPC   C1A45675  11.460  37.059   6.429
 3396POPC   D2A45676  11.260  36.705   6.657
 3396POPC   C3A45677  11.233  36.761   7.087
 3396POPC   C4A45678  11.671  36.789   7.146
 3396POPC   C1B45679  10.939  36.979   6.344
 3396POPC   C2B45680  10.955  37.110   6.806
 3396POPC   C3B45681  11.013  37.302   7.238
 3396POPC   C4B45682  11.043  37.159   7.676
 3397POPC   NC345683  39.728  22.965   5.371
 3397POPC   PO445684  40.352  22.865   5.199
 3397POPC   GL145685  40.134  22.738   5.612
 3397POPC   GL245686  40.181  23.058   5.741
 3397POPC   C1A45687  39.951  22.683   6.084
 3397POPC   D2A45688  40.090  22.640   6.572
 3397POPC   C3A45689  40.057  22.688   7.052
 3397POPC   C4A45690  39.997  22.635   7.510
 3397POPC   C1B45691  39.935  23.189   6.089
 3397POPC   C2B45692  39.762  23.029   6.455
 3397POPC   C3B45693  39.955  23.130   6.829
 3397POPC   C4B45694  39.877  23.139   7.251
 3398POPC   NC345695  36.181   4.363   5.523
 3398POPC   PO445696  36.596   3.884   5.598
 3398POPC   GL145697  36.319   4.124   5.936
 3398POPC   GL245698  35.918   4.124   5.897
 3398POPC   C1A45699  36.267   4.289   6.366
 3398POPC   D2A45700  36.453   4.051   6.725
 3398POPC   C3A45701  36.257   4.169   7.103
 3398POPC   C4A45702  36.200   4.600   7.238
 3398POPC   C1B45703  35.758   4.314   6.262
 3398POPC   C2B45704  35.861   4.508   6.672
 3398POPC   C3B45705  35.768   4.329   7.093
 3398POPC   C4B45706  35.908   4.282   7.543
 3399POPC   NC345707  11.586  19.691   5.277
 3399POPC   PO445708  11.126  20.193   5.342
 3399POPC   GL145709  11.167  19.999   5.741
 3399POPC   GL245710  11.229  19.655   5.708
 3399POPC   C1A45711  11.446  20.009   6.145
 3399POPC   D2A45712  11.652  20.096   6.553
 3399POPC   C3A45713  11.463  20.001   6.958
 3399POPC   C4A45714  11.517  20.070   7.402
 3399POPC   C1B45715  11.219  19.543   6.148
 3399POPC   C2B45716  11.360  19.635   6.567
 3399POPC   C3B45717  11.141  19.594   6.986
 3399POPC   C4B45718  11.159  19.708   7.444
 3400POPC   NC345719  25.350  10.073   5.209
 3400POPC   PO445720  25.250  10.744   5.302
 3400POPC   GL145721  25.242  10.650   5.762
 3400POPC   GL245722  25.040  10.915   5.821
 3400POPC   C1A45723  25.423  10.698   6.195
 3400POPC   D2A45724  25.583  10.586   6.613
 3400POPC   C3A45725  25.413  10.315   6.888
 3400POPC   C4A45726  25.617  10.209   7.246
 3400POPC   C1B45727  24.927  10.794   6.255
 3400POPC   C2B45728  25.049  10.600   6.614
 3400POPC   C3B45729  25.161  10.737   6.997
 3400POPC   C4B45730  25.508  10.755   7.193
 3401POPC   NC345731  17.356  10.546   5.477
 3401POPC   PO445732  17.975  10.335   5.239
 3401POPC   GL145733  17.734  10.278   5.673
 3401POPC   GL245734  17.692  10.611   5.855
 3401POPC   C1A45735  17.406  10.207   6.070
 3401POPC   D2A45736  17.298  10.080   6.522
 3401POPC   C3A45737  17.386  10.256   6.904
 3401POPC   C4A45738  17.480  10.394   7.280
 3401POPC   C1B45739  17.347  10.704   6.146
 3401POPC   C2B45740  17.220  10.823   6.577
 3401POPC   C3B45741  17.301  10.816   7.029
 3401POPC   C4B45742  17.643  10.861   7.356
 3402POPC   NC345743   4.356  25.742   5.456
 3402POPC   PO445744   4.615  26.460   5.495
 3402POPC   GL145745   4.353  26.183   5.765
 3402POPC   GL245746   3.986  26.260   5.738
 3402POPC   C1A45747   4.327  26.226   6.221
 3402POPC   D2A45748   4.588  26.278   6.593
 3402POPC   C3A45749   4.482  26.233   7.003
 3402POPC   C4A45750   4.493  25.897   7.260
 3402POPC   C1B45751   3.866  26.033   6.140
 3402POPC   C2B45752   4.028  26.025   6.579
 3402POPC   C3B45753   4.089  25.850   6.966
 3402POPC   C4B45754   3.930  25.943   7.357
 3403POPC   NC345755  34.560  11.700   5.540
 3403POPC   PO445756  34.727  12.342   5.519
 3403POPC   GL145757  34.513  12.136   5.857
 3403POPC   GL245758  34.740  12.283   6.076
 3403POPC   C1A45759  34.505  11.862   6.264
 3403POPC   D2A45760  34.741  11.997   6.639
 3403POPC   C3A45761  34.603  11.935   7.082
 3403POPC   C4A45762  34.631  12.279   7.425
 3403POPC   C1B45763  34.370  12.368   6.309
 3403POPC   C2B45764  34.248  12.173   6.651
 3403POPC   C3B45765  34.293  12.323   7.029
 3403POPC   C4B45766  34.081  12.047   7.230
 3404POPC   NC345767  24.602  12.997   5.346
 3404POPC   PO445768  24.437  12.396   5.096
 3404POPC   GL145769  24.424  12.615   5.597
 3404POPC   GL245770  24.203  12.890   5.734
 3404POPC   C1A45771  24.592  12.757   6.034
 3404POPC   D2A45772  24.611  13.062   6.403
 3404POPC   C3A45773  24.557  12.839   6.800
 3404POPC   C4A45774  24.619  12.748   7.241
 3404POPC   C1B45775  24.090  12.850   6.218
 3404POPC   C2B45776  24.020  12.817   6.692
 3404POPC   C3B45777  24.171  12.934   7.116
 3404POPC   C4B45778  24.160  12.791   7.542
 3405POPC   NC345779  33.521  39.657   5.442
 3405POPC   PO445780  34.179  39.611   5.384
 3405POPC   GL145781  33.937  39.818   5.802
 3405POPC   GL245782  33.537  39.903   5.883
 3405POPC   C1A45783  33.870  39.984   6.264
 3405POPC   D2A45784  33.566  39.857   6.605
 3405POPC   C3A45785  33.638  39.964   7.051
 3405POPC   C4A45786  33.845  40.013   7.433
 3405POPC   C1B45787  33.404  40.207   6.245
 3405POPC   C2B45788  33.466  40.341   6.718
 3405POPC   C3B45789  33.651  40.472   7.129
 3405POPC   C4B45790  33.499  40.440   7.562
 3406POPC   NC345791  12.534  33.544   5.439
 3406POPC   PO445792  12.338  34.201   5.381
 3406POPC   GL145793  11.984  34.022   5.648
 3406POPC   GL245794  12.125  33.722   5.761
 3406POPC   C1A45795  11.798  33.970   6.070
 3406POPC   D2A45796  11.926  33.794   6.481
 3406POPC   C3A45797  11.814  33.833   6.949
 3406POPC   C4A45798  11.983  33.510   7.275
 3406POPC   C1B45799  12.282  34.063   6.055
 3406POPC   C2B45800  12.297  34.143   6.466
 3406POPC   C3B45801  12.256  34.091   6.885
 3406POPC   C4B45802  12.225  34.123   7.317
 3407POPC   NC345803  17.622  22.461   5.357
 3407POPC   PO445804  18.343  22.357   5.283
 3407POPC   GL145805  18.322  22.288   5.712
 3407POPC   GL245806  18.507  22.579   5.735
 3407POPC   C1A45807  18.351  22.109   6.134
 3407POPC   D2A45808  18.266  22.287   6.532
 3407POPC   C3A45809  18.311  22.082   6.897
 3407POPC   C4A45810  18.254  22.314   7.226
 3407POPC   C1B45811  18.693  22.502   6.106
 3407POPC   C2B45812  18.778  22.317   6.498
 3407POPC   C3B45813  18.700  22.403   6.890
 3407POPC   C4B45814  18.682  22.552   7.277
 3408POPC   NC345815   4.531  35.815   5.409
 3408POPC   PO445816   4.067  36.233   5.209
 3408POPC   GL145817   4.292  36.247   5.612
 3408POPC   GL245818   4.192  35.957   5.763
 3408POPC   C1A45819   4.568  36.222   6.010
 3408POPC   D2A45820   4.392  36.116   6.436
 3408POPC   C3A45821   4.413  36.274   6.877
 3408POPC   C4A45822   4.453  36.007   7.238
 3408POPC   C1B45823   4.071  35.801   6.135
 3408POPC   C2B45824   4.103  35.717   6.554
 3408POPC   C3B45825   4.043  35.909   6.931
 3408POPC   C4B45826   3.952  36.008   7.343
 3409POPC   NC345827   4.767   2.472   5.492
 3409POPC   PO445828   4.498   3.070   5.380
 3409POPC   GL145829   4.795   2.897   5.747
 3409POPC   GL245830   4.929   3.149   5.896
 3409POPC   C1A45831   5.070   2.689   6.126
 3409POPC   D2A45832   4.986   2.464   6.526
 3409POPC   C3A45833   4.993   2.733   6.894
 3409POPC   C4A45834   5.322   2.949   7.110
 3409POPC   C1B45835   4.677   2.975   6.259
 3409POPC   C2B45836   4.685   3.161   6.669
 3409POPC   C3B45837   4.906   3.237   7.044
 3409POPC   C4B45838   5.019   3.170   7.456
 3410POPC   NC345839   6.817  41.803   5.264
 3410POPC   PO445840   6.336  41.394   5.423
 3410POPC   GL145841   6.508  41.650   5.764
 3410POPC   GL245842   6.660  41.340   5.847
 3410POPC   C1A45843   6.444  41.870   6.195
 3410POPC   D2A45844   6.337  41.676   6.617
 3410POPC   C3A45845   6.612  41.617   6.987
 3410POPC   C4A45846   6.884  41.925   7.203
 3410POPC   C1B45847   6.389  41.348   6.210
 3410POPC   C2B45848   6.359  41.005   6.505
 3410POPC   C3B45849   6.621  40.974   6.869
 3410POPC   C4B45850   6.529  41.176   7.264
 3411POPC   NC345851  29.827  14.074   5.336
 3411POPC   PO445852  30.366  14.550   5.439
 3411POPC   GL145853  29.979  14.566   5.692
 3411POPC   GL245854  30.024  14.242   5.821
 3411POPC   C1A45855  29.772  14.618   6.123
 3411POPC   D2A45856  29.907  14.451   6.540
 3411POPC   C3A45857  29.679  14.468   6.929
 3411POPC   C4A45858  29.594  14.158   7.230
 3411POPC   C1B45859  30.283  14.518   6.126
 3411POPC   C2B45860  30.422  14.442   6.543
 3411POPC   C3B45861  30.255  14.302   6.928
 3411POPC   C4B45862  30.056  14.407   7.293
 3412POPC   NC345863  18.031  28.762   5.019
 3412POPC   PO445864  18.414  29.105   5.468
 3412POPC   GL145865  18.438  29.234   5.868
 3412POPC   GL245866  18.100  29.237   5.910
 3412POPC   C1A45867  18.461  29.123   6.298
 3412POPC   D2A45868  18.775  29.227   6.593
 3412POPC   C3A45869  18.553  29.323   6.953
 3412POPC   C4A45870  18.261  29.022   7.139
 3412POPC   C1B45871  17.978  28.961   6.239
 3412POPC   C2B45872  18.033  28.876   6.663
 3412POPC   C3B45873  17.778  29.025   6.989
 3412POPC   C4B45874  17.850  29.197   7.404
 3413POPC   NC345875  23.961  26.574   5.310
 3413POPC   PO445876  24.528  26.886   5.472
 3413POPC   GL145877  24.174  26.987   5.775
 3413POPC   GL245878  23.895  26.716   5.814
 3413POPC   C1A45879  24.000  27.023   6.226
 3413POPC   D2A45880  23.824  26.855   6.625
 3413POPC   C3A45881  24.007  26.935   7.033
 3413POPC   C4A45882  23.841  27.032   7.447
 3413POPC   C1B45883  23.585  26.710   6.174
 3413POPC   C2B45884  23.367  26.653   6.599
 3413POPC   C3B45885  23.539  26.691   7.048
 3413POPC   C4B45886  23.351  26.864   7.450
 3414POPC   NC345887  32.659  30.819   5.298
 3414POPC   PO445888  32.640  30.152   5.462
 3414POPC   GL145889  32.927  30.322   5.788
 3414POPC   GL245890  32.848  30.673   5.883
 3414POPC   C1A45891  33.127  30.393   6.220
 3414POPC   D2A45892  33.061  30.681   6.585
 3414POPC   C3A45893  33.089  30.614   7.076
 3414POPC   C4A45894  33.219  30.595   7.560
 3414POPC   C1B45895  32.622  30.386   6.214
 3414POPC   C2B45896  32.741  30.282   6.674
 3414POPC   C3B45897  32.641  30.329   7.117
 3414POPC   C4B45898  32.730  30.666   7.433
 3415POPC   NC345899   3.753   0.310   5.635
 3415POPC   PO445900   3.056   0.129   5.483
 3415POPC   GL145901   3.270   0.260   5.825
 3415POPC   GL245902   3.317   0.603   5.778
 3415POPC   C1A45903   3.456   0.364   6.210
 3415POPC   D2A45904   3.410   0.581   6.565
 3415POPC   C3A45905   3.713   0.523   6.857
 3415POPC   C4A45906   3.704   0.506   7.290
 3415POPC   C1B45907   3.163   0.842   6.161
 3415POPC   C2B45908   3.173   1.023   6.615
 3415POPC   C3B45909   3.295   0.790   7.044
 3415POPC   C4B45910   3.272   0.749   7.516
 3416POPC   NC345911  39.499  20.419   5.281
 3416POPC   PO445912  39.007  20.831   5.439
 3416POPC   GL145913  39.436  20.720   5.699
 3416POPC   GL245914  39.530  20.338   5.778
 3416POPC   C1A45915  39.536  20.715   6.150
 3416POPC   D2A45916  39.192  20.710   6.478
 3416POPC   C3A45917  39.261  20.685   6.927
 3416POPC   C4A45918  39.606  20.770   7.193
 3416POPC   C1B45919  39.414  20.220   6.191
 3416POPC   C2B45920  39.554  20.370   6.599
 3416POPC   C3B45921  39.541  20.273   7.022
 3416POPC   C4B45922  39.198  20.142   7.260
 3417POPC   NC345923  14.855   9.906   5.512
 3417POPC   PO445924  15.522   9.533   5.511
 3417POPC   GL145925  15.398   9.507   5.891
 3417POPC   GL245926  15.197   9.791   5.908
 3417POPC   C1A45927  15.466   9.556   6.297
 3417POPC   D2A45928  15.312   9.519   6.694
 3417POPC   C3A45929  15.399   9.728   7.067
 3417POPC   C4A45930  15.331   9.365   7.242
 3417POPC   C1B45931  15.159   9.958   6.339
 3417POPC   C2B45932  14.895   9.828   6.718
 3417POPC   C3B45933  14.920   9.901   7.180
 3417POPC   C4B45934  15.256  10.064   7.484
 3418POPC   NC345935  35.469  10.041   5.585
 3418POPC   PO445936  35.092   9.320   5.460
 3418POPC   GL145937  35.247   9.603   5.859
 3418POPC   GL245938  35.617   9.719   5.971
 3418POPC   C1A45939  35.305   9.659   6.344
 3418POPC   D2A45940  35.472   9.851   6.723
 3418POPC   C3A45941  35.475   9.751   7.171
 3418POPC   C4A45942  35.466   9.870   7.602
 3418POPC   C1B45943  35.721  10.086   6.271
 3418POPC   C2B45944  35.736  10.284   6.719
 3418POPC   C3B45945  35.708  10.294   7.225
 3418POPC   C4B45946  35.828  10.253   7.729
 3419POPC   NC345947   6.679  22.290   5.603
 3419POPC   PO445948   6.501  21.705   5.441
 3419POPC   GL145949   6.626  21.821   5.845
 3419POPC   GL245950   6.319  22.018   5.877
 3419POPC   C1A45951   6.720  22.125   6.216
 3419POPC   D2A45952   6.611  22.428   6.562
 3419POPC   C3A45953   6.686  22.263   6.986
 3419POPC   C4A45954   6.904  21.926   7.188
 3419POPC   C1B45955   6.377  21.751   6.278
 3419POPC   C2B45956   6.495  21.572   6.663
 3419POPC   C3B45957   6.436  21.792   7.045
 3419POPC   C4B45958   6.199  22.183   7.174
 3420POPC   NC345959  22.399   5.061   5.440
 3420POPC   PO445960  21.853   4.740   5.320
 3420POPC   GL145961  21.976   4.915   5.778
 3420POPC   GL245962  22.047   5.262   5.798
 3420POPC   C1A45963  22.082   4.819   6.204
 3420POPC   D2A45964  21.889   4.947   6.568
 3420POPC   C3A45965  22.143   4.930   6.896
 3420POPC   C4A45966  22.013   5.094   7.273
 3420POPC   C1B45967  22.127   5.332   6.219
 3420POPC   C2B45968  22.395   5.161   6.520
 3420POPC   C3B45969  22.495   5.318   6.936
 3420POPC   C4B45970  22.265   5.511   7.231
 3421POPC   NC345971  11.862  31.916   5.411
 3421POPC   PO445972  12.290  31.354   5.389
 3421POPC   GL145973  12.088  31.448   5.764
 3421POPC   GL245974  12.225  31.762   5.749
 3421POPC   C1A45975  12.107  31.522   6.241
 3421POPC   D2A45976  11.850  31.344   6.578
 3421POPC   C3A45977  11.988  31.338   6.993
 3421POPC   C4A45978  12.352  31.502   7.112
 3421POPC   C1B45979  11.912  31.957   6.058
 3421POPC   C2B45980  11.792  31.887   6.489
 3421POPC   C3B45981  12.033  31.809   6.828
 3421POPC   C4B45982  11.880  31.833   7.218
 3422POPC   NC345983   5.129  42.090   5.457
 3422POPC   PO445984   5.280  42.801   5.436
 3422POPC   GL145985   5.247  42.497   5.772
 3422POPC   GL245986   4.888  42.449   5.746
 3422POPC   C1A45987   5.303  42.268   6.184
 3422POPC   D2A45988   5.183  42.081   6.601
 3422POPC   C3A45989   5.297  42.245   7.054
 3422POPC   C4A45990   5.374  42.184   7.563
 3422POPC   C1B45991   4.776  42.191   6.118
 3422POPC   C2B45992   4.664  42.244   6.561
 3422POPC   C3B45993   4.794  42.165   6.977
 3422POPC   C4B45994   4.914  42.326   7.376
 3423POPC   NC345995   0.128  14.092   5.386
 3423POPC   PO445996   0.756  14.282   5.615
 3423POPC   GL145997   0.386  14.263   5.795
 3423POPC   GL245998   0.290  14.557   5.651
 3423POPC   C1A45999   0.201  14.269   6.201
 3423POPC   D2A46000   0.431  14.206   6.571
 3423POPC   C3A46001   0.200  14.266   6.937
 3423POPC   C4A46002   0.199  14.087   7.333
 3423POPC   C1B46003   0.461  14.728   6.058
 3423POPC   C2B46004   0.443  14.741   6.529
 3423POPC   C3B46005   0.285  14.807   6.952
 3423POPC   C4B46006   0.241  14.597   7.325
 3424POPC   NC346007  11.153  34.459   5.537
 3424POPC   PO446008  11.652  34.977   5.433
 3424POPC   GL146009  11.442  34.879   5.774
 3424POPC   GL246010  11.641  34.564   5.791
 3424POPC   C1A46011  11.089  34.907   6.069
 3424POPC   D2A46012  10.911  34.714   6.422
 3424POPC   C3A46013  11.038  34.710   6.854
 3424POPC   C4A46014  11.062  34.595   7.265
 3424POPC   C1B46015  11.414  34.523   6.147
 3424POPC   C2B46016  11.401  34.565   6.533
 3424POPC   C3B46017  11.313  34.274   6.811
 3424POPC   C4B46018  11.399  34.201   7.207
 3425POPC   NC346019  42.300   0.003   5.372
 3425POPC   PO446020  42.710  44.409   5.494
 3425POPC   GL146021  42.448  44.454   5.822
 3425POPC   GL246022  42.280  44.758   5.820
 3425POPC   C1A46023  42.570  44.605   6.228
 3425POPC   D2A46024  42.606  44.893   6.557
 3425POPC   C3A46025  42.584  44.689   6.956
 3425POPC   C4A46026  42.646  44.417   7.313
 3425POPC   C1B46027  42.183  44.936   6.230
 3425POPC   C2B46028  42.107  44.803   6.669
 3425POPC   C3B46029  42.071  44.665   7.092
 3425POPC   C4B46030  42.152  44.764   7.518
 3426POPC   NC346031   5.441  23.835   5.473
 3426POPC   PO446032   4.917  23.927   5.095
 3426POPC   GL146033   4.939  23.810   5.616
 3426POPC   GL246034   5.158  23.570   5.804
 3426POPC   C1A46035   4.815  23.963   6.082
 3426POPC   D2A46036   4.998  24.059   6.514
 3426POPC   C3A46037   5.055  23.812   6.925
 3426POPC   C4A46038   5.313  23.828   7.324
 3426POPC   C1B46039   5.145  23.640   6.255
 3426POPC   C2B46040   4.751  23.617   6.497
 3426POPC   C3B46041   4.681  23.443   6.891
 3426POPC   C4B46042   4.802  23.477   7.289
 3427POPC   NC346043   0.593  21.516   5.331
 3427POPC   PO446044   0.285  20.946   5.376
 3427POPC   GL146045   0.235  21.181   5.760
 3427POPC   GL246046   0.249  21.545   5.731
 3427POPC   C1A46047   0.472  21.152   6.132
 3427POPC   D2A46048   0.708  21.074   6.507
 3427POPC   C3A46049   0.454  21.198   6.810
 3427POPC   C4A46050   0.355  21.099   7.213
 3427POPC   C1B46051   0.113  21.658   6.169
 3427POPC   C2B46052   0.161  21.706   6.653
 3427POPC   C3B46053   0.384  21.630   7.062
 3427POPC   C4B46054   0.602  21.681   7.470
 3428POPC   NC346055  24.312  36.900   5.419
 3428POPC   PO446056  24.805  37.341   5.347
 3428POPC   GL146057  24.753  36.927   5.700
 3428POPC   GL246058  24.416  36.949   5.898
 3428POPC   C1A46059  24.755  36.719   6.165
 3428POPC   D2A46060  24.708  36.898   6.605
 3428POPC   C3A46061  24.652  36.782   7.040
 3428POPC   C4A46062  24.649  36.986   7.437
 3428POPC   C1B46063  24.279  36.785   6.330
 3428POPC   C2B46064  24.205  36.883   6.788
 3428POPC   C3B46065  24.178  36.978   7.233
 3428POPC   C4B46066  24.206  37.052   7.701
 3429POPC   NC346067  39.374  16.322   5.347
 3429POPC   PO446068  38.968  15.904   5.443
 3429POPC   GL146069  39.312  15.913   5.728
 3429POPC   GL246070  39.626  16.084   5.760
 3429POPC   C1A46071  39.188  15.923   6.150
 3429POPC   D2A46072  39.091  15.714   6.528
 3429POPC   C3A46073  39.064  16.033   6.836
 3429POPC   C4A46074  39.165  16.210   7.215
 3429POPC   C1B46075  39.690  15.882   6.171
 3429POPC   C2B46076  39.545  15.989   6.595
 3429POPC   C3B46077  39.479  15.814   7.033
 3429POPC   C4B46078  39.541  15.880   7.482
 3430POPC   NC346079  42.140  28.683   5.370
 3430POPC   PO446080  42.387  29.312   5.311
 3430POPC   GL146081  42.395  29.305   5.756
 3430POPC   GL246082  42.076  29.152   5.749
 3430POPC   C1A46083  42.241  29.344   6.195
 3430POPC   D2A46084  42.048  29.549   6.535
 3430POPC   C3A46085  42.226  29.402   6.924
 3430POPC   C4A46086  42.297  29.549   7.316
 3430POPC   C1B46087  42.301  28.829   6.027
 3430POPC   C2B46088  42.449  28.677   6.445
 3430POPC   C3B46089  42.411  28.790   6.901
 3430POPC   C4B46090  42.300  28.995   7.318
 3431POPC   NC346091  38.810  30.943   5.389
 3431POPC   PO446092  39.399  30.924   5.429
 3431POPC   GL146093  39.362  30.814   5.872
 3431POPC   GL246094  39.023  30.919   5.867
 3431POPC   C1A46095  39.194  30.682   6.316
 3431POPC   D2A46096  39.035  30.542   6.746
 3431POPC   C3A46097  39.366  30.540   7.100
 3431POPC   C4A46098  39.614  30.588   7.468
 3431POPC   C1B46099  39.007  31.152   6.269
 3431POPC   C2B46100  39.159  31.062   6.720
 3431POPC   C3B46101  38.997  30.886   7.113
 3431POPC   C4B46102  38.803  31.006   7.489
 3432POPC   NC346103  18.892  21.266   5.456
 3432POPC   PO446104  18.602  21.851   5.568
 3432POPC   GL146105  18.813  21.545   5.884
 3432POPC   GL246106  19.153  21.383   5.906
 3432POPC   C1A46107  18.794  21.169   6.172
 3432POPC   D2A46108  18.687  21.299   6.577
 3432POPC   C3A46109  18.820  21.126   6.915
 3432POPC   C4A46110  18.658  21.339   7.230
 3432POPC   C1B46111  19.093  21.581   6.330
 3432POPC   C2B46112  19.240  21.732   6.750
 3432POPC   C3B46113  19.097  21.570   7.170
 3432POPC   C4B46114  19.312  21.458   7.560
 3433POPC   NC346115   1.448   3.107   5.454
 3433POPC   PO446116   1.093   2.503   5.487
 3433POPC   GL146117   1.345   2.557   5.848
 3433POPC   GL246118   1.238   2.881   5.862
 3433POPC   C1A46119   1.379   2.546   6.291
 3433POPC   D2A46120   1.139   2.758   6.580
 3433POPC   C3A46121   1.183   2.709   6.963
 3433POPC   C4A46122   1.354   2.822   7.316
 3433POPC   C1B46123   1.573   2.983   6.079
 3433POPC   C2B46124   1.550   3.025   6.472
 3433POPC   C3B46125   1.595   2.994   6.887
 3433POPC   C4B46126   1.549   3.272   7.207
 3434POPC   NC346127  26.304  22.212   5.310
 3434POPC   PO446128  25.725  22.293   5.518
 3434POPC   GL146129  26.053  22.100   5.779
 3434POPC   GL246130  26.374  22.249   5.863
 3434POPC   C1A46131  26.066  21.995   6.219
 3434POPC   D2A46132  26.237  21.961   6.647
 3434POPC   C3A46133  26.112  22.158   7.051
 3434POPC   C4A46134  26.277  22.067   7.482
 3434POPC   C1B46135  26.400  22.368   6.325
 3434POPC   C2B46136  26.475  22.401   6.774
 3434POPC   C3B46137  26.365  22.593   7.162
 3434POPC   C4B46138  26.228  22.558   7.604
 3435POPC   NC346139  20.775   8.472   5.315
 3435POPC   PO446140  20.387   9.083   5.274
 3435POPC   GL146141  20.527   8.809   5.672
 3435POPC   GL246142  20.740   9.021   5.902
 3435POPC   C1A46143  20.610   8.581   6.104
 3435POPC   D2A46144  20.531   8.669   6.546
 3435POPC   C3A46145  20.778   8.547   6.915
 3435POPC   C4A46146  20.887   8.768   7.293
 3435POPC   C1B46147  20.363   9.040   6.189
 3435POPC   C2B46148  20.384   9.165   6.621
 3435POPC   C3B46149  20.639   9.090   6.974
 3435POPC   C4B46150  20.516   9.110   7.395
 3436POPC   NC346151  42.668   7.295   5.484
 3436POPC   PO446152  42.196   7.667   5.362
 3436POPC   GL146153  42.246   7.425   5.773
 3436POPC   GL246154  41.979   7.165   5.870
 3436POPC   C1A46155  42.499   7.360   6.129
 3436POPC   D2A46156  42.598   7.200   6.535
 3436POPC   C3A46157  42.600   7.467   6.874
 3436POPC   C4A46158  42.459   7.459   7.284
 3436POPC   C1B46159  41.999   7.334   6.248
 3436POPC   C2B46160  41.995   7.185   6.656
 3436POPC   C3B46161  42.167   7.129   7.050
 3436POPC   C4B46162  42.035   7.230   7.484
 3437POPC   NC346163   2.854   4.521   5.424
 3437POPC   PO446164   2.849   5.234   5.417
 3437POPC   GL146165   3.010   5.179   5.840
 3437POPC   GL246166   2.999   4.830   5.867
 3437POPC   C1A46167   2.739   5.207   6.250
 3437POPC   D2A46168   2.399   5.120   6.587
 3437POPC   C3A46169   2.635   5.216   6.957
 3437POPC   C4A46170   2.924   4.943   7.184
 3437POPC   C1B46171   2.758   4.686   6.200
 3437POPC   C2B46172   2.786   4.785   6.638
 3437POPC   C3B46173   2.507   4.719   6.967
 3437POPC   C4B46174   2.415   4.954   7.342
 3438POPC   NC346175  26.654  10.880   5.359
 3438POPC   PO446176  27.069  11.495   5.286
 3438POPC   GL146177  26.998  11.395   5.721
 3438POPC   GL246178  27.024  11.763   5.815
 3438POPC   C1A46179  26.991  11.046   6.092
 3438POPC   D2A46180  26.748  10.890   6.515
 3438POPC   C3A46181  26.616  11.064   6.956
 3438POPC   C4A46182  26.597  11.506   7.172
 3438POPC   C1B46183  27.044  11.560   6.207
 3438POPC   C2B46184  27.186  11.267   6.505
 3438POPC   C3B46185  26.972  11.383   6.831
 3438POPC   C4B46186  27.055  11.241   7.228
 3439POPC   NC346187  24.452  41.104   5.535
 3439POPC   PO446188  24.083  41.636   5.457
 3439POPC   GL146189  24.395  41.637   5.836
 3439POPC   GL246190  24.610  41.381   5.925
 3439POPC   C1A46191  24.689  41.795   6.197
 3439POPC   D2A46192  24.708  41.900   6.653
 3439POPC   C3A46193  24.561  41.674   7.038
 3439POPC   C4A46194  24.584  41.798   7.503
 3439POPC   C1B46195  24.760  41.296   6.320
 3439POPC   C2B46196  24.838  41.149   6.726
 3439POPC   C3B46197  24.797  41.213   7.181
 3439POPC   C4B46198  24.819  41.346   7.642
 3440POPC   NC346199   1.003   6.579   5.633
 3440POPC   PO446200   1.386   7.035   5.223
 3440POPC   GL146201   1.447   6.815   5.686
 3440POPC   GL246202   1.625   6.493   5.651
 3440POPC   C1A46203   1.313   6.799   6.182
 3440POPC   D2A46204   1.143   6.516   6.559
 3440POPC   C3A46205   0.989   6.673   6.988
 3440POPC   C4A46206   1.230   6.926   7.279
 3440POPC   C1B46207   1.475   6.327   6.034
 3440POPC   C2B46208   1.616   6.317   6.431
 3440POPC   C3B46209   1.671   6.312   6.845
 3440POPC   C4B46210   1.430   6.457   7.180
 3441POPC   NC346211   7.992   1.328   5.459
 3441POPC   PO446212   8.349   0.929   5.120
 3441POPC   GL146213   8.338   0.942   5.669
 3441POPC   GL246214   8.076   1.144   5.920
 3441POPC   C1A46215   8.512   1.067   6.134
 3441POPC   D2A46216   8.290   1.350   6.478
 3441POPC   C3A46217   8.288   1.271   6.943
 3441POPC   C4A46218   8.406   1.447   7.348
 3441POPC   C1B46219   8.038   0.919   6.311
 3441POPC   C2B46220   7.850   1.061   6.703
 3441POPC   C3B46221   7.931   0.864   7.094
 3441POPC   C4B46222   7.830   0.894   7.538
 3442POPC   NC346223  42.202  10.978   5.117
 3442POPC   PO446224  42.483  10.320   5.401
 3442POPC   GL146225  42.353  10.439   5.794
 3442POPC   GL246226  42.610  10.639   5.896
 3442POPC   C1A46227  42.174  10.535   6.203
 3442POPC   D2A46228  41.948  10.540   6.593
 3442POPC   C3A46229  42.117  10.591   7.021
 3442POPC   C4A46230  42.124  10.235   7.259
 3442POPC   C1B46231  42.641  10.720   6.326
 3442POPC   C2B46232  42.495  10.443   6.642
 3442POPC   C3B46233  42.586  10.392   7.066
 3442POPC   C4B46234  42.502  10.546   7.459
 3443POPC   NC346235  13.271  36.686   5.367
 3443POPC   PO446236  13.822  36.977   5.407
 3443POPC   GL146237  13.549  37.068   5.743
 3443POPC   GL246238  13.386  37.396   5.733
 3443POPC   C1A46239  13.607  36.954   6.171
 3443POPC   D2A46240  13.756  37.180   6.522
 3443POPC   C3A46241  13.840  36.950   6.902
 3443POPC   C4A46242  13.470  36.759   7.138
 3443POPC   C1B46243  13.205  37.249   6.117
 3443POPC   C2B46244  13.135  37.036   6.515
 3443POPC   C3B46245  13.068  37.188   6.925
 3443POPC   C4B46246  13.356  37.260   7.247
 3444POPC   NC346247   1.827   6.943   5.200
 3444POPC   PO446248   2.009   7.557   5.368
 3444POPC   GL146249   2.010   7.393   5.792
 3444POPC   GL246250   1.760   7.197   5.667
 3444POPC   C1A46251   2.154   7.179   6.220
 3444POPC   D2A46252   2.072   7.118   6.700
 3444POPC   C3A46253   1.975   7.519   6.948
 3444POPC   C4A46254   1.887   7.980   7.072
 3444POPC   C1B46255   1.648   7.210   6.119
 3444POPC   C2B46256   1.575   7.283   6.594
 3444POPC   C3B46257   1.600   7.207   7.064
 3444POPC   C4B46258   1.972   7.135   7.334
 3445POPC   NC346259  37.960  14.564   5.128
 3445POPC   PO446260  37.851  14.030   5.474
 3445POPC   GL146261  37.803  14.112   5.875
 3445POPC   GL246262  37.615  14.409   5.804
 3445POPC   C1A46263  37.783  14.098   6.343
 3445POPC   D2A46264  37.902  13.863   6.711
 3445POPC   C3A46265  38.031  14.182   6.956
 3445POPC   C4A46266  37.788  14.547   7.109
 3445POPC   C1B46267  37.351  14.123   6.067
 3445POPC   C2B46268  37.257  14.209   6.474
 3445POPC   C3B46269  37.506  14.181   6.839
 3445POPC   C4B46270  37.324  14.169   7.217
 3446POPC   NC346271  22.252   9.098   5.370
 3446POPC   PO446272  21.799   8.704   5.757
 3446POPC   GL146273  22.142   8.991   5.888
 3446POPC   GL246274  22.296   9.303   5.843
 3446POPC   C1A46275  22.219   9.024   6.330
 3446POPC   D2A46276  21.885   8.891   6.677
 3446POPC   C3A46277  21.985   8.879   7.110
 3446POPC   C4A46278  22.404   8.749   7.180
 3446POPC   C1B46279  22.587   9.349   6.153
 3446POPC   C2B46280  22.711   9.206   6.548
 3446POPC   C3B46281  22.385   9.106   6.808
 3446POPC   C4B46282  22.329   9.375   7.110
 3447POPC   NC346283   7.606  22.619   5.473
 3447POPC   PO446284   7.188  22.118   5.513
 3447POPC   GL146285   7.425  22.259   5.836
 3447POPC   GL246286   7.735  22.054   5.772
 3447POPC   C1A46287   7.263  22.210   6.261
 3447POPC   D2A46288   7.012  22.077   6.620
 3447POPC   C3A46289   7.226  22.204   6.928
 3447POPC   C4A46290   7.398  22.145   7.306
 3447POPC   C1B46291   7.786  22.211   6.192
 3447POPC   C2B46292   7.690  22.251   6.608
 3447POPC   C3B46293   7.736  22.034   6.944
 3447POPC   C4B46294   7.895  21.986   7.309
 3448POPC   NC346295  40.443  28.109   5.503
 3448POPC   PO446296  40.908  28.628   5.336
 3448POPC   GL146297  40.945  28.598   5.776
 3448POPC   GL246298  40.898  28.254   5.806
 3448POPC   C1A46299  40.942  28.658   6.210
 3448POPC   D2A46300  41.124  28.747   6.601
 3448POPC   C3A46301  40.937  28.503   6.906
 3448POPC   C4A46302  40.586  28.537   7.169
 3448POPC   C1B46303  40.806  28.108   6.242
 3448POPC   C2B46304  40.960  27.906   6.644
 3448POPC   C3B46305  40.910  28.019   7.095
 3448POPC   C4B46306  40.996  27.944   7.527
 3449POPC   NC346307  28.108   2.166   5.364
 3449POPC   PO446308  27.532   1.815   5.453
 3449POPC   GL146309  27.507   1.834   5.837
 3449POPC   GL246310  27.382   1.538   5.928
 3449POPC   C1A46311  27.246   2.066   6.067
 3449POPC   D2A46312  27.182   2.152   6.479
 3449POPC   C3A46313  27.367   1.972   6.840
 3449POPC   C4A46314  27.440   2.236   7.188
 3449POPC   C1B46315  27.518   1.671   6.334
 3449POPC   C2B46316  27.843   1.497   6.593
 3449POPC   C3B46317  27.996   1.602   6.984
 3449POPC   C4B46318  27.725   1.822   7.267
 3450POPC   NC346319   2.241  31.523   5.441
 3450POPC   PO446320   1.558  31.441   5.523
 3450POPC   GL146321   1.877  31.652   5.823
 3450POPC   GL246322   2.218  31.513   5.937
 3450POPC   C1A46323   1.984  31.895   6.210
 3450POPC   D2A46324   1.848  31.910   6.626
 3450POPC   C3A46325   1.938  31.508   6.842
 3450POPC   C4A46326   1.828  31.296   7.216
 3450POPC   C1B46327   2.080  31.349   6.328
 3450POPC   C2B46328   2.406  31.142   6.561
 3450POPC   C3B46329   2.543  31.330   6.918
 3450POPC   C4B46330   2.293  31.530   7.236
 3451POPC   NC346331  28.677  32.187   5.658
 3451POPC   PO446332  29.216  32.524   5.348
 3451POPC   GL146333  29.210  32.425   5.786
 3451POPC   GL246334  29.194  32.091   5.785
 3451POPC   C1A46335  29.050  32.423   6.224
 3451POPC   D2A46336  29.090  32.595   6.663
 3451POPC   C3A46337  29.207  32.327   7.025
 3451POPC   C4A46338  29.014  32.365   7.434
 3451POPC   C1B46339  29.149  31.919   6.203
 3451POPC   C2B46340  28.983  32.073   6.606
 3451POPC   C3B46341  28.780  32.063   7.019
 3451POPC   C4B46342  29.080  31.833   7.291
 3452POPC   NC346343  35.910  36.108   5.310
 3452POPC   PO446344  35.318  36.135   5.428
 3452POPC   GL146345  35.644  36.038   5.816
 3452POPC   GL246346  36.037  36.025   5.819
 3452POPC   C1A46347  35.830  36.048   6.286
 3452POPC   D2A46348  35.900  35.981   6.746
 3452POPC   C3A46349  36.136  36.244   7.049
 3452POPC   C4A46350  36.020  36.530   7.400
 3452POPC   C1B46351  36.294  35.852   6.200
 3452POPC   C2B46352  36.376  35.757   6.633
 3452POPC   C3B46353  36.238  35.738   7.058
 3452POPC   C4B46354  36.370  35.845   7.464
 3453POPC   NC346355  28.448   0.897   5.434
 3453POPC   PO446356  28.301   1.615   5.412
 3453POPC   GL146357  28.422   1.375   5.777
 3453POPC   GL246358  28.136   1.167   5.824
 3453POPC   C1A46359  28.551   1.330   6.212
 3453POPC   D2A46360  28.322   1.290   6.604
 3453POPC   C3A46361  28.431   1.336   7.061
 3453POPC   C4A46362  28.537   1.028   7.389
 3453POPC   C1B46363  28.217   0.922   6.183
 3453POPC   C2B46364  28.118   0.815   6.570
 3453POPC   C3B46365  27.952   1.071   6.866
 3453POPC   C4B46366  28.062   0.999   7.245
 3454POPC   NC346367  44.812  28.757   5.321
 3454POPC   PO446368  44.408  28.336   5.514
 3454POPC   GL146369  44.613  28.409   5.885
 3454POPC   GL246370  44.859  28.646   5.839
 3454POPC   C1A46371  44.636  28.386   6.291
 3454POPC   D2A46372  44.482  28.186   6.630
 3454POPC   C3A46373  44.682  28.269   7.004
 3454POPC   C4A46374  44.529  28.427   7.367
 3454POPC   C1B46375  44.841  28.853   6.272
 3454POPC   C2B46376  44.815  28.676   6.706
 3454POPC   C3B46377  44.927  28.701   7.148
 3454POPC   C4B46378   0.039  28.399   7.459
 3455POPC   NC346379  43.067   8.268   5.371
 3455POPC   PO446380  43.493   7.797   5.208
 3455POPC   GL146381  43.438   8.074   5.670
 3455POPC   GL246382  43.070   8.168   5.848
 3455POPC   C1A46383  43.480   8.276   6.122
 3455POPC   D2A46384  43.407   8.105   6.552
 3455POPC   C3A46385  43.424   8.278   6.991
 3455POPC   C4A46386  43.434   8.114   7.452
 3455POPC   C1B46387  42.966   8.327   6.272
 3455POPC   C2B46388  42.938   8.237   6.711
 3455POPC   C3B46389  42.721   7.988   6.990
 3455POPC   C4B46390  42.760   8.331   7.271
 3456POPC   NC346391  28.944  23.971   5.113
 3456POPC   PO446392  28.947  23.400   5.419
 3456POPC   GL146393  28.839  23.818   5.636
 3456POPC   GL246394  29.124  24.045   5.666
 3456POPC   C1A46395  28.841  23.867   6.109
 3456POPC   D2A46396  28.957  23.669   6.543
 3456POPC   C3A46397  28.924  23.796   7.014
 3456POPC   C4A46398  29.082  23.549   7.405
 3456POPC   C1B46399  29.341  23.834   6.049
 3456POPC   C2B46400  29.481  23.873   6.496
 3456POPC   C3B46401  29.430  23.728   6.930
 3456POPC   C4B46402  29.361  23.957   7.318
 3457POPC   NC346403  44.907  21.196   5.358
 3457POPC   PO446404  44.610  20.598   5.545
 3457POPC   GL146405  44.592  20.556   5.970
 3457POPC   GL246406  44.848  20.329   5.959
 3457POPC   C1A46407  44.684  20.732   6.382
 3457POPC   D2A46408  44.598  21.096   6.598
 3457POPC   C3A46409  44.527  20.994   6.999
 3457POPC   C4A46410  44.478  20.538   7.148
 3457POPC   C1B46411   0.076  20.770   6.063
 3457POPC   C2B46412   0.291  20.761   6.477
 3457POPC   C3B46413   0.070  20.814   6.859
 3457POPC   C4B46414  44.917  20.870   7.290
 3458POPC   NC346415  36.088  12.616   5.420
 3458POPC   PO446416  35.755  13.156   5.636
 3458POPC   GL146417  36.012  12.894   5.889
 3458POPC   GL246418  36.359  12.833   5.904
 3458POPC   C1A46419  36.100  13.083   6.284
 3458POPC   D2A46420  35.935  13.150   6.691
 3458POPC   C3A46421  36.182  13.119   7.065
 3458POPC   C4A46422  36.089  12.827   7.416
 3458POPC   C1B46423  36.483  12.761   6.301
 3458POPC   C2B46424  36.314  12.786   6.678
 3458POPC   C3B46425  36.455  12.689   7.054
 3458POPC   C4B46426  36.313  12.388   7.266
 3459POPC   NC346427   3.019  18.177   5.214
 3459POPC   PO446428   2.549  18.676   5.414
 3459POPC   GL146429   2.616  18.386   5.750
 3459POPC   GL246430   2.932  18.238   5.718
 3459POPC   C1A46431   2.609  18.370   6.188
 3459POPC   D2A46432   2.633  18.676   6.499
 3459POPC   C3A46433   2.710  18.526   6.921
 3459POPC   C4A46434   2.642  18.175   7.176
 3459POPC   C1B46435   2.963  18.009   6.117
 3459POPC   C2B46436   2.886  18.081   6.570
 3459POPC   C3B46437   2.924  17.833   6.953
 3459POPC   C4B46438   3.056  17.722   7.364
 3460POPC   NC346439  36.496  15.490   5.637
 3460POPC   PO446440  37.097  15.133   5.485
 3460POPC   GL146441  36.835  15.111   5.866
 3460POPC   GL246442  36.520  14.896   5.828
 3460POPC   C1A46443  36.976  15.151   6.307
 3460POPC   D2A46444  36.955  15.348   6.723
 3460POPC   C3A46445  37.192  15.096   7.023
 3460POPC   C4A46446  37.294  14.679   7.198
 3460POPC   C1B46447  36.434  15.089   6.236
 3460POPC   C2B46448  36.483  15.106   6.685
 3460POPC   C3B46449  36.662  15.097   7.102
 3460POPC   C4B46450  36.932  15.388   7.341
 3461POPC   NC346451  23.345  14.503   5.366
 3461POPC   PO446452  23.975  14.271   5.530
 3461POPC   GL146453  23.967  14.458   5.933
 3461POPC   GL246454  23.608  14.562   5.905
 3461POPC   C1A46455  23.961  14.357   6.398
 3461POPC   D2A46456  23.573  14.354   6.627
 3461POPC   C3A46457  23.608  14.427   7.076
 3461POPC   C4A46458  23.584  14.082   7.364
 3461POPC   C1B46459  23.672  14.749   6.317
 3461POPC   C2B46460  23.789  14.802   6.739
 3461POPC   C3B46461  23.809  14.896   7.176
 3461POPC   C4B46462  23.799  14.639   7.516
 3462POPC   NC346463  28.557  22.628   5.389
 3462POPC   PO446464  28.178  23.139   5.475
 3462POPC   GL146465  28.420  22.917   5.817
 3462POPC   GL246466  28.668  22.617   5.892
 3462POPC   C1A46467  28.445  22.947   6.258
 3462POPC   D2A46468  28.357  22.642   6.574
 3462POPC   C3A46469  28.379  22.763   6.993
 3462POPC   C4A46470  28.110  22.954   7.283
 3462POPC   C1B46471  28.845  22.636   6.335
 3462POPC   C2B46472  28.831  22.577   6.789
 3462POPC   C3B46473  28.861  22.904   7.103
 3462POPC   C4B46474  28.680  23.286   7.224
 3463POPC   NC346475  28.180  25.492   5.300
 3463POPC   PO446476  28.244  24.788   5.292
 3463POPC   GL146477  28.239  25.021   5.709
 3463POPC   GL246478  28.250  25.407   5.820
 3463POPC   C1A46479  28.370  25.007   6.148
 3463POPC   D2A46480  28.318  25.283   6.515
 3463POPC   C3A46481  28.273  25.024   6.884
 3463POPC   C4A46482  28.281  25.184   7.275
 3463POPC   C1B46483  28.552  25.594   6.160
 3463POPC   C2B46484  28.762  25.575   6.594
 3463POPC   C3B46485  28.862  25.706   7.030
 3463POPC   C4B46486  28.668  25.632   7.426
 3464POPC   NC346487   3.584  24.388   5.293
 3464POPC   PO446488   4.223  24.467   5.152
 3464POPC   GL146489   3.877  24.611   5.613
 3464POPC   GL246490   3.588  24.381   5.781
 3464POPC   C1A46491   3.823  24.608   6.145
 3464POPC   D2A46492   3.918  24.321   6.525
 3464POPC   C3A46493   3.594  24.320   6.849
 3464POPC   C4A46494   3.610  24.272   7.289
 3464POPC   C1B46495   3.309  24.537   6.104
 3464POPC   C2B46496   3.188  24.583   6.543
 3464POPC   C3B46497   3.341  24.795   6.912
 3464POPC   C4B46498   3.456  24.775   7.339
 3465POPC   NC346499  42.230   6.358   5.392
 3465POPC   PO446500  42.297   7.021   5.473
 3465POPC   GL146501  42.337   6.824   5.845
 3465POPC   GL246502  42.434   6.534   5.817
 3465POPC   C1A46503  42.285   6.904   6.260
 3465POPC   D2A46504  42.160   6.706   6.609
 3465POPC   C3A46505  42.323   6.639   6.979
 3465POPC   C4A46506  42.254   6.775   7.424
 3465POPC   C1B46507  42.690   6.330   6.126
 3465POPC   C2B46508  42.907   6.229   6.494
 3465POPC   C3B46509  42.765   6.351   6.896
 3465POPC   C4B46510  42.701   6.533   7.285
 3466POPC   NC346511  21.895   4.197   5.427
 3466POPC   PO446512  22.319   4.636   5.573
 3466POPC   GL146513  22.091   4.413   5.867
 3466POPC   GL246514  22.037   4.048   5.889
 3466POPC   C1A46515  22.304   4.355   6.227
 3466POPC   D2A46516  22.142   4.468   6.614
 3466POPC   C3A46517  22.396   4.439   6.973
 3466POPC   C4A46518  22.104   4.596   7.266
 3466POPC   C1B46519  21.861   4.106   6.274
 3466POPC   C2B46520  21.989   3.985   6.679
 3466POPC   C3B46521  21.999   4.143   7.053
 3466POPC   C4B46522  21.891   3.975   7.460
 3467POPC   NC346523   2.968  21.949   5.046
 3467POPC   PO446524   2.876  22.524   5.467
 3467POPC   GL146525   2.790  22.404   5.896
 3467POPC   GL246526   2.586  22.135   5.857
 3467POPC   C1A46527   2.954  22.221   6.282
 3467POPC   D2A46528   2.941  22.528   6.608
 3467POPC   C3A46529   2.843  22.276   6.931
 3467POPC   C4A46530   3.139  21.934   7.061
 3467POPC   C1B46531   2.455  22.283   6.287
 3467POPC   C2B46532   2.385  22.145   6.698
 3467POPC   C3B46533   2.350  22.327   7.092
 3467POPC   C4B46534   2.386  22.147   7.476
 3468POPC   NC346535  29.637  21.594   5.497
 3468POPC   PO446536  30.269  21.479   5.364
 3468POPC   GL146537  30.107  21.582   5.822
 3468POPC   GL246538  29.808  21.799   5.929
 3468POPC   C1A46539  30.134  21.645   6.284
 3468POPC   D2A46540  29.984  21.379   6.619
 3468POPC   C3A46541  30.054  21.460   7.031
 3468POPC   C4A46542  29.950  21.142   7.249
 3468POPC   C1B46543  29.628  21.513   6.266
 3468POPC   C2B46544  29.537  21.601   6.740
 3468POPC   C3B46545  29.486  21.379   7.140
 3468POPC   C4B46546  29.483  20.929   7.163
 3469POPC   NC346547   4.208  32.682   5.518
 3469POPC   PO446548   4.756  32.194   5.466
 3469POPC   GL146549   4.505  32.349   5.808
 3469POPC   GL246550   4.193  32.138   5.852
 3469POPC   C1A46551   4.353  32.474   6.234
 3469POPC   D2A46552   4.445  32.277   6.639
 3469POPC   C3A46553   4.289  32.465   7.014
 3469POPC   C4A46554   4.374  32.328   7.445
 3469POPC   C1B46555   4.278  31.937   6.268
 3469POPC   C2B46556   4.223  31.797   6.705
 3469POPC   C3B46557   4.104  31.982   7.120
 3469POPC   C4B46558   4.279  31.847   7.549
 3470POPC   NC346559  39.929   4.116   5.266
 3470POPC   PO446560  40.306   4.569   5.515
 3470POPC   GL146561  40.105   4.258   5.788
 3470POPC   GL246562  39.733   4.189   5.771
 3470POPC   C1A46563  40.008   4.320   6.230
 3470POPC   D2A46564  40.278   4.430   6.597
 3470POPC   C3A46565  40.083   4.327   7.006
 3470POPC   C4A46566  39.691   4.447   7.255
 3470POPC   C1B46567  39.508   4.088   6.183
 3470POPC   C2B46568  39.691   4.013   6.598
 3470POPC   C3B46569  39.630   3.981   7.049
 3470POPC   C4B46570  39.448   4.033   7.478
 3471POPC   NC346571  27.881  17.508   5.377
 3471POPC   PO446572  28.384  17.107   5.524
 3471POPC   GL146573  28.274  17.372   5.831
 3471POPC   GL246574  28.221  17.717   5.705
 3471POPC   C1A46575  28.398  17.360   6.245
 3471POPC   D2A46576  28.652  17.207   6.569
 3471POPC   C3A46577  28.401  17.344   6.894
 3471POPC   C4A46578  28.427  17.309   7.336
 3471POPC   C1B46579  28.178  17.819   6.137
 3471POPC   C2B46580  28.039  17.659   6.542
 3471POPC   C3B46581  28.024  17.676   6.983
 3471POPC   C4B46582  28.430  17.810   7.158
 3472POPC   NC346583  19.889  42.309   5.387
 3472POPC   PO446584  19.587  42.862   5.347
 3472POPC   GL146585  19.817  42.701   5.702
 3472POPC   GL246586  19.568  42.456   5.777
 3472POPC   C1A46587  19.839  42.667   6.176
 3472POPC   D2A46588  20.043  42.360   6.448
 3472POPC   C3A46589  19.932  42.294   6.878
 3472POPC   C4A46590  19.928  42.451   7.282
 3472POPC   C1B46591  19.382  42.394   6.187
 3472POPC   C2B46592  19.554  42.483   6.587
 3472POPC   C3B46593  19.526  42.601   7.007
 3472POPC   C4B46594  19.405  42.422   7.364
 3473POPC   NC346595  42.227  22.211   5.174
 3473POPC   PO446596  42.725  22.406   5.587
 3473POPC   GL146597  42.492  22.051   5.763
 3473POPC   GL246598  42.119  22.002   5.767
 3473POPC   C1A46599  42.420  22.012   6.202
 3473POPC   D2A46600  42.356  22.274   6.577
 3473POPC   C3A46601  42.466  22.002   6.918
 3473POPC   C4A46602  42.735  22.001   7.259
 3473POPC   C1B46603  41.914  22.111   6.156
 3473POPC   C2B46604  41.947  21.945   6.564
 3473POPC   C3B46605  41.987  22.165   6.938
 3473POPC   C4B46606  42.151  21.992   7.328
 3474POPC   NC346607  35.497  13.427   5.371
 3474POPC   PO446608  34.971  13.876   5.225
 3474POPC   GL146609  35.191  14.008   5.695
 3474POPC   GL246610  35.502  13.755   5.837
 3474POPC   C1A46611  35.233  14.035   6.170
 3474POPC   D2A46612  35.376  14.223   6.578
 3474POPC   C3A46613  35.347  14.157   7.031
 3474POPC   C4A46614  35.593  13.883   7.299
 3474POPC   C1B46615  35.477  13.435   6.203
 3474POPC   C2B46616  35.469  13.341   6.653
 3474POPC   C3B46617  35.333  13.425   7.068
 3474POPC   C4B46618  35.099  13.746   7.250
 3475POPC   NC346619   5.612  27.121   5.343
 3475POPC   PO446620   6.240  26.855   5.309
 3475POPC   GL146621   5.927  26.809   5.637
 3475POPC   GL246622   5.959  27.127   5.710
 3475POPC   C1A46623   5.907  26.685   6.090
 3475POPC   D2A46624   6.050  26.539   6.515
 3475POPC   C3A46625   5.923  26.684   6.903
 3475POPC   C4A46626   5.717  26.628   7.264
 3475POPC   C1B46627   5.927  27.222   6.115
 3475POPC   C2B46628   5.884  27.035   6.499
 3475POPC   C3B46629   5.839  27.210   6.895
 3475POPC   C4B46630   5.994  27.071   7.257
 3476POPC   NC346631  27.856  32.902   5.359
 3476POPC   PO446632  27.687  33.521   5.621
 3476POPC   GL146633  27.574  33.195   5.855
 3476POPC   GL246634  27.569  32.854   5.791
 3476POPC   C1A46635  27.585  33.222   6.260
 3476POPC   D2A46636  27.647  33.490   6.545
 3476POPC   C3A46637  27.515  33.287   6.902
 3476POPC   C4A46638  27.658  33.179   7.285
 3476POPC   C1B46639  27.584  32.670   6.184
 3476POPC   C2B46640  27.915  32.508   6.431
 3476POPC   C3B46641  27.847  32.496   6.868
 3476POPC   C4B46642  27.636  32.672   7.241
 3477POPC   NC346643   2.799  29.002   5.057
 3477POPC   PO446644   3.052  29.459   5.481
 3477POPC   GL146645   2.827  29.144   5.789
 3477POPC   GL246646   2.561  28.885   5.799
 3477POPC   C1A46647   2.599  29.223   6.180
 3477POPC   D2A46648   2.638  29.451   6.566
 3477POPC   C3A46649   2.680  29.207   6.956
 3477POPC   C4A46650   2.997  29.244   7.270
 3477POPC   C1B46651   2.685  28.687   6.188
 3477POPC   C2B46652   2.755  28.780   6.615
 3477POPC   C3B46653   2.600  28.647   7.007
 3477POPC   C4B46654   2.488  28.727   7.425
 3478POPC   NC346655  12.381  21.739   5.462
 3478POPC   PO446656  11.715  21.816   5.309
 3478POPC   GL146657  11.905  21.680   5.726
 3478POPC   GL246658  11.639  21.708   5.945
 3478POPC   C1A46659  12.092  21.646   6.184
 3478POPC   D2A46660  12.239  21.859   6.593
 3478POPC   C3A46661  12.162  21.877   7.071
 3478POPC   C4A46662  12.238  22.171   7.450
 3478POPC   C1B46663  11.638  21.776   6.413
 3478POPC   C2B46664  11.777  22.061   6.772
 3478POPC   C3B46665  11.799  22.244   7.202
 3478POPC   C4B46666  11.749  22.036   7.643
 3479POPC   NC346667  43.537  43.115   5.395
 3479POPC   PO446668  44.163  42.980   5.294
 3479POPC   GL146669  43.952  43.090   5.723
 3479POPC   GL246670  43.598  43.164   5.894
 3479POPC   C1A46671  44.010  43.056   6.183
 3479POPC   D2A46672  43.886  43.245   6.578
 3479POPC   C3A46673  44.102  43.039   6.930
 3479POPC   C4A46674  43.915  42.865   7.326
 3479POPC   C1B46675  43.395  43.337   6.301
 3479POPC   C2B46676  43.433  43.390   6.779
 3479POPC   C3B46677  43.740  43.327   7.106
 3479POPC   C4B46678  43.785  43.324   7.554
 3480POPC   NC346679  17.821  20.182   5.058
 3480POPC   PO446680  17.536  19.793   5.543
 3480POPC   GL146681  17.577  19.910   5.969
 3480POPC   GL246682  17.853  20.108   6.108
 3480POPC   C1A46683  17.494  19.794   6.386
 3480POPC   D2A46684  17.642  19.895   6.788
 3480POPC   C3A46685  17.353  19.686   7.045
 3480POPC   C4A46686  17.358  19.344   7.301
 3480POPC   C1B46687  17.572  20.300   6.332
 3480POPC   C2B46688  17.596  20.444   6.717
 3480POPC   C3B46689  17.282  20.244   6.928
 3480POPC   C4B46690  17.219  20.114   7.296
 3481POPC   NC346691  13.253  15.805   5.276
 3481POPC   PO446692  13.907  15.854   5.351
 3481POPC   GL146693  13.593  16.018   5.674
 3481POPC   GL246694  13.871  16.164   5.852
 3481POPC   C1A46695  13.451  16.074   6.122
 3481POPC   D2A46696  13.334  16.042   6.595
 3481POPC   C3A46697  13.710  15.972   6.828
 3481POPC   C4A46698  13.946  15.863   7.219
 3481POPC   C1B46699  13.926  16.150   6.297
 3481POPC   C2B46700  13.664  16.398   6.507
 3481POPC   C3B46701  13.663  16.477   6.923
 3481POPC   C4B46702  13.629  16.239   7.259
 3482POPC   NC346703   7.802  34.711   5.473
 3482POPC   PO446704   8.314  34.346   5.314
 3482POPC   GL146705   8.229  34.512   5.742
 3482POPC   GL246706   7.959  34.286   5.827
 3482POPC   C1A46707   8.022  34.755   6.099
 3482POPC   D2A46708   8.101  34.984   6.476
 3482POPC   C3A46709   7.948  34.823   6.866
 3482POPC   C4A46710   8.099  34.552   7.162
 3482POPC   C1B46711   8.172  34.266   6.256
 3482POPC   C2B46712   8.158  34.207   6.758
 3482POPC   C3B46713   7.970  34.065   7.207
 3482POPC   C4B46714   7.715  34.206   7.577
 3483POPC   NC346715  31.515  15.619   5.304
 3483POPC   PO446716  31.769  16.288   5.406
 3483POPC   GL146717  31.559  15.985   5.673
 3483POPC   GL246718  31.421  16.219   5.845
 3483POPC   C1A46719  31.554  15.807   6.109
 3483POPC   D2A46720  31.293  15.786   6.539
 3483POPC   C3A46721  31.508  15.781   6.939
 3483POPC   C4A46722  31.729  15.853   7.345
 3483POPC   C1B46723  31.182  16.141   6.168
 3483POPC   C2B46724  31.260  16.337   6.577
 3483POPC   C3B46725  31.171  16.153   6.963
 3483POPC   C4B46726  31.212  15.919   7.353
 3484POPC   NC346727   7.512  27.057   5.293
 3484POPC   PO446728   7.165  26.506   5.460
 3484POPC   GL146729   7.339  26.646   5.855
 3484POPC   GL246730   7.601  26.885   5.784
 3484POPC   C1A46731   7.444  26.632   6.300
 3484POPC   D2A46732   7.215  26.688   6.683
 3484POPC   C3A46733   7.374  26.928   7.056
 3484POPC   C4A46734   7.457  26.820   7.511
 3484POPC   C1B46735   7.719  27.054   6.197
 3484POPC   C2B46736   7.749  26.906   6.642
 3484POPC   C3B46737   7.926  27.071   7.018
 3484POPC   C4B46738   7.725  27.206   7.368
 3485POPC   NC346739  16.384  35.242   5.422
 3485POPC   PO446740  16.899  35.516   5.016
 3485POPC   GL146741  16.842  35.453   5.550
 3485POPC   GL246742  16.584  35.518   5.796
 3485POPC   C1A46743  16.970  35.275   6.009
 3485POPC   D2A46744  16.880  35.067   6.447
 3485POPC   C3A46745  16.810  35.192   6.922
 3485POPC   C4A46746  16.469  35.126   7.226
 3485POPC   C1B46747  16.629  35.616   6.240
 3485POPC   C2B46748  16.412  35.772   6.615
 3485POPC   C3B46749  16.491  35.620   7.036
 3485POPC   C4B46750  16.379  35.730   7.440
 3486POPC   NC346751  30.381  35.243   5.373
 3486POPC   PO446752  31.092  35.075   5.410
 3486POPC   GL146753  30.814  35.217   5.744
 3486POPC   GL246754  30.660  35.559   5.678
 3486POPC   C1A46755  30.658  35.236   6.196
 3486POPC   D2A46756  30.517  35.239   6.634
 3486POPC   C3A46757  30.746  35.013   6.999
 3486POPC   C4A46758  30.748  35.234   7.417
 3486POPC   C1B46759  30.952  35.618   6.047
 3486POPC   C2B46760  30.949  35.573   6.519
 3486POPC   C3B46761  30.785  35.532   6.964
 3486POPC   C4B46762  30.513  35.749   7.256
 3487POPC   NC346763  20.159  24.292   5.452
 3487POPC   PO446764  19.562  24.487   5.498
 3487POPC   GL146765  19.878  24.509   5.840
 3487POPC   GL246766  20.015  24.185   5.946
 3487POPC   C1A46767  20.085  24.593   6.243
 3487POPC   D2A46768  20.189  24.410   6.643
 3487POPC   C3A46769  20.027  24.608   6.994
 3487POPC   C4A46770  19.816  24.921   7.155
 3487POPC   C1B46771  19.687  24.281   6.278
 3487POPC   C2B46772  19.684  24.290   6.706
 3487POPC   C3B46773  19.867  24.125   7.047
 3487POPC   C4B46774  19.822  24.179   7.491
 3488POPC   NC346775  31.927  12.925   5.614
 3488POPC   PO446776  31.270  12.757   5.457
 3488POPC   GL146777  31.342  12.790   5.869
 3488POPC   GL246778  31.486  13.103   5.849
 3488POPC   C1A46779  31.512  12.621   6.262
 3488POPC   D2A46780  31.720  12.619   6.691
 3488POPC   C3A46781  31.478  12.627   7.083
 3488POPC   C4A46782  31.582  12.584   7.528
 3488POPC   C1B46783  31.588  13.118   6.274
 3488POPC   C2B46784  31.351  12.988   6.648
 3488POPC   C3B46785  31.314  13.106   7.065
 3488POPC   C4B46786  31.629  13.112   7.392
 3489POPC   NC346787   3.090  42.369   5.675
 3489POPC   PO446788   2.620  42.055   5.305
 3489POPC   GL146789   2.575  42.203   5.774
 3489POPC   GL246790   2.440  42.547   5.885
 3489POPC   C1A46791   2.758  42.275   6.211
 3489POPC   D2A46792   2.866  42.351   6.635
 3489POPC   C3A46793   2.645  42.228   6.982
 3489POPC   C4A46794   2.810  42.509   7.201
 3489POPC   C1B46795   2.298  42.445   6.302
 3489POPC   C2B46796   2.349  42.547   6.728
 3489POPC   C3B46797   2.305  42.610   7.174
 3489POPC   C4B46798   2.437  42.341   7.495
 3490POPC   NC346799  43.738  25.200   5.435
 3490POPC   PO446800  44.259  25.501   5.640
 3490POPC   GL146801  43.959  25.300   5.910
 3490POPC   GL246802  43.596  25.413   5.879
 3490POPC   C1A46803  44.020  25.280   6.348
 3490POPC   D2A46804  43.999  25.541   6.730
 3490POPC   C3A46805  44.137  25.247   6.998
 3490POPC   C4A46806  43.886  24.947   7.159
 3490POPC   C1B46807  43.484  25.163   6.207
 3490POPC   C2B46808  43.526  25.372   6.557
 3490POPC   C3B46809  43.479  25.540   6.913
 3490POPC   C4B46810  43.718  25.485   7.236
 3491POPC   NC346811  38.884   8.010   5.393
 3491POPC   PO446812  38.212   8.152   5.231
 3491POPC   GL146813  38.293   8.220   5.696
 3491POPC   GL246814  38.645   8.212   5.812
 3491POPC   C1A46815  38.251   8.103   6.124
 3491POPC   D2A46816  38.434   8.063   6.519
 3491POPC   C3A46817  38.157   8.135   6.852
 3491POPC   C4A46818  38.261   8.234   7.266
 3491POPC   C1B46819  38.816   8.465   6.147
 3491POPC   C2B46820  38.635   8.569   6.536
 3491POPC   C3B46821  38.646   8.366   6.931
 3491POPC   C4B46822  38.768   8.495   7.333
 3492POPC   NC346823   9.074   9.197   5.108
 3492POPC   PO446824   8.580   9.243   5.528
 3492POPC   GL146825   8.682   8.955   5.874
 3492POPC   GL246826   9.023   8.832   5.852
 3492POPC   C1A46827   8.768   8.996   6.322
 3492POPC   D2A46828   8.835   9.344   6.630
 3492POPC   C3A46829   8.789   9.193   7.041
 3492POPC   C4A46830   9.022   8.965   7.307
 3492POPC   C1B46831   9.238   8.782   6.272
 3492POPC   C2B46832   9.141   8.810   6.736
 3492POPC   C3B46833   9.287   8.581   7.120
 3492POPC   C4B46834   9.369   8.637   7.602
 3493POPC   NC346835  20.872   4.281   5.325
 3493POPC   PO446836  20.346   4.483   4.982
 3493POPC   GL146837  20.499   4.203   5.625
 3493POPC   GL246838  20.758   4.417   5.788
 3493POPC   C1A46839  20.449   4.144   6.118
 3493POPC   D2A46840  20.605   3.998   6.585
 3493POPC   C3A46841  20.570   4.278   6.998
 3493POPC   C4A46842  20.608   4.262   7.475
 3493POPC   C1B46843  20.812   4.610   6.161
 3493POPC   C2B46844  20.680   4.493   6.533
 3493POPC   C3B46845  20.957   4.600   6.870
 3493POPC   C4B46846  20.799   4.693   7.252
 3494POPC   NC346847  37.406  13.870   5.410
 3494POPC   PO446848  37.987  13.455   5.328
 3494POPC   GL146849  37.910  13.609   5.775
 3494POPC   GL246850  37.561  13.653   5.850
 3494POPC   C1A46851  37.908  13.610   6.243
 3494POPC   D2A46852  37.676  13.412   6.630
 3494POPC   C3A46853  37.879  13.467   7.062
 3494POPC   C4A46854  37.963  13.512   7.555
 3494POPC   C1B46855  37.394  13.658   6.266
 3494POPC   C2B46856  37.255  13.732   6.687
 3494POPC   C3B46857  37.441  13.699   7.063
 3494POPC   C4B46858  37.766  13.915   7.299
 3495POPC   NC346859   7.813  44.683   5.215
 3495POPC   PO446860   7.136  44.566   5.349
 3495POPC   GL146861   7.398  44.584   5.745
 3495POPC   GL246862   7.726  44.759   5.715
 3495POPC   C1A46863   7.307  44.673   6.210
 3495POPC   D2A46864   7.145  44.808   6.655
 3495POPC   C3A46865   7.048  44.491   7.014
 3495POPC   C4A46866   7.263  44.574   7.408
 3495POPC   C1B46867   7.846  44.647   6.142
 3495POPC   C2B46868   7.687  44.621   6.578
 3495POPC   C3B46869   7.790  44.788   6.997
 3495POPC   C4B46870   7.758  44.550   7.341
 3496POPC   NC346871  42.032  25.364   5.464
 3496POPC   PO446872  42.631  25.049   5.209
 3496POPC   GL146873  42.376  25.006   5.617
 3496POPC   GL246874  42.410  25.340   5.786
 3496POPC   C1A46875  42.388  24.982   6.127
 3496POPC   D2A46876  42.246  25.130   6.545
 3496POPC   C3A46877  42.384  24.976   6.932
 3496POPC   C4A46878  42.578  25.219   7.258
 3496POPC   C1B46879  42.115  25.439   6.153
 3496POPC   C2B46880  42.097  25.618   6.587
 3496POPC   C3B46881  42.117  25.560   7.056
 3496POPC   C4B46882  42.015  25.610   7.502
 3497POPC   NC346883  14.780  44.701   5.484
 3497POPC   PO446884  14.243   0.126   5.373
 3497POPC   GL146885  14.218  44.953   5.806
 3497POPC   GL246886  14.214  44.584   5.810
 3497POPC   C1A46887  14.335   0.041   6.280
 3497POPC   D2A46888  14.186   0.016   6.728
 3497POPC   C3A46889  14.406  44.679   7.010
 3497POPC   C4A46890  14.532  44.581   7.459
 3497POPC   C1B46891  14.366  44.534   6.257
 3497POPC   C2B46892  14.722  44.550   6.589
 3497POPC   C3B46893  14.759  44.288   6.982
 3497POPC   C4B46894  14.721  44.101   7.363
 3498POPC   NC346895   8.653  39.779   5.618
 3498POPC   PO446896   9.150  40.108   5.370
 3498POPC   GL146897   9.012  40.189   5.800
 3498POPC   GL246898   9.131  39.850   5.861
 3498POPC   C1A46899   9.070  40.159   6.271
 3498POPC   D2A46900   8.929  39.845   6.588
 3498POPC   C3A46901   8.814  40.038   6.975
 3498POPC   C4A46902   9.090  40.150   7.305
 3498POPC   C1B46903   9.322  39.681   6.239
 3498POPC   C2B46904   9.364  39.485   6.647
 3498POPC   C3B46905   9.220  39.686   7.005
 3498POPC   C4B46906   9.176  39.659   7.433
 3499POPC   NC346907  16.428  28.680   5.431
 3499POPC   PO446908  16.574  27.996   5.395
 3499POPC   GL146909  16.701  28.276   5.764
 3499POPC   GL246910  17.088  28.381   5.822
 3499POPC   C1A46911  16.712  28.183   6.231
 3499POPC   D2A46912  16.938  28.017   6.641
 3499POPC   C3A46913  16.655  28.096   7.014
 3499POPC   C4A46914  16.487  28.507   7.168
 3499POPC   C1B46915  17.176  28.392   6.304
 3499POPC   C2B46916  17.072  28.490   6.771
 3499POPC   C3B46917  17.019  28.563   7.210
 3499POPC   C4B46918  17.197  28.658   7.616
 3500POPC   NC346919  12.659  35.259   5.519
 3500POPC   PO446920  13.307  35.342   5.348
 3500POPC   GL146921  13.217  35.378   5.817
 3500POPC   GL246922  12.869  35.249   5.993
 3500POPC   C1A46923  13.085  35.647   6.175
 3500POPC   D2A46924  12.802  35.507   6.482
 3500POPC   C3A46925  12.828  35.656   6.895
 3500POPC   C4A46926  12.478  35.567   7.157
 3500POPC   C1B46927  13.070  35.088   6.359
 3500POPC   C2B46928  12.788  35.059   6.723
 3500POPC   C3B46929  12.889  35.154   7.126
 3500POPC   C4B46930  12.905  34.909   7.490
 3501POPC   NC346931   4.367  41.826   5.343
 3501POPC   PO446932   4.315  41.173   5.190
 3501POPC   GL146933   4.197  41.408   5.601
 3501POPC   GL246934   4.521  41.476   5.809
 3501POPC   C1A46935   4.060  41.469   6.058
 3501POPC   D2A46936   4.339  41.338   6.391
 3501POPC   C3A46937   4.253  41.378   6.823
 3501POPC   C4A46938   4.232  41.458   7.250
 3501POPC   C1B46939   4.726  41.668   6.219
 3501POPC   C2B46940   4.787  41.748   6.665
 3501POPC   C3B46941   4.720  41.525   7.044
 3501POPC   C4B46942   4.598  41.083   7.090
 3502POPC   NC346943  43.366  43.984   5.336
 3502POPC   PO446944  42.777  43.699   5.529
 3502POPC   GL146945  43.108  43.846   5.816
 3502POPC   GL246946  43.415  43.697   5.944
 3502POPC   C1A46947  43.063  43.839   6.273
 3502POPC   D2A46948  42.727  43.983   6.517
 3502POPC   C3A46949  42.791  44.073   6.924
 3502POPC   C4A46950  43.020  43.923   7.285
 3502POPC   C1B46951  43.483  44.113   6.106
 3502POPC   C2B46952  43.333  44.178   6.530
 3502POPC   C3B46953  43.303  43.925   6.868
 3502POPC   C4B46954  43.501  44.083   7.247
 3503POPC   NC346955  12.812  14.746   5.654
 3503POPC   PO446956  13.076  14.164   5.408
 3503POPC   GL146957  12.925  14.233   5.795
 3503POPC   GL246958  12.609  14.233   5.799
 3503POPC   C1A46959  12.901  14.203   6.238
 3503POPC   D2A46960  13.152  14.067   6.589
 3503POPC   C3A46961  12.997  14.251   6.966
 3503POPC   C4A46962  13.028  14.690   7.155
 3503POPC   C1B46963  12.504  14.523   6.195
 3503POPC   C2B46964  12.559  14.325   6.636
 3503POPC   C3B46965  12.513  14.356   7.101
 3503POPC   C4B46966  12.505  14.296   7.566
 3504POPC   NC346967  11.780  13.469   5.485
 3504POPC   PO446968  12.125  13.922   5.218
 3504POPC   GL146969  12.223  13.740   5.633
 3504POPC   GL246970  12.206  13.379   5.739
 3504POPC   C1A46971  11.982  13.735   6.040
 3504POPC   D2A46972  11.867  13.573   6.418
 3504POPC   C3A46973  11.985  13.642   6.854
 3504POPC   C4A46974  11.736  13.436   7.131
 3504POPC   C1B46975  12.188  13.269   6.163
 3504POPC   C2B46976  12.325  13.371   6.593
 3504POPC   C3B46977  12.225  13.212   7.019
 3504POPC   C4B46978  12.150  13.420   7.425
 3505POPC   NC346979   9.913  33.062   5.463
 3505POPC   PO446980   9.359  33.361   5.404
 3505POPC   GL146981   9.441  32.987   5.665
 3505POPC   GL246982   9.656  33.237   5.860
 3505POPC   C1A46983   9.523  32.818   6.088
 3505POPC   D2A46984   9.641  33.104   6.444
 3505POPC   C3A46985   9.697  32.988   6.898
 3505POPC   C4A46986   9.624  32.995   7.341
 3505POPC   C1B46987  10.005  33.481   6.016
 3505POPC   C2B46988  10.179  33.443   6.425
 3505POPC   C3B46989  10.159  33.229   6.808
 3505POPC   C4B46990  10.032  33.292   7.225
 3506POPC   NC346991  42.041  29.643   5.367
 3506POPC   PO446992  42.575  30.092   5.462
 3506POPC   GL146993  42.162  30.013   5.735
 3506POPC   GL246994  42.049  29.687   5.871
 3506POPC   C1A46995  42.075  30.108   6.194
 3506POPC   D2A46996  42.306  29.998   6.583
 3506POPC   C3A46997  42.272  30.240   6.945
 3506POPC   C4A46998  42.191  30.115   7.395
 3506POPC   C1B46999  42.476  29.779   6.058
 3506POPC   C2B47000  42.614  29.630   6.426
 3506POPC   C3B47001  42.664  29.669   6.876
 3506POPC   C4B47002  42.793  29.670   7.315
 3507POPC   NC347003   0.725   2.462   5.203
 3507POPC   PO447004   0.420   1.918   5.500
 3507POPC   GL147005   0.311   1.705   5.848
 3507POPC   GL247006   0.602   1.837   6.001
 3507POPC   C1A47007   0.153   1.783   6.278
 3507POPC   D2A47008   0.081   2.023   6.646
 3507POPC   C3A47009   0.267   1.838   6.983
 3507POPC   C4A47010   0.403   2.132   7.243
 3507POPC   C1B47011   0.494   2.149   6.316
 3507POPC   C2B47012   0.610   2.133   6.728
 3507POPC   C3B47013   0.799   2.363   7.046
 3507POPC   C4B47014   0.876   2.230   7.467
 3508POPC   NC347015  41.398  12.463   5.562
 3508POPC   PO447016  41.802  13.016   5.253
 3508POPC   GL147017  41.720  12.986   5.712
 3508POPC   GL247018  41.367  12.908   5.856
 3508POPC   C1A47019  41.733  13.193   6.129
 3508POPC   D2A47020  41.582  13.029   6.516
 3508POPC   C3A47021  41.820  13.037   6.900
 3508POPC   C4A47022  41.640  13.072   7.300
 3508POPC   C1B47023  41.668  12.657   6.137
 3508POPC   C2B47024  41.736  12.537   6.570
 3508POPC   C3B47025  41.471  12.688   6.900
 3508POPC   C4B47026  41.399  12.613   7.291
 3509POPC   NC347027   1.131  16.741   5.266
 3509POPC   PO447028   1.604  16.413   5.531
 3509POPC   GL147029   1.289  16.673   5.794
 3509POPC   GL247030   0.961  16.555   5.731
 3509POPC   C1A47031   1.332  16.964   6.163
 3509POPC   D2A47032   1.534  16.909   6.539
 3509POPC   C3A47033   1.369  16.785   6.938
 3509POPC   C4A47034   1.193  16.437   7.167
 3509POPC   C1B47035   0.854  16.765   6.123
 3509POPC   C2B47036   1.025  16.764   6.536
 3509POPC   C3B47037   0.853  16.746   6.947
 3509POPC   C4B47038   0.909  16.838   7.385
 3510POPC   NC347039  15.313  40.110   5.406
 3510POPC   PO447040  14.651  39.806   5.389
 3510POPC   GL147041  14.880  40.006   5.724
 3510POPC   GL247042  15.125  39.754   5.808
 3510POPC   C1A47043  15.028  40.124   6.149
 3510POPC   D2A47044  14.983  39.948   6.566
 3510POPC   C3A47045  15.275  40.035   6.895
 3510POPC   C4A47046  14.982  40.154   7.198
 3510POPC   C1B47047  14.868  39.595   6.188
 3510POPC   C2B47048  14.756  39.447   6.623
 3510POPC   C3B47049  14.876  39.611   7.047
 3510POPC   C4B47050  15.247  39.721   7.302
 3511POPC   NC347051  16.989  40.577   5.465
 3511POPC   PO447052  16.926  41.250   5.559
 3511POPC   GL147053  16.929  41.030   5.897
 3511POPC   GL247054  16.941  40.666   5.967
 3511POPC   C1A47055  16.792  41.075   6.297
 3511POPC   D2A47056  16.725  40.812   6.613
 3511POPC   C3A47057  16.823  41.089   6.910
 3511POPC   C4A47058  16.919  40.919   7.309
 3511POPC   C1B47059  16.507  40.718   6.079
 3511POPC   C2B47060  16.286  40.599   6.441
 3511POPC   C3B47061  16.303  40.550   6.873
 3511POPC   C4B47062  16.445  40.860   7.137
 3512POPC   NC347063  15.573  29.078   5.532
 3512POPC   PO447064  16.155  28.849   5.084
 3512POPC   GL147065  16.203  29.141   5.544
 3512POPC   GL247066  15.947  29.393   5.674
 3512POPC   C1A47067  16.151  29.083   6.041
 3512POPC   D2A47068  15.874  29.027   6.454
 3512POPC   C3A47069  16.004  28.968   6.924
 3512POPC   C4A47070  15.783  29.031   7.332
 3512POPC   C1B47071  15.723  29.396   6.101
 3512POPC   C2B47072  15.678  29.512   6.553
 3512POPC   C3B47073  15.725  29.402   6.978
 3512POPC   C4B47074  16.096  29.431   7.264
 3513POPC   NC347075  15.093  31.219   5.315
 3513POPC   PO447076  15.335  31.801   5.388
 3513POPC   GL147077  15.207  31.513   5.730
 3513POPC   GL247078  15.501  31.458   5.915
 3513POPC   C1A47079  15.073  31.300   6.148
 3513POPC   D2A47080  14.820  31.050   6.472
 3513POPC   C3A47081  14.776  31.201   6.900
 3513POPC   C4A47082  14.942  31.478   7.216
 3513POPC   C1B47083  15.251  31.801   6.160
 3513POPC   C2B47084  15.077  32.022   6.551
 3513POPC   C3B47085  15.092  31.921   7.006
 3513POPC   C4B47086  15.432  31.695   7.256
 3514POPC   NC347087  43.027  12.424   5.359
 3514POPC   PO447088  43.378  11.947   5.388
 3514POPC   GL147089  43.160  12.080   5.735
 3514POPC   GL247090  43.007  11.762   5.754
 3514POPC   C1A47091  43.251  12.324   6.128
 3514POPC   D2A47092  43.395  12.462   6.564
 3514POPC   C3A47093  43.167  12.359   6.963
 3514POPC   C4A47094  43.037  12.177   7.397
 3514POPC   C1B47095  42.860  11.577   6.137
 3514POPC   C2B47096  42.983  11.675   6.547
 3514POPC   C3B47097  43.035  11.868   6.937
 3514POPC   C4B47098  43.004  11.675   7.325
 3515POPC   NC347099  25.082  24.748   5.076
 3515POPC   PO447100  25.609  24.622   5.474
 3515POPC   GL147101  25.445  24.524   5.922
 3515POPC   GL247102  25.084  24.323   5.973
 3515POPC   C1A47103  25.513  24.168   6.189
 3515POPC   D2A47104  25.222  24.135   6.523
 3515POPC   C3A47105  25.313  24.464   6.812
 3515POPC   C4A47106  25.427  24.324   7.189
 3515POPC   C1B47107  25.021  24.577   6.316
 3515POPC   C2B47108  24.822  24.514   6.728
 3515POPC   C3B47109  24.931  24.426   7.143
 3515POPC   C4B47110  25.050  24.362   7.574
 3516POPC   NC347111  32.850   9.023   5.412
 3516POPC   PO447112  32.813   8.407   5.353
 3516POPC   GL147113  32.876   8.550   5.764
 3516POPC   GL247114  33.155   8.737   5.733
 3516POPC   C1A47115  32.828   8.754   6.191
 3516POPC   D2A47116  32.695   8.757   6.652
 3516POPC   C3A47117  32.670   9.061   7.002
 3516POPC   C4A47118  32.906   8.995   7.393
 3516POPC   C1B47119  33.245   9.055   6.033
 3516POPC   C2B47120  33.187   9.022   6.479
 3516POPC   C3B47121  33.170   8.969   6.919
 3516POPC   C4B47122  33.371   9.174   7.244
 3517POPC   NC347123  40.525  30.961   5.479
 3517POPC   PO447124  41.025  30.584   5.266
 3517POPC   GL147125  40.885  30.666   5.696
 3517POPC   GL247126  41.135  30.911   5.696
 3517POPC   C1A47127  40.676  30.604   6.124
 3517POPC   D2A47128  40.809  30.537   6.579
 3517POPC   C3A47129  40.563  30.621   6.954
 3517POPC   C4A47130  40.572  30.821   7.342
 3517POPC   C1B47131  41.108  30.892   6.138
 3517POPC   C2B47132  41.209  30.858   6.569
 3517POPC   C3B47133  41.132  30.751   7.005
 3517POPC   C4B47134  41.027  30.993   7.371
 3518POPC   NC347135  43.643  36.314   5.480
 3518POPC   PO447136  43.835  35.623   5.502
 3518POPC   GL147137  43.716  35.896   5.857
 3518POPC   GL247138  44.064  35.892   5.987
 3518POPC   C1A47139  43.771  36.291   6.127
 3518POPC   D2A47140  43.895  36.478   6.521
 3518POPC   C3A47141  43.834  36.373   6.960
 3518POPC   C4A47142  43.756  36.124   7.316
 3518POPC   C1B47143  44.279  36.180   6.303
 3518POPC   C2B47144  44.304  36.262   6.766
 3518POPC   C3B47145  44.296  36.131   7.230
 3518POPC   C4B47146  44.156  35.880   7.607
 3519POPC   NC347147  28.603  15.986   5.414
 3519POPC   PO447148  28.028  15.583   5.461
 3519POPC   GL147149  28.075  15.662   5.882
 3519POPC   GL247150  28.441  15.655   5.811
 3519POPC   C1A47151  28.128  15.690   6.345
 3519POPC   D2A47152  28.480  15.828   6.607
 3519POPC   C3A47153  28.343  15.944   6.998
 3519POPC   C4A47154  28.106  15.702   7.243
 3519POPC   C1B47155  28.438  16.019   6.092
 3519POPC   C2B47156  28.674  16.254   6.390
 3519POPC   C3B47157  28.537  16.369   6.794
 3519POPC   C4B47158  28.252  16.433   7.170
 3520POPC   NC347159  12.041  16.176   5.329
 3520POPC   PO447160  12.233  15.541   5.369
 3520POPC   GL147161  12.213  15.881   5.723
 3520POPC   GL247162  12.239  16.261   5.785
 3520POPC   C1A47163  12.017  15.902   6.147
 3520POPC   D2A47164  11.934  15.620   6.503
 3520POPC   C3A47165  12.088  15.693   6.910
 3520POPC   C4A47166  12.155  15.844   7.343
 3520POPC   C1B47167  12.090  16.426   6.173
 3520POPC   C2B47168  12.000  16.231   6.572
 3520POPC   C3B47169  12.082  16.409   6.979
 3520POPC   C4B47170  12.286  16.337   7.387
 3521POPC   NC347171  14.906  44.043   5.480
 3521POPC   PO447172  15.580  44.284   5.558
 3521POPC   GL147173  15.314  43.941   5.818
 3521POPC   GL247174  15.415  43.555   5.811
 3521POPC   C1A47175  14.951  43.866   6.122
 3521POPC   D2A47176  14.850  44.018   6.552
 3521POPC   C3A47177  14.874  43.765   6.911
 3521POPC   C4A47178  15.021  43.667   7.310
 3521POPC   C1B47179  15.413  43.688   6.250
 3521POPC   C2B47180  15.332  43.833   6.642
 3521POPC   C3B47181  15.389  43.624   6.985
 3521POPC   C4B47182  15.537  43.696   7.365
 3522POPC   NC347183  40.741   3.544   5.379
 3522POPC   PO447184  40.599   2.961   5.240
 3522POPC   GL147185  40.862   3.151   5.654
 3522POPC   GL247186  40.515   3.412   5.791
 3522POPC   C1A47187  40.920   3.404   6.072
 3522POPC   D2A47188  40.686   3.616   6.403
 3522POPC   C3A47189  40.832   3.518   6.821
 3522POPC   C4A47190  40.725   3.345   7.225
 3522POPC   C1B47191  40.427   3.838   6.001
 3522POPC   C2B47192  40.281   3.934   6.434
 3522POPC   C3B47193  40.434   3.857   6.838
 3522POPC   C4B47194  40.700   3.861   7.208
 3523POPC   NC347195  41.591  35.488   5.380
 3523POPC   PO447196  42.177  35.005   5.268
 3523POPC   GL147197  41.819  35.007   5.620
 3523POPC   GL247198  42.000  35.003   5.964
 3523POPC   C1A47199  41.508  35.027   6.026
 3523POPC   D2A47200  41.566  35.159   6.481
 3523POPC   C3A47201  41.271  35.374   6.773
 3523POPC   C4A47202  41.337  35.242   7.201
 3523POPC   C1B47203  41.802  35.451   6.107
 3523POPC   C2B47204  41.672  35.682   6.508
 3523POPC   C3B47205  41.718  35.542   6.939
 3523POPC   C4B47206  41.812  35.407   7.337
 3524POPC   NC347207   7.314  44.131   5.450
 3524POPC   PO447208   7.694  43.541   5.465
 3524POPC   GL147209   7.377  43.704   5.762
 3524POPC   GL247210   7.628  43.952   5.869
 3524POPC   C1A47211   7.249  43.833   6.198
 3524POPC   D2A47212   7.433  43.755   6.619
 3524POPC   C3A47213   7.239  43.933   7.009
 3524POPC   C4A47214   7.263  44.068   7.463
 3524POPC   C1B47215   7.718  43.586   6.179
 3524POPC   C2B47216   7.889  43.489   6.609
 3524POPC   C3B47217   7.641  43.518   7.024
 3524POPC   C4B47218   7.606  43.666   7.451
 3525POPC   NC347219   0.917  37.321   5.592
 3525POPC   PO447220   0.355  37.714   5.466
 3525POPC   GL147221   0.475  37.541   5.877
 3525POPC   GL247222   0.770  37.720   5.919
 3525POPC   C1A47223   0.233  37.537   6.319
 3525POPC   D2A47224   0.373  37.300   6.679
 3525POPC   C3A47225   0.367  37.474   7.077
 3525POPC   C4A47226   0.095  37.838   7.107
 3525POPC   C1B47227   0.574  37.911   6.282
 3525POPC   C2B47228   0.488  37.838   6.724
 3525POPC   C3B47229   0.619  37.906   7.155
 3525POPC   C4B47230   0.687  37.724   7.582
 3526POPC   NC347231   1.048  11.144   5.591
 3526POPC   PO447232   1.275  10.583   5.216
 3526POPC   GL147233   1.296  10.574   5.678
 3526POPC   GL247234   0.926  10.554   5.727
 3526POPC   C1A47235   1.388  10.710   6.140
 3526POPC   D2A47236   1.160  10.645   6.559
 3526POPC   C3A47237   1.339  10.675   6.990
 3526POPC   C4A47238   1.413  10.465   7.383
 3526POPC   C1B47239   0.891  10.776   6.128
 3526POPC   C2B47240   0.727  10.929   6.497
 3526POPC   C3B47241   0.832  10.853   6.902
 3526POPC   C4B47242   0.877  10.588   7.265
 3527POPC   NC347243  13.372  32.250   5.305
 3527POPC   PO447244  13.803  31.766   5.418
 3527POPC   GL147245  13.656  32.014   5.819
 3527POPC   GL247246  13.533  32.388   5.859
 3527POPC   C1A47247  13.606  32.045   6.296
 3527POPC   D2A47248  13.270  32.072   6.626
 3527POPC   C3A47249  13.329  31.978   7.058
 3527POPC   C4A47250  13.761  32.004   7.192
 3527POPC   C1B47251  13.749  32.532   6.254
 3527POPC   C2B47252  13.937  32.338   6.650
 3527POPC   C3B47253  13.921  32.491   7.084
 3527POPC   C4B47254  13.794  32.403   7.507
 3528POPC   NC347255  42.454  27.154   5.447
 3528POPC   PO447256  42.011  26.635   5.384
 3528POPC   GL147257  42.275  26.746   5.736
 3528POPC   GL247258  42.507  26.487   5.776
 3528POPC   C1A47259  42.368  26.783   6.189
 3528POPC   D2A47260  42.549  27.009   6.551
 3528POPC   C3A47261  42.270  26.926   6.853
 3528POPC   C4A47262  42.237  26.927   7.249
 3528POPC   C1B47263  42.636  26.335   6.170
 3528POPC   C2B47264  42.530  26.463   6.596
 3528POPC   C3B47265  42.443  26.472   7.040
 3528POPC   C4B47266  42.684  26.710   7.279
 3529POPC   NC347267  40.624   1.750   5.468
 3529POPC   PO447268  40.709   2.345   5.173
 3529POPC   GL147269  40.852   2.201   5.623
 3529POPC   GL247270  41.082   1.878   5.649
 3529POPC   C1A47271  40.935   2.199   6.083
 3529POPC   D2A47272  40.736   2.158   6.512
 3529POPC   C3A47273  40.850   2.300   6.940
 3529POPC   C4A47274  40.584   2.167   7.305
 3529POPC   C1B47275  40.996   1.705   6.048
 3529POPC   C2B47276  41.004   1.720   6.486
 3529POPC   C3B47277  40.901   1.767   6.908
 3529POPC   C4B47278  41.062   1.910   7.299
 3530POPC   NC347279  10.967  31.731   5.568
 3530POPC   PO447280  11.613  31.515   5.450
 3530POPC   GL147281  11.356  31.551   5.840
 3530POPC   GL247282  11.151  31.265   5.793
 3530POPC   C1A47283  11.080  31.621   6.227
 3530POPC   D2A47284  11.378  31.554   6.535
 3530POPC   C3A47285  11.501  31.590   6.953
 3530POPC   C4A47286  11.252  31.514   7.312
 3530POPC   C1B47287  10.911  31.153   6.144
 3530POPC   C2B47288  10.943  31.200   6.575
 3530POPC   C3B47289  10.966  31.519   6.884
 3530POPC   C4B47290  10.755  31.381   7.277
 3531POPC   NC347291  27.786  10.384   5.472
 3531POPC   PO447292  27.130  10.711   5.359
 3531POPC   GL147293  27.405  10.620   5.739
 3531POPC   GL247294  27.778  10.726   5.848
 3531POPC   C1A47295  27.421  10.390   6.107
 3531POPC   D2A47296  27.500  10.182   6.482
 3531POPC   C3A47297  27.379  10.299   6.898
 3531POPC   C4A47298  27.466  10.528   7.286
 3531POPC   C1B47299  27.884  10.555   6.246
 3531POPC   C2B47300  27.714  10.608   6.645
 3531POPC   C3B47301  27.902  10.596   7.026
 3531POPC   C4B47302  27.954  10.880   7.315
 3532POPC   NC347303  40.396   8.635   5.504
 3532POPC   PO447304  40.015   8.088   5.352
 3532POPC   GL147305  40.041   8.254   5.758
 3532POPC   GL247306  39.921   8.582   5.755
 3532POPC   C1A47307  39.851   8.259   6.182
 3532POPC   D2A47308  39.584   8.094   6.515
 3532POPC   C3A47309  39.821   8.157   6.881
 3532POPC   C4A47310  40.158   8.251   7.164
 3532POPC   C1B47311  40.209   8.639   6.130
 3532POPC   C2B47312  40.502   8.606   6.485
 3532POPC   C3B47313  40.393   8.646   6.913
 3532POPC   C4B47314  40.063   8.829   7.146
 3533POPC   NC347315  25.344  15.955   5.450
 3533POPC   PO447316  25.670  15.380   5.362
 3533POPC   GL147317  25.559  15.686   5.808
 3533POPC   GL247318  25.187  15.817   5.908
 3533POPC   C1A47319  25.550  16.023   6.172
 3533POPC   D2A47320  25.264  16.129   6.541
 3533POPC   C3A47321  25.512  16.172   6.920
 3533POPC   C4A47322  25.327  16.073   7.317
 3533POPC   C1B47323  24.886  15.834   6.262
 3533POPC   C2B47324  24.852  15.629   6.655
 3533POPC   C3B47325  24.889  15.830   7.047
 3533POPC   C4B47326  24.894  15.888   7.500
 3534POPC   NC347327  43.088   9.512   5.444
 3534POPC   PO447328  43.346  10.180   5.464
 3534POPC   GL147329  43.116   9.963   5.760
 3534POPC   GL247330  43.148  10.235   5.979
 3534POPC   C1A47331  42.947   9.707   6.116
 3534POPC   D2A47332  42.772   9.725   6.532
 3534POPC   C3A47333  43.043   9.671   6.885
 3534POPC   C4A47334  43.272   9.597   7.283
 3534POPC   C1B47335  42.873  10.199   6.329
 3534POPC   C2B47336  42.953  10.201   6.772
 3534POPC   C3B47337  43.022  10.087   7.196
 3534POPC   C4B47338  43.004   9.893   7.609
 3535POPC   NC347339  36.339   2.472   5.514
 3535POPC   PO447340  35.988   3.137   5.330
 3535POPC   GL147341  36.066   2.888   5.735
 3535POPC   GL247342  35.848   2.570   5.783
 3535POPC   C1A47343  36.310   2.890   6.140
 3535POPC   D2A47344  36.467   2.892   6.559
 3535POPC   C3A47345  36.290   3.028   6.919
 3535POPC   C4A47346  36.276   2.691   7.182
 3535POPC   C1B47347  35.864   2.673   6.202
 3535POPC   C2B47348  35.928   2.939   6.553
 3535POPC   C3B47349  35.840   2.757   6.941
 3535POPC   C4B47350  35.794   2.488   7.311
 3536POPC   NC347351  44.734   8.428   5.062
 3536POPC   PO447352  44.406   9.012   5.182
 3536POPC   GL147353  44.496   9.003   5.694
 3536POPC   GL247354  44.852   9.126   5.790
 3536POPC   C1A47355  44.506   9.009   6.181
 3536POPC   D2A47356  44.515   9.213   6.619
 3536POPC   C3A47357  44.458   8.930   6.967
 3536POPC   C4A47358  44.265   8.656   7.233
 3536POPC   C1B47359   0.054   8.981   6.192
 3536POPC   C2B47360  44.900   8.872   6.587
 3536POPC   C3B47361  44.952   9.014   6.996
 3536POPC   C4B47362  44.795   8.931   7.417
 3537POPC   NC347363  11.395  30.230   5.376
 3537POPC   PO447364  10.894  29.838   5.409
 3537POPC   GL147365  11.236  29.769   5.740
 3537POPC   GL247366  11.463  30.049   5.854
 3537POPC   C1A47367  11.310  29.687   6.204
 3537POPC   D2A47368  11.102  29.688   6.604
 3537POPC   C3A47369  11.323  29.679   6.981
 3537POPC   C4A47370  11.309  29.857   7.412
 3537POPC   C1B47371  11.687  30.034   6.236
 3537POPC   C2B47372  11.458  30.058   6.617
 3537POPC   C3B47373  11.495  30.168   7.018
 3537POPC   C4B47374  11.794  29.899   7.081
 3538POPC   NC347375  29.634  38.832   5.505
 3538POPC   PO447376  29.540  38.136   5.355
 3538POPC   GL147377  29.676  38.375   5.758
 3538POPC   GL247378  30.022  38.536   5.740
 3538POPC   C1A47379  29.790  38.593   6.176
 3538POPC   D2A47380  30.049  38.496   6.564
 3538POPC   C3A47381  29.834  38.607   6.964
 3538POPC   C4A47382  29.518  38.502   7.291
 3538POPC   C1B47383  30.259  38.759   6.111
 3538POPC   C2B47384  30.365  38.905   6.554
 3538POPC   C3B47385  30.354  38.729   6.987
 3538POPC   C4B47386  30.112  38.710   7.380
 3539POPC   NC347387  30.752  42.855   5.120
 3539POPC   PO447388  30.854  42.211   5.306
 3539POPC   GL147389  30.842  42.290   5.762
 3539POPC   GL247390  30.975  42.060   5.974
 3539POPC   C1A47391  30.779  42.472   6.195
 3539POPC   D2A47392  30.540  42.406   6.566
 3539POPC   C3A47393  30.705  42.328   6.978
 3539POPC   C4A47394  30.736  42.730   7.166
 3539POPC   C1B47395  31.129  42.101   6.347
 3539POPC   C2B47396  31.115  42.105   6.749
 3539POPC   C3B47397  31.014  41.869   7.063
 3539POPC   C4B47398  30.839  42.059   7.401
 3540POPC   NC347399  37.461  26.246   5.448
 3540POPC   PO447400  37.859  25.795   5.237
 3540POPC   GL147401  37.848  25.970   5.706
 3540POPC   GL247402  37.547  26.050   5.916
 3540POPC   C1A47403  37.970  25.891   6.145
 3540POPC   D2A47404  37.696  25.942   6.519
 3540POPC   C3A47405  37.914  25.851   6.904
 3540POPC   C4A47406  37.799  25.951   7.366
 3540POPC   C1B47407  37.746  26.364   6.232
 3540POPC   C2B47408  37.801  26.413   6.688
 3540POPC   C3B47409  37.557  26.206   7.003
 3540POPC   C4B47410  37.270  26.073   7.339
 3541POPC   NC347411  44.797  32.535   5.539
 3541POPC   PO447412  44.571  31.911   5.539
 3541POPC   GL147413  44.755  32.110   5.888
 3541POPC   GL247414   0.087  32.206   5.787
 3541POPC   C1A47415  44.673  32.376   6.240
 3541POPC   D2A47416  44.580  32.269   6.655
 3541POPC   C3A47417  44.638  32.544   7.002
 3541POPC   C4A47418  44.662  32.418   7.434
 3541POPC   C1B47419   0.188  32.369   6.187
 3541POPC   C2B47420   0.135  32.142   6.579
 3541POPC   C3B47421  44.996  32.153   6.992
 3541POPC   C4B47422   0.154  31.905   7.302
 3542POPC   NC347423  28.163  13.736   5.537
 3542POPC   PO447424  28.624  13.189   5.363
 3542POPC   GL147425  28.476  13.294   5.794
 3542POPC   GL247426  28.586  13.635   5.817
 3542POPC   C1A47427  28.219  13.516   6.155
 3542POPC   D2A47428  27.983  13.365   6.519
 3542POPC   C3A47429  28.240  13.450   6.879
 3542POPC   C4A47430  28.447  13.324   7.236
 3542POPC   C1B47431  28.552  13.932   6.171
 3542POPC   C2B47432  28.570  14.099   6.577
 3542POPC   C3B47433  28.273  13.991   6.911
 3542POPC   C4B47434  28.209  13.772   7.293
 3543POPC   NC347435  21.527   4.692   5.010
 3543POPC   PO447436  21.280   4.079   5.244
 3543POPC   GL147437  21.226   4.150   5.691
 3543POPC   GL247438  20.959   3.930   5.740
 3543POPC   C1A47439  21.382   4.395   6.069
 3543POPC   D2A47440  21.612   4.523   6.454
 3543POPC   C3A47441  21.460   4.404   6.872
 3543POPC   C4A47442  21.639   4.387   7.294
 3543POPC   C1B47443  20.954   4.112   6.142
 3543POPC   C2B47444  21.115   4.246   6.499
 3543POPC   C3B47445  21.050   4.072   6.890
 3543POPC   C4B47446  21.091   4.258   7.272
 3544POPC   NC347447  10.173  38.217   5.496
 3544POPC   PO447448  10.794  38.276   5.203
 3544POPC   GL147449  10.880  38.322   5.700
 3544POPC   GL247450  11.042  38.051   5.881
 3544POPC   C1A47451  10.764  38.561   6.102
 3544POPC   D2A47452  10.817  38.837   6.492
 3544POPC   C3A47453  10.584  38.751   6.897
 3544POPC   C4A47454  10.302  38.668   7.251
 3544POPC   C1B47455  10.834  38.072   6.272
 3544POPC   C2B47456  10.641  38.332   6.572
 3544POPC   C3B47457  10.469  38.248   6.952
 3544POPC   C4B47458  10.657  38.290   7.263
 3545POPC   NC347459  20.685   0.926   5.395
 3545POPC   PO447460  20.860   1.504   5.277
 3545POPC   GL147461  20.637   1.410   5.671
 3545POPC   GL247462  20.395   1.693   5.729
 3545POPC   C1A47463  20.639   1.252   6.111
 3545POPC   D2A47464  20.729   0.919   6.407
 3545POPC   C3A47465  20.832   1.051   6.853
 3545POPC   C4A47466  20.535   1.151   7.177
 3545POPC   C1B47467  20.247   1.624   6.147
 3545POPC   C2B47468  20.375   1.472   6.540
 3545POPC   C3B47469  20.198   1.478   6.964
 3545POPC   C4B47470  20.254   1.562   7.417
 3546POPC   NC347471  11.683   8.605   5.523
 3546POPC   PO447472  11.185   9.056   5.408
 3546POPC   GL147473  11.272   8.930   5.759
 3546POPC   GL247474  10.947   8.712   5.743
 3546POPC   C1A47475  11.446   8.958   6.171
 3546POPC   D2A47476  11.339   8.734   6.535
 3546POPC   C3A47477  11.540   8.910   6.917
 3546POPC   C4A47478  11.449   9.226   7.217
 3546POPC   C1B47479  10.929   8.948   6.128
 3546POPC   C2B47480  10.848   8.971   6.563
 3546POPC   C3B47481  11.044   9.033   6.929
 3546POPC   C4B47482  10.996   9.087   7.349
 3547POPC   NC347483  10.804  37.787   5.014
 3547POPC   PO447484  10.486  37.346   5.402
 3547POPC   GL147485  10.513  37.583   5.825
 3547POPC   GL247486  10.523  37.964   5.865
 3547POPC   C1A47487  10.584  37.625   6.261
 3547POPC   D2A47488  10.581  37.813   6.709
 3547POPC   C3A47489  10.726  37.726   7.173
 3547POPC   C4A47490  10.680  37.486   7.602
 3547POPC   C1B47491  10.291  38.033   6.293
 3547POPC   C2B47492  10.097  38.001   6.716
 3547POPC   C3B47493  10.225  37.815   7.148
 3547POPC   C4B47494  10.218  37.672   7.603
 3548POPC   NC347495  24.967  26.534   5.443
 3548POPC   PO447496  25.459  26.856   5.107
 3548POPC   GL147497  25.435  26.918   5.652
 3548POPC   GL247498  25.090  26.871   5.851
 3548POPC   C1A47499  25.461  26.672   6.117
 3548POPC   D2A47500  25.439  26.546   6.556
 3548POPC   C3A47501  25.203  26.677   6.918
 3548POPC   C4A47502  25.322  26.946   7.249
 3548POPC   C1B47503  24.993  26.760   6.330
 3548POPC   C2B47504  24.848  26.996   6.733
 3548POPC   C3B47505  24.821  26.975   7.207
 3548POPC   C4B47506  24.776  26.717   7.593
 3549POPC   NC347507  32.417  32.210   5.428
 3549POPC   PO447508  31.800  31.838   5.445
 3549POPC   GL147509  32.011  32.091   5.800
 3549POPC   GL247510  32.366  32.208   5.934
 3549POPC   C1A47511  31.958  32.312   6.198
 3549POPC   D2A47512  32.149  32.223   6.614
 3549POPC   C3A47513  32.005  32.165   7.050
 3549POPC   C4A47514  32.313  32.104   7.414
 3549POPC   C1B47515  32.388  32.577   6.253
 3549POPC   C2B47516  32.342  32.707   6.700
 3549POPC   C3B47517  32.427  32.494   7.088
 3549POPC   C4B47518  32.663  32.615   7.458
 3550POPC   NC347519  44.967  20.204   5.468
 3550POPC   PO447520  44.416  19.663   5.448
 3550POPC   GL147521  44.582  19.915   5.755
 3550POPC   GL247522  44.349  20.170   5.742
 3550POPC   C1A47523  44.667  19.868   6.213
 3550POPC   D2A47524  44.676  19.587   6.612
 3550POPC   C3A47525  44.837  19.702   7.042
 3550POPC   C4A47526  44.745  19.900   7.441
 3550POPC   C1B47527  44.169  19.902   6.067
 3550POPC   C2B47528  44.200  19.899   6.516
 3550POPC   C3B47529  44.287  19.778   6.944
 3550POPC   C4B47530  44.248  19.693   7.388
 3551POPC   NC347531  14.111  18.006   5.300
 3551POPC   PO447532  14.722  18.335   5.416
 3551POPC   GL147533  14.490  18.252   5.795
 3551POPC   GL247534  14.176  18.113   5.778
 3551POPC   C1A47535  14.403  18.473   6.175
 3551POPC   D2A47536  14.696  18.535   6.484
 3551POPC   C3A47537  14.638  18.517   6.908
 3551POPC   C4A47538  14.765  18.189   7.204
 3551POPC   C1B47539  14.066  18.084   6.179
 3551POPC   C2B47540  14.036  18.320   6.537
 3551POPC   C3B47541  13.989  18.210   6.957
 3551POPC   C4B47542  14.284  18.365   7.248
 3552POPC   NC347543   3.077  21.009   5.367
 3552POPC   PO447544   2.591  20.560   5.182
 3552POPC   GL147545   2.550  20.686   5.650
 3552POPC   GL247546   2.812  20.923   5.809
 3552POPC   C1A47547   2.623  20.526   6.089
 3552POPC   D2A47548   2.865  20.575   6.472
 3552POPC   C3A47549   2.667  20.689   6.838
 3552POPC   C4A47550   2.491  20.526   7.186
 3552POPC   C1B47551   3.069  20.985   6.211
 3552POPC   C2B47552   3.096  20.968   6.719
 3552POPC   C3B47553   2.937  20.949   7.204
 3552POPC   C4B47554   3.002  20.884   7.682
 3553POPC   NC347555  24.635  25.594   5.368
 3553POPC   PO447556  24.952  26.070   5.460
 3553POPC   GL147557  24.633  25.949   5.773
 3553POPC   GL247558  24.273  25.832   5.720
 3553POPC   C1A47559  24.546  25.849   6.203
 3553POPC   D2A47560  24.699  25.902   6.619
 3553POPC   C3A47561  24.415  25.961   6.937
 3553POPC   C4A47562  24.244  25.638   7.187
 3553POPC   C1B47563  24.127  26.185   6.007
 3553POPC   C2B47564  23.946  26.401   6.400
 3553POPC   C3B47565  23.988  26.422   6.876
 3553POPC   C4B47566  24.203  26.513   7.271
 3554POPC   NC347567  28.121  12.069   5.351
 3554POPC   PO447568  28.584  11.612   5.383
 3554POPC   GL147569  28.421  11.877   5.727
 3554POPC   GL247570  28.515  12.231   5.639
 3554POPC   C1A47571  28.345  11.972   6.178
 3554POPC   D2A47572  28.239  11.772   6.571
 3554POPC   C3A47573  28.146  11.975   6.950
 3554POPC   C4A47574  28.356  12.096   7.332
 3554POPC   C1B47575  28.658  12.342   6.022
 3554POPC   C2B47576  28.721  12.250   6.437
 3554POPC   C3B47577  28.622  12.144   6.838
 3554POPC   C4B47578  28.766  12.386   7.211
 3555POPC   NC347579  36.882  24.685   5.541
 3555POPC   PO447580  37.343  24.227   5.352
 3555POPC   GL147581  37.196  24.147   5.818
 3555POPC   GL247582  36.825  24.136   5.862
 3555POPC   C1A47583  37.086  24.238   6.298
 3555POPC   D2A47584  36.854  24.482   6.627
 3555POPC   C3A47585  37.120  24.621   6.969
 3555POPC   C4A47586  37.375  24.324   7.211
 3555POPC   C1B47587  36.550  24.349   6.201
 3555POPC   C2B47588  36.374  24.316   6.626
 3555POPC   C3B47589  36.595  24.223   7.021
 3555POPC   C4B47590  36.883  24.365   7.338
 3556POPC   NC347591  21.349  25.051   5.395
 3556POPC   PO447592  21.316  25.682   5.681
 3556POPC   GL147593  21.417  25.310   5.838
 3556POPC   GL247594  21.705  25.118   5.764
 3556POPC   C1A47595  21.316  25.294   6.235
 3556POPC   D2A47596  21.467  25.405   6.595
 3556POPC   C3A47597  21.138  25.270   6.821
 3556POPC   C4A47598  21.183  25.499   7.158
 3556POPC   C1B47599  21.838  25.156   6.195
 3556POPC   C2B47600  21.849  25.042   6.634
 3556POPC   C3B47601  21.625  25.151   7.018
 3556POPC   C4B47602  21.246  24.975   7.217
 3557POPC   NC347603  39.823   5.712   5.496
 3557POPC   PO447604  40.220   6.175   5.209
 3557POPC   GL147605  40.232   5.862   5.743
 3557POPC   GL247606  39.933   5.931   5.954
 3557POPC   C1A47607  40.171   5.572   6.197
 3557POPC   D2A47608  39.934   5.505   6.633
 3557POPC   C3A47609  40.056   5.797   7.017
 3557POPC   C4A47610  40.371   5.929   7.367
 3557POPC   C1B47611  39.718   5.883   6.321
 3557POPC   C2B47612  39.583   5.976   6.726
 3557POPC   C3B47613  39.589   5.978   7.181
 3557POPC   C4B47614  39.522   6.047   7.649
 3558POPC   NC347615  26.807  24.769   5.371
 3558POPC   PO447616  27.244  24.263   5.299
 3558POPC   GL147617  27.056  24.469   5.699
 3558POPC   GL247618  26.717  24.561   5.843
 3558POPC   C1A47619  27.094  24.636   6.139
 3558POPC   D2A47620  26.758  24.559   6.425
 3558POPC   C3A47621  26.839  24.520   6.838
 3558POPC   C4A47622  27.160  24.707   7.064
 3558POPC   C1B47623  26.468  24.859   6.128
 3558POPC   C2B47624  26.518  24.996   6.591
 3558POPC   C3B47625  26.607  24.944   7.049
 3558POPC   C4B47626  26.618  24.832   7.479
 3559POPC   NC347627   5.619  30.377   5.417
 3559POPC   PO447628   6.006  30.942   5.485
 3559POPC   GL147629   5.999  30.618   5.793
 3559POPC   GL247630   5.679  30.707   5.815
 3559POPC   C1A47631   5.970  30.444   6.234
 3559POPC   D2A47632   5.926  30.313   6.684
 3559POPC   C3A47633   5.895  30.663   6.977
 3559POPC   C4A47634   5.771  31.049   7.134
 3559POPC   C1B47635   5.441  30.573   6.143
 3559POPC   C2B47636   5.437  30.328   6.518
 3559POPC   C3B47637   5.440  30.257   6.936
 3559POPC   C4B47638   5.507  30.475   7.317
 3560POPC   NC347639  13.914  18.935   4.957
 3560POPC   PO447640  13.549  19.375   5.417
 3560POPC   GL147641  13.517  19.075   5.821
 3560POPC   GL247642  13.321  18.739   5.755
 3560POPC   C1A47643  13.696  19.010   6.253
 3560POPC   D2A47644  13.830  18.799   6.631
 3560POPC   C3A47645  13.680  19.020   7.002
 3560POPC   C4A47646  13.854  19.186   7.381
 3560POPC   C1B47647  13.218  18.825   6.190
 3560POPC   C2B47648  13.314  18.784   6.629
 3560POPC   C3B47649  13.163  18.782   7.057
 3560POPC   C4B47650  13.424  18.854   7.418
 3561POPC   NC347651  42.898  34.565   5.325
 3561POPC   PO447652  43.538  34.410   5.475
 3561POPC   GL147653  43.330  34.735   5.807
 3561POPC   GL247654  42.940  34.721   5.815
 3561POPC   C1A47655  43.127  34.861   6.261
 3561POPC   D2A47656  43.105  35.125   6.656
 3561POPC   C3A47657  43.133  35.037   7.094
 3561POPC   C4A47658  43.149  34.780   7.460
 3561POPC   C1B47659  42.771  34.504   6.227
 3561POPC   C2B47660  42.886  34.370   6.639
 3561POPC   C3B47661  43.011  34.523   7.043
 3561POPC   C4B47662  43.446  34.408   7.192
 3562POPC   NC347663  11.039  32.480   5.343
 3562POPC   PO447664  11.661  32.326   5.525
 3562POPC   GL147665  11.356  32.071   5.757
 3562POPC   GL247666  10.990  32.192   5.809
 3562POPC   C1A47667  11.380  32.023   6.210
 3562POPC   D2A47668  11.276  32.146   6.645
 3562POPC   C3A47669  11.478  32.153   7.044
 3562POPC   C4A47670  11.646  32.578   7.212
 3562POPC   C1B47671  10.920  32.295   6.268
 3562POPC   C2B47672  10.784  32.043   6.639
 3562POPC   C3B47673  10.941  32.114   7.061
 3562POPC   C4B47674  11.152  32.477   7.313
 3563POPC   NC347675   3.910   7.976   5.559
 3563POPC   PO447676   3.370   8.431   5.485
 3563POPC   GL147677   3.567   8.293   5.820
 3563POPC   GL247678   3.480   7.974   5.859
 3563POPC   C1A47679   3.739   8.287   6.209
 3563POPC   D2A47680   3.608   8.463   6.558
 3563POPC   C3A47681   3.554   8.284   6.956
 3563POPC   C4A47682   3.729   8.553   7.232
 3563POPC   C1B47683   3.761   7.773   6.185
 3563POPC   C2B47684   3.910   7.958   6.572
 3563POPC   C3B47685   3.755   7.824   6.929
 3563POPC   C4B47686   3.545   7.802   7.267
 3564POPC   NC347687  22.328   2.924   5.199
 3564POPC   PO447688  22.110   2.335   5.513
 3564POPC   GL147689  22.226   2.666   5.823
 3564POPC   GL247690  22.165   3.018   5.919
 3564POPC   C1A47691  22.331   2.720   6.268
 3564POPC   D2A47692  22.065   2.761   6.600
 3564POPC   C3A47693  22.265   2.705   6.960
 3564POPC   C4A47694  22.036   2.832   7.265
 3564POPC   C1B47695  22.394   3.235   6.235
 3564POPC   C2B47696  22.457   3.088   6.648
 3564POPC   C3B47697  22.336   3.202   7.077
 3564POPC   C4B47698  22.350   3.114   7.527
 3565POPC   NC347699  38.285  35.033   5.370
 3565POPC   PO447700  38.587  34.504   5.300
 3565POPC   GL147701  38.599  34.780   5.691
 3565POPC   GL247702  38.290  34.880   5.913
 3565POPC   C1A47703  38.695  34.635   6.121
 3565POPC   D2A47704  38.509  34.508   6.544
 3565POPC   C3A47705  38.578  34.626   6.994
 3565POPC   C4A47706  38.840  34.436   7.318
 3565POPC   C1B47707  38.160  34.886   6.383
 3565POPC   C2B47708  38.140  35.012   6.832
 3565POPC   C3B47709  38.123  34.802   7.229
 3565POPC   C4B47710  38.105  34.738   7.698
 3566POPC   NC347711  27.287  39.526   5.491
 3566POPC   PO447712  27.890  39.179   5.418
 3566POPC   GL147713  27.689  39.357   5.799
 3566POPC   GL247714  27.423  39.122   5.885
 3566POPC   C1A47715  27.581  39.483   6.252
 3566POPC   D2A47716  27.420  39.347   6.672
 3566POPC   C3A47717  27.736  39.099   6.921
 3566POPC   C4A47718  27.813  39.192   7.362
 3566POPC   C1B47719  27.417  38.965   6.321
 3566POPC   C2B47720  27.291  38.868   6.761
 3566POPC   C3B47721  27.299  39.072   7.194
 3566POPC   C4B47722  27.472  38.882   7.598
 3567POPC   NC347723  30.328  32.552   5.681
 3567POPC   PO447724  30.704  32.972   5.267
 3567POPC   GL147725  30.604  33.136   5.764
 3567POPC   GL247726  30.892  33.236   5.955
 3567POPC   C1A47727  30.470  33.223   6.221
 3567POPC   D2A47728  30.333  33.194   6.642
 3567POPC   C3A47729  30.599  32.905   6.836
 3567POPC   C4A47730  30.832  32.874   7.187
 3567POPC   C1B47731  30.847  33.575   6.246
 3567POPC   C2B47732  30.969  33.566   6.677
 3567POPC   C3B47733  30.738  33.369   7.019
 3567POPC   C4B47734  30.711  33.416   7.485
 3568POPC   NC347735   3.052   2.316   5.485
 3568POPC   PO447736   2.648   2.884   5.407
 3568POPC   GL147737   2.674   2.611   5.785
 3568POPC   GL247738   2.990   2.714   5.804
 3568POPC   C1A47739   2.850   2.554   6.243
 3568POPC   D2A47740   3.147   2.563   6.579
 3568POPC   C3A47741   2.878   2.569   6.909
 3568POPC   C4A47742   2.659   2.738   7.212
 3568POPC   C1B47743   2.824   3.053   6.110
 3568POPC   C2B47744   2.857   2.996   6.585
 3568POPC   C3B47745   2.945   3.138   7.021
 3568POPC   C4B47746   3.081   2.998   7.443
 3569POPC   NC347747  10.071   6.221   5.475
 3569POPC   PO447748   9.551   6.601   5.192
 3569POPC   GL147749   9.691   6.662   5.663
 3569POPC   GL247750   9.361   6.700   5.806
 3569POPC   C1A47751   9.848   6.560   6.110
 3569POPC   D2A47752   9.685   6.513   6.564
 3569POPC   C3A47753   9.977   6.538   6.931
 3569POPC   C4A47754  10.013   6.514   7.387
 3569POPC   C1B47755   9.516   6.962   6.141
 3569POPC   C2B47756   9.359   7.037   6.532
 3569POPC   C3B47757   9.315   6.755   6.877
 3569POPC   C4B47758   9.542   6.501   7.182
 3570POPC   NC347759  30.347  31.610   5.347
 3570POPC   PO447760  29.685  31.644   5.415
 3570POPC   GL147761  29.979  31.506   5.742
 3570POPC   GL247762  30.211  31.218   5.664
 3570POPC   C1A47763  30.026  31.690   6.163
 3570POPC   D2A47764  29.767  31.843   6.511
 3570POPC   C3A47765  29.950  31.668   6.870
 3570POPC   C4A47766  29.851  31.512   7.269
 3570POPC   C1B47767  30.267  31.239   6.110
 3570POPC   C2B47768  30.302  31.428   6.543
 3570POPC   C3B47769  30.291  31.320   7.012
 3570POPC   C4B47770  30.313  31.689   7.292
 3571POPC   NC347771  43.421  15.368   5.169
 3571POPC   PO447772  42.875  15.087   5.527
 3571POPC   GL147773  43.257  15.250   5.678
 3571POPC   GL247774  43.385  14.895   5.753
 3571POPC   C1A47775  43.318  15.428   6.100
 3571POPC   D2A47776  43.410  15.244   6.527
 3571POPC   C3A47777  43.205  15.340   6.937
 3571POPC   C4A47778  42.892  15.265   7.297
 3571POPC   C1B47779  43.171  14.926   6.161
 3571POPC   C2B47780  43.057  14.824   6.603
 3571POPC   C3B47781  43.118  14.852   7.063
 3571POPC   C4B47782  42.822  14.732   7.395
 3572POPC   NC347783  24.923   3.346   5.082
 3572POPC   PO447784  24.577   3.701   5.530
 3572POPC   GL147785  24.388   3.478   5.822
 3572POPC   GL247786  24.085   3.634   5.685
 3572POPC   C1A47787  24.574   3.256   6.194
 3572POPC   D2A47788  24.869   3.303   6.541
 3572POPC   C3A47789  24.746   3.558   6.887
 3572POPC   C4A47790  24.622   3.340   7.249
 3572POPC   C1B47791  24.040   3.691   6.133
 3572POPC   C2B47792  24.248   3.513   6.500
 3572POPC   C3B47793  24.242   3.492   6.932
 3572POPC   C4B47794  24.228   3.657   7.347
 3573POPC   NC347795  14.059  36.091   5.520
 3573POPC   PO447796  13.510  35.919   5.519
 3573POPC   GL147797  13.651  36.189   5.864
 3573POPC   GL247798  13.555  36.549   5.804
 3573POPC   C1A47799  13.662  36.228   6.331
 3573POPC   D2A47800  13.767  35.948   6.673
 3573POPC   C3A47801  13.530  35.879   7.045
 3573POPC   C4A47802  13.648  36.174   7.346
 3573POPC   C1B47803  13.943  36.580   6.063
 3573POPC   C2B47804  14.007  36.567   6.532
 3573POPC   C3B47805  13.863  36.434   6.962
 3573POPC   C4B47806  13.863  36.609   7.409
 3574POPC   NC347807  18.957   7.044   5.578
 3574POPC   PO447808  18.628   6.474   5.547
 3574POPC   GL147809  18.867   6.663   5.881
 3574POPC   GL247810  19.223   6.601   5.746
 3574POPC   C1A47811  18.868   6.661   6.318
 3574POPC   D2A47812  18.863   6.488   6.742
 3574POPC   C3A47813  18.828   6.674   7.138
 3574POPC   C4A47814  18.861   6.616   7.570
 3574POPC   C1B47815  19.376   6.741   6.145
 3574POPC   C2B47816  19.298   6.764   6.580
 3574POPC   C3B47817  19.323   6.540   6.961
 3574POPC   C4B47818  19.333   6.678   7.352
 3575POPC   NC347819  10.687  40.966   5.573
 3575POPC   PO447820  10.242  40.453   5.557
 3575POPC   GL147821  10.468  40.615   5.899
 3575POPC   GL247822  10.333  40.934   5.934
 3575POPC   C1A47823  10.735  40.744   6.267
 3575POPC   D2A47824  10.624  40.488   6.645
 3575POPC   C3A47825  10.733  40.651   7.049
 3575POPC   C4A47826  10.762  41.006   7.297
 3575POPC   C1B47827  10.247  40.790   6.351
 3575POPC   C2B47828  10.227  40.794   6.767
 3575POPC   C3B47829  10.259  40.887   7.152
 3575POPC   C4B47830  10.019  41.200   7.380
 3576POPC   NC347831   1.237  33.056   5.205
 3576POPC   PO447832   1.330  32.496   5.648
 3576POPC   GL147833   1.372  32.802   5.974
 3576POPC   GL247834   1.237  33.137   5.905
 3576POPC   C1A47835   1.201  32.907   6.372
 3576POPC   D2A47836   1.191  33.199   6.710
 3576POPC   C3A47837   1.321  32.999   7.086
 3576POPC   C4A47838   1.327  33.093   7.525
 3576POPC   C1B47839   1.305  33.424   6.237
 3576POPC   C2B47840   1.611  33.503   6.562
 3576POPC   C3B47841   1.666  33.350   6.979
 3576POPC   C4B47842   1.710  33.430   7.412
 3577POPC   NC347843  21.689   5.161   5.455
 3577POPC   PO447844  21.150   4.946   5.130
 3577POPC   GL147845  21.153   5.003   5.615
 3577POPC   GL247846  21.455   4.817   5.763
 3577POPC   C1A47847  21.137   5.026   6.120
 3577POPC   D2A47848  21.328   4.954   6.584
 3577POPC   C3A47849  21.145   5.084   7.019
 3577POPC   C4A47850  21.010   5.092   7.483
 3577POPC   C1B47851  21.641   5.082   6.121
 3577POPC   C2B47852  21.630   5.395   6.457
 3577POPC   C3B47853  21.640   5.299   6.904
 3577POPC   C4B47854  21.633   4.852   7.043
 3578POPC   NC347855  38.307  41.625   5.402
 3578POPC   PO447856  37.978  41.231   5.541
 3578POPC   GL147857  38.189  41.518   5.896
 3578POPC   GL247858  38.502  41.736   5.855
 3578POPC   C1A47859  38.439  41.518   6.301
 3578POPC   D2A47860  38.719  41.583   6.632
 3578POPC   C3A47861  38.412  41.558   6.972
 3578POPC   C4A47862  38.038  41.542   7.246
 3578POPC   C1B47863  38.847  41.809   6.143
 3578POPC   C2B47864  38.997  42.048   6.501
 3578POPC   C3B47865  38.865  41.992   6.931
 3578POPC   C4B47866  38.894  41.554   7.123
 3579POPC   NC347867  39.021   0.074   5.549
 3579POPC   PO447868  39.346  44.520   5.414
 3579POPC   GL147869  39.205  44.553   5.817
 3579POPC   GL247870  39.375  44.860   5.891
 3579POPC   C1A47871  39.356  44.451   6.220
 3579POPC   D2A47872  39.394  44.733   6.565
 3579POPC   C3A47873  39.167  44.574   6.876
 3579POPC   C4A47874  38.895  44.555   7.228
 3579POPC   C1B47875  39.038  44.844   6.212
 3579POPC   C2B47876  38.878  44.927   6.623
 3579POPC   C3B47877  39.067   0.048   7.034
 3579POPC   C4B47878  38.957  44.975   7.480
 3580POPC   NC347879  22.658   3.618   5.498
 3580POPC   PO447880  22.844   2.974   5.282
 3580POPC   GL147881  22.988   3.252   5.683
 3580POPC   GL247882  23.095   3.590   5.771
 3580POPC   C1A47883  22.927   3.299   6.151
 3580POPC   D2A47884  22.724   3.546   6.467
 3580POPC   C3A47885  22.770   3.419   6.872
 3580POPC   C4A47886  22.996   3.243   7.179
 3580POPC   C1B47887  23.068   3.790   6.196
 3580POPC   C2B47888  23.170   3.708   6.674
 3580POPC   C3B47889  23.065   3.743   7.147
 3580POPC   C4B47890  23.347   3.846   7.488
 3581POPC   NC347891  12.654  13.007   5.328
 3581POPC   PO447892  12.824  12.430   5.463
 3581POPC   GL147893  12.845  12.716   5.777
 3581POPC   GL247894  12.598  12.994   5.848
 3581POPC   C1A47895  12.996  12.731   6.174
 3581POPC   D2A47896  12.861  12.796   6.581
 3581POPC   C3A47897  13.062  12.617   6.897
 3581POPC   C4A47898  12.763  12.460   7.194
 3581POPC   C1B47899  12.667  13.157   6.269
 3581POPC   C2B47900  12.818  13.295   6.680
 3581POPC   C3B47901  12.746  13.021   7.037
 3581POPC   C4B47902  12.542  13.065   7.415
 3582POPC   NC347903  44.264  27.869   5.517
 3582POPC   PO447904  43.844  27.300   5.525
 3582POPC   GL147905  43.772  27.459   5.941
 3582POPC   GL247906  43.918  27.777   5.903
 3582POPC   C1A47907  43.602  27.485   6.379
 3582POPC   D2A47908  43.665  27.551   6.827
 3582POPC   C3A47909  43.767  27.233   7.101
 3582POPC   C4A47910  43.959  27.284   7.496
 3582POPC   C1B47911  43.604  27.948   6.163
 3582POPC   C2B47912  43.554  27.987   6.595
 3582POPC   C3B47913  43.650  28.048   7.032
 3582POPC   C4B47914  43.703  27.697   7.320
 3583POPC   NC347915  32.567   7.438   5.460
 3583POPC   PO447916  32.049   7.832   5.455
 3583POPC   GL147917  32.245   7.578   5.814
 3583POPC   GL247918  32.187   7.251   5.791
 3583POPC   C1A47919  32.594   7.324   6.103
 3583POPC   D2A47920  32.573   7.114   6.555
 3583POPC   C3A47921  32.440   7.351   6.960
 3583POPC   C4A47922  32.126   7.680   7.144
 3583POPC   C1B47923  32.125   7.354   6.273
 3583POPC   C2B47924  31.983   7.425   6.715
 3583POPC   C3B47925  31.700   7.350   7.080
 3583POPC   C4B47926  31.626   6.977   7.350
 3584POPC   NC347927  41.423  13.406   5.232
 3584POPC   PO447928  41.760  13.984   5.429
 3584POPC   GL147929  41.533  13.793   5.725
 3584POPC   GL247930  41.207  13.706   5.612
 3584POPC   C1A47931  41.635  13.784   6.147
 3584POPC   D2A47932  41.541  13.540   6.482
 3584POPC   C3A47933  41.758  13.535   6.827
 3584POPC   C4A47934  41.633  13.615   7.208
 3584POPC   C1B47935  41.235  13.434   6.018
 3584POPC   C2B47936  41.107  13.285   6.463
 3584POPC   C3B47937  41.310  13.258   6.896
 3584POPC   C4B47938  41.215  13.354   7.325
 3585POPC   NC347939  10.957  20.598   5.490
 3585POPC   PO447940  11.534  20.777   5.679
 3585POPC   GL147941  11.326  20.465   5.923
 3585POPC   GL247942  10.988  20.448   5.987
 3585POPC   C1A47943  11.262  20.418   6.391
 3585POPC   D2A47944  11.222  20.682   6.716
 3585POPC   C3A47945  11.113  20.461   7.080
 3585POPC   C4A47946  11.508  20.575   7.235
 3585POPC   C1B47947  10.826  20.773   6.353
 3585POPC   C2B47948  10.765  20.830   6.841
 3585POPC   C3B47949  11.072  20.972   7.176
 3585POPC   C4B47950  11.096  21.162   7.603
 3586POPC   NC347951  26.328  37.797   5.358
 3586POPC   PO447952  25.688  37.464   5.337
 3586POPC   GL147953  25.959  37.552   5.737
 3586POPC   GL247954  26.197  37.842   5.849
 3586POPC   C1A47955  25.922  37.581   6.204
 3586POPC   D2A47956  26.061  37.408   6.593
 3586POPC   C3A47957  25.958  37.540   6.993
 3586POPC   C4A47958  25.749  37.683   7.327
 3586POPC   C1B47959  26.146  38.015   6.265
 3586POPC   C2B47960  26.248  37.892   6.707
 3586POPC   C3B47961  26.308  37.876   7.180
 3586POPC   C4B47962  26.481  38.111   7.551
 3587POPC   NC347963  10.257  10.622   5.211
 3587POPC   PO447964   9.760  10.852   5.523
 3587POPC   GL147965   9.636  10.484   5.797
 3587POPC   GL247966   9.930  10.316   5.818
 3587POPC   C1A47967   9.547  10.245   6.191
 3587POPC   D2A47968   9.561  10.450   6.634
 3587POPC   C3A47969   9.534  10.262   7.044
 3587POPC   C4A47970   9.591  10.507   7.466
 3587POPC   C1B47971   9.933  10.570   6.212
 3587POPC   C2B47972  10.083  10.542   6.634
 3587POPC   C3B47973   9.958  10.576   7.071
 3587POPC   C4B47974  10.084  10.612   7.528
 3588POPC   NC347975  12.513  38.911   5.191
 3588POPC   PO447976  13.117  39.174   5.476
 3588POPC   GL147977  13.093  39.104   5.873
 3588POPC   GL247978  12.743  39.080   5.880
 3588POPC   C1A47979  13.075  39.345   6.271
 3588POPC   D2A47980  12.899  39.650   6.563
 3588POPC   C3A47981  12.800  39.495   6.941
 3588POPC   C4A47982  13.037  39.161   7.177
 3588POPC   C1B47983  12.899  38.841   6.259
 3588POPC   C2B47984  12.846  39.063   6.645
 3588POPC   C3B47985  12.579  39.029   6.969
 3588POPC   C4B47986  12.729  38.764   7.245
 3589POPC   NC347987  33.060  39.000   5.482
 3589POPC   PO447988  32.631  39.484   5.589
 3589POPC   GL147989  32.896  39.275   5.905
 3589POPC   GL247990  33.258  39.344   5.870
 3589POPC   C1A47991  33.033  39.242   6.329
 3589POPC   D2A47992  33.144  39.048   6.692
 3589POPC   C3A47993  32.819  38.965   6.986
 3589POPC   C4A47994  32.812  39.379   7.194
 3589POPC   C1B47995  33.460  39.023   6.158
 3589POPC   C2B47996  33.623  38.842   6.569
 3589POPC   C3B47997  33.578  38.988   6.987
 3589POPC   C4B47998  33.237  39.047   7.257
 3590POPC   NC347999  17.771  33.969   5.322
 3590POPC   PO448000  17.218  34.149   5.731
 3590POPC   GL148001  17.565  33.891   5.868
 3590POPC   GL248002  17.914  33.913   5.808
 3590POPC   C1A48003  17.546  33.660   6.240
 3590POPC   D2A48004  17.291  33.814   6.597
 3590POPC   C3A48005  17.422  33.917   7.013
 3590POPC   C4A48006  17.268  33.701   7.378
 3590POPC   C1B48007  17.967  33.972   6.243
 3590POPC   C2B48008  17.833  33.815   6.642
 3590POPC   C3B48009  17.701  33.510   6.942
 3590POPC   C4B48010  17.810  33.687   7.320
 3591POPC   NC348011  33.233   5.258   5.376
 3591POPC   PO448012  32.952   4.675   5.475
 3591POPC   GL148013  32.981   4.949   5.829
 3591POPC   GL248014  32.979   5.279   5.814
 3591POPC   C1A48015  33.102   5.021   6.266
 3591POPC   D2A48016  33.072   4.793   6.667
 3591POPC   C3A48017  32.806   5.054   6.925
 3591POPC   C4A48018  33.000   5.262   7.262
 3591POPC   C1B48019  32.689   5.321   6.167
 3591POPC   C2B48020  32.691   5.462   6.611
 3591POPC   C3B48021  32.605   5.532   7.073
 3591POPC   C4B48022  32.489   5.164   7.365
 3592POPC   NC348023  44.178   5.289   5.301
 3592POPC   PO448024  44.877   5.220   5.323
 3592POPC   GL148025  44.772   5.188   5.778
 3592POPC   GL248026  44.422   5.185   5.815
 3592POPC   C1A48027  44.967   5.161   6.210
 3592POPC   D2A48028   0.006   5.040   6.655
 3592POPC   C3A48029   0.035   5.353   7.012
 3592POPC   C4A48030   0.057   5.213   7.490
 3592POPC   C1B48031  44.454   5.215   6.300
 3592POPC   C2B48032  44.520   5.176   6.772
 3592POPC   C3B48033  44.318   5.217   7.177
 3592POPC   C4B48034  44.251   5.034   7.599
 3593POPC   NC348035   8.836  42.882   5.457
 3593POPC   PO448036   9.411  43.310   5.497
 3593POPC   GL148037   9.097  43.369   5.866
 3593POPC   GL248038   8.881  43.085   5.926
 3593POPC   C1A48039   9.060  43.336   6.351
 3593POPC   D2A48040   8.953  43.027   6.652
 3593POPC   C3A48041   8.853  43.171   7.042
 3593POPC   C4A48042   8.650  42.836   7.286
 3593POPC   C1B48043   9.325  42.972   6.084
 3593POPC   C2B48044   9.418  42.866   6.502
 3593POPC   C3B48045   9.332  42.740   6.905
 3593POPC   C4B48046   9.156  42.844   7.259
 3594POPC   NC348047  23.671  35.131   5.232
 3594POPC   PO448048  24.027  34.608   5.377
 3594POPC   GL148049  23.940  34.851   5.745
 3594POPC   GL248050  23.597  34.750   5.776
 3594POPC   C1A48051  23.863  34.938   6.220
 3594POPC   D2A48052  24.088  34.921   6.632
 3594POPC   C3A48053  23.828  34.730   6.976
 3594POPC   C4A48054  23.627  34.336   7.115
 3594POPC   C1B48055  23.340  34.778   6.149
 3594POPC   C2B48056  23.461  34.868   6.571
 3594POPC   C3B48057  23.419  35.040   6.963
 3594POPC   C4B48058  23.349  34.759   7.262
 3595POPC   NC348059  37.929  16.265   5.592
 3595POPC   PO448060  37.523  15.828   5.333
 3595POPC   GL148061  37.527  15.981   5.778
 3595POPC   GL248062  37.826  15.870   5.956
 3595POPC   C1A48063  37.421  15.959   6.248
 3595POPC   D2A48064  37.684  15.968   6.641
 3595POPC   C3A48065  37.613  15.945   7.082
 3595POPC   C4A48066  37.801  15.802   7.456
 3595POPC   C1B48067  37.890  16.215   6.230
 3595POPC   C2B48068  37.791  16.501   6.531
 3595POPC   C3B48069  37.736  16.420   6.954
 3595POPC   C4B48070  37.839  16.319   7.363
 3596POPC   NC348071  10.483  23.658   5.350
 3596POPC   PO448072  10.583  24.215   5.465
 3596POPC   GL148073  10.488  23.859   5.817
 3596POPC   GL248074  10.195  23.626   5.853
 3596POPC   C1A48075  10.524  23.704   6.277
 3596POPC   D2A48076  10.294  23.562   6.680
 3596POPC   C3A48077  10.532  23.503   7.118
 3596POPC   C4A48078  10.672  23.424   7.585
 3596POPC   C1B48079  10.100  23.962   6.161
 3596POPC   C2B48080  10.298  24.087   6.556
 3596POPC   C3B48081  10.368  23.975   7.001
 3596POPC   C4B48082  10.416  23.883   7.443
 3597POPC   NC348083  34.358   6.992   5.461
 3597POPC   PO448084  34.434   7.644   5.260
 3597POPC   GL148085  34.538   7.580   5.757
 3597POPC   GL248086  34.849   7.735   5.924
 3597POPC   C1A48087  34.619   7.312   6.156
 3597POPC   D2A48088  34.767   7.095   6.542
 3597POPC   C3A48089  34.662   7.214   6.937
 3597POPC   C4A48090  34.305   7.250   7.145
 3597POPC   C1B48091  34.682   7.807   6.328
 3597POPC   C2B48092  34.427   7.602   6.658
 3597POPC   C3B48093  34.500   7.719   7.086
 3597POPC   C4B48094  34.911   7.596   7.186
 3598POPC   NC348095  37.440  17.772   5.307
 3598POPC   PO448096  38.038  17.367   5.318
 3598POPC   GL148097  37.790  17.553   5.671
 3598POPC   GL248098  37.478  17.376   5.692
 3598POPC   C1A48099  37.659  17.543   6.148
 3598POPC   D2A48100  37.683  17.191   6.482
 3598POPC   C3A48101  37.711  17.270   6.933
 3598POPC   C4A48102  37.786  17.637   7.153
 3598POPC   C1B48103  37.250  17.232   6.096
 3598POPC   C2B48104  37.155  17.219   6.560
 3598POPC   C3B48105  37.258  17.517   6.905
 3598POPC   C4B48106  37.304  17.552   7.376
 3599POPC   NC348107  22.744   4.581   5.444
 3599POPC   PO448108  23.032   3.951   5.420
 3599POPC   GL148109  22.848   4.063   5.803
 3599POPC   GL248110  22.520   4.150   5.732
 3599POPC   C1A48111  22.821   4.251   6.229
 3599POPC   D2A48112  22.982   4.190   6.662
 3599POPC   C3A48113  23.135   4.558   6.913
 3599POPC   C4A48114  22.992   4.732   7.308
 3599POPC   C1B48115  22.477   3.867   6.110
 3599POPC   C2B48116  22.481   3.998   6.537
 3599POPC   C3B48117  22.618   3.911   6.924
 3599POPC   C4B48118  22.829   4.217   7.172
 3600POPC   NC348119   5.547  31.969   5.553
 3600POPC   PO448120   4.907  31.532   5.482
 3600POPC   GL148121   4.957  31.561   5.911
 3600POPC   GL248122   5.280  31.639   5.853
 3600POPC   C1A48123   5.113  31.372   6.289
 3600POPC   D2A48124   4.978  31.173   6.644
 3600POPC   C3A48125   4.862  31.573   6.821
 3600POPC   C4A48126   4.954  31.904   7.171
 3600POPC   C1B48127   5.280  31.877   6.226
 3600POPC   C2B48128   5.297  31.735   6.631
 3600POPC   C3B48129   5.411  31.359   6.867
 3600POPC   C4B48130   5.411  31.339   7.317
 3601POPC   NC348131  31.760  28.943   5.337
 3601POPC   PO448132  31.268  29.433   5.093
 3601POPC   GL148133  31.354  29.182   5.529
 3601POPC   GL248134  31.628  29.383   5.667
 3601POPC   C1A48135  31.323  29.163   6.031
 3601POPC   D2A48136  31.117  29.122   6.455
 3601POPC   C3A48137  31.380  29.261   6.796
 3601POPC   C4A48138  31.395  29.311   7.243
 3601POPC   C1B48139  31.854  29.258   6.060
 3601POPC   C2B48140  31.806  29.171   6.498
 3601POPC   C3B48141  31.873  29.233   6.929
 3601POPC   C4B48142  31.860  29.116   7.327
 3602POPC   NC348143  41.871  33.201   5.340
 3602POPC   PO448144  41.377  32.819   5.554
 3602POPC   GL148145  41.586  32.999   5.874
 3602POPC   GL248146  41.916  33.135   5.853
 3602POPC   C1A48147  41.509  32.910   6.277
 3602POPC   D2A48148  41.380  33.065   6.621
 3602POPC   C3A48149  41.479  32.965   7.036
 3602POPC   C4A48150  41.329  33.331   7.231
 3602POPC   C1B48151  42.015  32.907   6.246
 3602POPC   C2B48152  41.888  32.971   6.675
 3602POPC   C3B48153  42.000  32.833   7.078
 3602POPC   C4B48154  41.753  32.767   7.462
 3603POPC   NC348155  27.817  16.028   5.400
 3603POPC   PO448156  27.224  15.677   5.287
 3603POPC   GL148157  27.531  15.713   5.684
 3603POPC   GL248158  27.567  16.068   5.831
 3603POPC   C1A48159  27.616  15.698   6.155
 3603POPC   D2A48160  27.548  16.050   6.445
 3603POPC   C3A48161  27.407  15.924   6.845
 3603POPC   C4A48162  27.614  15.777   7.210
 3603POPC   C1B48163  27.935  16.118   6.110
 3603POPC   C2B48164  28.067  16.161   6.566
 3603POPC   C3B48165  27.869  16.149   6.977
 3603POPC   C4B48166  27.859  16.201   7.452
 3604POPC   NC348167  32.991  12.655   5.487
 3604POPC   PO448168  33.060  13.224   5.531
 3604POPC   GL148169  32.844  13.091   5.927
 3604POPC   GL248170  32.918  12.705   5.993
 3604POPC   C1A48171  32.860  13.024   6.399
 3604POPC   D2A48172  32.974  12.627   6.630
 3604POPC   C3A48173  32.855  12.685   7.067
 3604POPC   C4A48174  32.682  13.079   7.053
 3604POPC   C1B48175  33.286  12.963   6.119
 3604POPC   C2B48176  33.334  13.210   6.462
 3604POPC   C3B48177  33.166  13.082   6.824
 3604POPC   C4B48178  33.180  13.184   7.207
 3605POPC   NC348179  33.313  23.096   5.339
 3605POPC   PO448180  32.755  22.763   5.245
 3605POPC   GL148181  32.962  22.901   5.705
 3605POPC   GL248182  33.255  23.165   5.826
 3605POPC   C1A48183  32.894  23.041   6.153
 3605POPC   D2A48184  32.850  22.772   6.509
 3605POPC   C3A48185  32.803  22.870   6.945
 3605POPC   C4A48186  32.954  23.002   7.321
 3605POPC   C1B48187  33.447  22.990   6.173
 3605POPC   C2B48188  33.375  22.800   6.563
 3605POPC   C3B48189  33.303  22.780   7.002
 3605POPC   C4B48190  33.341  22.644   7.432
 3606POPC   NC348191   4.608  20.421   5.594
 3606POPC   PO448192   5.016  20.913   5.278
 3606POPC   GL148193   5.225  20.711   5.637
 3606POPC   GL248194   4.927  20.748   5.803
 3606POPC   C1A48195   5.381  20.708   6.095
 3606POPC   D2A48196   5.269  20.581   6.538
 3606POPC   C3A48197   5.266  20.778   6.950
 3606POPC   C4A48198   5.218  20.536   7.349
 3606POPC   C1B48199   4.874  20.616   6.207
 3606POPC   C2B48200   4.761  20.440   6.595
 3606POPC   C3B48201   4.898  20.390   6.982
 3606POPC   C4B48202   4.738  20.272   7.382
 3607POPC   NC348203  23.861  39.446   5.367
 3607POPC   PO448204  23.436  39.134   5.465
 3607POPC   GL148205  23.730  39.168   5.807
 3607POPC   GL248206  24.097  39.150   5.724
 3607POPC   C1A48207  23.649  39.317   6.257
 3607POPC   D2A48208  23.410  39.353   6.672
 3607POPC   C3A48209  23.509  39.146   7.073
 3607POPC   C4A48210  23.546  38.920   7.465
 3607POPC   C1B48211  24.080  39.048   6.184
 3607POPC   C2B48212  23.883  39.021   6.622
 3607POPC   C3B48213  23.969  38.912   7.058
 3607POPC   C4B48214  23.968  39.197   7.378
 3608POPC   NC348215  31.966  40.150   5.306
 3608POPC   PO448216  32.644  40.427   5.436
 3608POPC   GL148217  32.353  40.309   5.750
 3608POPC   GL248218  32.153  40.007   5.755
 3608POPC   C1A48219  32.387  40.133   6.179
 3608POPC   D2A48220  32.130  40.189   6.536
 3608POPC   C3A48221  32.331  40.099   6.932
 3608POPC   C4A48222  32.185  40.336   7.261
 3608POPC   C1B48223  32.105  39.728   6.166
 3608POPC   C2B48224  32.197  39.679   6.627
 3608POPC   C3B48225  32.139  39.627   7.098
 3608POPC   C4B48226  32.414  39.568   7.463
 3609POPC   NC348227  32.286  27.788   5.516
 3609POPC   PO448228  31.892  27.238   5.280
 3609POPC   GL148229  32.117  27.263   5.765
 3609POPC   GL248230  32.449  27.370   5.810
 3609POPC   C1A48231  32.163  27.614   6.168
 3609POPC   D2A48232  32.475  27.774   6.474
 3609POPC   C3A48233  32.298  27.810   6.867
 3609POPC   C4A48234  32.370  27.882   7.285
 3609POPC   C1B48235  32.453  27.225   6.260
 3609POPC   C2B48236  32.546  27.264   6.702
 3609POPC   C3B48237  32.363  27.347   7.109
 3609POPC   C4B48238  31.985  27.567   7.267
 3610POPC   NC348239  35.822  26.640   5.465
 3610POPC   PO448240  36.472  26.727   5.385
 3610POPC   GL148241  36.385  26.531   5.809
 3610POPC   GL248242  36.098  26.738   5.881
 3610POPC   C1A48243  36.423  26.675   6.287
 3610POPC   D2A48244  36.568  26.761   6.739
 3610POPC   C3A48245  36.216  26.856   7.059
 3610POPC   C4A48246  35.906  27.177   7.258
 3610POPC   C1B48247  35.937  26.527   6.225
 3610POPC   C2B48248  35.863  26.587   6.667
 3610POPC   C3B48249  35.865  26.476   7.072
 3610POPC   C4B48250  35.887  26.714   7.480
 3611POPC   NC348251  15.717  44.550   5.187
 3611POPC   PO448252  16.311  44.848   5.427
 3611POPC   GL148253  16.071  44.863   5.807
 3611POPC   GL248254  16.013  44.533   5.741
 3611POPC   C1A48255  15.843  44.936   6.215
 3611POPC   D2A48256  15.720  44.691   6.598
 3611POPC   C3A48257  15.784  44.880   7.048
 3611POPC   C4A48258  15.695  44.725   7.511
 3611POPC   C1B48259  16.052  44.472   6.184
 3611POPC   C2B48260  16.178  44.438   6.610
 3611POPC   C3B48261  15.952  44.403   6.993
 3611POPC   C4B48262  16.110  44.474   7.380
 3612POPC   NC348263  27.154  33.431   4.882
 3612POPC   PO448264  26.747  32.953   5.326
 3612POPC   GL148265  26.749  32.989   5.756
 3612POPC   GL248266  27.089  33.039   5.745
 3612POPC   C1A48267  26.646  32.987   6.220
 3612POPC   D2A48268  26.851  32.999   6.640
 3612POPC   C3A48269  26.682  32.990   7.080
 3612POPC   C4A48270  26.379  33.008   7.451
 3612POPC   C1B48271  27.160  32.966   6.178
 3612POPC   C2B48272  27.356  32.905   6.597
 3612POPC   C3B48273  27.201  32.897   7.037
 3612POPC   C4B48274  27.175  33.177   7.381
 3613POPC   NC348275  13.540  14.154   5.385
 3613POPC   PO448276  13.156  14.761   5.349
 3613POPC   GL148277  13.322  14.542   5.684
 3613POPC   GL248278  13.660  14.648   5.691
 3613POPC   C1A48279  13.379  14.271   6.058
 3613POPC   D2A48280  13.637  14.252   6.456
 3613POPC   C3A48281  13.496  14.376   6.863
 3613POPC   C4A48282  13.428  14.103   7.200
 3613POPC   C1B48283  13.685  14.685   6.166
 3613POPC   C2B48284  13.833  14.735   6.633
 3613POPC   C3B48285  13.946  14.553   7.066
 3613POPC   C4B48286  14.175  14.598   7.488
 3614POPC   NC348287  44.349  11.418   5.443
 3614POPC   PO448288  44.795  10.908   5.481
 3614POPC   GL148289  44.761  11.296   5.783
 3614POPC   GL248290  44.812  11.106   6.068
 3614POPC   C1A48291  44.548  11.535   6.156
 3614POPC   D2A48292  44.373  11.337   6.507
 3614POPC   C3A48293  44.601  11.443   6.879
 3614POPC   C4A48294  44.551  11.379   7.306
 3614POPC   C1B48295  44.875  11.168   6.524
 3614POPC   C2B48296  44.664  10.901   6.831
 3614POPC   C3B48297  44.586  10.859   7.257
 3614POPC   C4B48298  44.650  11.038   7.677
 3615POPC   NC348299  11.075  39.484   5.391
 3615POPC   PO448300  11.294  38.883   5.096
 3615POPC   GL148301  11.423  39.156   5.559
 3615POPC   GL248302  11.552  39.010   5.884
 3615POPC   C1A48303  11.364  39.456   5.983
 3615POPC   D2A48304  11.460  39.483   6.446
 3615POPC   C3A48305  11.189  39.541   6.829
 3615POPC   C4A48306  11.135  39.258   7.191
 3615POPC   C1B48307  11.330  38.979   6.295
 3615POPC   C2B48308  11.251  39.010   6.742
 3615POPC   C3B48309  11.448  38.875   7.133
 3615POPC   C4B48310  11.309  38.776   7.577
 3616POPC   NC348311  26.132   1.819   5.171
 3616POPC   PO448312  26.039   2.402   5.406
 3616POPC   GL148313  26.029   2.048   5.701
 3616POPC   GL248314  26.220   1.737   5.669
 3616POPC   C1A48315  26.004   1.866   6.120
 3616POPC   D2A48316  26.211   1.897   6.496
 3616POPC   C3A48317  26.051   1.822   6.904
 3616POPC   C4A48318  25.967   2.014   7.318
 3616POPC   C1B48319  26.376   1.520   6.029
 3616POPC   C2B48320  26.542   1.522   6.416
 3616POPC   C3B48321  26.476   1.544   6.863
 3616POPC   C4B48322  26.437   1.810   7.264
 3617POPC   NC348323   2.875  30.592   5.494
 3617POPC   PO448324   2.501  31.152   5.359
 3617POPC   GL148325   2.535  30.887   5.739
 3617POPC   GL248326   2.487  30.511   5.837
 3617POPC   C1A48327   2.661  30.861   6.179
 3617POPC   D2A48328   2.543  30.584   6.503
 3617POPC   C3A48329   2.542  30.764   6.896
 3617POPC   C4A48330   2.635  30.644   7.310
 3617POPC   C1B48331   2.882  30.395   6.119
 3617POPC   C2B48332   3.062  30.567   6.520
 3617POPC   C3B48333   3.022  30.529   6.971
 3617POPC   C4B48334   3.156  30.601   7.397
 3618POPC   NC348335  14.766  28.497   5.421
 3618POPC   PO448336  14.096  28.393   5.324
 3618POPC   GL148337  14.342  28.500   5.717
 3618POPC   GL248338  14.216  28.202   5.866
 3618POPC   C1A48339  14.505  28.580   6.152
 3618POPC   D2A48340  14.622  28.524   6.573
 3618POPC   C3A48341  14.399  28.662   6.947
 3618POPC   C4A48342  14.466  28.504   7.345
 3618POPC   C1B48343  14.215  28.165   6.315
 3618POPC   C2B48344  14.251  28.208   6.760
 3618POPC   C3B48345  14.559  28.092   7.069
 3618POPC   C4B48346  14.499  27.822   7.444
 3619POPC   NC348347   3.338   5.236   5.378
 3619POPC   PO448348   3.304   4.605   5.533
 3619POPC   GL148349   3.503   4.928   5.795
 3619POPC   GL248350   3.583   5.303   5.825
 3619POPC   C1A48351   3.362   5.070   6.212
 3619POPC   D2A48352   3.537   5.290   6.567
 3619POPC   C3A48353   3.375   5.113   6.953
 3619POPC   C4A48354   3.349   5.149   7.392
 3619POPC   C1B48355   3.910   5.274   6.151
 3619POPC   C2B48356   4.033   5.462   6.564
 3619POPC   C3B48357   3.876   5.317   6.966
 3619POPC   C4B48358   3.729   5.504   7.359
 3620POPC   NC348359  42.043  14.722   5.515
 3620POPC   PO448360  42.507  14.226   5.340
 3620POPC   GL148361  42.488  14.494   5.715
 3620POPC   GL248362  42.802  14.667   5.806
 3620POPC   C1A48363  42.351  14.417   6.121
 3620POPC   D2A48364  42.170  14.145   6.443
 3620POPC   C3A48365  42.208  14.218   6.886
 3620POPC   C4A48366  42.040  13.918   7.175
 3620POPC   C1B48367  42.855  14.502   6.202
 3620POPC   C2B48368  42.611  14.408   6.556
 3620POPC   C3B48369  42.787  14.453   6.933
 3620POPC   C4B48370  42.568  14.302   7.251
 3621POPC   NC348371  18.305   9.972   5.378
 3621POPC   PO448372  17.921   9.337   5.282
 3621POPC   GL148373  18.122   9.569   5.683
 3621POPC   GL248374  18.503   9.606   5.754
 3621POPC   C1A48375  18.110   9.698   6.146
 3621POPC   D2A48376  17.994   9.894   6.577
 3621POPC   C3A48377  18.075   9.672   6.962
 3621POPC   C4A48378  18.171   9.644   7.404
 3621POPC   C1B48379  18.657   9.597   6.200
 3621POPC   C2B48380  18.629   9.406   6.643
 3621POPC   C3B48381  18.555   9.542   7.060
 3621POPC   C4B48382  18.594   9.922   7.341
 3622POPC   NC348383  37.079  28.364   5.136
 3622POPC   PO448384  37.630  28.320   5.362
 3622POPC   GL148385  37.709  28.262   5.841
 3622POPC   GL248386  38.001  28.096   5.960
 3622POPC   C1A48387  37.617  28.364   6.292
 3622POPC   D2A48388  37.425  28.129   6.652
 3622POPC   C3A48389  37.587  28.168   7.049
 3622POPC   C4A48390  37.686  28.601   7.149
 3622POPC   C1B48391  38.030  28.097   6.420
 3622POPC   C2B48392  37.976  28.333   6.780
 3622POPC   C3B48393  38.064  28.206   7.235
 3622POPC   C4B48394  38.427  28.128   7.520
 3623POPC   NC348395  25.643  34.100   5.126
 3623POPC   PO448396  26.181  33.669   5.406
 3623POPC   GL148397  26.069  33.624   5.828
 3623POPC   GL248398  26.342  33.888   5.880
 3623POPC   C1A48399  25.954  33.850   6.217
 3623POPC   D2A48400  26.227  34.114   6.452
 3623POPC   C3A48401  26.174  34.154   6.893
 3623POPC   C4A48402  26.068  33.777   7.103
 3623POPC   C1B48403  26.472  33.650   6.234
 3623POPC   C2B48404  26.593  33.462   6.636
 3623POPC   C3B48405  26.363  33.385   7.032
 3623POPC   C4B48406  26.360  33.531   7.494
 3624POPC   NC348407  21.227  34.643   5.467
 3624POPC   PO448408  21.806  34.290   5.476
 3624POPC   GL148409  21.504  34.385   5.800
 3624POPC   GL248410  21.333  34.707   5.939
 3624POPC   C1A48411  21.532  34.360   6.241
 3624POPC   D2A48412  21.387  34.571   6.567
 3624POPC   C3A48413  21.586  34.502   6.958
 3624POPC   C4A48414  21.553  34.233   7.285
 3624POPC   C1B48415  20.993  34.918   6.194
 3624POPC   C2B48416  20.853  34.774   6.598
 3624POPC   C3B48417  21.101  34.702   6.957
 3624POPC   C4B48418  21.204  34.574   7.322
 3625POPC   NC348419  17.488  39.025   5.442
 3625POPC   PO448420  18.046  39.500   5.478
 3625POPC   GL148421  17.667  39.407   5.739
 3625POPC   GL248422  17.755  39.102   5.864
 3625POPC   C1A48423  17.413  39.444   6.136
 3625POPC   D2A48424  17.225  39.540   6.573
 3625POPC   C3A48425  17.390  39.484   7.013
 3625POPC   C4A48426  17.248  39.550   7.451
 3625POPC   C1B48427  17.573  38.961   6.243
 3625POPC   C2B48428  17.408  39.068   6.629
 3625POPC   C3B48429  17.561  39.001   7.035
 3625POPC   C4B48430  17.348  39.036   7.406
 3626POPC   NC348431   1.618  32.265   5.376
 3626POPC   PO448432   2.218  32.299   5.201
 3626POPC   GL148433   2.140  32.382   5.640
 3626POPC   GL248434   1.876  32.180   5.806
 3626POPC   C1A48435   2.255  32.367   6.087
 3626POPC   D2A48436   2.052  32.367   6.481
 3626POPC   C3A48437   2.290  32.209   6.797
 3626POPC   C4A48438   2.267  32.390   7.172
 3626POPC   C1B48439   1.623  32.297   6.197
 3626POPC   C2B48440   1.549  32.415   6.635
 3626POPC   C3B48441   1.788  32.302   6.991
 3626POPC   C4B48442   2.017  31.928   7.128
 3627POPC   NC348443  43.454  14.701   5.269
 3627POPC   PO448444  43.988  14.258   5.395
 3627POPC   GL148445  43.801  14.368   5.759
 3627POPC   GL248446  43.922  14.692   5.864
 3627POPC   C1A48447  43.979  14.256   6.187
 3627POPC   D2A48448  43.840  14.294   6.611
 3627POPC   C3A48449  44.085  14.126   6.954
 3627POPC   C4A48450  44.014  13.926   7.355
 3627POPC   C1B48451  44.061  14.737   6.317
 3627POPC   C2B48452  44.067  14.700   6.797
 3627POPC   C3B48453  43.756  14.501   7.113
 3627POPC   C4B48454  43.593  14.665   7.527
 3628POPC   NC348455  10.373  36.922   5.540
 3628POPC   PO448456  10.880  36.511   5.462
 3628POPC   GL148457  10.761  36.718   5.859
 3628POPC   GL248458  10.744  37.101   5.870
 3628POPC   C1A48459  10.503  36.664   6.227
 3628POPC   D2A48460  10.512  36.883   6.632
 3628POPC   C3A48461  10.410  36.759   7.045
 3628POPC   C4A48462  10.747  36.885   7.279
 3628POPC   C1B48463  10.402  37.157   6.189
 3628POPC   C2B48464  10.333  37.358   6.614
 3628POPC   C3B48465  10.508  37.295   6.998
 3628POPC   C4B48466  10.342  37.202   7.371
 3629POPC   NC348467  42.799  18.351   4.897
 3629POPC   PO448468  43.211  18.269   5.480
 3629POPC   GL148469  43.134  18.209   5.885
 3629POPC   GL248470  42.766  18.142   5.877
 3629POPC   C1A48471  43.012  18.437   6.244
 3629POPC   D2A48472  42.709  18.301   6.532
 3629POPC   C3A48473  42.804  18.449   6.926
 3629POPC   C4A48474  43.144  18.325   7.172
 3629POPC   C1B48475  42.684  17.871   6.245
 3629POPC   C2B48476  42.619  17.735   6.682
 3629POPC   C3B48477  42.902  17.916   7.000
 3629POPC   C4B48478  43.095  17.895   7.483
 3630POPC   NC348479  10.364  40.059   5.353
 3630POPC   PO448480  11.011  39.935   5.291
 3630POPC   GL148481  10.760  40.168   5.692
 3630POPC   GL248482  10.397  40.076   5.869
 3630POPC   C1A48483  10.754  40.235   6.173
 3630POPC   D2A48484  10.800  39.976   6.552
 3630POPC   C3A48485  10.463  40.042   6.845
 3630POPC   C4A48486  10.303  40.339   7.113
 3630POPC   C1B48487  10.303  39.952   6.328
 3630POPC   C2B48488  10.246  39.632   6.673
 3630POPC   C3B48489  10.293  39.609   7.132
 3630POPC   C4B48490  10.024  39.590   7.518
 3631POPC   NC348491  38.894  10.627   5.371
 3631POPC   PO448492  38.956  10.098   5.756
 3631POPC   GL148493  39.242  10.455   5.758
 3631POPC   GL248494  39.103  10.764   5.815
 3631POPC   C1A48495  39.447  10.441   6.139
 3631POPC   D2A48496  39.278  10.247   6.498
 3631POPC   C3A48497  39.392  10.352   6.910
 3631POPC   C4A48498  39.158  10.525   7.252
 3631POPC   C1B48499  39.080  10.858   6.255
 3631POPC   C2B48500  39.071  10.709   6.684
 3631POPC   C3B48501  38.775  10.768   7.028
 3631POPC   C4B48502  38.889  11.026   7.382
 3632POPC   NC348503   7.071  20.675   5.417
 3632POPC   PO448504   7.591  20.229   5.501
 3632POPC   GL148505   7.523  20.522   5.844
 3632POPC   GL248506   7.178  20.452   5.900
 3632POPC   C1A48507   7.397  20.706   6.285
 3632POPC   D2A48508   7.283  20.809   6.695
 3632POPC   C3A48509   7.452  20.644   7.111
 3632POPC   C4A48510   7.335  20.443   7.531
 3632POPC   C1B48511   7.449  20.216   6.256
 3632POPC   C2B48512   7.584  20.323   6.703
 3632POPC   C3B48513   7.475  20.112   7.129
 3632POPC   C4B48514   7.427  19.946   7.587
 3633POPC   NC348515   6.953  12.848   5.233
 3633POPC   PO448516   7.494  12.998   5.235
 3633POPC   GL148517   7.481  12.688   5.660
 3633POPC   GL248518   7.841  12.514   5.665
 3633POPC   C1A48519   7.263  12.657   6.144
 3633POPC   D2A48520   7.078  12.914   6.554
 3633POPC   C3A48521   7.217  12.898   7.047
 3633POPC   C4A48522   7.194  12.967   7.544
 3633POPC   C1B48523   7.787  12.582   6.129
 3633POPC   C2B48524   7.603  12.636   6.560
 3633POPC   C3B48525   7.733  12.820   6.967
 3633POPC   C4B48526   7.638  12.801   7.429
 3634POPC   NC348527  30.868  12.610   5.650
 3634POPC   PO448528  31.007  12.049   5.428
 3634POPC   GL148529  30.838  11.971   5.816
 3634POPC   GL248530  31.088  11.799   5.920
 3634POPC   C1A48531  30.640  12.072   6.220
 3634POPC   D2A48532  30.432  11.969   6.604
 3634POPC   C3A48533  30.562  12.219   6.953
 3634POPC   C4A48534  30.640  12.148   7.355
 3634POPC   C1B48535  31.067  11.762   6.304
 3634POPC   C2B48536  30.959  11.963   6.640
 3634POPC   C3B48537  30.892  11.819   7.035
 3634POPC   C4B48538  30.955  11.801   7.506
 3635POPC   NC348539  35.954   0.338   5.204
 3635POPC   PO448540  36.408   0.756   5.290
 3635POPC   GL148541  36.375   0.421   5.693
 3635POPC   GL248542  36.082   0.188   5.723
 3635POPC   C1A48543  36.206   0.491   6.166
 3635POPC   D2A48544  35.893   0.639   6.519
 3635POPC   C3A48545  35.987   0.483   6.922
 3635POPC   C4A48546  36.387   0.357   7.099
 3635POPC   C1B48547  36.026   0.002   6.152
 3635POPC   C2B48548  35.875   0.084   6.550
 3635POPC   C3B48549  35.973  44.965   6.921
 3635POPC   C4B48550  35.934   0.130   7.312
 3636POPC   NC348551  15.026   8.287   5.416
 3636POPC   PO448552  15.631   7.961   5.443
 3636POPC   GL148553  15.431   8.243   5.724
 3636POPC   GL248554  15.639   8.507   5.721
 3636POPC   C1A48555  15.117   8.240   6.079
 3636POPC   D2A48556  15.179   8.315   6.522
 3636POPC   C3A48557  15.005   8.249   6.956
 3636POPC   C4A48558  14.829   8.608   7.186
 3636POPC   C1B48559  15.474   8.618   6.118
 3636POPC   C2B48560  15.531   8.705   6.550
 3636POPC   C3B48561  15.438   8.503   6.920
 3636POPC   C4B48562  15.591   8.214   7.182
 3637POPC   NC348563   9.719  11.172   5.191
 3637POPC   PO448564  10.119  11.741   5.239
 3637POPC   GL148565   9.975  11.531   5.675
 3637POPC   GL248566   9.646  11.333   5.689
 3637POPC   C1A48567   9.963  11.386   6.158
 3637POPC   D2A48568   9.893  11.040   6.471
 3637POPC   C3A48569   9.675  11.057   6.863
 3637POPC   C4A48570   9.774  11.003   7.295
 3637POPC   C1B48571   9.513  11.117   6.081
 3637POPC   C2B48572   9.406  11.273   6.466
 3637POPC   C3B48573   9.206  11.437   6.832
 3637POPC   C4B48574   9.328  11.269   7.226
 3638POPC   NC348575   9.432  31.393   5.463
 3638POPC   PO448576  10.061  31.355   5.106
 3638POPC   GL148577   9.908  31.280   5.628
 3638POPC   GL248578   9.886  31.596   5.781
 3638POPC   C1A48579   9.917  31.214   6.148
 3638POPC   D2A48580  10.092  31.362   6.618
 3638POPC   C3A48581   9.908  31.182   7.046
 3638POPC   C4A48582   9.879  31.342   7.524
 3638POPC   C1B48583   9.690  31.677   6.189
 3638POPC   C2B48584   9.595  31.520   6.604
 3638POPC   C3B48585   9.695  31.644   7.014
 3638POPC   C4B48586   9.609  31.775   7.420
 3639POPC   NC348587  18.073  32.503   5.091
 3639POPC   PO448588  18.591  32.342   5.555
 3639POPC   GL148589  18.539  32.283   5.918
 3639POPC   GL248590  18.396  31.949   5.948
 3639POPC   C1A48591  18.259  32.318   6.259
 3639POPC   D2A48592  18.164  32.080   6.593
 3639POPC   C3A48593  18.231  32.370   6.902
 3639POPC   C4A48594  18.052  32.408   7.272
 3639POPC   C1B48595  18.688  32.012   6.291
 3639POPC   C2B48596  18.678  32.180   6.687
 3639POPC   C3B48597  18.531  31.960   7.037
 3639POPC   C4B48598  18.655  31.970   7.450
 3640POPC   NC348599   2.329  23.950   5.551
 3640POPC   PO448600   1.694  23.647   5.451
 3640POPC   GL148601   1.945  23.732   5.838
 3640POPC   GL248602   2.182  23.493   5.860
 3640POPC   C1A48603   2.125  23.769   6.275
 3640POPC   D2A48604   1.942  23.847   6.676
 3640POPC   C3A48605   2.163  23.791   7.052
 3640POPC   C4A48606   1.933  23.826   7.448
 3640POPC   C1B48607   2.349  23.312   6.232
 3640POPC   C2B48608   2.375  23.501   6.664
 3640POPC   C3B48609   2.506  23.321   7.078
 3640POPC   C4B48610   2.392  23.591   7.458
 3641POPC   NC348611   0.528  16.303   5.352
 3641POPC   PO448612   0.308  15.661   5.370
 3641POPC   GL148613   0.515  15.857   5.700
 3641POPC   GL248614   0.191  15.819   5.865
 3641POPC   C1A48615   0.641  15.775   6.141
 3641POPC   D2A48616   0.776  15.781   6.576
 3641POPC   C3A48617   0.578  15.771   6.975
 3641POPC   C4A48618   0.661  15.837   7.428
 3641POPC   C1B48619   0.186  16.060   6.238
 3641POPC   C2B48620   0.358  16.162   6.648
 3641POPC   C3B48621   0.211  16.121   7.056
 3641POPC   C4B48622   0.167  15.742   7.295
 3642POPC   NC348623  25.389  44.286   5.612
 3642POPC   PO448624  25.290  43.701   5.537
 3642POPC   GL148625  25.169  43.886   5.889
 3642POPC   GL248626  24.837  43.987   6.008
 3642POPC   C1A48627  25.365  44.020   6.223
 3642POPC   D2A48628  25.155  44.008   6.577
 3642POPC   C3A48629  25.402  43.822   6.874
 3642POPC   C4A48630  25.280  43.952   7.263
 3642POPC   C1B48631  24.828  43.590   6.192
 3642POPC   C2B48632  24.991  43.512   6.601
 3642POPC   C3B48633  24.867  43.796   6.957
 3642POPC   C4B48634  24.824  43.695   7.379
 3643POPC   NC348635  23.703   4.866   5.430
 3643POPC   PO448636  23.467   5.450   5.161
 3643POPC   GL148637  23.362   5.237   5.589
 3643POPC   GL248638  23.321   5.484   5.845
 3643POPC   C1A48639  23.412   5.007   6.024
 3643POPC   D2A48640  23.745   4.987   6.396
 3643POPC   C3A48641  23.709   4.945   6.874
 3643POPC   C4A48642  24.054   4.814   7.156
 3643POPC   C1B48643  23.466   5.441   6.284
 3643POPC   C2B48644  23.328   5.494   6.689
 3643POPC   C3B48645  23.583   5.471   7.054
 3643POPC   C4B48646  24.026   5.343   7.109
 3644POPC   NC348647  34.635  13.538   5.128
 3644POPC   PO448648  35.112  13.524   5.613
 3644POPC   GL148649  34.909  13.549   5.960
 3644POPC   GL248650  34.688  13.271   5.815
 3644POPC   C1A48651  34.564  13.689   6.253
 3644POPC   D2A48652  34.564  13.893   6.662
 3644POPC   C3A48653  34.406  13.787   7.084
 3644POPC   C4A48654  34.655  13.843   7.453
 3644POPC   C1B48655  34.725  13.200   6.262
 3644POPC   C2B48656  34.915  13.456   6.587
 3644POPC   C3B48657  34.779  13.426   7.012
 3644POPC   C4B48658  34.479  13.173   7.250
 3645POPC   NC348659  27.669  24.290   5.507
 3645POPC   PO448660  27.272  24.858   5.449
 3645POPC   GL148661  27.502  24.638   5.849
 3645POPC   GL248662  27.641  24.300   6.000
 3645POPC   C1A48663  27.606  24.797   6.228
 3645POPC   D2A48664  27.411  24.804   6.606
 3645POPC   C3A48665  27.691  24.599   6.908
 3645POPC   C4A48666  27.558  24.506   7.307
 3645POPC   C1B48667  27.407  24.321   6.345
 3645POPC   C2B48668  27.301  24.317   6.734
 3645POPC   C3B48669  27.504  24.092   7.038
 3645POPC   C4B48670  27.920  24.151   7.270
 3646POPC   NC348671  39.475   3.638   5.396
 3646POPC   PO448672  38.850   3.370   5.314
 3646POPC   GL148673  39.054   3.537   5.739
 3646POPC   GL248674  39.412   3.684   5.891
 3646POPC   C1A48675  39.093   3.445   6.199
 3646POPC   D2A48676  39.258   3.695   6.529
 3646POPC   C3A48677  39.087   3.505   6.879
 3646POPC   C4A48678  39.100   3.384   7.303
 3646POPC   C1B48679  39.593   3.409   6.251
 3646POPC   C2B48680  39.510   3.257   6.688
 3646POPC   C3B48681  39.552   3.477   7.114
 3646POPC   C4B48682  39.509   3.449   7.590
 3647POPC   NC348683  10.720   9.058   5.394
 3647POPC   PO448684  10.568   8.433   5.416
 3647POPC   GL148685  10.413   8.601   5.817
 3647POPC   GL248686  10.485   8.928   5.836
 3647POPC   C1A48687  10.542   8.656   6.296
 3647POPC   D2A48688  10.556   8.550   6.749
 3647POPC   C3A48689  10.680   8.723   7.187
 3647POPC   C4A48690  10.545   9.013   7.578
 3647POPC   C1B48691  10.473   9.171   6.214
 3647POPC   C2B48692  10.356   9.111   6.631
 3647POPC   C3B48693  10.560   9.192   7.013
 3647POPC   C4B48694  10.659   9.448   7.347
 3648POPC   NC348695  16.976  30.299   5.346
 3648POPC   PO448696  16.385  30.565   5.388
 3648POPC   GL148697  16.546  30.763   5.751
 3648POPC   GL248698  16.857  30.607   5.757
 3648POPC   C1A48699  16.746  30.953   6.138
 3648POPC   D2A48700  16.887  30.796   6.528
 3648POPC   C3A48701  16.765  31.016   6.904
 3648POPC   C4A48702  16.522  31.144   7.275
 3648POPC   C1B48703  16.750  30.422   6.173
 3648POPC   C2B48704  16.831  30.270   6.599
 3648POPC   C3B48705  16.856  30.487   7.005
 3648POPC   C4B48706  16.719  30.695   7.413
 3649POPC   NC348707   8.367  26.612   5.551
 3649POPC   PO448708   7.920  27.182   5.487
 3649POPC   GL148709   8.116  26.963   5.826
 3649POPC   GL248710   8.481  27.016   5.879
 3649POPC   C1A48711   8.114  26.703   6.203
 3649POPC   D2A48712   8.282  26.814   6.610
 3649POPC   C3A48713   8.105  26.588   6.934
 3649POPC   C4A48714   7.705  26.562   7.070
 3649POPC   C1B48715   8.636  27.081   6.310
 3649POPC   C2B48716   8.608  27.184   6.776
 3649POPC   C3B48717   8.426  26.943   7.139
 3649POPC   C4B48718   8.462  26.818   7.633
 3650POPC   NC348719  38.247  10.704   5.559
 3650POPC   PO448720  38.643  10.243   5.298
 3650POPC   GL148721  38.546  10.379   5.788
 3650POPC   GL248722  38.607  10.726   5.944
 3650POPC   C1A48723  38.246  10.430   6.175
 3650POPC   D2A48724  38.313  10.327   6.632
 3650POPC   C3A48725  38.189  10.501   7.039
 3650POPC   C4A48726  38.317  10.410   7.481
 3650POPC   C1B48727  38.766  10.441   6.303
 3650POPC   C2B48728  38.813  10.213   6.712
 3650POPC   C3B48729  38.669  10.226   7.147
 3650POPC   C4B48730  38.796  10.350   7.591
 3651POPC   NC348731  16.619  39.115   5.486
 3651POPC   PO448732  17.243  39.453   5.431
 3651POPC   GL148733  17.089  39.232   5.792
 3651POPC   GL248734  16.799  39.436   5.897
 3651POPC   C1A48735  17.012  39.174   6.271
 3651POPC   D2A48736  16.758  39.354   6.644
 3651POPC   C3A48737  16.942  39.237   7.061
 3651POPC   C4A48738  16.887  39.175   7.500
 3651POPC   C1B48739  16.486  39.578   6.224
 3651POPC   C2B48740  16.246  39.631   6.598
 3651POPC   C3B48741  16.388  39.633   7.001
 3651POPC   C4B48742  16.553  39.534   7.376
 3652POPC   NC348743  12.818  14.754   5.043
 3652POPC   PO448744  13.016  15.401   5.332
 3652POPC   GL148745  12.975  15.270   5.724
 3652POPC   GL248746  12.618  15.331   5.757
 3652POPC   C1A48747  12.944  15.498   6.110
 3652POPC   D2A48748  12.846  15.601   6.539
 3652POPC   C3A48749  13.032  15.366   6.893
 3652POPC   C4A48750  12.983  15.512   7.330
 3652POPC   C1B48751  12.635  15.092   6.190
 3652POPC   C2B48752  12.464  14.870   6.580
 3652POPC   C3B48753  12.389  14.919   7.017
 3652POPC   C4B48754  12.712  15.093   7.268
 3653POPC   NC348755  16.326  29.277   5.071
 3653POPC   PO448756  16.874  28.949   5.360
 3653POPC   GL148757  16.723  29.153   5.716
 3653POPC   GL248758  16.957  29.443   5.799
 3653POPC   C1A48759  16.643  28.921   6.093
 3653POPC   D2A48760  16.912  28.844   6.458
 3653POPC   C3A48761  16.799  28.961   6.895
 3653POPC   C4A48762  16.562  29.323   7.071
 3653POPC   C1B48763  16.855  29.361   6.244
 3653POPC   C2B48764  17.061  29.501   6.633
 3653POPC   C3B48765  17.064  29.414   7.048
 3653POPC   C4B48766  17.126  29.386   7.480
 3654POPC   NC348767  30.578  38.799   5.433
 3654POPC   PO448768  31.132  38.380   5.519
 3654POPC   GL148769  30.862  38.383   5.869
 3654POPC   GL248770  30.519  38.429   5.796
 3654POPC   C1A48771  30.718  38.603   6.244
 3654POPC   D2A48772  30.580  38.426   6.634
 3654POPC   C3A48773  30.864  38.443   6.986
 3654POPC   C4A48774  31.227  38.156   7.109
 3654POPC   C1B48775  30.285  38.237   6.155
 3654POPC   C2B48776  30.306  37.987   6.551
 3654POPC   C3B48777  30.278  38.149   6.975
 3654POPC   C4B48778  30.493  38.367   7.333
 3655POPC   NC348779  34.737  42.943   5.277
 3655POPC   PO448780  34.169  43.261   5.427
 3655POPC   GL148781  34.331  43.265   5.856
 3655POPC   GL248782  34.546  42.977   5.821
 3655POPC   C1A48783  34.415  43.375   6.331
 3655POPC   D2A48784  34.424  43.263   6.785
 3655POPC   C3A48785  34.365  43.378   7.231
 3655POPC   C4A48786  34.722  43.292   7.530
 3655POPC   C1B48787  34.761  43.006   6.227
 3655POPC   C2B48788  34.914  43.015   6.662
 3655POPC   C3B48789  34.758  42.997   7.097
 3655POPC   C4B48790  34.327  42.874   7.125
 3656POPC   NC348791  30.342  21.909   5.514
 3656POPC   PO448792  30.613  22.489   5.381
 3656POPC   GL148793  30.641  22.232   5.776
 3656POPC   GL248794  30.976  22.120   5.903
 3656POPC   C1A48795  30.555  22.051   6.190
 3656POPC   D2A48796  30.747  22.152   6.566
 3656POPC   C3A48797  30.556  22.002   6.939
 3656POPC   C4A48798  30.550  21.975   7.385
 3656POPC   C1B48799  31.043  21.829   6.280
 3656POPC   C2B48800  30.956  21.715   6.730
 3656POPC   C3B48801  31.007  21.853   7.163
 3656POPC   C4B48802  30.988  21.907   7.607
 3657POPC   NC348803  38.976  11.381   5.621
 3657POPC   PO448804  39.588  11.598   5.431
 3657POPC   GL148805  39.455  11.454   5.818
 3657POPC   GL248806  39.458  11.114   5.775
 3657POPC   C1A48807  39.275  11.347   6.228
 3657POPC   D2A48808  39.433  11.143   6.614
 3657POPC   C3A48809  39.192  11.159   6.976
 3657POPC   C4A48810  39.161  11.456   7.327
 3657POPC   C1B48811  39.586  10.924   6.158
 3657POPC   C2B48812  39.647  10.682   6.567
 3657POPC   C3B48813  39.589  10.813   7.022
 3657POPC   C4B48814  39.391  10.975   7.411
 3658POPC   NC348815  43.813   9.968   5.393
 3658POPC   PO448816  44.191   9.398   5.552
 3658POPC   GL148817  43.888   9.652   5.800
 3658POPC   GL248818  43.540   9.637   5.713
 3658POPC   C1A48819  43.957   9.918   6.164
 3658POPC   D2A48820  43.831   9.818   6.577
 3658POPC   C3A48821  44.024  10.032   6.927
 3658POPC   C4A48822  44.258   9.851   7.258
 3658POPC   C1B48823  43.455   9.823   6.118
 3658POPC   C2B48824  43.313   9.949   6.516
 3658POPC   C3B48825  43.480   9.920   6.945
 3658POPC   C4B48826  43.746   9.847   7.302
 3659POPC   NC348827  27.386  18.546   5.624
 3659POPC   PO448828  27.761  17.930   5.538
 3659POPC   GL148829  27.770  18.241   5.853
 3659POPC   GL248830  27.422  18.174   5.974
 3659POPC   C1A48831  27.718  18.536   6.217
 3659POPC   D2A48832  27.775  18.651   6.662
 3659POPC   C3A48833  27.718  18.309   6.982
 3659POPC   C4A48834  27.893  18.060   7.310
 3659POPC   C1B48835  27.247  18.422   6.349
 3659POPC   C2B48836  27.277  18.485   6.801
 3659POPC   C3B48837  27.204  18.387   7.240
 3659POPC   C4B48838  27.146  18.385   7.699
 3660POPC   NC348839  10.150  24.274   5.328
 3660POPC   PO448840   9.556  24.540   5.485
 3660POPC   GL148841   9.783  24.461   5.810
 3660POPC   GL248842   9.806  24.105   5.756
 3660POPC   C1A48843   9.725  24.634   6.206
 3660POPC   D2A48844   9.613  24.877   6.570
 3660POPC   C3A48845   9.748  24.713   6.944
 3660POPC   C4A48846   9.554  24.377   7.165
 3660POPC   C1B48847   9.585  24.128   6.179
 3660POPC   C2B48848   9.612  24.319   6.609
 3660POPC   C3B48849   9.968  24.269   6.888
 3660POPC   C4B48850   9.999  24.155   7.310
 3661POPC   NC348851  34.836  36.141   5.474
 3661POPC   PO448852  34.315  35.720   5.214
 3661POPC   GL148853  34.417  35.899   5.668
 3661POPC   GL248854  34.254  36.198   5.854
 3661POPC   C1A48855  34.657  35.993   6.082
 3661POPC   D2A48856  34.552  35.889   6.484
 3661POPC   C3A48857  34.481  36.218   6.754
 3661POPC   C4A48858  34.623  36.132   7.144
 3661POPC   C1B48859  34.137  35.917   6.118
 3661POPC   C2B48860  34.039  35.803   6.503
 3661POPC   C3B48861  34.185  35.828   6.885
 3661POPC   C4B48862  34.135  36.057   7.264
 3662POPC   NC348863  12.809  28.951   5.433
 3662POPC   PO448864  13.167  29.516   5.504
 3662POPC   GL148865  13.143  29.126   5.809
 3662POPC   GL248866  12.771  29.024   5.948
 3662POPC   C1A48867  13.175  28.937   6.232
 3662POPC   D2A48868  12.954  29.019   6.576
 3662POPC   C3A48869  13.091  29.157   6.984
 3662POPC   C4A48870  12.926  29.261   7.392
 3662POPC   C1B48871  12.478  28.964   6.335
 3662POPC   C2B48872  12.550  28.817   6.786
 3662POPC   C3B48873  12.650  28.878   7.227
 3662POPC   C4B48874  12.672  28.922   7.716
 3663POPC   NC348875  36.550  11.097   5.323
 3663POPC   PO448876  35.859  11.261   5.300
 3663POPC   GL148877  35.960  11.324   5.717
 3663POPC   GL248878  36.062  11.013   5.729
 3663POPC   C1A48879  35.949  11.458   6.157
 3663POPC   D2A48880  35.686  11.512   6.507
 3663POPC   C3A48881  35.898  11.599   6.876
 3663POPC   C4A48882  35.870  11.465   7.274
 3663POPC   C1B48883  36.148  10.987   6.169
 3663POPC   C2B48884  36.185  11.203   6.591
 3663POPC   C3B48885  36.182  11.129   7.049
 3663POPC   C4B48886  36.413  10.995   7.422
 3664POPC   NC348887  30.382  37.466   5.692
 3664POPC   PO448888  30.538  38.089   5.395
 3664POPC   GL148889  30.572  37.917   5.864
 3664POPC   GL248890  30.737  37.597   6.044
 3664POPC   C1A48891  30.767  38.065   6.274
 3664POPC   D2A48892  30.971  37.970   6.677
 3664POPC   C3A48893  30.755  37.946   7.045
 3664POPC   C4A48894  30.940  37.898   7.459
 3664POPC   C1B48895  30.433  37.280   6.286
 3664POPC   C2B48896  30.233  37.265   6.677
 3664POPC   C3B48897  30.388  37.539   6.992
 3664POPC   C4B48898  30.718  37.480   7.262
 3665POPC   NC348899   0.220  39.770   5.389
 3665POPC   PO448900   0.644  40.278   5.386
 3665POPC   GL148901   0.727  40.082   5.789
 3665POPC   GL248902   0.831  39.735   5.787
 3665POPC   C1A48903   0.638  40.263   6.205
 3665POPC   D2A48904   0.294  40.308   6.507
 3665POPC   C3A48905   0.399  40.252   6.949
 3665POPC   C4A48906   0.129  40.250   7.300
 3665POPC   C1B48907   0.643  39.756   6.201
 3665POPC   C2B48908   0.648  39.919   6.615
 3665POPC   C3B48909   0.440  39.736   6.964
 3665POPC   C4B48910   0.565  39.729   7.405
 3666POPC   NC348911   8.539  24.850   5.251
 3666POPC   PO448912   8.084  25.333   5.425
 3666POPC   GL148913   8.335  25.266   5.813
 3666POPC   GL248914   8.297  24.925   5.825
 3666POPC   C1A48915   8.331  25.187   6.279
 3666POPC   D2A48916   8.427  24.908   6.622
 3666POPC   C3A48917   8.362  25.189   6.934
 3666POPC   C4A48918   8.573  25.538   7.133
 3666POPC   C1B48919   7.886  25.160   6.020
 3666POPC   C2B48920   7.779  25.257   6.464
 3666POPC   C3B48921   7.845  25.252   6.923
 3666POPC   C4B48922   8.077  25.159   7.338
 3667POPC   NC348923  17.609  18.395   5.322
 3667POPC   PO448924  17.043  18.585   5.382
 3667POPC   GL148925  17.278  18.517   5.815
 3667POPC   GL248926  17.588  18.323   5.836
 3667POPC   C1A48927  17.523  18.611   6.243
 3667POPC   D2A48928  17.445  18.441   6.678
 3667POPC   C3A48929  17.643  18.523   7.092
 3667POPC   C4A48930  17.474  18.382   7.486
 3667POPC   C1B48931  17.435  18.099   6.254
 3667POPC   C2B48932  17.475  17.924   6.704
 3667POPC   C3B48933  17.603  18.000   7.157
 3667POPC   C4B48934  17.884  18.084   7.540
 3668POPC   NC348935   4.472   9.437   5.505
 3668POPC   PO448936   4.060   9.966   5.305
 3668POPC   GL148937   4.121   9.811   5.759
 3668POPC   GL248938   4.151   9.469   5.908
 3668POPC   C1A48939   4.255   9.857   6.226
 3668POPC   D2A48940   4.287  10.104   6.617
 3668POPC   C3A48941   4.106   9.909   7.006
 3668POPC   C4A48942   4.172   9.582   7.308
 3668POPC   C1B48943   4.569   9.439   6.178
 3668POPC   C2B48944   4.630   9.313   6.625
 3668POPC   C3B48945   4.566   9.562   7.005
 3668POPC   C4B48946   4.634   9.403   7.474
 3669POPC   NC348947  32.760  34.991   5.093
 3669POPC   PO448948  32.299  34.547   5.351
 3669POPC   GL148949  32.233  34.483   5.799
 3669POPC   GL248950  31.834  34.445   5.801
 3669POPC   C1A48951  32.485  34.454   6.213
 3669POPC   D2A48952  32.565  34.289   6.651
 3669POPC   C3A48953  32.468  34.608   6.976
 3669POPC   C4A48954  32.324  34.659   7.408
 3669POPC   C1B48955  31.944  34.378   6.231
 3669POPC   C2B48956  32.125  34.570   6.604
 3669POPC   C3B48957  31.966  34.619   7.032
 3669POPC   C4B48958  31.951  34.337   7.418
 3670POPC   NC348959  10.216   0.212   5.124
 3670POPC   PO448960  10.572   0.593   5.604
 3670POPC   GL148961  10.686   0.289   5.925
 3670POPC   GL248962  10.968   0.052   5.921
 3670POPC   C1A48963  10.637   0.333   6.352
 3670POPC   D2A48964  10.418   0.566   6.631
 3670POPC   C3A48965  10.584   0.767   6.974
 3670POPC   C4A48966  10.458   0.568   7.353
 3670POPC   C1B48967  10.992  44.923   6.338
 3670POPC   C2B48968  10.947   0.152   6.715
 3670POPC   C3B48969  10.637   0.246   7.005
 3670POPC   C4B48970  10.689   0.123   7.429
 3671POPC   NC348971   4.642  21.242   5.408
 3671POPC   PO448972   4.221  21.726   5.084
 3671POPC   GL148973   4.256  21.735   5.616
 3671POPC   GL248974   4.469  21.526   5.870
 3671POPC   C1A48975   4.029  21.703   6.084
 3671POPC   D2A48976   3.764  21.655   6.516
 3671POPC   C3A48977   3.976  21.636   6.965
 3671POPC   C4A48978   4.381  21.680   7.179
 3671POPC   C1B48979   4.712  21.480   6.301
 3671POPC   C2B48980   4.604  21.442   6.745
 3671POPC   C3B48981   4.287  21.219   6.970
 3671POPC   C4B48982   4.250  20.926   7.265
 3672POPC   NC348983  32.879   1.815   5.179
 3672POPC   PO448984  32.710   1.193   5.191
 3672POPC   GL148985  32.912   1.352   5.603
 3672POPC   GL248986  33.083   1.063   5.763
 3672POPC   C1A48987  32.992   1.453   6.080
 3672POPC   D2A48988  32.941   1.196   6.482
 3672POPC   C3A48989  33.003   1.378   6.911
 3672POPC   C4A48990  32.713   1.350   7.266
 3672POPC   C1B48991  33.337   1.060   6.160
 3672POPC   C2B48992  33.362   0.891   6.578
 3672POPC   C3B48993  33.412   0.863   7.000
 3672POPC   C4B48994  33.234   1.138   7.324
 3673POPC   NC348995  17.649  37.414   5.597
 3673POPC   PO448996  17.064  37.876   5.523
 3673POPC   GL148997  17.283  37.707   5.846
 3673POPC   GL248998  17.261  37.353   5.927
 3673POPC   C1A48999  17.346  37.935   6.220
 3673POPC   D2A49000  17.599  37.840   6.528
 3673POPC   C3A49001  17.511  37.821   6.957
 3673POPC   C4A49002  17.771  38.002   7.294
 3673POPC   C1B49003  17.557  37.416   6.251
 3673POPC   C2B49004  17.707  37.361   6.670
 3673POPC   C3B49005  17.783  37.389   7.122
 3673POPC   C4B49006  17.963  37.535   7.536
 3674POPC   NC349007  39.945  27.238   5.559
 3674POPC   PO449008  40.043  27.892   5.611
 3674POPC   GL149009  40.181  27.679   5.945
 3674POPC   GL249010  40.347  27.356   5.877
 3674POPC   C1A49011  40.066  27.728   6.376
 3674POPC   D2A49012  39.748  27.470   6.513
 3674POPC   C3A49013  39.788  27.464   6.935
 3674POPC   C4A49014  40.100  27.601   7.211
 3674POPC   C1B49015  40.255  27.263   6.310
 3674POPC   C2B49016  40.226  27.357   6.745
 3674POPC   C3B49017  40.490  27.243   7.124
 3674POPC   C4B49018  40.370  27.321   7.577
 3675POPC   NC349019   8.990  11.687   5.489
 3675POPC   PO449020   9.021  12.278   5.098
 3675POPC   GL149021   8.919  12.212   5.762
 3675POPC   GL249022   8.817  11.887   5.927
 3675POPC   C1A49023   9.224  12.045   6.146
 3675POPC   D2A49024   9.085  11.979   6.580
 3675POPC   C3A49025   8.956  12.302   6.889
 3675POPC   C4A49026   9.269  12.371   7.215
 3675POPC   C1B49027   8.533  11.752   6.214
 3675POPC   C2B49028   8.556  11.892   6.642
 3675POPC   C3B49029   8.836  11.833   6.994
 3675POPC   C4B49030   8.802  12.055   7.344
 3676POPC   NC349031   8.440  27.388   5.480
 3676POPC   PO449032   8.173  28.001   5.467
 3676POPC   GL149033   8.303  27.782   5.825
 3676POPC   GL249034   8.092  27.491   5.882
 3676POPC   C1A49035   8.183  27.951   6.240
 3676POPC   D2A49036   8.104  28.131   6.632
 3676POPC   C3A49037   7.814  27.881   6.871
 3676POPC   C4A49038   7.969  27.619   7.208
 3676POPC   C1B49039   8.299  27.464   6.299
 3676POPC   C2B49040   8.250  27.617   6.744
 3676POPC   C3B49041   8.476  27.600   7.129
 3676POPC   C4B49042   8.809  27.293   7.256
 3677POPC   NC349043  28.483  20.482   5.449
 3677POPC   PO449044  28.452  21.148   5.460
 3677POPC   GL149045  28.435  20.815   5.825
 3677POPC   GL249046  28.140  20.573   5.814
 3677POPC   C1A49047  28.673  20.607   6.184
 3677POPC   D2A49048  28.791  20.784   6.596
 3677POPC   C3A49049  28.649  20.522   6.960
 3677POPC   C4A49050  28.480  20.597   7.364
 3677POPC   C1B49051  28.182  20.526   6.251
 3677POPC   C2B49052  28.250  20.625   6.669
 3677POPC   C3B49053  28.054  20.612   7.072
 3677POPC   C4B49054  27.975  20.424   7.507
 3678POPC   NC349055   3.307  32.733   5.384
 3678POPC   PO449056   3.671  33.240   5.244
 3678POPC   GL149057   3.532  33.105   5.666
 3678POPC   GL249058   3.356  33.356   5.846
 3678POPC   C1A49059   3.455  32.925   6.088
 3678POPC   D2A49060   3.412  33.074   6.512
 3678POPC   C3A49061   3.480  32.894   6.908
 3678POPC   C4A49062   3.612  33.005   7.296
 3678POPC   C1B49063   3.072  33.277   6.180
 3678POPC   C2B49064   2.954  33.444   6.548
 3678POPC   C3B49065   3.159  33.331   6.903
 3678POPC   C4B49066   3.328  33.425   7.257
 3679POPC   NC349067   5.240  26.210   5.448
 3679POPC   PO449068   4.849  25.706   5.442
 3679POPC   GL149069   4.871  26.040   5.769
 3679POPC   GL249070   5.236  26.058   5.931
 3679POPC   C1A49071   4.844  26.291   6.148
 3679POPC   D2A49072   5.108  26.275   6.532
 3679POPC   C3A49073   4.961  26.031   6.896
 3679POPC   C4A49074   4.968  25.679   7.173
 3679POPC   C1B49075   5.529  26.281   6.216
 3679POPC   C2B49076   5.599  26.339   6.672
 3679POPC   C3B49077   5.362  26.330   7.054
 3679POPC   C4B49078   5.284  26.037   7.402
 3680POPC   NC349079   2.263  24.660   5.082
 3680POPC   PO449080   2.803  24.324   5.275
 3680POPC   GL149081   2.945  24.356   5.738
 3680POPC   GL249082   2.633  24.235   5.832
 3680POPC   C1A49083   2.802  24.589   6.159
 3680POPC   D2A49084   2.657  24.483   6.591
 3680POPC   C3A49085   2.741  24.697   6.985
 3680POPC   C4A49086   2.467  24.999   7.195
 3680POPC   C1B49087   2.440  24.183   6.227
 3680POPC   C2B49088   2.439  24.019   6.647
 3680POPC   C3B49089   2.482  24.222   7.048
 3680POPC   C4B49090   2.290  24.541   7.290
 3681POPC   NC349091  16.264  20.471   5.490
 3681POPC   PO449092  15.681  20.531   5.175
 3681POPC   GL149093  15.773  20.532   5.710
 3681POPC   GL249094  16.118  20.483   5.955
 3681POPC   C1A49095  15.742  20.683   6.183
 3681POPC   D2A49096  15.880  20.617   6.611
 3681POPC   C3A49097  15.681  20.664   6.998
 3681POPC   C4A49098  15.678  20.557   7.424
 3681POPC   C1B49099  16.352  20.758   6.207
 3681POPC   C2B49100  16.259  20.954   6.609
 3681POPC   C3B49101  16.119  20.943   6.988
 3681POPC   C4B49102  16.189  20.642   7.285
 3682POPC   NC349103   2.239   2.531   5.247
 3682POPC   PO449104   1.777   3.005   5.142
 3682POPC   GL149105   1.888   2.872   5.597
 3682POPC   GL249106   1.859   2.514   5.685
 3682POPC   C1A49107   2.086   2.892   6.029
 3682POPC   D2A49108   2.412   2.803   6.354
 3682POPC   C3A49109   2.338   2.649   6.772
 3682POPC   C4A49110   2.055   2.830   7.061
 3682POPC   C1B49111   1.865   2.439   6.143
 3682POPC   C2B49112   1.828   2.609   6.576
 3682POPC   C3B49113   1.776   2.405   6.980
 3682POPC   C4B49114   2.100   2.266   7.291
 3683POPC   NC349115  23.447   2.464   5.442
 3683POPC   PO449116  23.709   1.878   5.238
 3683POPC   GL149117  23.641   1.904   5.662
 3683POPC   GL249118  23.843   1.616   5.702
 3683POPC   C1A49119  23.705   2.149   6.056
 3683POPC   D2A49120  23.829   2.327   6.457
 3683POPC   C3A49121  23.628   2.205   6.844
 3683POPC   C4A49122  23.630   2.119   7.276
 3683POPC   C1B49123  23.612   1.621   6.100
 3683POPC   C2B49124  23.731   1.832   6.477
 3683POPC   C3B49125  23.700   1.721   6.918
 3683POPC   C4B49126  23.767   1.561   7.331
 3684POPC   NC349127   3.381  41.211   5.452
 3684POPC   PO449128   3.597  41.848   5.359
 3684POPC   GL149129   3.637  41.594   5.748
 3684POPC   GL249130   3.288  41.587   5.776
 3684POPC   C1A49131   3.560  41.572   6.227
 3684POPC   D2A49132   3.781  41.480   6.634
 3684POPC   C3A49133   3.709  41.525   7.087
 3684POPC   C4A49134   3.565  41.921   7.242
 3684POPC   C1B49135   3.117  41.308   6.097
 3684POPC   C2B49136   3.117  41.470   6.507
 3684POPC   C3B49137   3.236  41.377   6.915
 3684POPC   C4B49138   3.126  41.549   7.297
 3685POPC   NC349139  16.911  34.322   5.430
 3685POPC   PO449140  17.018  35.006   5.342
 3685POPC   GL149141  16.727  34.947   5.687
 3685POPC   GL249142  16.725  34.610   5.815
 3685POPC   C1A49143  16.508  35.020   6.087
 3685POPC   D2A49144  16.421  34.788   6.497
 3685POPC   C3A49145  16.764  34.685   6.781
 3685POPC   C4A49146  16.706  34.680   7.201
 3685POPC   C1B49147  16.543  34.400   6.184
 3685POPC   C2B49148  16.615  34.237   6.602
 3685POPC   C3B49149  16.825  34.204   7.019
 3685POPC   C4B49150  17.157  34.192   7.330
 3686POPC   NC349151   8.858   1.829   5.478
 3686POPC   PO449152   9.497   2.194   5.344
 3686POPC   GL149153   9.249   2.062   5.671
 3686POPC   GL249154   8.950   2.255   5.754
 3686POPC   C1A49155   9.155   1.910   6.077
 3686POPC   D2A49156   9.061   2.149   6.450
 3686POPC   C3A49157   8.988   1.953   6.845
 3686POPC   C4A49158   8.788   1.778   7.186
 3686POPC   C1B49159   8.660   2.139   6.125
 3686POPC   C2B49160   8.551   2.126   6.602
 3686POPC   C3B49161   8.640   2.263   7.079
 3686POPC   C4B49162   8.518   2.073   7.499
 3687POPC   NC349163  24.991  12.423   5.348
 3687POPC   PO449164  25.036  13.123   5.430
 3687POPC   GL149165  25.245  12.941   5.788
 3687POPC   GL249166  25.050  12.620   5.839
 3687POPC   C1A49167  25.498  12.703   6.107
 3687POPC   D2A49168  25.362  12.487   6.504
 3687POPC   C3A49169  25.510  12.648   6.900
 3687POPC   C4A49170  25.309  12.883   7.209
 3687POPC   C1B49171  25.045  12.831   6.280
 3687POPC   C2B49172  25.071  12.871   6.737
 3687POPC   C3B49173  24.897  13.147   7.078
 3687POPC   C4B49174  24.936  13.099   7.529
 3688POPC   NC349175  17.468  42.743   5.799
 3688POPC   PO449176  17.371  43.291   5.462
 3688POPC   GL149177  17.363  43.260   5.926
 3688POPC   GL249178  17.707  43.120   6.034
 3688POPC   C1A49179  17.473  43.423   6.357
 3688POPC   D2A49180  17.774  43.291   6.733
 3688POPC   C3A49181  17.630  43.492   7.142
 3688POPC   C4A49182  17.317  43.516   7.514
 3688POPC   C1B49183  17.613  42.877   6.420
 3688POPC   C2B49184  17.550  42.735   6.856
 3688POPC   C3B49185  17.617  42.975   7.233
 3688POPC   C4B49186  17.877  42.981   7.593
 3689POPC   NC349187  11.039   3.475   5.364
 3689POPC   PO449188  11.591   3.852   5.462
 3689POPC   GL149189  11.407   3.453   5.714
 3689POPC   GL249190  11.054   3.434   5.868
 3689POPC   C1A49191  11.432   3.196   6.104
 3689POPC   D2A49192  11.452   3.455   6.486
 3689POPC   C3A49193  11.208   3.409   6.842
 3689POPC   C4A49194  11.349   3.581   7.193
 3689POPC   C1B49195  11.175   3.775   6.153
 3689POPC   C2B49196  11.074   3.903   6.593
 3689POPC   C3B49197  10.902   3.833   7.023
 3689POPC   C4B49198  10.995   3.783   7.504
 3690POPC   NC349199  19.297  11.244   5.286
 3690POPC   PO449200  18.590  11.294   5.341
 3690POPC   GL149201  18.818  11.202   5.768
 3690POPC   GL249202  19.186  11.125   5.773
 3690POPC   C1A49203  18.937  11.194   6.248
 3690POPC   D2A49204  19.187  11.325   6.639
 3690POPC   C3A49205  19.014  11.356   7.107
 3690POPC   C4A49206  18.833  11.271   7.543
 3690POPC   C1B49207  19.449  11.133   6.151
 3690POPC   C2B49208  19.634  11.084   6.551
 3690POPC   C3B49209  19.465  11.099   7.000
 3690POPC   C4B49210  19.335  11.152   7.452
 3691POPC   NC349211  41.447  41.823   5.414
 3691POPC   PO449212  41.978  41.366   5.328
 3691POPC   GL149213  41.654  41.471   5.711
 3691POPC   GL249214  41.655  41.841   5.863
 3691POPC   C1A49215  41.453  41.465   6.157
 3691POPC   D2A49216  41.665  41.435   6.576
 3691POPC   C3A49217  41.537  41.628   6.978
 3691POPC   C4A49218  41.540  41.400   7.384
 3691POPC   C1B49219  41.426  41.982   6.266
 3691POPC   C2B49220  41.147  41.919   6.650
 3691POPC   C3B49221  41.165  42.083   7.054
 3691POPC   C4B49222  41.363  41.895   7.398
 3692POPC   NC349223  24.775  24.991   5.703
 3692POPC   PO449224  24.226  25.383   5.428
 3692POPC   GL149225  24.329  25.245   5.799
 3692POPC   GL249226  24.589  25.447   5.861
 3692POPC   C1A49227  24.259  25.026   6.197
 3692POPC   D2A49228  24.587  24.871   6.454
 3692POPC   C3A49229  24.623  25.028   6.863
 3692POPC   C4A49230  24.387  25.160   7.208
 3692POPC   C1B49231  24.672  25.345   6.252
 3692POPC   C2B49232  24.845  25.418   6.617
 3692POPC   C3B49233  24.708  25.525   6.998
 3692POPC   C4B49234  24.827  25.371   7.381
 3693POPC   NC349235  28.919  14.339   5.574
 3693POPC   PO449236  29.535  14.054   5.693
 3693POPC   GL149237  29.254  14.229   5.938
 3693POPC   GL249238  29.221  14.599   5.920
 3693POPC   C1A49239  28.961  14.240   6.238
 3693POPC   D2A49240  29.002  14.484   6.587
 3693POPC   C3A49241  29.183  14.256   6.918
 3693POPC   C4A49242  29.007  14.092   7.266
 3693POPC   C1B49243  29.364  14.964   6.171
 3693POPC   C2B49244  29.525  14.886   6.602
 3693POPC   C3B49245  29.247  14.769   6.960
 3693POPC   C4B49246  29.300  14.558   7.335
 3694POPC   NC349247  27.741  44.476   5.463
 3694POPC   PO449248  27.155  44.385   5.730
 3694POPC   GL149249  27.465  44.525   5.928
 3694POPC   GL249250  27.609  44.811   5.836
 3694POPC   C1A49251  27.558  44.540   6.330
 3694POPC   D2A49252  27.897  44.651   6.638
 3694POPC   C3A49253  27.704  44.489   7.004
 3694POPC   C4A49254  27.756  44.607   7.396
 3694POPC   C1B49255  27.741  44.988   6.219
 3694POPC   C2B49256  27.504  44.949   6.638
 3694POPC   C3B49257  27.685  44.999   7.032
 3694POPC   C4B49258  28.083   0.163   7.112
 3695POPC   NC349259   6.547  28.677   5.255
 3695POPC   PO449260   6.681  28.037   5.151
 3695POPC   GL149261   6.532  28.216   5.605
 3695POPC   GL249262   6.517  28.567   5.765
 3695POPC   C1A49263   6.448  28.181   6.096
 3695POPC   D2A49264   6.433  27.912   6.472
 3695POPC   C3A49265   6.606  27.963   6.891
 3695POPC   C4A49266   6.455  28.140   7.316
 3695POPC   C1B49267   6.850  28.503   6.105
 3695POPC   C2B49268   6.751  28.343   6.536
 3695POPC   C3B49269   6.700  28.464   6.982
 3695POPC   C4B49270   6.932  28.657   7.338
 3696POPC   NC349271  37.760  10.156   5.375
 3696POPC   PO449272  37.136  10.337   5.459
 3696POPC   GL149273  37.507  10.539   5.739
 3696POPC   GL249274  37.854  10.507   5.804
 3696POPC   C1A49275  37.546  10.372   6.185
 3696POPC   D2A49276  37.343  10.357   6.615
 3696POPC   C3A49277  37.641  10.413   6.968
 3696POPC   C4A49278  37.814  10.413   7.377
 3696POPC   C1B49279  37.726  10.851   6.121
 3696POPC   C2B49280  37.624  10.811   6.575
 3696POPC   C3B49281  37.781  10.909   6.996
 3696POPC   C4B49282  37.606  10.946   7.383
 3697POPC   NC349283  40.785   8.952   5.206
 3697POPC   PO449284  41.095   9.494   5.328
 3697POPC   GL149285  41.029   9.455   5.746
 3697POPC   GL249286  40.723   9.231   5.665
 3697POPC   C1A49287  41.094   9.184   6.131
 3697POPC   D2A49288  40.991   8.803   6.427
 3697POPC   C3A49289  40.867   8.884   6.876
 3697POPC   C4A49290  41.043   8.749   7.291
 3697POPC   C1B49291  40.627   8.984   6.058
 3697POPC   C2B49292  40.599   9.126   6.496
 3697POPC   C3B49293  40.423   9.171   6.917
 3697POPC   C4B49294  40.531   8.962   7.287
 3698POPC   NC349295   1.077  26.193   5.457
 3698POPC   PO449296   1.658  25.774   5.428
 3698POPC   GL149297   1.327  25.778   5.764
 3698POPC   GL249298   0.955  25.714   5.690
 3698POPC   C1A49299   1.390  25.947   6.179
 3698POPC   D2A49300   1.322  26.200   6.528
 3698POPC   C3A49301   1.499  26.139   6.932
 3698POPC   C4A49302   1.327  26.018   7.335
 3698POPC   C1B49303   0.872  25.877   6.093
 3698POPC   C2B49304   1.024  25.773   6.495
 3698POPC   C3B49305   1.033  25.937   6.875
 3698POPC   C4B49306   0.815  25.915   7.221
 3699POPC   NC349307  33.262   6.033   5.204
 3699POPC   PO449308  32.841   5.568   5.284
 3699POPC   GL149309  33.109   5.728   5.632
 3699POPC   GL249310  33.348   5.992   5.700
 3699POPC   C1A49311  33.084   5.677   6.105
 3699POPC   D2A49312  33.013   5.868   6.522
 3699POPC   C3A49313  33.101   5.618   6.894
 3699POPC   C4A49314  33.057   5.752   7.314
 3699POPC   C1B49315  33.505   5.953   6.098
 3699POPC   C2B49316  33.516   5.820   6.537
 3699POPC   C3B49317  33.339   6.068   6.903
 3699POPC   C4B49318  33.516   5.998   7.313
 3700POPC   NC349319  37.444  23.793   5.531
 3700POPC   PO449320  36.878  23.551   5.247
 3700POPC   GL149321  36.967  23.641   5.698
 3700POPC   GL249322  37.215  23.409   5.837
 3700POPC   C1A49323  37.045  23.763   6.139
 3700POPC   D2A49324  37.182  23.770   6.552
 3700POPC   C3A49325  37.091  24.066   6.849
 3700POPC   C4A49326  36.934  23.872   7.209
 3700POPC   C1B49327  37.417  23.407   6.244
 3700POPC   C2B49328  37.310  23.289   6.658
 3700POPC   C3B49329  37.305  23.431   7.062
 3700POPC   C4B49330  37.246  23.582   7.497
 3701POPC   NC349331   3.348  42.074   5.056
 3701POPC   PO449332   3.417  42.621   5.461
 3701POPC   GL149333   3.594  42.460   5.855
 3701POPC   GL249334   3.553  42.094   5.864
 3701POPC   C1A49335   3.558  42.401   6.319
 3701POPC   D2A49336   3.349  42.189   6.685
 3701POPC   C3A49337   3.285  42.519   7.004
 3701POPC   C4A49338   3.388  42.425   7.463
 3701POPC   C1B49339   3.863  41.997   6.211
 3701POPC   C2B49340   3.870  42.014   6.675
 3701POPC   C3B49341   3.753  42.325   6.981
 3701POPC   C4B49342   3.913  42.407   7.364
 3702POPC   NC349343   7.269  28.719   5.510
 3702POPC   PO449344   7.516  28.096   5.439
 3702POPC   GL149345   7.590  28.276   5.862
 3702POPC   GL249346   7.827  28.009   5.892
 3702POPC   C1A49347   7.498  28.638   6.157
 3702POPC   D2A49348   7.165  28.809   6.402
 3702POPC   C3A49349   7.156  28.592   6.780
 3702POPC   C4A49350   7.416  28.622   7.118
 3702POPC   C1B49351   7.667  28.062   6.331
 3702POPC   C2B49352   7.399  28.142   6.699
 3702POPC   C3B49353   7.451  28.119   7.145
 3702POPC   C4B49354   7.750  28.065   7.479
 3703POPC   NC349355  22.306   7.444   5.337
 3703POPC   PO449356  21.911   7.944   5.292
 3703POPC   GL149357  22.075   7.707   5.718
 3703POPC   GL249358  22.122   7.322   5.796
 3703POPC   C1A49359  22.378   7.646   6.109
 3703POPC   D2A49360  22.621   7.388   6.476
 3703POPC   C3A49361  22.469   7.495   6.901
 3703POPC   C4A49362  22.309   7.415   7.303
 3703POPC   C1B49363  21.932   7.440   6.162
 3703POPC   C2B49364  22.120   7.443   6.537
 3703POPC   C3B49365  22.061   7.210   6.902
 3703POPC   C4B49366  21.848   7.192   7.293
 3704POPC   NC349367  19.338  30.793   5.477
 3704POPC   PO449368  19.873  30.422   5.498
 3704POPC   GL149369  19.762  30.687   5.851
 3704POPC   GL249370  19.427  30.785   5.986
 3704POPC   C1A49371  19.782  30.558   6.265
 3704POPC   D2A49372  19.522  30.501   6.594
 3704POPC   C3A49373  19.712  30.267   6.919
 3704POPC   C4A49374  20.074  30.222   7.210
 3704POPC   C1B49375  19.594  31.005   6.360
 3704POPC   C2B49376  19.801  30.918   6.735
 3704POPC   C3B49377  19.715  30.742   7.114
 3704POPC   C4B49378  19.549  30.830   7.515
 3705POPC   NC349379  22.464  26.439   5.464
 3705POPC   PO449380  21.951  26.924   5.271
 3705POPC   GL149381  22.135  26.799   5.682
 3705POPC   GL249382  22.069  26.471   5.810
 3705POPC   C1A49383  22.104  26.862   6.164
 3705POPC   D2A49384  22.134  26.687   6.613
 3705POPC   C3A49385  22.082  26.894   7.040
 3705POPC   C4A49386  22.457  27.085   7.175
 3705POPC   C1B49387  21.747  26.502   6.123
 3705POPC   C2B49388  21.638  26.650   6.552
 3705POPC   C3B49389  21.787  26.495   6.938
 3705POPC   C4B49390  22.211  26.387   7.116
 3706POPC   NC349391  31.969  34.214   5.350
 3706POPC   PO449392  32.283  33.642   5.394
 3706POPC   GL149393  32.035  33.655   5.728
 3706POPC   GL249394  32.095  33.986   5.833
 3706POPC   C1A49395  32.144  33.530   6.128
 3706POPC   D2A49396  32.132  33.545   6.553
 3706POPC   C3A49397  32.384  33.699   6.894
 3706POPC   C4A49398  32.503  33.465   7.272
 3706POPC   C1B49399  32.291  33.987   6.252
 3706POPC   C2B49400  32.025  34.038   6.612
 3706POPC   C3B49401  32.103  34.120   7.001
 3706POPC   C4B49402  32.475  34.195   7.246
 3707POPC   NC349403  44.265  33.240   5.634
 3707POPC   PO449404  44.648  32.826   5.204
 3707POPC   GL149405  44.716  33.012   5.663
 3707POPC   GL249406   0.050  33.117   5.763
 3707POPC   C1A49407  44.598  32.886   6.114
 3707POPC   D2A49408  44.457  32.760   6.539
 3707POPC   C3A49409  44.376  32.997   6.946
 3707POPC   C4A49410  44.566  32.921   7.376
 3707POPC   C1B49411  44.920  33.262   6.171
 3707POPC   C2B49412  44.731  33.188   6.577
 3707POPC   C3B49413  44.886  33.136   6.996
 3707POPC   C4B49414  44.883  33.325   7.414
 3708POPC   NC349415   0.163  35.808   5.507
 3708POPC   PO449416   0.634  36.274   5.237
 3708POPC   GL149417   0.477  36.302   5.735
 3708POPC   GL249418   0.281  36.052   5.940
 3708POPC   C1A49419   0.575  36.382   6.205
 3708POPC   D2A49420   0.427  36.252   6.625
 3708POPC   C3A49421   0.611  36.521   6.956
 3708POPC   C4A49422   0.555  36.419   7.367
 3708POPC   C1B49423   0.167  35.711   6.244
 3708POPC   C2B49424   0.315  35.673   6.687
 3708POPC   C3B49425   0.222  35.909   7.047
 3708POPC   C4B49426   0.371  35.890   7.469
 3709POPC   NC349427   3.271  36.915   5.471
 3709POPC   PO449428   3.887  37.126   5.220
 3709POPC   GL149429   3.758  36.985   5.647
 3709POPC   GL249430   3.480  37.161   5.862
 3709POPC   C1A49431   3.783  36.811   6.078
 3709POPC   D2A49432   3.592  36.680   6.455
 3709POPC   C3A49433   3.625  36.948   6.796
 3709POPC   C4A49434   3.339  37.055   7.113
 3709POPC   C1B49435   3.538  37.194   6.327
 3709POPC   C2B49436   3.273  37.346   6.669
 3709POPC   C3B49437   3.146  37.550   7.064
 3709POPC   C4B49438   3.355  37.424   7.460
 3710POPC   NC349439   6.001  10.038   5.446
 3710POPC   PO449440   5.690   9.382   5.479
 3710POPC   GL149441   5.753   9.621   5.826
 3710POPC   GL249442   6.092   9.695   5.839
 3710POPC   C1A49443   5.819   9.557   6.268
 3710POPC   D2A49444   5.777   9.636   6.697
 3710POPC   C3A49445   5.937  10.023   6.862
 3710POPC   C4A49446   6.007  10.029   7.325
 3710POPC   C1B49447   6.270   9.403   6.114
 3710POPC   C2B49448   6.148   9.224   6.521
 3710POPC   C3B49449   6.358   9.372   6.873
 3710POPC   C4B49450   6.194   9.541   7.238
 3711POPC   NC349451  36.402  21.810   5.177
 3711POPC   PO449452  35.930  21.312   5.138
 3711POPC   GL149453  35.974  21.384   5.612
 3711POPC   GL249454  36.309  21.296   5.721
 3711POPC   C1A49455  35.849  21.584   6.029
 3711POPC   D2A49456  36.006  21.661   6.485
 3711POPC   C3A49457  35.959  21.459   6.910
 3711POPC   C4A49458  35.979  21.173   7.299
 3711POPC   C1B49459  36.208  21.259   6.158
 3711POPC   C2B49460  36.123  21.092   6.580
 3711POPC   C3B49461  36.363  21.162   6.952
 3711POPC   C4B49462  36.413  21.430   7.350
 3712POPC   NC349463  39.838   4.724   5.652
 3712POPC   PO449464  40.166   5.346   5.559
 3712POPC   GL149465  40.090   5.091   5.884
 3712POPC   GL249466  40.286   4.781   5.978
 3712POPC   C1A49467  39.920   5.085   6.274
 3712POPC   D2A49468  40.148   4.956   6.617
 3712POPC   C3A49469  39.915   4.824   6.980
 3712POPC   C4A49470  39.750   5.162   7.293
 3712POPC   C1B49471  40.481   5.138   6.198
 3712POPC   C2B49472  40.565   5.301   6.581
 3712POPC   C3B49473  40.330   5.329   6.953
 3712POPC   C4B49474  40.246   5.052   7.257
 3713POPC   NC349475  28.811  38.961   5.439
 3713POPC   PO449476  29.324  39.399   5.385
 3713POPC   GL149477  29.076  39.338   5.728
 3713POPC   GL249478  29.217  39.051   5.821
 3713POPC   C1A49479  29.050  39.431   6.162
 3713POPC   D2A49480  29.099  39.219   6.545
 3713POPC   C3A49481  29.122  39.440   6.907
 3713POPC   C4A49482  29.267  39.365   7.314
 3713POPC   C1B49483  29.419  38.950   6.218
 3713POPC   C2B49484  29.554  38.981   6.662
 3713POPC   C3B49485  29.293  38.941   7.028
 3713POPC   C4B49486  29.260  38.886   7.532
 3714POPC   NC349487  26.714  19.090   5.210
 3714POPC   PO449488  27.218  18.978   5.609
 3714POPC   GL149489  26.805  19.040   5.788
 3714POPC   GL249490  26.631  19.336   5.656
 3714POPC   C1A49491  26.766  18.914   6.238
 3714POPC   D2A49492  27.069  18.928   6.612
 3714POPC   C3A49493  26.959  18.820   7.055
 3714POPC   C4A49494  26.832  18.965   7.452
 3714POPC   C1B49495  26.530  19.362   6.118
 3714POPC   C2B49496  26.633  19.267   6.593
 3714POPC   C3B49497  26.693  19.287   7.069
 3714POPC   C4B49498  26.451  19.313   7.472
 3715POPC   NC349499  41.920  36.159   5.731
 3715POPC   PO449500  41.391  35.920   5.378
 3715POPC   GL149501  41.366  36.147   5.771
 3715POPC   GL249502  41.466  36.482   5.837
 3715POPC   C1A49503  41.474  36.103   6.218
 3715POPC   D2A49504  41.709  36.196   6.583
 3715POPC   C3A49505  41.540  36.027   6.938
 3715POPC   C4A49506  41.556  36.288   7.275
 3715POPC   C1B49507  41.756  36.586   6.225
 3715POPC   C2B49508  41.964  36.643   6.640
 3715POPC   C3B49509  41.986  36.407   7.035
 3715POPC   C4B49510  42.018  36.350   7.512
 3716POPC   NC349511  33.585  16.544   5.458
 3716POPC   PO449512  33.921  17.076   5.538
 3716POPC   GL149513  33.687  16.896   5.843
 3716POPC   GL249514  33.391  17.044   5.875
 3716POPC   C1A49515  33.793  16.596   6.145
 3716POPC   D2A49516  33.981  16.645   6.526
 3716POPC   C3A49517  33.822  16.484   6.892
 3716POPC   C4A49518  34.161  16.526   7.197
 3716POPC   C1B49519  33.319  16.789   6.224
 3716POPC   C2B49520  33.563  16.930   6.514
 3716POPC   C3B49521  33.513  17.034   6.903
 3716POPC   C4B49522  33.771  16.902   7.196
 3717POPC   NC349523  29.433  19.175   5.445
 3717POPC   PO449524  30.184  19.010   5.358
 3717POPC   GL149525  29.986  19.145   5.768
 3717POPC   GL249526  30.010  19.490   5.864
 3717POPC   C1A49527  30.166  19.183   6.227
 3717POPC   D2A49528  29.977  19.267   6.627
 3717POPC   C3A49529  29.916  18.929   6.923
 3717POPC   C4A49530  29.662  18.907   7.292
 3717POPC   C1B49531  29.691  19.424   6.218
 3717POPC   C2B49532  29.478  19.437   6.663
 3717POPC   C3B49533  29.658  19.361   7.039
 3717POPC   C4B49534  30.119  19.387   7.143
 3718POPC   NC349535  15.905  37.678   5.366
 3718POPC   PO449536  16.200  38.154   5.647
 3718POPC   GL149537  16.034  37.854   5.903
 3718POPC   GL249538  15.972  37.498   5.839
 3718POPC   C1A49539  15.781  37.843   6.243
 3718POPC   D2A49540  15.625  37.504   6.471
 3718POPC   C3A49541  15.770  37.488   6.906
 3718POPC   C4A49542  15.548  37.473   7.309
 3718POPC   C1B49543  16.107  37.455   6.277
 3718POPC   C2B49544  16.137  37.742   6.611
 3718POPC   C3B49545  16.312  37.657   7.009
 3718POPC   C4B49546  16.059  37.527   7.350
 3719POPC   NC349547  18.512  30.230   5.497
 3719POPC   PO449548  18.267  30.898   5.272
 3719POPC   GL149549  18.462  30.689   5.688
 3719POPC   GL249550  18.164  30.593   5.757
 3719POPC   C1A49551  18.482  30.497   6.144
 3719POPC   D2A49552  18.280  30.565   6.576
 3719POPC   C3A49553  18.564  30.603   6.932
 3719POPC   C4A49554  18.452  30.882   7.260
 3719POPC   C1B49555  18.001  30.709   6.149
 3719POPC   C2B49556  17.878  30.916   6.533
 3719POPC   C3B49557  18.085  31.012   6.921
 3719POPC   C4B49558  17.942  31.025   7.351
 3720POPC   NC349559   0.162  42.979   5.558
 3720POPC   PO449560   0.667  43.346   5.456
 3720POPC   GL149561   0.454  43.242   5.878
 3720POPC   GL249562   0.184  43.470   5.976
 3720POPC   C1A49563   0.295  43.044   6.277
 3720POPC   D2A49564   0.533  43.129   6.698
 3720POPC   C3A49565   0.276  43.114   7.076
 3720POPC   C4A49566  44.974  42.775   7.129
 3720POPC   C1B49567   0.326  43.521   6.399
 3720POPC   C2B49568   0.325  43.573   6.823
 3720POPC   C3B49569   0.377  43.653   7.232
 3720POPC   C4B49570   0.571  43.483   7.588
 3721POPC   NC349571  40.229  33.435   5.459
 3721POPC   PO449572  40.164  32.837   5.210
 3721POPC   GL149573  40.147  33.009   5.734
 3721POPC   GL249574  39.886  32.941   5.984
 3721POPC   C1A49575  40.317  33.181   6.180
 3721POPC   D2A49576  40.258  33.363   6.645
 3721POPC   C3A49577  40.191  33.133   7.071
 3721POPC   C4A49578  40.080  33.091   7.529
 3721POPC   C1B49579  39.848  33.268   6.351
 3721POPC   C2B49580  39.768  33.267   6.814
 3721POPC   C3B49581  39.702  32.968   7.170
 3721POPC   C4B49582  39.583  33.037   7.623
 3722POPC   NC349583  44.909  19.466   5.443
 3722POPC   PO449584   0.345  19.992   5.278
 3722POPC   GL149585   0.355  19.994   5.733
 3722POPC   GL249586   0.071  19.801   5.833
 3722POPC   C1A49587   0.524  19.880   6.128
 3722POPC   D2A49588   0.644  19.628   6.450
 3722POPC   C3A49589   0.429  19.693   6.833
 3722POPC   C4A49590   0.516  19.524   7.218
 3722POPC   C1B49591   0.113  19.600   6.240
 3722POPC   C2B49592   0.087  19.933   6.523
 3722POPC   C3B49593   0.051  20.146   6.899
 3722POPC   C4B49594   0.261  19.973   7.247
 3723POPC   NC349595  34.126  21.817   5.664
 3723POPC   PO449596  34.728  21.606   5.490
 3723POPC   GL149597  34.517  21.514   5.864
 3723POPC   GL249598  34.483  21.158   5.832
 3723POPC   C1A49599  34.631  21.581   6.296
 3723POPC   D2A49600  34.845  21.823   6.630
 3723POPC   C3A49601  34.711  21.587   7.001
 3723POPC   C4A49602  34.647  21.139   7.176
 3723POPC   C1B49603  34.636  21.065   6.243
 3723POPC   C2B49604  34.592  21.168   6.658
 3723POPC   C3B49605  34.229  21.117   6.882
 3723POPC   C4B49606  34.120  20.973   7.283
 3724POPC   NC349607  43.189  32.124   5.390
 3724POPC   PO449608  43.119  32.815   5.244
 3724POPC   GL149609  43.154  32.622   5.690
 3724POPC   GL249610  43.317  32.350   5.842
 3724POPC   C1A49611  43.144  32.610   6.208
 3724POPC   D2A49612  43.124  32.364   6.563
 3724POPC   C3A49613  43.042  32.559   6.921
 3724POPC   C4A49614  43.299  32.638   7.275
 3724POPC   C1B49615  43.558  32.238   6.234
 3724POPC   C2B49616  43.529  32.046   6.641
 3724POPC   C3B49617  43.328  32.153   7.040
 3724POPC   C4B49618  43.271  32.185   7.490
 3725POPC   NC349619  30.541  17.858   5.500
 3725POPC   PO449620  30.806  17.360   5.118
 3725POPC   GL149621  30.932  17.479   5.588
 3725POPC   GL249622  30.915  17.194   5.799
 3725POPC   C1A49623  30.841  17.640   6.069
 3725POPC   D2A49624  30.529  17.613   6.438
 3725POPC   C3A49625  30.683  17.672   6.874
 3725POPC   C4A49626  30.519  17.522   7.256
 3725POPC   C1B49627  30.729  17.141   6.209
 3725POPC   C2B49628  30.884  17.245   6.605
 3725POPC   C3B49629  30.762  17.116   6.998
 3725POPC   C4B49630  30.608  16.986   7.388
 3726POPC   NC349631  10.634  16.787   5.501
 3726POPC   PO449632  10.149  16.365   5.484
 3726POPC   GL149633  10.444  16.399   5.799
 3726POPC   GL249634  10.339  16.738   5.909
 3726POPC   C1A49635  10.760  16.401   6.121
 3726POPC   D2A49636  10.783  16.578   6.542
 3726POPC   C3A49637  10.547  16.384   6.879
 3726POPC   C4A49638  10.614  16.499   7.295
 3726POPC   C1B49639  10.662  16.951   6.155
 3726POPC   C2B49640  10.735  17.087   6.576
 3726POPC   C3B49641  10.689  16.905   6.982
 3726POPC   C4B49642  10.488  17.038   7.367
 3727POPC   NC349643  24.539  27.379   5.448
 3727POPC   PO449644  23.965  27.701   5.423
 3727POPC   GL149645  24.185  27.529   5.796
 3727POPC   GL249646  24.509  27.719   5.832
 3727POPC   C1A49647  24.424  27.304   6.136
 3727POPC   D2A49648  24.557  27.383   6.562
 3727POPC   C3A49649  24.437  27.239   6.983
 3727POPC   C4A49650  24.114  27.414   7.228
 3727POPC   C1B49651  24.834  27.749   6.163
 3727POPC   C2B49652  24.976  27.635   6.589
 3727POPC   C3B49653  24.783  27.620   7.001
 3727POPC   C4B49654  24.828  27.857   7.405
 3728POPC   NC349655  39.856   1.682   5.567
 3728POPC   PO449656  40.357   2.085   5.657
 3728POPC   GL149657  39.987   2.066   5.889
 3728POPC   GL249658  39.751   2.293   5.718
 3728POPC   C1A49659  40.022   2.019   6.321
 3728POPC   D2A49660  40.233   2.122   6.669
 3728POPC   C3A49661  40.095   1.840   6.979
 3728POPC   C4A49662  39.973   1.722   7.367
 3728POPC   C1B49663  39.602   2.312   6.171
 3728POPC   C2B49664  39.786   2.439   6.564
 3728POPC   C3B49665  39.867   2.315   6.965
 3728POPC   C4B49666  39.662   2.109   7.242
 3729POPC   NC349667  18.311   4.307   5.276
 3729POPC   PO449668  18.884   4.356   5.404
 3729POPC   GL149669  18.614   4.153   5.730
 3729POPC   GL249670  18.341   4.361   5.836
 3729POPC   C1A49671  18.539   4.040   6.211
 3729POPC   D2A49672  18.540   3.871   6.684
 3729POPC   C3A49673  18.270   4.081   7.044
 3729POPC   C4A49674  18.220   3.888   7.471
 3729POPC   C1B49675  18.483   4.547   6.279
 3729POPC   C2B49676  18.420   4.578   6.762
 3729POPC   C3B49677  18.362   4.576   7.228
 3729POPC   C4B49678  18.196   4.796   7.602
 3730POPC   NC349679  28.478   8.054   5.322
 3730POPC   PO449680  28.302   8.683   5.266
 3730POPC   GL149681  28.461   8.429   5.700
 3730POPC   GL249682  28.451   8.048   5.823
 3730POPC   C1A49683  28.502   8.373   6.198
 3730POPC   D2A49684  28.353   8.125   6.551
 3730POPC   C3A49685  28.495   8.210   6.975
 3730POPC   C4A49686  28.307   8.155   7.386
 3730POPC   C1B49687  28.292   7.778   6.177
 3730POPC   C2B49688  28.239   7.625   6.618
 3730POPC   C3B49689  28.345   7.715   7.066
 3730POPC   C4B49690  28.736   7.843   7.265
 3731POPC   NC349691  43.963  43.978   5.183
 3731POPC   PO449692  43.495  43.565   5.475
 3731POPC   GL149693  43.805  43.868   5.655
 3731POPC   GL249694  44.114  43.672   5.707
 3731POPC   C1A49695  43.999  44.058   6.034
 3731POPC   D2A49696  44.132  43.871   6.430
 3731POPC   C3A49697  44.140  44.144   6.794
 3731POPC   C4A49698  44.273  44.045   7.170
 3731POPC   C1B49699  43.867  43.556   6.104
 3731POPC   C2B49700  43.642  43.756   6.466
 3731POPC   C3B49701  43.798  43.789   6.901
 3731POPC   C4B49702  43.889  43.767   7.351
 3732POPC   NC349703  42.053  39.380   5.394
 3732POPC   PO449704  42.532  38.996   5.453
 3732POPC   GL149705  42.401  39.248   5.774
 3732POPC   GL249706  42.093  39.096   5.871
 3732POPC   C1A49707  42.542  39.111   6.163
 3732POPC   D2A49708  42.716  38.956   6.522
 3732POPC   C3A49709  42.738  39.175   6.892
 3732POPC   C4A49710  42.455  39.233   7.189
 3732POPC   C1B49711  42.070  38.996   6.322
 3732POPC   C2B49712  42.160  39.189   6.738
 3732POPC   C3B49713  41.993  39.068   7.157
 3732POPC   C4B49714  42.018  38.949   7.580
 3733POPC   NC349715  20.096  30.028   5.493
 3733POPC   PO449716  19.582  29.631   5.434
 3733POPC   GL149717  19.759  29.694   5.794
 3733POPC   GL249718  19.870  29.355   5.903
 3733POPC   C1A49719  19.663  29.993   6.123
 3733POPC   D2A49720  19.905  30.119   6.479
 3733POPC   C3A49721  20.101  29.878   6.834
 3733POPC   C4A49722  20.089  29.587   7.215
 3733POPC   C1B49723  19.595  29.490   6.224
 3733POPC   C2B49724  19.755  29.634   6.534
 3733POPC   C3B49725  19.648  29.673   6.903
 3733POPC   C4B49726  19.685  29.888   7.252
 3734POPC   NC349727   1.770  10.518   5.296
 3734POPC   PO449728   2.144  11.052   5.281
 3734POPC   GL149729   1.959  10.794   5.710
 3734POPC   GL249730   1.940  10.393   5.750
 3734POPC   C1A49731   1.907  10.645   6.183
 3734POPC   D2A49732   2.043  10.421   6.560
 3734POPC   C3A49733   2.096  10.720   6.885
 3734POPC   C4A49734   1.843  10.657   7.219
 3734POPC   C1B49735   1.588  10.254   6.015
 3734POPC   C2B49736   1.539  10.322   6.468
 3734POPC   C3B49737   1.623  10.241   6.925
 3734POPC   C4B49738   1.643   9.950   7.290
 3735POPC   NC349739  42.897  13.217   5.469
 3735POPC   PO449740  43.394  12.726   5.434
 3735POPC   GL149741  43.097  12.714   5.797
 3735POPC   GL249742  42.820  12.474   5.808
 3735POPC   C1A49743  43.178  12.835   6.237
 3735POPC   D2A49744  43.173  13.107   6.601
 3735POPC   C3A49745  43.315  12.865   6.945
 3735POPC   C4A49746  43.282  12.657   7.349
 3735POPC   C1B49747  42.712  12.570   6.215
 3735POPC   C2B49748  42.839  12.711   6.618
 3735POPC   C3B49749  42.810  12.905   7.004
 3735POPC   C4B49750  42.764  12.603   7.303
 3736POPC   NC349751   4.913  10.250   5.625
 3736POPC   PO449752   5.576  10.266   5.501
 3736POPC   GL149753   5.369  10.384   5.883
 3736POPC   GL249754   5.165  10.651   5.817
 3736POPC   C1A49755   5.202  10.241   6.297
 3736POPC   D2A49756   5.025  10.482   6.667
 3736POPC   C3A49757   5.055  10.356   7.102
 3736POPC   C4A49758   5.190  10.567   7.523
 3736POPC   C1B49759   4.876  10.622   6.184
 3736POPC   C2B49760   4.530  10.592   6.504
 3736POPC   C3B49761   4.586  10.590   6.961
 3736POPC   C4B49762   4.715  10.688   7.376
 3737POPC   NC349763  12.651  34.529   5.311
 3737POPC   PO449764  13.002  34.965   5.618
 3737POPC   GL149765  12.875  34.612   5.873
 3737POPC   GL249766  12.670  34.298   5.793
 3737POPC   C1A49767  12.800  34.649   6.310
 3737POPC   D2A49768  13.055  34.632   6.644
 3737POPC   C3A49769  12.878  34.642   7.030
 3737POPC   C4A49770  13.124  34.470   7.311
 3737POPC   C1B49771  12.752  34.157   6.231
 3737POPC   C2B49772  12.745  34.223   6.707
 3737POPC   C3B49773  12.713  34.164   7.160
 3737POPC   C4B49774  12.626  34.470   7.494
 3738POPC   NC349775   2.056   0.879   5.407
 3738POPC   PO449776   2.174   0.242   5.025
 3738POPC   GL149777   2.096   0.357   5.528
 3738POPC   GL249778   2.286   0.609   5.744
 3738POPC   C1A49779   1.917   0.406   5.993
 3738POPC   D2A49780   2.001   0.600   6.428
 3738POPC   C3A49781   2.054   0.417   6.847
 3738POPC   C4A49782   1.908   0.267   7.266
 3738POPC   C1B49783   2.319   0.863   6.118
 3738POPC   C2B49784   2.436   0.809   6.538
 3738POPC   C3B49785   2.286   0.862   6.911
 3738POPC   C4B49786   2.372   0.784   7.326
 3739POPC   NC349787   5.612   7.149   5.492
 3739POPC   PO449788   5.846   7.717   5.710
 3739POPC   GL149789   5.800   7.301   5.943
 3739POPC   GL249790   6.112   7.183   6.058
 3739POPC   C1A49791   5.721   7.160   6.381
 3739POPC   D2A49792   5.900   7.304   6.773
 3739POPC   C3A49793   5.634   7.366   7.122
 3739POPC   C4A49794   5.593   7.608   7.518
 3739POPC   C1B49795   6.073   7.577   6.330
 3739POPC   C2B49796   5.939   7.825   6.692
 3739POPC   C3B49797   5.872   7.817   7.132
 3739POPC   C4B49798   6.088   7.470   7.322
 3740POPC   NC349799   1.333   9.143   5.149
 3740POPC   PO449800   0.896   8.691   5.422
 3740POPC   GL149801   1.140   9.021   5.640
 3740POPC   GL249802   0.885   9.265   5.744
 3740POPC   C1A49803   1.265   9.132   6.089
 3740POPC   D2A49804   1.120   9.007   6.528
 3740POPC   C3A49805   1.433   9.027   6.890
 3740POPC   C4A49806   1.345   8.857   7.314
 3740POPC   C1B49807   0.867   9.488   6.152
 3740POPC   C2B49808   1.054   9.528   6.575
 3740POPC   C3B49809   0.999   9.286   6.975
 3740POPC   C4B49810   1.044   9.235   7.437
 3741POPC   NC349811  36.536  10.244   5.528
 3741POPC   PO449812  35.856  10.272   5.445
 3741POPC   GL149813  35.904  10.527   5.791
 3741POPC   GL249814  36.292  10.581   5.838
 3741POPC   C1A49815  35.826  10.580   6.219
 3741POPC   D2A49816  36.104  10.650   6.554
 3741POPC   C3A49817  35.965  10.681   6.955
 3741POPC   C4A49818  36.372  10.607   7.120
 3741POPC   C1B49819  36.248  10.308   6.170
 3741POPC   C2B49820  36.187  10.112   6.548
 3741POPC   C3B49821  36.345  10.146   6.951
 3741POPC   C4B49822  36.664  10.200   7.279
 3742POPC   NC349823  13.226  33.033   4.928
 3742POPC   PO449824  13.586  32.738   5.470
 3742POPC   GL149825  13.703  32.918   5.862
 3742POPC   GL249826  13.405  32.880   6.031
 3742POPC   C1A49827  13.818  33.193   6.229
 3742POPC   D2A49828  13.698  33.347   6.656
 3742POPC   C3A49829  13.617  33.042   7.003
 3742POPC   C4A49830  13.807  33.207   7.393
 3742POPC   C1B49831  13.451  32.896   6.490
 3742POPC   C2B49832  13.485  32.541   6.782
 3742POPC   C3B49833  13.386  32.467   7.206
 3742POPC   C4B49834  13.291  32.533   7.641
 3743POPC   NC349835  42.683  15.478   5.652
 3743POPC   PO449836  42.274  15.040   5.269
 3743POPC   GL149837  42.224  15.245   5.630
 3743POPC   GL249838  42.403  15.005   5.798
 3743POPC   C1A49839  42.169  15.365   6.081
 3743POPC   D2A49840  42.000  15.135   6.427
 3743POPC   C3A49841  42.117  15.209   6.864
 3743POPC   C4A49842  42.085  15.339   7.305
 3743POPC   C1B49843  42.437  14.896   6.248
 3743POPC   C2B49844  42.532  14.889   6.709
 3743POPC   C3B49845  42.368  14.810   7.134
 3743POPC   C4B49846  42.455  15.079   7.524
 3744POPC   NC349847  15.326  20.176   5.306
 3744POPC   PO449848  15.179  20.883   5.251
 3744POPC   GL149849  15.289  20.762   5.666
 3744POPC   GL249850  15.198  20.447   5.734
 3744POPC   C1A49851  15.231  20.818   6.118
 3744POPC   D2A49852  15.393  20.724   6.526
 3744POPC   C3A49853  15.190  20.844   6.864
 3744POPC   C4A49854  15.241  20.775   7.234
 3744POPC   C1B49855  15.095  20.324   6.176
 3744POPC   C2B49856  14.999  20.446   6.594
 3744POPC   C3B49857  15.111  20.331   6.996
 3744POPC   C4B49858  14.773  20.271   7.272
 3745POPC   NC349859   6.890  23.675   5.101
 3745POPC   PO449860   6.604  24.174   5.431
 3745POPC   GL149861   6.633  23.867   5.737
 3745POPC   GL249862   6.910  23.681   5.620
 3745POPC   C1A49863   6.458  23.699   6.125
 3745POPC   D2A49864   6.560  23.812   6.560
 3745POPC   C3A49865   6.426  23.738   7.012
 3745POPC   C4A49866   6.282  23.786   7.458
 3745POPC   C1B49867   6.961  23.588   6.045
 3745POPC   C2B49868   7.018  23.564   6.484
 3745POPC   C3B49869   6.928  23.690   6.894
 3745POPC   C4B49870   7.194  23.589   7.187
 3746POPC   NC349871  31.918  16.881   5.440
 3746POPC   PO449872  32.505  16.520   5.480
 3746POPC   GL149873  32.228  16.426   5.821
 3746POPC   GL249874  32.479  16.142   5.886
 3746POPC   C1A49875  32.105  16.683   6.200
 3746POPC   D2A49876  32.341  16.835   6.594
 3746POPC   C3A49877  32.190  16.703   7.020
 3746POPC   C4A49878  32.027  16.630   7.463
 3746POPC   C1B49879  32.429  16.298   6.284
 3746POPC   C2B49880  32.246  16.298   6.664
 3746POPC   C3B49881  32.449  16.255   7.043
 3746POPC   C4B49882  32.497  16.496   7.416
 3747POPC   NC349883  21.715  35.480   5.379
 3747POPC   PO449884  21.238  35.110   5.544
 3747POPC   GL149885  21.577  35.140   5.836
 3747POPC   GL249886  21.617  35.454   5.978
 3747POPC   C1A49887  21.510  35.028   6.271
 3747POPC   D2A49888  21.293  35.063   6.642
 3747POPC   C3A49889  21.567  35.012   6.979
 3747POPC   C4A49890  21.638  35.342   7.272
 3747POPC   C1B49891  21.174  35.402   6.205
 3747POPC   C2B49892  20.906  35.396   6.614
 3747POPC   C3B49893  21.034  35.518   7.073
 3747POPC   C4B49894  20.847  35.740   7.434
 3748POPC   NC349895   0.786   4.208   5.335
 3748POPC   PO449896   0.276   4.663   5.392
 3748POPC   GL149897   0.114   4.302   5.677
 3748POPC   GL249898   0.431   4.176   5.691
 3748POPC   C1A49899   0.209   4.044   6.111
 3748POPC   D2A49900   0.297   3.845   6.530
 3748POPC   C3A49901   0.242   4.119   6.892
 3748POPC   C4A49902   0.558   4.415   7.044
 3748POPC   C1B49903   0.737   4.081   6.021
 3748POPC   C2B49904   0.792   4.107   6.470
 3748POPC   C3B49905   0.724   3.927   6.867
 3748POPC   C4B49906   0.717   3.975   7.286
 3749POPC   NC349907  24.129   0.731   5.542
 3749POPC   PO449908  23.588   0.329   5.496
 3749POPC   GL149909  23.859   0.395   5.838
 3749POPC   GL249910  23.961   0.055   5.978
 3749POPC   C1A49911  23.840   0.691   6.184
 3749POPC   D2A49912  23.906   0.538   6.592
 3749POPC   C3A49913  23.942   0.729   6.992
 3749POPC   C4A49914  23.730   0.520   7.305
 3749POPC   C1B49915  23.584   0.227   6.249
 3749POPC   C2B49916  23.292   0.295   6.624
 3749POPC   C3B49917  23.316   0.323   7.098
 3749POPC   C4B49918  23.394   0.249   7.597
 3750POPC   NC349919  35.971  23.244   5.329
 3750POPC   PO449920  36.422  22.855   5.674
 3750POPC   GL149921  36.196  23.230   5.783
 3750POPC   GL249922  36.482  23.462   5.782
 3750POPC   C1A49923  35.852  23.250   6.107
 3750POPC   D2A49924  35.748  22.972   6.492
 3750POPC   C3A49925  35.976  23.031   6.883
 3750POPC   C4A49926  36.076  22.760   7.238
 3750POPC   C1B49927  36.347  23.348   6.241
 3750POPC   C2B49928  36.349  23.384   6.682
 3750POPC   C3B49929  36.468  23.113   7.023
 3750POPC   C4B49930  36.341  23.143   7.451
 3751POPC   NC349931   0.714  19.755   5.451
 3751POPC   PO449932   1.360  19.764   5.292
 3751POPC   GL149933   1.190  19.551   5.709
 3751POPC   GL249934   0.844  19.505   5.885
 3751POPC   C1A49935   1.407  19.527   6.125
 3751POPC   D2A49936   1.409  19.797   6.528
 3751POPC   C3A49937   1.407  19.609   6.952
 3751POPC   C4A49938   1.049  19.480   7.186
 3751POPC   C1B49939   1.028  19.848   6.135
 3751POPC   C2B49940   0.966  20.070   6.479
 3751POPC   C3B49941   0.929  19.858   6.853
 3751POPC   C4B49942   0.794  19.938   7.247
 3752POPC   NC349943  40.535   5.863   5.346
 3752POPC   PO449944  41.106   6.032   5.582
 3752POPC   GL149945  40.944   5.941   5.927
 3752POPC   GL249946  40.710   5.700   5.836
 3752POPC   C1A49947  40.967   6.168   6.311
 3752POPC   D2A49948  40.999   5.951   6.692
 3752POPC   C3A49949  40.777   6.111   7.053
 3752POPC   C4A49950  40.871   6.112   7.469
 3752POPC   C1B49951  40.659   5.738   6.309
 3752POPC   C2B49952  40.516   5.787   6.751
 3752POPC   C3B49953  40.715   5.606   7.150
 3752POPC   C4B49954  40.454   5.438   7.495
 3753POPC   NC349955  27.391  13.931   5.294
 3753POPC   PO449956  27.635  13.319   5.433
 3753POPC   GL149957  27.641  13.618   5.797
 3753POPC   GL249958  27.353  13.871   5.829
 3753POPC   C1A49959  27.716  13.754   6.226
 3753POPC   D2A49960  27.544  13.612   6.620
 3753POPC   C3A49961  27.789  13.639   6.995
 3753POPC   C4A49962  27.818  13.346   7.353
 3753POPC   C1B49963  27.191  13.613   6.200
 3753POPC   C2B49964  27.040  13.720   6.599
 3753POPC   C3B49965  27.284  13.917   6.928
 3753POPC   C4B49966  27.363  13.617   7.256
 3754POPC   NC349967  24.841  15.262   5.514
 3754POPC   PO449968  24.286  15.000   5.304
 3754POPC   GL149969  24.488  15.002   5.787
 3754POPC   GL249970  24.387  15.310   5.803
 3754POPC   C1A49971  24.741  14.940   6.233
 3754POPC   D2A49972  24.672  15.145   6.682
 3754POPC   C3A49973  24.502  14.999   7.096
 3754POPC   C4A49974  24.563  15.043   7.569
 3754POPC   C1B49975  24.563  15.407   6.198
 3754POPC   C2B49976  24.328  15.522   6.544
 3754POPC   C3B49977  24.406  15.603   6.953
 3754POPC   C4B49978  24.592  15.495   7.294
 3755POPC   NC349979  11.159  18.182   5.286
 3755POPC   PO449980  11.200  18.755   5.606
 3755POPC   GL149981  11.338  18.443   5.834
 3755POPC   GL249982  11.166  18.135   5.821
 3755POPC   C1A49983  11.507  18.470   6.229
 3755POPC   D2A49984  11.404  18.340   6.639
 3755POPC   C3A49985  11.570  18.503   7.007
 3755POPC   C4A49986  11.237  18.596   7.313
 3755POPC   C1B49987  11.463  17.972   6.177
 3755POPC   C2B49988  11.651  17.903   6.565
 3755POPC   C3B49989  11.510  17.889   6.945
 3755POPC   C4B49990  11.334  18.096   7.276
 3756POPC   NC349991  27.547  19.303   5.677
 3756POPC   PO449992  27.765  18.692   5.427
 3756POPC   GL149993  27.791  18.877   5.818
 3756POPC   GL249994  28.056  19.162   5.762
 3756POPC   C1A49995  27.604  19.030   6.257
 3756POPC   D2A49996  27.489  19.249   6.648
 3756POPC   C3A49997  27.465  18.949   6.972
 3756POPC   C4A49998  27.796  18.753   7.183
 3756POPC   C1B49999  28.109  19.028   6.172
 3756POPC   C2B50000  28.003  19.110   6.590
 3756POPC   C3B50001  27.891  19.231   6.987
 3756POPC   C4B50002  27.716  19.191   7.401
 3757POPC   NC350003  12.238  28.492   5.401
 3757POPC   PO450004  11.603  28.296   5.455
 3757POPC   GL150005  11.901  28.378   5.781
 3757POPC   GL250006  12.267  28.322   5.864
 3757POPC   C1A50007  11.871  28.450   6.203
 3757POPC   D2A50008  11.744  28.218   6.570
 3757POPC   C3A50009  12.007  28.201   6.931
 3757POPC   C4A50010  11.776  28.122   7.274
 3757POPC   C1B50011  12.347  28.287   6.298
 3757POPC   C2B50012  12.164  28.561   6.602
 3757POPC   C3B50013  12.050  28.707   7.004
 3757POPC   C4B50014  12.218  28.684   7.426
 3758POPC   NC350015  16.951   9.891   5.457
 3758POPC   PO450016  16.518   9.453   5.470
 3758POPC   GL150017  16.767   9.534   5.866
 3758POPC   GL250018  17.148   9.546   5.769
 3758POPC   C1A50019  16.678   9.630   6.333
 3758POPC   D2A50020  16.791  10.003   6.579
 3758POPC   C3A50021  16.665  10.104   7.008
 3758POPC   C4A50022  16.658   9.838   7.326
 3758POPC   C1B50023  17.124   9.778   6.147
 3758POPC   C2B50024  17.139   9.602   6.582
 3758POPC   C3B50025  17.060   9.781   6.972
 3758POPC   C4B50026  17.172  10.005   7.323
 3759POPC   NC350027  18.518   5.426   5.145
 3759POPC   PO450028  18.366   5.980   5.315
 3759POPC   GL150029  18.451   5.939   5.779
 3759POPC   GL250030  18.694   5.663   5.788
 3759POPC   C1A50031  18.534   6.105   6.191
 3759POPC   D2A50032  18.701   6.031   6.595
 3759POPC   C3A50033  18.457   6.013   6.995
 3759POPC   C4A50034  18.521   5.786   7.409
 3759POPC   C1B50035  18.507   5.575   6.205
 3759POPC   C2B50036  18.378   5.634   6.640
 3759POPC   C3B50037  18.294   5.491   7.065
 3759POPC   C4B50038  18.371   5.281   7.479
 3760POPC   NC350039  43.633   0.043   5.297
 3760POPC   PO450040  43.800  44.377   5.374
 3760POPC   GL150041  43.853  44.727   5.687
 3760POPC   GL250042  44.204  44.889   5.678
 3760POPC   C1A50043  43.725  44.635   6.119
 3760POPC   D2A50044  43.812  44.336   6.454
 3760POPC   C3A50045  43.705  44.422   6.899
 3760POPC   C4A50046  43.940  44.403   7.290
 3760POPC   C1B50047  44.102  44.987   6.107
 3760POPC   C2B50048  43.946  44.865   6.526
 3760POPC   C3B50049  43.891  44.944   6.962
 3760POPC   C4B50050  43.996  44.897   7.385
 3761POPC   NC350051  29.437  42.245   5.192
 3761POPC   PO450052  28.926  41.912   5.498
 3761POPC   GL150053  28.974  42.279   5.788
 3761POPC   GL250054  29.323  42.372   5.723
 3761POPC   C1A50055  28.950  42.635   6.111
 3761POPC   D2A50056  29.028  42.737   6.555
 3761POPC   C3A50057  29.066  42.418   6.879
 3761POPC   C4A50058  28.963  42.510   7.306
 3761POPC   C1B50059  29.374  42.355   6.191
 3761POPC   C2B50060  29.530  42.513   6.610
 3761POPC   C3B50061  29.572  42.232   6.968
 3761POPC   C4B50062  29.302  42.137   7.332
 3762POPC   NC350063  38.141  30.247   5.126
 3762POPC   PO450064  38.428  30.708   5.328
 3762POPC   GL150065  38.495  30.837   5.784
 3762POPC   GL250066  38.580  31.184   5.871
 3762POPC   C1A50067  38.683  30.749   6.204
 3762POPC   D2A50068  38.677  30.940   6.615
 3762POPC   C3A50069  38.540  30.671   6.908
 3762POPC   C4A50070  38.633  30.580   7.288
 3762POPC   C1B50071  38.315  31.094   6.269
 3762POPC   C2B50072  38.140  30.963   6.716
 3762POPC   C3B50073  38.115  30.800   7.183
 3762POPC   C4B50074  38.302  31.045   7.529
 3763POPC   NC350075  18.222  35.164   5.393
 3763POPC   PO450076  18.568  35.696   5.446
 3763POPC   GL150077  18.346  35.559   5.822
 3763POPC   GL250078  18.505  35.265   5.834
 3763POPC   C1A50079  18.314  35.430   6.304
 3763POPC   D2A50080  18.534  35.437   6.730
 3763POPC   C3A50081  18.341  35.632   7.137
 3763POPC   C4A50082  18.267  35.523   7.589
 3763POPC   C1B50083  18.426  34.961   6.129
 3763POPC   C2B50084  18.349  34.955   6.559
 3763POPC   C3B50085  18.445  34.899   6.991
 3763POPC   C4B50086  18.308  35.028   7.423
 3764POPC   NC350087   0.732  20.747   5.328
 3764POPC   PO450088   0.861  20.161   5.603
 3764POPC   GL150089   0.649  20.486   5.784
 3764POPC   GL250090   0.311  20.518   5.691
 3764POPC   C1A50091   0.706  20.677   6.183
 3764POPC   D2A50092   0.891  20.591   6.610
 3764POPC   C3A50093   0.640  20.751   6.960
 3764POPC   C4A50094   0.685  20.761   7.440
 3764POPC   C1B50095   0.313  20.334   6.129
 3764POPC   C2B50096   0.499  20.254   6.508
 3764POPC   C3B50097   0.551  20.253   6.928
 3764POPC   C4B50098   0.264  20.496   7.209
 3765POPC   NC350099  33.839  29.279   5.405
 3765POPC   PO450100  34.368  29.058   5.471
 3765POPC   GL150101  34.087  29.111   5.870
 3765POPC   GL250102  33.747  29.207   5.890
 3765POPC   C1A50103  33.952  29.008   6.323
 3765POPC   D2A50104  33.790  28.862   6.737
 3765POPC   C3A50105  33.854  29.162   7.099
 3765POPC   C4A50106  33.943  29.210   7.561
 3765POPC   C1B50107  33.494  29.223   6.260
 3765POPC   C2B50108  33.316  29.066   6.648
 3765POPC   C3B50109  33.347  29.109   7.091
 3765POPC   C4B50110  33.504  29.421   7.386
 3766POPC   NC350111  33.703  13.356   5.442
 3766POPC   PO450112  33.930  12.747   5.411
 3766POPC   GL150113  33.690  12.881   5.778
 3766POPC   GL250114  33.427  12.622   5.783
 3766POPC   C1A50115  33.772  12.973   6.246
 3766POPC   D2A50116  33.623  12.836   6.656
 3766POPC   C3A50117  33.681  13.072   7.069
 3766POPC   C4A50118  34.002  13.156   7.425
 3766POPC   C1B50119  33.332  12.435   6.227
 3766POPC   C2B50120  33.371  12.311   6.697
 3766POPC   C3B50121  33.352  12.623   7.023
 3766POPC   C4B50122  33.260  12.719   7.408
 3767POPC   NC350123  40.413  14.569   5.478
 3767POPC   PO450124  40.887  14.139   5.327
 3767POPC   GL150125  40.820  14.325   5.717
 3767POPC   GL250126  40.936  14.661   5.654
 3767POPC   C1A50127  40.677  14.189   6.165
 3767POPC   D2A50128  40.858  14.199   6.614
 3767POPC   C3A50129  40.603  14.077   6.969
 3767POPC   C4A50130  40.565  14.370   7.279
 3767POPC   C1B50131  41.058  14.572   6.089
 3767POPC   C2B50132  41.212  14.578   6.501
 3767POPC   C3B50133  41.303  14.532   6.936
 3767POPC   C4B50134  41.059  14.230   7.158
 3768POPC   NC350135   9.842  35.521   5.392
 3768POPC   PO450136   9.440  35.090   5.703
 3768POPC   GL150137   9.698  35.261   5.974
 3768POPC   GL250138   9.789  35.576   5.882
 3768POPC   C1A50139   9.667  35.200   6.402
 3768POPC   D2A50140   9.869  35.059   6.762
 3768POPC   C3A50141   9.687  35.327   7.073
 3768POPC   C4A50142   9.850  35.241   7.474
 3768POPC   C1B50143   9.931  35.681   6.258
 3768POPC   C2B50144   9.907  35.578   6.660
 3768POPC   C3B50145  10.122  35.567   7.035
 3768POPC   C4B50146   9.932  35.753   7.349
 3769POPC   NC350147  11.908   6.916   5.315
 3769POPC   PO450148  12.251   6.360   5.142
 3769POPC   GL150149  12.120   6.420   5.688
 3769POPC   GL250150  12.077   6.757   5.762
 3769POPC   C1A50151  11.813   6.535   6.130
 3769POPC   D2A50152  11.784   6.672   6.594
 3769POPC   C3A50153  11.802   6.530   7.075
 3769POPC   C4A50154  12.146   6.628   7.433
 3769POPC   C1B50155  11.881   7.057   6.036
 3769POPC   C2B50156  11.759   7.171   6.470
 3769POPC   C3B50157  11.836   7.066   6.948
 3769POPC   C4B50158  11.775   6.985   7.422
 3770POPC   NC350159  41.210  15.145   5.661
 3770POPC   PO450160  40.560  15.047   5.591
 3770POPC   GL150161  40.671  14.947   6.001
 3770POPC   GL250162  40.515  14.640   5.977
 3770POPC   C1A50163  40.989  15.034   6.350
 3770POPC   D2A50164  41.192  15.029   6.771
 3770POPC   C3A50165  40.986  15.160   7.122
 3770POPC   C4A50166  40.736  15.531   7.139
 3770POPC   C1B50167  40.650  14.636   6.420
 3770POPC   C2B50168  40.782  14.672   6.861
 3770POPC   C3B50169  40.519  14.872   7.185
 3770POPC   C4B50170  40.461  14.757   7.620
 3771POPC   NC350171   3.823  35.880   5.389
 3771POPC   PO450172   3.561  36.517   5.518
 3771POPC   GL150173   3.815  36.313   5.832
 3771POPC   GL250174   3.655  35.982   5.851
 3771POPC   C1A50175   3.761  36.205   6.299
 3771POPC   D2A50176   3.347  36.232   6.535
 3771POPC   C3A50177   3.399  36.473   6.912
 3771POPC   C4A50178   3.501  36.259   7.304
 3771POPC   C1B50179   3.561  35.713   6.209
 3771POPC   C2B50180   3.567  35.774   6.663
 3771POPC   C3B50181   3.271  35.937   6.988
 3771POPC   C4B50182   3.255  35.811   7.452
 3772POPC   NC350183  41.341   6.433   5.508
 3772POPC   PO450184  41.494   7.087   5.309
 3772POPC   GL150185  41.553   6.877   5.701
 3772POPC   GL250186  41.871   6.672   5.638
 3772POPC   C1A50187  41.325   6.761   6.106
 3772POPC   D2A50188  41.100   6.776   6.508
 3772POPC   C3A50189  41.300   6.630   6.885
 3772POPC   C4A50190  41.391   6.879   7.249
 3772POPC   C1B50191  41.844   6.718   6.090
 3772POPC   C2B50192  41.666   6.756   6.507
 3772POPC   C3B50193  41.797   6.771   6.959
 3772POPC   C4B50194  41.938   6.442   7.241
 3773POPC   NC350195   4.785  42.924   5.500
 3773POPC   PO450196   5.140  43.574   5.484
 3773POPC   GL150197   5.258  43.371   5.916
 3773POPC   GL250198   5.167  43.003   5.908
 3773POPC   C1A50199   5.244  43.296   6.350
 3773POPC   D2A50200   4.933  43.063   6.562
 3773POPC   C3A50201   4.793  43.167   6.965
 3773POPC   C4A50202   4.897  43.286   7.373
 3773POPC   C1B50203   4.993  42.684   6.213
 3773POPC   C2B50204   5.070  42.575   6.659
 3773POPC   C3B50205   5.047  42.733   7.080
 3773POPC   C4B50206   5.301  42.683   7.473
 3774POPC   NC350207  11.345   2.590   5.213
 3774POPC   PO450208  11.023   1.916   5.288
 3774POPC   GL150209  11.281   1.919   5.673
 3774POPC   GL250210  11.035   2.173   5.788
 3774POPC   C1A50211  11.429   1.706   6.083
 3774POPC   D2A50212  11.572   1.884   6.460
 3774POPC   C3A50213  11.581   1.707   6.884
 3774POPC   C4A50214  11.576   2.075   7.181
 3774POPC   C1B50215  10.947   1.891   6.127
 3774POPC   C2B50216  11.096   1.729   6.528
 3774POPC   C3B50217  11.171   1.980   6.861
 3774POPC   C4B50218  11.085   1.994   7.270
 3775POPC   NC350219   6.473  40.002   5.406
 3775POPC   PO450220   7.119  40.108   5.475
 3775POPC   GL150221   6.823  39.963   5.832
 3775POPC   GL250222   6.503  39.862   5.899
 3775POPC   C1A50223   6.799  39.987   6.304
 3775POPC   D2A50224   7.066  40.017   6.679
 3775POPC   C3A50225   6.787  39.946   7.018
 3775POPC   C4A50226   6.388  40.151   7.067
 3775POPC   C1B50227   6.331  39.648   6.247
 3775POPC   C2B50228   6.545  39.612   6.630
 3775POPC   C3B50229   6.366  39.626   7.037
 3775POPC   C4B50230   6.465  39.808   7.437
 3776POPC   NC350231   9.783  18.515   5.003
 3776POPC   PO450232  10.039  18.031   5.358
 3776POPC   GL150233  10.107  18.156   5.826
 3776POPC   GL250234  10.030  18.530   5.903
 3776POPC   C1A50235  10.008  17.971   6.216
 3776POPC   D2A50236   9.834  18.005   6.630
 3776POPC   C3A50237   9.949  18.300   6.943
 3776POPC   C4A50238   9.789  18.123   7.332
 3776POPC   C1B50239   9.894  18.456   6.345
 3776POPC   C2B50240   9.550  18.444   6.661
 3776POPC   C3B50241   9.534  18.519   7.108
 3776POPC   C4B50242   9.898  18.636   7.392
 3777POPC   NC350243   2.380  15.241   5.455
 3777POPC   PO450244   3.057  15.324   5.322
 3777POPC   GL150245   2.821  15.103   5.687
 3777POPC   GL250246   2.649  15.384   5.859
 3777POPC   C1A50247   2.898  15.025   6.146
 3777POPC   D2A50248   2.720  15.143   6.570
 3777POPC   C3A50249   2.921  15.161   6.976
 3777POPC   C4A50250   3.184  15.173   7.300
 3777POPC   C1B50251   2.419  15.386   6.235
 3777POPC   C2B50252   2.419  15.562   6.643
 3777POPC   C3B50253   2.433  15.290   7.002
 3777POPC   C4B50254   2.347  15.484   7.366
 3778POPC   NC350255  22.305   9.886   5.464
 3778POPC   PO450256  21.897   9.416   5.315
 3778POPC   GL150257  21.875   9.541   5.720
 3778POPC   GL250258  22.085   9.769   5.899
 3778POPC   C1A50259  21.875   9.369   6.147
 3778POPC   D2A50260  21.965   9.383   6.605
 3778POPC   C3A50261  22.002   9.715   6.899
 3778POPC   C4A50262  22.223   9.842   7.321
 3778POPC   C1B50263  21.994   9.837   6.331
 3778POPC   C2B50264  22.177  10.118   6.600
 3778POPC   C3B50265  22.070  10.208   6.997
 3778POPC   C4B50266  21.745  10.016   7.224
 3779POPC   NC350267  26.737  38.306   5.373
 3779POPC   PO450268  27.205  38.586   5.184
 3779POPC   GL150269  27.146  38.517   5.653
 3779POPC   GL250270  26.976  38.200   5.807
 3779POPC   C1A50271  27.116  38.595   6.111
 3779POPC   D2A50272  26.868  38.634   6.522
 3779POPC   C3A50273  27.005  38.495   6.936
 3779POPC   C4A50274  27.062  38.640   7.380
 3779POPC   C1B50275  26.628  38.390   6.085
 3779POPC   C2B50276  26.419  38.367   6.505
 3779POPC   C3B50277  26.544  38.261   6.925
 3779POPC   C4B50278  26.562  38.544   7.266
 3780POPC   NC350279  43.725  13.134   5.446
 3780POPC   PO450280  44.139  12.573   5.446
 3780POPC   GL150281  43.845  12.737   5.763
 3780POPC   GL250282  43.934  12.441   5.932
 3780POPC   C1A50283  43.798  13.043   6.112
 3780POPC   D2A50284  43.654  12.921   6.529
 3780POPC   C3A50285  43.779  13.078   6.933
 3780POPC   C4A50286  43.932  12.945   7.321
 3780POPC   C1B50287  44.070  12.663   6.303
 3780POPC   C2B50288  44.134  12.739   6.749
 3780POPC   C3B50289  43.971  12.488   7.108
 3780POPC   C4B50290  44.049  12.501   7.561
 3781POPC   NC350291   3.393  11.850   5.348
 3781POPC   PO450292   4.037  12.019   5.416
 3781POPC   GL150293   3.757  11.907   5.779
 3781POPC   GL250294   3.451  12.088   5.819
 3781POPC   C1A50295   3.633  11.859   6.236
 3781POPC   D2A50296   3.781  12.136   6.563
 3781POPC   C3A50297   3.595  12.104   6.959
 3781POPC   C4A50298   3.453  11.741   7.151
 3781POPC   C1B50299   3.165  12.044   6.177
 3781POPC   C2B50300   3.229  12.076   6.589
 3781POPC   C3B50301   3.157  12.401   6.858
 3781POPC   C4B50302   3.205  12.346   7.259
 3782POPC   NC350303  14.445  35.021   5.454
 3782POPC   PO450304  14.227  35.670   5.432
 3782POPC   GL150305  14.260  35.386   5.772
 3782POPC   GL250306  14.568  35.325   5.856
 3782POPC   C1A50307  14.171  35.223   6.193
 3782POPC   D2A50308  14.341  34.981   6.546
 3782POPC   C3A50309  14.278  35.111   6.972
 3782POPC   C4A50310  14.241  35.351   7.347
 3782POPC   C1B50311  14.727  35.166   6.263
 3782POPC   C2B50312  14.742  35.227   6.731
 3782POPC   C3B50313  14.727  35.274   7.179
 3782POPC   C4B50314  14.678  35.276   7.592
 3783POPC   NC350315   5.277  25.422   5.461
 3783POPC   PO450316   4.991  24.844   5.485
 3783POPC   GL150317   4.931  25.222   5.822
 3783POPC   GL250318   5.099  25.571   5.892
 3783POPC   C1A50319   4.862  25.391   6.272
 3783POPC   D2A50320   4.998  25.572   6.626
 3783POPC   C3A50321   4.937  25.235   6.865
 3783POPC   C4A50322   4.886  25.164   7.301
 3783POPC   C1B50323   5.353  25.372   6.235
 3783POPC   C2B50324   5.464  25.331   6.690
 3783POPC   C3B50325   5.365  25.346   7.131
 3783POPC   C4B50326   5.343  25.110   7.489
 3784POPC   NC350327   1.344  15.819   5.589
 3784POPC   PO450328   1.255  15.141   5.499
 3784POPC   GL150329   1.147  15.201   5.864
 3784POPC   GL250330   0.968  15.527   5.798
 3784POPC   C1A50331   1.392  15.088   6.250
 3784POPC   D2A50332   1.571  15.228   6.661
 3784POPC   C3A50333   1.337  15.131   7.028
 3784POPC   C4A50334   1.410  15.302   7.440
 3784POPC   C1B50335   1.125  15.564   6.201
 3784POPC   C2B50336   1.091  15.363   6.568
 3784POPC   C3B50337   0.991  15.479   6.936
 3784POPC   C4B50338   0.815  15.353   7.287
 3785POPC   NC350339  23.895  25.066   5.578
 3785POPC   PO450340  23.450  25.452   5.302
 3785POPC   GL150341  23.512  25.516   5.741
 3785POPC   GL250342  23.870  25.524   5.775
 3785POPC   C1A50343  23.597  25.341   6.169
 3785POPC   D2A50344  23.366  25.132   6.507
 3785POPC   C3A50345  23.498  25.287   6.887
 3785POPC   C4A50346  23.759  25.505   7.182
 3785POPC   C1B50347  24.150  25.532   6.158
 3785POPC   C2B50348  24.304  25.441   6.594
 3785POPC   C3B50349  24.107  25.083   6.783
 3785POPC   C4B50350  23.877  25.027   7.158
 3786POPC   NC350351  30.655   2.375   5.214
 3786POPC   PO450352  30.313   2.929   5.417
 3786POPC   GL150353  30.563   2.627   5.730
 3786POPC   GL250354  30.788   2.329   5.782
 3786POPC   C1A50355  30.505   2.423   6.185
 3786POPC   D2A50356  30.458   2.420   6.667
 3786POPC   C3A50357  30.495   2.834   6.871
 3786POPC   C4A50358  30.785   3.009   7.173
 3786POPC   C1B50359  30.998   2.572   6.111
 3786POPC   C2B50360  30.862   2.729   6.503
 3786POPC   C3B50361  30.952   2.584   6.909
 3786POPC   C4B50362  31.153   2.618   7.292
 3787POPC   NC350363  25.932  11.671   5.437
 3787POPC   PO450364  26.204  11.047   5.323
 3787POPC   GL150365  26.100  11.279   5.722
 3787POPC   GL250366  25.738  11.312   5.796
 3787POPC   C1A50367  26.180  11.340   6.176
 3787POPC   D2A50368  26.468  11.404   6.551
 3787POPC   C3A50369  26.179  11.342   6.876
 3787POPC   C4A50370  26.117  11.381   7.280
 3787POPC   C1B50371  25.659  11.474   6.230
 3787POPC   C2B50372  25.685  11.453   6.681
 3787POPC   C3B50373  25.693  11.564   7.118
 3787POPC   C4B50374  25.800  11.564   7.613
 3788POPC   NC350375  27.169  23.506   5.364
 3788POPC   PO450376  27.716  23.945   5.189
 3788POPC   GL150377  27.550  23.814   5.640
 3788POPC   GL250378  27.486  23.476   5.760
 3788POPC   C1A50379  27.372  23.870   6.087
 3788POPC   D2A50380  27.564  23.870   6.533
 3788POPC   C3A50381  27.428  23.617   6.879
 3788POPC   C4A50382  27.185  23.699   7.236
 3788POPC   C1B50383  27.656  23.462   6.188
 3788POPC   C2B50384  27.909  23.478   6.590
 3788POPC   C3B50385  27.917  23.753   6.948
 3788POPC   C4B50386  27.669  23.715   7.339
 3789POPC   NC350387  22.636  16.027   5.542
 3789POPC   PO450388  22.139  15.753   5.242
 3789POPC   GL150389  22.231  15.796   5.776
 3789POPC   GL250390  21.983  15.609   6.009
 3789POPC   C1A50391  22.249  15.956   6.278
 3789POPC   D2A50392  22.076  15.981   6.759
 3789POPC   C3A50393  22.318  16.035   7.161
 3789POPC   C4A50394  22.682  16.159   7.422
 3789POPC   C1B50395  21.795  15.660   6.393
 3789POPC   C2B50396  21.776  15.453   6.790
 3789POPC   C3B50397  21.900  15.683   7.134
 3789POPC   C4B50398  21.944  15.897   7.497
 3790POPC   NC350399  30.120  29.288   5.418
 3790POPC   PO450400  29.578  29.619   5.637
 3790POPC   GL150401  29.777  29.231   5.798
 3790POPC   GL250402  30.028  28.939   5.768
 3790POPC   C1A50403  29.957  29.233   6.191
 3790POPC   D2A50404  29.778  29.411   6.568
 3790POPC   C3A50405  29.748  29.163   6.946
 3790POPC   C4A50406  30.059  28.942   7.203
 3790POPC   C1B50407  29.824  28.725   6.082
 3790POPC   C2B50408  29.821  28.841   6.520
 3790POPC   C3B50409  29.733  28.650   6.916
 3790POPC   C4B50410  29.627  28.652   7.322
 3791POPC   NC350411  38.978  13.187   5.609
 3791POPC   PO450412  39.360  12.568   5.516
 3791POPC   GL150413  39.241  12.811   5.872
 3791POPC   GL250414  39.485  13.082   5.811
 3791POPC   C1A50415  39.055  12.866   6.315
 3791POPC   D2A50416  38.731  12.706   6.634
 3791POPC   C3A50417  38.961  12.683   7.019
 3791POPC   C4A50418  39.399  12.623   7.114
 3791POPC   C1B50419  39.568  12.992   6.224
 3791POPC   C2B50420  39.541  12.898   6.643
 3791POPC   C3B50421  39.257  13.095   6.921
 3791POPC   C4B50422  39.303  13.071   7.364
 3792POPC   NC350423   5.231  41.306   5.503
 3792POPC   PO450424   4.808  41.751   5.443
 3792POPC   GL150425   5.039  41.709   5.806
 3792POPC   GL250426   5.017  41.371   5.948
 3792POPC   C1A50427   5.249  41.760   6.188
 3792POPC   D2A50428   5.218  41.527   6.545
 3792POPC   C3A50429   5.296  41.717   6.926
 3792POPC   C4A50430   5.081  41.836   7.289
 3792POPC   C1B50431   5.444  41.276   6.119
 3792POPC   C2B50432   5.505  41.132   6.514
 3792POPC   C3B50433   5.601  41.290   6.903
 3792POPC   C4B50434   5.403  41.386   7.288
 3793POPC   NC350435  24.774  39.267   5.148
 3793POPC   PO450436  24.269  39.674   5.342
 3793POPC   GL150437  24.546  39.401   5.635
 3793POPC   GL250438  24.611  39.030   5.694
 3793POPC   C1A50439  24.518  39.319   6.117
 3793POPC   D2A50440  24.327  39.308   6.571
 3793POPC   C3A50441  24.424  39.211   7.030
 3793POPC   C4A50442  24.423  38.845   7.309
 3793POPC   C1B50443  24.792  38.884   6.140
 3793POPC   C2B50444  24.757  38.903   6.628
 3793POPC   C3B50445  24.894  38.949   7.100
 3793POPC   C4B50446  24.735  39.236   7.460
 3794POPC   NC350447  20.610   6.165   5.454
 3794POPC   PO450448  20.871   5.555   5.369
 3794POPC   GL150449  20.742   5.726   5.746
 3794POPC   GL250450  20.980   5.953   5.743
 3794POPC   C1A50451  20.610   5.805   6.163
 3794POPC   D2A50452  20.422   5.883   6.517
 3794POPC   C3A50453  20.633   5.802   6.861
 3794POPC   C4A50454  20.529   5.781   7.256
 3794POPC   C1B50455  20.940   6.169   6.099
 3794POPC   C2B50456  20.738   6.269   6.486
 3794POPC   C3B50457  20.843   6.266   6.891
 3794POPC   C4B50458  20.958   6.036   7.218
 3795POPC   NC350459  20.124  33.415   5.501
 3795POPC   PO450460  19.695  32.854   5.416
 3795POPC   GL150461  19.887  32.996   5.756
 3795POPC   GL250462  19.681  33.269   5.856
 3795POPC   C1A50463  19.952  32.820   6.146
 3795POPC   D2A50464  19.791  32.947   6.540
 3795POPC   C3A50465  19.851  32.739   6.940
 3795POPC   C4A50466  19.601  32.884   7.303
 3795POPC   C1B50467  20.038  33.323   6.165
 3795POPC   C2B50468  20.038  33.401   6.621
 3795POPC   C3B50469  19.754  33.240   6.975
 3795POPC   C4B50470  19.797  33.342   7.442
 3796POPC   NC350471  26.729  12.600   5.326
 3796POPC   PO450472  26.740  13.344   5.411
 3796POPC   GL150473  26.945  12.995   5.628
 3796POPC   GL250474  26.677  12.847   5.778
 3796POPC   C1A50475  27.208  12.838   5.984
 3796POPC   D2A50476  27.074  12.713   6.394
 3796POPC   C3A50477  27.143  12.842   6.853
 3796POPC   C4A50478  27.115  12.697   7.285
 3796POPC   C1B50479  26.543  12.740   6.181
 3796POPC   C2B50480  26.630  12.818   6.605
 3796POPC   C3B50481  26.668  12.920   7.053
 3796POPC   C4B50482  26.635  12.610   7.386
 3797POPC   NC350483   2.476  40.893   5.412
 3797POPC   PO450484   2.901  40.381   5.436
 3797POPC   GL150485   2.846  40.694   5.751
 3797POPC   GL250486   2.521  40.599   5.857
 3797POPC   C1A50487   2.896  40.701   6.226
 3797POPC   D2A50488   2.958  40.995   6.584
 3797POPC   C3A50489   2.959  40.960   7.051
 3797POPC   C4A50490   3.135  40.678   7.359
 3797POPC   C1B50491   2.490  40.984   6.060
 3797POPC   C2B50492   2.429  41.039   6.497
 3797POPC   C3B50493   2.455  40.934   6.934
 3797POPC   C4B50494   2.617  40.613   7.229
 3798POPC   NC350495   7.910  39.808   5.424
 3798POPC   PO450496   8.441  40.270   5.517
 3798POPC   GL150497   8.087  40.204   5.775
 3798POPC   GL250498   8.065  39.863   5.892
 3798POPC   C1A50499   7.973  40.384   6.179
 3798POPC   D2A50500   7.938  40.217   6.603
 3798POPC   C3A50501   8.305  40.311   6.867
 3798POPC   C4A50502   8.421  40.163   7.285
 3798POPC   C1B50503   8.163  39.767   6.302
 3798POPC   C2B50504   8.366  39.831   6.691
 3798POPC   C3B50505   8.098  39.861   7.034
 3798POPC   C4B50506   8.168  39.711   7.436
 3799POPC   NC350507  30.896  41.309   5.431
 3799POPC   PO450508  30.618  40.666   5.480
 3799POPC   GL150509  30.762  40.955   5.759
 3799POPC   GL250510  30.555  41.273   5.805
 3799POPC   C1A50511  30.929  40.907   6.144
 3799POPC   D2A50512  30.714  40.790   6.529
 3799POPC   C3A50513  30.896  40.959   6.886
 3799POPC   C4A50514  31.000  40.873   7.308
 3799POPC   C1B50515  30.434  41.033   6.151
 3799POPC   C2B50516  30.275  41.069   6.550
 3799POPC   C3B50517  30.374  40.861   6.941
 3799POPC   C4B50518  30.550  41.071   7.280
 3800POPC   NC350519  42.639  23.898   5.414
 3800POPC   PO450520  42.260  24.519   5.238
 3800POPC   GL150521  42.230  24.483   5.676
 3800POPC   GL250522  42.010  24.710   5.841
 3800POPC   C1A50523  42.421  24.478   6.098
 3800POPC   D2A50524  42.318  24.619   6.519
 3800POPC   C3A50525  42.568  24.473   6.865
 3800POPC   C4A50526  42.554  24.609   7.280
 3800POPC   C1B50527  41.944  24.324   6.076
 3800POPC   C2B50528  42.040  24.196   6.486
 3800POPC   C3B50529  42.018  24.398   6.899
 3800POPC   C4B50530  42.041  24.299   7.322
 3801POPC   NC350531  16.205  27.706   5.475
 3801POPC   PO450532  16.700  27.380   5.617
 3801POPC   GL150533  16.645  27.767   5.866
 3801POPC   GL250534  16.304  27.943   5.922
 3801POPC   C1A50535  16.860  27.692   6.250
 3801POPC   D2A50536  16.921  27.345   6.519
 3801POPC   C3A50537  16.919  27.406   6.978
 3801POPC   C4A50538  17.118  27.287   7.395
 3801POPC   C1B50539  16.365  27.615   6.261
 3801POPC   C2B50540  16.559  27.681   6.667
 3801POPC   C3B50541  16.433  27.608   7.057
 3801POPC   C4B50542  16.313  27.657   7.451
 3802POPC   NC350543  22.652   2.573   5.566
 3802POPC   PO450544  22.445   3.203   5.555
 3802POPC   GL150545  22.668   2.936   5.915
 3802POPC   GL250546  23.007   2.775   5.862
 3802POPC   C1A50547  22.833   2.832   6.352
 3802POPC   D2A50548  22.925   2.910   6.801
 3802POPC   C3A50549  22.688   2.851   7.206
 3802POPC   C4A50550  22.821   3.028   7.619
 3802POPC   C1B50551  23.318   2.546   6.107
 3802POPC   C2B50552  23.296   2.397   6.511
 3802POPC   C3B50553  23.291   2.578   6.925
 3802POPC   C4B50554  23.195   2.781   7.330
 3803POPC   NC350555  25.254  24.325   5.507
 3803POPC   PO450556  25.353  23.660   5.383
 3803POPC   GL150557  25.314  23.868   5.767
 3803POPC   GL250558  25.563  23.709   5.919
 3803POPC   C1A50559  25.073  23.806   6.143
 3803POPC   D2A50560  25.006  23.636   6.557
 3803POPC   C3A50561  24.856  23.934   6.846
 3803POPC   C4A50562  25.079  23.949   7.232
 3803POPC   C1B50563  25.538  23.663   6.346
 3803POPC   C2B50564  25.680  23.476   6.703
 3803POPC   C3B50565  25.373  23.510   6.992
 3803POPC   C4B50566  25.421  23.585   7.394
 3804POPC   NC350567   9.885  21.729   5.333
 3804POPC   PO450568   9.426  21.273   5.198
 3804POPC   GL150569   9.588  21.323   5.672
 3804POPC   GL250570   9.449  21.069   5.920
 3804POPC   C1A50571   9.784  21.400   6.117
 3804POPC   D2A50572   9.935  21.172   6.493
 3804POPC   C3A50573   9.757  21.151   6.893
 3804POPC   C4A50574   9.828  21.340   7.287
 3804POPC   C1B50575   9.504  20.977   6.331
 3804POPC   C2B50576   9.301  20.974   6.737
 3804POPC   C3B50577   9.370  21.031   7.219
 3804POPC   C4B50578   9.570  21.121   7.657
 3805POPC   NC350579  27.199  25.358   5.442
 3805POPC   PO450580  26.549  25.075   5.154
 3805POPC   GL150581  26.606  25.153   5.635
 3805POPC   GL250582  26.926  25.033   5.808
 3805POPC   C1A50583  26.604  25.402   6.043
 3805POPC   D2A50584  26.673  25.495   6.517
 3805POPC   C3A50585  26.422  25.409   6.909
 3805POPC   C4A50586  26.619  25.407   7.333
 3805POPC   C1B50587  26.927  25.082   6.281
 3805POPC   C2B50588  26.997  25.072   6.733
 3805POPC   C3B50589  27.058  25.211   7.171
 3805POPC   C4B50590  26.991  25.141   7.621
 3806POPC   NC350591   6.345  43.715   5.681
 3806POPC   PO450592   6.907  43.902   5.411
 3806POPC   GL150593   6.857  43.808   5.827
 3806POPC   GL250594   6.853  43.464   5.790
 3806POPC   C1A50595   6.740  43.870   6.252
 3806POPC   D2A50596   6.829  43.973   6.656
 3806POPC   C3A50597   6.481  44.016   6.921
 3806POPC   C4A50598   6.783  44.014   7.274
 3806POPC   C1B50599   6.646  43.388   6.192
 3806POPC   C2B50600   6.484  43.574   6.592
 3806POPC   C3B50601   6.681  43.569   6.976
 3806POPC   C4B50602   6.542  43.590   7.370
 3807POPC   NC350603  19.465  26.895   5.405
 3807POPC   PO450604  20.023  26.628   5.520
 3807POPC   GL150605  19.716  26.738   5.816
 3807POPC   GL250606  19.396  26.518   5.740
 3807POPC   C1A50607  19.734  26.917   6.240
 3807POPC   D2A50608  19.983  26.808   6.612
 3807POPC   C3A50609  19.762  26.846   6.987
 3807POPC   C4A50610  19.908  26.931   7.409
 3807POPC   C1B50611  19.529  26.439   6.159
 3807POPC   C2B50612  19.466  26.606   6.567
 3807POPC   C3B50613  19.534  26.372   6.916
 3807POPC   C4B50614  19.741  26.438   7.284
 3808POPC   NC350615  35.425  43.556   5.374
 3808POPC   PO450616  35.308  44.183   5.433
 3808POPC   GL150617  35.099  44.130   5.879
 3808POPC   GL250618  35.278  43.823   5.986
 3808POPC   C1A50619  35.172  44.143   6.353
 3808POPC   D2A50620  35.471  43.912   6.614
 3808POPC   C3A50621  35.335  43.901   7.048
 3808POPC   C4A50622  34.941  44.071   7.166
 3808POPC   C1B50623  35.643  44.106   6.163
 3808POPC   C2B50624  35.929  44.123   6.544
 3808POPC   C3B50625  35.841  43.989   6.978
 3808POPC   C4B50626  35.881  44.225   7.349
 3809POPC   NC350627  19.167   9.283   5.516
 3809POPC   PO450628  18.760   9.794   5.338
 3809POPC   GL150629  19.059   9.829   5.733
 3809POPC   GL250630  19.224   9.578   5.981
 3809POPC   C1A50631  19.058  10.002   6.164
 3809POPC   D2A50632  19.115   9.724   6.521
 3809POPC   C3A50633  19.001   9.851   6.932
 3809POPC   C4A50634  19.005   9.604   7.276
 3809POPC   C1B50635  19.484   9.395   6.327
 3809POPC   C2B50636  19.384   9.244   6.722
 3809POPC   C3B50637  19.419   9.339   7.132
 3809POPC   C4B50638  19.539   9.435   7.528
 3810POPC   NC350639  39.679  28.172   5.545
 3810POPC   PO450640  40.184  28.631   5.472
 3810POPC   GL150641  40.129  28.383   5.803
 3810POPC   GL250642  40.453  28.469   5.918
 3810POPC   C1A50643  40.008  28.210   6.198
 3810POPC   D2A50644  40.052  28.237   6.650
 3810POPC   C3A50645  39.825  27.983   6.935
 3810POPC   C4A50646  39.822  28.062   7.375
 3810POPC   C1B50647  40.452  28.442   6.365
 3810POPC   C2B50648  40.552  28.199   6.742
 3810POPC   C3B50649  40.289  28.122   7.115
 3810POPC   C4B50650  40.067  28.516   7.240
 3811POPC   NC350651   4.100   7.385   5.396
 3811POPC   PO450652   4.703   7.628   5.210
 3811POPC   GL150653   4.562   7.499   5.668
 3811POPC   GL250654   4.280   7.666   5.813
 3811POPC   C1A50655   4.548   7.244   6.082
 3811POPC   D2A50656   4.369   7.057   6.477
 3811POPC   C3A50657   4.463   7.258   6.857
 3811POPC   C4A50658   4.451   7.455   7.232
 3811POPC   C1B50659   4.305   7.685   6.262
 3811POPC   C2B50660   4.077   7.478   6.591
 3811POPC   C3B50661   3.990   7.390   7.015
 3811POPC   C4B50662   3.999   7.652   7.396
 3812POPC   NC350663  19.389  20.845   5.342
 3812POPC   PO450664  19.840  20.411   5.262
 3812POPC   GL150665  19.695  20.578   5.715
 3812POPC   GL250666  19.429  20.851   5.842
 3812POPC   C1A50667  19.741  20.380   6.156
 3812POPC   D2A50668  19.659  20.532   6.593
 3812POPC   C3A50669  19.890  20.423   7.002
 3812POPC   C4A50670  19.898  20.321   7.463
 3812POPC   C1B50671  19.742  20.897   6.164
 3812POPC   C2B50672  19.829  21.032   6.587
 3812POPC   C3B50673  19.592  20.900   6.958
 3812POPC   C4B50674  19.522  20.643   7.323
 3813POPC   NC350675   4.716   5.834   5.375
 3813POPC   PO450676   5.340   6.036   5.449
 3813POPC   GL150677   5.054   5.909   5.764
 3813POPC   GL250678   5.127   5.566   5.768
 3813POPC   C1A50679   4.924   5.770   6.184
 3813POPC   D2A50680   5.170   5.823   6.554
 3813POPC   C3A50681   4.929   5.788   6.909
 3813POPC   C4A50682   5.078   5.929   7.285
 3813POPC   C1B50683   5.398   5.541   6.150
 3813POPC   C2B50684   5.390   5.359   6.586
 3813POPC   C3B50685   5.418   5.537   6.993
 3813POPC   C4B50686   5.261   5.442   7.388
 3814POPC   NC350687  20.114  43.977   4.990
 3814POPC   PO450688  20.652  43.662   5.340
 3814POPC   GL150689  20.662  43.734   5.785
 3814POPC   GL250690  20.974  43.578   5.820
 3814POPC   C1A50691  20.439  43.883   6.182
 3814POPC   D2A50692  20.201  43.903   6.589
 3814POPC   C3A50693  20.400  44.087   6.950
 3814POPC   C4A50694  20.242  44.067   7.361
 3814POPC   C1B50695  20.871  43.624   6.270
 3814POPC   C2B50696  20.675  43.721   6.682
 3814POPC   C3B50697  20.696  43.642   7.134
 3814POPC   C4B50698  20.949  43.586   7.537
 3815POPC   NC350699  37.602   1.402   5.102
 3815POPC   PO450700  37.866   1.131   5.631
 3815POPC   GL150701  37.522   1.121   5.862
 3815POPC   GL250702  37.571   0.788   5.898
 3815POPC   C1A50703  37.538   1.165   6.314
 3815POPC   D2A50704  37.917   1.334   6.543
 3815POPC   C3A50705  37.767   1.500   6.927
 3815POPC   C4A50706  37.484   1.364   7.266
 3815POPC   C1B50707  37.941   0.849   6.192
 3815POPC   C2B50708  37.841   0.837   6.584
 3815POPC   C3B50709  37.669   0.986   6.927
 3815POPC   C4B50710  37.932   0.861   7.239
 3816POPC   NC350711   8.031  13.986   5.508
 3816POPC   PO450712   8.279  13.405   5.360
 3816POPC   GL150713   8.183  13.541   5.755
 3816POPC   GL250714   8.499  13.522   5.884
 3816POPC   C1A50715   8.043  13.695   6.172
 3816POPC   D2A50716   7.808  13.734   6.574
 3816POPC   C3A50717   7.931  13.871   6.990
 3816POPC   C4A50718   7.906  13.648   7.372
 3816POPC   C1B50719   8.535  13.702   6.304
 3816POPC   C2B50720   8.419  13.727   6.749
 3816POPC   C3B50721   8.400  13.753   7.199
 3816POPC   C4B50722   8.304  13.885   7.619
 3817POPC   NC350723  33.009  15.518   5.239
 3817POPC   PO450724  32.812  14.872   5.415
 3817POPC   GL150725  32.873  15.224   5.747
 3817POPC   GL250726  33.176  15.315   5.816
 3817POPC   C1A50727  32.865  15.308   6.236
 3817POPC   D2A50728  32.764  15.155   6.685
 3817POPC   C3A50729  32.987  15.347   7.038
 3817POPC   C4A50730  33.393  15.121   7.171
 3817POPC   C1B50731  33.328  15.558   6.187
 3817POPC   C2B50732  33.192  15.642   6.630
 3817POPC   C3B50733  33.392  15.661   7.054
 3817POPC   C4B50734  33.274  15.520   7.472
 3818POPC   NC350735  31.581  14.704   5.226
 3818POPC   PO450736  31.240  14.953   5.773
 3818POPC   GL150737  31.376  14.463   5.860
 3818POPC   GL250738  31.525  14.125   5.790
 3818POPC   C1A50739  31.596  14.366   6.234
 3818POPC   D2A50740  31.427  14.450   6.643
 3818POPC   C3A50741  31.615  14.330   7.004
 3818POPC   C4A50742  31.680  14.617   7.328
 3818POPC   C1B50743  31.239  13.987   6.148
 3818POPC   C2B50744  31.060  13.872   6.552
 3818POPC   C3B50745  31.201  13.992   6.949
 3818POPC   C4B50746  31.141  14.356   7.193
 3819POPC   NC350747  12.035  39.759   5.419
 3819POPC   PO450748  11.814  40.409   5.430
 3819POPC   GL150749  11.955  40.269   5.843
 3819POPC   GL250750  12.127  39.934   5.873
 3819POPC   C1A50751  12.038  40.185   6.287
 3819POPC   D2A50752  11.860  39.887   6.590
 3819POPC   C3A50753  12.124  39.992   6.848
 3819POPC   C4A50754  12.028  40.230   7.192
 3819POPC   C1B50755  12.123  39.664   6.221
 3819POPC   C2B50756  12.386  39.542   6.587
 3819POPC   C3B50757  12.251  39.469   6.980
 3819POPC   C4B50758  11.935  39.703   7.206
 3820POPC   NC350759   7.004   7.826   5.460
 3820POPC   PO450760   7.413   8.464   5.432
 3820POPC   GL150761   7.284   8.185   5.728
 3820POPC   GL250762   6.945   8.308   5.659
 3820POPC   C1A50763   7.439   7.982   6.112
 3820POPC   D2A50764   7.738   7.962   6.474
 3820POPC   C3A50765   7.554   7.910   6.887
 3820POPC   C4A50766   7.698   7.956   7.307
 3820POPC   C1B50767   6.945   8.301   6.110
 3820POPC   C2B50768   7.102   8.092   6.475
 3820POPC   C3B50769   7.194   8.262   6.854
 3820POPC   C4B50770   7.240   8.122   7.250
 3821POPC   NC350771  14.786  20.551   5.363
 3821POPC   PO450772  14.195  20.818   5.416
 3821POPC   GL150773  14.331  20.483   5.733
 3821POPC   GL250774  14.696  20.474   5.870
 3821POPC   C1A50775  14.266  20.459   6.196
 3821POPC   D2A50776  14.191  20.685   6.604
 3821POPC   C3A50777  14.115  20.451   6.998
 3821POPC   C4A50778  14.275  20.472   7.419
 3821POPC   C1B50779  14.716  20.712   6.268
 3821POPC   C2B50780  14.686  20.833   6.728
 3821POPC   C3B50781  14.731  20.784   7.197
 3821POPC   C4B50782  14.940  21.000   7.580
 3822POPC   NC350783  34.225  36.963   5.568
 3822POPC   PO450784  34.407  36.401   5.432
 3822POPC   GL150785  34.626  36.529   5.827
 3822POPC   GL250786  34.521  36.862   5.972
 3822POPC   C1A50787  34.498  36.449   6.265
 3822POPC   D2A50788  34.339  36.705   6.599
 3822POPC   C3A50789  34.396  36.660   7.041
 3822POPC   C4A50790  34.664  36.576   7.369
 3822POPC   C1B50791  34.456  37.123   6.343
 3822POPC   C2B50792  34.620  37.100   6.779
 3822POPC   C3B50793  34.859  36.989   7.135
 3822POPC   C4B50794  34.993  36.882   7.579
 3823POPC   NC350795  23.904  13.061   5.285
 3823POPC   PO450796  23.688  12.398   5.508
 3823POPC   GL150797  23.730  12.708   5.864
 3823POPC   GL250798  23.557  13.062   5.800
 3823POPC   C1A50799  23.526  12.814   6.274
 3823POPC   D2A50800  23.293  12.550   6.591
 3823POPC   C3A50801  23.602  12.520   6.904
 3823POPC   C4A50802  23.683  12.881   7.108
 3823POPC   C1B50803  23.248  13.235   6.129
 3823POPC   C2B50804  23.334  13.385   6.583
 3823POPC   C3B50805  23.211  13.259   7.008
 3823POPC   C4B50806  23.364  13.146   7.407
 3824POPC   NC350807   1.355   7.495   5.361
 3824POPC   PO450808   0.968   7.031   5.569
 3824POPC   GL150809   1.240   7.295   5.826
 3824POPC   GL250810   1.479   7.612   5.821
 3824POPC   C1A50811   1.164   7.300   6.258
 3824POPC   D2A50812   1.089   7.070   6.654
 3824POPC   C3A50813   1.091   7.358   6.994
 3824POPC   C4A50814   0.978   7.806   7.049
 3824POPC   C1B50815   1.510   7.700   6.238
 3824POPC   C2B50816   1.248   7.690   6.594
 3824POPC   C3B50817   1.478   7.698   6.940
 3824POPC   C4B50818   1.392   7.632   7.338
 3825POPC   NC350819  37.806   2.414   5.417
 3825POPC   PO450820  37.660   1.767   5.393
 3825POPC   GL150821  37.516   1.897   5.791
 3825POPC   GL250822  37.365   1.616   5.978
 3825POPC   C1A50823  37.514   2.095   6.209
 3825POPC   D2A50824  37.492   1.909   6.655
 3825POPC   C3A50825  37.613   2.234   6.953
 3825POPC   C4A50826  37.532   2.359   7.382
 3825POPC   C1B50827  37.804   1.684   6.182
 3825POPC   C2B50828  37.988   1.980   6.522
 3825POPC   C3B50829  38.024   1.940   6.986
 3825POPC   C4B50830  37.644   1.855   7.275
 3826POPC   NC350831  44.831   4.760   5.445
 3826POPC   PO450832  44.586   4.101   5.352
 3826POPC   GL150833  44.590   4.366   5.711
 3826POPC   GL250834  44.388   4.665   5.706
 3826POPC   C1A50835  44.789   4.312   6.132
 3826POPC   D2A50836  44.831   4.094   6.538
 3826POPC   C3A50837  44.657   4.315   6.893
 3826POPC   C4A50838  44.383   4.170   7.221
 3826POPC   C1B50839  44.619   4.781   6.072
 3826POPC   C2B50840  44.620   4.693   6.497
 3826POPC   C3B50841  44.321   4.720   6.817
 3826POPC   C4B50842  44.393   4.685   7.229
 3827POPC   NC350843  44.632  18.585   5.387
 3827POPC   PO450844  44.411  17.898   5.235
 3827POPC   GL150845  44.605  18.132   5.658
 3827POPC   GL250846  44.546  18.453   5.884
 3827POPC   C1A50847  44.936  18.107   6.017
 3827POPC   D2A50848  44.880  18.382   6.409
 3827POPC   C3A50849  44.940  18.311   6.847
 3827POPC   C4A50850  44.787  18.473   7.246
 3827POPC   C1B50851  44.470  18.111   6.213
 3827POPC   C2B50852  44.436  18.092   6.662
 3827POPC   C3B50853  44.514  18.073   7.107
 3827POPC   C4B50854  44.370  17.968   7.547
 3828POPC   NC350855  30.910   0.939   5.359
 3828POPC   PO450856  30.885   1.627   5.479
 3828POPC   GL150857  30.908   1.338   5.744
 3828POPC   GL250858  30.594   1.256   5.702
 3828POPC   C1A50859  30.901   1.067   6.110
 3828POPC   D2A50860  30.989   1.073   6.568
 3828POPC   C3A50861  30.602   1.057   6.833
 3828POPC   C4A50862  30.553   0.892   7.254
 3828POPC   C1B50863  30.541   1.436   6.134
 3828POPC   C2B50864  30.730   1.511   6.558
 3828POPC   C3B50865  30.595   1.596   6.964
 3828POPC   C4B50866  30.321   1.342   7.191
 3829POPC   NC350867   2.069  27.834   5.458
 3829POPC   PO450868   2.369  27.173   5.364
 3829POPC   GL150869   2.293  27.337   5.778
 3829POPC   GL250870   1.980  27.518   5.851
 3829POPC   C1A50871   2.263  27.407   6.236
 3829POPC   D2A50872   2.144  27.827   6.438
 3829POPC   C3A50873   2.252  27.876   6.868
 3829POPC   C4A50874   2.266  27.702   7.278
 3829POPC   C1B50875   1.755  27.519   6.239
 3829POPC   C2B50876   1.722  27.353   6.671
 3829POPC   C3B50877   1.837  27.588   7.034
 3829POPC   C4B50878   1.666  27.671   7.455
 3830POPC   NC350879  28.606  16.740   5.716
 3830POPC   PO450880  28.216  16.289   5.413
 3830POPC   GL150881  28.129  16.490   5.816
 3830POPC   GL250882  28.064  16.853   5.857
 3830POPC   C1A50883  28.231  16.546   6.270
 3830POPC   D2A50884  28.117  16.676   6.709
 3830POPC   C3A50885  28.491  16.849   6.947
 3830POPC   C4A50886  28.751  16.769   7.292
 3830POPC   C1B50887  27.949  17.075   6.228
 3830POPC   C2B50888  27.919  17.166   6.684
 3830POPC   C3B50889  28.042  17.053   7.108
 3830POPC   C4B50890  28.260  16.851   7.449
 3831POPC   NC350891  14.495  11.647   5.471
 3831POPC   PO450892  14.263  11.060   5.277
 3831POPC   GL150893  14.374  10.999   5.768
 3831POPC   GL250894  14.489  11.312   5.856
 3831POPC   C1A50895  14.375  11.010   6.257
 3831POPC   D2A50896  14.182  11.191   6.651
 3831POPC   C3A50897  14.400  11.074   7.037
 3831POPC   C4A50898  14.363  11.070   7.504
 3831POPC   C1B50899  14.431  11.517   6.266
 3831POPC   C2B50900  14.629  11.438   6.671
 3831POPC   C3B50901  14.565  11.546   7.126
 3831POPC   C4B50902  14.569  11.514   7.579
 3832POPC   NC350903   3.848  22.480   5.108
 3832POPC   PO450904   3.373  22.005   5.267
 3832POPC   GL150905   3.531  22.218   5.670
 3832POPC   GL250906   3.334  22.541   5.728
 3832POPC   C1A50907   3.445  22.070   6.129
 3832POPC   D2A50908   3.298  21.910   6.554
 3832POPC   C3A50909   3.622  21.996   6.887
 3832POPC   C4A50910   3.815  22.341   7.114
 3832POPC   C1B50911   3.276  22.577   6.148
 3832POPC   C2B50912   3.472  22.404   6.532
 3832POPC   C3B50913   3.339  22.411   6.946
 3832POPC   C4B50914   3.088  22.612   7.212
 3833POPC   NC350915  41.495  40.100   4.982
 3833POPC   PO450916  41.724  40.441   5.466
 3833POPC   GL150917  41.691  40.009   5.723
 3833POPC   GL250918  41.475  39.711   5.785
 3833POPC   C1A50919  41.787  39.908   6.170
 3833POPC   D2A50920  41.775  40.187   6.503
 3833POPC   C3A50921  41.693  40.000   6.887
 3833POPC   C4A50922  41.532  40.192   7.209
 3833POPC   C1B50923  41.325  39.688   6.223
 3833POPC   C2B50924  41.247  39.883   6.635
 3833POPC   C3B50925  41.284  39.749   7.072
 3833POPC   C4B50926  41.660  39.725   7.349
 3834POPC   NC350927  37.006   9.960   5.261
 3834POPC   PO450928  36.709  10.678   5.436
 3834POPC   GL150929  36.832  10.567   5.834
 3834POPC   GL250930  37.098  10.356   5.945
 3834POPC   C1A50931  36.732  10.417   6.244
 3834POPC   D2A50932  36.566  10.444   6.606
 3834POPC   C3A50933  36.845  10.478   6.893
 3834POPC   C4A50934  36.854  10.696   7.273
 3834POPC   C1B50935  37.184  10.730   6.169
 3834POPC   C2B50936  37.085  10.827   6.588
 3834POPC   C3B50937  37.274  10.757   7.000
 3834POPC   C4B50938  37.322  10.521   7.396
 3835POPC   NC350939  20.602  21.916   5.595
 3835POPC   PO450940  20.483  22.245   5.062
 3835POPC   GL150941  20.394  22.404   5.583
 3835POPC   GL250942  20.210  22.234   5.842
 3835POPC   C1A50943  20.543  22.517   6.079
 3835POPC   D2A50944  20.606  22.281   6.506
 3835POPC   C3A50945  20.730  22.371   6.957
 3835POPC   C4A50946  20.579  22.389   7.393
 3835POPC   C1B50947  20.141  22.223   6.290
 3835POPC   C2B50948  20.231  21.985   6.671
 3835POPC   C3B50949  20.316  22.056   7.114
 3835POPC   C4B50950  20.194  22.033   7.562
 3836POPC   NC350951   7.104  39.647   5.532
 3836POPC   PO450952   7.615  39.246   5.366
 3836POPC   GL150953   7.457  39.303   5.763
 3836POPC   GL250954   7.586  39.623   5.801
 3836POPC   C1A50955   7.272  39.222   6.180
 3836POPC   D2A50956   7.239  38.994   6.571
 3836POPC   C3A50957   7.184  39.117   6.975
 3836POPC   C4A50958   7.446  39.262   7.280
 3836POPC   C1B50959   7.755  39.435   6.181
 3836POPC   C2B50960   7.602  39.348   6.589
 3836POPC   C3B50961   7.737  39.514   6.956
 3836POPC   C4B50962   7.665  39.717   7.360
 3837POPC   NC350963   9.356  39.645   5.335
 3837POPC   PO450964   9.924  40.040   5.250
 3837POPC   GL150965   9.886  40.102   5.718
 3837POPC   GL250966   9.530  40.170   5.723
 3837POPC   C1A50967   9.768  39.951   6.145
 3837POPC   D2A50968   9.764  39.830   6.582
 3837POPC   C3A50969   9.937  39.972   6.981
 3837POPC   C4A50970   9.631  39.822   7.278
 3837POPC   C1B50971   9.497  40.416   6.093
 3837POPC   C2B50972   9.579  40.303   6.509
 3837POPC   C3B50973   9.464  40.168   6.922
 3837POPC   C4B50974   9.555  40.347   7.344
 3838POPC   NC350975   3.351  19.496   5.464
 3838POPC   PO450976   3.989  19.280   5.390
 3838POPC   GL150977   3.660  19.203   5.777
 3838POPC   GL250978   3.320  19.040   5.775
 3838POPC   C1A50979   3.571  19.285   6.265
 3838POPC   D2A50980   3.586  19.445   6.727
 3838POPC   C3A50981   3.597  19.192   7.145
 3838POPC   C4A50982   3.652  19.146   7.613
 3838POPC   C1B50983   3.525  18.800   6.161
 3838POPC   C2B50984   3.469  18.919   6.642
 3838POPC   C3B50985   3.278  18.792   7.072
 3838POPC   C4B50986   3.331  18.725   7.543
 3839POPC   NC350987  34.165   2.840   5.476
 3839POPC   PO450988  33.423   2.716   5.568
 3839POPC   GL150989  33.736   2.822   5.859
 3839POPC   GL250990  33.878   2.502   5.789
 3839POPC   C1A50991  33.840   2.800   6.319
 3839POPC   D2A50992  34.118   2.612   6.650
 3839POPC   C3A50993  34.127   2.923   6.972
 3839POPC   C4A50994  33.796   3.031   7.247
 3839POPC   C1B50995  33.660   2.361   6.124
 3839POPC   C2B50996  33.641   2.386   6.559
 3839POPC   C3B50997  33.650   2.668   6.891
 3839POPC   C4B50998  33.497   2.631   7.305
 3840POPC   NC350999  27.534   0.573   5.420
 3840POPC   PO451000  27.765  44.925   5.350
 3840POPC   GL151001  27.807   0.270   5.732
 3840POPC   GL251002  27.490   0.315   5.894
 3840POPC   C1A51003  27.874   0.518   6.162
 3840POPC   D2A51004  27.910   0.317   6.592
 3840POPC   C3A51005  27.864   0.577   6.957
 3840POPC   C4A51006  27.878   0.566   7.397
 3840POPC   C1B51007  27.428   0.361   6.355
 3840POPC   C2B51008  27.396   0.411   6.800
 3840POPC   C3B51009  27.436   0.391   7.215
 3840POPC   C4B51010  27.298   0.090   7.502
 3841POPC   NC351011  31.751  37.810   5.198
 3841POPC   PO451012  32.468  37.842   5.347
 3841POPC   GL151013  32.287  37.686   5.748
 3841POPC   GL251014  31.950  37.802   5.830
 3841POPC   C1A51015  32.234  37.544   6.191
 3841POPC   D2A51016  32.264  37.844   6.518
 3841POPC   C3A51017  32.444  37.819   6.937
 3841POPC   C4A51018  32.407  37.497   7.260
 3841POPC   C1B51019  31.801  37.961   6.215
 3841POPC   C2B51020  31.786  37.688   6.547
 3841POPC   C3B51021  32.033  37.499   6.869
 3841POPC   C4B51022  31.907  37.494   7.283
 3842POPC   NC351023  14.149   9.300   5.463
 3842POPC   PO451024  14.471   8.791   5.327
 3842POPC   GL151025  14.493   9.015   5.724
 3842POPC   GL251026  14.321   8.764   5.944
 3842POPC   C1A51027  14.494   9.217   6.136
 3842POPC   D2A51028  14.542   8.929   6.483
 3842POPC   C3A51029  14.589   8.988   6.924
 3842POPC   C4A51030  14.409   9.230   7.261
 3842POPC   C1B51031  14.074   8.880   6.326
 3842POPC   C2B51032  14.160   8.666   6.757
 3842POPC   C3B51033  14.292   8.694   7.228
 3842POPC   C4B51034  14.186   8.609   7.707
 3843POPC   NC351035  10.608  35.293   5.457
 3843POPC   PO451036  10.016  35.046   5.322
 3843POPC   GL151037  10.163  35.233   5.741
 3843POPC   GL251038  10.306  35.575   5.770
 3843POPC   C1A51039  10.156  35.183   6.224
 3843POPC   D2A51040  10.326  35.312   6.645
 3843POPC   C3A51041  10.352  35.091   7.057
 3843POPC   C4A51042  10.738  35.026   7.322
 3843POPC   C1B51043  10.432  35.616   6.212
 3843POPC   C2B51044  10.721  35.641   6.555
 3843POPC   C3B51045  10.676  35.588   7.002
 3843POPC   C4B51046  10.488  35.500   7.385
 3844POPC   NC351047   8.263   6.378   5.576
 3844POPC   PO451048   8.243   7.058   5.502
 3844POPC   GL151049   8.125   6.784   5.890
 3844POPC   GL251050   8.080   6.422   6.042
 3844POPC   C1A51051   8.203   6.802   6.337
 3844POPC   D2A51052   8.348   6.539   6.619
 3844POPC   C3A51053   8.257   6.770   6.970
 3844POPC   C4A51054   8.469   6.774   7.319
 3844POPC   C1B51055   7.771   6.485   6.369
 3844POPC   C2B51056   7.838   6.546   6.803
 3844POPC   C3B51057   8.016   6.335   7.160
 3844POPC   C4B51058   7.924   6.258   7.606
 3845POPC   NC351059  24.964   1.903   5.646
 3845POPC   PO451060  25.281   2.377   5.400
 3845POPC   GL151061  25.226   2.321   5.804
 3845POPC   GL251062  25.514   2.119   5.806
 3845POPC   C1A51063  25.164   2.131   6.222
 3845POPC   D2A51064  25.053   1.855   6.529
 3845POPC   C3A51065  25.092   2.046   6.902
 3845POPC   C4A51066  25.052   1.841   7.301
 3845POPC   C1B51067  25.669   2.225   6.209
 3845POPC   C2B51068  25.714   2.026   6.577
 3845POPC   C3B51069  25.578   2.019   7.011
 3845POPC   C4B51070  25.409   2.183   7.447
 3846POPC   NC351071  30.588  33.416   5.362
 3846POPC   PO451072  30.735  34.145   5.316
 3846POPC   GL151073  30.484  33.900   5.606
 3846POPC   GL251074  30.759  33.775   5.734
 3846POPC   C1A51075  30.368  33.693   6.015
 3846POPC   D2A51076  30.311  33.771   6.436
 3846POPC   C3A51077  30.552  33.837   6.800
 3846POPC   C4A51078  30.741  33.835   7.197
 3846POPC   C1B51079  30.886  34.048   6.038
 3846POPC   C2B51080  30.828  34.112   6.473
 3846POPC   C3B51081  31.058  34.063   6.861
 3846POPC   C4B51082  31.181  34.047   7.302
 3847POPC   NC351083  42.747  21.170   5.326
 3847POPC   PO451084  42.343  21.779   5.343
 3847POPC   GL151085  42.232  21.515   5.749
 3847POPC   GL251086  42.068  21.191   5.789
 3847POPC   C1A51087  42.080  21.618   6.163
 3847POPC   D2A51088  42.335  21.616   6.545
 3847POPC   C3A51089  42.319  21.300   6.868
 3847POPC   C4A51090  42.352  21.539   7.247
 3847POPC   C1B51091  42.189  21.128   6.234
 3847POPC   C2B51092  41.931  21.067   6.609
 3847POPC   C3B51093  41.860  21.085   7.048
 3847POPC   C4B51094  42.072  21.117   7.404
 3848POPC   NC351095  30.082  10.298   5.269
 3848POPC   PO451096  29.771  10.875   5.388
 3848POPC   GL151097  30.002  10.601   5.685
 3848POPC   GL251098  29.810  10.265   5.693
 3848POPC   C1A51099  30.129  10.654   6.134
 3848POPC   D2A51100  29.887  10.715   6.539
 3848POPC   C3A51101  30.002  10.815   6.998
 3848POPC   C4A51102  29.669  10.948   7.299
 3848POPC   C1B51103  30.133  10.151   5.989
 3848POPC   C2B51104  30.179  10.215   6.437
 3848POPC   C3B51105  30.136  10.348   6.863
 3848POPC   C4B51106  29.876  10.329   7.242
 3849POPC   NC351107  25.936  10.675   5.349
 3849POPC   PO451108  25.825  10.000   5.300
 3849POPC   GL151109  25.865  10.286   5.725
 3849POPC   GL251110  26.180  10.488   5.837
 3849POPC   C1A51111  25.851  10.405   6.200
 3849POPC   D2A51112  26.094  10.606   6.554
 3849POPC   C3A51113  25.978  10.477   6.978
 3849POPC   C4A51114  26.090  10.296   7.391
 3849POPC   C1B51115  25.961  10.866   6.011
 3849POPC   C2B51116  25.811  11.016   6.404
 3849POPC   C3B51117  25.806  10.984   6.855
 3849POPC   C4B51118  26.009  10.890   7.243
 3850POPC   NC351119  24.325  14.597   5.542
 3850POPC   PO451120  24.561  13.998   5.516
 3850POPC   GL151121  24.455  14.211   5.869
 3850POPC   GL251122  24.676  14.501   5.902
 3850POPC   C1A51123  24.686  14.152   6.270
 3850POPC   D2A51124  24.901  14.275   6.629
 3850POPC   C3A51125  24.709  14.217   7.008
 3850POPC   C4A51126  24.316  14.123   7.132
 3850POPC   C1B51127  24.390  14.573   6.225
 3850POPC   C2B51128  24.426  14.515   6.653
 3850POPC   C3B51129  24.180  14.593   6.992
 3850POPC   C4B51130  24.282  14.633   7.408
 3851POPC   NC351131  32.452  19.443   5.451
 3851POPC   PO451132  32.295  20.113   5.347
 3851POPC   GL151133  32.088  19.950   5.733
 3851POPC   GL251134  32.011  20.240   5.926
 3851POPC   C1A51135  32.131  19.649   6.103
 3851POPC   D2A51136  32.315  19.715   6.528
 3851POPC   C3A51137  32.071  19.590   6.894
 3851POPC   C4A51138  32.271  19.614   7.277
 3851POPC   C1B51139  31.965  20.069   6.337
 3851POPC   C2B51140  32.030  20.094   6.781
 3851POPC   C3B51141  32.001  20.051   7.212
 3851POPC   C4B51142  31.782  20.113   7.601
 3852POPC   NC351143  34.380  12.624   5.445
 3852POPC   PO451144  34.918  12.922   5.393
 3852POPC   GL151145  34.791  12.756   5.831
 3852POPC   GL251146  34.461  12.695   5.926
 3852POPC   C1A51147  34.779  12.709   6.332
 3852POPC   D2A51148  34.601  12.936   6.722
 3852POPC   C3A51149  34.648  12.708   7.126
 3852POPC   C4A51150  34.744  12.836   7.570
 3852POPC   C1B51151  34.283  12.877   6.282
 3852POPC   C2B51152  34.147  12.718   6.671
 3852POPC   C3B51153  34.141  12.798   7.108
 3852POPC   C4B51154  34.269  12.683   7.540
 3853POPC   NC351155  38.872  12.489   5.661
 3853POPC   PO451156  38.767  11.794   5.614
 3853POPC   GL151157  39.017  12.048   5.873
 3853POPC   GL251158  39.326  12.257   5.911
 3853POPC   C1A51159  38.973  12.174   6.288
 3853POPC   D2A51160  39.215  11.929   6.572
 3853POPC   C3A51161  39.447  12.152   6.868
 3853POPC   C4A51162  39.117  12.200   7.136
 3853POPC   C1B51163  39.451  11.862   6.122
 3853POPC   C2B51164  39.627  11.612   6.479
 3853POPC   C3B51165  39.450  11.628   6.906
 3853POPC   C4B51166  39.492  11.848   7.319
 3854POPC   NC351167  19.594   3.151   5.461
 3854POPC   PO451168  20.037   3.703   5.511
 3854POPC   GL151169  19.747   3.539   5.800
 3854POPC   GL251170  19.924   3.232   5.833
 3854POPC   C1A51171  19.597   3.615   6.237
 3854POPC   D2A51172  19.489   3.430   6.647
 3854POPC   C3A51173  19.579   3.717   6.972
 3854POPC   C4A51174  19.396   3.802   7.364
 3854POPC   C1B51175  20.083   3.435   6.188
 3854POPC   C2B51176  20.005   3.516   6.600
 3854POPC   C3B51177  19.897   3.313   6.971
 3854POPC   C4B51178  19.865   3.547   7.374
 3855POPC   NC351179  11.221  13.853   5.447
 3855POPC   PO451180  11.360  13.292   5.553
 3855POPC   GL151181  11.486  13.654   5.859
 3855POPC   GL251182  11.339  14.001   5.912
 3855POPC   C1A51183  11.362  13.664   6.288
 3855POPC   D2A51184  11.436  13.464   6.674
 3855POPC   C3A51185  11.152  13.590   6.967
 3855POPC   C4A51186  11.275  13.365   7.310
 3855POPC   C1B51187  11.668  14.119   6.196
 3855POPC   C2B51188  11.628  13.974   6.596
 3855POPC   C3B51189  11.573  13.909   6.975
 3855POPC   C4B51190  11.388  13.861   7.326
 3856POPC   NC351191  12.625  14.028   5.322
 3856POPC   PO451192  12.515  13.393   5.127
 3856POPC   GL151193  12.675  13.483   5.581
 3856POPC   GL251194  12.942  13.721   5.672
 3856POPC   C1A51195  12.567  13.621   6.034
 3856POPC   D2A51196  12.699  13.793   6.459
 3856POPC   C3A51197  12.502  13.831   6.849
 3856POPC   C4A51198  12.594  13.515   7.114
 3856POPC   C1B51199  13.082  13.733   6.115
 3856POPC   C2B51200  13.233  13.573   6.542
 3856POPC   C3B51201  13.090  13.708   6.995
 3856POPC   C4B51202  13.199  13.775   7.492
 3857POPC   NC351203  27.305  20.820   5.314
 3857POPC   PO451204  27.977  20.782   5.349
 3857POPC   GL151205  27.651  20.667   5.689
 3857POPC   GL251206  27.691  20.288   5.726
 3857POPC   C1A51207  27.565  20.813   6.158
 3857POPC   D2A51208  27.744  20.670   6.592
 3857POPC   C3A51209  27.604  20.955   6.940
 3857POPC   C4A51210  27.251  20.939   7.208
 3857POPC   C1B51211  27.727  20.338   6.170
 3857POPC   C2B51212  27.947  20.141   6.528
 3857POPC   C3B51213  27.866  20.158   6.949
 3857POPC   C4B51214  27.572  20.468   7.110
 3858POPC   NC351215   9.442  30.395   5.532
 3858POPC   PO451216   9.983  30.031   5.359
 3858POPC   GL151217   9.920  29.960   5.820
 3858POPC   GL251218   9.717  30.246   5.930
 3858POPC   C1A51219   9.755  29.813   6.236
 3858POPC   D2A51220   9.420  29.894   6.545
 3858POPC   C3A51221   9.533  29.790   6.960
 3858POPC   C4A51222   9.864  29.578   7.130
 3858POPC   C1B51223  10.032  30.243   6.245
 3858POPC   C2B51224  10.155  30.048   6.626
 3858POPC   C3B51225   9.992  30.136   7.001
 3858POPC   C4B51226   9.615  30.297   7.110
 3859POPC   NC351227  34.202  24.579   5.408
 3859POPC   PO451228  34.800  24.267   5.581
 3859POPC   GL151229  34.529  24.576   5.804
 3859POPC   GL251230  34.340  24.322   5.850
 3859POPC   C1A51231  34.575  24.849   6.154
 3859POPC   D2A51232  34.886  24.879   6.476
 3859POPC   C3A51233  34.725  24.626   6.835
 3859POPC   C4A51234  34.349  24.628   7.115
 3859POPC   C1B51235  34.547  24.263   6.251
 3859POPC   C2B51236  34.339  24.248   6.657
 3859POPC   C3B51237  34.480  24.134   7.055
 3859POPC   C4B51238  34.842  24.197   7.288
 3860POPC   NC351239  21.968   3.203   5.505
 3860POPC   PO451240  22.222   3.820   5.454
 3860POPC   GL151241  22.118   3.541   5.857
 3860POPC   GL251242  21.759   3.356   5.940
 3860POPC   C1A51243  22.050   3.621   6.312
 3860POPC   D2A51244  22.282   3.563   6.702
 3860POPC   C3A51245  22.116   3.657   7.098
 3860POPC   C4A51246  22.135   3.558   7.542
 3860POPC   C1B51247  21.893   3.134   6.316
 3860POPC   C2B51248  21.901   3.237   6.753
 3860POPC   C3B51249  21.780   3.279   7.182
 3860POPC   C4B51250  21.836   3.148   7.596
 3861POPC   NC351251  23.394  11.292   5.184
 3861POPC   PO451252  23.738  10.904   5.629
 3861POPC   GL151253  23.693  11.307   5.832
 3861POPC   GL251254  23.441  11.518   5.692
 3861POPC   C1A51255  23.885  11.428   6.216
 3861POPC   D2A51256  23.731  11.390   6.631
 3861POPC   C3A51257  23.963  11.550   6.983
 3861POPC   C4A51258  24.050  11.404   7.355
 3861POPC   C1B51259  23.320  11.525   6.121
 3861POPC   C2B51260  23.248  11.676   6.554
 3861POPC   C3B51261  23.459  11.671   6.965
 3861POPC   C4B51262  23.584  11.257   7.173
 3862POPC   NC351263  20.968  26.175   5.256
 3862POPC   PO451264  20.430  25.739   5.520
 3862POPC   GL151265  20.397  25.993   5.857
 3862POPC   GL251266  20.686  25.912   5.962
 3862POPC   C1A51267  20.426  26.201   6.279
 3862POPC   D2A51268  20.308  26.006   6.665
 3862POPC   C3A51269  20.517  26.199   7.045
 3862POPC   C4A51270  20.563  26.154   7.482
 3862POPC   C1B51271  20.942  25.691   6.244
 3862POPC   C2B51272  21.034  25.751   6.672
 3862POPC   C3B51273  20.773  25.761   7.046
 3862POPC   C4B51274  20.890  25.744   7.498
 3863POPC   NC351275  31.656   8.067   5.456
 3863POPC   PO451276  31.002   8.153   5.566
 3863POPC   GL151277  31.240   8.469   5.866
 3863POPC   GL251278  31.599   8.504   5.768
 3863POPC   C1A51279  31.273   8.651   6.327
 3863POPC   D2A51280  31.345   8.589   6.815
 3863POPC   C3A51281  31.325   8.252   7.181
 3863POPC   C4A51282  31.344   8.189   7.666
 3863POPC   C1B51283  31.780   8.535   6.216
 3863POPC   C2B51284  31.792   8.383   6.647
 3863POPC   C3B51285  31.785   8.440   7.091
 3863POPC   C4B51286  31.812   8.214   7.470
 3864POPC   NC351287  33.256  43.479   5.567
 3864POPC   PO451288  33.713  43.957   5.307
 3864POPC   GL151289  33.914  44.092   5.711
 3864POPC   GL251290  34.198  44.321   5.705
 3864POPC   C1A51291  33.838  43.987   6.133
 3864POPC   D2A51292  33.786  43.843   6.573
 3864POPC   C3A51293  33.997  43.603   6.894
 3864POPC   C4A51294  33.716  43.615   7.265
 3864POPC   C1B51295  34.186  44.360   6.161
 3864POPC   C2B51296  34.224  44.267   6.634
 3864POPC   C3B51297  33.934  44.157   6.997
 3864POPC   C4B51298  33.950  44.272   7.478
 3865POPC   NC351299  28.572  43.920   5.471
 3865POPC   PO451300  28.026  43.561   5.541
 3865POPC   GL151301  28.223  43.861   5.851
 3865POPC   GL251302  28.309  44.230   5.806
 3865POPC   C1A51303  28.163  43.838   6.294
 3865POPC   D2A51304  28.425  43.854   6.668
 3865POPC   C3A51305  28.327  43.828   7.101
 3865POPC   C4A51306  28.036  43.557   7.324
 3865POPC   C1B51307  28.516  44.192   6.182
 3865POPC   C2B51308  28.492  44.388   6.572
 3865POPC   C3B51309  28.572  44.304   6.965
 3865POPC   C4B51310  28.684  44.156   7.344
 3866POPC   NC351311   8.139  29.100   5.561
 3866POPC   PO451312   7.552  29.543   5.566
 3866POPC   GL151313   7.846  29.477   5.935
 3866POPC   GL251314   8.208  29.499   5.922
 3866POPC   C1A51315   8.010  29.336   6.378
 3866POPC   D2A51316   8.124  28.892   6.538
 3866POPC   C3A51317   8.027  28.875   6.987
 3866POPC   C4A51318   8.087  29.248   7.270
 3866POPC   C1B51319   8.495  29.261   6.219
 3866POPC   C2B51320   8.561  29.154   6.669
 3866POPC   C3B51321   8.593  29.277   7.114
 3866POPC   C4B51322   8.553  29.240   7.582
 3867POPC   NC351323  41.333  14.182   5.426
 3867POPC   PO451324  41.568  14.852   5.493
 3867POPC   GL151325  41.627  14.477   5.738
 3867POPC   GL251326  41.954  14.309   5.815
 3867POPC   C1A51327  41.512  14.301   6.117
 3867POPC   D2A51328  41.682  14.354   6.515
 3867POPC   C3A51329  41.726  14.040   6.776
 3867POPC   C4A51330  41.556  14.118   7.161
 3867POPC   C1B51331  41.924  14.653   6.171
 3867POPC   C2B51332  42.095  14.646   6.606
 3867POPC   C3B51333  41.840  14.549   6.993
 3867POPC   C4B51334  41.889  14.438   7.420
 3868POPC   NC351335  17.737  19.363   5.535
 3868POPC   PO451336  17.932  18.699   5.413
 3868POPC   GL151337  17.637  18.892   5.775
 3868POPC   GL251338  17.280  18.998   5.648
 3868POPC   C1A51339  17.646  19.159   6.207
 3868POPC   D2A51340  17.616  19.352   6.656
 3868POPC   C3A51341  17.631  19.041   6.994
 3868POPC   C4A51342  17.694  19.003   7.448
 3868POPC   C1B51343  17.180  18.951   6.115
 3868POPC   C2B51344  17.299  18.933   6.595
 3868POPC   C3B51345  17.197  18.753   7.039
 3868POPC   C4B51346  17.235  18.830   7.520
 3869POPC   NC351347  22.901   1.632   5.335
 3869POPC   PO451348  23.034   2.295   5.539
 3869POPC   GL151349  22.930   1.922   5.757
 3869POPC   GL251350  23.199   1.666   5.787
 3869POPC   C1A51351  22.717   2.029   6.111
 3869POPC   D2A51352  22.794   2.123   6.520
 3869POPC   C3A51353  22.759   1.766   6.782
 3869POPC   C4A51354  22.715   1.867   7.204
 3869POPC   C1B51355  23.229   1.953   6.174
 3869POPC   C2B51356  23.251   1.883   6.614
 3869POPC   C3B51357  23.212   1.914   7.040
 3869POPC   C4B51358  23.117   2.271   7.304
 3870POPC   NC351359  20.844  12.657   5.419
 3870POPC   PO451360  21.043  13.228   5.573
 3870POPC   GL151361  20.891  12.941   5.939
 3870POPC   GL251362  20.934  12.598   5.915
 3870POPC   C1A51363  20.907  12.840   6.414
 3870POPC   D2A51364  20.605  12.935   6.752
 3870POPC   C3A51365  20.626  13.113   7.160
 3870POPC   C4A51366  20.463  13.229   7.579
 3870POPC   C1B51367  20.599  12.497   6.223
 3870POPC   C2B51368  20.575  12.441   6.673
 3870POPC   C3B51369  20.672  12.536   7.111
 3870POPC   C4B51370  20.786  12.357   7.523
 3871POPC   NC351371   5.141  31.846   5.249
 3871POPC   PO451372   5.400  32.411   5.435
 3871POPC   GL151373   5.239  32.294   5.825
 3871POPC   GL251374   4.968  32.068   5.890
 3871POPC   C1A51375   5.383  32.382   6.228
 3871POPC   D2A51376   5.212  32.254   6.611
 3871POPC   C3A51377   5.315  32.531   6.940
 3871POPC   C4A51378   5.262  32.344   7.322
 3871POPC   C1B51379   4.863  32.378   6.197
 3871POPC   C2B51380   4.827  32.590   6.595
 3871POPC   C3B51381   4.801  32.459   7.061
 3871POPC   C4B51382   4.838  32.486   7.548
 3872POPC   NC351383  20.778  32.659   5.474
 3872POPC   PO451384  20.581  33.315   5.483
 3872POPC   GL151385  20.632  33.084   5.819
 3872POPC   GL251386  20.384  32.820   5.823
 3872POPC   C1A51387  20.554  33.204   6.229
 3872POPC   D2A51388  20.754  33.171   6.620
 3872POPC   C3A51389  20.517  33.449   6.848
 3872POPC   C4A51390  20.212  33.365   7.105
 3872POPC   C1B51391  20.422  32.732   6.281
 3872POPC   C2B51392  20.295  32.944   6.683
 3872POPC   C3B51393  20.536  32.965   7.071
 3872POPC   C4B51394  20.853  32.888   7.423
 3873POPC   NC351395  10.462  30.060   5.376
 3873POPC   PO451396  10.426  29.391   5.422
 3873POPC   GL151397  10.371  29.683   5.766
 3873POPC   GL251398  10.709  29.754   5.882
 3873POPC   C1A51399  10.325  29.798   6.221
 3873POPC   D2A51400  10.589  29.691   6.606
 3873POPC   C3A51401  10.579  29.883   7.033
 3873POPC   C4A51402  10.239  29.885   7.353
 3873POPC   C1B51403  10.880  29.998   6.250
 3873POPC   C2B51404  10.953  30.190   6.663
 3873POPC   C3B51405  10.996  30.157   7.108
 3873POPC   C4B51406  10.854  30.042   7.532
 3874POPC   NC351407  21.559  34.075   5.153
 3874POPC   PO451408  22.204  33.899   5.379
 3874POPC   GL151409  22.214  33.755   5.804
 3874POPC   GL251410  22.082  34.098   5.857
 3874POPC   C1A51411  22.040  33.737   6.243
 3874POPC   D2A51412  21.905  33.738   6.686
 3874POPC   C3A51413  22.091  33.630   7.116
 3874POPC   C4A51414  22.432  33.720   7.473
 3874POPC   C1B51415  22.030  34.263   6.239
 3874POPC   C2B51416  21.927  34.300   6.642
 3874POPC   C3B51417  21.978  34.131   7.022
 3874POPC   C4B51418  22.034  34.013   7.444
 3875POPC   NC351419  12.293  44.529   5.339
 3875POPC   PO451420  11.735  44.817   5.400
 3875POPC   GL151421  11.923  44.567   5.688
 3875POPC   GL251422  11.976  44.842   5.881
 3875POPC   C1A51423  11.954  44.410   6.101
 3875POPC   D2A51424  11.910  44.565   6.485
 3875POPC   C3A51425  12.209  44.572   6.803
 3875POPC   C4A51426  12.064  44.538   7.205
 3875POPC   C1B51427  12.044   0.040   6.298
 3875POPC   C2B51428  12.048   0.254   6.711
 3875POPC   C3B51429  11.886  44.997   7.071
 3875POPC   C4B51430  12.001  44.963   7.511
 3876POPC   NC351431   2.284   7.126   5.345
 3876POPC   PO451432   2.926   7.247   5.371
 3876POPC   GL151433   2.678   7.288   5.743
 3876POPC   GL251434   2.482   7.595   5.658
 3876POPC   C1A51435   2.810   7.404   6.177
 3876POPC   D2A51436   3.057   7.339   6.556
 3876POPC   C3A51437   2.779   7.393   6.877
 3876POPC   C4A51438   2.641   7.172   7.239
 3876POPC   C1B51439   2.351   7.648   6.092
 3876POPC   C2B51440   2.384   7.550   6.540
 3876POPC   C3B51441   2.393   7.790   6.928
 3876POPC   C4B51442   2.672   7.699   7.261
 3877POPC   NC351443  44.309  39.795   5.431
 3877POPC   PO451444  44.807  40.157   5.309
 3877POPC   GL151445  44.861  39.958   5.728
 3877POPC   GL251446  44.543  40.039   5.855
 3877POPC   C1A51447   0.170  40.002   6.085
 3877POPC   D2A51448   0.128  39.824   6.492
 3877POPC   C3A51449  44.956  39.961   6.872
 3877POPC   C4A51450  44.591  39.794   7.119
 3877POPC   C1B51451  44.762  40.292   6.189
 3877POPC   C2B51452  44.794  40.393   6.623
 3877POPC   C3B51453  44.692  40.357   7.057
 3877POPC   C4B51454  44.740  40.561   7.452
 3878POPC   NC351455   6.549  37.543   5.588
 3878POPC   PO451456   6.797  36.934   5.323
 3878POPC   GL151457   6.649  36.819   5.716
 3878POPC   GL251458   6.469  37.075   5.799
 3878POPC   C1A51459   6.849  36.823   6.152
 3878POPC   D2A51460   6.884  36.864   6.627
 3878POPC   C3A51461   6.673  36.693   7.010
 3878POPC   C4A51462   6.864  36.727   7.445
 3878POPC   C1B51463   6.335  36.927   6.186
 3878POPC   C2B51464   6.330  36.858   6.617
 3878POPC   C3B51465   6.255  37.011   7.022
 3878POPC   C4B51466   6.421  36.960   7.425
 3879POPC   NC351467  34.216  25.279   5.307
 3879POPC   PO451468  33.606  25.083   5.479
 3879POPC   GL151469  33.905  25.233   5.747
 3879POPC   GL251470  34.121  24.932   5.803
 3879POPC   C1A51471  33.857  25.430   6.155
 3879POPC   D2A51472  33.686  25.601   6.547
 3879POPC   C3A51473  33.817  25.445   6.974
 3879POPC   C4A51474  33.824  25.458   7.458
 3879POPC   C1B51475  33.765  24.924   6.132
 3879POPC   C2B51476  33.713  25.080   6.568
 3879POPC   C3B51477  33.723  24.937   7.014
 3879POPC   C4B51478  34.052  25.005   7.322
 3880POPC   NC351479  30.724  26.700   5.511
 3880POPC   PO451480  30.322  27.264   5.167
 3880POPC   GL151481  30.674  27.177   5.609
 3880POPC   GL251482  30.421  26.934   5.819
 3880POPC   C1A51483  30.841  26.991   6.086
 3880POPC   D2A51484  30.966  26.921   6.551
 3880POPC   C3A51485  30.830  27.091   6.959
 3880POPC   C4A51486  30.895  27.056   7.380
 3880POPC   C1B51487  30.509  26.592   6.160
 3880POPC   C2B51488  30.707  26.468   6.565
 3880POPC   C3B51489  30.810  26.583   6.982
 3880POPC   C4B51490  30.574  26.681   7.334
 3881POPC   NC351491  11.969   0.211   5.452
 3881POPC   PO451492  12.352   0.702   5.420
 3881POPC   GL151493  12.141   0.585   5.788
 3881POPC   GL251494  12.256   0.261   5.864
 3881POPC   C1A51495  12.104   0.558   6.252
 3881POPC   D2A51496  12.239   0.783   6.605
 3881POPC   C3A51497  12.048   0.730   6.969
 3881POPC   C4A51498  12.077   0.420   7.277
 3881POPC   C1B51499  12.540   0.101   6.171
 3881POPC   C2B51500  12.493  44.940   6.607
 3881POPC   C3B51501  12.401   0.051   7.045
 3881POPC   C4B51502  12.516   0.057   7.484
 3882POPC   NC351503   8.856  40.497   5.403
 3882POPC   PO451504   9.452  40.863   5.568
 3882POPC   GL151505   9.113  40.712   5.840
 3882POPC   GL251506   8.742  40.689   5.857
 3882POPC   C1A51507   9.058  40.684   6.279
 3882POPC   D2A51508   9.287  40.696   6.628
 3882POPC   C3A51509   9.205  40.598   7.024
 3882POPC   C4A51510   9.116  40.845   7.349
 3882POPC   C1B51511   8.614  40.443   6.237
 3882POPC   C2B51512   8.760  40.512   6.706
 3882POPC   C3B51513   8.718  40.549   7.197
 3882POPC   C4B51514   8.759  40.310   7.643
 3883POPC   NC351515  22.268  24.778   5.112
 3883POPC   PO451516  21.978  25.271   5.362
 3883POPC   GL151517  22.215  25.283   5.775
 3883POPC   GL251518  22.509  25.073   5.825
 3883POPC   C1A51519  22.267  25.453   6.185
 3883POPC   D2A51520  21.980  25.584   6.516
 3883POPC   C3A51521  22.093  25.406   6.905
 3883POPC   C4A51522  22.053  25.342   7.311
 3883POPC   C1B51523  22.369  24.949   6.260
 3883POPC   C2B51524  22.382  25.015   6.716
 3883POPC   C3B51525  22.444  25.021   7.166
 3883POPC   C4B51526  22.208  24.919   7.562
 3884POPC   NC351527  33.170  43.984   5.079
 3884POPC   PO451528  32.806  43.694   5.608
 3884POPC   GL151529  33.073  43.944   5.817
 3884POPC   GL251530  33.429  43.932   5.768
 3884POPC   C1A51531  33.064  44.098   6.214
 3884POPC   D2A51532  32.978  44.344   6.587
 3884POPC   C3A51533  32.871  44.141   6.959
 3884POPC   C4A51534  32.869  43.981   7.377
 3884POPC   C1B51535  33.414  43.702   6.190
 3884POPC   C2B51536  33.246  43.793   6.614
 3884POPC   C3B51537  33.230  43.772   7.064
 3884POPC   C4B51538  33.257  43.682   7.528
 3885POPC   NC351539  40.502  38.046   5.567
 3885POPC   PO451540  40.937  37.553   5.323
 3885POPC   GL151541  40.826  37.472   5.714
 3885POPC   GL251542  41.121  37.231   5.679
 3885POPC   C1A51543  40.743  37.696   6.133
 3885POPC   D2A51544  40.721  37.857   6.567
 3885POPC   C3A51545  40.656  37.684   6.985
 3885POPC   C4A51546  40.820  37.774   7.392
 3885POPC   C1B51547  41.060  37.306   6.121
 3885POPC   C2B51548  41.105  37.520   6.514
 3885POPC   C3B51549  41.051  37.333   6.921
 3885POPC   C4B51550  40.985  37.269   7.354
 3886POPC   NC351551   9.291   9.765   5.520
 3886POPC   PO451552   8.664   9.903   5.286
 3886POPC   GL151553   8.777   9.681   5.709
 3886POPC   GL251554   9.028   9.370   5.703
 3886POPC   C1A51555   8.917   9.671   6.176
 3886POPC   D2A51556   8.855   9.918   6.563
 3886POPC   C3A51557   9.058   9.872   6.973
 3886POPC   C4A51558   8.728   9.695   7.172
 3886POPC   C1B51559   9.195   9.262   6.091
 3886POPC   C2B51560   9.342   9.385   6.502
 3886POPC   C3B51561   9.304   9.277   6.914
 3886POPC   C4B51562   9.211   9.459   7.281
 3887POPC   NC351563   7.894  32.156   5.302
 3887POPC   PO451564   8.659  32.351   5.444
 3887POPC   GL151565   8.253  32.238   5.684
 3887POPC   GL251566   7.962  31.966   5.773
 3887POPC   C1A51567   8.156  32.266   6.137
 3887POPC   D2A51568   8.182  32.389   6.572
 3887POPC   C3A51569   8.322  32.175   6.958
 3887POPC   C4A51570   8.175  32.292   7.372
 3887POPC   C1B51571   7.876  31.845   6.234
 3887POPC   C2B51572   7.977  31.892   6.679
 3887POPC   C3B51573   7.843  31.991   7.120
 3887POPC   C4B51574   7.894  31.920   7.598
 3888POPC   NC351575   9.195   0.240   5.579
 3888POPC   PO451576   9.477  44.715   5.215
 3888POPC   GL151577   9.575  44.708   5.685
 3888POPC   GL251578   9.743  44.443   5.859
 3888POPC   C1A51579   9.698  44.919   6.110
 3888POPC   D2A51580   9.545  44.943   6.569
 3888POPC   C3A51581   9.773  44.856   6.982
 3888POPC   C4A51582   9.884  44.735   7.399
 3888POPC   C1B51583   9.571  44.471   6.308
 3888POPC   C2B51584   9.570  44.421   6.763
 3888POPC   C3B51585   9.672  44.344   7.182
 3888POPC   C4B51586   9.642  44.386   7.670
 3889POPC   NC351587  29.353  16.240   5.557
 3889POPC   PO451588  29.020  15.697   5.403
 3889POPC   GL151589  28.937  15.798   5.831
 3889POPC   GL251590  28.863  16.139   5.850
 3889POPC   C1A51591  28.853  15.732   6.271
 3889POPC   D2A51592  29.034  15.530   6.649
 3889POPC   C3A51593  29.305  15.749   6.966
 3889POPC   C4A51594  29.153  15.842   7.394
 3889POPC   C1B51595  29.155  16.151   6.194
 3889POPC   C2B51596  29.111  16.054   6.609
 3889POPC   C3B51597  28.857  15.981   6.941
 3889POPC   C4B51598  28.709  16.219   7.266
 3890POPC   NC351599  22.081  43.730   5.373
 3890POPC   PO451600  22.113  44.400   5.231
 3890POPC   GL151601  22.019  44.152   5.658
 3890POPC   GL251602  22.347  43.954   5.752
 3890POPC   C1A51603  21.919  43.891   6.063
 3890POPC   D2A51604  21.785  43.750   6.516
 3890POPC   C3A51605  22.001  43.731   6.928
 3890POPC   C4A51606  21.818  43.898   7.326
 3890POPC   C1B51607  22.417  43.701   6.152
 3890POPC   C2B51608  22.585  43.517   6.576
 3890POPC   C3B51609  22.414  43.364   7.000
 3890POPC   C4B51610  22.267  43.630   7.367
 3891POPC   NC351611  25.895  24.467   5.095
 3891POPC   PO451612  26.397  24.599   5.468
 3891POPC   GL151613  26.237  24.398   5.772
 3891POPC   GL251614  25.903  24.302   5.726
 3891POPC   C1A51615  26.404  24.276   6.154
 3891POPC   D2A51616  26.394  24.212   6.583
 3891POPC   C3A51617  26.327  24.561   6.834
 3891POPC   C4A51618  26.264  24.533   7.287
 3891POPC   C1B51619  25.915  24.566   6.118
 3891POPC   C2B51620  25.691  24.571   6.494
 3891POPC   C3B51621  25.829  24.486   6.913
 3891POPC   C4B51622  25.796  24.719   7.284
 3892POPC   NC351623  28.749   1.668   5.507
 3892POPC   PO451624  28.623   2.323   5.470
 3892POPC   GL151625  28.421   1.979   5.780
 3892POPC   GL251626  28.039   1.846   5.782
 3892POPC   C1A51627  28.613   1.832   6.187
 3892POPC   D2A51628  28.630   1.689   6.624
 3892POPC   C3A51629  28.494   1.849   7.004
 3892POPC   C4A51630  28.589   2.224   7.256
 3892POPC   C1B51631  28.114   1.707   6.213
 3892POPC   C2B51632  28.118   1.949   6.621
 3892POPC   C3B51633  28.080   2.125   7.059
 3892POPC   C4B51634  28.217   1.918   7.458
 3893POPC   NC351635  43.939   7.997   5.293
 3893POPC   PO451636  43.539   8.558   5.481
 3893POPC   GL151637  43.859   8.395   5.786
 3893POPC   GL251638  43.944   8.030   5.817
 3893POPC   C1A51639  43.996   8.318   6.234
 3893POPC   D2A51640  44.179   8.117   6.592
 3893POPC   C3A51641  44.002   8.354   6.918
 3893POPC   C4A51642  43.799   8.425   7.310
 3893POPC   C1B51643  43.764   7.848   6.213
 3893POPC   C2B51644  43.791   7.785   6.668
 3893POPC   C3B51645  43.782   7.912   7.095
 3893POPC   C4B51646  43.882   7.887   7.524
 3894POPC   NC351647   7.043   9.695   5.283
 3894POPC   PO451648   6.353   9.705   5.412
 3894POPC   GL151649   6.729   9.766   5.694
 3894POPC   GL251650   6.711  10.127   5.758
 3894POPC   C1A51651   6.945   9.743   6.121
 3894POPC   D2A51652   6.792   9.821   6.533
 3894POPC   C3A51653   6.871   9.606   6.936
 3894POPC   C4A51654   6.662   9.713   7.338
 3894POPC   C1B51655   6.468   9.905   6.114
 3894POPC   C2B51656   6.274   9.759   6.509
 3894POPC   C3B51657   6.428   9.897   6.913
 3894POPC   C4B51658   6.478  10.203   7.236
 3895POPC   NC351659  42.825   0.567   5.027
 3895POPC   PO451660  42.171   0.468   5.261
 3895POPC   GL151661  42.324   0.563   5.698
 3895POPC   GL251662  42.445   0.248   5.808
 3895POPC   C1A51663  42.240   0.758   6.156
 3895POPC   D2A51664  42.498   0.789   6.573
 3895POPC   C3A51665  42.326   0.670   7.002
 3895POPC   C4A51666  42.345   0.772   7.472
 3895POPC   C1B51667  42.511   0.333   6.240
 3895POPC   C2B51668  42.225   0.327   6.589
 3895POPC   C3B51669  42.290   0.147   7.007
 3895POPC   C4B51670  42.567   0.041   7.325
 3896POPC   NC351671  32.738  41.944   5.373
 3896POPC   PO451672  33.215  42.341   5.210
 3896POPC   GL151673  33.063  42.292   5.673
 3896POPC   GL251674  32.695  42.366   5.756
 3896POPC   C1A51675  33.015  42.300   6.159
 3896POPC   D2A51676  32.992  42.514   6.582
 3896POPC   C3A51677  32.971  42.332   7.009
 3896POPC   C4A51678  33.170  42.316   7.433
 3896POPC   C1B51679  32.524  42.272   6.214
 3896POPC   C2B51680  32.472  42.458   6.619
 3896POPC   C3B51681  32.541  42.620   7.027
 3896POPC   C4B51682  32.478  42.399   7.409
 3897POPC   NC351683   6.352  33.345   5.481
 3897POPC   PO451684   6.733  33.759   5.163
 3897POPC   GL151685   6.575  33.802   5.600
 3897POPC   GL251686   6.743  33.534   5.767
 3897POPC   C1A51687   6.618  33.956   6.039
 3897POPC   D2A51688   6.824  33.872   6.443
 3897POPC   C3A51689   6.721  34.008   6.879
 3897POPC   C4A51690   6.478  33.979   7.279
 3897POPC   C1B51691   6.755  33.405   6.205
 3897POPC   C2B51692   6.765  33.419   6.672
 3897POPC   C3B51693   6.647  33.533   7.100
 3897POPC   C4B51694   6.732  33.564   7.547
 3898POPC   NC351695  15.038  16.483   4.730
 3898POPC   PO451696  14.969  16.839   5.361
 3898POPC   GL151697  15.025  17.016   5.794
 3898POPC   GL251698  14.716  17.151   5.916
 3898POPC   C1A51699  15.022  16.916   6.266
 3898POPC   D2A51700  14.851  16.697   6.647
 3898POPC   C3A51701  15.061  16.739   7.065
 3898POPC   C4A51702  15.340  16.893   7.411
 3898POPC   C1B51703  14.728  17.328   6.346
 3898POPC   C2B51704  14.925  17.209   6.737
 3898POPC   C3B51705  14.832  17.181   7.170
 3898POPC   C4B51706  14.836  16.914   7.535
 3899POPC   NC351707  17.568  30.029   5.444
 3899POPC   PO451708  17.759  29.319   5.473
 3899POPC   GL151709  17.483  29.591   5.770
 3899POPC   GL251710  17.508  29.956   5.924
 3899POPC   C1A51711  17.272  29.626   6.181
 3899POPC   D2A51712  17.239  30.000   6.419
 3899POPC   C3A51713  17.356  29.923   6.832
 3899POPC   C4A51714  17.274  29.867   7.276
 3899POPC   C1B51715  17.737  29.878   6.346
 3899POPC   C2B51716  17.877  29.893   6.793
 3899POPC   C3B51717  17.711  30.129   7.141
 3899POPC   C4B51718  17.338  30.371   7.147
 3900POPC   NC351719  42.253   9.990   5.169
 3900POPC   PO451720  41.584   9.952   5.450
 3900POPC   GL151721  41.447   9.971   5.851
 3900POPC   GL251722  41.522   9.630   5.855
 3900POPC   C1A51723  41.629  10.005   6.259
 3900POPC   D2A51724  41.781  10.049   6.684
 3900POPC   C3A51725  41.576   9.799   6.988
 3900POPC   C4A51726  41.605   9.926   7.393
 3900POPC   C1B51727  41.567   9.452   6.245
 3900POPC   C2B51728  41.402   9.392   6.648
 3900POPC   C3B51729  41.589   9.274   7.031
 3900POPC   C4B51730  41.787   9.448   7.368
 3901POPC   NC351731  38.933  28.103   5.295
 3901POPC   PO451732  39.401  28.532   5.445
 3901POPC   GL151733  39.238  28.216   5.793
 3901POPC   GL251734  38.929  28.028   5.808
 3901POPC   C1A51735  39.374  28.026   6.211
 3901POPC   D2A51736  39.395  27.819   6.649
 3901POPC   C3A51737  39.314  28.132   6.986
 3901POPC   C4A51738  39.394  28.404   7.338
 3901POPC   C1B51739  38.868  27.887   6.228
 3901POPC   C2B51740  38.906  28.024   6.674
 3901POPC   C3B51741  38.797  28.137   7.114
 3901POPC   C4B51742  38.891  28.431   7.480
 3902POPC   NC351743  32.774  44.794   5.171
 3902POPC   PO451744  33.189  44.270   5.432
 3902POPC   GL151745  33.012  44.473   5.780
 3902POPC   GL251746  32.842  44.809   5.774
 3902POPC   C1A51747  33.144  44.623   6.191
 3902POPC   D2A51748  33.329  44.805   6.559
 3902POPC   C3A51749  33.101  44.716   6.948
 3902POPC   C4A51750  33.098  44.447   7.299
 3902POPC   C1B51751  32.745  44.906   6.254
 3902POPC   C2B51752  32.855   0.114   6.685
 3902POPC   C3B51753  32.813   0.090   7.188
 3902POPC   C4B51754  32.566  44.954   7.591
 3903POPC   NC351755   0.159  37.272   5.517
 3903POPC   PO451756  44.630  37.782   5.464
 3903POPC   GL151757  44.694  37.840   5.864
 3903POPC   GL251758   0.005  37.695   5.878
 3903POPC   C1A51759  44.522  37.921   6.252
 3903POPC   D2A51760  44.368  37.774   6.648
 3903POPC   C3A51761  44.567  37.961   6.982
 3903POPC   C4A51762  44.609  37.612   7.221
 3903POPC   C1B51763   0.044  38.020   6.197
 3903POPC   C2B51764  44.931  37.926   6.613
 3903POPC   C3B51765  44.860  37.497   6.782
 3903POPC   C4B51766  44.939  37.231   7.162
 3904POPC   NC351767  43.670  39.879   5.417
 3904POPC   PO451768  44.208  40.259   5.406
 3904POPC   GL151769  44.038  40.077   5.791
 3904POPC   GL251770  43.979  39.711   5.803
 3904POPC   C1A51771  44.157  39.969   6.222
 3904POPC   D2A51772  44.035  40.139   6.624
 3904POPC   C3A51773  44.067  39.968   7.015
 3904POPC   C4A51774  43.764  40.055   7.318
 3904POPC   C1B51775  43.727  39.703   6.145
 3904POPC   C2B51776  43.766  39.696   6.587
 3904POPC   C3B51777  43.672  39.641   7.024
 3904POPC   C4B51778  43.857  39.562   7.431
 3905POPC   NC351779  15.532  21.148   5.414
 3905POPC   PO451780  16.171  20.997   5.297
 3905POPC   GL151781  16.059  20.969   5.771
 3905POPC   GL251782  15.692  21.048   5.869
 3905POPC   C1A51783  16.036  21.152   6.212
 3905POPC   D2A51784  15.999  21.433   6.575
 3905POPC   C3A51785  15.915  21.420   7.029
 3905POPC   C4A51786  15.808  21.505   7.458
 3905POPC   C1B51787  15.545  21.185   6.310
 3905POPC   C2B51788  15.633  21.109   6.749
 3905POPC   C3B51789  15.455  21.231   7.161
 3905POPC   C4B51790  15.290  21.427   7.557
 3906POPC   NC351791   2.553  22.976   5.557
 3906POPC   PO451792   3.090  23.369   5.352
 3906POPC   GL151793   2.957  23.246   5.765
 3906POPC   GL251794   2.958  22.887   5.859
 3906POPC   C1A51795   2.856  23.245   6.212
 3906POPC   D2A51796   2.704  23.110   6.615
 3906POPC   C3A51797   2.999  23.212   6.959
 3906POPC   C4A51798   3.032  23.062   7.392
 3906POPC   C1B51799   2.605  22.782   6.194
 3906POPC   C2B51800   2.441  22.668   6.623
 3906POPC   C3B51801   2.646  22.773   7.020
 3906POPC   C4B51802   2.590  22.638   7.448
 3907POPC   NC351803  13.482   0.937   5.154
 3907POPC   PO451804  13.150   1.288   5.561
 3907POPC   GL151805  13.341   0.963   5.766
 3907POPC   GL251806  13.659   0.839   5.718
 3907POPC   C1A51807  13.466   1.061   6.171
 3907POPC   D2A51808  13.234   1.071   6.541
 3907POPC   C3A51809  13.455   1.203   6.889
 3907POPC   C4A51810  13.423   1.092   7.297
 3907POPC   C1B51811  13.927   0.844   6.127
 3907POPC   C2B51812  13.967   1.020   6.592
 3907POPC   C3B51813  13.872   0.922   7.039
 3907POPC   C4B51814  13.911   0.926   7.513
 3908POPC   NC351815  15.960  28.351   4.984
 3908POPC   PO451816  15.913  28.732   5.533
 3908POPC   GL151817  16.156  28.474   5.801
 3908POPC   GL251818  15.901  28.270   5.819
 3908POPC   C1A51819  16.301  28.544   6.215
 3908POPC   D2A51820  16.056  28.549   6.599
 3908POPC   C3A51821  16.121  28.252   6.924
 3908POPC   C4A51822  15.899  28.511   7.214
 3908POPC   C1B51823  15.931  28.192   6.252
 3908POPC   C2B51824  15.691  28.161   6.637
 3908POPC   C3B51825  15.676  28.050   7.073
 3908POPC   C4B51826  15.962  28.042   7.447
 3909POPC   NC351827   7.066  31.633   5.505
 3909POPC   PO451828   7.524  31.078   5.313
 3909POPC   GL151829   7.578  31.343   5.680
 3909POPC   GL251830   7.255  31.272   5.796
 3909POPC   C1A51831   7.538  31.492   6.128
 3909POPC   D2A51832   7.361  31.301   6.498
 3909POPC   C3A51833   7.365  31.473   6.909
 3909POPC   C4A51834   7.401  31.255   7.305
 3909POPC   C1B51835   7.015  31.421   6.150
 3909POPC   C2B51836   7.007  31.664   6.558
 3909POPC   C3B51837   6.998  31.850   6.943
 3909POPC   C4B51838   7.152  31.726   7.311
 3910POPC   NC351839  27.254  16.854   5.450
 3910POPC   PO451840  26.608  16.532   5.276
 3910POPC   GL151841  26.859  16.584   5.658
 3910POPC   GL251842  26.885  16.923   5.834
 3910POPC   C1A51843  26.845  16.524   6.135
 3910POPC   D2A51844  26.970  16.648   6.535
 3910POPC   C3A51845  26.697  16.576   6.887
 3910POPC   C4A51846  26.781  16.651   7.290
 3910POPC   C1B51847  26.900  17.095   6.283
 3910POPC   C2B51848  26.688  17.060   6.682
 3910POPC   C3B51849  26.812  17.186   7.102
 3910POPC   C4B51850  26.921  17.096   7.516
 3911POPC   NC351851  11.600  20.399   5.415
 3911POPC   PO451852  12.033  19.773   5.364
 3911POPC   GL151853  12.007  19.963   5.714
 3911POPC   GL251854  11.668  19.975   5.695
 3911POPC   C1A51855  11.981  20.016   6.158
 3911POPC   D2A51856  12.107  19.856   6.558
 3911POPC   C3A51857  12.006  20.046   6.940
 3911POPC   C4A51858  11.930  19.778   7.263
 3911POPC   C1B51859  11.705  19.604   5.952
 3911POPC   C2B51860  11.818  19.483   6.357
 3911POPC   C3B51861  11.786  19.548   6.825
 3911POPC   C4B51862  11.557  19.446   7.210
 3912POPC   NC351863  43.525  27.663   5.542
 3912POPC   PO451864  42.852  27.395   5.449
 3912POPC   GL151865  42.980  27.555   5.864
 3912POPC   GL251866  43.260  27.380   5.958
 3912POPC   C1A51867  43.103  27.797   6.260
 3912POPC   D2A51868  43.034  27.982   6.680
 3912POPC   C3A51869  42.860  27.822   7.073
 3912POPC   C4A51870  43.137  27.839   7.426
 3912POPC   C1B51871  42.904  27.320   6.289
 3912POPC   C2B51872  42.784  27.499   6.642
 3912POPC   C3B51873  43.164  27.492   6.830
 3912POPC   C4B51874  43.290  27.392   7.233
 3913POPC   NC351875  36.486  35.438   5.336
 3913POPC   PO451876  37.048  35.048   5.175
 3913POPC   GL151877  37.057  35.123   5.679
 3913POPC   GL251878  36.878  35.442   5.801
 3913POPC   C1A51879  37.071  35.165   6.176
 3913POPC   D2A51880  36.886  35.039   6.622
 3913POPC   C3A51881  37.030  35.210   7.051
 3913POPC   C4A51882  36.944  35.423   7.478
 3913POPC   C1B51883  36.874  35.627   6.259
 3913POPC   C2B51884  36.847  35.565   6.726
 3913POPC   C3B51885  36.756  35.809   7.126
 3913POPC   C4B51886  36.853  35.922   7.590
 3914POPC   NC351887  38.231  21.715   5.569
 3914POPC   PO451888  38.709  21.335   5.228
 3914POPC   GL151889  38.727  21.366   5.692
 3914POPC   GL251890  38.398  21.344   5.876
 3914POPC   C1A51891  38.843  21.461   6.149
 3914POPC   D2A51892  38.747  21.570   6.608
 3914POPC   C3A51893  38.530  21.281   6.904
 3914POPC   C4A51894  38.463  21.375   7.336
 3914POPC   C1B51895  38.080  21.486   6.185
 3914POPC   C2B51896  38.177  21.535   6.619
 3914POPC   C3B51897  38.037  21.482   7.054
 3914POPC   C4B51898  38.046  21.614   7.524
 3915POPC   NC351899   5.250   9.399   5.617
 3915POPC   PO451900   4.730   9.825   5.592
 3915POPC   GL151901   4.967   9.784   5.919
 3915POPC   GL251902   5.306   9.886   5.807
 3915POPC   C1A51903   4.851   9.849   6.362
 3915POPC   D2A51904   4.793  10.009   6.785
 3915POPC   C3A51905   5.019   9.748   7.079
 3915POPC   C4A51906   5.168   9.520   7.440
 3915POPC   C1B51907   5.341   9.723   6.242
 3915POPC   C2B51908   5.317   9.896   6.690
 3915POPC   C3B51909   5.510   9.910   7.125
 3915POPC   C4B51910   5.574   9.817   7.587
 3916POPC   NC351911  40.579  13.118   5.373
 3916POPC   PO451912  40.968  12.478   5.369
 3916POPC   GL151913  40.798  12.728   5.712
 3916POPC   GL251914  40.457  12.629   5.808
 3916POPC   C1A51915  40.842  12.994   6.103
 3916POPC   D2A51916  40.579  13.165   6.464
 3916POPC   C3A51917  40.794  13.138   6.865
 3916POPC   C4A51918  41.012  12.908   7.171
 3916POPC   C1B51919  40.470  12.653   6.251
 3916POPC   C2B51920  40.697  12.686   6.629
 3916POPC   C3B51921  40.558  12.704   7.052
 3916POPC   C4B51922  40.222  13.001   7.218
 3917POPC   NC351923  12.934  39.575   5.630
 3917POPC   PO451924  12.467  40.052   5.501
 3917POPC   GL151925  12.675  39.958   5.870
 3917POPC   GL251926  12.596  39.636   6.029
 3917POPC   C1A51927  13.021  39.929   6.165
 3917POPC   D2A51928  13.157  40.254   6.413
 3917POPC   C3A51929  13.123  40.212   6.843
 3917POPC   C4A51930  13.036  39.914   7.168
 3917POPC   C1B51931  12.528  39.975   6.358
 3917POPC   C2B51932  12.634  40.025   6.808
 3917POPC   C3B51933  12.468  39.873   7.209
 3917POPC   C4B51934  12.220  39.964   7.600
 3918POPC   NC351935   1.855  41.797   5.553
 3918POPC   PO451936   2.154  41.260   5.309
 3918POPC   GL151937   2.198  41.363   5.730
 3918POPC   GL251938   2.304  41.715   5.779
 3918POPC   C1A51939   2.066  41.287   6.154
 3918POPC   D2A51940   1.916  41.481   6.523
 3918POPC   C3A51941   2.130  41.342   6.908
 3918POPC   C4A51942   2.077  41.298   7.362
 3918POPC   C1B51943   2.379  41.933   6.174
 3918POPC   C2B51944   2.329  42.024   6.619
 3918POPC   C3B51945   2.438  41.765   7.003
 3918POPC   C4B51946   2.694  41.850   7.385
 3919POPC   NC351947   7.572  33.093   5.445
 3919POPC   PO451948   6.947  32.789   5.284
 3919POPC   GL151949   7.187  32.854   5.722
 3919POPC   GL251950   7.455  32.673   5.804
 3919POPC   C1A51951   7.398  33.084   6.133
 3919POPC   D2A51952   7.703  33.362   6.427
 3919POPC   C3A51953   7.693  33.276   6.895
 3919POPC   C4A51954   7.687  33.157   7.343
 3919POPC   C1B51955   7.261  32.557   6.184
 3919POPC   C2B51956   7.351  32.695   6.605
 3919POPC   C3B51957   7.417  32.828   7.017
 3919POPC   C4B51958   7.225  32.961   7.391
 3920POPC   NC351959  15.738  18.763   5.668
 3920POPC   PO451960  15.635  18.089   5.486
 3920POPC   GL151961  15.749  18.242   5.906
 3920POPC   GL251962  16.036  18.439   5.994
 3920POPC   C1A51963  15.593  18.427   6.304
 3920POPC   D2A51964  15.806  18.719   6.624
 3920POPC   C3A51965  15.791  18.598   7.078
 3920POPC   C4A51966  15.762  18.187   7.340
 3920POPC   C1B51967  16.013  18.165   6.393
 3920POPC   C2B51968  15.973  18.175   6.861
 3920POPC   C3B51969  16.222  18.364   7.264
 3920POPC   C4B51970  16.271  18.143   7.682
 3921POPC   NC351971  35.010  16.779   5.405
 3921POPC   PO451972  35.639  16.473   5.390
 3921POPC   GL151973  35.385  16.579   5.732
 3921POPC   GL251974  35.399  16.944   5.761
 3921POPC   C1A51975  35.308  16.586   6.168
 3921POPC   D2A51976  35.071  16.338   6.474
 3921POPC   C3A51977  35.055  16.527   6.867
 3921POPC   C4A51978  35.384  16.613   7.141
 3921POPC   C1B51979  35.009  16.975   6.028
 3921POPC   C2B51980  34.986  16.880   6.457
 3921POPC   C3B51981  35.247  16.989   6.769
 3921POPC   C4B51982  35.026  16.972   7.139
 3922POPC   NC351983  42.199  42.473   5.522
 3922POPC   PO451984  42.708  42.037   5.349
 3922POPC   GL151985  42.456  42.053   5.699
 3922POPC   GL251986  42.588  42.370   5.846
 3922POPC   C1A51987  42.305  42.037   6.129
 3922POPC   D2A51988  42.298  42.295   6.516
 3922POPC   C3A51989  42.347  42.154   6.968
 3922POPC   C4A51990  42.137  42.192   7.379
 3922POPC   C1B51991  42.491  42.707   6.157
 3922POPC   C2B51992  42.263  42.804   6.532
 3922POPC   C3B51993  42.152  42.637   6.921
 3922POPC   C4B51994  42.448  42.597   7.263
 3923POPC   NC351995  14.824  29.307   5.572
 3923POPC   PO451996  15.231  28.759   5.458
 3923POPC   GL151997  15.142  28.974   5.834
 3923POPC   GL251998  14.889  28.759   5.879
 3923POPC   C1A51999  15.233  29.256   6.224
 3923POPC   D2A52000  15.369  29.110   6.630
 3923POPC   C3A52001  15.126  29.227   6.986
 3923POPC   C4A52002  15.344  29.360   7.320
 3923POPC   C1B52003  14.964  28.843   6.330
 3923POPC   C2B52004  15.020  28.762   6.775
 3923POPC   C3B52005  14.844  28.813   7.169
 3923POPC   C4B52006  14.907  29.096   7.479
 3924POPC   NC352007  30.332  44.435   5.495
 3924POPC   PO452008  30.940  44.698   5.150
 3924POPC   GL152009  30.887  44.708   5.651
 3924POPC   GL252010  30.537  44.770   5.835
 3924POPC   C1A52011  30.994  44.661   6.122
 3924POPC   D2A52012  30.693  44.700   6.490
 3924POPC   C3A52013  30.697  44.848   6.895
 3924POPC   C4A52014  30.772  44.757   7.325
 3924POPC   C1B52015  30.536  44.388   6.100
 3924POPC   C2B52016  30.378  44.305   6.497
 3924POPC   C3B52017  30.486  44.376   6.914
 3924POPC   C4B52018  30.604  44.083   7.238
 3925POPC   NC352019  20.763  11.050   5.394
 3925POPC   PO452020  20.511  11.731   5.285
 3925POPC   GL152021  20.530  11.436   5.638
 3925POPC   GL252022  20.910  11.421   5.719
 3925POPC   C1A52023  20.528  11.266   6.065
 3925POPC   D2A52024  20.659  11.215   6.495
 3925POPC   C3A52025  20.403  11.241   6.864
 3925POPC   C4A52026  20.246  11.556   7.154
 3925POPC   C1B52027  21.077  11.205   6.109
 3925POPC   C2B52028  21.142  11.071   6.528
 3925POPC   C3B52029  20.952  11.183   6.928
 3925POPC   C4B52030  20.688  11.252   7.295
 3926POPC   NC352031   9.224   0.112   5.051
 3926POPC   PO452032   8.906   0.597   5.419
 3926POPC   GL152033   8.752   0.478   5.790
 3926POPC   GL252034   8.684   0.110   5.791
 3926POPC   C1A52035   8.908   0.685   6.167
 3926POPC   D2A52036   8.869   0.577   6.594
 3926POPC   C3A52037   9.232   0.532   6.853
 3926POPC   C4A52038   9.229   0.496   7.292
 3926POPC   C1B52039   8.805   0.172   6.222
 3926POPC   C2B52040   9.038   0.110   6.589
 3926POPC   C3B52041   8.853   0.204   6.985
 3926POPC   C4B52042   9.001   0.054   7.362
 3927POPC   NC352043  13.435  31.473   5.417
 3927POPC   PO452044  13.883  30.910   5.404
 3927POPC   GL152045  13.839  31.288   5.667
 3927POPC   GL252046  14.126  31.448   5.791
 3927POPC   C1A52047  13.675  31.525   6.054
 3927POPC   D2A52048  13.419  31.590   6.415
 3927POPC   C3A52049  13.633  31.664   6.790
 3927POPC   C4A52050  13.548  31.535   7.215
 3927POPC   C1B52051  13.960  31.108   6.120
 3927POPC   C2B52052  13.865  31.271   6.513
 3927POPC   C3B52053  13.771  31.169   6.918
 3927POPC   C4B52054  13.847  31.143   7.353
 3928POPC   NC352055   4.744   8.047   5.011
 3928POPC   PO452056   4.356   8.096   5.557
 3928POPC   GL152057   4.210   8.196   5.966
 3928POPC   GL252058   4.385   8.515   6.008
 3928POPC   C1A52059   4.330   8.186   6.402
 3928POPC   D2A52060   4.550   7.933   6.657
 3928POPC   C3A52061   4.261   7.838   6.964
 3928POPC   C4A52062   4.017   8.135   7.242
 3928POPC   C1B52063   4.102   8.633   6.382
 3928POPC   C2B52064   4.090   8.418   6.801
 3928POPC   C3B52065   4.470   8.290   7.055
 3928POPC   C4B52066   4.547   8.399   7.507
 3929POPC   NC352067  40.748  17.502   5.218
 3929POPC   PO452068  41.016  17.876   5.669
 3929POPC   GL152069  40.703  17.662   5.875
 3929POPC   GL252070  40.675  17.331   5.714
 3929POPC   C1A52071  40.560  17.807   6.281
 3929POPC   D2A52072  40.439  17.765   6.716
 3929POPC   C3A52073  40.726  17.553   6.963
 3929POPC   C4A52074  40.905  17.469   7.347
 3929POPC   C1B52075  40.844  17.252   6.153
 3929POPC   C2B52076  41.052  17.271   6.584
 3929POPC   C3B52077  40.881  17.059   6.964
 3929POPC   C4B52078  40.550  17.097   7.274
 3930POPC   NC352079   9.776  14.950   5.373
 3930POPC   PO452080   9.757  15.569   5.498
 3930POPC   GL152081   9.933  15.196   5.787
 3930POPC   GL252082   9.615  15.005   5.882
 3930POPC   C1A52083  10.018  14.891   6.167
 3930POPC   D2A52084  10.013  14.968   6.634
 3930POPC   C3A52085   9.860  14.902   7.071
 3930POPC   C4A52086   9.971  15.138   7.470
 3930POPC   C1B52087   9.543  15.005   6.361
 3930POPC   C2B52088   9.430  15.024   6.809
 3930POPC   C3B52089   9.480  15.205   7.228
 3930POPC   C4B52090   9.375  15.597   7.439
 3931POPC   NC352091   2.677  34.004   5.641
 3931POPC   PO452092   2.284  33.556   5.378
 3931POPC   GL152093   2.508  33.547   5.766
 3931POPC   GL252094   2.880  33.540   5.781
 3931POPC   C1A52095   2.584  33.718   6.199
 3931POPC   D2A52096   2.769  33.917   6.515
 3931POPC   C3A52097   2.558  33.825   6.848
 3931POPC   C4A52098   2.537  34.076   7.207
 3931POPC   C1B52099   3.097  33.794   6.135
 3931POPC   C2B52100   3.251  34.048   6.530
 3931POPC   C3B52101   3.053  34.007   6.953
 3931POPC   C4B52102   2.894  33.673   7.186
 3932POPC   NC352103   8.765  34.442   5.431
 3932POPC   PO452104   8.584  35.149   5.514
 3932POPC   GL152105   8.888  34.861   5.767
 3932POPC   GL252106   8.736  34.520   5.926
 3932POPC   C1A52107   9.078  34.796   6.195
 3932POPC   D2A52108   8.969  34.636   6.612
 3932POPC   C3A52109   9.189  34.809   6.967
 3932POPC   C4A52110   9.210  34.715   7.442
 3932POPC   C1B52111   8.546  34.876   6.157
 3932POPC   C2B52112   8.608  35.044   6.570
 3932POPC   C3B52113   8.506  34.746   6.894
 3932POPC   C4B52114   8.806  34.493   7.111
 3933POPC   NC352115  34.685   3.201   5.476
 3933POPC   PO452116  34.337   3.792   5.330
 3933POPC   GL152117  34.339   3.785   5.756
 3933POPC   GL252118  34.692   3.733   5.847
 3933POPC   C1A52119  34.255   3.632   6.170
 3933POPC   D2A52120  34.214   3.792   6.562
 3933POPC   C3A52121  34.463   3.623   6.888
 3933POPC   C4A52122  34.547   3.950   7.188
 3933POPC   C1B52123  34.710   3.867   6.310
 3933POPC   C2B52124  34.882   3.954   6.724
 3933POPC   C3B52125  34.933   3.669   7.044
 3933POPC   C4B52126  34.818   3.209   7.073
 3934POPC   NC352127   3.393  29.747   5.362
 3934POPC   PO452128   3.597  30.326   5.297
 3934POPC   GL152129   3.634  30.067   5.709
 3934POPC   GL252130   3.960  29.843   5.718
 3934POPC   C1A52131   3.476  30.046   6.146
 3934POPC   D2A52132   3.293  29.949   6.588
 3934POPC   C3A52133   3.414  30.160   6.942
 3934POPC   C4A52134   3.300  30.113   7.349
 3934POPC   C1B52135   3.907  29.766   6.138
 3934POPC   C2B52136   3.794  29.924   6.557
 3934POPC   C3B52137   3.794  29.802   6.983
 3934POPC   C4B52138   3.789  30.090   7.291
 3935POPC   NC352139  26.870   0.765   5.567
 3935POPC   PO452140  27.198   0.231   5.460
 3935POPC   GL152141  26.979   0.340   5.852
 3935POPC   GL252142  26.625   0.363   5.792
 3935POPC   C1A52143  26.944   0.470   6.282
 3935POPC   D2A52144  27.034   0.737   6.668
 3935POPC   C3A52145  26.991   0.604   7.124
 3935POPC   C4A52146  27.000   0.592   7.617
 3935POPC   C1B52147  26.452   0.505   6.195
 3935POPC   C2B52148  26.532   0.302   6.589
 3935POPC   C3B52149  26.666   0.233   7.002
 3935POPC   C4B52150  26.792   0.195   7.422
 3936POPC   NC352151  23.138  10.403   5.302
 3936POPC   PO452152  22.794  10.954   5.601
 3936POPC   GL152153  22.961  10.654   5.868
 3936POPC   GL252154  22.798  10.355   5.874
 3936POPC   C1A52155  22.951  10.591   6.309
 3936POPC   D2A52156  23.184  10.693   6.651
 3936POPC   C3A52157  23.008  10.618   6.997
 3936POPC   C4A52158  22.968  10.482   7.392
 3936POPC   C1B52159  22.968  10.067   6.188
 3936POPC   C2B52160  23.172  10.160   6.570
 3936POPC   C3B52161  22.999  10.120   6.971
 3936POPC   C4B52162  23.222  10.040   7.293
 3937POPC   NC352163   2.709  39.528   5.484
 3937POPC   PO452164   2.898  38.969   5.263
 3937POPC   GL152165   2.913  39.069   5.711
 3937POPC   GL252166   2.544  39.111   5.747
 3937POPC   C1A52167   2.873  38.980   6.188
 3937POPC   D2A52168   2.883  39.321   6.512
 3937POPC   C3A52169   2.731  39.449   6.925
 3937POPC   C4A52170   2.907  39.340   7.328
 3937POPC   C1B52171   2.528  39.348   6.132
 3937POPC   C2B52172   2.389  39.404   6.546
 3937POPC   C3B52173   2.277  39.191   6.922
 3937POPC   C4B52174   2.401  39.362   7.315
 3938POPC   NC352175  43.456  33.088   5.412
 3938POPC   PO452176  44.150  32.817   5.501
 3938POPC   GL152177  43.834  33.018   5.788
 3938POPC   GL252178  43.574  32.816   5.886
 3938POPC   C1A52179  43.850  33.187   6.215
 3938POPC   D2A52180  43.936  33.016   6.642
 3938POPC   C3A52181  43.839  33.307   6.966
 3938POPC   C4A52182  44.089  33.559   7.206
 3938POPC   C1B52183  43.646  32.724   6.317
 3938POPC   C2B52184  43.529  32.667   6.739
 3938POPC   C3B52185  43.753  32.817   7.104
 3938POPC   C4B52186  43.689  32.876   7.553
 3939POPC   NC352187  38.570   0.682   5.325
 3939POPC   PO452188  38.101   0.181   5.425
 3939POPC   GL152189  38.280   0.428   5.707
 3939POPC   GL252190  38.603   0.288   5.750
 3939POPC   C1A52191  38.324   0.477   6.134
 3939POPC   D2A52192  38.140   0.439   6.511
 3939POPC   C3A52193  38.268   0.245   6.859
 3939POPC   C4A52194  38.222   0.427   7.249
 3939POPC   C1B52195  38.807   0.316   6.168
 3939POPC   C2B52196  38.650   0.449   6.582
 3939POPC   C3B52197  38.722   0.422   7.030
 3939POPC   C4B52198  38.972   0.460   7.398
 3940POPC   NC352199   8.169   4.913   5.223
 3940POPC   PO452200   8.143   5.599   5.430
 3940POPC   GL152201   8.260   5.337   5.745
 3940POPC   GL252202   8.281   4.964   5.727
 3940POPC   C1A52203   8.133   5.213   6.163
 3940POPC   D2A52204   8.454   5.250   6.466
 3940POPC   C3A52205   8.384   5.108   6.863
 3940POPC   C4A52206   8.261   5.032   7.268
 3940POPC   C1B52207   8.420   4.789   6.147
 3940POPC   C2B52208   8.269   4.664   6.593
 3940POPC   C3B52209   8.409   4.621   7.034
 3940POPC   C4B52210   8.353   4.604   7.540
 3941POPC   NC352211  20.266  23.361   5.356
 3941POPC   PO452212  19.777  22.911   5.306
 3941POPC   GL152213  19.714  22.942   5.744
 3941POPC   GL252214  19.837  23.272   5.721
 3941POPC   C1A52215  19.478  23.003   6.121
 3941POPC   D2A52216  19.561  22.855   6.540
 3941POPC   C3A52217  19.736  23.159   6.833
 3941POPC   C4A52218  19.725  23.249   7.286
 3941POPC   C1B52219  19.948  23.218   6.156
 3941POPC   C2B52220  20.192  23.301   6.518
 3941POPC   C3B52221  20.230  23.132   6.919
 3941POPC   C4B52222  20.243  23.290   7.315
 3942POPC   NC352223  38.324  11.839   5.503
 3942POPC   PO452224  38.150  12.468   5.340
 3942POPC   GL152225  38.330  12.445   5.789
 3942POPC   GL252226  38.491  12.123   5.905
 3942POPC   C1A52227  38.339  12.419   6.279
 3942POPC   D2A52228  38.278  12.100   6.609
 3942POPC   C3A52229  38.625  12.196   6.897
 3942POPC   C4A52230  38.634  12.390   7.297
 3942POPC   C1B52231  38.239  11.785   6.152
 3942POPC   C2B52232  38.202  11.562   6.556
 3942POPC   C3B52233  38.325  11.670   7.011
 3942POPC   C4B52234  38.748  11.799   7.209
 3943POPC   NC352235  19.174   8.463   5.094
 3943POPC   PO452236  19.373   8.086   5.614
 3943POPC   GL152237  19.135   7.976   5.935
 3943POPC   GL252238  18.792   7.922   5.822
 3943POPC   C1A52239  19.141   8.143   6.342
 3943POPC   D2A52240  19.003   8.428   6.643
 3943POPC   C3A52241  19.231   8.357   6.994
 3943POPC   C4A52242  19.004   8.466   7.355
 3943POPC   C1B52243  18.544   7.963   6.217
 3943POPC   C2B52244  18.562   7.945   6.672
 3943POPC   C3B52245  18.783   8.124   7.042
 3943POPC   C4B52246  18.738   8.011   7.535
 3944POPC   NC352247  26.306  39.513   5.294
 3944POPC   PO452248  26.228  40.195   5.315
 3944POPC   GL152249  26.387  40.043   5.729
 3944POPC   GL252250  26.243  40.319   5.895
 3944POPC   C1A52251  26.210  39.824   6.107
 3944POPC   D2A52252  26.017  39.608   6.490
 3944POPC   C3A52253  26.090  39.768   6.941
 3944POPC   C4A52254  25.866  39.944   7.348
 3944POPC   C1B52255  26.477  40.274   6.300
 3944POPC   C2B52256  26.463  40.328   6.763
 3944POPC   C3B52257  26.289  40.199   7.186
 3944POPC   C4B52258  26.160  40.268   7.625
 3945POPC   NC352259   6.563   6.073   5.419
 3945POPC   PO452260   6.887   5.426   5.372
 3945POPC   GL152261   6.734   5.713   5.737
 3945POPC   GL252262   6.948   6.065   5.776
 3945POPC   C1A52263   6.452   5.859   6.131
 3945POPC   D2A52264   6.637   5.970   6.552
 3945POPC   C3A52265   6.581   5.835   6.978
 3945POPC   C4A52266   6.665   6.187   7.260
 3945POPC   C1B52267   6.956   5.815   6.165
 3945POPC   C2B52268   7.112   5.751   6.550
 3945POPC   C3B52269   7.072   6.003   6.904
 3945POPC   C4B52270   7.013   5.796   7.281
 3946POPC   NC352271  44.302  25.954   5.607
 3946POPC   PO452272  43.728  26.037   5.441
 3946POPC   GL152273  43.856  25.849   5.833
 3946POPC   GL252274  44.020  26.135   6.008
 3946POPC   C1A52275  43.853  25.737   6.267
 3946POPC   D2A52276  43.898  26.066   6.582
 3946POPC   C3A52277  43.833  25.945   7.014
 3946POPC   C4A52278  43.850  25.974   7.457
 3946POPC   C1B52279  44.345  25.967   6.309
 3946POPC   C2B52280  44.385  26.112   6.749
 3946POPC   C3B52281  44.338  26.071   7.178
 3946POPC   C4B52282  44.108  26.382   7.315
 3947POPC   NC352283  28.744  28.615   5.545
 3947POPC   PO452284  28.082  28.435   5.448
 3947POPC   GL152285  28.330  28.467   5.836
 3947POPC   GL252286  28.443  28.113   5.868
 3947POPC   C1A52287  28.485  28.518   6.282
 3947POPC   D2A52288  28.436  28.203   6.590
 3947POPC   C3A52289  28.242  28.388   6.959
 3947POPC   C4A52290  28.042  28.518   7.336
 3947POPC   C1B52291  28.841  28.226   6.109
 3947POPC   C2B52292  28.946  28.311   6.531
 3947POPC   C3B52293  28.785  28.211   6.958
 3947POPC   C4B52294  28.486  28.148   7.329
 3948POPC   NC352295   0.295  38.990   5.416
 3948POPC   PO452296   0.637  39.572   5.342
 3948POPC   GL152297   0.476  39.371   5.713
 3948POPC   GL252298   0.187  39.538   5.889
 3948POPC   C1A52299   0.567  39.251   6.138
 3948POPC   D2A52300   0.393  39.411   6.518
 3948POPC   C3A52301   0.457  39.200   6.884
 3948POPC   C4A52302   0.316  39.297   7.267
 3948POPC   C1B52303   0.040  39.221   6.188
 3948POPC   C2B52304   0.175  38.936   6.522
 3948POPC   C3B52305   0.008  38.908   6.945
 3948POPC   C4B52306   0.192  38.790   7.301
 3949POPC   NC352307   8.438   0.533   5.352
 3949POPC   PO452308   7.817   0.898   5.565
 3949POPC   GL152309   7.969   0.622   5.887
 3949POPC   GL252310   8.223   0.392   5.795
 3949POPC   C1A52311   7.960   0.394   6.272
 3949POPC   D2A52312   7.952   0.547   6.669
 3949POPC   C3A52313   7.921   0.312   7.021
 3949POPC   C4A52314   8.083   0.469   7.395
 3949POPC   C1B52315   8.426   0.531   6.189
 3949POPC   C2B52316   8.426   0.332   6.607
 3949POPC   C3B52317   8.424   0.497   7.024
 3949POPC   C4B52318   8.639   0.465   7.451
 3950POPC   NC352319  14.425  40.175   5.250
 3950POPC   PO452320  13.948  39.690   5.268
 3950POPC   GL152321  14.161  39.825   5.659
 3950POPC   GL252322  14.248  40.178   5.722
 3950POPC   C1A52323  14.422  39.760   6.012
 3950POPC   D2A52324  14.494  39.861   6.444
 3950POPC   C3A52325  14.384  39.724   6.872
 3950POPC   C4A52326  14.489  39.907   7.267
 3950POPC   C1B52327  14.536  40.257   6.043
 3950POPC   C2B52328  14.477  40.376   6.447
 3950POPC   C3B52329  14.588  40.238   6.852
 3950POPC   C4B52330  14.534  40.418   7.253
 3951POPC   NC352331  20.766  10.225   5.223
 3951POPC   PO452332  20.409  10.737   5.303
 3951POPC   GL152333  20.495  10.701   5.754
 3951POPC   GL252334  20.354  10.367   5.825
 3951POPC   C1A52335  20.715  10.797   6.162
 3951POPC   D2A52336  20.829  10.662   6.574
 3951POPC   C3A52337  20.670  10.757   6.974
 3951POPC   C4A52338  20.601  10.401   7.220
 3951POPC   C1B52339  20.247  10.566   6.224
 3951POPC   C2B52340  20.289  10.545   6.684
 3951POPC   C3B52341  20.126  10.543   7.092
 3951POPC   C4B52342  20.293  10.915   7.285
 3952POPC   NC352343  32.117  18.737   5.475
 3952POPC   PO452344  32.497  18.174   5.477
 3952POPC   GL152345  32.287  18.156   5.855
 3952POPC   GL252346  32.293  18.489   5.888
 3952POPC   C1A52347  32.423  18.174   6.300
 3952POPC   D2A52348  32.567  18.331   6.697
 3952POPC   C3A52349  32.329  18.146   7.045
 3952POPC   C4A52350  32.082  17.971   7.383
 3952POPC   C1B52351  31.949  18.360   6.222
 3952POPC   C2B52352  32.004  18.174   6.637
 3952POPC   C3B52353  31.867  18.336   7.032
 3952POPC   C4B52354  31.904  18.769   7.178
 3953POPC   NC352355  29.030  13.411   5.273
 3953POPC   PO452356  29.411  13.878   5.204
 3953POPC   GL152357  29.112  13.774   5.644
 3953POPC   GL252358  29.039  13.404   5.786
 3953POPC   C1A52359  29.154  13.764   6.137
 3953POPC   D2A52360  29.069  13.871   6.588
 3953POPC   C3A52361  29.351  13.741   6.942
 3953POPC   C4A52362  29.349  13.748   7.378
 3953POPC   C1B52363  28.793  13.417   6.204
 3953POPC   C2B52364  28.622  13.584   6.569
 3953POPC   C3B52365  28.722  13.766   6.970
 3953POPC   C4B52366  28.907  13.545   7.282
 3954POPC   NC352367  37.906  23.186   5.383
 3954POPC   PO452368  37.375  22.664   5.437
 3954POPC   GL152369  37.360  22.905   5.797
 3954POPC   GL252370  37.689  22.985   5.815
 3954POPC   C1A52371  37.212  22.950   6.254
 3954POPC   D2A52372  37.464  22.802   6.625
 3954POPC   C3A52373  37.607  22.893   7.046
 3954POPC   C4A52374  37.517  22.746   7.499
 3954POPC   C1B52375  37.856  23.117   6.214
 3954POPC   C2B52376  37.822  23.290   6.625
 3954POPC   C3B52377  37.824  23.384   7.058
 3954POPC   C4B52378  37.607  23.240   7.423
 3955POPC   NC352379  35.069  23.047   5.447
 3955POPC   PO452380  35.752  22.857   5.166
 3955POPC   GL152381  35.528  22.840   5.612
 3955POPC   GL252382  35.447  23.171   5.777
 3955POPC   C1A52383  35.334  22.747   6.061
 3955POPC   D2A52384  35.235  22.950   6.489
 3955POPC   C3A52385  35.283  22.741   6.898
 3955POPC   C4A52386  35.567  22.896   7.162
 3955POPC   C1B52387  35.111  23.259   6.100
 3955POPC   C2B52388  35.100  23.499   6.503
 3955POPC   C3B52389  34.937  23.402   6.905
 3955POPC   C4B52390  35.094  23.117   7.199
 3956POPC   NC352391   4.907  30.041   5.342
 3956POPC   PO452392   5.493  29.937   5.387
 3956POPC   GL152393   5.236  30.178   5.711
 3956POPC   GL252394   5.175  29.829   5.812
 3956POPC   C1A52395   5.090  30.207   6.152
 3956POPC   D2A52396   4.786  30.013   6.419
 3956POPC   C3A52397   4.840  30.077   6.849
 3956POPC   C4A52398   4.770  29.975   7.273
 3956POPC   C1B52399   5.108  29.661   6.228
 3956POPC   C2B52400   5.219  29.789   6.668
 3956POPC   C3B52401   5.078  29.621   7.090
 3956POPC   C4B52402   4.963  29.612   7.566
 3957POPC   NC352403  29.902  41.329   5.321
 3957POPC   PO452404  29.751  40.686   5.470
 3957POPC   GL152405  29.745  41.020   5.757
 3957POPC   GL252406  29.984  40.811   5.961
 3957POPC   C1A52407  29.665  41.109   6.227
 3957POPC   D2A52408  29.826  40.834   6.584
 3957POPC   C3A52409  29.873  40.973   7.031
 3957POPC   C4A52410  30.095  41.036   7.455
 3957POPC   C1B52411  30.274  40.549   6.233
 3957POPC   C2B52412  30.448  40.346   6.601
 3957POPC   C3B52413  30.303  40.352   6.999
 3957POPC   C4B52414  30.066  40.560   7.295
 3958POPC   NC352415   0.747  17.157   5.595
 3958POPC   PO452416   0.196  17.530   5.462
 3958POPC   GL152417   0.438  17.504   5.831
 3958POPC   GL252418   0.297  17.149   5.844
 3958POPC   C1A52419   0.653  17.732   6.189
 3958POPC   D2A52420   0.952  17.729   6.562
 3958POPC   C3A52421   0.758  17.586   6.938
 3958POPC   C4A52422   0.491  17.732   7.283
 3958POPC   C1B52423   0.482  17.201   6.254
 3958POPC   C2B52424   0.670  17.147   6.662
 3958POPC   C3B52425   0.571  17.131   7.112
 3958POPC   C4B52426   0.774  17.332   7.442
 3959POPC   NC352427  40.517  29.307   5.174
 3959POPC   PO452428  40.996  29.119   5.598
 3959POPC   GL152429  40.890  29.132   5.970
 3959POPC   GL252430  40.603  29.326   5.901
 3959POPC   C1A52431  40.909  29.198   6.409
 3959POPC   D2A52432  41.070  29.224   6.806
 3959POPC   C3A52433  40.838  29.000   7.091
 3959POPC   C4A52434  40.935  28.951   7.511
 3959POPC   C1B52435  40.561  29.543   6.323
 3959POPC   C2B52436  40.583  29.387   6.789
 3959POPC   C3B52437  40.636  29.461   7.232
 3959POPC   C4B52438  40.544  29.409   7.690
 3960POPC   NC352439  40.514  38.963   5.167
 3960POPC   PO452440  40.030  39.304   5.464
 3960POPC   GL152441  40.026  39.186   5.894
 3960POPC   GL252442  39.793  38.923   5.872
 3960POPC   C1A52443  40.220  39.285   6.332
 3960POPC   D2A52444  40.163  39.556   6.719
 3960POPC   C3A52445  40.051  39.413   7.133
 3960POPC   C4A52446  40.012  39.644   7.538
 3960POPC   C1B52447  39.738  39.075   6.309
 3960POPC   C2B52448  39.857  39.117   6.754
 3960POPC   C3B52449  39.754  38.850   7.113
 3960POPC   C4B52450  39.788  38.640   7.510
 3961POPC   NC352451   0.306  29.617   5.403
 3961POPC   PO452452   0.133  30.219   5.143
 3961POPC   GL152453   0.299  30.170   5.618
 3961POPC   GL252454   0.590  29.947   5.683
 3961POPC   C1A52455   0.294  30.048   6.092
 3961POPC   D2A52456   0.478  29.808   6.450
 3961POPC   C3A52457   0.552  29.978   6.884
 3961POPC   C4A52458   0.297  30.060   7.230
 3961POPC   C1B52459   0.651  29.552   5.965
 3961POPC   C2B52460   0.837  29.456   6.387
 3961POPC   C3B52461   0.669  29.458   6.819
 3961POPC   C4B52462   0.591  29.645   7.246
 3962POPC   NC352463  17.897   2.198   5.250
 3962POPC   PO452464  17.580   1.761   5.504
 3962POPC   GL152465  17.620   1.914   5.888
 3962POPC   GL252466  17.742   2.241   5.796
 3962POPC   C1A52467  17.316   1.935   6.248
 3962POPC   D2A52468  17.308   1.728   6.663
 3962POPC   C3A52469  17.726   1.763   6.841
 3962POPC   C4A52470  17.776   2.072   7.167
 3962POPC   C1B52471  17.765   2.214   6.267
 3962POPC   C2B52472  17.530   2.205   6.669
 3962POPC   C3B52473  17.431   2.432   7.056
 3962POPC   C4B52474  17.774   2.596   7.262
 3963POPC   NC352475  26.486   2.392   5.480
 3963POPC   PO452476  26.013   2.982   5.371
 3963POPC   GL152477  26.085   2.797   5.750
 3963POPC   GL252478  25.804   2.579   5.865
 3963POPC   C1A52479  26.113   2.864   6.190
 3963POPC   D2A52480  25.810   2.684   6.483
 3963POPC   C3A52481  25.985   2.823   6.872
 3963POPC   C4A52482  25.772   2.903   7.225
 3963POPC   C1B52483  26.138   2.375   6.093
 3963POPC   C2B52484  26.207   2.386   6.520
 3963POPC   C3B52485  26.001   2.323   6.888
 3963POPC   C4B52486  26.238   2.441   7.212
 3964POPC   NC352487   9.331  32.972   5.151
 3964POPC   PO452488   8.796  32.928   5.569
 3964POPC   GL152489   9.013  32.909   5.968
 3964POPC   GL252490   9.194  33.186   6.081
 3964POPC   C1A52491   9.057  32.685   6.352
 3964POPC   D2A52492   8.901  32.783   6.770
 3964POPC   C3A52493   9.197  32.838   7.068
 3964POPC   C4A52494   9.143  32.916   7.481
 3964POPC   C1B52495   8.990  33.194   6.448
 3964POPC   C2B52496   8.676  33.274   6.729
 3964POPC   C3B52497   8.833  33.192   7.124
 3964POPC   C4B52498   9.269  33.350   7.195
 3965POPC   NC352499  44.686  23.952   5.401
 3965POPC   PO452500  44.817  23.281   5.441
 3965POPC   GL152501  44.654  23.486   5.793
 3965POPC   GL252502  44.375  23.678   5.764
 3965POPC   C1A52503  44.717  23.717   6.180
 3965POPC   D2A52504  44.810  23.912   6.590
 3965POPC   C3A52505  44.843  23.623   6.927
 3965POPC   C4A52506  44.942  23.460   7.329
 3965POPC   C1B52507  44.318  23.411   6.164
 3965POPC   C2B52508  44.368  23.602   6.594
 3965POPC   C3B52509  44.391  23.437   7.034
 3965POPC   C4B52510  44.491  23.815   7.288
 3966POPC   NC352511  40.537  12.301   5.433
 3966POPC   PO452512  41.009  11.815   5.237
 3966POPC   GL152513  40.864  11.811   5.700
 3966POPC   GL252514  40.907  12.171   5.771
 3966POPC   C1A52515  40.785  11.901   6.179
 3966POPC   D2A52516  40.751  12.186   6.533
 3966POPC   C3A52517  40.767  12.005   6.922
 3966POPC   C4A52518  40.672  12.196   7.292
 3966POPC   C1B52519  40.948  12.447   6.124
 3966POPC   C2B52520  41.177  12.516   6.507
 3966POPC   C3B52521  41.029  12.442   6.933
 3966POPC   C4B52522  41.163  12.182   7.229
 3967POPC   NC352523   4.199  26.696   5.492
 3967POPC   PO452524   4.602  27.233   5.683
 3967POPC   GL152525   4.293  26.999   5.944
 3967POPC   GL252526   4.399  26.661   5.960
 3967POPC   C1A52527   4.235  26.940   6.426
 3967POPC   D2A52528   4.413  26.713   6.812
 3967POPC   C3A52529   4.244  26.754   7.234
 3967POPC   C4A52530   4.042  27.112   7.347
 3967POPC   C1B52531   3.971  26.582   6.155
 3967POPC   C2B52532   3.983  26.509   6.611
 3967POPC   C3B52533   3.994  26.359   7.054
 3967POPC   C4B52534   3.938  26.428   7.533
 3968POPC   NC352535  27.738  42.750   4.989
 3968POPC   PO452536  27.403  43.239   5.370
 3968POPC   GL152537  27.418  43.347   5.791
 3968POPC   GL252538  27.742  43.177   5.786
 3968POPC   C1A52539  27.588  43.414   6.206
 3968POPC   D2A52540  27.911  43.440   6.523
 3968POPC   C3A52541  27.712  43.436   6.923
 3968POPC   C4A52542  27.575  43.140   7.238
 3968POPC   C1B52543  27.477  42.920   6.084
 3968POPC   C2B52544  27.293  42.800   6.484
 3968POPC   C3B52545  27.165  42.846   6.921
 3968POPC   C4B52546  27.303  42.646   7.271
 3969POPC   NC352547  32.139  12.217   5.199
 3969POPC   PO452548  32.521  11.645   5.384
 3969POPC   GL152549  32.409  11.786   5.801
 3969POPC   GL252550  32.545  11.652   6.115
 3969POPC   C1A52551  32.376  12.129   6.129
 3969POPC   D2A52552  32.457  11.971   6.548
 3969POPC   C3A52553  32.310  12.139   6.961
 3969POPC   C4A52554  32.554  12.297   7.305
 3969POPC   C1B52555  32.082  11.727   6.240
 3969POPC   C2B52556  31.961  11.829   6.655
 3969POPC   C3B52557  32.070  11.682   7.058
 3969POPC   C4B52558  31.823  11.666   7.427
 3970POPC   NC352559  23.209  44.609   5.581
 3970POPC   PO452560  22.843   0.080   5.297
 3970POPC   GL152561  23.012   0.081   5.707
 3970POPC   GL252562  22.769  44.827   5.789
 3970POPC   C1A52563  23.086   0.007   6.180
 3970POPC   D2A52564  22.847  44.853   6.556
 3970POPC   C3A52565  23.028  44.692   6.947
 3970POPC   C4A52566  23.224  44.852   7.301
 3970POPC   C1B52567  22.735  44.538   6.165
 3970POPC   C2B52568  22.510  44.470   6.559
 3970POPC   C3B52569  22.653  44.335   6.950
 3970POPC   C4B52570  22.544  44.481   7.331
 3971POPC   NC352571  34.277  26.894   5.464
 3971POPC   PO452572  34.923  26.873   5.459
 3971POPC   GL152573  34.684  26.503   5.643
 3971POPC   GL252574  34.331  26.525   5.793
 3971POPC   C1A52575  34.705  26.376   6.095
 3971POPC   D2A52576  34.510  26.677   6.371
 3971POPC   C3A52577  34.596  26.753   6.786
 3971POPC   C4A52578  34.594  27.032   7.128
 3971POPC   C1B52579  34.132  26.855   6.096
 3971POPC   C2B52580  34.010  26.966   6.536
 3971POPC   C3B52581  34.114  26.883   6.971
 3971POPC   C4B52582  34.365  26.582   7.209
 3972POPC   NC352583   8.485  38.177   5.567
 3972POPC   PO452584   9.082  38.450   5.448
 3972POPC   GL152585   8.931  38.394   5.830
 3972POPC   GL252586   8.643  38.562   5.891
 3972POPC   C1A52587   9.003  38.508   6.255
 3972POPC   D2A52588   9.132  38.328   6.642
 3972POPC   C3A52589   9.007  38.525   7.034
 3972POPC   C4A52590   8.621  38.367   7.263
 3972POPC   C1B52591   8.668  38.883   6.202
 3972POPC   C2B52592   8.809  38.804   6.612
 3972POPC   C3B52593   8.579  38.492   6.777
 3972POPC   C4B52594   8.435  38.808   7.054
 3973POPC   NC352595  10.012  23.290   5.440
 3973POPC   PO452596   9.511  22.868   5.290
 3973POPC   GL152597   9.617  22.840   5.757
 3973POPC   GL252598   9.855  23.112   5.919
 3973POPC   C1A52599   9.547  22.838   6.223
 3973POPC   D2A52600   9.803  23.116   6.501
 3973POPC   C3A52601   9.743  22.992   6.934
 3973POPC   C4A52602   9.928  23.147   7.296
 3973POPC   C1B52603  10.044  22.767   6.231
 3973POPC   C2B52604  10.082  22.672   6.691
 3973POPC   C3B52605  10.091  22.671   7.161
 3973POPC   C4B52606  10.155  22.798   7.598
 3974POPC   NC352607  10.273   4.015   5.713
 3974POPC   PO452608  10.569   3.488   5.400
 3974POPC   GL152609  10.568   3.601   5.806
 3974POPC   GL252610  10.787   3.886   5.789
 3974POPC   C1A52611  10.603   3.390   6.205
 3974POPC   D2A52612  10.743   3.478   6.629
 3974POPC   C3A52613  10.458   3.329   6.935
 3974POPC   C4A52614  10.130   3.367   7.233
 3974POPC   C1B52615  10.678   3.893   6.242
 3974POPC   C2B52616  10.498   3.949   6.630
 3974POPC   C3B52617  10.284   3.813   6.969
 3974POPC   C4B52618  10.528   3.667   7.313
 3975POPC   NC352619   7.103  14.315   5.539
 3975POPC   PO452620   7.607  14.128   5.517
 3975POPC   GL152621   7.513  14.348   5.917
 3975POPC   GL252622   7.268  14.633   5.907
 3975POPC   C1A52623   7.643  14.217   6.357
 3975POPC   D2A52624   7.514  14.152   6.814
 3975POPC   C3A52625   7.425  14.564   7.016
 3975POPC   C4A52626   7.368  14.872   7.373
 3975POPC   C1B52627   7.196  14.495   6.338
 3975POPC   C2B52628   7.038  14.363   6.742
 3975POPC   C3B52629   7.050  14.089   7.114
 3975POPC   C4B52630   6.973  14.069   7.580
 3976POPC   NC352631  36.374  25.544   5.478
 3976POPC   PO452632  35.732  25.411   5.253
 3976POPC   GL152633  35.887  25.555   5.651
 3976POPC   GL252634  36.041  25.241   5.770
 3976POPC   C1A52635  36.077  25.624   6.096
 3976POPC   D2A52636  36.254  25.310   6.430
 3976POPC   C3A52637  36.246  25.409   6.876
 3976POPC   C4A52638  36.024  25.409   7.248
 3976POPC   C1B52639  35.831  25.172   6.170
 3976POPC   C2B52640  35.785  25.072   6.592
 3976POPC   C3B52641  35.964  24.977   6.972
 3976POPC   C4B52642  36.009  24.906   7.383
 3977POPC   NC352643   0.228  36.500   5.324
 3977POPC   PO452644   0.574  36.984   5.581
 3977POPC   GL152645   0.221  36.854   5.808
 3977POPC   GL252646   0.119  37.158   6.009
 3977POPC   C1A52647   0.175  36.691   6.194
 3977POPC   D2A52648   0.417  36.766   6.546
 3977POPC   C3A52649   0.221  36.879   6.901
 3977POPC   C4A52650   0.288  36.833   7.282
 3977POPC   C1B52651   0.558  37.144   6.219
 3977POPC   C2B52652   0.839  37.063   6.605
 3977POPC   C3B52653   0.689  37.054   7.035
 3977POPC   C4B52654   0.580  37.217   7.483
 3978POPC   NC352655  29.291  40.559   5.428
 3978POPC   PO452656  28.802  40.971   5.336
 3978POPC   GL152657  29.002  40.847   5.763
 3978POPC   GL252658  29.362  40.723   5.899
 3978POPC   C1A52659  28.968  40.970   6.207
 3978POPC   D2A52660  28.856  41.209   6.592
 3978POPC   C3A52661  28.898  40.929   6.939
 3978POPC   C4A52662  29.293  40.843   7.137
 3978POPC   C1B52663  29.104  40.395   6.084
 3978POPC   C2B52664  28.903  40.384   6.486
 3978POPC   C3B52665  29.091  40.400   6.901
 3978POPC   C4B52666  28.889  40.435   7.304
 3979POPC   NC352667   5.398  24.628   5.521
 3979POPC   PO452668   4.774  24.283   5.524
 3979POPC   GL152669   5.014  24.435   5.818
 3979POPC   GL252670   4.800  24.709   5.947
 3979POPC   C1A52671   5.177  24.432   6.214
 3979POPC   D2A52672   4.876  24.584   6.516
 3979POPC   C3A52673   4.934  24.368   6.894
 3979POPC   C4A52674   5.272  24.305   7.113
 3979POPC   C1B52675   5.109  24.930   6.204
 3979POPC   C2B52676   5.309  24.843   6.613
 3979POPC   C3B52677   5.155  24.811   7.038
 3979POPC   C4B52678   4.706  24.710   7.188
 3980POPC   NC352679  39.606  18.635   5.400
 3980POPC   PO452680  39.551  19.346   5.432
 3980POPC   GL152681  39.406  19.256   5.822
 3980POPC   GL252682  39.305  18.910   5.737
 3980POPC   C1A52683  39.234  19.241   6.241
 3980POPC   D2A52684  39.097  19.401   6.669
 3980POPC   C3A52685  39.341  19.234   7.008
 3980POPC   C4A52686  39.457  18.921   7.308
 3980POPC   C1B52687  39.112  18.744   6.125
 3980POPC   C2B52688  39.047  18.882   6.559
 3980POPC   C3B52689  38.901  18.962   6.960
 3980POPC   C4B52690  38.846  18.584   7.155
 3981POPC   NC352691  26.538  13.786   5.375
 3981POPC   PO452692  25.924  13.459   5.365
 3981POPC   GL152693  26.084  13.476   5.786
 3981POPC   GL252694  26.310  13.198   5.883
 3981POPC   C1A52695  25.958  13.631   6.203
 3981POPC   D2A52696  25.958  13.421   6.590
 3981POPC   C3A52697  25.857  13.642   6.956
 3981POPC   C4A52698  26.166  13.866   7.232
 3981POPC   C1B52699  26.399  13.343   6.294
 3981POPC   C2B52700  26.422  13.267   6.743
 3981POPC   C3B52701  26.285  13.365   7.152
 3981POPC   C4B52702  26.510  13.613   7.504
 3982POPC   NC352703  35.126  18.516   5.513
 3982POPC   PO452704  35.531  18.021   5.569
 3982POPC   GL152705  35.404  18.184   5.921
 3982POPC   GL252706  35.062  18.138   5.928
 3982POPC   C1A52707  35.618  18.285   6.296
 3982POPC   D2A52708  35.484  18.368   6.697
 3982POPC   C3A52709  35.673  18.295   7.062
 3982POPC   C4A52710  35.438  17.921   7.023
 3982POPC   C1B52711  35.134  18.443   6.299
 3982POPC   C2B52712  35.061  18.661   6.703
 3982POPC   C3B52713  35.167  18.451   7.116
 3982POPC   C4B52714  35.042  18.497   7.575
 3983POPC   NC352715  16.457  44.393   5.407
 3983POPC   PO452716  16.974  44.740   5.018
 3983POPC   GL152717  16.878  44.625   5.598
 3983POPC   GL252718  16.579  44.703   5.808
 3983POPC   C1A52719  16.935  44.614   6.122
 3983POPC   D2A52720  16.705  44.456   6.522
 3983POPC   C3A52721  16.878  44.454   6.970
 3983POPC   C4A52722  17.082  44.566   7.410
 3983POPC   C1B52723  16.424  44.829   6.214
 3983POPC   C2B52724  16.210  44.942   6.600
 3983POPC   C3B52725  16.311  44.785   7.007
 3983POPC   C4B52726  16.588  44.693   7.339
 3984POPC   NC352727  33.497   2.300   5.371
 3984POPC   PO452728  33.985   1.898   5.242
 3984POPC   GL152729  33.885   1.992   5.682
 3984POPC   GL252730  33.584   1.948   5.760
 3984POPC   C1A52731  33.894   1.927   6.142
 3984POPC   D2A52732  34.125   2.112   6.500
 3984POPC   C3A52733  33.907   2.084   6.885
 3984POPC   C4A52734  33.652   2.140   7.242
 3984POPC   C1B52735  33.378   1.923   6.137
 3984POPC   C2B52736  33.565   1.885   6.520
 3984POPC   C3B52737  33.441   1.838   6.885
 3984POPC   C4B52738  33.329   1.680   7.262
 3985POPC   NC352739  26.866  42.238   5.057
 3985POPC   PO452740  26.443  42.446   5.553
 3985POPC   GL152741  26.813  42.349   5.769
 3985POPC   GL252742  26.950  42.000   5.743
 3985POPC   C1A52743  26.836  42.324   6.200
 3985POPC   D2A52744  26.653  42.197   6.582
 3985POPC   C3A52745  26.746  42.444   6.952
 3985POPC   C4A52746  26.505  42.289   7.325
 3985POPC   C1B52747  27.244  42.006   6.093
 3985POPC   C2B52748  27.181  42.119   6.525
 3985POPC   C3B52749  27.034  42.024   6.921
 3985POPC   C4B52750  27.043  42.229   7.297
 3986POPC   NC352751   8.953  14.383   5.515
 3986POPC   PO452752   9.533  14.550   5.380
 3986POPC   GL152753   9.386  14.321   5.790
 3986POPC   GL252754   9.462  13.989   5.887
 3986POPC   C1A52755   9.140  14.317   6.205
 3986POPC   D2A52756   9.161  14.561   6.624
 3986POPC   C3A52757   8.998  14.385   7.050
 3986POPC   C4A52758   8.940  14.643   7.453
 3986POPC   C1B52759   9.515  14.007   6.324
 3986POPC   C2B52760   9.286  14.076   6.707
 3986POPC   C3B52761   9.428  14.071   7.113
 3986POPC   C4B52762   9.276  14.253   7.476
 3987POPC   NC352763   6.391  40.914   5.428
 3987POPC   PO452764   6.912  40.627   5.241
 3987POPC   GL152765   6.837  40.491   5.705
 3987POPC   GL252766   6.561  40.705   5.876
 3987POPC   C1A52767   6.966  40.467   6.168
 3987POPC   D2A52768   6.825  40.467   6.623
 3987POPC   C3A52769   6.876  40.479   7.066
 3987POPC   C4A52770   6.907  40.847   7.310
 3987POPC   C1B52771   6.446  40.512   6.285
 3987POPC   C2B52772   6.307  40.557   6.758
 3987POPC   C3B52773   6.403  40.669   7.210
 3987POPC   C4B52774   6.467  40.793   7.653
 3988POPC   NC352775   1.175  31.740   5.398
 3988POPC   PO452776   1.065  31.100   5.290
 3988POPC   GL152777   1.039  31.308   5.741
 3988POPC   GL252778   1.000  31.645   5.881
 3988POPC   C1A52779   1.247  31.318   6.174
 3988POPC   D2A52780   1.519  31.467   6.535
 3988POPC   C3A52781   1.410  31.359   6.952
 3988POPC   C4A52782   1.064  31.287   7.195
 3988POPC   C1B52783   0.959  31.699   6.338
 3988POPC   C2B52784   0.988  31.599   6.780
 3988POPC   C3B52785   1.042  31.802   7.199
 3988POPC   C4B52786   0.990  31.721   7.669
 3989POPC   NC352787  30.957  15.073   5.437
 3989POPC   PO452788  30.349  15.444   5.392
 3989POPC   GL152789  30.580  15.269   5.731
 3989POPC   GL252790  30.868  15.463   5.758
 3989POPC   C1A52791  30.632  14.955   6.062
 3989POPC   D2A52792  30.683  14.879   6.506
 3989POPC   C3A52793  30.524  15.145   6.849
 3989POPC   C4A52794  30.823  15.189   7.189
 3989POPC   C1B52795  30.733  15.646   6.173
 3989POPC   C2B52796  30.781  15.557   6.606
 3989POPC   C3B52797  30.931  15.652   7.021
 3989POPC   C4B52798  30.703  15.595   7.461
 3990POPC   NC352799  24.497   8.331   5.186
 3990POPC   PO452800  24.215   7.743   5.426
 3990POPC   GL152801  24.352   8.101   5.702
 3990POPC   GL252802  24.069   8.093   5.932
 3990POPC   C1A52803  24.431   8.415   6.099
 3990POPC   D2A52804  24.488   8.278   6.561
 3990POPC   C3A52805  24.632   8.430   6.984
 3990POPC   C4A52806  24.683   8.172   7.389
 3990POPC   C1B52807  24.399   7.895   6.181
 3990POPC   C2B52808  24.469   7.773   6.603
 3990POPC   C3B52809  24.461   7.914   7.009
 3990POPC   C4B52810  24.458   7.687   7.382
 3991POPC   NC352811  26.441   3.091   5.448
 3991POPC   PO452812  26.945   2.624   5.423
 3991POPC   GL152813  26.857   2.469   5.837
 3991POPC   GL252814  26.608   2.762   5.839
 3991POPC   C1A52815  26.633   2.485   6.255
 3991POPC   D2A52816  26.502   2.798   6.577
 3991POPC   C3A52817  26.647   2.670   6.988
 3991POPC   C4A52818  27.062   2.616   7.171
 3991POPC   C1B52819  26.934   2.880   6.176
 3991POPC   C2B52820  26.997   3.009   6.629
 3991POPC   C3B52821  26.931   3.101   7.074
 3991POPC   C4B52822  26.635   3.035   7.411
 3992POPC   NC352823  29.732  17.515   5.477
 3992POPC   PO452824  30.409  17.421   5.641
 3992POPC   GL152825  30.047  17.553   5.879
 3992POPC   GL252826  29.822  17.270   5.942
 3992POPC   C1A52827  29.897  17.748   6.266
 3992POPC   D2A52828  30.077  17.943   6.653
 3992POPC   C3A52829  30.144  17.624   6.926
 3992POPC   C4A52830  29.876  17.530   7.264
 3992POPC   C1B52831  30.204  17.214   6.239
 3992POPC   C2B52832  30.375  17.044   6.630
 3992POPC   C3B52833  30.220  17.126   7.070
 3992POPC   C4B52834  30.201  17.238   7.527
 3993POPC   NC352835  15.143  18.123   5.420
 3993POPC   PO452836  15.287  18.701   5.563
 3993POPC   GL152837  15.248  18.378   5.880
 3993POPC   GL252838  15.293  17.992   5.886
 3993POPC   C1A52839  15.066  18.240   6.276
 3993POPC   D2A52840  15.037  18.228   6.717
 3993POPC   C3A52841  15.430  18.272   6.918
 3993POPC   C4A52842  15.267  18.128   7.289
 3993POPC   C1B52843  15.093  17.726   6.236
 3993POPC   C2B52844  14.885  17.731   6.661
 3993POPC   C3B52845  15.002  17.720   7.123
 3993POPC   C4B52846  14.945  17.891   7.588
 3994POPC   NC352847  16.933  19.958   5.521
 3994POPC   PO452848  16.713  19.419   5.208
 3994POPC   GL152849  16.674  19.587   5.743
 3994POPC   GL252850  16.570  20.008   5.855
 3994POPC   C1A52851  16.634  19.698   6.243
 3994POPC   D2A52852  16.542  19.941   6.672
 3994POPC   C3A52853  16.845  19.871   7.005
 3994POPC   C4A52854  16.905  19.602   7.347
 3994POPC   C1B52855  16.324  20.092   6.216
 3994POPC   C2B52856  16.303  20.370   6.536
 3994POPC   C3B52857  16.139  20.283   6.925
 3994POPC   C4B52858  16.469  20.176   7.186
 3995POPC   NC352859   9.917  16.774   5.517
 3995POPC   PO452860   9.323  16.750   5.536
 3995POPC   GL152861   9.635  16.641   5.917
 3995POPC   GL252862   9.945  16.403   5.950
 3995POPC   C1A52863   9.845  16.713   6.341
 3995POPC   D2A52864   9.905  16.488   6.745
 3995POPC   C3A52865   9.683  16.697   7.110
 3995POPC   C4A52866   9.541  16.634   7.546
 3995POPC   C1B52867  10.282  16.445   6.319
 3995POPC   C2B52868  10.312  16.777   6.641
 3995POPC   C3B52869  10.203  16.723   7.093
 3995POPC   C4B52870  10.004  16.853   7.477
 3996POPC   NC352871  26.098   8.247   5.167
 3996POPC   PO452872  25.479   8.073   5.511
 3996POPC   GL152873  25.760   8.272   5.823
 3996POPC   GL252874  26.098   8.381   5.673
 3996POPC   C1A52875  25.845   8.183   6.283
 3996POPC   D2A52876  25.893   7.976   6.714
 3996POPC   C3A52877  26.117   8.110   7.096
 3996POPC   C4A52878  26.007   8.359   7.442
 3996POPC   C1B52879  26.093   8.608   6.063
 3996POPC   C2B52880  25.929   8.623   6.502
 3996POPC   C3B52881  25.914   8.564   6.953
 3996POPC   C4B52882  25.619   8.665   7.288
 3997POPC   NC352883   8.777  38.843   5.481
 3997POPC   PO452884   8.996  39.439   5.568
 3997POPC   GL152885   9.014  39.119   5.898
 3997POPC   GL252886   9.192  38.830   5.805
 3997POPC   C1A52887   9.054  39.187   6.353
 3997POPC   D2A52888   8.774  39.340   6.697
 3997POPC   C3A52889   8.889  39.316   7.146
 3997POPC   C4A52890   8.894  39.293   7.619
 3997POPC   C1B52891   9.454  38.721   6.139
 3997POPC   C2B52892   9.333  38.804   6.560
 3997POPC   C3B52893   9.264  39.031   6.930
 3997POPC   C4B52894   9.208  38.971   7.374
 3998POPC   NC352895  21.564  22.128   5.425
 3998POPC   PO452896  21.026  21.767   5.492
 3998POPC   GL152897  21.256  22.064   5.835
 3998POPC   GL252898  21.559  22.326   5.874
 3998POPC   C1A52899  21.327  22.054   6.296
 3998POPC   D2A52900  21.081  22.081   6.696
 3998POPC   C3A52901  21.403  22.051   7.011
 3998POPC   C4A52902  21.538  21.960   7.424
 3998POPC   C1B52903  21.389  22.543   6.209
 3998POPC   C2B52904  21.424  22.455   6.651
 3998POPC   C3B52905  21.435  22.554   7.070
 3998POPC   C4B52906  21.456  22.456   7.499
 3999POPC   NC352907   0.052  22.430   5.566
 3999POPC   PO452908   0.571  21.968   5.419
 3999POPC   GL152909   0.330  22.071   5.793
 3999POPC   GL252910  44.956  21.980   5.763
 3999POPC   C1A52911   0.448  22.378   6.146
 3999POPC   D2A52912   0.720  22.483   6.527
 3999POPC   C3A52913   0.770  22.133   6.823
 3999POPC   C4A52914   0.489  22.119   7.154
 3999POPC   C1B52915  44.973  22.165   6.174
 3999POPC   C2B52916   0.137  22.327   6.573
 3999POPC   C3B52917   0.040  22.119   6.944
 3999POPC   C4B52918  44.887  21.770   7.134
 4000POPC   NC352919  26.803  15.332   5.314
 4000POPC   PO452920  27.242  14.941   5.638
 4000POPC   GL152921  26.858  15.057   5.858
 4000POPC   GL252922  26.561  15.262   5.770
 4000POPC   C1A52923  26.756  15.190   6.267
 4000POPC   D2A52924  27.030  15.261   6.629
 4000POPC   C3A52925  26.826  15.172   6.974
 4000POPC   C4A52926  26.522  15.056   7.253
 4000POPC   C1B52927  26.431  15.547   6.107
 4000POPC   C2B52928  26.272  15.521   6.519
 4000POPC   C3B52929  26.468  15.549   6.903
 4000POPC   C4B52930  26.626  15.561   7.278
 4001POPC   NC352931   0.904  22.720   5.570
 4001POPC   PO452932   0.812  23.381   5.462
 4001POPC   GL152933   1.034  23.309   5.828
 4001POPC   GL252934   1.286  23.038   5.774
 4001POPC   C1A52935   1.250  23.238   6.234
 4001POPC   D2A52936   1.180  23.020   6.623
 4001POPC   C3A52937   1.243  23.189   7.039
 4001POPC   C4A52938   1.161  22.885   7.360
 4001POPC   C1B52939   1.586  22.859   6.118
 4001POPC   C2B52940   1.663  22.811   6.577
 4001POPC   C3B52941   1.535  22.703   7.020
 4001POPC   C4B52942   1.512  22.536   7.466
 4002POPC   NC352943  24.387   1.540   5.268
 4002POPC   PO452944  24.567   0.855   5.420
 4002POPC   GL152945  24.417   1.064   5.808
 4002POPC   GL252946  24.318   1.425   5.797
 4002POPC   C1A52947  24.315   0.910   6.210
 4002POPC   D2A52948  24.177   1.015   6.627
 4002POPC   C3A52949  24.550   1.082   6.886
 4002POPC   C4A52950  24.687   1.399   7.195
 4002POPC   C1B52951  24.119   1.668   6.140
 4002POPC   C2B52952  24.126   1.529   6.557
 4002POPC   C3B52953  24.202   1.589   6.966
 4002POPC   C4B52954  24.261   1.660   7.390
 4003POPC   NC352955   4.566  31.804   5.650
 4003POPC   PO452956   3.943  31.665   5.711
 4003POPC   GL152957   4.229  31.507   5.961
 4003POPC   GL252958   4.521  31.295   5.817
 4003POPC   C1A52959   4.047  31.394   6.355
 4003POPC   D2A52960   3.875  31.273   6.761
 4003POPC   C3A52961   4.127  31.450   7.084
 4003POPC   C4A52962   4.503  31.636   7.159
 4003POPC   C1B52963   4.598  31.417   6.279
 4003POPC   C2B52964   4.429  31.292   6.674
 4003POPC   C3B52965   4.611  31.148   7.009
 4003POPC   C4B52966   4.917  31.309   7.239
 4004POPC   NC352967   4.867  11.119   5.532
 4004POPC   PO452968   4.624  11.545   5.061
 4004POPC   GL152969   4.441  11.441   5.579
 4004POPC   GL252970   4.424  11.106   5.780
 4004POPC   C1A52971   4.406  11.497   6.085
 4004POPC   D2A52972   4.365  11.364   6.514
 4004POPC   C3A52973   4.288  11.486   6.935
 4004POPC   C4A52974   4.140  11.282   7.281
 4004POPC   C1B52975   4.607  11.039   6.219
 4004POPC   C2B52976   4.731  11.044   6.687
 4004POPC   C3B52977   4.637  11.148   7.138
 4004POPC   C4B52978   4.512  11.128   7.570
 4005POPC   NC352979  44.650  13.200   5.500
 4005POPC   PO452980  44.902  12.534   5.336
 4005POPC   GL152981  44.608  12.688   5.706
 4005POPC   GL252982  44.297  12.957   5.752
 4005POPC   C1A52983  44.543  12.792   6.160
 4005POPC   D2A52984  44.574  13.034   6.543
 4005POPC   C3A52985  44.612  12.848   6.939
 4005POPC   C4A52986  44.404  12.708   7.267
 4005POPC   C1B52987  44.292  13.224   6.143
 4005POPC   C2B52988  44.123  13.264   6.597
 4005POPC   C3B52989  44.270  13.200   7.037
 4005POPC   C4B52990  44.418  13.165   7.488
 4006POPC   NC352991  17.099  42.892   5.398
 4006POPC   PO452992  16.413  43.005   5.479
 4006POPC   GL152993  16.591  42.872   5.858
 4006POPC   GL252994  16.942  42.757   5.896
 4006POPC   C1A52995  16.722  43.234   6.108
 4006POPC   D2A52996  16.889  43.388   6.504
 4006POPC   C3A52997  16.759  43.089   6.822
 4006POPC   C4A52998  16.604  43.180   7.213
 4006POPC   C1B52999  17.120  42.969   6.294
 4006POPC   C2B53000  17.270  43.129   6.714
 4006POPC   C3B53001  17.171  43.185   7.126
 4006POPC   C4B53002  16.994  42.857   7.313
 4007POPC   NC353003   7.263  32.431   5.379
 4007POPC   PO453004   7.559  31.761   5.330
 4007POPC   GL153005   7.441  31.864   5.783
 4007POPC   GL253006   7.247  32.175   5.815
 4007POPC   C1A53007   7.322  31.935   6.255
 4007POPC   D2A53008   7.167  32.204   6.595
 4007POPC   C3A53009   7.384  32.213   6.998
 4007POPC   C4A53010   7.443  32.099   7.461
 4007POPC   C1B53011   7.648  32.270   6.050
 4007POPC   C2B53012   7.682  32.291   6.524
 4007POPC   C3B53013   7.832  32.481   6.953
 4007POPC   C4B53014   7.661  32.554   7.389
 4008POPC   NC353015  13.806  20.613   5.550
 4008POPC   PO453016  13.273  20.272   5.267
 4008POPC   GL153017  13.360  20.400   5.751
 4008POPC   GL253018  13.695  20.349   5.960
 4008POPC   C1A53019  13.319  20.583   6.195
 4008POPC   D2A53020  13.472  20.371   6.573
 4008POPC   C3A53021  13.352  20.449   7.028
 4008POPC   C4A53022  13.694  20.432   7.376
 4008POPC   C1B53023  13.817  20.710   6.200
 4008POPC   C2B53024  13.691  20.834   6.573
 4008POPC   C3B53025  13.706  20.806   6.991
 4008POPC   C4B53026  14.014  20.908   7.267
 4009POPC   NC353027  27.493  11.294   5.287
 4009POPC   PO453028  28.001  10.882   5.406
 4009POPC   GL153029  27.782  11.228   5.739
 4009POPC   GL253030  27.436  11.131   5.792
 4009POPC   C1A53031  27.562  11.515   6.103
 4009POPC   D2A53032  27.408  11.734   6.528
 4009POPC   C3A53033  27.441  11.510   6.952
 4009POPC   C4A53034  27.507  11.451   7.418
 4009POPC   C1B53035  27.565  11.001   6.230
 4009POPC   C2B53036  27.667  11.111   6.680
 4009POPC   C3B53037  27.503  11.009   7.110
 4009POPC   C4B53038  27.352  10.966   7.571
 4010POPC   NC353039  38.309   5.500   5.139
 4010POPC   PO453040  38.757   4.955   5.364
 4010POPC   GL153041  38.604   5.284   5.652
 4010POPC   GL253042  38.245   5.365   5.664
 4010POPC   C1A53043  38.584   5.433   6.080
 4010POPC   D2A53044  38.320   5.514   6.440
 4010POPC   C3A53045  38.519   5.349   6.809
 4010POPC   C4A53046  38.418   5.343   7.217
 4010POPC   C1B53047  38.172   5.122   6.068
 4010POPC   C2B53048  38.306   4.987   6.491
 4010POPC   C3B53049  38.190   4.998   6.930
 4010POPC   C4B53050  38.265   4.874   7.346
 4011POPC   NC353051  21.001  43.973   5.434
 4011POPC   PO453052  21.637  43.801   5.445
 4011POPC   GL153053  21.395  43.889   5.781
 4011POPC   GL253054  21.296  44.214   5.754
 4011POPC   C1A53055  21.389  43.917   6.222
 4011POPC   D2A53056  21.201  43.829   6.621
 4011POPC   C3A53057  21.479  43.849   6.948
 4011POPC   C4A53058  21.594  43.469   7.198
 4011POPC   C1B53059  20.950  44.129   6.077
 4011POPC   C2B53060  20.858  44.193   6.538
 4011POPC   C3B53061  20.940  44.104   7.004
 4011POPC   C4B53062  21.260  44.050   7.367
 4012POPC   NC353063   7.978  38.969   5.468
 4012POPC   PO453064   8.269  39.536   5.539
 4012POPC   GL153065   8.134  39.293   5.861
 4012POPC   GL253066   8.308  38.968   5.860
 4012POPC   C1A53067   8.287  39.256   6.282
 4012POPC   D2A53068   8.119  39.374   6.654
 4012POPC   C3A53069   8.367  39.410   7.030
 4012POPC   C4A53070   8.464  39.176   7.392
 4012POPC   C1B53071   7.935  38.894   6.139
 4012POPC   C2B53072   7.776  38.888   6.567
 4012POPC   C3B53073   7.959  39.015   6.973
 4012POPC   C4B53074   7.965  39.274   7.336
 4013POPC   NC353075  34.090  42.841   5.591
 4013POPC   PO453076  33.446  43.062   5.665
 4013POPC   GL153077  33.811  43.190   5.833
 4013POPC   GL253078  33.813  43.561   5.756
 4013POPC   C1A53079  34.069  43.019   6.208
 4013POPC   D2A53080  34.166  42.856   6.608
 4013POPC   C3A53081  33.913  43.073   6.905
 4013POPC   C4A53082  33.900  43.142   7.324
 4013POPC   C1B53083  33.938  43.507   6.183
 4013POPC   C2B53084  33.737  43.321   6.492
 4013POPC   C3B53085  33.515  43.412   6.839
 4013POPC   C4B53086  33.335  43.258   7.193
 4014POPC   NC353087  40.420   9.606   5.274
 4014POPC   PO453088  39.772   9.834   5.358
 4014POPC   GL153089  40.062   9.837   5.684
 4014POPC   GL253090  39.780   9.645   5.851
 4014POPC   C1A53091  40.205   9.728   6.108
 4014POPC   D2A53092  40.299   9.531   6.517
 4014POPC   C3A53093  40.267   9.687   6.937
 4014POPC   C4A53094  40.167   9.894   7.301
 4014POPC   C1B53095  39.793   9.539   6.310
 4014POPC   C2B53096  39.913   9.864   6.628
 4014POPC   C3B53097  39.724   9.871   7.065
 4014POPC   C4B53098  39.767  10.045   7.556
 4015POPC   NC353099   2.544  11.968   5.478
 4015POPC   PO453100   3.055  11.561   5.465
 4015POPC   GL153101   2.958  11.941   5.745
 4015POPC   GL253102   2.775  11.759   5.915
 4015POPC   C1A53103   2.663  12.158   6.157
 4015POPC   D2A53104   2.719  12.027   6.604
 4015POPC   C3A53105   2.730  12.181   7.027
 4015POPC   C4A53106   2.768  12.256   7.505
 4015POPC   C1B53107   2.525  11.670   6.286
 4015POPC   C2B53108   2.265  11.730   6.634
 4015POPC   C3B53109   2.430  11.729   7.003
 4015POPC   C4B53110   2.388  11.995   7.334
 4016POPC   NC353111  16.623  32.024   5.544
 4016POPC   PO453112  16.952  32.628   5.512
 4016POPC   GL153113  16.841  32.387   5.845
 4016POPC   GL253114  16.530  32.555   5.840
 4016POPC   C1A53115  16.977  32.285   6.271
 4016POPC   D2A53116  16.848  32.606   6.586
 4016POPC   C3A53117  16.626  32.414   6.907
 4016POPC   C4A53118  16.806  32.032   7.056
 4016POPC   C1B53119  16.494  32.349   6.220
 4016POPC   C2B53120  16.589  32.020   6.534
 4016POPC   C3B53121  16.332  31.956   6.887
 4016POPC   C4B53122  16.337  32.162   7.281
 4017POPC   NC353123   3.255  29.020   5.506
 4017POPC   PO453124   3.778  29.486   5.406
 4017POPC   GL153125   3.731  29.375   5.849
 4017POPC   GL253126   3.442  29.580   5.858
 4017POPC   C1A53127   3.724  29.091   6.259
 4017POPC   D2A53128   3.457  28.812   6.565
 4017POPC   C3A53129   3.384  28.985   7.001
 4017POPC   C4A53130   3.604  29.320   7.235
 4017POPC   C1B53131   3.479  29.547   6.301
 4017POPC   C2B53132   3.488  29.470   6.735
 4017POPC   C3B53133   3.253  29.666   7.081
 4017POPC   C4B53134   3.266  29.603   7.539
 4018POPC   NC353135  12.468  43.697   5.220
 4018POPC   PO453136  12.689  44.290   5.359
 4018POPC   GL153137  12.845  44.057   5.723
 4018POPC   GL253138  12.684  43.734   5.829
 4018POPC   C1A53139  12.903  44.081   6.173
 4018POPC   D2A53140  12.675  43.827   6.503
 4018POPC   C3A53141  12.802  43.825   6.943
 4018POPC   C4A53142  12.805  44.131   7.252
 4018POPC   C1B53143  12.999  43.580   6.153
 4018POPC   C2B53144  13.108  43.542   6.607
 4018POPC   C3B53145  13.139  43.430   7.069
 4018POPC   C4B53146  13.005  43.700   7.437
 4019POPC   NC353147  22.576   1.205   5.034
 4019POPC   PO453148  23.122   1.246   5.475
 4019POPC   GL153149  22.787   1.346   5.777
 4019POPC   GL253150  22.716   1.010   5.887
 4019POPC   C1A53151  22.832   1.512   6.213
 4019POPC   D2A53152  23.134   1.383   6.557
 4019POPC   C3A53153  22.982   1.178   6.923
 4019POPC   C4A53154  22.680   1.378   7.149
 4019POPC   C1B53155  22.551   0.777   6.225
 4019POPC   C2B53156  22.558   0.997   6.599
 4019POPC   C3B53157  22.359   1.034   6.973
 4019POPC   C4B53158  22.450   0.974   7.370
 4020POPC   NC353159  33.500   6.853   5.561
 4020POPC   PO453160  34.116   6.582   5.340
 4020POPC   GL153161  33.982   6.648   5.739
 4020POPC   GL253162  33.723   6.406   5.734
 4020POPC   C1A53163  33.919   6.897   6.120
 4020POPC   D2A53164  33.891   6.740   6.529
 4020POPC   C3A53165  33.847   6.923   6.899
 4020POPC   C4A53166  33.992   6.779   7.290
 4020POPC   C1B53167  33.797   6.371   6.170
 4020POPC   C2B53168  33.733   6.266   6.610
 4020POPC   C3B53169  33.691   6.422   7.036
 4020POPC   C4B53170  33.604   6.493   7.468
 4021POPC   NC353171   6.898   0.073   5.326
 4021POPC   PO453172   6.531   0.605   5.295
 4021POPC   GL153173   6.522   0.319   5.642
 4021POPC   GL253174   6.865   0.356   5.794
 4021POPC   C1A53175   6.445   0.308   6.092
 4021POPC   D2A53176   6.498   0.564   6.449
 4021POPC   C3A53177   6.584   0.403   6.837
 4021POPC   C4A53178   6.633   0.308   7.241
 4021POPC   C1B53179   6.951   0.650   6.180
 4021POPC   C2B53180   6.911   0.752   6.659
 4021POPC   C3B53181   7.067   0.483   7.017
 4021POPC   C4B53182   7.091   0.414   7.481
 4022POPC   NC353183  25.215   4.228   5.319
 4022POPC   PO453184  25.648   4.009   5.738
 4022POPC   GL153185  25.298   4.162   5.926
 4022POPC   GL253186  25.001   4.288   5.780
 4022POPC   C1A53187  25.240   4.508   6.198
 4022POPC   D2A53188  25.163   4.657   6.607
 4022POPC   C3A53189  25.203   4.353   6.917
 4022POPC   C4A53190  25.489   4.222   7.252
 4022POPC   C1B53191  24.821   4.216   6.169
 4022POPC   C2B53192  24.738   4.343   6.580
 4022POPC   C3B53193  24.738   4.151   6.997
 4022POPC   C4B53194  24.953   4.323   7.362
 4023POPC   NC353195   3.877  31.209   5.706
 4023POPC   PO453196   3.453  31.447   5.286
 4023POPC   GL153197   3.393  31.457   5.759
 4023POPC   GL253198   3.440  31.107   5.920
 4023POPC   C1A53199   3.537  31.531   6.205
 4023POPC   D2A53200   3.722  31.755   6.579
 4023POPC   C3A53201   3.564  31.628   6.987
 4023POPC   C4A53202   3.319  31.527   7.371
 4023POPC   C1B53203   3.657  31.007   6.282
 4023POPC   C2B53204   3.420  31.082   6.596
 4023POPC   C3B53205   3.404  31.142   7.014
 4023POPC   C4B53206   3.739  31.211   7.282
 4024POPC   NC353207  37.982  44.050   5.224
 4024POPC   PO453208  37.508  43.746   5.390
 4024POPC   GL153209  37.795  43.916   5.739
 4024POPC   GL253210  37.943  43.638   5.922
 4024POPC   C1A53211  37.904  44.085   6.199
 4024POPC   D2A53212  37.669  44.206   6.624
 4024POPC   C3A53213  37.799  44.066   7.032
 4024POPC   C4A53214  37.783  44.222   7.436
 4024POPC   C1B53215  37.586  43.697   6.259
 4024POPC   C2B53216  37.551  43.718   6.736
 4024POPC   C3B53217  37.758  43.580   7.158
 4024POPC   C4B53218  37.732  43.380   7.587
 4025POPC   NC353219  18.253  20.717   5.319
 4025POPC   PO453220  18.927  20.814   5.322
 4025POPC   GL153221  18.923  20.612   5.735
 4025POPC   GL253222  19.210  20.369   5.716
 4025POPC   C1A53223  18.774  20.660   6.176
 4025POPC   D2A53224  19.031  20.793   6.543
 4025POPC   C3A53225  19.106  20.698   6.987
 4025POPC   C4A53226  19.188  21.053   7.265
 4025POPC   C1B53227  19.247  20.471   6.165
 4025POPC   C2B53228  19.214  20.295   6.577
 4025POPC   C3B53229  19.401  20.286   6.976
 4025POPC   C4B53230  19.296  20.169   7.385
 4026POPC   NC353231  36.465  44.591   5.426
 4026POPC   PO453232  35.875  44.903   5.314
 4026POPC   GL153233  36.018  44.678   5.754
 4026POPC   GL253234  36.346  44.706   5.883
 4026POPC   C1A53235  36.067  44.440   6.173
 4026POPC   D2A53236  36.203  44.643   6.547
 4026POPC   C3A53237  36.086  44.461   6.923
 4026POPC   C4A53238  36.139  44.676   7.314
 4026POPC   C1B53239  36.593  44.494   6.250
 4026POPC   C2B53240  36.634  44.383   6.746
 4026POPC   C3B53241  36.486  44.342   7.218
 4026POPC   C4B53242  36.261  44.352   7.668
 4027POPC   NC353243  24.521  10.006   5.671
 4027POPC   PO453244  24.226   9.418   5.404
 4027POPC   GL153245  24.213   9.448   5.838
 4027POPC   GL253246  24.548   9.526   5.897
 4027POPC   C1A53247  24.245   9.630   6.287
 4027POPC   D2A53248  24.416  10.022   6.501
 4027POPC   C3A53249  24.259  10.064   6.922
 4027POPC   C4A53250  24.377   9.778   7.260
 4027POPC   C1B53251  24.783   9.735   6.275
 4027POPC   C2B53252  24.975   9.590   6.671
 4027POPC   C3B53253  24.877   9.496   7.100
 4027POPC   C4B53254  24.806   9.681   7.525
 4028POPC   NC353255  38.294  36.587   4.992
 4028POPC   PO453256  38.665  36.090   5.285
 4028POPC   GL153257  38.694  35.874   5.725
 4028POPC   GL253258  38.378  35.847   5.880
 4028POPC   C1A53259  38.745  36.028   6.203
 4028POPC   D2A53260  38.637  35.896   6.666
 4028POPC   C3A53261  38.768  36.128   7.052
 4028POPC   C4A53262  38.903  36.341   7.475
 4028POPC   C1B53263  38.499  35.596   6.256
 4028POPC   C2B53264  38.348  35.479   6.688
 4028POPC   C3B53265  38.345  35.745   7.096
 4028POPC   C4B53266  38.315  35.681   7.549
 4029POPC   NC353267  35.294   1.031   5.357
 4029POPC   PO453268  35.736   1.301   5.787
 4029POPC   GL153269  35.317   1.176   5.902
 4029POPC   GL253270  35.236   0.804   5.825
 4029POPC   C1A53271  35.203   1.269   6.348
 4029POPC   D2A53272  35.065   1.509   6.733
 4029POPC   C3A53273  35.240   1.248   7.039
 4029POPC   C4A53274  35.680   1.332   7.087
 4029POPC   C1B53275  35.459   0.815   6.240
 4029POPC   C2B53276  35.473   0.938   6.671
 4029POPC   C3B53277  35.616   0.823   7.070
 4029POPC   C4B53278  35.346   0.869   7.410
 4030POPC   NC353279   6.716  44.314   5.343
 4030POPC   PO453280   6.440  44.888   5.283
 4030POPC   GL153281   6.593  44.783   5.691
 4030POPC   GL253282   6.873  44.584   5.784
 4030POPC   C1A53283   6.491  44.789   6.139
 4030POPC   D2A53284   6.652   0.023   6.493
 4030POPC   C3A53285   6.678  44.881   6.922
 4030POPC   C4A53286   7.026  44.980   7.176
 4030POPC   C1B53287   6.606  44.296   6.019
 4030POPC   C2B53288   6.399  44.234   6.432
 4030POPC   C3B53289   6.305  44.521   6.783
 4030POPC   C4B53290   6.538  44.442   7.174
 4031POPC   NC353291  30.963   3.034   5.610
 4031POPC   PO453292  31.597   3.181   5.431
 4031POPC   GL153293  31.706   3.126   5.863
 4031POPC   GL253294  31.364   3.212   5.909
 4031POPC   C1A53295  31.692   3.249   6.339
 4031POPC   D2A53296  31.610   3.412   6.785
 4031POPC   C3A53297  31.847   3.464   7.184
 4031POPC   C4A53298  31.683   3.709   7.582
 4031POPC   C1B53299  31.077   3.135   6.237
 4031POPC   C2B53300  31.181   3.129   6.635
 4031POPC   C3B53301  31.125   3.335   6.985
 4031POPC   C4B53302  31.346   3.477   7.291
 4032POPC   NC353303  19.981  35.012   5.404
 4032POPC   PO453304  19.464  35.519   5.343
 4032POPC   GL153305  19.551  35.192   5.662
 4032POPC   GL253306  19.839  35.376   5.727
 4032POPC   C1A53307  19.742  35.035   6.095
 4032POPC   D2A53308  20.043  35.245   6.376
 4032POPC   C3A53309  20.006  35.277   6.841
 4032POPC   C4A53310  19.970  35.618   7.140
 4032POPC   C1B53311  19.745  35.565   6.089
 4032POPC   C2B53312  19.589  35.500   6.482
 4032POPC   C3B53313  19.518  35.531   6.894
 4032POPC   C4B53314  19.593  35.231   7.202
 4033POPC   NC353315  39.939  24.640   5.454
 4033POPC   PO453316  40.516  24.336   5.484
 4033POPC   GL153317  40.237  24.470   5.825
 4033POPC   GL253318  40.203  24.870   5.860
 4033POPC   C1A53319  39.963  24.378   6.178
 4033POPC   D2A53320  39.836  24.400   6.608
 4033POPC   C3A53321  40.163  24.529   6.910
 4033POPC   C4A53322  40.221  24.409   7.351
 4033POPC   C1B53323  39.793  24.853   6.106
 4033POPC   C2B53324  39.691  24.919   6.564
 4033POPC   C3B53325  39.593  24.722   6.920
 4033POPC   C4B53326  39.814  24.709   7.260
 4034POPC   NC353327   0.464  17.933   5.450
 4034POPC   PO453328   0.105  18.521   5.398
 4034POPC   GL153329   0.361  18.537   5.762
 4034POPC   GL253330   0.061  18.593   5.983
 4034POPC   C1A53331   0.561  18.243   6.054
 4034POPC   D2A53332   0.324  18.117   6.403
 4034POPC   C3A53333   0.418  18.026   6.825
 4034POPC   C4A53334   0.241  18.182   7.235
 4034POPC   C1B53335   0.389  18.651   6.295
 4034POPC   C2B53336   0.590  18.519   6.680
 4034POPC   C3B53337   0.706  18.344   7.085
 4034POPC   C4B53338   0.635  18.474   7.469
 4035POPC   NC353339  19.309  28.424   5.258
 4035POPC   PO453340  18.928  27.966   5.355
 4035POPC   GL153341  19.151  28.266   5.715
 4035POPC   GL253342  18.928  28.516   5.784
 4035POPC   C1A53343  19.069  28.246   6.199
 4035POPC   D2A53344  18.816  28.207   6.558
 4035POPC   C3A53345  19.064  28.259   6.958
 4035POPC   C4A53346  19.420  27.965   7.099
 4035POPC   C1B53347  19.325  28.652   6.059
 4035POPC   C2B53348  19.469  28.639   6.491
 4035POPC   C3B53349  19.381  28.818   6.902
 4035POPC   C4B53350  19.113  28.719   7.223
 4036POPC   NC353351  44.615   9.372   5.367
 4036POPC   PO453352  44.550  10.007   5.537
 4036POPC   GL153353  44.374   9.787   5.854
 4036POPC   GL253354  44.592   9.541   5.870
 4036POPC   C1A53355  44.435   9.775   6.312
 4036POPC   D2A53356  44.375   9.705   6.740
 4036POPC   C3A53357  44.670   9.923   6.969
 4036POPC   C4A53358  44.756   9.853   7.403
 4036POPC   C1B53359  44.813   9.432   6.251
 4036POPC   C2B53360   0.036   9.420   6.643
 4036POPC   C3B53361  44.957   9.512   7.047
 4036POPC   C4B53362  44.563   9.414   7.171
 4037POPC   NC353363  35.755  20.071   5.468
 4037POPC   PO453364  35.170  19.726   5.393
 4037POPC   GL153365  35.346  19.980   5.750
 4037POPC   GL253366  35.674  20.115   5.942
 4037POPC   C1A53367  35.226  20.110   6.149
 4037POPC   D2A53368  35.488  20.241   6.485
 4037POPC   C3A53369  35.299  20.072   6.828
 4037POPC   C4A53370  35.204  19.948   7.211
 4037POPC   C1B53371  35.676  19.795   6.230
 4037POPC   C2B53372  35.699  19.772   6.678
 4037POPC   C3B53373  35.698  19.776   7.136
 4037POPC   C4B53374  36.004  19.896   7.450
 4038POPC   NC353375  22.364  25.567   5.371
 4038POPC   PO453376  22.672  24.963   5.300
 4038POPC   GL153377  22.934  25.267   5.601
 4038POPC   GL253378  22.753  25.541   5.764
 4038POPC   C1A53379  23.088  25.223   6.050
 4038POPC   D2A53380  22.837  25.128   6.439
 4038POPC   C3A53381  22.991  24.989   6.877
 4038POPC   C4A53382  22.908  25.028   7.353
 4038POPC   C1B53383  22.781  25.597   6.235
 4038POPC   C2B53384  23.036  25.533   6.655
 4038POPC   C3B53385  23.059  25.442   7.106
 4038POPC   C4B53386  22.980  25.485   7.567
 4039POPC   NC353387  34.121   4.815   5.504
 4039POPC   PO453388  33.811   4.254   5.401
 4039POPC   GL153389  33.662   4.238   5.815
 4039POPC   GL253390  33.737   4.594   5.804
 4039POPC   C1A53391  33.548   4.335   6.280
 4039POPC   D2A53392  33.863   4.234   6.613
 4039POPC   C3A53393  33.698   4.235   7.025
 4039POPC   C4A53394  33.455   4.463   7.342
 4039POPC   C1B53395  33.987   4.519   6.159
 4039POPC   C2B53396  33.994   4.753   6.538
 4039POPC   C3B53397  33.797   4.727   6.918
 4039POPC   C4B53398  33.920   4.633   7.321
 4040POPC   NC353399  13.462  41.103   5.455
 4040POPC   PO453400  14.003  40.567   5.427
 4040POPC   GL153401  13.750  40.748   5.757
 4040POPC   GL253402  13.426  40.622   5.739
 4040POPC   C1A53403  13.618  40.974   6.148
 4040POPC   D2A53404  13.711  41.151   6.564
 4040POPC   C3A53405  13.838  40.929   6.916
 4040POPC   C4A53406  13.648  40.817   7.303
 4040POPC   C1B53407  13.544  40.470   6.152
 4040POPC   C2B53408  13.492  40.624   6.549
 4040POPC   C3B53409  13.598  40.450   6.940
 4040POPC   C4B53410  13.291  40.471   7.248
 4041POPC   NC353411  20.716   9.375   5.538
 4041POPC   PO453412  20.326   9.750   5.165
 4041POPC   GL153413  20.297   9.765   5.663
 4041POPC   GL253414  20.321   9.435   5.861
 4041POPC   C1A53415  20.432   9.927   6.090
 4041POPC   D2A53416  20.596  10.221   6.413
 4041POPC   C3A53417  20.775  10.082   6.821
 4041POPC   C4A53418  20.821   9.953   7.253
 4041POPC   C1B53419  20.659   9.457   6.213
 4041POPC   C2B53420  20.805   9.491   6.652
 4041POPC   C3B53421  20.563   9.610   6.999
 4041POPC   C4B53422  20.296   9.999   7.116
 4042POPC   NC353423   0.716  32.209   5.317
 4042POPC   PO453424   0.250  32.646   5.527
 4042POPC   GL153425   0.582  32.434   5.783
 4042POPC   GL253426   0.563  32.041   5.815
 4042POPC   C1A53427   0.697  32.541   6.202
 4042POPC   D2A53428   0.491  32.494   6.613
 4042POPC   C3A53429   0.594  32.407   7.055
 4042POPC   C4A53430   0.268  32.384   7.405
 4042POPC   C1B53431   0.571  32.033   6.257
 4042POPC   C2B53432   0.745  32.043   6.658
 4042POPC   C3B53433   0.568  31.895   7.013
 4042POPC   C4B53434   0.651  32.037   7.436
 4043POPC   NC353435  17.112  22.443   4.946
 4043POPC   PO453436  17.504  21.940   5.285
 4043POPC   GL153437  17.562  22.110   5.730
 4043POPC   GL253438  17.892  22.021   5.820
 4043POPC   C1A53439  17.432  22.323   6.146
 4043POPC   D2A53440  17.577  22.483   6.602
 4043POPC   C3A53441  17.417  22.304   7.020
 4043POPC   C4A53442  17.093  22.130   7.320
 4043POPC   C1B53443  17.854  22.103   6.286
 4043POPC   C2B53444  17.827  22.071   6.738
 4043POPC   C3B53445  17.842  22.031   7.140
 4043POPC   C4B53446  17.785  21.697   7.355
 4044POPC   NC353447  31.474  29.789   5.330
 4044POPC   PO453448  31.115  30.395   5.316
 4044POPC   GL153449  31.385  30.263   5.732
 4044POPC   GL253450  31.516  29.919   5.821
 4044POPC   C1A53451  31.722  30.295   6.123
 4044POPC   D2A53452  31.956  30.247   6.562
 4044POPC   C3A53453  31.681  30.115   6.934
 4044POPC   C4A53454  31.607  30.209   7.374
 4044POPC   C1B53455  31.419  29.690   6.208
 4044POPC   C2B53456  31.178  29.752   6.587
 4044POPC   C3B53457  31.285  29.754   7.008
 4044POPC   C4B53458  31.315  29.804   7.446
 4045POPC   NC353459   7.298   5.471   5.119
 4045POPC   PO453460   7.449   4.880   5.389
 4045POPC   GL153461   7.395   5.111   5.765
 4045POPC   GL253462   7.234   5.422   5.733
 4045POPC   C1A53463   7.576   5.137   6.194
 4045POPC   D2A53464   7.781   4.802   6.467
 4045POPC   C3A53465   7.844   4.936   6.902
 4045POPC   C4A53466   7.464   5.071   7.111
 4045POPC   C1B53467   7.056   5.297   6.113
 4045POPC   C2B53468   7.144   5.218   6.528
 4045POPC   C3B53469   7.011   5.384   6.908
 4045POPC   C4B53470   7.029   5.263   7.285
 4046POPC   NC353471  18.241  41.463   5.474
 4046POPC   PO453472  18.337  42.085   5.647
 4046POPC   GL153473  18.131  41.810   5.921
 4046POPC   GL253474  18.391  41.594   5.941
 4046POPC   C1A53475  18.121  41.627   6.363
 4046POPC   D2A53476  18.318  41.775   6.744
 4046POPC   C3A53477  18.042  41.565   6.983
 4046POPC   C4A53478  18.041  41.465   7.385
 4046POPC   C1B53479  18.618  41.732   6.325
 4046POPC   C2B53480  18.675  41.421   6.697
 4046POPC   C3B53481  18.513  41.459   7.125
 4046POPC   C4B53482  18.522  41.884   7.251
 4047POPC   NC353483   0.381  42.317   5.281
 4047POPC   PO453484   0.025  42.593   5.777
 4047POPC   GL153485   0.504  42.460   5.788
 4047POPC   GL253486   0.777  42.713   5.862
 4047POPC   C1A53487   0.807  42.223   6.098
 4047POPC   D2A53488   0.783  42.278   6.575
 4047POPC   C3A53489   0.379  42.164   6.804
 4047POPC   C4A53490   0.121  42.252   7.185
 4047POPC   C1B53491   0.540  42.616   6.274
 4047POPC   C2B53492   0.287  42.681   6.672
 4047POPC   C3B53493   0.460  42.635   7.075
 4047POPC   C4B53494   0.764  42.346   7.087
 4048POPC   NC353495   4.782  30.924   5.392
 4048POPC   PO453496   4.127  30.723   5.431
 4048POPC   GL153497   4.446  30.742   5.768
 4048POPC   GL253498   4.756  30.548   5.759
 4048POPC   C1A53499   4.427  30.930   6.188
 4048POPC   D2A53500   4.114  30.890   6.505
 4048POPC   C3A53501   4.237  30.808   6.909
 4048POPC   C4A53502   4.245  30.984   7.312
 4048POPC   C1B53503   4.636  30.460   6.184
 4048POPC   C2B53504   4.529  30.427   6.625
 4048POPC   C3B53505   4.497  30.395   7.082
 4048POPC   C4B53506   4.559  30.355   7.527
 4049POPC   NC353507  35.067  14.327   5.304
 4049POPC   PO453508  35.697  14.561   5.288
 4049POPC   GL153509  35.509  14.637   5.707
 4049POPC   GL253510  35.137  14.606   5.836
 4049POPC   C1A53511  35.581  14.442   6.118
 4049POPC   D2A53512  35.623  14.671   6.503
 4049POPC   C3A53513  35.655  14.589   6.934
 4049POPC   C4A53514  35.524  14.800   7.299
 4049POPC   C1B53515  35.103  14.577   6.315
 4049POPC   C2B53516  35.165  14.633   6.786
 4049POPC   C3B53517  35.073  14.569   7.219
 4049POPC   C4B53518  35.190  14.634   7.686
 4050POPC   NC353519  31.554  30.601   5.193
 4050POPC   PO453520  31.949  30.863   5.609
 4050POPC   GL153521  31.636  30.718   5.857
 4050POPC   GL253522  31.661  31.014   6.012
 4050POPC   C1A53523  31.362  30.645   6.249
 4050POPC   D2A53524  31.512  30.511   6.649
 4050POPC   C3A53525  31.301  30.479   7.045
 4050POPC   C4A53526  31.240  30.564   7.471
 4050POPC   C1B53527  31.283  31.145   6.166
 4050POPC   C2B53528  31.196  31.207   6.576
 4050POPC   C3B53529  31.430  30.989   6.871
 4050POPC   C4B53530  31.263  30.991   7.218
 4051POPC   NC353531  15.758  38.440   5.457
 4051POPC   PO453532  16.185  38.954   5.406
 4051POPC   GL153533  16.119  38.644   5.772
 4051POPC   GL253534  15.853  38.357   5.955
 4051POPC   C1A53535  16.154  38.689   6.188
 4051POPC   D2A53536  15.955  38.768   6.572
 4051POPC   C3A53537  16.117  38.748   6.977
 4051POPC   C4A53538  15.902  38.454   7.227
 4051POPC   C1B53539  16.146  38.197   6.311
 4051POPC   C2B53540  16.159  38.242   6.754
 4051POPC   C3B53541  15.920  37.984   7.032
 4051POPC   C4B53542  16.182  38.020   7.349
 4052POPC   NC353543  40.580  28.888   5.556
 4052POPC   PO453544  40.084  29.174   5.186
 4052POPC   GL153545  40.166  29.191   5.648
 4052POPC   GL253546  40.184  28.911   5.888
 4052POPC   C1A53547  40.133  29.352   6.113
 4052POPC   D2A53548  40.188  29.191   6.555
 4052POPC   C3A53549  40.092  29.344   7.025
 4052POPC   C4A53550  39.876  29.020   7.301
 4052POPC   C1B53551  40.495  28.936   6.218
 4052POPC   C2B53552  40.610  28.847   6.642
 4052POPC   C3B53553  40.331  28.906   6.965
 4052POPC   C4B53554  40.392  29.032   7.371
 4053POPC   NC353555  42.212  31.073   5.049
 4053POPC   PO453556  42.276  31.569   5.502
 4053POPC   GL153557  42.284  31.538   5.926
 4053POPC   GL253558  42.415  31.893   5.946
 4053POPC   C1A53559  42.396  31.203   6.232
 4053POPC   D2A53560  42.598  30.994   6.554
 4053POPC   C3A53561  42.475  31.159   6.956
 4053POPC   C4A53562  42.328  31.058   7.376
 4053POPC   C1B53563  42.728  31.644   6.186
 4053POPC   C2B53564  42.675  31.505   6.596
 4053POPC   C3B53565  42.543  31.674   6.998
 4053POPC   C4B53566  42.586  31.546   7.451
 4054POPC   NC353567  24.920   0.993   5.701
 4054POPC   PO453568  25.478   0.709   5.421
 4054POPC   GL153569  25.241   0.540   5.788
 4054POPC   GL253570  25.020   0.235   5.722
 4054POPC   C1A53571  25.334   0.621   6.234
 4054POPC   D2A53572  25.561   0.642   6.621
 4054POPC   C3A53573  25.318   0.543   6.987
 4054POPC   C4A53574  25.396   0.260   7.284
 4054POPC   C1B53575  25.143   0.154   6.148
 4054POPC   C2B53576  25.180   0.229   6.588
 4054POPC   C3B53577  24.988   0.096   6.982
 4054POPC   C4B53578  24.987  44.986   7.422
 4055POPC   NC353579  14.788   9.144   5.311
 4055POPC   PO453580  15.291   8.724   5.435
 4055POPC   GL153581  15.178   9.037   5.798
 4055POPC   GL253582  14.917   9.338   5.787
 4055POPC   C1A53583  15.210   9.052   6.266
 4055POPC   D2A53584  15.020   8.804   6.614
 4055POPC   C3A53585  15.133   8.961   6.989
 4055POPC   C4A53586  15.547   8.954   7.084
 4055POPC   C1B53587  14.941   9.486   6.235
 4055POPC   C2B53588  14.868   9.299   6.616
 4055POPC   C3B53589  14.868   9.413   7.021
 4055POPC   C4B53590  14.858   9.397   7.432
 4056POPC   NC353591  44.102  15.602   5.410
 4056POPC   PO453592  43.804  15.014   5.245
 4056POPC   GL153593  43.802  15.176   5.664
 4056POPC   GL253594  44.121  15.274   5.820
 4056POPC   C1A53595  43.718  15.086   6.123
 4056POPC   D2A53596  43.905  15.147   6.563
 4056POPC   C3A53597  43.639  14.976   6.910
 4056POPC   C4A53598  43.537  15.123   7.298
 4056POPC   C1B53599  44.359  15.173   6.211
 4056POPC   C2B53600  44.423  15.120   6.668
 4056POPC   C3B53601  44.216  15.350   7.020
 4056POPC   C4B53602  44.010  15.375   7.429
 4057POPC   NC353603  33.951  27.737   5.566
 4057POPC   PO453604  33.480  27.302   5.395
 4057POPC   GL153605  33.558  27.507   5.836
 4057POPC   GL253606  33.921  27.527   6.017
 4057POPC   C1A53607  33.513  27.591   6.299
 4057POPC   D2A53608  33.890  27.497   6.575
 4057POPC   C3A53609  33.828  27.753   6.916
 4057POPC   C4A53610  33.781  27.654   7.325
 4057POPC   C1B53611  33.952  27.923   6.307
 4057POPC   C2B53612  34.219  27.998   6.702
 4057POPC   C3B53613  34.265  27.868   7.163
 4057POPC   C4B53614  34.105  27.970   7.591
 4058POPC   NC353615  29.294  10.885   5.434
 4058POPC   PO453616  29.151  10.192   5.472
 4058POPC   GL153617  29.204  10.531   5.783
 4058POPC   GL253618  29.533  10.705   5.856
 4058POPC   C1A53619  29.127  10.749   6.188
 4058POPC   D2A53620  29.181  10.532   6.574
 4058POPC   C3A53621  29.099  10.761   6.925
 4058POPC   C4A53622  28.939  10.794   7.292
 4058POPC   C1B53623  29.676  10.380   6.173
 4058POPC   C2B53624  29.663  10.272   6.619
 4058POPC   C3B53625  29.566  10.557   6.925
 4058POPC   C4B53626  29.376  10.489   7.303
 4059POPC   NC353627  43.491  37.092   5.464
 4059POPC   PO453628  44.046  36.680   5.506
 4059POPC   GL153629  43.905  37.005   5.816
 4059POPC   GL253630  44.224  37.132   5.973
 4059POPC   C1A53631  43.748  37.183   6.187
 4059POPC   D2A53632  43.523  37.014   6.533
 4059POPC   C3A53633  43.555  37.271   6.898
 4059POPC   C4A53634  43.923  37.088   7.088
 4059POPC   C1B53635  44.191  36.843   6.312
 4059POPC   C2B53636  44.208  36.797   6.772
 4059POPC   C3B53637  44.236  36.648   7.207
 4059POPC   C4B53638  44.435  36.682   7.644
 4060POPC   NC353639  41.781  23.935   5.360
 4060POPC   PO453640  41.218  23.571   5.291
 4060POPC   GL153641  41.576  23.557   5.660
 4060POPC   GL253642  41.674  23.907   5.848
 4060POPC   C1A53643  41.551  23.534   6.147
 4060POPC   D2A53644  41.304  23.531   6.534
 4060POPC   C3A53645  41.515  23.493   6.946
 4060POPC   C4A53646  41.383  23.534   7.353
 4060POPC   C1B53647  41.572  24.039   6.256
 4060POPC   C2B53648  41.669  23.886   6.641
 4060POPC   C3B53649  41.716  23.973   7.073
 4060POPC   C4B53650  41.664  23.912   7.516
 4061POPC   NC353651  30.711  31.034   5.189
 4061POPC   PO453652  30.816  31.690   5.349
 4061POPC   GL153653  30.670  31.490   5.726
 4061POPC   GL253654  30.723  31.155   5.745
 4061POPC   C1A53655  30.612  31.630   6.138
 4061POPC   D2A53656  30.854  31.627   6.515
 4061POPC   C3A53657  30.643  31.663   6.889
 4061POPC   C4A53658  30.813  31.723   7.301
 4061POPC   C1B53659  30.765  31.136   6.231
 4061POPC   C2B53660  30.690  31.128   6.704
 4061POPC   C3B53661  30.787  31.228   7.147
 4061POPC   C4B53662  30.612  31.354   7.567
 4062POPC   NC353663  11.926  34.448   5.375
 4062POPC   PO453664  12.395  34.928   5.308
 4062POPC   GL153665  12.398  34.775   5.749
 4062POPC   GL253666  12.171  34.496   5.821
 4062POPC   C1A53667  12.315  34.778   6.233
 4062POPC   D2A53668  12.191  34.608   6.653
 4062POPC   C3A53669  12.364  34.561   7.060
 4062POPC   C4A53670  12.126  34.627   7.459
 4062POPC   C1B53671  11.920  34.438   6.225
 4062POPC   C2B53672  11.806  34.268   6.640
 4062POPC   C3B53673  11.849  34.390   7.089
 4062POPC   C4B53674  11.803  34.225   7.561
 4063POPC   NC353675  44.026   2.295   5.490
 4063POPC   PO453676  43.648   1.825   5.228
 4063POPC   GL153677  43.779   1.829   5.695
 4063POPC   GL253678  44.101   1.699   5.807
 4063POPC   C1A53679  43.877   2.110   6.090
 4063POPC   D2A53680  43.643   2.213   6.467
 4063POPC   C3A53681  43.814   2.036   6.857
 4063POPC   C4A53682  43.597   2.100   7.251
 4063POPC   C1B53683  43.937   1.619   6.230
 4063POPC   C2B53684  44.129   1.531   6.633
 4063POPC   C3B53685  44.247   1.752   7.010
 4063POPC   C4B53686  44.090   1.972   7.371
 4064POPC   NC353687  36.682  27.066   5.185
 4064POPC   PO453688  37.189  26.646   5.412
 4064POPC   GL153689  36.998  26.606   5.826
 4064POPC   GL253690  37.093  26.285   5.825
 4064POPC   C1A53691  36.937  26.736   6.287
 4064POPC   D2A53692  37.093  27.017   6.628
 4064POPC   C3A53693  37.040  26.916   7.069
 4064POPC   C4A53694  36.689  26.680   7.232
 4064POPC   C1B53695  37.234  26.306   6.238
 4064POPC   C2B53696  37.273  26.490   6.628
 4064POPC   C3B53697  37.085  26.419   7.024
 4064POPC   C4B53698  37.109  26.545   7.489
 4065POPC   NC353699  29.514  35.744   5.590
 4065POPC   PO453700  29.345  35.156   5.308
 4065POPC   GL153701  29.322  35.194   5.749
 4065POPC   GL253702  29.074  35.480   5.752
 4065POPC   C1A53703  29.077  35.008   6.119
 4065POPC   D2A53704  28.917  34.873   6.550
 4065POPC   C3A53705  28.834  35.184   6.872
 4065POPC   C4A53706  29.069  35.204   7.233
 4065POPC   C1B53707  29.261  35.511   6.166
 4065POPC   C2B53708  29.196  35.403   6.579
 4065POPC   C3B53709  29.156  35.605   6.967
 4065POPC   C4B53710  29.359  35.571   7.405
 4066POPC   NC353711  23.304  25.907   5.351
 4066POPC   PO453712  22.621  25.954   5.418
 4066POPC   GL153713  22.843  26.063   5.773
 4066POPC   GL253714  23.172  25.916   5.830
 4066POPC   C1A53715  22.898  26.108   6.215
 4066POPC   D2A53716  23.093  26.032   6.587
 4066POPC   C3A53717  22.831  25.947   6.902
 4066POPC   C4A53718  22.965  25.907   7.270
 4066POPC   C1B53719  23.270  25.723   6.202
 4066POPC   C2B53720  23.523  25.709   6.568
 4066POPC   C3B53721  23.386  25.796   6.982
 4066POPC   C4B53722  23.409  25.727   7.451
 4067POPC   NC353723  24.485   6.563   4.996
 4067POPC   PO453724  24.888   6.221   5.396
 4067POPC   GL153725  24.607   6.410   5.765
 4067POPC   GL253726  24.515   6.747   5.820
 4067POPC   C1A53727  24.740   6.475   6.217
 4067POPC   D2A53728  24.609   6.367   6.646
 4067POPC   C3A53729  24.495   6.801   6.841
 4067POPC   C4A53730  24.741   7.006   7.170
 4067POPC   C1B53731  24.243   6.496   6.124
 4067POPC   C2B53732  24.129   6.557   6.551
 4067POPC   C3B53733  24.180   6.383   6.938
 4067POPC   C4B53734  24.193   6.668   7.265
 4068POPC   NC353735  42.125   8.105   5.264
 4068POPC   PO453736  42.833   7.859   5.369
 4068POPC   GL153737  42.581   8.194   5.583
 4068POPC   GL253738  42.404   7.930   5.729
 4068POPC   C1A53739  42.424   8.323   6.027
 4068POPC   D2A53740  42.495   8.147   6.453
 4068POPC   C3A53741  42.411   8.380   6.841
 4068POPC   C4A53742  42.241   8.234   7.225
 4068POPC   C1B53743  42.192   7.819   6.108
 4068POPC   C2B53744  42.280   7.664   6.518
 4068POPC   C3B53745  42.210   7.816   6.925
 4068POPC   C4B53746  42.000   7.709   7.283
 4069POPC   NC353747   6.084  26.358   5.447
 4069POPC   PO453748   5.564  25.860   5.497
 4069POPC   GL153749   5.928  25.989   5.771
 4069POPC   GL253750   6.041  25.693   5.963
 4069POPC   C1A53751   6.027  26.145   6.187
 4069POPC   D2A53752   5.942  25.930   6.577
 4069POPC   C3A53753   5.969  26.145   6.972
 4069POPC   C4A53754   5.786  26.153   7.398
 4069POPC   C1B53755   5.637  25.786   6.159
 4069POPC   C2B53756   5.429  25.849   6.565
 4069POPC   C3B53757   5.540  25.828   7.013
 4069POPC   C4B53758   5.657  25.664   7.456
 4070POPC   NC353759  13.380  33.899   5.042
 4070POPC   PO453760  13.069  33.548   5.580
 4070POPC   GL153761  12.939  33.806   5.865
 4070POPC   GL253762  12.620  33.727   5.932
 4070POPC   C1A53763  13.089  33.787   6.257
 4070POPC   D2A53764  12.797  33.735   6.555
 4070POPC   C3A53765  12.928  33.751   6.924
 4070POPC   C4A53766  13.218  33.959   7.186
 4070POPC   C1B53767  12.360  33.602   6.295
 4070POPC   C2B53768  12.356  33.601   6.752
 4070POPC   C3B53769  12.470  33.694   7.179
 4070POPC   C4B53770  12.541  33.871   7.624
 4071POPC   NC353771  10.976  41.316   5.163
 4071POPC   PO453772  11.505  41.708   5.263
 4071POPC   GL153773  11.368  41.351   5.595
 4071POPC   GL253774  11.020  41.334   5.708
 4071POPC   C1A53775  11.439  41.324   6.090
 4071POPC   D2A53776  11.266  41.291   6.534
 4071POPC   C3A53777  11.393  41.528   6.881
 4071POPC   C4A53778  11.489  41.484   7.297
 4071POPC   C1B53779  10.912  41.297   6.169
 4071POPC   C2B53780  10.836  41.546   6.605
 4071POPC   C3B53781  10.921  41.499   7.081
 4071POPC   C4B53782  11.025  41.387   7.513
 4072POPC   NC353783   9.532  32.063   4.909
 4072POPC   PO453784   9.719  32.682   5.275
 4072POPC   GL153785   9.839  32.611   5.728
 4072POPC   GL253786   9.532  32.422   5.764
 4072POPC   C1A53787   9.884  32.474   6.192
 4072POPC   D2A53788   9.560  32.589   6.531
 4072POPC   C3A53789   9.538  32.491   6.951
 4072POPC   C4A53790   9.828  32.527   7.275
 4072POPC   C1B53791   9.493  32.167   6.138
 4072POPC   C2B53792   9.692  32.084   6.539
 4072POPC   C3B53793   9.970  32.288   6.820
 4072POPC   C4B53794   9.977  32.041   7.196
 4073POPC   NC353795  19.425  17.301   5.462
 4073POPC   PO453796  20.061  17.369   5.527
 4073POPC   GL153797  19.846  17.272   5.910
 4073POPC   GL253798  19.616  17.548   5.866
 4073POPC   C1A53799  19.963  17.399   6.355
 4073POPC   D2A53800  19.985  17.731   6.707
 4073POPC   C3A53801  20.158  17.572   7.077
 4073POPC   C4A53802  20.226  17.162   7.288
 4073POPC   C1B53803  19.615  17.742   6.245
 4073POPC   C2B53804  19.523  17.567   6.622
 4073POPC   C3B53805  19.584  17.582   7.043
 4073POPC   C4B53806  19.396  17.724   7.433
 4074POPC   NC353807  30.833  36.574   5.648
 4074POPC   PO453808  30.947  35.946   5.364
 4074POPC   GL153809  30.764  36.056   5.793
 4074POPC   GL253810  30.438  36.233   5.831
 4074POPC   C1A53811  30.652  36.001   6.261
 4074POPC   D2A53812  30.549  35.919   6.710
 4074POPC   C3A53813  30.828  36.090   7.034
 4074POPC   C4A53814  31.237  36.237   7.201
 4074POPC   C1B53815  30.180  36.275   6.202
 4074POPC   C2B53816  30.175  36.436   6.622
 4074POPC   C3B53817  30.436  36.434   6.981
 4074POPC   C4B53818  30.395  36.303   7.398
 4075POPC   NC353819  28.931  39.631   5.332
 4075POPC   PO453820  28.906  40.306   5.413
 4075POPC   GL153821  29.057  39.956   5.721
 4075POPC   GL253822  28.737  39.724   5.798
 4075POPC   C1A53823  29.354  39.914   6.104
 4075POPC   D2A53824  29.438  40.184   6.475
 4075POPC   C3A53825  29.473  39.997   6.886
 4075POPC   C4A53826  29.184  39.883   7.210
 4075POPC   C1B53827  28.855  39.923   6.192
 4075POPC   C2B53828  29.025  39.900   6.607
 4075POPC   C3B53829  28.772  40.005   6.950
 4075POPC   C4B53830  28.700  39.606   7.130
 4076POPC   NC353831   1.881  26.206   5.416
 4076POPC   PO453832   2.376  25.748   5.194
 4076POPC   GL153833   2.256  25.937   5.668
 4076POPC   GL253834   2.370  26.277   5.752
 4076POPC   C1A53835   1.943  25.993   6.062
 4076POPC   D2A53836   1.854  26.125   6.513
 4076POPC   C3A53837   1.991  25.906   6.891
 4076POPC   C4A53838   1.739  25.767   7.211
 4076POPC   C1B53839   2.357  26.258   6.231
 4076POPC   C2B53840   2.401  26.136   6.662
 4076POPC   C3B53841   2.331  26.299   7.068
 4076POPC   C4B53842   1.888  26.330   7.199
 4077POPC   NC353843  42.951   4.667   5.472
 4077POPC   PO453844  43.159   5.305   5.577
 4077POPC   GL153845  43.181   4.978   5.874
 4077POPC   GL253846  43.471   4.752   5.814
 4077POPC   C1A53847  43.100   5.149   6.288
 4077POPC   D2A53848  42.861   5.305   6.633
 4077POPC   C3A53849  43.109   5.255   6.995
 4077POPC   C4A53850  43.060   5.242   7.451
 4077POPC   C1B53851  43.605   4.981   6.208
 4077POPC   C2B53852  43.481   5.038   6.613
 4077POPC   C3B53853  43.495   4.751   6.928
 4077POPC   C4B53854  43.461   4.976   7.260
 4078POPC   NC353855  18.414  11.709   5.344
 4078POPC   PO453856  17.782  11.863   5.315
 4078POPC   GL153857  18.045  11.800   5.722
 4078POPC   GL253858  18.246  11.498   5.822
 4078POPC   C1A53859  18.065  11.853   6.207
 4078POPC   D2A53860  18.278  12.082   6.565
 4078POPC   C3A53861  18.217  12.015   7.034
 4078POPC   C4A53862  18.364  12.128   7.463
 4078POPC   C1B53863  18.409  11.486   6.286
 4078POPC   C2B53864  18.370  11.602   6.757
 4078POPC   C3B53865  18.287  11.510   7.217
 4078POPC   C4B53866  18.297  11.498   7.684
 4079POPC   NC353867  18.201  21.874   5.355
 4079POPC   PO453868  18.368  21.168   5.439
 4079POPC   GL153869  18.331  21.389   5.780
 4079POPC   GL253870  18.025  21.518   5.701
 4079POPC   C1A53871  18.370  21.428   6.207
 4079POPC   D2A53872  18.094  21.246   6.559
 4079POPC   C3A53873  18.288  21.113   6.946
 4079POPC   C4A53874  18.065  21.099   7.307
 4079POPC   C1B53875  17.925  21.621   6.131
 4079POPC   C2B53876  18.148  21.754   6.522
 4079POPC   C3B53877  18.136  21.611   6.960
 4079POPC   C4B53878  18.296  21.650   7.391
 4080POPC   NC353879  27.252  30.146   5.357
 4080POPC   PO453880  26.656  30.173   5.246
 4080POPC   GL153881  26.869  30.188   5.711
 4080POPC   GL253882  27.095  29.914   5.848
 4080POPC   C1A53883  26.793  30.132   6.208
 4080POPC   D2A53884  26.776  29.939   6.654
 4080POPC   C3A53885  26.784  30.070   7.119
 4080POPC   C4A53886  26.830  30.275   7.574
 4080POPC   C1B53887  27.036  29.668   6.266
 4080POPC   C2B53888  26.925  29.454   6.690
 4080POPC   C3B53889  26.956  29.507   7.140
 4080POPC   C4B53890  26.868  29.241   7.525
 4081POPC   NC353891   9.244  12.510   5.446
 4081POPC   PO453892   9.900  12.714   5.309
 4081POPC   GL153893   9.670  12.650   5.729
 4081POPC   GL253894   9.966  12.508   5.783
 4081POPC   C1A53895   9.553  12.850   6.175
 4081POPC   D2A53896   9.696  13.179   6.481
 4081POPC   C3A53897   9.588  13.133   6.917
 4081POPC   C4A53898   9.745  13.207   7.342
 4081POPC   C1B53899  10.058  12.632   6.158
 4081POPC   C2B53900   9.885  12.713   6.560
 4081POPC   C3B53901   9.646  12.611   6.914
 4081POPC   C4B53902   9.789  12.702   7.328
 4082POPC   NC353903   9.744  29.648   5.445
 4082POPC   PO453904   9.734  29.022   5.317
 4082POPC   GL153905   9.720  28.950   5.758
 4082POPC   GL253906   9.927  28.688   5.770
 4082POPC   C1A53907   9.547  29.097   6.190
 4082POPC   D2A53908   9.594  29.414   6.552
 4082POPC   C3A53909   9.495  29.255   6.967
 4082POPC   C4A53910   9.675  29.143   7.367
 4082POPC   C1B53911  10.013  28.838   6.168
 4082POPC   C2B53912   9.892  29.012   6.567
 4082POPC   C3B53913  10.008  29.104   6.960
 4082POPC   C4B53914  10.128  28.888   7.307
 4083POPC   NC353915  38.798   2.994   5.581
 4083POPC   PO453916  38.224   2.592   5.352
 4083POPC   GL153917  38.346   2.471   5.761
 4083POPC   GL253918  38.626   2.649   5.921
 4083POPC   C1A53919  38.217   2.489   6.195
 4083POPC   D2A53920  38.376   2.796   6.499
 4083POPC   C3A53921  38.644   2.638   6.828
 4083POPC   C4A53922  38.467   2.592   7.235
 4083POPC   C1B53923  38.815   2.971   6.223
 4083POPC   C2B53924  38.742   3.191   6.593
 4083POPC   C3B53925  38.476   3.125   6.923
 4083POPC   C4B53926  38.692   3.068   7.301
 4084POPC   NC353927  29.798  42.847   5.420
 4084POPC   PO453928  30.452  42.992   5.442
 4084POPC   GL153929  30.120  43.107   5.795
 4084POPC   GL253930  29.758  43.238   5.889
 4084POPC   C1A53931  30.116  43.101   6.275
 4084POPC   D2A53932  30.085  43.401   6.642
 4084POPC   C3A53933  29.948  43.353   7.082
 4084POPC   C4A53934  30.087  43.330   7.513
 4084POPC   C1B53935  29.663  43.362   6.324
 4084POPC   C2B53936  29.739  43.023   6.632
 4084POPC   C3B53937  29.860  42.848   7.013
 4084POPC   C4B53938  29.748  42.956   7.440
 4085POPC   NC353939  36.889  16.995   5.378
 4085POPC   PO453940  36.819  16.381   5.155
 4085POPC   GL153941  36.934  16.510   5.651
 4085POPC   GL253942  36.670  16.419   5.929
 4085POPC   C1A53943  37.013  16.779   6.043
 4085POPC   D2A53944  36.787  16.851   6.445
 4085POPC   C3A53945  36.961  16.679   6.830
 4085POPC   C4A53946  36.875  16.646   7.295
 4085POPC   C1B53947  36.950  16.348   6.312
 4085POPC   C2B53948  37.276  16.299   6.620
 4085POPC   C3B53949  37.239  16.307   7.051
 4085POPC   C4B53950  37.381  16.585   7.319
 4086POPC   NC353951  27.473  26.880   5.427
 4086POPC   PO453952  28.154  26.821   5.430
 4086POPC   GL153953  27.856  26.945   5.759
 4086POPC   GL253954  27.772  26.605   5.818
 4086POPC   C1A53955  27.668  26.911   6.198
 4086POPC   D2A53956  27.818  27.090   6.577
 4086POPC   C3A53957  27.648  26.896   6.935
 4086POPC   C4A53958  27.477  26.914   7.345
 4086POPC   C1B53959  27.779  26.409   6.239
 4086POPC   C2B53960  27.794  26.419   6.707
 4086POPC   C3B53961  27.758  26.448   7.169
 4086POPC   C4B53962  27.747  26.556   7.626
 4087POPC   NC353963  39.022   4.529   5.353
 4087POPC   PO453964  39.478   4.088   5.293
 4087POPC   GL153965  39.220   4.197   5.703
 4087POPC   GL253966  38.883   4.037   5.633
 4087POPC   C1A53967  39.208   4.484   6.117
 4087POPC   D2A53968  39.519   4.505   6.502
 4087POPC   C3A53969  39.308   4.384   6.885
 4087POPC   C4A53970  38.855   4.502   6.958
 4087POPC   C1B53971  38.979   3.947   6.076
 4087POPC   C2B53972  39.035   4.151   6.475
 4087POPC   C3B53973  38.960   4.001   6.882
 4087POPC   C4B53974  39.013   3.884   7.294
 4088POPC   NC353975  29.435  20.705   5.532
 4088POPC   PO453976  28.882  20.248   5.534
 4088POPC   GL153977  29.035  20.533   5.818
 4088POPC   GL253978  29.347  20.343   5.884
 4088POPC   C1A53979  29.143  20.814   6.165
 4088POPC   D2A53980  29.361  20.683   6.520
 4088POPC   C3A53981  29.168  20.640   6.904
 4088POPC   C4A53982  28.975  20.738   7.285
 4088POPC   C1B53983  29.417  20.226   6.306
 4088POPC   C2B53984  29.473  20.241   6.757
 4088POPC   C3B53985  29.507  20.337   7.164
 4088POPC   C4B53986  29.285  20.147   7.480
 4089POPC   NC353987  16.789  18.967   5.339
 4089POPC   PO453988  16.133  18.966   5.524
 4089POPC   GL153989  16.496  19.082   5.770
 4089POPC   GL253990  16.763  18.798   5.826
 4089POPC   C1A53991  16.765  19.237   6.085
 4089POPC   D2A53992  16.837  19.121   6.497
 4089POPC   C3A53993  16.970  19.351   6.866
 4089POPC   C4A53994  16.915  19.110   7.240
 4089POPC   C1B53995  16.500  18.810   6.232
 4089POPC   C2B53996  16.383  18.933   6.688
 4089POPC   C3B53997  16.475  18.851   7.151
 4089POPC   C4B53998  16.270  18.863   7.546
 4090POPC   NC353999  38.341  22.298   5.235
 4090POPC   PO454000  38.326  22.969   5.380
 4090POPC   GL154001  38.567  22.984   5.787
 4090POPC   GL254002  38.231  22.984   5.891
 4090POPC   C1A54003  38.835  22.686   6.058
 4090POPC   D2A54004  38.943  22.654   6.511
 4090POPC   C3A54005  38.617  22.795   6.821
 4090POPC   C4A54006  38.562  22.975   7.252
 4090POPC   C1B54007  38.416  22.899   6.287
 4090POPC   C2B54008  38.140  22.876   6.614
 4090POPC   C3B54009  38.122  22.769   7.021
 4090POPC   C4B54010  38.061  23.031   7.324
 4091POPC   NC354011  14.701  35.728   5.518
 4091POPC   PO454012  14.388  36.397   5.511
 4091POPC   GL154013  14.333  36.247   5.908
 4091POPC   GL254014  14.381  35.903   5.870
 4091POPC   C1A54015  14.166  36.149   6.273
 4091POPC   D2A54016  14.361  36.025   6.602
 4091POPC   C3A54017  14.188  36.029   6.965
 4091POPC   C4A54018  14.235  36.254   7.333
 4091POPC   C1B54019  14.396  35.674   6.199
 4091POPC   C2B54020  14.347  35.515   6.600
 4091POPC   C3B54021  14.574  35.685   6.932
 4091POPC   C4B54022  14.496  35.788   7.353
 4092POPC   NC354023  30.284  20.297   5.336
 4092POPC   PO454024  29.642  20.311   5.420
 4092POPC   GL154025  29.856  20.449   5.768
 4092POPC   GL254026  30.169  20.614   5.711
 4092POPC   C1A54027  29.734  20.622   6.144
 4092POPC   D2A54028  29.852  20.511   6.537
 4092POPC   C3A54029  29.937  20.751   6.908
 4092POPC   C4A54030  29.876  20.655   7.352
 4092POPC   C1B54031  30.258  20.723   6.123
 4092POPC   C2B54032  30.393  20.554   6.516
 4092POPC   C3B54033  30.478  20.307   6.879
 4092POPC   C4B54034  30.369  20.596   7.206
 4093POPC   NC354035  34.365  42.016   5.336
 4093POPC   PO454036  34.838  42.517   5.405
 4093POPC   GL154037  34.563  42.471   5.761
 4093POPC   GL254038  34.315  42.238   5.856
 4093POPC   C1A54039  34.419  42.604   6.197
 4093POPC   D2A54040  34.244  42.356   6.550
 4093POPC   C3A54041  34.456  42.398   6.930
 4093POPC   C4A54042  34.634  42.523   7.311
 4093POPC   C1B54043  33.967  42.046   6.097
 4093POPC   C2B54044  33.832  42.042   6.530
 4093POPC   C3B54045  33.998  42.075   6.968
 4093POPC   C4B54046  34.204  42.235   7.345
 4094POPC   NC354047  39.562  12.081   5.456
 4094POPC   PO454048  40.104  12.454   5.409
 4094POPC   GL154049  40.095  12.066   5.678
 4094POPC   GL254050  40.406  12.037   5.839
 4094POPC   C1A54051  39.962  11.831   6.080
 4094POPC   D2A54052  39.869  12.056   6.506
 4094POPC   C3A54053  39.895  11.909   6.952
 4094POPC   C4A54054  39.817  12.236   7.271
 4094POPC   C1B54055  40.329  12.127   6.254
 4094POPC   C2B54056  40.340  11.861   6.662
 4094POPC   C3B54057  40.362  11.752   7.129
 4094POPC   C4B54058  40.230  12.038   7.485
 4095POPC   NC354059   4.083   3.252   5.465
 4095POPC   PO454060   4.708   3.633   5.420
 4095POPC   GL154061   4.559   3.488   5.790
 4095POPC   GL254062   4.198   3.555   5.869
 4095POPC   C1A54063   4.588   3.474   6.235
 4095POPC   D2A54064   4.295   3.507   6.589
 4095POPC   C3A54065   4.464   3.519   6.978
 4095POPC   C4A54066   4.616   3.482   7.385
 4095POPC   C1B54067   4.258   3.860   6.212
 4095POPC   C2B54068   4.172   3.985   6.640
 4095POPC   C3B54069   3.985   3.737   6.957
 4095POPC   C4B54070   4.061   3.329   7.217
 4096POPC   NC354071  23.269   3.204   5.262
 4096POPC   PO454072  23.814   2.730   5.309
 4096POPC   GL154073  23.776   2.832   5.718
 4096POPC   GL254074  23.448   2.964   5.691
 4096POPC   C1A54075  23.808   2.739   6.149
 4096POPC   D2A54076  23.666   2.795   6.571
 4096POPC   C3A54077  23.962   2.579   6.882
 4096POPC   C4A54078  23.699   2.668   7.207
 4096POPC   C1B54079  23.390   3.068   6.136
 4096POPC   C2B54080  23.282   3.198   6.556
 4096POPC   C3B54081  23.444   3.088   6.969
 4096POPC   C4B54082  23.437   3.234   7.400
 4097POPC   NC354083  30.307  36.056   5.348
 4097POPC   PO454084  29.574  36.205   5.487
 4097POPC   GL154085  29.815  36.198   5.830
 4097POPC   GL254086  30.022  35.913   5.789
 4097POPC   C1A54087  29.660  36.332   6.209
 4097POPC   D2A54088  29.401  36.402   6.543
 4097POPC   C3A54089  29.703  36.261   6.874
 4097POPC   C4A54090  29.648  35.935   7.183
 4097POPC   C1B54091  30.191  35.753   6.189
 4097POPC   C2B54092  30.048  35.937   6.597
 4097POPC   C3B54093  30.132  36.026   7.040
 4097POPC   C4B54094  30.070  35.926   7.491
 4098POPC   NC354095  25.568  33.225   5.376
 4098POPC   PO454096  24.913  33.315   5.515
 4098POPC   GL154097  25.263  33.237   5.836
 4098POPC   GL254098  25.643  33.253   5.883
 4098POPC   C1A54099  25.243  33.239   6.297
 4098POPC   D2A54100  25.381  33.199   6.723
 4098POPC   C3A54101  25.118  32.908   7.045
 4098POPC   C4A54102  24.945  32.730   7.450
 4098POPC   C1B54103  25.675  32.978   6.253
 4098POPC   C2B54104  25.805  32.846   6.649
 4098POPC   C3B54105  25.628  32.905   7.053
 4098POPC   C4B54106  25.402  33.270   7.233
 4099POPC   NC354107  11.519   5.173   5.251
 4099POPC   PO454108  10.835   5.180   5.198
 4099POPC   GL154109  11.041   5.183   5.657
 4099POPC   GL254110  11.017   4.884   5.839
 4099POPC   C1A54111  11.105   5.236   6.173
 4099POPC   D2A54112  11.067   5.024   6.612
 4099POPC   C3A54113  11.227   5.232   6.987
 4099POPC   C4A54114  11.027   5.420   7.327
 4099POPC   C1B54115  11.265   4.722   6.220
 4099POPC   C2B54116  11.285   4.492   6.620
 4099POPC   C3B54117  11.309   4.717   6.973
 4099POPC   C4B54118  11.017   4.860   7.278
 4100POPC   NC354119   3.915  18.853   5.217
 4100POPC   PO454120   3.346  18.515   5.315
 4100POPC   GL154121   3.375  18.494   5.778
 4100POPC   GL254122   3.414  18.156   5.909
 4100POPC   C1A54123   3.109  18.495   6.164
 4100POPC   D2A54124   3.113  18.557   6.611
 4100POPC   C3A54125   3.181  18.287   6.986
 4100POPC   C4A54126   3.566  18.376   7.231
 4100POPC   C1B54127   3.383  18.128   6.392
 4100POPC   C2B54128   3.395  17.862   6.765
 4100POPC   C3B54129   3.515  17.862   7.205
 4100POPC   C4B54130   3.507  17.781   7.648
 4101POPC   NC354131  15.349  27.684   5.410
 4101POPC   PO454132  15.908  28.055   5.350
 4101POPC   GL154133  15.782  27.785   5.773
 4101POPC   GL254134  15.488  27.577   5.921
 4101POPC   C1A54135  15.872  27.696   6.224
 4101POPC   D2A54136  16.058  27.808   6.637
 4101POPC   C3A54137  15.924  27.615   7.025
 4101POPC   C4A54138  15.861  27.455   7.424
 4101POPC   C1B54139  15.595  27.298   6.336
 4101POPC   C2B54140  15.733  27.206   6.777
 4101POPC   C3B54141  15.504  27.194   7.161
 4101POPC   C4B54142  15.390  27.297   7.602
 4102POPC   NC354143   4.698  39.033   5.408
 4102POPC   PO454144   4.038  39.402   5.413
 4102POPC   GL154145   4.244  39.212   5.765
 4102POPC   GL254146   4.237  39.521   5.916
 4102POPC   C1A54147   4.315  39.077   6.228
 4102POPC   D2A54148   4.085  38.972   6.639
 4102POPC   C3A54149   4.302  39.082   7.015
 4102POPC   C4A54150   4.762  39.120   7.127
 4102POPC   C1B54151   4.118  39.652   6.310
 4102POPC   C2B54152   4.059  39.505   6.713
 4102POPC   C3B54153   3.970  39.477   7.157
 4102POPC   C4B54154   4.135  39.573   7.561
 4103POPC   NC354155  39.108  19.483   5.426
 4103POPC   PO454156  39.518  19.976   5.345
 4103POPC   GL154157  39.405  19.791   5.732
 4103POPC   GL254158  39.038  19.771   5.836
 4103POPC   C1A54159  39.419  19.710   6.171
 4103POPC   D2A54160  39.224  19.888   6.534
 4103POPC   C3A54161  39.413  19.781   6.891
 4103POPC   C4A54162  39.357  19.668   7.253
 4103POPC   C1B54163  38.857  19.628   6.242
 4103POPC   C2B54164  38.724  19.788   6.657
 4103POPC   C3B54165  38.881  19.749   7.062
 4103POPC   C4B54166  38.928  19.368   7.283
 4104POPC   NC354167  29.914  18.621   5.340
 4104POPC   PO454168  29.709  18.034   5.493
 4104POPC   GL154169  29.920  18.283   5.831
 4104POPC   GL254170  30.251  18.406   5.687
 4104POPC   C1A54171  29.888  18.268   6.311
 4104POPC   D2A54172  29.546  18.115   6.633
 4104POPC   C3A54173  29.718  18.006   7.048
 4104POPC   C4A54174  30.127  18.033   7.226
 4104POPC   C1B54175  30.176  18.711   6.010
 4104POPC   C2B54176  30.106  18.721   6.467
 4104POPC   C3B54177  30.091  18.441   6.859
 4104POPC   C4B54178  30.231  18.529   7.306
 4105POPC   NC354179   2.488  43.425   5.502
 4105POPC   PO454180   2.828  42.742   5.630
 4105POPC   GL154181   2.844  43.180   5.763
 4105POPC   GL254182   2.646  43.028   6.005
 4105POPC   C1A54183   2.823  43.479   6.124
 4105POPC   D2A54184   2.798  43.266   6.511
 4105POPC   C3A54185   3.012  43.305   6.900
 4105POPC   C4A54186   2.997  43.630   7.212
 4105POPC   C1B54187   2.720  42.772   6.356
 4105POPC   C2B54188   2.783  42.833   6.798
 4105POPC   C3B54189   2.637  43.016   7.165
 4105POPC   C4B54190   2.635  42.805   7.557
 4106POPC   NC354191  11.469  42.950   5.502
 4106POPC   PO454192  11.750  43.553   5.765
 4106POPC   GL154193  11.562  43.173   5.944
 4106POPC   GL254194  11.250  43.087   5.932
 4106POPC   C1A54195  11.532  42.944   6.318
 4106POPC   D2A54196  11.559  43.223   6.621
 4106POPC   C3A54197  11.324  43.137   6.926
 4106POPC   C4A54198  11.503  42.862   7.207
 4106POPC   C1B54199  11.030  43.100   6.314
 4106POPC   C2B54200  10.790  43.251   6.592
 4106POPC   C3B54201  10.874  43.379   6.991
 4106POPC   C4B54202  10.982  43.122   7.292
 4107POPC   NC354203  13.391   7.806   5.448
 4107POPC   PO454204  13.721   8.440   5.409
 4107POPC   GL154205  13.481   8.367   5.783
 4107POPC   GL254206  13.533   8.014   5.912
 4107POPC   C1A54207  13.610   8.427   6.204
 4107POPC   D2A54208  13.722   8.181   6.562
 4107POPC   C3A54209  13.745   8.398   6.943
 4107POPC   C4A54210  13.435   8.458   7.242
 4107POPC   C1B54211  13.930   7.921   6.158
 4107POPC   C2B54212  13.977   7.691   6.547
 4107POPC   C3B54213  13.640   7.747   6.827
 4107POPC   C4B54214  13.594   7.974   7.217
 4108POPC   NC354215  26.680  28.292   5.213
 4108POPC   PO454216  27.343  28.077   5.191
 4108POPC   GL154217  27.225  28.031   5.685
 4108POPC   GL254218  27.363  28.318   5.895
 4108POPC   C1A54219  27.075  28.009   6.183
 4108POPC   D2A54220  27.000  28.254   6.610
 4108POPC   C3A54221  27.032  28.114   7.052
 4108POPC   C4A54222  26.855  28.263   7.473
 4108POPC   C1B54223  27.150  28.571   6.241
 4108POPC   C2B54224  26.928  28.760   6.624
 4108POPC   C3B54225  26.786  28.576   7.030
 4108POPC   C4B54226  26.733  28.756   7.448
 4109POPC   NC354227   1.562   3.782   5.570
 4109POPC   PO454228   1.238   4.433   5.427
 4109POPC   GL154229   1.187   4.118   5.738
 4109POPC   GL254230   1.148   4.394   5.934
 4109POPC   C1A54231   1.244   3.966   6.192
 4109POPC   D2A54232   1.201   3.823   6.636
 4109POPC   C3A54233   1.191   4.146   6.984
 4109POPC   C4A54234   1.276   4.068   7.429
 4109POPC   C1B54235   1.246   4.653   6.242
 4109POPC   C2B54236   1.336   4.608   6.660
 4109POPC   C3B54237   1.046   4.656   6.978
 4109POPC   C4B54238   1.179   4.553   7.352
 4110POPC   NC354239   7.361  33.898   5.435
 4110POPC   PO454240   7.152  33.320   5.509
 4110POPC   GL154241   7.373  33.547   5.824
 4110POPC   GL254242   7.148  33.828   5.937
 4110POPC   C1A54243   7.679  33.833   6.052
 4110POPC   D2A54244   7.820  33.934   6.470
 4110POPC   C3A54245   7.531  33.763   6.776
 4110POPC   C4A54246   7.537  33.658   7.198
 4110POPC   C1B54247   7.242  33.566   6.321
 4110POPC   C2B54248   7.240  33.225   6.643
 4110POPC   C3B54249   7.140  33.359   7.062
 4110POPC   C4B54250   7.043  33.807   7.216
 4111POPC   NC354251  27.021  21.641   5.386
 4111POPC   PO454252  26.882  20.969   5.389
 4111POPC   GL154253  26.966  21.286   5.752
 4111POPC   GL254254  26.695  21.561   5.783
 4111POPC   C1A54255  26.966  21.349   6.215
 4111POPC   D2A54256  27.071  21.144   6.637
 4111POPC   C3A54257  26.918  21.309   7.054
 4111POPC   C4A54258  26.898  21.197   7.498
 4111POPC   C1B54259  26.603  21.868   6.131
 4111POPC   C2B54260  26.740  21.996   6.565
 4111POPC   C3B54261  26.622  21.713   6.925
 4111POPC   C4B54262  26.586  21.652   7.391
 4112POPC   NC354263  25.975   0.740   5.373
 4112POPC   PO454264  25.969   1.410   5.298
 4112POPC   GL154265  26.073   1.242   5.698
 4112POPC   GL254266  25.884   0.978   5.815
 4112POPC   C1A54267  25.889   1.378   6.114
 4112POPC   D2A54268  26.028   1.441   6.507
 4112POPC   C3A54269  25.802   1.363   6.872
 4112POPC   C4A54270  25.956   1.469   7.255
 4112POPC   C1B54271  26.213   1.009   6.177
 4112POPC   C2B54272  26.021   0.941   6.614
 4112POPC   C3B54273  26.098   1.006   7.055
 4112POPC   C4B54274  26.266   0.842   7.430
 4113POPC   NC354275  39.035  17.916   5.374
 4113POPC   PO454276  39.093  18.602   5.357
 4113POPC   GL154277  39.291  18.300   5.657
 4113POPC   GL254278  39.096  18.056   5.874
 4113POPC   C1A54279  39.487  18.383   6.050
 4113POPC   D2A54280  39.287  18.374   6.464
 4113POPC   C3A54281  39.309  18.577   6.890
 4113POPC   C4A54282  39.314  18.442   7.326
 4113POPC   C1B54283  39.033  17.958   6.314
 4113POPC   C2B54284  38.965  17.802   6.729
 4113POPC   C3B54285  38.853  18.012   7.110
 4113POPC   C4B54286  39.116  17.986   7.457
 4114POPC   NC354287  11.176  14.555   5.440
 4114POPC   PO454288  11.601  14.105   5.492
 4114POPC   GL154289  11.535  14.460   5.810
 4114POPC   GL254290  11.154  14.494   5.928
 4114POPC   C1A54291  11.489  14.629   6.261
 4114POPC   D2A54292  11.589  14.465   6.648
 4114POPC   C3A54293  11.437  14.557   7.043
 4114POPC   C4A54294  11.259  14.344   7.362
 4114POPC   C1B54295  10.938  14.651   6.294
 4114POPC   C2B54296  10.991  14.628   6.750
 4114POPC   C3B54297  10.967  14.760   7.192
 4114POPC   C4B54298  11.149  14.758   7.636
 4115POPC   NC354299  29.131  25.787   5.394
 4115POPC   PO454300  28.844  26.370   5.477
 4115POPC   GL154301  29.019  26.073   5.842
 4115POPC   GL254302  29.016  25.668   5.880
 4115POPC   C1A54303  28.952  25.984   6.302
 4115POPC   D2A54304  28.745  26.102   6.708
 4115POPC   C3A54305  29.080  26.161   7.025
 4115POPC   C4A54306  29.461  26.448   7.004
 4115POPC   C1B54307  29.187  25.532   6.297
 4115POPC   C2B54308  29.240  25.805   6.687
 4115POPC   C3B54309  29.363  25.712   7.126
 4115POPC   C4B54310  29.153  25.668   7.549
 4116POPC   NC354311  44.599  43.073   5.202
 4116POPC   PO454312   0.032  43.436   5.492
 4116POPC   GL154313  44.771  43.216   5.795
 4116POPC   GL254314  44.438  43.263   5.669
 4116POPC   C1A54315  44.814  43.218   6.261
 4116POPC   D2A54316  44.967  43.114   6.677
 4116POPC   C3A54317  44.609  43.097   6.954
 4116POPC   C4A54318  44.488  42.913   7.349
 4116POPC   C1B54319  44.371  43.429   6.091
 4116POPC   C2B54320  44.387  43.412   6.536
 4116POPC   C3B54321  44.352  43.578   6.953
 4116POPC   C4B54322  44.231  43.356   7.322
 4117POPC   NC354323  36.222  13.194   5.545
 4117POPC   PO454324  36.207  13.820   5.275
 4117POPC   GL154325  36.332  13.880   5.706
 4117POPC   GL254326  36.044  13.650   5.783
 4117POPC   C1A54327  36.450  13.720   6.144
 4117POPC   D2A54328  36.315  13.475   6.532
 4117POPC   C3A54329  36.328  13.658   6.937
 4117POPC   C4A54330  36.131  13.857   7.288
 4117POPC   C1B54331  35.941  13.651   6.220
 4117POPC   C2B54332  35.867  13.703   6.660
 4117POPC   C3B54333  35.840  13.501   7.065
 4117POPC   C4B54334  35.744  13.201   7.383
 4118POPC   NC354335   7.148   1.864   5.475
 4118POPC   PO454336   7.546   2.416   5.377
 4118POPC   GL154337   7.447   2.262   5.771
 4118POPC   GL254338   7.476   1.889   5.865
 4118POPC   C1A54339   7.146   2.206   6.091
 4118POPC   D2A54340   7.238   1.989   6.442
 4118POPC   C3A54341   7.131   2.098   6.851
 4118POPC   C4A54342   7.384   2.068   7.201
 4118POPC   C1B54343   7.731   1.679   6.169
 4118POPC   C2B54344   7.644   1.534   6.580
 4118POPC   C3B54345   7.737   1.643   6.995
 4118POPC   C4B54346   7.898   1.349   7.258
 4119POPC   NC354347  41.250  29.498   5.481
 4119POPC   PO454348  41.736  30.066   5.392
 4119POPC   GL154349  41.636  30.006   5.841
 4119POPC   GL254350  41.297  29.908   5.843
 4119POPC   C1A54351  41.558  30.013   6.314
 4119POPC   D2A54352  41.813  30.122   6.697
 4119POPC   C3A54353  41.966  29.841   6.974
 4119POPC   C4A54354  41.739  29.671   7.242
 4119POPC   C1B54355  41.245  29.539   6.133
 4119POPC   C2B54356  41.432  29.518   6.542
 4119POPC   C3B54357  41.365  29.772   6.918
 4119POPC   C4B54358  41.140  29.583   7.262
 4120POPC   NC354359  38.246  15.404   5.461
 4120POPC   PO454360  38.807  15.085   5.482
 4120POPC   GL154361  38.576  15.097   5.829
 4120POPC   GL254362  38.323  14.863   5.735
 4120POPC   C1A54363  38.663  15.150   6.282
 4120POPC   D2A54364  38.655  15.363   6.699
 4120POPC   C3A54365  38.615  15.056   7.012
 4120POPC   C4A54366  38.662  14.670   7.248
 4120POPC   C1B54367  38.179  15.004   6.146
 4120POPC   C2B54368  38.256  15.047   6.595
 4120POPC   C3B54369  38.140  15.357   6.905
 4120POPC   C4B54370  38.202  15.478   7.329
 4121POPC   NC354371  38.519  14.883   5.171
 4121POPC   PO454372  38.664  14.190   5.368
 4121POPC   GL154373  38.550  14.283   5.758
 4121POPC   GL254374  38.209  14.361   5.672
 4121POPC   C1A54375  38.523  14.551   6.133
 4121POPC   D2A54376  38.642  14.692   6.555
 4121POPC   C3A54377  38.692  14.341   6.822
 4121POPC   C4A54378  38.514  14.175   7.160
 4121POPC   C1B54379  38.022  14.527   6.072
 4121POPC   C2B54380  38.077  14.552   6.523
 4121POPC   C3B54381  38.264  14.640   6.923
 4121POPC   C4B54382  38.158  14.950   7.222
 4122POPC   NC354383   3.997  28.372   5.339
 4122POPC   PO454384   3.370  28.573   5.375
 4122POPC   GL154385   3.504  28.443   5.767
 4122POPC   GL254386   3.664  28.143   5.703
 4122POPC   C1A54387   3.750  28.513   6.150
 4122POPC   D2A54388   3.888  28.522   6.584
 4122POPC   C3A54389   3.608  28.455   6.927
 4122POPC   C4A54390   3.531  28.609   7.352
 4122POPC   C1B54391   3.486  28.048   6.131
 4122POPC   C2B54392   3.439  28.026   6.606
 4122POPC   C3B54393   3.559  27.947   7.061
 4122POPC   C4B54394   3.919  28.172   7.228
 4123POPC   NC354395   0.493  28.027   5.264
 4123POPC   PO454396   0.693  27.405   5.380
 4123POPC   GL154397   0.574  27.597   5.749
 4123POPC   GL254398   0.259  27.814   5.703
 4123POPC   C1A54399   0.660  27.429   6.162
 4123POPC   D2A54400   0.441  27.606   6.507
 4123POPC   C3A54401   0.509  27.758   6.903
 4123POPC   C4A54402   0.429  27.640   7.332
 4123POPC   C1B54403   0.146  27.554   6.087
 4123POPC   C2B54404  44.972  27.457   6.532
 4123POPC   C3B54405   0.058  27.536   6.978
 4123POPC   C4B54406   0.068  27.964   7.171
 4124POPC   NC354407  23.768  42.553   5.317
 4124POPC   PO454408  23.397  42.026   5.279
 4124POPC   GL154409  23.426  42.201   5.733
 4124POPC   GL254410  23.712  42.429   5.788
 4124POPC   C1A54411  23.599  42.190   6.196
 4124POPC   D2A54412  23.728  41.971   6.576
 4124POPC   C3A54413  23.602  42.223   6.958
 4124POPC   C4A54414  23.501  42.632   7.176
 4124POPC   C1B54415  24.043  42.387   6.114
 4124POPC   C2B54416  23.946  42.415   6.546
 4124POPC   C3B54417  24.024  42.510   6.962
 4124POPC   C4B54418  24.308  42.504   7.281
 4125POPC   NC354419  33.205  14.588   5.436
 4125POPC   PO454420  32.720  14.153   5.487
 4125POPC   GL154421  32.918  14.382   5.802
 4125POPC   GL254422  32.910  14.732   5.902
 4125POPC   C1A54423  33.152  14.342   6.139
 4125POPC   D2A54424  33.013  14.291   6.532
 4125POPC   C3A54425  33.325  14.108   6.775
 4125POPC   C4A54426  33.222  14.029   7.170
 4125POPC   C1B54427  33.059  14.808   6.336
 4125POPC   C2B54428  33.353  14.645   6.667
 4125POPC   C3B54429  33.097  14.519   7.021
 4125POPC   C4B54430  32.901  14.872   7.186
 4126POPC   NC354431  17.697  44.689   5.366
 4126POPC   PO454432  17.147   0.067   5.584
 4126POPC   GL154433  17.356  44.653   5.791
 4126POPC   GL254434  17.709  44.590   5.859
 4126POPC   C1A54435  17.417  44.522   6.255
 4126POPC   D2A54436  17.206  44.665   6.624
 4126POPC   C3A54437  17.398  44.510   7.013
 4126POPC   C4A54438  17.605  44.397   7.426
 4126POPC   C1B54439  17.894  44.315   6.188
 4126POPC   C2B54440  17.733  44.316   6.624
 4126POPC   C3B54441  17.910  44.487   6.980
 4126POPC   C4B54442  17.765  44.816   7.213
 4127POPC   NC354443   3.366   3.827   5.390
 4127POPC   PO454444   3.624   3.104   5.378
 4127POPC   GL154445   3.615   3.431   5.727
 4127POPC   GL254446   3.231   3.481   5.736
 4127POPC   C1A54447   3.779   3.602   6.173
 4127POPC   D2A54448   3.815   3.327   6.565
 4127POPC   C3A54449   3.618   3.361   6.977
 4127POPC   C4A54450   3.686   3.664   7.364
 4127POPC   C1B54451   3.334   3.358   6.164
 4127POPC   C2B54452   3.373   3.572   6.556
 4127POPC   C3B54453   3.315   3.775   6.961
 4127POPC   C4B54454   3.223   3.474   7.291
 4128POPC   NC354455  26.294  13.191   5.368
 4128POPC   PO454456  26.274  12.529   5.250
 4128POPC   GL154457  26.170  12.750   5.637
 4128POPC   GL254458  25.879  13.005   5.653
 4128POPC   C1A54459  26.036  12.733   6.070
 4128POPC   D2A54460  26.113  12.958   6.447
 4128POPC   C3A54461  26.200  12.780   6.852
 4128POPC   C4A54462  26.156  12.874   7.268
 4128POPC   C1B54463  25.734  13.169   6.079
 4128POPC   C2B54464  25.583  13.041   6.514
 4128POPC   C3B54465  25.798  13.076   6.934
 4128POPC   C4B54466  25.706  13.142   7.370
 4129POPC   NC354467  10.910   8.200   5.597
 4129POPC   PO454468  11.515   8.112   5.426
 4129POPC   GL154469  11.342   8.123   5.860
 4129POPC   GL254470  11.359   8.456   5.902
 4129POPC   C1A54471  11.443   8.228   6.344
 4129POPC   D2A54472  11.695   8.213   6.711
 4129POPC   C3A54473  11.402   8.193   7.041
 4129POPC   C4A54474  10.951   8.062   7.069
 4129POPC   C1B54475  11.010   8.442   6.187
 4129POPC   C2B54476  10.948   8.247   6.560
 4129POPC   C3B54477  11.040   8.520   6.879
 4129POPC   C4B54478  11.227   8.649   7.226
 4130POPC   NC354479  37.650  21.639   5.150
 4130POPC   PO454480  38.076  21.194   5.484
 4130POPC   GL154481  37.795  21.204   5.844
 4130POPC   GL254482  37.631  21.485   5.703
 4130POPC   C1A54483  37.696  21.140   6.296
 4130POPC   D2A54484  37.672  21.431   6.633
 4130POPC   C3A54485  37.570  21.212   6.996
 4130POPC   C4A54486  37.772  21.191   7.361
 4130POPC   C1B54487  37.556  21.604   6.148
 4130POPC   C2B54488  37.413  21.863   6.497
 4130POPC   C3B54489  37.362  21.971   6.940
 4130POPC   C4B54490  37.586  21.684   7.227
 4131POPC   NC354491  14.986  34.720   5.437
 4131POPC   PO454492  15.491  34.331   5.575
 4131POPC   GL154493  15.207  34.520   5.868
 4131POPC   GL254494  15.249  34.902   5.860
 4131POPC   C1A54495  15.195  34.283   6.254
 4131POPC   D2A54496  15.075  34.085   6.628
 4131POPC   C3A54497  14.960  34.312   6.974
 4131POPC   C4A54498  15.165  34.277   7.347
 4131POPC   C1B54499  15.238  34.797   6.296
 4131POPC   C2B54500  15.303  34.555   6.692
 4131POPC   C3B54501  15.317  34.701   7.115
 4131POPC   C4B54502  15.172  34.780   7.573
 4132POPC   NC354503  29.273  18.188   5.416
 4132POPC   PO454504  28.625  17.953   5.515
 4132POPC   GL154505  28.978  18.203   5.846
 4132POPC   GL254506  29.359  18.360   5.877
 4132POPC   C1A54507  29.038  18.253   6.323
 4132POPC   D2A54508  28.947  18.073   6.764
 4132POPC   C3A54509  29.193  18.217   7.073
 4132POPC   C4A54510  29.340  18.136   7.463
 4132POPC   C1B54511  29.652  18.662   6.108
 4132POPC   C2B54512  29.623  18.638   6.578
 4132POPC   C3B54513  29.591  18.510   6.990
 4132POPC   C4B54514  29.759  18.392   7.385
 4133POPC   NC354515   6.127  35.875   5.690
 4133POPC   PO454516   5.741  36.414   5.494
 4133POPC   GL154517   5.919  36.310   5.907
 4133POPC   GL254518   5.809  35.968   6.060
 4133POPC   C1A54519   6.101  36.269   6.330
 4133POPC   D2A54520   5.845  36.000   6.583
 4133POPC   C3A54521   5.790  36.110   6.981
 4133POPC   C4A54522   5.997  35.943   7.343
 4133POPC   C1B54523   5.558  36.309   6.268
 4133POPC   C2B54524   5.380  36.276   6.686
 4133POPC   C3B54525   5.386  36.460   7.069
 4133POPC   C4B54526   5.670  36.363   7.387
 4134POPC   NC354527   4.937   3.235   5.365
 4134POPC   PO454528   5.534   3.625   5.279
 4134POPC   GL154529   5.180   3.605   5.644
 4134POPC   GL254530   4.963   3.932   5.750
 4134POPC   C1A54531   5.084   3.589   6.094
 4134POPC   D2A54532   5.185   3.765   6.488
 4134POPC   C3A54533   5.286   3.419   6.763
 4134POPC   C4A54534   5.443   3.440   7.172
 4134POPC   C1B54535   4.764   3.984   6.177
 4134POPC   C2B54536   4.673   3.839   6.603
 4134POPC   C3B54537   4.928   3.747   6.960
 4134POPC   C4B54538   5.034   4.075   7.194
 4135POPC   NC354539   2.297   1.657   5.484
 4135POPC   PO454540   2.866   1.913   5.313
 4135POPC   GL154541   2.623   2.060   5.703
 4135POPC   GL254542   2.889   2.147   5.940
 4135POPC   C1A54543   2.418   2.245   6.108
 4135POPC   D2A54544   2.634   2.201   6.531
 4135POPC   C3A54545   2.533   2.171   6.961
 4135POPC   C4A54546   2.950   2.103   7.141
 4135POPC   C1B54547   2.942   1.715   6.004
 4135POPC   C2B54548   2.932   1.579   6.426
 4135POPC   C3B54549   2.971   1.658   6.858
 4135POPC   C4B54550   2.954   1.479   7.241
 4136POPC   NC354551   9.958   2.451   5.278
 4136POPC   PO454552   9.671   3.051   5.367
 4136POPC   GL154553   9.660   2.809   5.806
 4136POPC   GL254554   9.444   2.492   5.887
 4136POPC   C1A54555   9.794   2.855   6.223
 4136POPC   D2A54556   9.979   3.078   6.559
 4136POPC   C3A54557  10.104   2.809   6.892
 4136POPC   C4A54558  10.052   2.806   7.341
 4136POPC   C1B54559   9.437   2.498   6.346
 4136POPC   C2B54560   9.607   2.709   6.703
 4136POPC   C3B54561   9.656   2.559   7.128
 4136POPC   C4B54562   9.542   2.264   7.493
 4137POPC   NC354563  13.098  17.660   5.416
 4137POPC   PO454564  12.681  17.110   5.353
 4137POPC   GL154565  12.655  17.230   5.785
 4137POPC   GL254566  12.848  16.949   5.887
 4137POPC   C1A54567  12.911  17.417   6.141
 4137POPC   D2A54568  13.106  17.376   6.582
 4137POPC   C3A54569  12.977  17.692   6.896
 4137POPC   C4A54570  13.057  17.620   7.328
 4137POPC   C1B54571  12.958  16.935   6.321
 4137POPC   C2B54572  12.750  17.011   6.712
 4137POPC   C3B54573  12.921  17.145   7.107
 4137POPC   C4B54574  12.803  17.205   7.546
 4138POPC   NC354575   5.727  37.559   5.387
 4138POPC   PO454576   6.364  37.834   5.265
 4138POPC   GL154577   6.186  37.875   5.716
 4138POPC   GL254578   5.935  37.656   5.862
 4138POPC   C1A54579   6.144  37.979   6.166
 4138POPC   D2A54580   5.932  37.792   6.502
 4138POPC   C3A54581   6.185  37.848   6.872
 4138POPC   C4A54582   6.162  37.928   7.306
 4138POPC   C1B54583   6.224  37.456   6.189
 4138POPC   C2B54584   6.236  37.377   6.649
 4138POPC   C3B54585   5.913  37.415   6.990
 4138POPC   C4B54586   5.492  37.330   7.195
 4139POPC   NC354587   4.747  28.552   5.641
 4139POPC   PO454588   5.292  28.262   5.435
 4139POPC   GL154589   5.314  28.527   5.797
 4139POPC   GL254590   5.088  28.335   5.953
 4139POPC   C1A54591   5.348  28.659   6.266
 4139POPC   D2A54592   5.099  28.785   6.636
 4139POPC   C3A54593   5.184  28.640   7.038
 4139POPC   C4A54594   5.262  28.339   7.363
 4139POPC   C1B54595   4.851  28.511   6.274
 4139POPC   C2B54596   4.843  28.271   6.616
 4139POPC   C3B54597   4.908  28.209   7.017
 4139POPC   C4B54598   4.588  28.188   7.271
 4140POPC   NC354599  15.340  42.148   5.619
 4140POPC   PO454600  15.230  42.678   5.211
 4140POPC   GL154601  15.185  42.639   5.711
 4140POPC   GL254602  14.849  42.693   5.848
 4140POPC   C1A54603  15.224  42.400   6.178
 4140POPC   D2A54604  15.166  42.476   6.632
 4140POPC   C3A54605  14.925  42.225   6.908
 4140POPC   C4A54606  15.104  42.124   7.300
 4140POPC   C1B54607  15.008  42.840   6.248
 4140POPC   C2B54608  14.888  42.910   6.631
 4140POPC   C3B54609  14.902  42.726   7.030
 4140POPC   C4B54610  14.694  42.431   7.325
 4141POPC   NC354611   2.801  10.389   5.037
 4141POPC   PO454612   2.760  10.627   5.664
 4141POPC   GL154613   2.874  10.566   6.047
 4141POPC   GL254614   2.979  10.241   5.989
 4141POPC   C1A54615   2.638  10.640   6.408
 4141POPC   D2A54616   2.527  10.413   6.756
 4141POPC   C3A54617   2.582  10.645   7.107
 4141POPC   C4A54618   2.468  10.423   7.507
 4141POPC   C1B54619   2.912  10.175   6.409
 4141POPC   C2B54620   3.034  10.389   6.745
 4141POPC   C3B54621   2.947  10.324   7.180
 4141POPC   C4B54622   2.928  10.210   7.607
 4142POPC   NC354623  29.747  39.571   5.451
 4142POPC   PO454624  30.134  38.998   5.494
 4142POPC   GL154625  29.937  39.084   5.857
 4142POPC   GL254626  30.014  39.433   5.877
 4142POPC   C1A54627  29.917  39.093   6.296
 4142POPC   D2A54628  29.971  39.365   6.619
 4142POPC   C3A54629  29.985  39.098   6.966
 4142POPC   C4A54630  29.703  39.020   7.308
 4142POPC   C1B54631  29.594  39.447   6.106
 4142POPC   C2B54632  29.477  39.582   6.541
 4142POPC   C3B54633  29.637  39.513   6.988
 4142POPC   C4B54634  29.956  39.471   7.310
 4143POPC   NC354635  31.693  21.066   5.149
 4143POPC   PO454636  31.436  20.451   5.294
 4143POPC   GL154637  31.361  20.568   5.722
 4143POPC   GL254638  31.717  20.651   5.753
 4143POPC   C1A54639  31.200  20.672   6.160
 4143POPC   D2A54640  31.237  20.869   6.573
 4143POPC   C3A54641  31.289  20.664   6.977
 4143POPC   C4A54642  31.127  20.806   7.375
 4143POPC   C1B54643  31.900  20.680   6.170
 4143POPC   C2B54644  31.831  20.512   6.551
 4143POPC   C3B54645  31.804  20.648   6.935
 4143POPC   C4B54646  31.804  20.539   7.334
 4144POPC   NC354647  10.059  43.660   5.508
 4144POPC   PO454648   9.510  44.046   5.415
 4144POPC   GL154649   9.639  43.874   5.796
 4144POPC   GL254650   9.987  44.001   5.890
 4144POPC   C1A54651   9.597  43.980   6.224
 4144POPC   D2A54652   9.931  44.105   6.509
 4144POPC   C3A54653   9.824  43.956   6.909
 4144POPC   C4A54654   9.456  43.779   7.103
 4144POPC   C1B54655  10.017  43.650   6.186
 4144POPC   C2B54656  10.078  43.596   6.619
 4144POPC   C3B54657   9.865  43.456   7.004
 4144POPC   C4B54658  10.072  43.654   7.347
 4145POPC   NC354659   3.455   6.358   5.380
 4145POPC   PO454660   3.408   5.690   5.494
 4145POPC   GL154661   3.535   5.829   5.862
 4145POPC   GL254662   3.503   6.177   5.858
 4145POPC   C1A54663   3.675   5.716   6.251
 4145POPC   D2A54664   3.484   5.818   6.620
 4145POPC   C3A54665   3.409   5.628   6.982
 4145POPC   C4A54666   3.510   5.956   7.237
 4145POPC   C1B54667   3.376   6.211   6.283
 4145POPC   C2B54668   3.547   6.328   6.688
 4145POPC   C3B54669   3.738   6.378   7.091
 4145POPC   C4B54670   3.695   6.344   7.544
 4146POPC   NC354671   5.501   2.256   5.484
 4146POPC   PO454672   4.885   2.025   5.395
 4146POPC   GL154673   4.804   2.041   5.815
 4146POPC   GL254674   5.093   2.272   5.843
 4146POPC   C1A54675   4.920   1.974   6.257
 4146POPC   D2A54676   5.212   1.864   6.588
 4146POPC   C3A54677   5.061   2.123   6.930
 4146POPC   C4A54678   4.710   2.343   7.072
 4146POPC   C1B54679   5.358   2.236   6.203
 4146POPC   C2B54680   5.465   2.306   6.626
 4146POPC   C3B54681   5.442   2.462   7.005
 4146POPC   C4B54682   5.727   2.311   7.292
 4147POPC   NC354683   6.240   8.424   4.959
 4147POPC   PO454684   6.578   8.039   5.409
 4147POPC   GL154685   6.477   8.138   5.834
 4147POPC   GL254686   6.432   8.479   5.880
 4147POPC   C1A54687   6.595   7.949   6.211
 4147POPC   D2A54688   6.501   7.799   6.591
 4147POPC   C3A54689   6.826   7.888   6.904
 4147POPC   C4A54690   6.752   8.051   7.316
 4147POPC   C1B54691   6.487   8.447   6.296
 4147POPC   C2B54692   6.704   8.356   6.625
 4147POPC   C3B54693   6.625   8.439   7.021
 4147POPC   C4B54694   6.994   8.553   7.215
 4148POPC   NC354695  30.156   2.482   5.402
 4148POPC   PO454696  29.537   2.727   5.505
 4148POPC   GL154697  29.780   2.732   5.892
 4148POPC   GL254698  30.093   2.606   5.922
 4148POPC   C1A54699  29.697   2.642   6.336
 4148POPC   D2A54700  29.481   2.477   6.690
 4148POPC   C3A54701  29.573   2.633   7.114
 4148POPC   C4A54702  29.455   2.491   7.517
 4148POPC   C1B54703  30.187   2.779   6.358
 4148POPC   C2B54704  29.993   2.710   6.766
 4148POPC   C3B54705  30.114   2.670   7.176
 4148POPC   C4B54706  30.307   3.004   7.470
 4149POPC   NC354707  31.811  43.390   5.118
 4149POPC   PO454708  31.395  43.217   5.639
 4149POPC   GL154709  31.429  43.162   6.014
 4149POPC   GL254710  31.771  43.131   6.029
 4149POPC   C1A54711  31.466  43.366   6.388
 4149POPC   D2A54712  31.640  43.026   6.584
 4149POPC   C3A54713  31.367  42.910   6.881
 4149POPC   C4A54714  31.152  42.990   7.276
 4149POPC   C1B54715  31.980  43.387   6.334
 4149POPC   C2B54716  31.848  43.496   6.752
 4149POPC   C3B54717  32.021  43.498   7.155
 4149POPC   C4B54718  31.801  43.490   7.603
 4150POPC   NC354719  28.002  21.235   5.549
 4150POPC   PO454720  27.490  21.614   5.406
 4150POPC   GL154721  27.763  21.670   5.802
 4150POPC   GL254722  27.451  21.567   5.944
 4150POPC   C1A54723  27.932  21.476   6.203
 4150POPC   D2A54724  27.865  21.209   6.571
 4150POPC   C3A54725  27.878  21.399   6.985
 4150POPC   C4A54726  27.828  21.370   7.429
 4150POPC   C1B54727  27.444  21.453   6.375
 4150POPC   C2B54728  27.405  21.465   6.790
 4150POPC   C3B54729  27.400  21.447   7.171
 4150POPC   C4B54730  27.536  21.812   7.368
 4151POPC   NC354731  22.536  44.583   5.318
 4151POPC   PO454732  22.041  44.977   5.267
 4151POPC   GL154733  22.054  44.703   5.690
 4151POPC   GL254734  22.364  44.506   5.788
 4151POPC   C1A54735  21.921  44.660   6.154
 4151POPC   D2A54736  21.877  44.705   6.637
 4151POPC   C3A54737  22.187  44.629   6.969
 4151POPC   C4A54738  22.107  44.702   7.428
 4151POPC   C1B54739  22.271  44.263   6.155
 4151POPC   C2B54740  21.920  44.235   6.445
 4151POPC   C3B54741  21.860  44.223   6.877
 4151POPC   C4B54742  22.202  44.156   7.147
 4152POPC   NC354743  33.761   1.526   5.417
 4152POPC   PO454744  33.478   0.865   5.376
 4152POPC   GL154745  33.615   1.115   5.738
 4152POPC   GL254746  33.415   1.456   5.776
 4152POPC   C1A54747  33.879   1.037   6.119
 4152POPC   D2A54748  33.872   1.191   6.552
 4152POPC   C3A54749  34.102   1.121   6.944
 4152POPC   C4A54750  34.097   0.703   7.117
 4152POPC   C1B54751  33.614   1.482   6.177
 4152POPC   C2B54752  33.410   1.399   6.575
 4152POPC   C3B54753  33.587   1.338   6.973
 4152POPC   C4B54754  33.828   1.645   7.159
 4153POPC   NC354755  24.096  23.417   5.673
 4153POPC   PO454756  23.610  23.719   5.271
 4153POPC   GL154757  23.640  23.622   5.766
 4153POPC   GL254758  23.548  23.337   5.907
 4153POPC   C1A54759  23.814  23.712   6.209
 4153POPC   D2A54760  23.718  23.705   6.651
 4153POPC   C3A54761  23.818  23.542   7.036
 4153POPC   C4A54762  23.820  23.806   7.355
 4153POPC   C1B54763  23.494  23.317   6.360
 4153POPC   C2B54764  23.376  23.358   6.808
 4153POPC   C3B54765  23.348  23.327   7.266
 4153POPC   C4B54766  23.473  23.528   7.678
 4154POPC   NC354767  11.463  27.941   5.705
 4154POPC   PO454768  11.557  27.379   5.405
 4154POPC   GL154769  11.335  27.448   5.823
 4154POPC   GL254770  11.013  27.641   5.864
 4154POPC   C1A54771  11.247  27.523   6.283
 4154POPC   D2A54772  11.479  27.740   6.614
 4154POPC   C3A54773  11.439  27.552   7.028
 4154POPC   C4A54774  11.755  27.321   7.267
 4154POPC   C1B54775  10.975  27.970   6.217
 4154POPC   C2B54776  11.028  28.007   6.665
 4154POPC   C3B54777  11.319  28.067   6.992
 4154POPC   C4B54778  11.255  27.886   7.393
 4155POPC   NC354779   8.321  22.927   5.389
 4155POPC   PO454780   7.661  23.080   5.498
 4155POPC   GL154781   7.997  23.132   5.809
 4155POPC   GL254782   8.385  23.206   5.843
 4155POPC   C1A54783   8.073  22.967   6.213
 4155POPC   D2A54784   7.899  22.699   6.496
 4155POPC   C3A54785   7.894  22.913   6.855
 4155POPC   C4A54786   7.790  22.946   7.259
 4155POPC   C1B54787   8.555  22.856   6.116
 4155POPC   C2B54788   8.429  22.726   6.531
 4155POPC   C3B54789   8.582  22.845   6.937
 4155POPC   C4B54790   8.275  22.795   7.214
 4156POPC   NC354791   4.805  26.943   5.398
 4156POPC   PO454792   5.462  26.662   5.391
 4156POPC   GL154793   5.149  26.692   5.684
 4156POPC   GL254794   5.200  27.062   5.687
 4156POPC   C1A54795   4.985  26.799   6.097
 4156POPC   D2A54796   5.023  26.948   6.529
 4156POPC   C3A54797   4.927  26.637   6.853
 4156POPC   C4A54798   4.739  26.818   7.226
 4156POPC   C1B54799   5.478  26.976   6.023
 4156POPC   C2B54800   5.477  26.754   6.392
 4156POPC   C3B54801   5.456  26.849   6.809
 4156POPC   C4B54802   5.262  26.848   7.173
 4157POPC   NC354803  11.605  23.233   5.225
 4157POPC   PO454804  11.297  22.684   5.397
 4157POPC   GL154805  11.136  22.773   5.815
 4157POPC   GL254806  10.845  22.985   5.817
 4157POPC   C1A54807  11.325  22.601   6.196
 4157POPC   D2A54808  11.551  22.652   6.586
 4157POPC   C3A54809  11.400  22.505   6.976
 4157POPC   C4A54810  11.466  22.760   7.333
 4157POPC   C1B54811  10.900  22.889   6.274
 4157POPC   C2B54812  11.014  22.654   6.637
 4157POPC   C3B54813  10.999  22.837   7.064
 4157POPC   C4B54814  11.034  23.049   7.466
 4158POPC   NC354815   7.811  23.287   5.107
 4158POPC   PO454816   7.203  23.384   5.299
 4158POPC   GL154817   7.218  23.227   5.738
 4158POPC   GL254818   7.292  22.869   5.795
 4158POPC   C1A54819   7.219  23.162   6.201
 4158POPC   D2A54820   7.475  23.070   6.565
 4158POPC   C3A54821   7.284  23.007   6.952
 4158POPC   C4A54822   7.344  23.147   7.352
 4158POPC   C1B54823   7.484  22.689   6.181
 4158POPC   C2B54824   7.337  22.593   6.613
 4158POPC   C3B54825   7.553  22.563   7.034
 4158POPC   C4B54826   7.398  22.624   7.493
 4159POPC   NC354827  42.434  35.443   5.259
 4159POPC   PO454828  41.986  35.829   5.429
 4159POPC   GL154829  42.116  35.429   5.682
 4159POPC   GL254830  42.405  35.167   5.691
 4159POPC   C1A54831  42.304  35.417   6.134
 4159POPC   D2A54832  42.134  35.463   6.573
 4159POPC   C3A54833  42.165  35.262   6.983
 4159POPC   C4A54834  42.310  35.544   7.294
 4159POPC   C1B54835  42.595  34.991   6.068
 4159POPC   C2B54836  42.631  35.192   6.461
 4159POPC   C3B54837  42.649  35.345   6.859
 4159POPC   C4B54838  42.642  35.092   7.238
 4160POPC   NC354839  34.746  10.721   5.708
 4160POPC   PO454840  34.830  10.193   5.204
 4160POPC   GL154841  34.728  10.173   5.748
 4160POPC   GL254842  34.462  10.345   5.910
 4160POPC   C1A54843  34.825  10.372   6.253
 4160POPC   D2A54844  34.906  10.796   6.562
 4160POPC   C3A54845  34.756  10.822   7.011
 4160POPC   C4A54846  34.775  10.441   7.253
 4160POPC   C1B54847  34.376  10.061   6.143
 4160POPC   C2B54848  34.426  10.138   6.529
 4160POPC   C3B54849  34.458  10.436   6.819
 4160POPC   C4B54850  34.282  10.254   7.204
 4161POPC   NC354851  33.262  36.675   5.431
 4161POPC   PO454852  32.986  37.362   5.488
 4161POPC   GL154853  33.198  37.111   5.800
 4161POPC   GL254854  33.026  36.804   5.873
 4161POPC   C1A54855  33.083  37.234   6.228
 4161POPC   D2A54856  32.897  37.102   6.619
 4161POPC   C3A54857  33.091  37.067   7.043
 4161POPC   C4A54858  33.190  36.929   7.487
 4161POPC   C1B54859  32.981  36.682   6.294
 4161POPC   C2B54860  33.120  36.647   6.736
 4161POPC   C3B54861  32.979  36.568   7.179
 4161POPC   C4B54862  32.903  36.523   7.634
 4162POPC   NC354863  36.318  19.374   5.429
 4162POPC   PO454864  35.792  18.960   5.386
 4162POPC   GL154865  35.984  19.102   5.756
 4162POPC   GL254866  35.792  19.419   5.800
 4162POPC   C1A54867  35.982  18.894   6.182
 4162POPC   D2A54868  35.967  18.616   6.561
 4162POPC   C3A54869  36.026  18.877   6.924
 4162POPC   C4A54870  36.348  18.779   7.230
 4162POPC   C1B54871  36.061  19.458   6.121
 4162POPC   C2B54872  36.130  19.280   6.500
 4162POPC   C3B54873  36.048  19.449   6.870
 4162POPC   C4B54874  36.106  19.382   7.230
 4163POPC   NC354875  18.518   2.489   5.632
 4163POPC   PO454876  18.233   1.916   5.393
 4163POPC   GL154877  18.175   1.977   5.816
 4163POPC   GL254878  18.522   2.013   5.907
 4163POPC   C1A54879  18.185   1.901   6.269
 4163POPC   D2A54880  18.390   1.683   6.620
 4163POPC   C3A54881  18.223   1.836   7.016
 4163POPC   C4A54882  18.179   1.955   7.459
 4163POPC   C1B54883  18.662   2.113   6.345
 4163POPC   C2B54884  18.589   2.217   6.803
 4163POPC   C3B54885  18.633   2.129   7.271
 4163POPC   C4B54886  18.573   2.112   7.755
 4164POPC   NC354887   4.082  38.284   5.475
 4164POPC   PO454888   4.563  37.778   5.395
 4164POPC   GL154889   4.427  37.564   5.750
 4164POPC   GL254890   4.232  37.866   5.808
 4164POPC   C1A54891   4.437  37.538   6.197
 4164POPC   D2A54892   4.694  37.741   6.523
 4164POPC   C3A54893   4.574  37.694   6.974
 4164POPC   C4A54894   4.739  38.000   7.287
 4164POPC   C1B54895   4.219  38.042   6.206
 4164POPC   C2B54896   4.200  37.825   6.585
 4164POPC   C3B54897   4.072  37.703   6.967
 4164POPC   C4B54898   3.965  37.906   7.305
 4165POPC   NC354899   0.552   7.118   5.372
 4165POPC   PO454900   0.170   7.633   5.607
 4165POPC   GL154901   0.485   7.367   5.815
 4165POPC   GL254902   0.811   7.588   5.932
 4165POPC   C1A54903   0.622   7.209   6.211
 4165POPC   D2A54904   0.776   7.477   6.533
 4165POPC   C3A54905   0.591   7.298   6.835
 4165POPC   C4A54906   0.632   7.299   7.221
 4165POPC   C1B54907   0.432   7.703   6.202
 4165POPC   C2B54908   0.304   7.668   6.607
 4165POPC   C3B54909   0.459   7.764   7.011
 4165POPC   C4B54910   0.236   7.671   7.352
 4166POPC   NC354911  25.972  40.616   5.367
 4166POPC   PO454912  26.390  41.169   5.472
 4166POPC   GL154913  26.214  40.846   5.788
 4166POPC   GL254914  25.847  40.814   5.829
 4166POPC   C1A54915  26.144  40.694   6.230
 4166POPC   D2A54916  26.352  40.831   6.590
 4166POPC   C3A54917  26.167  40.703   6.977
 4166POPC   C4A54918  25.916  40.546   7.275
 4166POPC   C1B54919  25.728  41.061   6.165
 4166POPC   C2B54920  25.843  40.941   6.601
 4166POPC   C3B54921  25.641  40.877   7.006
 4166POPC   C4B54922  25.455  40.745   7.410
 4167POPC   NC354923  26.321  33.178   5.309
 4167POPC   PO454924  25.764  32.797   5.425
 4167POPC   GL154925  25.991  32.883   5.827
 4167POPC   GL254926  26.260  33.146   5.829
 4167POPC   C1A54927  26.164  32.812   6.256
 4167POPC   D2A54928  26.311  33.042   6.625
 4167POPC   C3A54929  26.145  32.930   7.012
 4167POPC   C4A54930  26.002  32.667   7.328
 4167POPC   C1B54931  26.084  33.311   6.215
 4167POPC   C2B54932  26.074  33.520   6.601
 4167POPC   C3B54933  25.828  33.364   6.912
 4167POPC   C4B54934  25.921  33.306   7.309
 4168POPC   NC354935  11.710  40.851   5.318
 4168POPC   PO454936  11.104  40.927   5.376
 4168POPC   GL154937  11.245  40.868   5.786
 4168POPC   GL254938  11.466  40.612   5.726
 4168POPC   C1A54939  11.244  40.863   6.237
 4168POPC   D2A54940  11.401  40.821   6.666
 4168POPC   C3A54941  11.213  41.059   7.023
 4168POPC   C4A54942  11.359  40.996   7.451
 4168POPC   C1B54943  11.681  40.622   6.112
 4168POPC   C2B54944  11.626  40.389   6.469
 4168POPC   C3B54945  11.701  40.463   6.872
 4168POPC   C4B54946  11.376  40.585   7.130
 4169POPC   NC354947   7.184  38.111   5.512
 4169POPC   PO454948   7.097  37.439   5.373
 4169POPC   GL154949   7.304  37.581   5.760
 4169POPC   GL254950   7.117  37.799   5.949
 4169POPC   C1A54951   7.530  37.651   6.197
 4169POPC   D2A54952   7.745  37.459   6.562
 4169POPC   C3A54953   7.708  37.689   6.943
 4169POPC   C4A54954   7.437  37.868   7.236
 4169POPC   C1B54955   7.033  37.681   6.377
 4169POPC   C2B54956   7.216  37.677   6.781
 4169POPC   C3B54957   7.065  37.563   7.193
 4169POPC   C4B54958   7.111  37.641   7.636
 4170POPC   NC354959  41.109   9.943   5.469
 4170POPC   PO454960  40.448  10.070   5.295
 4170POPC   GL154961  40.616   9.811   5.694
 4170POPC   GL254962  40.862   9.976   5.905
 4170POPC   C1A54963  40.656   9.518   6.077
 4170POPC   D2A54964  40.920   9.566   6.413
 4170POPC   C3A54965  40.739   9.550   6.786
 4170POPC   C4A54966  40.886   9.332   7.123
 4170POPC   C1B54967  41.101  10.101   6.257
 4170POPC   C2B54968  41.241   9.897   6.614
 4170POPC   C3B54969  41.076   9.821   7.034
 4170POPC   C4B54970  41.113  10.048   7.401
 4171POPC   NC354971  29.069   0.515   5.367
 4171POPC   PO454972  29.731   0.384   5.395
 4171POPC   GL154973  29.432   0.424   5.755
 4171POPC   GL254974  29.162   0.703   5.828
 4171POPC   C1A54975  29.223   0.268   6.124
 4171POPC   D2A54976  28.969   0.486   6.402
 4171POPC   C3A54977  29.220   0.488   6.736
 4171POPC   C4A54978  29.212   0.265   7.094
 4171POPC   C1B54979  29.376   0.776   6.220
 4171POPC   C2B54980  29.271   1.006   6.593
 4171POPC   C3B54981  29.154   0.891   7.020
 4171POPC   C4B54982  28.868   0.619   7.192
 4172POPC   NC354983  44.364  38.157   5.404
 4172POPC   PO454984  43.769  38.427   5.489
 4172POPC   GL154985  44.058  38.338   5.793
 4172POPC   GL254986  44.120  38.700   5.767
 4172POPC   C1A54987  44.041  38.173   6.219
 4172POPC   D2A54988  43.892  38.385   6.613
 4172POPC   C3A54989  43.990  38.328   7.046
 4172POPC   C4A54990  44.116  38.725   7.255
 4172POPC   C1B54991  43.821  38.654   6.123
 4172POPC   C2B54992  43.593  38.770   6.473
 4172POPC   C3B54993  43.655  38.744   6.926
 4172POPC   C4B54994  43.635  38.710   7.395
 4173POPC   NC354995   0.809  26.929   5.369
 4173POPC   PO454996   0.180  26.701   5.382
 4173POPC   GL154997   0.322  26.752   5.800
 4173POPC   GL254998   0.342  27.105   5.876
 4173POPC   C1A54999   0.490  26.653   6.216
 4173POPC   D2A55000   0.329  26.636   6.649
 4173POPC   C3A55001   0.600  26.721   7.024
 4173POPC   C4A55002   0.816  26.719   7.444
 4173POPC   C1B55003   0.290  27.105   6.343
 4173POPC   C2B55004   0.452  27.156   6.758
 4173POPC   C3B55005   0.364  27.168   7.184
 4173POPC   C4B55006   0.243  27.247   7.632
 4174POPC   NC355007  13.509  11.493   5.388
 4174POPC   PO455008  13.922  11.204   5.803
 4174POPC   GL155009  13.708  11.609   5.886
 4174POPC   GL255010  13.344  11.530   5.905
 4174POPC   C1A55011  13.657  11.778   6.314
 4174POPC   D2A55012  13.473  11.542   6.663
 4174POPC   C3A55013  13.775  11.532   6.993
 4174POPC   C4A55014  13.912  11.142   7.111
 4174POPC   C1B55015  13.166  11.234   6.253
 4174POPC   C2B55016  13.235  11.061   6.708
 4174POPC   C3B55017  13.393  11.227   7.149
 4174POPC   C4B55018  13.370  11.109   7.663
 4175POPC   NC355019   8.776  42.090   5.507
 4175POPC   PO455020   9.248  42.586   5.450
 4175POPC   GL155021   8.916  42.537   5.814
 4175POPC   GL255022   8.859  42.219   6.000
 4175POPC   C1A55023   8.919  42.675   6.240
 4175POPC   D2A55024   9.074  42.451   6.568
 4175POPC   C3A55025   8.862  42.525   6.936
 4175POPC   C4A55026   8.672  42.218   7.205
 4175POPC   C1B55027   9.281  42.153   6.182
 4175POPC   C2B55028   9.356  41.930   6.583
 4175POPC   C3B55029   9.271  42.179   6.972
 4175POPC   C4B55030   9.143  42.365   7.339
 4176POPC   NC355031   1.088  40.279   5.452
 4176POPC   PO455032   1.511  39.782   5.353
 4176POPC   GL155033   1.303  39.921   5.726
 4176POPC   GL255034   1.500  40.240   5.766
 4176POPC   C1A55035   1.119  40.006   6.123
 4176POPC   D2A55036   1.188  39.837   6.509
 4176POPC   C3A55037   1.137  39.894   6.932
 4176POPC   C4A55038   0.865  40.160   7.162
 4176POPC   C1B55039   1.601  40.215   6.217
 4176POPC   C2B55040   1.541  40.299   6.668
 4176POPC   C3B55041   1.445  40.265   7.115
 4176POPC   C4B55042   1.482  40.088   7.544
 4177POPC   NC355043  37.315   3.214   5.292
 4177POPC   PO455044  37.891   3.592   5.262
 4177POPC   GL155045  37.586   3.582   5.593
 4177POPC   GL255046  37.420   3.923   5.661
 4177POPC   C1A55047  37.677   3.345   5.968
 4177POPC   D2A55048  37.699   3.442   6.409
 4177POPC   C3A55049  37.773   3.185   6.775
 4177POPC   C4A55050  37.672   3.255   7.227
 4177POPC   C1B55051  37.509   3.874   6.124
 4177POPC   C2B55052  37.376   3.788   6.585
 4177POPC   C3B55053  37.537   3.803   7.010
 4177POPC   C4B55054  37.472   3.719   7.453
 4178POPC   NC355055   0.774  41.688   5.376
 4178POPC   PO455056   1.456  41.590   5.485
 4178POPC   GL155057   1.220  41.559   5.821
 4178POPC   GL255058   1.001  41.843   5.794
 4178POPC   C1A55059   1.415  41.496   6.225
 4178POPC   D2A55060   1.463  41.714   6.576
 4178POPC   C3A55061   1.654  41.586   6.949
 4178POPC   C4A55062   1.460  41.545   7.313
 4178POPC   C1B55063   0.900  41.691   6.202
 4178POPC   C2B55064   0.965  41.813   6.600
 4178POPC   C3B55065   0.780  41.843   6.988
 4178POPC   C4B55066   0.965  41.731   7.359
 4179POPC   NC355067  13.503  39.487   5.331
 4179POPC   PO455068  13.818  38.904   5.256
 4179POPC   GL155069  13.641  39.113   5.631
 4179POPC   GL255070  13.895  39.377   5.676
 4179POPC   C1A55071  13.516  39.341   6.005
 4179POPC   D2A55072  13.610  39.299   6.424
 4179POPC   C3A55073  13.320  39.354   6.752
 4179POPC   C4A55074  13.517  39.059   7.031
 4179POPC   C1B55075  13.967  39.560   6.096
 4179POPC   C2B55076  13.943  39.663   6.548
 4179POPC   C3B55077  13.815  39.489   6.966
 4179POPC   C4B55078  13.412  39.524   7.229
 4180POPC   NC355079  25.246  37.340   5.260
 4180POPC   PO455080  25.415  36.702   5.422
 4180POPC   GL155081  25.447  36.953   5.779
 4180POPC   GL255082  25.191  37.193   5.730
 4180POPC   C1A55083  25.479  36.835   6.200
 4180POPC   D2A55084  25.221  36.845   6.534
 4180POPC   C3A55085  25.350  36.832   6.939
 4180POPC   C4A55086  25.108  36.823   7.318
 4180POPC   C1B55087  25.051  37.116   6.113
 4180POPC   C2B55088  25.045  37.305   6.500
 4180POPC   C3B55089  24.992  37.192   6.921
 4180POPC   C4B55090  24.938  37.391   7.288
 4181POPC   NC355091  36.117  18.649   5.479
 4181POPC   PO455092  36.371  18.016   5.531
 4181POPC   GL155093  36.289  18.316   5.826
 4181POPC   GL255094  35.926  18.296   5.844
 4181POPC   C1A55095  36.358  18.496   6.210
 4181POPC   D2A55096  36.352  18.255   6.573
 4181POPC   C3A55097  36.182  18.356   6.981
 4181POPC   C4A55098  36.455  18.298   7.346
 4181POPC   C1B55099  36.059  18.035   6.209
 4181POPC   C2B55100  35.899  18.028   6.648
 4181POPC   C3B55101  35.962  17.855   7.044
 4181POPC   C4B55102  35.888  17.985   7.436
 4182POPC   NC355103  36.326  22.433   5.510
 4182POPC   PO455104  35.983  21.999   5.117
 4182POPC   GL155105  35.929  22.055   5.609
 4182POPC   GL255106  35.815  22.401   5.749
 4182POPC   C1A55107  36.006  22.062   6.091
 4182POPC   D2A55108  35.895  22.179   6.530
 4182POPC   C3A55109  35.809  21.971   6.937
 4182POPC   C4A55110  36.087  21.834   7.260
 4182POPC   C1B55111  35.923  22.585   6.182
 4182POPC   C2B55112  36.156  22.625   6.604
 4182POPC   C3B55113  36.213  22.327   6.975
 4182POPC   C4B55114  36.484  22.183   7.314
 4183POPC   NC355115   6.681  26.929   5.440
 4183POPC   PO455116   6.466  26.307   5.695
 4183POPC   GL155117   6.676  26.639   5.856
 4183POPC   GL255118   6.397  26.888   5.854
 4183POPC   C1A55119   6.937  26.775   6.196
 4183POPC   D2A55120   6.802  26.983   6.572
 4183POPC   C3A55121   6.859  26.856   7.027
 4183POPC   C4A55122   6.954  26.866   7.484
 4183POPC   C1B55123   6.347  26.913   6.288
 4183POPC   C2B55124   6.324  26.976   6.736
 4183POPC   C3B55125   6.422  26.605   6.942
 4183POPC   C4B55126   6.239  26.444   7.279
 4184POPC   NC355127  26.750  11.837   5.377
 4184POPC   PO455128  27.163  12.438   5.407
 4184POPC   GL155129  26.880  12.346   5.782
 4184POPC   GL255130  26.505  12.351   5.719
 4184POPC   C1A55131  26.812  12.118   6.192
 4184POPC   D2A55132  26.716  11.932   6.630
 4184POPC   C3A55133  27.070  11.883   6.922
 4184POPC   C4A55134  27.184  11.833   7.339
 4184POPC   C1B55135  26.298  12.278   6.112
 4184POPC   C2B55136  26.342  12.379   6.541
 4184POPC   C3B55137  26.582  12.392   6.912
 4184POPC   C4B55138  26.652  12.054   7.190
 4185POPC   NC355139  42.500  26.310   5.202
 4185POPC   PO455140  42.020  25.822   5.379
 4185POPC   GL155141  42.154  25.788   5.793
 4185POPC   GL255142  42.466  25.978   5.786
 4185POPC   C1A55143  42.227  25.973   6.207
 4185POPC   D2A55144  42.504  25.943   6.501
 4185POPC   C3A55145  42.280  26.029   6.845
 4185POPC   C4A55146  42.183  26.048   7.256
 4185POPC   C1B55147  42.645  25.691   6.040
 4185POPC   C2B55148  42.605  25.427   6.363
 4185POPC   C3B55149  42.551  25.467   6.796
 4185POPC   C4B55150  42.635  25.727   7.128
 4186POPC   NC355151  12.814  10.135   5.530
 4186POPC   PO455152  12.721   9.499   5.722
 4186POPC   GL155153  12.935   9.794   5.889
 4186POPC   GL255154  13.228   9.652   5.772
 4186POPC   C1A55155  12.782  10.044   6.234
 4186POPC   D2A55156  12.462   9.940   6.555
 4186POPC   C3A55157  12.635   9.761   6.924
 4186POPC   C4A55158  12.713   9.916   7.328
 4186POPC   C1B55159  13.323   9.797   6.211
 4186POPC   C2B55160  13.119   9.771   6.641
 4186POPC   C3B55161  13.157   9.777   7.103
 4186POPC   C4B55162  13.190  10.038   7.474
 4187POPC   NC355163  29.748  25.255   5.340
 4187POPC   PO455164  30.027  25.773   5.643
 4187POPC   GL155165  29.941  25.352   5.825
 4187POPC   GL255166  30.137  25.046   5.714
 4187POPC   C1A55167  29.715  25.282   6.211
 4187POPC   D2A55168  29.622  25.493   6.599
 4187POPC   C3A55169  29.648  25.271   6.971
 4187POPC   C4A55170  29.945  25.538   7.158
 4187POPC   C1B55171  30.091  24.924   6.172
 4187POPC   C2B55172  29.998  25.059   6.623
 4187POPC   C3B55173  30.122  25.049   7.080
 4187POPC   C4B55174  30.476  25.032   7.363
 4188POPC   NC355175   3.168  38.640   5.485
 4188POPC   PO455176   3.779  38.499   5.197
 4188POPC   GL155177   3.640  38.492   5.694
 4188POPC   GL255178   3.814  38.318   5.997
 4188POPC   C1A55179   3.412  38.587   6.132
 4188POPC   D2A55180   3.594  38.549   6.545
 4188POPC   C3A55181   3.286  38.406   6.835
 4188POPC   C4A55182   3.103  38.719   7.107
 4188POPC   C1B55183   3.722  38.063   6.362
 4188POPC   C2B55184   3.867  38.164   6.762
 4188POPC   C3B55185   3.778  38.440   7.091
 4188POPC   C4B55186   3.770  38.348   7.514
 4189POPC   NC355187  10.660  20.078   5.299
 4189POPC   PO455188  10.521  19.436   5.334
 4189POPC   GL155189  10.683  19.695   5.731
 4189POPC   GL255190  10.665  20.090   5.803
 4189POPC   C1A55191  10.475  19.792   6.169
 4189POPC   D2A55192  10.434  20.003   6.561
 4189POPC   C3A55193  10.331  19.850   6.928
 4189POPC   C4A55194  10.363  20.042   7.304
 4189POPC   C1B55195  10.933  19.998   6.191
 4189POPC   C2B55196  10.909  19.848   6.597
 4189POPC   C3B55197  10.831  19.984   7.018
 4189POPC   C4B55198  10.691  19.670   7.270
 4190POPC   NC355199  10.615  42.648   5.079
 4190POPC   PO455200  10.211  42.320   5.490
 4190POPC   GL155201  10.517  42.381   5.796
 4190POPC   GL255202  10.341  42.616   5.924
 4190POPC   C1A55203  10.650  42.326   6.242
 4190POPC   D2A55204  10.451  42.250   6.649
 4190POPC   C3A55205  10.609  42.387   7.070
 4190POPC   C4A55206  10.477  42.276   7.485
 4190POPC   C1B55207  10.160  42.438   6.253
 4190POPC   C2B55208  10.040  42.600   6.593
 4190POPC   C3B55209  10.206  42.677   6.956
 4190POPC   C4B55210  10.102  42.620   7.359
 4191POPC   NC355211  18.437  24.574   5.196
 4191POPC   PO455212  18.634  24.134   5.615
 4191POPC   GL155213  18.518  24.536   5.746
 4191POPC   GL255214  18.802  24.686   5.896
 4191POPC   C1A55215  18.343  24.617   6.175
 4191POPC   D2A55216  18.284  24.364   6.574
 4191POPC   C3A55217  18.037  24.475   6.957
 4191POPC   C4A55218  18.096  24.341   7.392
 4191POPC   C1B55219  18.779  24.344   6.245
 4191POPC   C2B55220  18.774  24.352   6.704
 4191POPC   C3B55221  18.529  24.566   7.039
 4191POPC   C4B55222  18.270  24.838   7.309
 4192POPC   NC355223   9.671   1.697   5.433
 4192POPC   PO455224  10.138   2.198   5.601
 4192POPC   GL155225   9.879   2.226   5.928
 4192POPC   GL255226   9.665   1.943   5.915
 4192POPC   C1A55227   9.938   2.351   6.350
 4192POPC   D2A55228   9.985   2.064   6.670
 4192POPC   C3A55229   9.877   2.102   7.080
 4192POPC   C4A55230  10.006   1.907   7.413
 4192POPC   C1B55231   9.566   2.012   6.358
 4192POPC   C2B55232   9.468   2.161   6.776
 4192POPC   C3B55233   9.400   1.901   7.158
 4192POPC   C4B55234   9.560   1.767   7.586
 4193POPC   NC355235  20.927  11.994   5.331
 4193POPC   PO455236  20.434  12.454   5.399
 4193POPC   GL155237  20.614  12.232   5.774
 4193POPC   GL255238  20.699  11.887   5.775
 4193POPC   C1A55239  20.463  12.012   6.187
 4193POPC   D2A55240  20.627  11.951   6.565
 4193POPC   C3A55241  20.413  12.046   6.966
 4193POPC   C4A55242  20.315  12.236   7.359
 4193POPC   C1B55243  20.832  11.660   6.171
 4193POPC   C2B55244  20.993  11.600   6.608
 4193POPC   C3B55245  20.718  11.645   6.960
 4193POPC   C4B55246  20.713  11.862   7.369
 4194POPC   NC355247   6.681  37.370   5.152
 4194POPC   PO455248   6.762  37.948   5.633
 4194POPC   GL155249   6.607  37.771   6.029
 4194POPC   GL255250   6.737  37.448   6.025
 4194POPC   C1A55251   6.530  37.780   6.471
 4194POPC   D2A55252   6.748  37.890   6.839
 4194POPC   C3A55253   6.592  37.705   7.156
 4194POPC   C4A55254   6.316  37.434   7.299
 4194POPC   C1B55255   6.683  37.271   6.376
 4194POPC   C2B55256   6.779  37.382   6.754
 4194POPC   C3B55257   6.736  37.191   7.108
 4194POPC   C4B55258   6.778  37.290   7.529
 4195POPC   NC355259  20.381  16.080   5.406
 4195POPC   PO455260  20.782  15.697   5.364
 4195POPC   GL155261  20.656  15.848   5.808
 4195POPC   GL255262  20.412  16.108   5.912
 4195POPC   C1A55263  20.680  15.840   6.278
 4195POPC   D2A55264  20.942  15.968   6.634
 4195POPC   C3A55265  20.761  15.985   7.040
 4195POPC   C4A55266  20.660  15.646   7.297
 4195POPC   C1B55267  20.263  16.155   6.328
 4195POPC   C2B55268  20.361  15.978   6.736
 4195POPC   C3B55269  20.212  15.837   7.157
 4195POPC   C4B55270  20.225  15.542   7.540
 4196POPC   NC355271  31.069  43.781   5.326
 4196POPC   PO455272  30.414  43.918   5.404
 4196POPC   GL155273  30.495  43.879   5.805
 4196POPC   GL255274  30.829  43.747   5.782
 4196POPC   C1A55275  30.584  43.867   6.220
 4196POPC   D2A55276  30.376  43.809   6.561
 4196POPC   C3A55277  30.535  43.567   6.858
 4196POPC   C4A55278  30.382  43.635   7.240
 4196POPC   C1B55279  30.979  44.139   5.983
 4196POPC   C2B55280  30.895  44.236   6.426
 4196POPC   C3B55281  30.818  43.997   6.785
 4196POPC   C4B55282  31.124  43.923   7.140
 4197POPC   NC355283   5.181  11.628   5.177
 4197POPC   PO455284   5.316  11.106   5.633
 4197POPC   GL155285   5.083  11.120   6.005
 4197POPC   GL255286   4.883  11.391   5.966
 4197POPC   C1A55287   5.152  11.224   6.428
 4197POPC   D2A55288   5.284  11.490   6.756
 4197POPC   C3A55289   5.131  11.314   7.107
 4197POPC   C4A55290   5.058  10.861   7.049
 4197POPC   C1B55291   4.835  11.633   6.337
 4197POPC   C2B55292   4.770  11.568   6.756
 4197POPC   C3B55293   4.715  11.656   7.155
 4197POPC   C4B55294   4.900  11.541   7.516
 4198POPC   NC355295  31.556  37.158   5.280
 4198POPC   PO455296  31.192  36.646   5.383
 4198POPC   GL155297  31.308  36.951   5.736
 4198POPC   GL255298  31.664  37.082   5.785
 4198POPC   C1A55299  31.402  36.932   6.200
 4198POPC   D2A55300  31.245  37.018   6.625
 4198POPC   C3A55301  31.286  36.706   6.948
 4198POPC   C4A55302  31.588  36.670   7.238
 4198POPC   C1B55303  31.727  37.345   6.167
 4198POPC   C2B55304  31.747  37.172   6.582
 4198POPC   C3B55305  31.563  37.217   6.999
 4198POPC   C4B55306  31.595  37.149   7.435
 4199POPC   NC355307  13.776  28.724   5.324
 4199POPC   PO455308  13.842  29.361   5.189
 4199POPC   GL155309  13.664  29.235   5.628
 4199POPC   GL255310  13.941  29.049   5.753
 4199POPC   C1A55311  13.585  29.257   6.120
 4199POPC   D2A55312  13.472  29.153   6.582
 4199POPC   C3A55313  13.617  29.314   6.972
 4199POPC   C4A55314  13.465  29.225   7.371
 4199POPC   C1B55315  14.060  28.819   6.128
 4199POPC   C2B55316  14.161  28.896   6.547
 4199POPC   C3B55317  14.076  29.065   6.950
 4199POPC   C4B55318  13.883  28.892   7.278
 4200POPC   NC355319  40.438   2.541   5.485
 4200POPC   PO455320  39.840   2.835   5.245
 4200POPC   GL155321  39.942   2.765   5.713
 4200POPC   GL255322  39.649   2.771   5.889
 4200POPC   C1A55323  40.072   2.522   6.126
 4200POPC   D2A55324  40.395   2.586   6.470
 4200POPC   C3A55325  40.364   2.547   6.924
 4200POPC   C4A55326  40.069   2.717   7.189
 4200POPC   C1B55327  39.877   2.986   6.204
 4200POPC   C2B55328  39.994   2.918   6.628
 4200POPC   C3B55329  39.922   3.164   6.976
 4200POPC   C4B55330  39.748   3.070   7.365
 4201POPC   NC355331   4.137   6.520   5.287
 4201POPC   PO455332   4.440   7.073   5.418
 4201POPC   GL155333   4.413   6.796   5.804
 4201POPC   GL255334   4.104   6.556   5.810
 4201POPC   C1A55335   4.630   6.685   6.213
 4201POPC   D2A55336   4.534   6.577   6.651
 4201POPC   C3A55337   4.514   6.789   7.036
 4201POPC   C4A55338   4.616   6.536   7.389
 4201POPC   C1B55339   4.130   6.651   6.261
 4201POPC   C2B55340   4.038   6.489   6.670
 4201POPC   C3B55341   4.231   6.372   7.081
 4201POPC   C4B55342   4.118   6.653   7.430
 4202POPC   NC355343   9.229  36.990   5.413
 4202POPC   PO455344   8.530  36.826   5.372
 4202POPC   GL155345   8.875  36.744   5.690
 4202POPC   GL255346   8.923  37.080   5.866
 4202POPC   C1A55347   9.041  36.653   6.122
 4202POPC   D2A55348   8.927  36.785   6.543
 4202POPC   C3A55349   9.119  36.699   6.926
 4202POPC   C4A55350   9.072  36.913   7.338
 4202POPC   C1B55351   8.829  37.437   6.187
 4202POPC   C2B55352   8.666  37.493   6.627
 4202POPC   C3B55353   8.723  37.147   6.916
 4202POPC   C4B55354   8.642  36.758   7.124
 4203POPC   NC355355  31.957   2.052   5.338
 4203POPC   PO455356  32.633   2.183   5.307
 4203POPC   GL155357  32.389   2.001   5.707
 4203POPC   GL255358  32.043   2.148   5.813
 4203POPC   C1A55359  32.395   2.058   6.192
 4203POPC   D2A55360  32.629   2.070   6.592
 4203POPC   C3A55361  32.459   1.948   7.009
 4203POPC   C4A55362  32.484   2.177   7.415
 4203POPC   C1B55363  31.917   1.930   6.182
 4203POPC   C2B55364  32.064   1.954   6.593
 4203POPC   C3B55365  31.833   1.980   6.957
 4203POPC   C4B55366  32.028   1.898   7.278
 4204POPC   NC355367  37.683  12.330   5.380
 4204POPC   PO455368  37.885  11.665   5.412
 4204POPC   GL155369  37.745  11.791   5.814
 4204POPC   GL255370  37.582  12.107   5.825
 4204POPC   C1A55371  37.726  11.880   6.264
 4204POPC   D2A55372  37.582  12.056   6.630
 4204POPC   C3A55373  37.885  11.961   6.935
 4204POPC   C4A55374  38.191  12.149   7.177
 4204POPC   C1B55375  37.884  12.348   6.047
 4204POPC   C2B55376  37.859  12.457   6.477
 4204POPC   C3B55377  37.756  12.474   6.899
 4204POPC   C4B55378  37.979  12.617   7.252
 4205POPC   NC355379  38.245  24.116   5.239
 4205POPC   PO455380  38.108  24.837   5.376
 4205POPC   GL155381  38.378  24.520   5.585
 4205POPC   GL255382  38.235  24.219   5.750
 4205POPC   C1A55383  38.579  24.500   5.993
 4205POPC   D2A55384  38.481  24.352   6.396
 4205POPC   C3A55385  38.622  24.550   6.778
 4205POPC   C4A55386  38.617  24.480   7.223
 4205POPC   C1B55387  38.018  24.144   6.161
 4205POPC   C2B55388  38.058  24.170   6.628
 4205POPC   C3B55389  38.167  24.330   7.032
 4205POPC   C4B55390  38.217  24.267   7.484
 4206POPC   NC355391  29.178  15.265   5.300
 4206POPC   PO455392  28.639  14.976   5.192
 4206POPC   GL155393  28.804  15.272   5.653
 4206POPC   GL255394  29.185  15.342   5.786
 4206POPC   C1A55395  28.881  15.228   6.156
 4206POPC   D2A55396  29.015  15.020   6.560
 4206POPC   C3A55397  28.849  15.122   6.991
 4206POPC   C4A55398  28.991  14.964   7.407
 4206POPC   C1B55399  29.347  15.530   6.174
 4206POPC   C2B55400  29.550  15.431   6.575
 4206POPC   C3B55401  29.404  15.254   6.949
 4206POPC   C4B55402  29.354  15.321   7.381
 4207POPC   NC355403   4.340  19.643   5.436
 4207POPC   PO455404   4.188  20.292   5.375
 4207POPC   GL155405   4.232  20.112   5.788
 4207POPC   GL255406   3.912  19.959   5.841
 4207POPC   C1A55407   4.268  19.976   6.230
 4207POPC   D2A55408   4.344  20.137   6.640
 4207POPC   C3A55409   4.346  19.925   7.017
 4207POPC   C4A55410   4.228  19.981   7.450
 4207POPC   C1B55411   3.829  19.729   6.248
 4207POPC   C2B55412   4.022  19.710   6.672
 4207POPC   C3B55413   3.968  19.593   7.134
 4207POPC   C4B55414   3.974  19.567   7.602
 4208POPC   NC355415  25.684  14.015   5.373
 4208POPC   PO455416  26.327  14.247   5.294
 4208POPC   GL155417  26.301  14.364   5.737
 4208POPC   GL255418  26.451  14.722   5.728
 4208POPC   C1A55419  26.161  14.142   6.180
 4208POPC   D2A55420  25.899  14.022   6.580
 4208POPC   C3A55421  26.026  14.276   6.975
 4208POPC   C4A55422  26.238  14.374   7.398
 4208POPC   C1B55423  26.501  14.563   6.162
 4208POPC   C2B55424  26.414  14.411   6.594
 4208POPC   C3B55425  26.388  14.659   6.961
 4208POPC   C4B55426  26.055  14.790   7.186
 4209POPC   NC355427  29.678  11.259   5.163
 4209POPC   PO455428  30.215  11.467   5.518
 4209POPC   GL155429  29.892  11.305   5.782
 4209POPC   GL255430  29.754  11.623   5.912
 4209POPC   C1A55431  29.940  11.139   6.218
 4209POPC   D2A55432  30.126  11.175   6.637
 4209POPC   C3A55433  29.869  11.310   6.985
 4209POPC   C4A55434  30.058  11.471   7.344
 4209POPC   C1B55435  29.579  11.664   6.336
 4209POPC   C2B55436  29.442  11.667   6.786
 4209POPC   C3B55437  29.675  11.767   7.176
 4209POPC   C4B55438  29.627  11.487   7.573
 4210POPC   NC355439  32.298  36.416   5.362
 4210POPC   PO455440  32.657  35.778   5.428
 4210POPC   GL155441  32.410  36.024   5.735
 4210POPC   GL255442  32.491  36.354   5.829
 4210POPC   C1A55443  32.274  36.056   6.194
 4210POPC   D2A55444  32.397  36.233   6.611
 4210POPC   C3A55445  32.210  36.104   7.023
 4210POPC   C4A55446  32.211  35.991   7.470
 4210POPC   C1B55447  32.472  36.591   6.201
 4210POPC   C2B55448  32.586  36.707   6.611
 4210POPC   C3B55449  32.487  36.576   6.997
 4210POPC   C4B55450  32.536  36.351   7.353
 4211POPC   NC355451  32.271   1.104   5.295
 4211POPC   PO455452  31.828   1.602   5.426
 4211POPC   GL155453  32.067   1.594   5.799
 4211POPC   GL255454  32.385   1.385   5.745
 4211POPC   C1A55455  32.268   1.547   6.219
 4211POPC   D2A55456  32.501   1.566   6.591
 4211POPC   C3A55457  32.181   1.537   6.888
 4211POPC   C4A55458  32.141   1.347   7.257
 4211POPC   C1B55459  32.610   1.096   6.033
 4211POPC   C2B55460  32.522   0.904   6.438
 4211POPC   C3B55461  32.480   1.102   6.854
 4211POPC   C4B55462  32.459   0.915   7.241
 4212POPC   NC355463  31.412   5.809   5.407
 4212POPC   PO455464  31.030   5.337   5.675
 4212POPC   GL155465  31.334   5.612   5.898
 4212POPC   GL255466  31.695   5.600   5.834
 4212POPC   C1A55467  31.420   5.805   6.320
 4212POPC   D2A55468  31.178   5.839   6.705
 4212POPC   C3A55469  31.286   6.098   7.056
 4212POPC   C4A55470  31.446   6.176   7.475
 4212POPC   C1B55471  31.635   5.356   6.244
 4212POPC   C2B55472  31.485   5.413   6.701
 4212POPC   C3B55473  31.576   5.679   7.073
 4212POPC   C4B55474  31.837   5.882   7.391
 4213POPC   NC355475  39.774  34.869   5.459
 4213POPC   PO455476  40.413  34.664   5.465
 4213POPC   GL155477  40.076  34.627   5.801
 4213POPC   GL255478  39.706  34.687   5.943
 4213POPC   C1A55479  40.122  34.662   6.226
 4213POPC   D2A55480  39.967  34.733   6.625
 4213POPC   C3A55481  40.194  34.666   6.980
 4213POPC   C4A55482  40.381  35.005   7.176
 4213POPC   C1B55483  39.687  34.359   6.298
 4213POPC   C2B55484  39.681  34.318   6.778
 4213POPC   C3B55485  39.785  34.439   7.224
 4213POPC   C4B55486  39.738  34.610   7.690
 4214POPC   NC355487  29.466   1.434   5.392
 4214POPC   PO455488  28.935   0.989   5.396
 4214POPC   GL155489  29.118   1.234   5.721
 4214POPC   GL255490  29.480   1.121   5.802
 4214POPC   C1A55491  29.063   1.202   6.142
 4214POPC   D2A55492  29.067   1.485   6.466
 4214POPC   C3A55493  28.892   1.295   6.822
 4214POPC   C4A55494  28.949   1.301   7.249
 4214POPC   C1B55495  29.519   1.454   6.112
 4214POPC   C2B55496  29.575   1.455   6.564
 4214POPC   C3B55497  29.445   1.310   6.985
 4214POPC   C4B55498  29.383   1.546   7.383
 4215POPC   NC355499  29.095   2.447   5.480
 4215POPC   PO455500  29.196   1.787   5.493
 4215POPC   GL155501  29.081   1.749   5.913
 4215POPC   GL255502  28.930   2.080   5.866
 4215POPC   C1A55503  29.315   1.906   6.271
 4215POPC   D2A55504  29.469   1.958   6.679
 4215POPC   C3A55505  29.181   1.734   6.941
 4215POPC   C4A55506  28.915   1.803   7.278
 4215POPC   C1B55507  28.917   2.229   6.310
 4215POPC   C2B55508  28.938   2.139   6.766
 4215POPC   C3B55509  29.131   2.259   7.168
 4215POPC   C4B55510  28.959   2.398   7.594
 4216POPC   NC355511  43.612  13.915   5.447
 4216POPC   PO455512  44.157  13.480   5.445
 4216POPC   GL155513  44.011  13.532   5.810
 4216POPC   GL255514  43.983  13.887   5.826
 4216POPC   C1A55515  43.924  13.548   6.229
 4216POPC   D2A55516  43.981  13.791   6.580
 4216POPC   C3A55517  43.910  13.575   6.995
 4216POPC   C4A55518  43.990  13.429   7.444
 4216POPC   C1B55519  43.609  13.916   6.131
 4216POPC   C2B55520  43.485  13.938   6.580
 4216POPC   C3B55521  43.599  13.987   7.022
 4216POPC   C4B55522  43.560  13.685   7.379
 4217POPC   NC355523  33.574  42.047   5.268
 4217POPC   PO455524  34.174  42.426   5.411
 4217POPC   GL155525  33.852  42.408   5.757
 4217POPC   GL255526  33.513  42.526   5.777
 4217POPC   C1A55527  33.925  42.542   6.201
 4217POPC   D2A55528  33.732  42.548   6.630
 4217POPC   C3A55529  33.937  42.573   7.042
 4217POPC   C4A55530  33.945  42.678   7.513
 4217POPC   C1B55531  33.503  42.305   6.205
 4217POPC   C2B55532  33.352  42.159   6.630
 4217POPC   C3B55533  33.487  42.285   7.019
 4217POPC   C4B55534  33.700  42.267   7.388
 4218POPC   NC355535  32.919  26.355   5.511
 4218POPC   PO455536  32.687  27.034   5.510
 4218POPC   GL155537  33.033  26.847   5.746
 4218POPC   GL255538  32.938  26.574   5.953
 4218POPC   C1A55539  33.220  26.924   6.176
 4218POPC   D2A55540  33.006  27.179   6.483
 4218POPC   C3A55541  33.106  27.122   6.909
 4218POPC   C4A55542  33.206  26.799   7.192
 4218POPC   C1B55543  32.729  26.808   6.255
 4218POPC   C2B55544  32.711  26.769   6.671
 4218POPC   C3B55545  32.804  26.531   7.022
 4218POPC   C4B55546  32.688  26.930   7.200
 4219POPC   NC355547  13.529  41.906   5.362
 4219POPC   PO455548  13.872  41.351   5.478
 4219POPC   GL155549  13.657  41.426   5.863
 4219POPC   GL255550  13.652  41.774   5.832
 4219POPC   C1A55551  13.437  41.488   6.286
 4219POPC   D2A55552  13.322  41.434   6.748
 4219POPC   C3A55553  13.597  41.344   7.105
 4219POPC   C4A55554  13.537  41.237   7.558
 4219POPC   C1B55555  13.466  41.995   6.168
 4219POPC   C2B55556  13.360  41.923   6.582
 4219POPC   C3B55557  13.465  41.845   6.991
 4219POPC   C4B55558  13.182  42.018   7.247
 4220POPC   NC355559  27.765  24.842   5.482
 4220POPC   PO455560  27.694  25.449   5.408
 4220POPC   GL155561  27.752  25.260   5.776
 4220POPC   GL255562  27.439  25.145   5.871
 4220POPC   C1A55563  27.907  25.225   6.184
 4220POPC   D2A55564  27.838  25.086   6.621
 4220POPC   C3A55565  27.902  25.371   6.992
 4220POPC   C4A55566  27.829  25.328   7.467
 4220POPC   C1B55567  27.407  25.275   6.320
 4220POPC   C2B55568  27.423  25.359   6.765
 4220POPC   C3B55569  27.527  25.057   7.064
 4220POPC   C4B55570  27.451  24.976   7.468
 4221POPC   NC355571  12.260  15.258   4.995
 4221POPC   PO455572  11.911  14.873   5.431
 4221POPC   GL155573  12.173  15.071   5.763
 4221POPC   GL255574  12.108  15.408   5.869
 4221POPC   C1A55575  12.135  15.034   6.222
 4221POPC   D2A55576  11.812  14.952   6.531
 4221POPC   C3A55577  11.897  15.196   6.888
 4221POPC   C4A55578  11.891  15.050   7.303
 4221POPC   C1B55579  12.386  15.543   6.186
 4221POPC   C2B55580  12.392  15.384   6.603
 4221POPC   C3B55581  12.559  15.530   6.991
 4221POPC   C4B55582  12.273  15.367   7.246
 4222POPC   NC355583  21.187  15.495   5.317
 4222POPC   PO455584  21.747  15.792   5.606
 4222POPC   GL155585  21.493  15.781   5.933
 4222POPC   GL255586  21.171  15.793   5.765
 4222POPC   C1A55587  21.361  15.962   6.331
 4222POPC   D2A55588  21.565  15.938   6.759
 4222POPC   C3A55589  21.512  16.019   7.191
 4222POPC   C4A55590  21.491  15.659   7.447
 4222POPC   C1B55591  21.096  15.553   6.160
 4222POPC   C2B55592  21.276  15.527   6.592
 4222POPC   C3B55593  21.182  15.675   7.030
 4222POPC   C4B55594  21.062  15.945   7.441
 4223POPC   NC355595  28.499  40.526   5.289
 4223POPC   PO455596  27.874  40.793   5.424
 4223POPC   GL155597  28.245  40.761   5.676
 4223POPC   GL255598  28.406  41.092   5.697
 4223POPC   C1A55599  28.529  40.694   6.042
 4223POPC   D2A55600  28.536  40.809   6.486
 4223POPC   C3A55601  28.562  40.536   6.862
 4223POPC   C4A55602  28.487  40.771   7.253
 4223POPC   C1B55603  28.115  41.060   6.085
 4223POPC   C2B55604  28.003  40.864   6.469
 4223POPC   C3B55605  28.176  40.897   6.863
 4223POPC   C4B55606  28.157  41.217   7.150
 4224POPC   NC355607  18.461  36.455   5.202
 4224POPC   PO455608  18.250  37.077   5.222
 4224POPC   GL155609  18.336  36.802   5.601
 4224POPC   GL255610  18.014  36.799   5.802
 4224POPC   C1A55611  18.446  36.720   6.063
 4224POPC   D2A55612  18.297  36.729   6.513
 4224POPC   C3A55613  18.546  36.901   6.870
 4224POPC   C4A55614  18.547  36.896   7.317
 4224POPC   C1B55615  17.922  37.004   6.221
 4224POPC   C2B55616  17.808  36.852   6.653
 4224POPC   C3B55617  18.083  36.834   7.046
 4224POPC   C4B55618  18.069  37.003   7.466
 4225POPC   NC355619  17.257  35.398   5.274
 4225POPC   PO455620  17.875  35.519   5.339
 4225POPC   GL155621  17.880  35.295   5.750
 4225POPC   GL255622  17.713  34.952   5.766
 4225POPC   C1A55623  17.729  35.404   6.159
 4225POPC   D2A55624  17.849  35.497   6.579
 4225POPC   C3A55625  17.570  35.488   6.969
 4225POPC   C4A55626  17.264  35.210   7.238
 4225POPC   C1B55627  17.914  34.920   6.181
 4225POPC   C2B55628  17.858  34.962   6.635
 4225POPC   C3B55629  18.077  35.234   6.932
 4225POPC   C4B55630  17.903  35.291   7.305
 4226POPC   NC355631  41.466  30.459   5.308
 4226POPC   PO455632  41.970  30.886   5.394
 4226POPC   GL155633  41.665  30.721   5.729
 4226POPC   GL255634  41.371  30.460   5.810
 4226POPC   C1A55635  41.593  30.749   6.183
 4226POPC   D2A55636  41.602  30.548   6.571
 4226POPC   C3A55637  41.629  30.827   6.917
 4226POPC   C4A55638  41.476  31.102   7.217
 4226POPC   C1B55639  41.189  30.392   6.236
 4226POPC   C2B55640  41.204  30.211   6.669
 4226POPC   C3B55641  41.442  30.324   7.047
 4226POPC   C4B55642  41.427  30.618   7.415
 4227POPC   NC355643  40.210  15.328   5.473
 4227POPC   PO455644  40.118  14.761   5.179
 4227POPC   GL155645  40.099  14.888   5.730
 4227POPC   GL255646  39.968  15.218   5.899
 4227POPC   C1A55647  40.173  14.910   6.227
 4227POPC   D2A55648  39.850  15.020   6.556
 4227POPC   C3A55649  40.001  14.883   6.969
 4227POPC   C4A55650  40.058  15.000   7.389
 4227POPC   C1B55651  39.633  15.352   6.203
 4227POPC   C2B55652  39.561  15.449   6.661
 4227POPC   C3B55653  39.765  15.337   7.074
 4227POPC   C4B55654  39.792  15.401   7.543
 4228POPC   NC355655  34.803   7.883   5.436
 4228POPC   PO455656  34.207   8.156   5.553
 4228POPC   GL155657  34.521   8.138   5.879
 4228POPC   GL255658  34.854   8.282   5.767
 4228POPC   C1A55659  34.409   8.252   6.320
 4228POPC   D2A55660  34.247   8.095   6.727
 4228POPC   C3A55661  34.433   8.251   7.099
 4228POPC   C4A55662  34.774   8.096   7.359
 4228POPC   C1B55663  34.918   8.287   6.212
 4228POPC   C2B55664  34.800   8.266   6.656
 4228POPC   C3B55665  34.886   8.482   7.037
 4228POPC   C4B55666  34.871   8.573   7.498
 4229POPC   NC355667  26.792  26.486   5.391
 4229POPC   PO455668  27.097  25.843   5.449
 4229POPC   GL155669  26.756  25.923   5.738
 4229POPC   GL255670  26.739  26.272   5.860
 4229POPC   C1A55671  26.807  25.890   6.206
 4229POPC   D2A55672  26.814  26.077   6.635
 4229POPC   C3A55673  26.753  25.812   7.001
 4229POPC   C4A55674  27.068  25.726   7.340
 4229POPC   C1B55675  26.466  26.268   6.255
 4229POPC   C2B55676  26.353  26.291   6.685
 4229POPC   C3B55677  26.457  26.290   7.120
 4229POPC   C4B55678  26.528  26.395   7.558
 4230POPC   NC355679  10.443  11.476   5.022
 4230POPC   PO455680  10.843  11.362   5.647
 4230POPC   GL155681  10.681  11.086   5.905
 4230POPC   GL255682  10.359  11.238   5.860
 4230POPC   C1A55683  10.869  11.025   6.308
 4230POPC   D2A55684  10.879  10.993   6.750
 4230POPC   C3A55685  10.635  11.325   6.981
 4230POPC   C4A55686  10.533  11.391   7.424
 4230POPC   C1B55687  10.478  11.421   6.266
 4230POPC   C2B55688  10.232  11.467   6.628
 4230POPC   C3B55689  10.109  11.305   6.993
 4230POPC   C4B55690  10.037  11.454   7.355
 4231POPC   NC355691   1.809  19.637   5.353
 4231POPC   PO455692   2.261  20.138   5.527
 4231POPC   GL155693   2.055  19.792   5.799
 4231POPC   GL255694   2.131  19.420   5.758
 4231POPC   C1A55695   1.898  19.640   6.244
 4231POPC   D2A55696   1.868  19.656   6.711
 4231POPC   C3A55697   1.719  20.015   6.939
 4231POPC   C4A55698   1.771  19.896   7.349
 4231POPC   C1B55699   2.386  19.576   6.125
 4231POPC   C2B55700   2.316  19.885   6.500
 4231POPC   C3B55701   2.232  19.908   6.964
 4231POPC   C4B55702   2.238  19.711   7.401
 4232POPC   NC355703  33.199   9.919   5.297
 4232POPC   PO455704  32.834   9.449   5.587
 4232POPC   GL155705  33.051   9.752   5.899
 4232POPC   GL255706  33.286  10.054   5.793
 4232POPC   C1A55707  33.047   9.725   6.372
 4232POPC   D2A55708  32.816  10.013   6.655
 4232POPC   C3A55709  32.767   9.890   7.109
 4232POPC   C4A55710  32.963   9.476   7.201
 4232POPC   C1B55711  33.164  10.190   6.230
 4232POPC   C2B55712  33.275  10.250   6.699
 4232POPC   C3B55713  33.248  10.048   7.108
 4232POPC   C4B55714  33.433   9.675   7.274
 4233POPC   NC355715  40.457  23.289   5.345
 4233POPC   PO455716  40.930  22.753   5.463
 4233POPC   GL155717  40.781  22.978   5.781
 4233POPC   GL255718  40.574  22.728   5.868
 4233POPC   C1A55719  40.901  22.913   6.212
 4233POPC   D2A55720  40.976  23.119   6.586
 4233POPC   C3A55721  40.909  22.903   6.938
 4233POPC   C4A55722  40.992  23.203   7.209
 4233POPC   C1B55723  40.381  22.948   6.236
 4233POPC   C2B55724  40.453  23.076   6.689
 4233POPC   C3B55725  40.427  23.063   7.151
 4233POPC   C4B55726  40.490  22.719   7.452
 4234POPC   NC355727  12.204  43.600   5.697
 4234POPC   PO455728  11.932  44.145   5.354
 4234POPC   GL155729  11.957  44.040   5.772
 4234POPC   GL255730  12.317  44.175   5.738
 4234POPC   C1A55731  11.793  43.966   6.241
 4234POPC   D2A55732  11.680  43.727   6.603
 4234POPC   C3A55733  11.892  43.805   6.988
 4234POPC   C4A55734  11.823  43.677   7.412
 4234POPC   C1B55735  12.342  44.062   6.163
 4234POPC   C2B55736  12.184  44.083   6.597
 4234POPC   C3B55737  12.333  44.116   7.035
 4234POPC   C4B55738  12.133  44.097   7.451
 4235POPC   NC355739  43.643   0.678   5.541
 4235POPC   PO455740  44.063   0.214   5.304
 4235POPC   GL155741  44.128   0.392   5.710
 4235POPC   GL255742  43.798   0.252   5.784
 4235POPC   C1A55743  44.151   0.500   6.168
 4235POPC   D2A55744  43.824   0.536   6.510
 4235POPC   C3A55745  43.924   0.527   6.946
 4235POPC   C4A55746  44.342   0.659   7.069
 4235POPC   C1B55747  43.623   0.170   6.185
 4235POPC   C2B55748  43.508   0.149   6.607
 4235POPC   C3B55749  43.475   0.246   7.030
 4235POPC   C4B55750  43.570   0.173   7.445
 4236POPC   NC355751  36.340   3.424   5.217
 4236POPC   PO455752  35.874   3.936   5.410
 4236POPC   GL155753  35.923   3.529   5.674
 4236POPC   GL255754  36.115   3.663   5.907
 4236POPC   C1A55755  35.935   3.259   6.111
 4236POPC   D2A55756  36.289   3.336   6.434
 4236POPC   C3A55757  36.268   3.554   6.849
 4236POPC   C4A55758  36.194   3.392   7.276
 4236POPC   C1B55759  36.148   3.808   6.324
 4236POPC   C2B55760  35.930   3.986   6.678
 4236POPC   C3B55761  35.847   3.799   7.068
 4236POPC   C4B55762  36.058   3.818   7.469
 4237POPC   NC355763  43.823  41.897   5.425
 4237POPC   PO455764  44.003  41.238   5.383
 4237POPC   GL155765  43.766  41.395   5.708
 4237POPC   GL255766  44.026  41.611   5.774
 4237POPC   C1A55767  43.830  41.323   6.168
 4237POPC   D2A55768  43.731  41.548   6.556
 4237POPC   C3A55769  43.770  41.370   6.988
 4237POPC   C4A55770  43.577  41.284   7.381
 4237POPC   C1B55771  43.935  41.820   6.140
 4237POPC   C2B55772  44.103  41.884   6.534
 4237POPC   C3B55773  43.899  41.853   6.938
 4237POPC   C4B55774  43.729  41.764   7.310
 4238POPC   NC355775  15.615   9.065   5.509
 4238POPC   PO455776  16.101   9.204   5.098
 4238POPC   GL155777  16.085   9.188   5.669
 4238POPC   GL255778  15.942   8.892   5.872
 4238POPC   C1A55779  15.895   9.313   6.134
 4238POPC   D2A55780  15.902   9.559   6.543
 4238POPC   C3A55781  15.797   9.375   6.936
 4238POPC   C4A55782  15.994   9.080   7.233
 4238POPC   C1B55783  16.095   8.888   6.315
 4238POPC   C2B55784  15.956   8.904   6.750
 4238POPC   C3B55785  15.933   8.602   7.109
 4238POPC   C4B55786  16.299   8.581   7.379
 4239POPC   NC355787   4.455  23.916   5.509
 4239POPC   PO455788   4.086  23.397   5.269
 4239POPC   GL155789   4.237  23.403   5.689
 4239POPC   GL255790   3.921  23.498   5.809
 4239POPC   C1A55791   4.360  23.649   6.122
 4239POPC   D2A55792   4.299  23.918   6.530
 4239POPC   C3A55793   4.563  23.954   6.892
 4239POPC   C4A55794   4.460  23.868   7.324
 4239POPC   C1B55795   4.126  23.192   6.136
 4239POPC   C2B55796   4.319  23.332   6.545
 4239POPC   C3B55797   4.167  23.551   6.950
 4239POPC   C4B55798   3.972  23.340   7.339
 4240POPC   NC355799   6.002  23.008   5.440
 4240POPC   PO455800   6.383  22.585   5.878
 4240POPC   GL155801   5.938  22.825   5.917
 4240POPC   GL255802   5.948  23.219   5.896
 4240POPC   C1A55803   5.647  22.999   6.245
 4240POPC   D2A55804   5.791  22.884   6.629
 4240POPC   C3A55805   5.571  22.952   6.955
 4240POPC   C4A55806   5.811  22.945   7.303
 4240POPC   C1B55807   6.130  23.183   6.308
 4240POPC   C2B55808   6.316  22.864   6.576
 4240POPC   C3B55809   6.184  22.710   6.981
 4240POPC   C4B55810   6.323  23.011   7.280
 4241POPC   NC355811   7.890  28.381   5.475
 4241POPC   PO455812   8.471  28.710   5.451
 4241POPC   GL155813   8.247  28.640   5.800
 4241POPC   GL255814   8.250  28.304   5.865
 4241POPC   C1A55815   8.455  28.642   6.194
 4241POPC   D2A55816   8.661  28.661   6.548
 4241POPC   C3A55817   8.381  28.520   6.853
 4241POPC   C4A55818   8.316  28.577   7.274
 4241POPC   C1B55819   7.976  28.455   6.214
 4241POPC   C2B55820   7.759  28.509   6.636
 4241POPC   C3B55821   7.880  28.381   7.052
 4241POPC   C4B55822   8.187  28.081   7.151
 4242POPC   NC355823  41.478  32.355   5.568
 4242POPC   PO455824  42.178  32.563   5.469
 4242POPC   GL155825  41.889  32.548   5.847
 4242POPC   GL255826  41.841  32.168   5.909
 4242POPC   C1A55827  41.772  32.465   6.306
 4242POPC   D2A55828  41.743  32.205   6.683
 4242POPC   C3A55829  41.685  32.433   7.062
 4242POPC   C4A55830  41.530  32.317   7.465
 4242POPC   C1B55831  41.526  31.998   6.248
 4242POPC   C2B55832  41.375  31.817   6.626
 4242POPC   C3B55833  41.336  32.047   6.992
 4242POPC   C4B55834  41.111  32.070   7.359
 4243POPC   NC355835  12.679  31.611   5.446
 4243POPC   PO455836  13.127  31.105   5.410
 4243POPC   GL155837  12.939  31.283   5.768
 4243POPC   GL255838  12.579  31.271   5.821
 4243POPC   C1A55839  12.998  31.241   6.211
 4243POPC   D2A55840  12.956  31.468   6.592
 4243POPC   C3A55841  12.805  31.312   6.963
 4243POPC   C4A55842  13.066  31.506   7.261
 4243POPC   C1B55843  12.609  31.572   6.174
 4243POPC   C2B55844  12.506  31.705   6.622
 4243POPC   C3B55845  12.765  31.821   7.004
 4243POPC   C4B55846  12.649  31.666   7.480
 4244POPC   NC355847   0.508  34.420   5.343
 4244POPC   PO455848   0.161  34.988   5.150
 4244POPC   GL155849   0.278  34.761   5.633
 4244POPC   GL255850   0.641  34.812   5.692
 4244POPC   C1A55851   0.489  34.527   6.066
 4244POPC   D2A55852   0.662  34.309   6.467
 4244POPC   C3A55853   0.463  34.463   6.848
 4244POPC   C4A55854   0.181  34.563   7.176
 4244POPC   C1B55855   0.746  34.968   6.107
 4244POPC   C2B55856   0.614  34.864   6.525
 4244POPC   C3B55857   0.841  34.787   6.906
 4244POPC   C4B55858   0.744  34.949   7.295
 4245POPC   NC355859   2.919  23.855   5.233
 4245POPC   PO455860   2.464  23.435   5.462
 4245POPC   GL155861   2.667  23.668   5.814
 4245POPC   GL255862   2.967  23.840   5.755
 4245POPC   C1A55863   2.658  23.725   6.252
 4245POPC   D2A55864   2.863  23.607   6.614
 4245POPC   C3A55865   2.731  23.766   7.010
 4245POPC   C4A55866   2.886  23.548   7.377
 4245POPC   C1B55867   3.007  24.092   6.173
 4245POPC   C2B55868   2.985  24.098   6.638
 4245POPC   C3B55869   3.027  24.209   7.080
 4245POPC   C4B55870   2.797  24.072   7.449
 4246POPC   NC355871  34.722  25.573   5.447
 4246POPC   PO455872  34.525  24.931   5.355
 4246POPC   GL155873  34.583  25.174   5.751
 4246POPC   GL255874  34.358  25.478   5.790
 4246POPC   C1A55875  34.864  25.300   6.140
 4246POPC   D2A55876  34.779  25.420   6.551
 4246POPC   C3A55877  34.529  25.126   6.762
 4246POPC   C4A55878  34.578  25.082   7.177
 4246POPC   C1B55879  34.356  25.328   6.206
 4246POPC   C2B55880  34.183  25.466   6.581
 4246POPC   C3B55881  34.325  25.564   6.988
 4246POPC   C4B55882  34.332  25.442   7.442
 4247POPC   NC355883  32.984  11.705   5.349
 4247POPC   PO455884  33.273  12.303   5.364
 4247POPC   GL155885  33.133  12.210   5.746
 4247POPC   GL255886  33.236  11.903   5.767
 4247POPC   C1A55887  32.890  12.134   6.091
 4247POPC   D2A55888  32.975  12.056   6.495
 4247POPC   C3A55889  32.846  12.183   6.891
 4247POPC   C4A55890  33.080  12.249   7.271
 4247POPC   C1B55891  33.458  11.939   6.165
 4247POPC   C2B55892  33.388  11.784   6.556
 4247POPC   C3B55893  33.256  11.861   6.981
 4247POPC   C4B55894  33.341  11.851   7.457
 4248POPC   NC355895  11.858   3.448   5.460
 4248POPC   PO455896  11.258   3.060   5.328
 4248POPC   GL155897  11.339   2.789   5.711
 4248POPC   GL255898  11.467   2.442   5.693
 4248POPC   C1A55899  11.217   2.696   6.155
 4248POPC   D2A55900  11.262   2.934   6.549
 4248POPC   C3A55901  11.042   2.930   6.954
 4248POPC   C4A55902  11.342   3.053   7.243
 4248POPC   C1B55903  11.468   2.233   6.082
 4248POPC   C2B55904  11.217   2.251   6.429
 4248POPC   C3B55905  11.207   2.469   6.835
 4248POPC   C4B55906  10.824   2.441   7.087
 4249POPC   NC355907   1.001  29.344   5.300
 4249POPC   PO455908   1.468  28.918   5.246
 4249POPC   GL155909   1.470  28.968   5.684
 4249POPC   GL255910   1.431  29.339   5.677
 4249POPC   C1A55911   1.312  28.966   6.137
 4249POPC   D2A55912   1.177  29.119   6.584
 4249POPC   C3A55913   0.844  28.966   6.892
 4249POPC   C4A55914   0.887  29.235   7.241
 4249POPC   C1B55915   1.280  29.508   6.070
 4249POPC   C2B55916   1.311  29.675   6.473
 4249POPC   C3B55917   1.470  29.554   6.896
 4249POPC   C4B55918   1.288  29.557   7.321
 4250POPC   NC355919  41.373  42.539   5.368
 4250POPC   PO455920  41.867  42.090   5.420
 4250POPC   GL155921  41.741  42.368   5.733
 4250POPC   GL255922  41.414  42.286   5.829
 4250POPC   C1A55923  41.854  42.271   6.155
 4250POPC   D2A55924  41.821  42.487   6.528
 4250POPC   C3A55925  41.567  42.220   6.739
 4250POPC   C4A55926  41.710  42.115   7.114
 4250POPC   C1B55927  41.426  42.561   6.199
 4250POPC   C2B55928  41.344  42.667   6.644
 4250POPC   C3B55929  41.435  42.565   7.102
 4250POPC   C4B55930  41.809  42.601   7.319
 4251POPC   NC355931  29.399  32.876   5.605
 4251POPC   PO455932  28.750  32.708   5.629
 4251POPC   GL155933  28.998  32.865   5.964
 4251POPC   GL255934  29.095  33.204   5.992
 4251POPC   C1A55935  29.330  32.854   6.283
 4251POPC   D2A55936  29.293  33.158   6.603
 4251POPC   C3A55937  29.355  33.027   7.021
 4251POPC   C4A55938  28.998  32.788   7.137
 4251POPC   C1B55939  28.832  33.447   6.254
 4251POPC   C2B55940  28.783  33.486   6.697
 4251POPC   C3B55941  28.907  33.308   7.110
 4251POPC   C4B55942  28.715  33.325   7.537
 4252POPC   NC355943  39.041   1.764   5.647
 4252POPC   PO455944  39.049   2.403   5.472
 4252POPC   GL155945  39.234   2.204   5.849
 4252POPC   GL255946  39.476   1.901   5.863
 4252POPC   C1A55947  39.150   1.991   6.263
 4252POPC   D2A55948  38.817   1.803   6.529
 4252POPC   C3A55949  38.989   1.649   6.920
 4252POPC   C4A55950  39.192   1.994   7.085
 4252POPC   C1B55951  39.606   1.740   6.250
 4252POPC   C2B55952  39.633   1.900   6.692
 4252POPC   C3B55953  39.553   1.650   7.067
 4252POPC   C4B55954  39.467   1.680   7.531
 4253POPC   NC355955  31.171  33.983   5.443
 4253POPC   PO455956  31.035  33.428   5.527
 4253POPC   GL155957  31.248  33.689   5.883
 4253POPC   GL255958  31.557  33.929   5.801
 4253POPC   C1A55959  31.268  33.865   6.316
 4253POPC   D2A55960  31.491  34.201   6.521
 4253POPC   C3A55961  31.573  34.008   6.886
 4253POPC   C4A55962  31.353  33.635   7.046
 4253POPC   C1B55963  31.757  33.840   6.210
 4253POPC   C2B55964  31.648  33.603   6.607
 4253POPC   C3B55965  31.878  33.641   7.042
 4253POPC   C4B55966  31.673  33.916   7.395
 4254POPC   NC355967   5.427  39.195   5.337
 4254POPC   PO455968   5.885  38.823   5.138
 4254POPC   GL155969   5.847  39.052   5.610
 4254POPC   GL255970   5.601  38.818   5.749
 4254POPC   C1A55971   5.858  39.297   6.068
 4254POPC   D2A55972   6.022  39.319   6.549
 4254POPC   C3A55973   5.846  39.469   6.988
 4254POPC   C4A55974   6.048  39.517   7.420
 4254POPC   C1B55975   5.741  38.800   6.159
 4254POPC   C2B55976   5.629  38.948   6.547
 4254POPC   C3B55977   5.845  38.969   6.913
 4254POPC   C4B55978   5.876  38.874   7.319
 4255POPC   NC355979  12.448  38.011   5.423
 4255POPC   PO455980  13.002  37.557   5.288
 4255POPC   GL155981  12.938  37.674   5.698
 4255POPC   GL255982  12.597  37.590   5.799
 4255POPC   C1A55983  13.112  37.786   6.096
 4255POPC   D2A55984  12.899  37.924   6.476
 4255POPC   C3A55985  13.062  37.984   6.893
 4255POPC   C4A55986  13.072  37.871   7.358
 4255POPC   C1B55987  12.741  37.461   6.236
 4255POPC   C2B55988  12.637  37.501   6.686
 4255POPC   C3B55989  12.735  37.563   7.139
 4255POPC   C4B55990  12.675  37.621   7.629
 4256POPC   NC355991   8.288  37.129   5.104
 4256POPC   PO455992   8.341  37.783   5.375
 4256POPC   GL155993   8.209  37.658   5.754
 4256POPC   GL255994   8.519  37.722   5.895
 4256POPC   C1A55995   8.144  37.388   6.129
 4256POPC   D2A55996   8.227  37.237   6.543
 4256POPC   C3A55997   8.191  37.523   6.901
 4256POPC   C4A55998   8.039  37.667   7.334
 4256POPC   C1B55999   8.209  37.923   6.195
 4256POPC   C2B56000   8.049  37.997   6.627
 4256POPC   C3B56001   8.256  38.033   7.018
 4256POPC   C4B56002   8.533  37.739   7.211
 4257POPC   NC356003  10.838  24.616   5.392
 4257POPC   PO456004  10.208  24.712   5.179
 4257POPC   GL156005  10.285  24.608   5.679
 4257POPC   GL256006  10.265  24.315   5.844
 4257POPC   C1A56007  10.233  24.736   6.126
 4257POPC   D2A56008  10.533  24.648   6.466
 4257POPC   C3A56009  10.488  24.463   6.872
 4257POPC   C4A56010  10.225  24.603   7.206
 4257POPC   C1B56011  10.581  24.238   6.152
 4257POPC   C2B56012  10.810  24.157   6.540
 4257POPC   C3B56013  10.864  24.108   6.996
 4257POPC   C4B56014  10.696  24.329   7.343
 4258POPC   NC356015  38.148  13.172   5.656
 4258POPC   PO456016  37.613  12.794   5.387
 4258POPC   GL156017  37.791  12.805   5.767
 4258POPC   GL256018  37.646  13.147   5.780
 4258POPC   C1A56019  37.800  12.892   6.201
 4258POPC   D2A56020  37.563  12.908   6.571
 4258POPC   C3A56021  37.778  12.987   6.952
 4258POPC   C4A56022  37.632  13.145   7.369
 4258POPC   C1B56023  37.362  13.148   6.124
 4258POPC   C2B56024  37.157  13.256   6.509
 4258POPC   C3B56025  37.293  13.220   6.935
 4258POPC   C4B56026  37.143  13.235   7.348
 4259POPC   NC356027   6.186   7.433   5.609
 4259POPC   PO456028   6.710   7.406   5.221
 4259POPC   GL156029   6.685   7.330   5.700
 4259POPC   GL256030   6.521   7.006   5.798
 4259POPC   C1A56031   6.549   7.431   6.162
 4259POPC   D2A56032   6.356   7.184   6.520
 4259POPC   C3A56033   6.388   7.413   6.912
 4259POPC   C4A56034   6.599   7.565   7.275
 4259POPC   C1B56035   6.841   7.022   6.161
 4259POPC   C2B56036   6.868   7.259   6.581
 4259POPC   C3B56037   6.822   7.149   7.047
 4259POPC   C4B56038   6.880   7.209   7.523
 4260POPC   NC356039  25.518  27.274   5.271
 4260POPC   PO456040  24.950  27.582   5.371
 4260POPC   GL156041  24.926  27.389   5.785
 4260POPC   GL256042  25.271  27.370   5.823
 4260POPC   C1A56043  24.950  27.252   6.219
 4260POPC   D2A56044  25.291  27.144   6.502
 4260POPC   C3A56045  25.224  27.314   6.915
 4260POPC   C4A56046  25.101  27.408   7.333
 4260POPC   C1B56047  25.343  27.600   6.220
 4260POPC   C2B56048  25.387  27.906   6.589
 4260POPC   C3B56049  25.254  27.833   7.049
 4260POPC   C4B56050  25.336  27.814   7.525
 4261POPC   NC356051  43.708  12.350   5.462
 4261POPC   PO456052  44.163  11.862   5.387
 4261POPC   GL156053  43.834  11.929   5.763
 4261POPC   GL256054  43.544  11.710   5.790
 4261POPC   C1A56055  43.756  12.077   6.238
 4261POPC   D2A56056  43.986  12.245   6.627
 4261POPC   C3A56057  44.056  11.993   7.021
 4261POPC   C4A56058  43.939  12.029   7.453
 4261POPC   C1B56059  43.323  11.799   6.153
 4261POPC   C2B56060  43.507  11.717   6.526
 4261POPC   C3B56061  43.555  12.011   6.826
 4261POPC   C4B56062  43.481  11.932   7.236
 4262POPC   NC356063  39.903  37.346   5.279
 4262POPC   PO456064  40.073  37.959   5.471
 4262POPC   GL156065  40.281  37.644   5.815
 4262POPC   GL256066  40.335  37.315   5.668
 4262POPC   C1A56067  40.268  37.610   6.320
 4262POPC   D2A56068  40.232  37.858   6.748
 4262POPC   C3A56069  39.947  37.831   7.137
 4262POPC   C4A56070  39.870  38.129   7.514
 4262POPC   C1B56071  40.079  37.172   6.008
 4262POPC   C2B56072  40.149  37.123   6.469
 4262POPC   C3B56073  40.121  37.367   6.871
 4262POPC   C4B56074  40.009  37.321   7.325
 4263POPC   NC356075  35.006   0.259   5.373
 4263POPC   PO456076  35.606   0.658   5.314
 4263POPC   GL156077  35.578   0.404   5.721
 4263POPC   GL256078  35.235   0.274   5.829
 4263POPC   C1A56079  35.612   0.324   6.193
 4263POPC   D2A56080  35.422   0.422   6.648
 4263POPC   C3A56081  35.502   0.322   7.105
 4263POPC   C4A56082  35.260   0.359   7.502
 4263POPC   C1B56083  35.102   0.430   6.217
 4263POPC   C2B56084  34.989   0.718   6.550
 4263POPC   C3B56085  35.085   0.757   6.986
 4263POPC   C4B56086  34.882   0.658   7.398
 4264POPC   NC356087  35.893  16.930   5.450
 4264POPC   PO456088  36.543  16.827   5.631
 4264POPC   GL156089  36.180  16.601   5.852
 4264POPC   GL256090  35.837  16.701   5.923
 4264POPC   C1A56091  36.128  16.549   6.308
 4264POPC   D2A56092  36.273  16.814   6.634
 4264POPC   C3A56093  36.447  16.584   6.969
 4264POPC   C4A56094  36.380  16.821   7.309
 4264POPC   C1B56095  35.715  16.888   6.354
 4264POPC   C2B56096  35.751  16.831   6.826
 4264POPC   C3B56097  35.911  16.645   7.229
 4264POPC   C4B56098  36.045  16.742   7.701
 4265POPC   NC356099   8.548  41.352   5.233
 4265POPC   PO456100   7.987  41.658   5.307
 4265POPC   GL156101   8.195  41.493   5.670
 4265POPC   GL256102   8.513  41.603   5.677
 4265POPC   C1A56103   8.087  41.427   6.111
 4265POPC   D2A56104   8.045  41.217   6.499
 4265POPC   C3A56105   8.028  41.489   6.825
 4265POPC   C4A56106   8.132  41.402   7.235
 4265POPC   C1B56107   8.588  41.563   6.086
 4265POPC   C2B56108   8.420  41.594   6.492
 4265POPC   C3B56109   8.544  41.429   6.872
 4265POPC   C4B56110   8.642  41.563   7.265
 4266POPC   NC356111  39.077   5.324   5.406
 4266POPC   PO456112  39.384   4.723   5.556
 4266POPC   GL156113  39.463   4.989   5.908
 4266POPC   GL256114  39.253   5.267   5.875
 4266POPC   C1A56115  39.345   4.964   6.337
 4266POPC   D2A56116  39.576   5.070   6.696
 4266POPC   C3A56117  39.406   4.862   7.064
 4266POPC   C4A56118  39.221   5.119   7.360
 4266POPC   C1B56119  38.922   5.025   6.035
 4266POPC   C2B56120  38.833   5.142   6.453
 4266POPC   C3B56121  38.986   5.096   6.871
 4266POPC   C4B56122  38.763   4.950   7.229
 4267POPC   NC356123  37.146  19.280   5.405
 4267POPC   PO456124  36.539  18.856   5.472
 4267POPC   GL156125  36.844  18.996   5.770
 4267POPC   GL256126  36.763  19.352   5.779
 4267POPC   C1A56127  36.931  19.043   6.229
 4267POPC   D2A56128  37.022  18.805   6.624
 4267POPC   C3A56129  36.914  18.943   7.049
 4267POPC   C4A56130  37.068  19.214   7.409
 4267POPC   C1B56131  36.448  19.109   6.082
 4267POPC   C2B56132  36.482  18.904   6.507
 4267POPC   C3B56133  36.470  19.138   6.888
 4267POPC   C4B56134  36.569  19.221   7.323
 4268POPC   NC356135  13.811  28.036   5.321
 4268POPC   PO456136  13.345  28.528   5.437
 4268POPC   GL156137  13.602  28.317   5.706
 4268POPC   GL256138  13.844  28.531   5.763
 4268POPC   C1A56139  13.723  28.249   6.141
 4268POPC   D2A56140  13.774  28.212   6.567
 4268POPC   C3A56141  13.523  28.026   6.837
 4268POPC   C4A56142  13.467  28.269   7.167
 4268POPC   C1B56143  13.577  28.744   6.008
 4268POPC   C2B56144  13.649  28.698   6.429
 4268POPC   C3B56145  13.737  28.642   6.851
 4268POPC   C4B56146  13.416  28.785   7.101
 4269POPC   NC356147  32.470  28.766   5.418
 4269POPC   PO456148  32.086  29.322   5.398
 4269POPC   GL156149  32.260  29.117   5.736
 4269POPC   GL256150  32.069  28.843   5.752
 4269POPC   C1A56151  32.450  29.150   6.145
 4269POPC   D2A56152  32.244  29.425   6.420
 4269POPC   C3A56153  32.332  29.422   6.834
 4269POPC   C4A56154  32.351  29.085   7.133
 4269POPC   C1B56155  32.095  28.796   6.212
 4269POPC   C2B56156  32.242  28.914   6.626
 4269POPC   C3B56157  32.033  28.745   6.985
 4269POPC   C4B56158  32.139  28.686   7.411
 4270POPC   NC356159  13.858   7.019   4.996
 4270POPC   PO456160  13.357   7.366   5.343
 4270POPC   GL156161  13.498   7.476   5.821
 4270POPC   GL256162  13.827   7.587   5.791
 4270POPC   C1A56163  13.542   7.607   6.292
 4270POPC   D2A56164  13.400   7.313   6.642
 4270POPC   C3A56165  13.584   7.300   7.061
 4270POPC   C4A56166  13.909   7.541   7.245
 4270POPC   C1B56167  13.937   7.305   6.155
 4270POPC   C2B56168  13.895   7.167   6.592
 4270POPC   C3B56169  13.846   6.886   6.955
 4270POPC   C4B56170  13.965   7.022   7.369
 4271POPC   NC356171  12.018   2.697   5.154
 4271POPC   PO456172  12.244   3.214   5.395
 4271POPC   GL156173  11.957   2.869   5.658
 4271POPC   GL256174  12.148   2.593   5.863
 4271POPC   C1A56175  11.711   2.722   6.067
 4271POPC   D2A56176  11.634   2.525   6.514
 4271POPC   C3A56177  11.691   2.590   7.000
 4271POPC   C4A56178  11.848   2.908   7.312
 4271POPC   C1B56179  12.130   2.680   6.349
 4271POPC   C2B56180  12.055   2.895   6.775
 4271POPC   C3B56181  12.290   3.097   7.129
 4271POPC   C4B56182  12.208   3.204   7.565
 4272POPC   NC356183   6.932  25.152   5.369
 4272POPC   PO456184   6.346  25.240   5.568
 4272POPC   GL156185   6.725  25.112   5.833
 4272POPC   GL256186   6.569  25.318   6.028
 4272POPC   C1A56187   6.979  25.171   6.267
 4272POPC   D2A56188   6.670  25.276   6.604
 4272POPC   C3A56189   6.716  25.180   7.019
 4272POPC   C4A56190   7.095  25.024   7.185
 4272POPC   C1B56191   6.321  25.455   6.292
 4272POPC   C2B56192   6.390  25.695   6.640
 4272POPC   C3B56193   6.350  25.546   7.030
 4272POPC   C4B56194   6.273  25.397   7.443
 4273POPC   NC356195  22.459  13.055   5.573
 4273POPC   PO456196  22.006  12.591   5.333
 4273POPC   GL156197  21.882  12.770   5.730
 4273POPC   GL256198  22.150  12.840   5.901
 4273POPC   C1A56199  21.737  12.892   6.167
 4273POPC   D2A56200  21.919  12.814   6.563
 4273POPC   C3A56201  21.751  12.932   6.977
 4273POPC   C4A56202  21.980  12.927   7.338
 4273POPC   C1B56203  22.233  12.522   6.190
 4273POPC   C2B56204  22.220  12.338   6.599
 4273POPC   C3B56205  22.086  12.542   6.972
 4273POPC   C4B56206  22.256  12.508   7.361
 4274POPC   NC356207  42.699  14.708   5.296
 4274POPC   PO456208  43.299  14.253   5.320
 4274POPC   GL156209  43.229  14.377   5.718
 4274POPC   GL256210  42.922  14.163   5.729
 4274POPC   C1A56211  43.460  14.496   6.103
 4274POPC   D2A56212  43.558  14.714   6.474
 4274POPC   C3A56213  43.365  14.448   6.787
 4274POPC   C4A56214  43.243  14.386   7.197
 4274POPC   C1B56215  43.137  14.077   6.132
 4274POPC   C2B56216  43.019  14.121   6.571
 4274POPC   C3B56217  43.108  13.926   6.980
 4274POPC   C4B56218  43.111  13.963   7.433
 4275POPC   NC356219  37.852   0.696   5.464
 4275POPC   PO456220  37.239   0.407   5.427
 4275POPC   GL156221  37.607   0.285   5.680
 4275POPC   GL256222  37.372   0.324   5.904
 4275POPC   C1A56223  37.828   0.367   6.104
 4275POPC   D2A56224  37.652   0.350   6.552
 4275POPC   C3A56225  37.816   0.464   6.929
 4275POPC   C4A56226  37.723   0.402   7.346
 4275POPC   C1B56227  37.261   0.584   6.243
 4275POPC   C2B56228  37.337   0.723   6.626
 4275POPC   C3B56229  37.334   0.577   7.028
 4275POPC   C4B56230  37.432   0.848   7.362
 4276POPC   NC356231  21.578  28.288   5.172
 4276POPC   PO456232  20.954  28.247   5.370
 4276POPC   GL156233  21.139  28.358   5.788
 4276POPC   GL256234  21.521  28.345   5.746
 4276POPC   C1A56235  21.007  28.374   6.257
 4276POPC   D2A56236  20.828  28.413   6.709
 4276POPC   C3A56237  21.136  28.369   7.084
 4276POPC   C4A56238  21.346  28.081   7.407
 4276POPC   C1B56239  21.523  28.495   6.192
 4276POPC   C2B56240  21.436  28.436   6.643
 4276POPC   C3B56241  21.662  28.299   7.033
 4276POPC   C4B56242  21.830  28.267   7.464
 4277POPC   NC356243  31.454  13.968   5.311
 4277POPC   PO456244  31.786  13.329   5.424
 4277POPC   GL156245  31.547  13.602   5.736
 4277POPC   GL256246  31.203  13.542   5.875
 4277POPC   C1A56247  31.618  13.640   6.197
 4277POPC   D2A56248  31.590  13.956   6.543
 4277POPC   C3A56249  31.762  13.837   6.923
 4277POPC   C4A56250  31.890  13.535   7.207
 4277POPC   C1B56251  31.189  13.420   6.342
 4277POPC   C2B56252  31.399  13.507   6.743
 4277POPC   C3B56253  31.374  13.582   7.200
 4277POPC   C4B56254  31.162  13.414   7.552
 4278POPC   NC356255  42.616   4.193   5.058
 4278POPC   PO456256  43.213   4.273   5.393
 4278POPC   GL156257  43.043   4.310   5.823
 4278POPC   GL256258  43.337   4.286   6.029
 4278POPC   C1A56259  42.856   4.317   6.242
 4278POPC   D2A56260  43.186   4.164   6.539
 4278POPC   C3A56261  43.133   4.313   6.944
 4278POPC   C4A56262  42.704   4.408   7.023
 4278POPC   C1B56263  43.227   4.650   6.308
 4278POPC   C2B56264  43.019   4.784   6.707
 4278POPC   C3B56265  43.027   4.762   7.177
 4278POPC   C4B56266  43.036   4.762   7.643
 4279POPC   NC356267  24.483  44.612   5.341
 4279POPC   PO456268  24.928  44.267   5.609
 4279POPC   GL156269  24.609  44.483   5.889
 4279POPC   GL256270  24.465  44.809   5.811
 4279POPC   C1A56271  24.574  44.594   6.336
 4279POPC   D2A56272  24.689  44.294   6.691
 4279POPC   C3A56273  24.475  44.391   7.085
 4279POPC   C4A56274  24.572  44.517   7.534
 4279POPC   C1B56275  24.657   0.062   6.077
 4279POPC   C2B56276  24.692   0.110   6.506
 4279POPC   C3B56277  24.557  44.832   6.812
 4279POPC   C4B56278  24.523  44.916   7.224
 4280POPC   NC356279  28.550  23.383   5.637
 4280POPC   PO456280  28.483  23.872   5.164
 4280POPC   GL156281  28.309  23.870   5.608
 4280POPC   GL256282  28.036  23.610   5.689
 4280POPC   C1A56283  28.335  23.986   6.075
 4280POPC   D2A56284  28.545  23.982   6.510
 4280POPC   C3A56285  28.432  23.759   6.864
 4280POPC   C4A56286  28.398  23.946   7.252
 4280POPC   C1B56287  28.154  23.493   6.119
 4280POPC   C2B56288  28.440  23.440   6.449
 4280POPC   C3B56289  28.330  23.255   6.845
 4280POPC   C4B56290  28.209  23.457   7.238
 4281POPC   NC356291  26.446  27.350   5.135
 4281POPC   PO456292  27.013  26.919   5.359
 4281POPC   GL156293  26.972  26.780   5.763
 4281POPC   GL256294  27.281  26.755   5.888
 4281POPC   C1A56295  26.791  26.681   6.151
 4281POPC   D2A56296  26.946  26.569   6.540
 4281POPC   C3A56297  26.678  26.684   6.865
 4281POPC   C4A56298  26.773  26.726   7.278
 4281POPC   C1B56299  27.163  27.047   6.205
 4281POPC   C2B56300  27.240  27.040   6.648
 4281POPC   C3B56301  27.075  27.085   7.066
 4281POPC   C4B56302  27.036  27.062   7.540
 4282POPC   NC356303  14.586  42.490   5.455
 4282POPC   PO456304  13.998  42.128   5.333
 4282POPC   GL156305  14.154  42.374   5.674
 4282POPC   GL256306  14.354  42.114   5.745
 4282POPC   C1A56307  14.388  42.503   6.085
 4282POPC   D2A56308  14.684  42.432   6.448
 4282POPC   C3A56309  14.476  42.490   6.867
 4282POPC   C4A56310  14.195  42.554   7.241
 4282POPC   C1B56311  14.401  41.977   6.194
 4282POPC   C2B56312  14.324  42.063   6.617
 4282POPC   C3B56313  14.433  41.997   7.042
 4282POPC   C4B56314  14.193  42.058   7.405
 4283POPC   NC356315  43.214   8.885   5.469
 4283POPC   PO456316  42.671   9.344   5.511
 4283POPC   GL156317  42.916   9.092   5.816
 4283POPC   GL256318  42.970   8.701   5.881
 4283POPC   C1A56319  42.894   9.123   6.252
 4283POPC   D2A56320  42.856   9.237   6.671
 4283POPC   C3A56321  43.174   9.171   6.959
 4283POPC   C4A56322  43.085   9.085   7.373
 4283POPC   C1B56323  43.250   8.755   6.192
 4283POPC   C2B56324  43.280   8.635   6.618
 4283POPC   C3B56325  43.083   8.662   7.025
 4283POPC   C4B56326  43.268   8.585   7.406
 4284POPC   NC356327  24.657   0.602   5.052
 4284POPC   PO456328  24.387   0.070   5.330
 4284POPC   GL156329  24.356   0.307   5.734
 4284POPC   GL256330  24.597   0.554   5.825
 4284POPC   C1A56331  24.278   0.394   6.200
 4284POPC   D2A56332  24.428   0.561   6.606
 4284POPC   C3A56333  24.301   0.339   6.997
 4284POPC   C4A56334  24.433   0.388   7.438
 4284POPC   C1B56335  24.806   0.549   6.221
 4284POPC   C2B56336  24.946   0.694   6.625
 4284POPC   C3B56337  24.773   0.554   7.000
 4284POPC   C4B56338  24.942   0.492   7.401
 4285POPC   NC356339  30.909  38.200   5.156
 4285POPC   PO456340  31.566  38.235   5.169
 4285POPC   GL156341  31.630  38.246   5.691
 4285POPC   GL256342  31.739  38.615   5.836
 4285POPC   C1A56343  31.413  38.346   6.117
 4285POPC   D2A56344  31.131  38.417   6.467
 4285POPC   C3A56345  31.315  38.591   6.823
 4285POPC   C4A56346  31.285  38.641   7.268
 4285POPC   C1B56347  31.888  38.501   6.208
 4285POPC   C2B56348  31.782  38.508   6.617
 4285POPC   C3B56349  31.777  38.639   7.037
 4285POPC   C4B56350  31.704  38.293   7.293
 4286POPC   NC356351   9.316  10.763   5.519
 4286POPC   PO456352   8.629  10.690   5.527
 4286POPC   GL156353   8.900  10.389   5.694
 4286POPC   GL256354   9.017  10.657   5.911
 4286POPC   C1A56355   8.935  10.193   6.106
 4286POPC   D2A56356   8.790  10.415   6.469
 4286POPC   C3A56357   9.040  10.384   6.834
 4286POPC   C4A56358   8.817  10.565   7.179
 4286POPC   C1B56359   9.244  10.647   6.280
 4286POPC   C2B56360   9.234  10.845   6.672
 4286POPC   C3B56361   9.336  10.740   7.081
 4286POPC   C4B56362   9.193  10.830   7.468
 4287POPC   NC356363  15.288   0.467   5.396
 4287POPC   PO456364  15.130  44.904   5.707
 4287POPC   GL156365  15.339   0.193   5.916
 4287POPC   GL256366  15.210   0.541   5.911
 4287POPC   C1A56367  15.263   0.224   6.333
 4287POPC   D2A56368  15.181   0.421   6.703
 4287POPC   C3A56369  15.089   0.244   7.045
 4287POPC   C4A56370  15.328  44.970   7.288
 4287POPC   C1B56371  15.183   0.751   6.320
 4287POPC   C2B56372  14.881   0.822   6.649
 4287POPC   C3B56373  15.048   0.779   7.056
 4287POPC   C4B56374  15.451   0.841   7.227
 4288POPC   NC356375  32.369  22.992   5.124
 4288POPC   PO456376  32.045  23.213   5.690
 4288POPC   GL156377  31.886  23.108   6.063
 4288POPC   GL256378  32.006  22.773   6.015
 4288POPC   C1A56379  32.102  23.286   6.420
 4288POPC   D2A56380  32.543  23.414   6.382
 4288POPC   C3A56381  32.598  23.279   6.762
 4288POPC   C4A56382  32.332  23.075   7.066
 4288POPC   C1B56383  32.386  22.921   6.224
 4288POPC   C2B56384  32.356  22.777   6.637
 4288POPC   C3B56385  32.474  22.487   6.948
 4288POPC   C4B56386  32.454  22.650   7.333
 4289POPC   NC356387  10.846  26.431   5.446
 4289POPC   PO456388  10.427  25.875   5.205
 4289POPC   GL156389  10.412  25.863   5.687
 4289POPC   GL256390  10.391  26.228   5.763
 4289POPC   C1A56391  10.433  25.933   6.164
 4289POPC   D2A56392  10.411  26.188   6.568
 4289POPC   C3A56393  10.522  25.967   6.948
 4289POPC   C4A56394  10.486  25.723   7.318
 4289POPC   C1B56395  10.632  26.422   6.151
 4289POPC   C2B56396  10.857  26.418   6.571
 4289POPC   C3B56397  10.764  26.429   6.981
 4289POPC   C4B56398  10.455  26.363   7.269
 4290POPC   NC356399   9.758  42.244   5.399
 4290POPC   PO456400  10.142  42.823   5.262
 4290POPC   GL156401   9.882  42.616   5.731
 4290POPC   GL256402   9.911  42.231   5.874
 4290POPC   C1A56403   9.671  42.573   6.170
 4290POPC   D2A56404   9.578  42.385   6.602
 4290POPC   C3A56405   9.729  42.451   7.036
 4290POPC   C4A56406   9.624  42.515   7.485
 4290POPC   C1B56407   9.791  42.066   6.268
 4290POPC   C2B56408   9.978  42.048   6.648
 4290POPC   C3B56409  10.143  42.155   7.042
 4290POPC   C4B56410   9.976  42.119   7.416
 4291POPC   NC356411  28.086  28.940   5.405
 4291POPC   PO456412  28.786  29.081   5.348
 4291POPC   GL156413  28.504  29.170   5.683
 4291POPC   GL256414  28.581  28.900   5.937
 4291POPC   C1A56415  28.417  29.334   6.100
 4291POPC   D2A56416  28.562  29.107   6.460
 4291POPC   C3A56417  28.334  29.313   6.781
 4291POPC   C4A56418  28.321  29.355   7.199
 4291POPC   C1B56419  28.922  28.782   6.250
 4291POPC   C2B56420  28.904  28.794   6.719
 4291POPC   C3B56421  28.722  29.035   7.022
 4291POPC   C4B56422  28.407  28.855   7.250
 4292POPC   NC356423   0.638  24.258   5.395
 4292POPC   PO456424   0.294  24.747   5.137
 4292POPC   GL156425   0.310  24.562   5.679
 4292POPC   GL256426   0.358  24.261   5.865
 4292POPC   C1A56427   0.432  24.749   6.118
 4292POPC   D2A56428   0.559  24.978   6.537
 4292POPC   C3A56429   0.494  24.747   6.935
 4292POPC   C4A56430   0.268  24.731   7.330
 4292POPC   C1B56431   0.516  24.290   6.302
 4292POPC   C2B56432   0.761  24.311   6.666
 4292POPC   C3B56433   0.743  24.079   7.030
 4292POPC   C4B56434   0.416  24.236   7.296
 4293POPC   NC356435  34.478  39.953   5.357
 4293POPC   PO456436  35.048  39.974   5.400
 4293POPC   GL156437  34.769  39.893   5.796
 4293POPC   GL256438  34.464  39.682   5.813
 4293POPC   C1A56439  34.637  39.934   6.270
 4293POPC   D2A56440  34.543  39.713   6.681
 4293POPC   C3A56441  34.739  39.883   7.075
 4293POPC   C4A56442  34.994  39.769   7.459
 4293POPC   C1B56443  34.229  39.615   6.220
 4293POPC   C2B56444  34.035  39.645   6.617
 4293POPC   C3B56445  34.145  39.779   7.038
 4293POPC   C4B56446  34.306  40.152   7.264
 4294POPC   NC356447  33.200  29.135   5.134
 4294POPC   PO456448  33.665  28.855   5.515
 4294POPC   GL156449  33.309  28.949   5.837
 4294POPC   GL256450  33.216  29.323   5.851
 4294POPC   C1A56451  33.006  29.029   6.224
 4294POPC   D2A56452  32.736  29.174   6.612
 4294POPC   C3A56453  32.847  28.986   7.055
 4294POPC   C4A56454  32.646  28.919   7.503
 4294POPC   C1B56455  33.084  29.528   6.297
 4294POPC   C2B56456  33.082  29.513   6.788
 4294POPC   C3B56457  33.117  29.697   7.195
 4294POPC   C4B56458  33.074  29.723   7.657
 4295POPC   NC356459  41.540  26.529   5.379
 4295POPC   PO456460  41.302  27.064   5.183
 4295POPC   GL156461  41.580  26.974   5.677
 4295POPC   GL256462  41.763  26.679   5.819
 4295POPC   C1A56463  41.494  26.862   6.194
 4295POPC   D2A56464  41.345  26.917   6.619
 4295POPC   C3A56465  41.733  26.886   6.839
 4295POPC   C4A56466  41.741  26.905   7.250
 4295POPC   C1B56467  41.919  26.454   6.188
 4295POPC   C2B56468  42.026  26.519   6.628
 4295POPC   C3B56469  41.924  26.458   7.061
 4295POPC   C4B56470  42.013  26.525   7.490
 4296POPC   NC356471   9.039  32.523   5.641
 4296POPC   PO456472   9.264  31.879   5.406
 4296POPC   GL156473   9.058  32.026   5.782
 4296POPC   GL256474   8.709  32.045   5.841
 4296POPC   C1A56475   9.022  32.071   6.243
 4296POPC   D2A56476   9.190  32.251   6.612
 4296POPC   C3A56477   9.331  32.021   6.958
 4296POPC   C4A56478   9.363  32.213   7.346
 4296POPC   C1B56479   8.646  32.389   6.171
 4296POPC   C2B56480   8.688  32.352   6.618
 4296POPC   C3B56481   8.870  32.310   7.039
 4296POPC   C4B56482   8.680  32.108   7.389
 4297POPC   NC356483   8.787  29.940   5.466
 4297POPC   PO456484   9.409  29.928   5.585
 4297POPC   GL156485   9.082  29.895   5.882
 4297POPC   GL256486   8.842  30.168   5.946
 4297POPC   C1A56487   8.914  29.745   6.254
 4297POPC   D2A56488   8.932  29.853   6.669
 4297POPC   C3A56489   9.039  29.585   7.001
 4297POPC   C4A56490   8.868  29.619   7.399
 4297POPC   C1B56491   9.242  30.259   6.217
 4297POPC   C2B56492   9.265  30.366   6.688
 4297POPC   C3B56493   9.134  30.092   7.064
 4297POPC   C4B56494   9.207  30.023   7.490
 4298POPC   NC356495  14.822  39.396   5.533
 4298POPC   PO456496  15.463  39.630   5.410
 4298POPC   GL156497  15.327  39.284   5.692
 4298POPC   GL256498  15.518  39.423   5.916
 4298POPC   C1A56499  15.115  39.149   6.108
 4298POPC   D2A56500  15.140  39.041   6.568
 4298POPC   C3A56501  14.897  39.059   6.933
 4298POPC   C4A56502  14.957  39.180   7.330
 4298POPC   C1B56503  15.363  39.674   6.267
 4298POPC   C2B56504  15.264  39.544   6.687
 4298POPC   C3B56505  15.335  39.294   7.021
 4298POPC   C4B56506  15.507  39.276   7.422
 4299POPC   NC356507   3.202   7.055   5.685
 4299POPC   PO456508   3.691   6.737   5.279
 4299POPC   GL156509   3.585   6.687   5.772
 4299POPC   GL256510   3.257   6.632   5.936
 4299POPC   C1A56511   3.629   6.687   6.272
 4299POPC   D2A56512   3.835   6.997   6.575
 4299POPC   C3A56513   3.907   6.875   7.001
 4299POPC   C4A56514   3.613   6.822   7.332
 4299POPC   C1B56515   3.149   6.860   6.348
 4299POPC   C2B56516   3.363   6.813   6.762
 4299POPC   C3B56517   3.253   6.526   7.108
 4299POPC   C4B56518   3.225   6.549   7.562
 4300POPC   NC356519  34.502   6.337   5.357
 4300POPC   PO456520  34.820   6.777   5.493
 4300POPC   GL156521  34.530   6.651   5.812
 4300POPC   GL256522  34.700   6.375   5.855
 4300POPC   C1A56523  34.411   6.826   6.222
 4300POPC   D2A56524  34.259   7.090   6.562
 4300POPC   C3A56525  34.332   6.809   6.896
 4300POPC   C4A56526  34.501   6.805   7.294
 4300POPC   C1B56527  34.694   6.408   6.283
 4300POPC   C2B56528  34.674   6.528   6.680
 4300POPC   C3B56529  34.632   6.366   7.099
 4300POPC   C4B56530  34.553   6.373   7.555
 4301POPC   NC356531  28.252  21.022   5.065
 4301POPC   PO456532  28.197  21.651   5.388
 4301POPC   GL156533  28.358  21.602   5.793
 4301POPC   GL256534  28.335  21.301   5.939
 4301POPC   C1A56535  28.578  21.681   6.208
 4301POPC   D2A56536  28.298  21.677   6.567
 4301POPC   C3A56537  28.503  21.670   6.945
 4301POPC   C4A56538  28.291  21.503   7.265
 4301POPC   C1B56539  28.666  21.150   6.209
 4301POPC   C2B56540  28.653  21.275   6.640
 4301POPC   C3B56541  28.284  21.110   6.882
 4301POPC   C4B56542  28.185  21.015   7.326
 4302POPC   NC356543  16.267  43.443   5.465
 4302POPC   PO456544  16.739  43.950   5.524
 4302POPC   GL156545  16.495  43.875   5.845
 4302POPC   GL256546  16.444  44.226   5.929
 4302POPC   C1A56547  16.697  43.762   6.215
 4302POPC   D2A56548  16.744  43.935   6.623
 4302POPC   C3A56549  16.631  43.620   6.901
 4302POPC   C4A56550  16.903  43.598   7.227
 4302POPC   C1B56551  16.278  44.025   6.305
 4302POPC   C2B56552  16.244  43.945   6.736
 4302POPC   C3B56553  16.426  44.212   7.045
 4302POPC   C4B56554  16.695  44.206   7.402
 4303POPC   NC356555  10.581   2.100   5.427
 4303POPC   PO456556  10.571   1.479   5.552
 4303POPC   GL156557  10.378   1.776   5.821
 4303POPC   GL256558  10.044   1.623   5.793
 4303POPC   C1A56559  10.459   2.095   6.187
 4303POPC   D2A56560  10.743   2.108   6.548
 4303POPC   C3A56561  10.695   1.825   6.881
 4303POPC   C4A56562  10.562   1.990   7.228
 4303POPC   C1B56563  10.050   1.811   6.213
 4303POPC   C2B56564  10.330   1.715   6.538
 4303POPC   C3B56565  10.193   1.690   6.972
 4303POPC   C4B56566  10.372   1.536   7.353
 4304POPC   NC356567   1.578  24.564   5.308
 4304POPC   PO456568   2.256  24.393   5.448
 4304POPC   GL156569   2.081  24.293   5.867
 4304POPC   GL256570   1.890  24.611   5.958
 4304POPC   C1A56571   1.887  24.217   6.286
 4304POPC   D2A56572   1.780  24.419   6.668
 4304POPC   C3A56573   1.947  24.251   7.057
 4304POPC   C4A56574   1.876  24.340   7.518
 4304POPC   C1B56575   2.202  24.634   6.329
 4304POPC   C2B56576   2.219  24.666   6.796
 4304POPC   C3B56577   1.943  24.876   7.096
 4304POPC   C4B56578   2.074  25.036   7.502
 4305POPC   NC356579  21.655   8.409   5.413
 4305POPC   PO456580  21.139   7.981   5.551
 4305POPC   GL156581  21.378   8.240   5.820
 4305POPC   GL256582  21.658   8.023   5.736
 4305POPC   C1A56583  21.555   8.283   6.260
 4305POPC   D2A56584  21.857   8.366   6.621
 4305POPC   C3A56585  21.620   8.477   6.980
 4305POPC   C4A56586  21.223   8.361   7.188
 4305POPC   C1B56587  21.521   7.808   6.068
 4305POPC   C2B56588  21.342   7.843   6.491
 4305POPC   C3B56589  21.511   7.970   6.892
 4305POPC   C4B56590  21.610   8.045   7.331
 4306POPC   NC356591  42.940  11.428   5.375
 4306POPC   PO456592  43.527  11.232   5.105
 4306POPC   GL156593  43.484  11.225   5.628
 4306POPC   GL256594  43.165  11.277   5.821
 4306POPC   C1A56595  43.534  11.333   6.134
 4306POPC   D2A56596  43.347  11.216   6.542
 4306POPC   C3A56597  43.296  11.434   6.924
 4306POPC   C4A56598  43.459  11.418   7.340
 4306POPC   C1B56599  42.988  11.100   6.221
 4306POPC   C2B56600  42.675  11.254   6.520
 4306POPC   C3B56601  42.758  11.390   6.946
 4306POPC   C4B56602  42.991  11.157   7.249
 4307POPC   NC356603   1.336   8.496   5.496
 4307POPC   PO456604   1.054   7.836   5.472
 4307POPC   GL156605   1.012   8.181   5.753
 4307POPC   GL256606   1.358   8.124   5.857
 4307POPC   C1A56607   0.997   8.546   6.078
 4307POPC   D2A56608   0.943   8.481   6.524
 4307POPC   C3A56609   1.134   8.595   6.905
 4307POPC   C4A56610   0.939   8.561   7.293
 4307POPC   C1B56611   1.190   8.100   6.276
 4307POPC   C2B56612   1.391   8.183   6.689
 4307POPC   C3B56613   1.391   8.167   7.145
 4307POPC   C4B56614   1.640   8.043   7.534
 4308POPC   NC356615  23.177   7.271   5.423
 4308POPC   PO456616  22.647   7.782   5.353
 4308POPC   GL156617  22.752   7.602   5.751
 4308POPC   GL256618  23.091   7.651   5.781
 4308POPC   C1A56619  22.857   7.737   6.202
 4308POPC   D2A56620  23.091   7.627   6.563
 4308POPC   C3A56621  22.961   7.383   6.907
 4308POPC   C4A56622  22.793   7.565   7.306
 4308POPC   C1B56623  23.149   7.326   6.111
 4308POPC   C2B56624  23.279   7.155   6.526
 4308POPC   C3B56625  23.364   7.042   6.951
 4308POPC   C4B56626  23.145   6.999   7.334
 4309POPC   NC356627  44.122  26.896   5.471
 4309POPC   PO456628  43.482  26.729   5.478
 4309POPC   GL156629  43.715  26.904   5.836
 4309POPC   GL256630  43.993  26.665   5.929
 4309POPC   C1A56631  43.871  27.057   6.246
 4309POPC   D2A56632  43.665  27.020   6.639
 4309POPC   C3A56633  43.879  26.759   6.942
 4309POPC   C4A56634  43.888  26.816   7.367
 4309POPC   C1B56635  43.664  26.568   6.255
 4309POPC   C2B56636  43.525  26.493   6.694
 4309POPC   C3B56637  43.600  26.385   7.158
 4309POPC   C4B56638  43.720  26.440   7.633
 4310POPC   NC356639  35.920  20.171   4.976
 4310POPC   PO456640  35.930  19.644   5.380
 4310POPC   GL156641  36.139  19.833   5.709
 4310POPC   GL256642  36.482  19.803   5.715
 4310POPC   C1A56643  36.162  19.975   6.118
 4310POPC   D2A56644  36.212  19.791   6.528
 4310POPC   C3A56645  36.115  19.994   6.933
 4310POPC   C4A56646  36.050  20.365   7.265
 4310POPC   C1B56647  36.543  19.618   6.145
 4310POPC   C2B56648  36.648  19.515   6.579
 4310POPC   C3B56649  36.509  19.638   7.016
 4310POPC   C4B56650  36.703  19.676   7.471
 4311POPC   NC356651  19.308  25.651   5.245
 4311POPC   PO456652  18.976  25.044   5.424
 4311POPC   GL156653  19.256  25.008   5.828
 4311POPC   GL256654  19.558  25.230   5.802
 4311POPC   C1A56655  19.258  24.991   6.315
 4311POPC   D2A56656  19.112  25.274   6.645
 4311POPC   C3A56657  18.986  25.198   7.075
 4311POPC   C4A56658  18.893  25.425   7.448
 4311POPC   C1B56659  19.736  24.951   6.138
 4311POPC   C2B56660  19.710  24.792   6.571
 4311POPC   C3B56661  19.412  24.946   6.884
 4311POPC   C4B56662  19.318  24.936   7.353
 4312POPC   NC356663   1.958  11.499   5.276
 4312POPC   PO456664   2.399  11.559   5.671
 4312POPC   GL156665   2.135  11.268   5.816
 4312POPC   GL256666   1.830  11.434   5.803
 4312POPC   C1A56667   2.240  11.069   6.219
 4312POPC   D2A56668   2.503  11.227   6.574
 4312POPC   C3A56669   2.263  11.238   6.947
 4312POPC   C4A56670   1.885  11.189   7.146
 4312POPC   C1B56671   2.014  11.540   6.228
 4312POPC   C2B56672   1.847  11.401   6.627
 4312POPC   C3B56673   1.677  11.636   6.944
 4312POPC   C4B56674   1.970  11.716   7.229
 4313POPC   NC356675  36.843  20.196   5.204
 4313POPC   PO456676  36.529  20.732   5.404
 4313POPC   GL156677  36.700  20.809   5.803
 4313POPC   GL256678  37.040  20.827   5.794
 4313POPC   C1A56679  36.820  20.618   6.199
 4313POPC   D2A56680  37.049  20.345   6.438
 4313POPC   C3A56681  36.995  20.431   6.830
 4313POPC   C4A56682  36.800  20.512   7.201
 4313POPC   C1B56683  37.300  20.750   6.200
 4313POPC   C2B56684  37.408  20.689   6.636
 4313POPC   C3B56685  37.266  20.793   7.077
 4313POPC   C4B56686  37.291  21.033   7.468
 4314POPC   NC356687   6.444  27.676   5.320
 4314POPC   PO456688   5.766  27.729   5.410
 4314POPC   GL156689   5.868  27.630   5.787
 4314POPC   GL256690   5.555  27.436   5.809
 4314POPC   C1A56691   6.031  27.776   6.165
 4314POPC   D2A56692   5.936  27.545   6.512
 4314POPC   C3A56693   6.203  27.581   6.793
 4314POPC   C4A56694   6.237  27.720   7.159
 4314POPC   C1B56695   5.543  27.685   6.187
 4314POPC   C2B56696   5.523  27.793   6.626
 4314POPC   C3B56697   5.754  27.767   6.991
 4314POPC   C4B56698   5.799  27.525   7.347
 4315POPC   NC356699  44.434  41.456   5.461
 4315POPC   PO456700   0.020  41.803   5.647
 4315POPC   GL156701  44.762  41.535   5.861
 4315POPC   GL256702  44.496  41.792   5.888
 4315POPC   C1A56703  44.828  41.246   6.226
 4315POPC   D2A56704  44.987  41.259   6.675
 4315POPC   C3A56705  44.752  41.488   6.969
 4315POPC   C4A56706  44.768  41.902   7.109
 4315POPC   C1B56707  44.336  41.448   6.132
 4315POPC   C2B56708  44.440  41.443   6.520
 4315POPC   C3B56709  44.245  41.448   6.865
 4315POPC   C4B56710  44.223  41.607   7.255
 4316POPC   NC356711   4.622  27.592   5.388
 4316POPC   PO456712   4.010  27.241   5.342
 4316POPC   GL156713   4.033  27.413   5.768
 4316POPC   GL256714   4.321  27.666   5.789
 4316POPC   C1A56715   4.169  27.446   6.217
 4316POPC   D2A56716   4.487  27.436   6.523
 4316POPC   C3A56717   4.334  27.235   6.878
 4316POPC   C4A56718   4.483  27.315   7.238
 4316POPC   C1B56719   4.003  27.899   6.001
 4316POPC   C2B56720   3.919  28.046   6.411
 4316POPC   C3B56721   4.020  27.877   6.812
 4316POPC   C4B56722   4.240  27.773   7.227
 4317POPC   NC356723  31.811   8.951   5.413
 4317POPC   PO456724  32.414   9.101   5.301
 4317POPC   GL156725  32.218   9.064   5.754
 4317POPC   GL256726  32.004   8.820   5.858
 4317POPC   C1A56727  32.156   9.303   6.168
 4317POPC   D2A56728  32.325   9.170   6.585
 4317POPC   C3A56729  32.181   9.213   7.020
 4317POPC   C4A56730  32.378   9.021   7.445
 4317POPC   C1B56731  32.262   8.801   6.228
 4317POPC   C2B56732  32.194   8.679   6.652
 4317POPC   C3B56733  32.199   8.719   7.088
 4317POPC   C4B56734  32.001   8.676   7.501
 4318POPC   NC356735  32.648  18.615   5.484
 4318POPC   PO456736  32.118  19.167   5.618
 4318POPC   GL156737  32.132  19.118   6.027
 4318POPC   GL256738  31.966  18.835   6.009
 4318POPC   C1A56739  32.172  19.223   6.458
 4318POPC   D2A56740  32.458  19.247   6.790
 4318POPC   C3A56741  32.282  19.117   7.157
 4318POPC   C4A56742  31.951  19.248   7.419
 4318POPC   C1B56743  32.286  18.733   6.336
 4318POPC   C2B56744  32.215  18.703   6.771
 4318POPC   C3B56745  32.483  18.646   7.101
 4318POPC   C4B56746  32.625  18.850   7.443
 4319POPC   NC356747  43.668  17.081   5.431
 4319POPC   PO456748  44.135  16.691   5.367
 4319POPC   GL156749  44.049  16.880   5.751
 4319POPC   GL256750  43.732  16.708   5.793
 4319POPC   C1A56751  43.867  17.075   6.141
 4319POPC   D2A56752  43.724  17.006   6.576
 4319POPC   C3A56753  44.015  16.965   6.950
 4319POPC   C4A56754  44.085  17.018   7.422
 4319POPC   C1B56755  43.716  16.563   6.215
 4319POPC   C2B56756  43.933  16.558   6.607
 4319POPC   C3B56757  43.658  16.621   6.943
 4319POPC   C4B56758  43.877  16.583   7.302
 4320POPC   NC356759   6.443  30.786   5.554
 4320POPC   PO456760   6.922  30.917   5.083
 4320POPC   GL156761   6.931  30.952   5.594
 4320POPC   GL256762   6.691  31.112   5.863
 4320POPC   C1A56763   7.063  30.887   6.086
 4320POPC   D2A56764   7.037  30.927   6.539
 4320POPC   C3A56765   6.722  30.835   6.865
 4320POPC   C4A56766   6.479  30.875   7.270
 4320POPC   C1B56767   6.574  30.837   6.250
 4320POPC   C2B56768   6.358  30.596   6.592
 4320POPC   C3B56769   6.354  30.424   7.009
 4320POPC   C4B56770   6.322  30.439   7.467
 4321POPC   NC356771  23.712  43.161   5.340
 4321POPC   PO456772  23.208  42.790   5.463
 4321POPC   GL156773  23.468  42.934   5.813
 4321POPC   GL256774  23.843  42.921   5.814
 4321POPC   C1A56775  23.461  43.166   6.222
 4321POPC   D2A56776  23.705  43.315   6.599
 4321POPC   C3A56777  23.468  43.328   6.992
 4321POPC   C4A56778  23.537  43.125   7.401
 4321POPC   C1B56779  23.675  42.715   6.229
 4321POPC   C2B56780  23.628  42.797   6.680
 4321POPC   C3B56781  23.835  42.987   7.008
 4321POPC   C4B56782  23.946  42.832   7.405
 4322POPC   NC356783  11.347  40.246   5.354
 4322POPC   PO456784  11.589  39.599   5.350
 4322POPC   GL156785  11.601  39.911   5.678
 4322POPC   GL256786  11.251  39.945   5.768
 4322POPC   C1A56787  11.611  39.917   6.147
 4322POPC   D2A56788  11.349  39.972   6.568
 4322POPC   C3A56789  11.550  40.011   7.025
 4322POPC   C4A56790  11.703  40.052   7.522
 4322POPC   C1B56791  11.262  40.301   6.080
 4322POPC   C2B56792  11.114  40.430   6.494
 4322POPC   C3B56793  11.066  40.259   6.902
 4322POPC   C4B56794  10.783  40.158   7.212
 4323POPC   NC356795  41.137  24.006   5.138
 4323POPC   PO456796  40.620  23.722   5.464
 4323POPC   GL156797  40.913  23.509   5.743
 4323POPC   GL256798  41.161  23.745   5.856
 4323POPC   C1A56799  40.889  23.458   6.208
 4323POPC   D2A56800  40.721  23.733   6.581
 4323POPC   C3A56801  40.657  23.565   7.015
 4323POPC   C4A56802  40.883  23.626   7.441
 4323POPC   C1B56803  41.081  23.936   6.252
 4323POPC   C2B56804  41.197  24.073   6.675
 4323POPC   C3B56805  41.197  23.978   7.136
 4323POPC   C4B56806  41.149  24.044   7.602
 4324POPC   NC356807  11.522  22.251   5.395
 4324POPC   PO456808  11.075  21.751   5.295
 4324POPC   GL156809  11.226  21.907   5.687
 4324POPC   GL256810  11.129  22.277   5.739
 4324POPC   C1A56811  11.215  21.965   6.144
 4324POPC   D2A56812  11.333  22.193   6.527
 4324POPC   C3A56813  11.301  21.992   6.934
 4324POPC   C4A56814  11.335  22.127   7.331
 4324POPC   C1B56815  10.889  22.356   6.165
 4324POPC   C2B56816  10.840  22.154   6.587
 4324POPC   C3B56817  10.917  22.323   7.018
 4324POPC   C4B56818  11.028  22.508   7.449
 4325POPC   NC356819   3.010   0.003   5.043
 4325POPC   PO456820   2.544  44.717   5.351
 4325POPC   GL156821   2.698  44.725   5.747
 4325POPC   GL256822   2.852  44.435   5.706
 4325POPC   C1A56823   2.619  44.871   6.187
 4325POPC   D2A56824   2.535  44.687   6.602
 4325POPC   C3A56825   2.691  44.936   6.958
 4325POPC   C4A56826   2.659  44.863   7.390
 4325POPC   C1B56827   2.822  44.382   6.157
 4325POPC   C2B56828   2.927  44.307   6.597
 4325POPC   C3B56829   2.856  44.446   7.011
 4325POPC   C4B56830   3.091  44.634   7.311
 4326POPC   NC356831  24.873  10.518   5.429
 4326POPC   PO456832  24.309  10.403   5.552
 4326POPC   GL156833  24.342  10.619   5.898
 4326POPC   GL256834  24.686  10.542   5.903
 4326POPC   C1A56835  24.401  10.541   6.337
 4326POPC   D2A56836  24.573  10.467   6.731
 4326POPC   C3A56837  24.308  10.635   7.037
 4326POPC   C4A56838  24.019  10.944   7.177
 4326POPC   C1B56839  24.845  10.268   6.239
 4326POPC   C2B56840  24.945  10.092   6.654
 4326POPC   C3B56841  24.769  10.111   7.062
 4326POPC   C4B56842  24.761  10.529   7.210
 4327POPC   NC356843  18.678  31.057   5.440
 4327POPC   PO456844  19.004  30.438   5.490
 4327POPC   GL156845  18.942  30.579   5.872
 4327POPC   GL256846  18.949  30.909   5.825
 4327POPC   C1A56847  18.992  30.649   6.306
 4327POPC   D2A56848  19.029  30.374   6.662
 4327POPC   C3A56849  19.237  30.567   7.011
 4327POPC   C4A56850  18.958  30.726   7.286
 4327POPC   C1B56851  18.614  30.992   6.120
 4327POPC   C2B56852  18.519  31.033   6.573
 4327POPC   C3B56853  18.797  31.077   6.960
 4327POPC   C4B56854  18.826  31.187   7.431
 4328POPC   NC356855  32.720  34.366   5.438
 4328POPC   PO456856  33.168  34.794   5.173
 4328POPC   GL156857  32.949  34.767   5.659
 4328POPC   GL256858  32.936  34.426   5.878
 4328POPC   C1A56859  33.108  34.816   6.123
 4328POPC   D2A56860  32.987  34.553   6.471
 4328POPC   C3A56861  32.966  34.675   6.913
 4328POPC   C4A56862  32.785  34.839   7.301
 4328POPC   C1B56863  32.897  34.123   6.216
 4328POPC   C2B56864  33.210  34.096   6.567
 4328POPC   C3B56865  33.195  34.214   7.022
 4328POPC   C4B56866  32.965  34.355   7.348
 4329POPC   NC356867   8.074  40.558   5.378
 4329POPC   PO456868   8.658  40.908   5.268
 4329POPC   GL156869   8.367  40.997   5.637
 4329POPC   GL256870   8.232  40.698   5.830
 4329POPC   C1A56871   8.420  41.046   6.119
 4329POPC   D2A56872   8.306  40.769   6.478
 4329POPC   C3A56873   8.353  40.964   6.875
 4329POPC   C4A56874   8.543  41.059   7.259
 4329POPC   C1B56875   7.927  40.900   6.116
 4329POPC   C2B56876   7.712  40.794   6.495
 4329POPC   C3B56877   7.924  40.697   6.825
 4329POPC   C4B56878   8.139  40.635   7.214
 4330POPC   NC356879   3.000   0.896   5.493
 4330POPC   PO456880   3.386   1.356   5.194
 4330POPC   GL156881   3.299   1.359   5.669
 4330POPC   GL256882   3.495   1.082   5.784
 4330POPC   C1A56883   3.300   1.332   6.170
 4330POPC   D2A56884   3.403   1.490   6.622
 4330POPC   C3A56885   3.394   1.278   7.013
 4330POPC   C4A56886   3.712   1.387   7.310
 4330POPC   C1B56887   3.652   0.913   6.201
 4330POPC   C2B56888   3.695   1.010   6.657
 4330POPC   C3B56889   3.824   0.954   7.095
 4330POPC   C4B56890   3.723   0.955   7.576
 4331POPC   NC356891  27.719  12.873   5.298
 4331POPC   PO456892  28.006  12.370   5.686
 4331POPC   GL156893  27.684  12.627   5.825
 4331POPC   GL256894  27.658  12.980   5.792
 4331POPC   C1A56895  27.675  12.745   6.240
 4331POPC   D2A56896  27.528  12.624   6.599
 4331POPC   C3A56897  27.779  12.573   6.930
 4331POPC   C4A56898  27.684  12.722   7.308
 4331POPC   C1B56899  27.581  13.245   6.140
 4331POPC   C2B56900  27.424  13.128   6.511
 4331POPC   C3B56901  27.606  13.111   6.914
 4331POPC   C4B56902  27.367  13.121   7.276
 4332POPC   NC356903  31.323  36.209   5.290
 4332POPC   PO456904  31.942  36.072   5.313
 4332POPC   GL156905  31.689  35.947   5.698
 4332POPC   GL256906  31.317  35.888   5.749
 4332POPC   C1A56907  31.691  35.997   6.170
 4332POPC   D2A56908  31.912  36.063   6.584
 4332POPC   C3A56909  31.687  36.117   6.972
 4332POPC   C4A56910  31.592  35.831   7.291
 4332POPC   C1B56911  31.161  36.083   6.137
 4332POPC   C2B56912  31.110  36.065   6.596
 4332POPC   C3B56913  31.251  35.767   6.917
 4332POPC   C4B56914  31.180  35.518   7.296
 4333POPC   NC356915  24.737   5.690   5.337
 4333POPC   PO456916  24.299   6.179   5.159
 4333POPC   GL156917  24.371   5.990   5.583
 4333POPC   GL256918  24.705   5.920   5.800
 4333POPC   C1A56919  24.244   5.990   6.032
 4333POPC   D2A56920  24.176   6.064   6.483
 4333POPC   C3A56921  24.350   5.878   6.852
 4333POPC   C4A56922  24.449   5.618   7.222
 4333POPC   C1B56923  24.746   5.973   6.275
 4333POPC   C2B56924  24.830   5.797   6.704
 4333POPC   C3B56925  24.772   6.035   7.089
 4333POPC   C4B56926  24.671   6.464   7.169
 4334POPC   NC356927   6.090  41.817   5.499
 4334POPC   PO456928   5.690  41.307   5.479
 4334POPC   GL156929   5.982  41.390   5.802
 4334POPC   GL256930   6.172  41.097   5.836
 4334POPC   C1A56931   5.961  41.655   6.167
 4334POPC   D2A56932   5.679  41.769   6.515
 4334POPC   C3A56933   5.864  41.741   6.920
 4334POPC   C4A56934   5.656  41.852   7.295
 4334POPC   C1B56935   5.926  41.082   6.206
 4334POPC   C2B56936   5.970  41.332   6.555
 4334POPC   C3B56937   6.163  41.310   6.932
 4334POPC   C4B56938   5.928  41.354   7.289
 4335POPC   NC356939  25.260  22.320   5.392
 4335POPC   PO456940  24.869  21.864   5.600
 4335POPC   GL156941  25.136  22.224   5.878
 4335POPC   GL256942  25.143  22.615   5.789
 4335POPC   C1A56943  25.527  22.279   6.181
 4335POPC   D2A56944  25.798  22.255   6.581
 4335POPC   C3A56945  25.591  22.309   7.000
 4335POPC   C4A56946  25.177  22.183   7.173
 4335POPC   C1B56947  25.307  22.750   6.199
 4335POPC   C2B56948  25.403  22.638   6.627
 4335POPC   C3B56949  25.227  22.670   7.053
 4335POPC   C4B56950  25.346  22.608   7.488
 4336POPC   NC356951  11.063  34.057   5.056
 4336POPC   PO456952  11.529  34.192   5.443
 4336POPC   GL156953  11.364  34.106   5.860
 4336POPC   GL256954  11.232  33.785   5.873
 4336POPC   C1A56955  11.378  34.037   6.335
 4336POPC   D2A56956  11.069  33.835   6.568
 4336POPC   C3A56957  11.213  33.796   6.966
 4336POPC   C4A56958  11.072  33.835   7.381
 4336POPC   C1B56959  11.516  33.568   6.163
 4336POPC   C2B56960  11.500  33.557   6.603
 4336POPC   C3B56961  11.504  33.406   7.051
 4336POPC   C4B56962  11.309  33.357   7.441
 4337POPC   NC356963  43.260  19.432   5.524
 4337POPC   PO456964  43.190  20.102   5.465
 4337POPC   GL156965  43.198  19.826   5.835
 4337POPC   GL256966  42.874  19.589   5.829
 4337POPC   C1A56967  43.169  19.767   6.275
 4337POPC   D2A56968  42.821  19.656   6.553
 4337POPC   C3A56969  42.877  19.747   6.973
 4337POPC   C4A56970  43.288  19.716   7.177
 4337POPC   C1B56971  42.716  19.915   6.120
 4337POPC   C2B56972  42.937  20.171   6.484
 4337POPC   C3B56973  42.802  20.291   6.910
 4337POPC   C4B56974  42.902  20.130   7.313
 4338POPC   NC356975  10.782  10.011   5.660
 4338POPC   PO456976  10.442   9.467   5.322
 4338POPC   GL156977  10.536   9.463   5.750
 4338POPC   GL256978  10.212   9.344   5.792
 4338POPC   C1A56979  10.489   9.673   6.164
 4338POPC   D2A56980  10.639   9.531   6.588
 4338POPC   C3A56981  10.560   9.826   6.918
 4338POPC   C4A56982  10.698   9.939   7.323
 4338POPC   C1B56983  10.019   9.445   6.143
 4338POPC   C2B56984  10.116   9.607   6.525
 4338POPC   C3B56985  10.148   9.494   6.915
 4338POPC   C4B56986  10.222   9.688   7.273
 4339POPC   NC356987  44.514   0.258   5.338
 4339POPC   PO456988  44.896   0.767   5.401
 4339POPC   GL156989  44.662   0.540   5.749
 4339POPC   GL256990  44.604   0.173   5.859
 4339POPC   C1A56991  44.681   0.618   6.174
 4339POPC   D2A56992  44.563   0.683   6.582
 4339POPC   C3A56993  44.766   0.397   6.834
 4339POPC   C4A56994  44.786   0.405   7.252
 4339POPC   C1B56995  44.531   0.149   6.333
 4339POPC   C2B56996  44.277   0.241   6.692
 4339POPC   C3B56997  44.355   0.155   7.130
 4339POPC   C4B56998  44.423   0.119   7.585
 4340POPC   NC356999  35.709   5.885   5.740
 4340POPC   PO457000  36.196   5.469   5.455
 4340POPC   GL157001  36.324   5.826   5.748
 4340POPC   GL257002  36.222   6.202   5.706
 4340POPC   C1A57003  36.224   5.833   6.195
 4340POPC   D2A57004  35.908   5.606   6.453
 4340POPC   C3A57005  36.018   5.481   6.871
 4340POPC   C4A57006  36.270   5.556   7.242
 4340POPC   C1B57007  36.107   6.354   6.120
 4340POPC   C2B57008  36.262   6.230   6.526
 4340POPC   C3B57009  36.279   6.011   6.910
 4340POPC   C4B57010  35.905   5.986   7.139
 4341POPC   NC357011  33.886   3.800   5.432
 4341POPC   PO457012  34.253   3.266   5.649
 4341POPC   GL157013  33.824   3.355   5.827
 4341POPC   GL257014  33.692   3.694   5.892
 4341POPC   C1A57015  33.602   3.271   6.244
 4341POPC   D2A57016  33.654   3.160   6.710
 4341POPC   C3A57017  33.981   3.417   6.932
 4341POPC   C4A57018  34.046   3.861   7.040
 4341POPC   C1B57019  33.819   3.902   6.222
 4341POPC   C2B57020  33.710   3.701   6.598
 4341POPC   C3B57021  33.536   3.676   6.994
 4341POPC   C4B57022  33.332   3.932   7.254
 4342POPC   NC357023  10.710  44.415   5.429
 4342POPC   PO457024  10.189  44.753   5.218
 4342POPC   GL157025  10.257  44.552   5.685
 4342POPC   GL257026  10.591  44.643   5.868
 4342POPC   C1A57027  10.166  44.441   6.151
 4342POPC   D2A57028   9.997  44.632   6.555
 4342POPC   C3A57029  10.162  44.476   6.963
 4342POPC   C4A57030  10.602  44.343   7.133
 4342POPC   C1B57031  10.754  44.429   6.244
 4342POPC   C2B57032  10.814  44.564   6.692
 4342POPC   C3B57033  10.864  44.787   7.085
 4342POPC   C4B57034  10.882  44.636   7.515
 4343POPC   NC357035  30.893  29.366   5.341
 4343POPC   PO457036  30.467  28.923   5.409
 4343POPC   GL157037  30.496  29.219   5.771
 4343POPC   GL257038  30.848  29.277   5.847
 4343POPC   C1A57039  30.473  29.242   6.234
 4343POPC   D2A57040  30.220  29.126   6.614
 4343POPC   C3A57041  30.353  29.300   6.937
 4343POPC   C4A57042  30.508  29.194   7.273
 4343POPC   C1B57043  30.894  29.539   6.211
 4343POPC   C2B57044  30.739  29.467   6.617
 4343POPC   C3B57045  30.899  29.280   6.955
 4343POPC   C4B57046  30.923  29.501   7.298
 4344POPC   NC357047   3.620  33.689   5.256
 4344POPC   PO457048   3.047  33.884   5.405
 4344POPC   GL157049   3.459  33.830   5.719
 4344POPC   GL257050   3.799  33.564   5.737
 4344POPC   C1A57051   3.600  33.779   6.171
 4344POPC   D2A57052   3.489  33.576   6.576
 4344POPC   C3A57053   3.535  33.818   6.962
 4344POPC   C4A57054   3.435  33.912   7.401
 4344POPC   C1B57055   3.800  33.310   6.177
 4344POPC   C2B57056   3.932  33.280   6.638
 4344POPC   C3B57057   3.840  33.399   7.086
 4344POPC   C4B57058   3.709  33.440   7.570
 4345POPC   NC357059  33.633  18.678   5.324
 4345POPC   PO457060  34.147  18.329   5.328
 4345POPC   GL157061  33.916  18.487   5.710
 4345POPC   GL257062  34.106  18.768   5.765
 4345POPC   C1A57063  33.726  18.376   6.122
 4345POPC   D2A57064  33.562  18.180   6.498
 4345POPC   C3A57065  33.665  18.383   6.891
 4345POPC   C4A57066  33.816  18.224   7.258
 4345POPC   C1B57067  34.168  18.623   6.200
 4345POPC   C2B57068  34.076  18.702   6.657
 4345POPC   C3B57069  34.080  18.628   7.105
 4345POPC   C4B57070  34.117  18.644   7.569
 4346POPC   NC357071   8.491  23.898   5.558
 4346POPC   PO457072   9.085  23.698   5.221
 4346POPC   GL157073   9.097  23.608   5.700
 4346POPC   GL257074   8.785  23.667   5.888
 4346POPC   C1A57075   9.221  23.752   6.144
 4346POPC   D2A57076   9.298  23.867   6.597
 4346POPC   C3A57077   9.077  23.619   6.941
 4346POPC   C4A57078   8.651  23.388   6.988
 4346POPC   C1B57079   8.729  23.949   6.254
 4346POPC   C2B57080   8.723  23.844   6.667
 4346POPC   C3B57081   8.632  23.877   7.098
 4346POPC   C4B57082   8.746  23.838   7.520
 4347POPC   NC357083  41.308   5.605   5.511
 4347POPC   PO457084  41.771   6.171   5.449
 4347POPC   GL157085  41.552   5.974   5.823
 4347POPC   GL257086  41.364   6.252   5.982
 4347POPC   C1A57087  41.330   5.790   6.203
 4347POPC   D2A57088  41.520   5.877   6.587
 4347POPC   C3A57089  41.380   5.702   6.951
 4347POPC   C4A57090  41.272   6.097   7.112
 4347POPC   C1B57091  41.703   6.244   6.265
 4347POPC   C2B57092  41.867   6.291   6.683
 4347POPC   C3B57093  41.794   6.017   7.014
 4347POPC   C4B57094  41.818   5.986   7.441
 4348POPC   NC357095   3.447  35.041   5.468
 4348POPC   PO457096   3.346  35.731   5.480
 4348POPC   GL157097   3.656  35.476   5.700
 4348POPC   GL257098   3.403  35.310   5.893
 4348POPC   C1A57099   3.888  35.321   6.062
 4348POPC   D2A57100   3.777  35.321   6.487
 4348POPC   C3A57101   3.939  35.404   6.904
 4348POPC   C4A57102   3.652  35.640   7.159
 4348POPC   C1B57103   3.263  35.242   6.292
 4348POPC   C2B57104   3.380  35.057   6.656
 4348POPC   C3B57105   3.505  35.166   6.996
 4348POPC   C4B57106   3.740  35.153   7.310
 4349POPC   NC357107   6.843  10.470   5.366
 4349POPC   PO457108   6.579  11.108   5.353
 4349POPC   GL157109   6.612  10.770   5.723
 4349POPC   GL257110   6.941  10.667   5.856
 4349POPC   C1A57111   6.562  10.471   6.122
 4349POPC   D2A57112   6.586  10.278   6.552
 4349POPC   C3A57113   6.610  10.567   6.902
 4349POPC   C4A57114   6.481  10.771   7.291
 4349POPC   C1B57115   7.075  10.301   6.079
 4349POPC   C2B57116   7.105  10.257   6.519
 4349POPC   C3B57117   6.923  10.126   6.920
 4349POPC   C4B57118   6.951  10.378   7.267
 4350POPC   NC357119  33.508  38.369   5.395
 4350POPC   PO457120  32.912  38.549   5.372
 4350POPC   GL157121  32.747  38.525   5.782
 4350POPC   GL257122  32.673  38.150   5.796
 4350POPC   C1A57123  32.874  38.774   6.164
 4350POPC   D2A57124  33.194  38.604   6.436
 4350POPC   C3A57125  33.223  38.603   6.904
 4350POPC   C4A57126  33.292  38.314   7.234
 4350POPC   C1B57127  32.733  38.289   6.255
 4350POPC   C2B57128  32.719  38.564   6.641
 4350POPC   C3B57129  32.764  38.449   7.090
 4350POPC   C4B57130  32.589  38.636   7.464
 4351POPC   NC357131  38.437   4.737   5.608
 4351POPC   PO457132  38.338   4.110   5.453
 4351POPC   GL157133  38.427   4.199   5.851
 4351POPC   GL257134  38.701   4.421   5.948
 4351POPC   C1A57135  38.496   4.035   6.243
 4351POPC   D2A57136  38.541   4.240   6.619
 4351POPC   C3A57137  38.459   4.035   6.994
 4351POPC   C4A57138  38.535   3.979   7.401
 4351POPC   C1B57139  38.306   4.542   6.212
 4351POPC   C2B57140  38.078   4.498   6.586
 4351POPC   C3B57141  38.277   4.510   6.973
 4351POPC   C4B57142  38.168   4.363   7.335
 4352POPC   NC357143  30.369   9.402   5.433
 4352POPC   PO457144  30.988   9.725   5.515
 4352POPC   GL157145  30.865   9.754   5.891
 4352POPC   GL257146  30.489   9.735   5.848
 4352POPC   C1A57147  31.094   9.747   6.268
 4352POPC   D2A57148  30.960   9.943   6.650
 4352POPC   C3A57149  30.926   9.752   7.035
 4352POPC   C4A57150  30.775   9.867   7.426
 4352POPC   C1B57151  30.577   9.893   6.294
 4352POPC   C2B57152  30.452   9.857   6.745
 4352POPC   C3B57153  30.391   9.643   7.158
 4352POPC   C4B57154  30.344   9.715   7.637
 4353POPC   NC357155  42.647  31.310   5.598
 4353POPC   PO457156  43.239  31.508   5.380
 4353POPC   GL157157  43.190  31.682   5.796
 4353POPC   GL257158  42.953  31.978   5.839
 4353POPC   C1A57159  43.260  31.470   6.200
 4353POPC   D2A57160  43.332  31.536   6.648
 4353POPC   C3A57161  43.013  31.411   6.982
 4353POPC   C4A57162  43.055  31.381   7.449
 4353POPC   C1B57163  43.148  31.941   6.284
 4353POPC   C2B57164  42.986  31.898   6.742
 4353POPC   C3B57165  42.958  31.856   7.232
 4353POPC   C4B57166  42.839  31.968   7.668
 4354POPC   NC357167   3.466  10.964   5.326
 4354POPC   PO457168   3.708  11.527   5.121
 4354POPC   GL157169   3.615  11.433   5.581
 4354POPC   GL257170   3.957  11.439   5.737
 4354POPC   C1A57171   3.478  11.268   6.011
 4354POPC   D2A57172   3.482  11.379   6.488
 4354POPC   C3A57173   3.277  11.285   6.914
 4354POPC   C4A57174   3.158  11.379   7.349
 4354POPC   C1B57175   3.924  11.450   6.186
 4354POPC   C2B57176   3.916  11.614   6.598
 4354POPC   C3B57177   3.779  11.381   6.939
 4354POPC   C4B57178   3.652  11.288   7.370
 4355POPC   NC357179   7.814   0.463   5.420
 4355POPC   PO457180   7.170   0.565   5.385
 4355POPC   GL157181   7.403   0.472   5.749
 4355POPC   GL257182   7.329   0.111   5.730
 4355POPC   C1A57183   7.510   0.634   6.153
 4355POPC   D2A57184   7.335   0.505   6.529
 4355POPC   C3A57185   7.503   0.695   6.861
 4355POPC   C4A57186   7.539   0.565   7.267
 4355POPC   C1B57187   7.587   0.100   6.108
 4355POPC   C2B57188   7.651   0.121   6.568
 4355POPC   C3B57189   7.444   0.159   6.944
 4355POPC   C4B57190   7.501   0.058   7.385
 4356POPC   NC357191  32.928  17.995   5.510
 4356POPC   PO457192  33.187  18.602   5.466
 4356POPC   GL157193  33.125  18.375   5.834
 4356POPC   GL257194  32.782  18.333   5.907
 4356POPC   C1A57195  33.156  18.492   6.265
 4356POPC   D2A57196  32.947  18.717   6.606
 4356POPC   C3A57197  32.980  18.508   7.020
 4356POPC   C4A57198  32.851  18.393   7.462
 4356POPC   C1B57199  32.906  18.004   6.214
 4356POPC   C2B57200  32.791  17.868   6.650
 4356POPC   C3B57201  32.810  18.034   7.084
 4356POPC   C4B57202  32.599  17.912   7.508
 4357POPC   NC357203  44.250  44.422   5.500
 4357POPC   PO457204  44.757  44.866   5.364
 4357POPC   GL157205  44.687  44.650   5.715
 4357POPC   GL257206  44.871  44.371   5.609
 4357POPC   C1A57207  44.494  44.653   6.106
 4357POPC   D2A57208  44.327  44.505   6.479
 4357POPC   C3A57209  44.445  44.749   6.808
 4357POPC   C4A57210  44.418  44.645   7.228
 4357POPC   C1B57211  44.964  44.345   6.047
 4357POPC   C2B57212  44.869  44.446   6.461
 4357POPC   C3B57213   0.104  44.472   6.843
 4357POPC   C4B57214  44.958  44.470   7.250
 4358POPC   NC357215  11.858   0.963   5.508
 4358POPC   PO457216  12.272   1.536   5.421
 4358POPC   GL157217  12.088   1.355   5.779
 4358POPC   GL257218  12.306   1.086   5.743
 4358POPC   C1A57219  11.779   1.231   6.135
 4358POPC   D2A57220  11.563   1.350   6.505
 4358POPC   C3A57221  11.914   1.196   6.789
 4358POPC   C4A57222  11.999   1.204   7.218
 4358POPC   C1B57223  12.297   1.051   6.172
 4358POPC   C2B57224  12.374   1.271   6.564
 4358POPC   C3B57225  12.443   1.105   6.982
 4358POPC   C4B57226  12.500   1.158   7.425
 4359POPC   NC357227  31.032  20.215   5.289
 4359POPC   PO457228  30.544  20.688   5.327
 4359POPC   GL157229  30.689  20.494   5.680
 4359POPC   GL257230  30.852  20.804   5.811
 4359POPC   C1A57231  30.703  20.396   6.118
 4359POPC   D2A57232  30.905  20.436   6.525
 4359POPC   C3A57233  30.788  20.710   6.864
 4359POPC   C4A57234  30.849  20.418   7.232
 4359POPC   C1B57235  30.729  20.881   6.257
 4359POPC   C2B57236  30.386  21.078   6.483
 4359POPC   C3B57237  30.372  21.065   6.927
 4359POPC   C4B57238  30.664  21.028   7.271
 4360POPC   NC357239  25.895  38.732   5.228
 4360POPC   PO457240  26.307  38.241   5.455
 4360POPC   GL157241  25.961  38.330   5.720
 4360POPC   GL257242  25.754  38.058   5.780
 4360POPC   C1A57243  25.939  38.479   6.154
 4360POPC   D2A57244  25.900  38.332   6.580
 4360POPC   C3A57245  26.098  38.509   6.940
 4360POPC   C4A57246  25.927  38.774   7.235
 4360POPC   C1B57247  25.617  37.988   6.197
 4360POPC   C2B57248  25.730  37.840   6.628
 4360POPC   C3B57249  25.843  38.057   7.014
 4360POPC   C4B57250  26.006  38.242   7.403
 4361POPC   NC357251  37.835  20.797   5.535
 4361POPC   PO457252  37.176  20.527   5.367
 4361POPC   GL157253  37.465  20.563   5.771
 4361POPC   GL257254  37.689  20.357   5.825
 4361POPC   C1A57255  37.793  20.652   6.196
 4361POPC   D2A57256  37.901  20.515   6.636
 4361POPC   C3A57257  37.767  20.731   7.004
 4361POPC   C4A57258  37.676  20.697   7.425
 4361POPC   C1B57259  37.472  20.241   6.174
 4361POPC   C2B57260  37.483  20.146   6.594
 4361POPC   C3B57261  37.452  20.286   7.011
 4361POPC   C4B57262  37.270  20.393   7.406
 4362POPC   NC357263  24.605  42.713   5.368
 4362POPC   PO457264  24.876  43.298   5.399
 4362POPC   GL157265  24.636  43.251   5.806
 4362POPC   GL257266  24.415  42.957   5.807
 4362POPC   C1A57267  24.654  43.103   6.248
 4362POPC   D2A57268  24.713  42.926   6.650
 4362POPC   C3A57269  24.716  43.268   6.958
 4362POPC   C4A57270  24.420  43.412   7.237
 4362POPC   C1B57271  24.200  42.859   6.193
 4362POPC   C2B57272  24.159  42.873   6.620
 4362POPC   C3B57273  24.333  42.938   7.024
 4362POPC   C4B57274  24.718  42.802   7.176
 4363POPC   NC357275  18.507  27.180   5.417
 4363POPC   PO457276  18.066  26.760   5.429
 4363POPC   GL157277  18.270  26.679   5.817
 4363POPC   GL257278  18.213  27.022   5.878
 4363POPC   C1A57279  18.206  26.727   6.278
 4363POPC   D2A57280  18.234  26.934   6.664
 4363POPC   C3A57281  18.282  26.693   7.056
 4363POPC   C4A57282  18.301  26.555   7.498
 4363POPC   C1B57283  17.939  27.146   6.276
 4363POPC   C2B57284  17.860  27.322   6.678
 4363POPC   C3B57285  18.039  27.156   7.068
 4363POPC   C4B57286  17.969  26.927   7.423
 4364POPC   NC357287  17.000  37.404   5.430
 4364POPC   PO457288  16.369  37.318   5.202
 4364POPC   GL157289  16.447  37.620   5.649
 4364POPC   GL257290  16.768  37.561   5.838
 4364POPC   C1A57291  16.472  37.785   6.161
 4364POPC   D2A57292  16.614  37.578   6.586
 4364POPC   C3A57293  16.842  37.823   6.876
 4364POPC   C4A57294  16.680  37.985   7.249
 4364POPC   C1B57295  16.971  37.606   6.245
 4364POPC   C2B57296  17.202  37.501   6.632
 4364POPC   C3B57297  17.141  37.487   7.085
 4364POPC   C4B57298  16.723  37.453   7.239
 4365POPC   NC357299   5.697  35.993   5.323
 4365POPC   PO457300   4.978  36.006   5.427
 4365POPC   GL157301   5.071  36.162   5.837
 4365POPC   GL257302   5.413  36.131   5.793
 4365POPC   C1A57303   5.037  36.283   6.291
 4365POPC   D2A57304   4.856  36.131   6.678
 4365POPC   C3A57305   4.910  36.224   7.103
 4365POPC   C4A57306   4.814  36.183   7.552
 4365POPC   C1B57307   5.329  35.870   6.191
 4365POPC   C2B57308   5.239  35.815   6.569
 4365POPC   C3B57309   5.413  35.788   6.941
 4365POPC   C4B57310   5.313  35.991   7.302
 4366POPC   NC357311  31.846  22.811   5.528
 4366POPC   PO457312  31.205  23.188   5.457
 4366POPC   GL157313  31.385  22.873   5.741
 4366POPC   GL257314  31.163  22.596   5.831
 4366POPC   C1A57315  31.507  22.766   6.168
 4366POPC   D2A57316  31.522  22.650   6.581
 4366POPC   C3A57317  31.815  22.939   6.756
 4366POPC   C4A57318  31.880  22.864   7.177
 4366POPC   C1B57319  31.048  22.979   6.113
 4366POPC   C2B57320  31.234  23.222   6.455
 4366POPC   C3B57321  31.290  23.032   6.873
 4366POPC   C4B57322  31.215  22.766   7.226
 4367POPC   NC357323  26.268  29.968   5.346
 4367POPC   PO457324  25.774  29.888   5.604
 4367POPC   GL157325  26.090  29.929   5.955
 4367POPC   GL257326  26.421  29.989   5.855
 4367POPC   C1A57327  26.281  30.073   6.381
 4367POPC   D2A57328  26.320  30.110   6.852
 4367POPC   C3A57329  25.966  29.942   7.120
 4367POPC   C4A57330  25.559  29.945   7.422
 4367POPC   C1B57331  26.523  29.676   6.184
 4367POPC   C2B57332  26.391  29.600   6.619
 4367POPC   C3B57333  26.476  29.670   7.039
 4367POPC   C4B57334  26.495  29.552   7.433
 4368POPC   NC357335   6.921   3.600   5.291
 4368POPC   PO457336   7.493   3.906   5.167
 4368POPC   GL157337   7.211   3.775   5.651
 4368POPC   GL257338   7.324   3.445   5.797
 4368POPC   C1A57339   7.293   3.781   6.173
 4368POPC   D2A57340   7.210   3.548   6.579
 4368POPC   C3A57341   7.470   3.563   6.954
 4368POPC   C4A57342   7.609   3.643   7.358
 4368POPC   C1B57343   7.104   3.235   6.170
 4368POPC   C2B57344   7.181   3.033   6.587
 4368POPC   C3B57345   7.197   3.139   7.018
 4368POPC   C4B57346   7.100   3.181   7.456
 4369POPC   NC357347  26.272   9.922   5.127
 4369POPC   PO457348  25.865   9.498   5.504
 4369POPC   GL157349  25.819   9.749   5.876
 4369POPC   GL257350  26.112   9.542   5.953
 4369POPC   C1A57351  26.000   9.926   6.265
 4369POPC   D2A57352  25.874  10.129   6.635
 4369POPC   C3A57353  26.012   9.965   7.025
 4369POPC   C4A57354  25.808   9.760   7.404
 4369POPC   C1B57355  25.801   9.455   6.273
 4369POPC   C2B57356  25.890   9.602   6.686
 4369POPC   C3B57357  26.072   9.476   7.063
 4369POPC   C4B57358  26.129   9.355   7.467
 4370POPC   NC357359  41.960  43.496   5.642
 4370POPC   PO457360  41.547  42.987   5.391
 4370POPC   GL157361  41.550  42.983   5.869
 4370POPC   GL257362  41.762  43.233   6.014
 4370POPC   C1A57363  41.341  43.067   6.272
 4370POPC   D2A57364  41.335  43.274   6.657
 4370POPC   C3A57365  41.263  43.028   6.988
 4370POPC   C4A57366  41.393  43.056   7.395
 4370POPC   C1B57367  41.897  43.555   6.294
 4370POPC   C2B57368  41.756  43.600   6.695
 4370POPC   C3B57369  41.653  43.377   7.074
 4370POPC   C4B57370  41.868  43.421   7.466
 4371POPC   NC357371  17.765  30.894   5.500
 4371POPC   PO457372  17.393  30.414   5.242
 4371POPC   GL157373  17.355  30.489   5.681
 4371POPC   GL257374  17.676  30.439   5.760
 4371POPC   C1A57375  17.221  30.646   6.120
 4371POPC   D2A57376  17.296  30.500   6.573
 4371POPC   C3A57377  17.258  30.825   6.875
 4371POPC   C4A57378  17.467  30.877   7.207
 4371POPC   C1B57379  17.630  30.355   6.184
 4371POPC   C2B57380  17.789  30.357   6.567
 4371POPC   C3B57381  17.759  30.587   6.912
 4371POPC   C4B57382  18.091  30.542   7.156
 4372POPC   NC357383  14.180  15.451   5.396
 4372POPC   PO457384  14.794  15.408   5.476
 4372POPC   GL157385  14.429  15.253   5.782
 4372POPC   GL257386  14.160  15.527   5.926
 4372POPC   C1A57387  14.202  15.060   6.143
 4372POPC   D2A57388  14.205  15.192   6.585
 4372POPC   C3A57389  14.076  15.048   7.021
 4372POPC   C4A57390  14.365  15.092   7.389
 4372POPC   C1B57391  13.940  15.623   6.363
 4372POPC   C2B57392  13.912  15.505   6.831
 4372POPC   C3B57393  14.285  15.511   7.109
 4372POPC   C4B57394  14.691  15.680   7.235
 4373POPC   NC357395   1.313  12.977   5.466
 4373POPC   PO457396   0.681  12.938   5.465
 4373POPC   GL157397   0.902  12.933   5.871
 4373POPC   GL257398   1.152  13.154   5.938
 4373POPC   C1A57399   1.123  12.687   6.219
 4373POPC   D2A57400   1.258  12.429   6.602
 4373POPC   C3A57401   1.322  12.694   6.958
 4373POPC   C4A57402   1.031  12.996   7.123
 4373POPC   C1B57403   1.540  13.186   6.157
 4373POPC   C2B57404   1.661  12.985   6.544
 4373POPC   C3B57405   1.622  13.151   6.928
 4373POPC   C4B57406   1.489  13.048   7.321
 4374POPC   NC357407   4.565  20.294   5.097
 4374POPC   PO457408   4.389  20.846   5.529
 4374POPC   GL157409   4.275  20.667   5.885
 4374POPC   GL257410   4.120  20.970   6.021
 4374POPC   C1A57411   4.368  20.491   6.263
 4374POPC   D2A57412   4.233  20.630   6.677
 4374POPC   C3A57413   4.356  20.426   7.076
 4374POPC   C4A57414   4.284  20.488   7.517
 4374POPC   C1B57415   4.541  21.005   6.164
 4374POPC   C2B57416   4.708  20.962   6.551
 4374POPC   C3B57417   4.622  20.824   6.924
 4374POPC   C4B57418   4.723  20.764   7.318
 4375POPC   NC357419  18.921  27.502   5.256
 4375POPC   PO457420  19.040  26.769   5.320
 4375POPC   GL157421  19.035  26.892   5.722
 4375POPC   GL257422  18.883  26.569   5.828
 4375POPC   C1A57423  19.213  26.858   6.140
 4375POPC   D2A57424  19.022  26.865   6.559
 4375POPC   C3A57425  19.234  26.959   6.943
 4375POPC   C4A57426  19.304  26.674   7.264
 4375POPC   C1B57427  18.679  26.878   6.105
 4375POPC   C2B57428  18.622  27.168   6.451
 4375POPC   C3B57429  18.676  27.057   6.900
 4375POPC   C4B57430  18.802  26.697   7.142
 4376POPC   NC357431   9.178  44.353   5.321
 4376POPC   PO457432   8.887  44.916   5.352
 4376POPC   GL157433   9.063  44.737   5.714
 4376POPC   GL257434   8.823  44.541   5.834
 4376POPC   C1A57435   9.189  44.797   6.169
 4376POPC   D2A57436   9.108  44.611   6.608
 4376POPC   C3A57437   9.252  44.806   6.975
 4376POPC   C4A57438   9.371  44.706   7.378
 4376POPC   C1B57439   8.700  44.673   6.242
 4376POPC   C2B57440   8.619  44.830   6.642
 4376POPC   C3B57441   8.751  44.704   7.035
 4376POPC   C4B57442   8.874  44.487   7.369
 4377POPC   NC357443  40.411   0.996   5.432
 4377POPC   PO457444  40.935   1.397   5.399
 4377POPC   GL157445  40.777   1.243   5.763
 4377POPC   GL257446  40.559   1.463   5.892
 4377POPC   C1A57447  40.942   1.211   6.187
 4377POPC   D2A57448  40.786   1.288   6.594
 4377POPC   C3A57449  40.940   1.255   6.993
 4377POPC   C4A57450  40.702   1.114   7.319
 4377POPC   C1B57451  40.514   1.757   6.225
 4377POPC   C2B57452  40.451   1.669   6.629
 4377POPC   C3B57453  40.443   1.434   6.987
 4377POPC   C4B57454  40.614   1.639   7.329
 4378POPC   NC357455  28.201  43.120   5.542
 4378POPC   PO457456  28.782  43.471   5.504
 4378POPC   GL157457  28.542  43.308   5.890
 4378POPC   GL257458  28.171  43.373   6.003
 4378POPC   C1A57459  28.437  42.936   6.188
 4378POPC   D2A57460  28.505  42.735   6.601
 4378POPC   C3A57461  28.210  42.756   6.976
 4378POPC   C4A57462  28.069  43.046   7.318
 4378POPC   C1B57463  28.410  43.406   6.378
 4378POPC   C2B57464  28.363  43.230   6.781
 4378POPC   C3B57465  28.495  43.337   7.189
 4378POPC   C4B57466  28.692  43.671   7.416
 4379POPC   NC357467  41.517  44.381   5.496
 4379POPC   PO457468  41.847  44.883   5.329
 4379POPC   GL157469  41.778  44.680   5.792
 4379POPC   GL257470  41.919  44.339   5.870
 4379POPC   C1A57471  41.468  44.548   6.149
 4379POPC   D2A57472  41.288  44.816   6.471
 4379POPC   C3A57473  41.507  44.738   6.886
 4379POPC   C4A57474  41.591  44.688   7.319
 4379POPC   C1B57475  41.938  44.469   6.321
 4379POPC   C2B57476  41.830  44.323   6.763
 4379POPC   C3B57477  41.790  44.243   7.231
 4379POPC   C4B57478  41.769  44.412   7.694
 4380POPC   NC357479  14.521  12.578   5.501
 4380POPC   PO457480  13.916  12.884   5.323
 4380POPC   GL157481  13.901  12.646   5.714
 4380POPC   GL257482  14.170  12.369   5.821
 4380POPC   C1A57483  14.051  12.760   6.125
 4380POPC   D2A57484  14.235  12.626   6.510
 4380POPC   C3A57485  14.148  12.859   6.867
 4380POPC   C4A57486  14.163  12.848   7.309
 4380POPC   C1B57487  14.533  12.397   6.150
 4380POPC   C2B57488  14.668  12.389   6.601
 4380POPC   C3B57489  14.438  12.379   7.020
 4380POPC   C4B57490  14.577  12.419   7.465
 4381POPC   NC357491  38.260  13.849   5.352
 4381POPC   PO457492  38.527  13.200   5.393
 4381POPC   GL157493  38.570  13.431   5.847
 4381POPC   GL257494  38.400  13.746   5.822
 4381POPC   C1A57495  38.451  13.620   6.309
 4381POPC   D2A57496  38.191  13.400   6.626
 4381POPC   C3A57497  38.354  13.297   7.014
 4381POPC   C4A57498  38.126  13.088   7.343
 4381POPC   C1B57499  38.252  14.054   6.103
 4381POPC   C2B57500  38.339  14.109   6.517
 4381POPC   C3B57501  38.405  13.808   6.830
 4381POPC   C4B57502  38.251  13.761   7.213
 4382POPC   NC357503   0.438   8.750   5.360
 4382POPC   PO457504   0.182   9.358   5.455
 4382POPC   GL157505   0.381   9.066   5.780
 4382POPC   GL257506   0.163   8.727   5.769
 4382POPC   C1A57507   0.627   9.006   6.197
 4382POPC   D2A57508   0.407   9.023   6.622
 4382POPC   C3A57509   0.644   8.882   7.001
 4382POPC   C4A57510   0.657   8.943   7.462
 4382POPC   C1B57511   0.387   8.573   6.110
 4382POPC   C2B57512   0.441   8.511   6.529
 4382POPC   C3B57513   0.224   8.600   6.905
 4382POPC   C4B57514   0.233   8.696   7.328
 4383POPC   NC357515   1.814  29.215   5.321
 4383POPC   PO457516   2.445  29.116   5.326
 4383POPC   GL157517   2.149  29.161   5.701
 4383POPC   GL257518   2.017  28.800   5.729
 4383POPC   C1A57519   1.794  29.157   6.022
 4383POPC   D2A57520   1.628  29.274   6.404
 4383POPC   C3A57521   1.798  29.128   6.784
 4383POPC   C4A57522   1.828  29.310   7.194
 4383POPC   C1B57523   2.203  28.885   6.164
 4383POPC   C2B57524   2.232  28.848   6.644
 4383POPC   C3B57525   2.224  29.007   7.090
 4383POPC   C4B57526   2.024  28.928   7.495
 4384POPC   NC357527  36.478   5.059   5.372
 4384POPC   PO457528  35.843   4.696   5.462
 4384POPC   GL157529  36.116   4.935   5.762
 4384POPC   GL257530  36.443   4.881   5.893
 4384POPC   C1A57531  36.081   5.191   6.159
 4384POPC   D2A57532  36.224   4.958   6.501
 4384POPC   C3A57533  36.051   4.942   6.889
 4384POPC   C4A57534  36.023   5.114   7.271
 4384POPC   C1B57535  36.557   5.307   6.057
 4384POPC   C2B57536  36.450   5.453   6.482
 4384POPC   C3B57537  36.483   5.263   6.886
 4384POPC   C4B57538  36.517   5.066   7.282
 4385POPC   NC357539  17.982  26.329   5.540
 4385POPC   PO457540  18.469  25.973   5.521
 4385POPC   GL157541  18.326  26.141   5.878
 4385POPC   GL257542  18.000  25.977   5.912
 4385POPC   C1A57543  18.544  26.374   6.163
 4385POPC   D2A57544  18.602  26.587   6.553
 4385POPC   C3A57545  18.529  26.292   6.826
 4385POPC   C4A57546  18.555  26.254   7.209
 4385POPC   C1B57547  17.989  26.280   6.252
 4385POPC   C2B57548  18.047  26.420   6.695
 4385POPC   C3B57549  18.061  26.194   7.129
 4385POPC   C4B57550  18.060  25.713   7.304
 4386POPC   NC357551   9.995  41.370   4.974
 4386POPC   PO457552   9.860  41.796   5.473
 4386POPC   GL157553   9.743  41.727   5.906
 4386POPC   GL257554   9.648  41.427   5.848
 4386POPC   C1A57555   9.723  41.537   6.364
 4386POPC   D2A57556   9.981  41.293   6.693
 4386POPC   C3A57557   9.989  41.599   7.036
 4386POPC   C4A57558   9.684  41.904   7.041
 4386POPC   C1B57559   9.387  41.222   6.108
 4386POPC   C2B57560   9.342  41.199   6.523
 4386POPC   C3B57561   9.442  41.479   6.847
 4386POPC   C4B57562   9.500  41.381   7.274
 4387POPC   NC357563  41.896   7.300   5.398
 4387POPC   PO457564  41.250   7.644   5.632
 4387POPC   GL157565  41.517   7.387   5.841
 4387POPC   GL257566  41.785   7.633   5.775
 4387POPC   C1A57567  41.502   7.224   6.290
 4387POPC   D2A57568  41.452   7.143   6.753
 4387POPC   C3A57569  41.671   7.305   7.117
 4387POPC   C4A57570  41.515   7.249   7.566
 4387POPC   C1B57571  41.683   7.730   6.191
 4387POPC   C2B57572  41.752   7.634   6.619
 4387POPC   C3B57573  41.568   7.815   6.961
 4387POPC   C4B57574  41.334   7.679   7.294
 4388POPC   NC357575   3.811   2.332   5.748
 4388POPC   PO457576   3.377   2.588   5.283
 4388POPC   GL157577   3.488   2.787   5.737
 4388POPC   GL257578   3.827   2.897   5.802
 4388POPC   C1A57579   3.295   2.855   6.185
 4388POPC   D2A57580   3.369   3.067   6.602
 4388POPC   C3A57581   3.369   2.883   7.000
 4388POPC   C4A57582   3.361   2.476   7.037
 4388POPC   C1B57583   3.788   2.832   6.268
 4388POPC   C2B57584   3.776   2.730   6.713
 4388POPC   C3B57585   3.859   2.864   7.134
 4388POPC   C4B57586   4.047   2.923   7.539
 4389POPC   NC357587  44.007  28.600   5.469
 4389POPC   PO457588  43.822  28.019   5.474
 4389POPC   GL157589  43.765  28.292   5.815
 4389POPC   GL257590  44.105  28.289   5.917
 4389POPC   C1A57591  43.760  28.453   6.242
 4389POPC   D2A57592  43.910  28.381   6.638
 4389POPC   C3A57593  43.905  28.647   6.980
 4389POPC   C4A57594  43.549  28.570   7.252
 4389POPC   C1B57595  44.091  28.034   6.302
 4389POPC   C2B57596  44.053  27.890   6.703
 4389POPC   C3B57597  44.160  28.165   7.028
 4389POPC   C4B57598  44.186  28.023   7.374
 4390POPC   NC357599  36.724  13.936   5.325
 4390POPC   PO457600  37.117  13.464   5.488
 4390POPC   GL157601  37.054  13.754   5.823
 4390POPC   GL257602  36.976  13.453   6.002
 4390POPC   C1A57603  36.931  13.871   6.270
 4390POPC   D2A57604  36.746  13.725   6.619
 4390POPC   C3A57605  36.853  13.943   7.008
 4390POPC   C4A57606  37.049  13.767   7.372
 4390POPC   C1B57607  36.679  13.235   6.253
 4390POPC   C2B57608  36.682  13.141   6.697
 4390POPC   C3B57609  36.797  13.424   7.027
 4390POPC   C4B57610  36.577  13.629   7.385
 4391POPC   NC357611   6.459  42.750   5.447
 4391POPC   PO457612   6.510  42.095   5.455
 4391POPC   GL157613   6.725  42.167   5.823
 4391POPC   GL257614   6.534  42.469   5.906
 4391POPC   C1A57615   6.914  42.175   6.238
 4391POPC   D2A57616   6.814  41.895   6.592
 4391POPC   C3A57617   6.535  42.126   6.863
 4391POPC   C4A57618   6.771  42.430   7.104
 4391POPC   C1B57619   6.452  42.397   6.348
 4391POPC   C2B57620   6.450  42.669   6.720
 4391POPC   C3B57621   6.400  42.751   7.128
 4391POPC   C4B57622   6.226  42.382   7.206
 4392POPC   NC357623  10.530  42.854   5.531
 4392POPC   PO457624  11.104  43.262   5.457
 4392POPC   GL157625  10.775  43.223   5.841
 4392POPC   GL257626  10.805  42.848   5.932
 4392POPC   C1A57627  10.442  43.312   6.202
 4392POPC   D2A57628  10.287  43.110   6.623
 4392POPC   C3A57629  10.372  43.375   6.997
 4392POPC   C4A57630  10.539  43.404   7.430
 4392POPC   C1B57631  10.580  42.832   6.292
 4392POPC   C2B57632  10.684  42.706   6.646
 4392POPC   C3B57633  10.645  42.928   6.957
 4392POPC   C4B57634  10.513  42.917   7.307
 4393POPC   NC357635  14.542  17.070   5.320
 4393POPC   PO457636  14.189  17.540   5.362
 4393POPC   GL157637  14.278  17.330   5.741
 4393POPC   GL257638  14.399  17.648   5.942
 4393POPC   C1A57639  14.240  17.238   6.191
 4393POPC   D2A57640  14.316  17.592   6.508
 4393POPC   C3A57641  14.500  17.461   6.882
 4393POPC   C4A57642  14.315  17.199   7.189
 4393POPC   C1B57643  14.587  17.962   6.257
 4393POPC   C2B57644  14.479  18.072   6.697
 4393POPC   C3B57645  14.370  17.881   7.103
 4393POPC   C4B57646  14.594  17.582   7.392
 4394POPC   NC357647  10.797  22.671   5.408
 4394POPC   PO457648  10.448  23.210   5.353
 4394POPC   GL157649  10.356  23.131   5.774
 4394POPC   GL257650  10.219  22.813   5.728
 4394POPC   C1A57651  10.265  23.242   6.195
 4394POPC   D2A57652  10.431  23.035   6.528
 4394POPC   C3A57653  10.266  23.102   6.919
 4394POPC   C4A57654  10.490  23.025   7.297
 4394POPC   C1B57655  10.499  22.695   6.053
 4394POPC   C2B57656  10.524  22.540   6.477
 4394POPC   C3B57657  10.548  22.666   6.907
 4394POPC   C4B57658  10.540  22.494   7.328
 4395POPC   NC357659  31.840  20.227   5.342
 4395POPC   PO457660  31.356  19.770   5.384
 4395POPC   GL157661  31.574  19.766   5.769
 4395POPC   GL257662  31.560  20.101   5.753
 4395POPC   C1A57663  31.466  19.808   6.222
 4395POPC   D2A57664  31.639  19.783   6.626
 4395POPC   C3A57665  31.406  19.716   6.985
 4395POPC   C4A57666  31.672  19.674   7.319
 4395POPC   C1B57667  31.547  20.306   6.144
 4395POPC   C2B57668  31.389  20.247   6.562
 4395POPC   C3B57669  31.548  20.204   6.971
 4395POPC   C4B57670  31.353  20.281   7.351
 4396POPC   NC357671  37.637  24.623   5.362
 4396POPC   PO457672  37.803  23.931   5.259
 4396POPC   GL157673  37.727  24.219   5.694
 4396POPC   GL257674  37.890  24.582   5.782
 4396POPC   C1A57675  37.557  24.401   6.109
 4396POPC   D2A57676  37.432  24.540   6.555
 4396POPC   C3A57677  37.707  24.603   6.931
 4396POPC   C4A57678  37.490  24.807   7.291
 4396POPC   C1B57679  38.050  24.650   6.176
 4396POPC   C2B57680  38.135  24.684   6.604
 4396POPC   C3B57681  38.255  24.839   6.988
 4396POPC   C4B57682  38.047  24.751   7.369
 4397POPC   NC357683   8.341   9.553   5.290
 4397POPC   PO457684   7.889  10.021   5.458
 4397POPC   GL157685   8.256   9.890   5.682
 4397POPC   GL257686   8.236   9.543   5.790
 4397POPC   C1A57687   8.474   9.916   6.074
 4397POPC   D2A57688   8.449   9.603   6.409
 4397POPC   C3A57689   8.346   9.704   6.833
 4397POPC   C4A57690   8.069  10.040   6.989
 4397POPC   C1B57691   7.992   9.728   6.137
 4397POPC   C2B57692   7.888   9.773   6.573
 4397POPC   C3B57693   7.889   9.522   6.976
 4397POPC   C4B57694   7.997   9.719   7.381
 4398POPC   NC357695  30.784  32.156   5.327
 4398POPC   PO457696  30.776  32.665   5.777
 4398POPC   GL157697  30.661  32.208   5.859
 4398POPC   GL257698  30.893  31.948   5.784
 4398POPC   C1A57699  30.637  32.120   6.303
 4398POPC   D2A57700  30.735  32.460   6.617
 4398POPC   C3A57701  30.621  32.413   7.048
 4398POPC   C4A57702  30.495  32.155   7.380
 4398POPC   C1B57703  31.109  32.160   6.104
 4398POPC   C2B57704  31.117  32.136   6.524
 4398POPC   C3B57705  30.964  32.050   6.899
 4398POPC   C4B57706  31.031  32.156   7.309
 4399POPC   NC357707  18.847  29.288   5.456
 4399POPC   PO457708  19.378  28.859   5.371
 4399POPC   GL157709  19.139  28.990   5.754
 4399POPC   GL257710  19.363  29.214   5.878
 4399POPC   C1A57711  18.866  28.850   6.158
 4399POPC   D2A57712  18.965  28.711   6.601
 4399POPC   C3A57713  18.704  28.840   6.960
 4399POPC   C4A57714  18.714  29.018   7.412
 4399POPC   C1B57715  19.249  29.137   6.337
 4399POPC   C2B57716  19.237  29.399   6.719
 4399POPC   C3B57717  19.053  29.195   7.063
 4399POPC   C4B57718  19.250  29.135   7.486
 4400POPC   NC357719  40.818  19.859   4.998
 4400POPC   PO457720  41.078  19.486   5.562
 4400POPC   GL157721  40.960  19.605   5.969
 4400POPC   GL257722  40.694  19.737   5.880
 4400POPC   C1A57723  41.092  19.955   6.265
 4400POPC   D2A57724  40.942  20.127   6.662
 4400POPC   C3A57725  40.769  19.769   6.817
 4400POPC   C4A57726  40.764  19.602   7.221
 4400POPC   C1B57727  40.575  19.755   6.294
 4400POPC   C2B57728  40.305  19.855   6.623
 4400POPC   C3B57729  40.418  20.150   6.908
 4400POPC   C4B57730  40.722  20.128   7.194
 4401POPC   NC357731  25.020  36.427   5.498
 4401POPC   PO457732  25.413  35.889   5.521
 4401POPC   GL157733  25.562  36.033   5.922
 4401POPC   GL257734  25.552  36.413   5.892
 4401POPC   C1A57735  25.486  36.127   6.367
 4401POPC   D2A57736  25.552  36.466   6.621
 4401POPC   C3A57737  25.539  36.346   7.029
 4401POPC   C4A57738  25.566  35.980   7.282
 4401POPC   C1B57739  25.164  36.438   6.149
 4401POPC   C2B57740  24.941  36.430   6.556
 4401POPC   C3B57741  25.018  36.415   6.986
 4401POPC   C4B57742  25.068  35.997   7.146
 4402POPC   NC357743   9.682   0.767   4.915
 4402POPC   PO457744   9.556   0.548   5.568
 4402POPC   GL157745   9.780   0.628   5.909
 4402POPC   GL257746  10.089   0.696   5.765
 4402POPC   C1A57747   9.789   0.453   6.332
 4402POPC   D2A57748   9.954   0.293   6.727
 4402POPC   C3A57749   9.681   0.364   7.081
 4402POPC   C4A57750   9.622   0.182   7.463
 4402POPC   C1B57751  10.184   0.784   6.201
 4402POPC   C2B57752   9.993   0.830   6.629
 4402POPC   C3B57753  10.071   0.679   7.056
 4402POPC   C4B57754   9.988   0.561   7.525
 4403POPC   NC357755  40.015  10.235   5.285
 4403POPC   PO457756  39.510  10.736   5.370
 4403POPC   GL157757  39.747  10.635   5.747
 4403POPC   GL257758  39.756  10.265   5.741
 4403POPC   C1A57759  40.064  10.683   6.109
 4403POPC   D2A57760  40.344  10.790   6.484
 4403POPC   C3A57761  40.098  10.731   6.874
 4403POPC   C4A57762  40.008  10.767   7.325
 4403POPC   C1B57763  39.889  10.143   6.151
 4403POPC   C2B57764  40.207  10.277   6.462
 4403POPC   C3B57765  40.223  10.218   6.897
 4403POPC   C4B57766  39.867  10.336   7.129
 4404POPC   NC357767   5.668  28.115   5.664
 4404POPC   PO457768   6.038  28.679   5.566
 4404POPC   GL157769   6.066  28.726   5.999
 4404POPC   GL257770   5.777  28.510   6.015
 4404POPC   C1A57771   6.109  28.449   6.389
 4404POPC   D2A57772   5.959  28.062   6.588
 4404POPC   C3A57773   6.125  28.158   6.928
 4404POPC   C4A57774   6.078  28.603   6.966
 4404POPC   C1B57775   5.554  28.202   6.292
 4404POPC   C2B57776   5.352  28.270   6.689
 4404POPC   C3B57777   5.630  28.265   7.028
 4404POPC   C4B57778   5.931  28.313   7.381
 4405POPC   NC357779  39.123  41.895   5.455
 4405POPC   PO457780  39.428  42.537   5.565
 4405POPC   GL157781  39.096  42.427   5.818
 4405POPC   GL257782  39.189  42.113   5.931
 4405POPC   C1A57783  39.004  42.584   6.219
 4405POPC   D2A57784  39.197  42.581   6.616
 4405POPC   C3A57785  39.025  42.497   7.000
 4405POPC   C4A57786  39.368  42.647   7.222
 4405POPC   C1B57787  39.436  42.257   6.295
 4405POPC   C2B57788  39.490  42.130   6.736
 4405POPC   C3B57789  39.365  42.134   7.189
 4405POPC   C4B57790  39.414  42.020   7.658
 4406POPC   NC357791  28.650  32.519   5.215
 4406POPC   PO457792  28.343  31.948   5.432
 4406POPC   GL157793  28.178  32.157   5.746
 4406POPC   GL257794  28.124  32.492   5.594
 4406POPC   C1A57795  28.225  32.100   6.193
 4406POPC   D2A57796  28.472  32.144   6.556
 4406POPC   C3A57797  28.199  32.131   6.884
 4406POPC   C4A57798  28.269  32.028   7.269
 4406POPC   C1B57799  28.272  32.575   6.042
 4406POPC   C2B57800  28.407  32.660   6.487
 4406POPC   C3B57801  28.524  32.532   6.921
 4406POPC   C4B57802  28.193  32.525   7.236
 4407POPC   NC357803   9.299  27.682   5.061
 4407POPC   PO457804   8.736  27.747   5.391
 4407POPC   GL157805   8.818  27.573   5.784
 4407POPC   GL257806   8.955  27.235   5.765
 4407POPC   C1A57807   8.829  27.556   6.210
 4407POPC   D2A57808   9.095  27.747   6.490
 4407POPC   C3A57809   8.914  27.650   6.865
 4407POPC   C4A57810   8.941  27.799   7.262
 4407POPC   C1B57811   9.122  27.082   6.161
 4407POPC   C2B57812   9.099  27.242   6.602
 4407POPC   C3B57813   9.288  27.338   7.046
 4407POPC   C4B57814   9.253  27.077   7.451
 4408POPC   NC357815   7.842   7.282   5.495
 4408POPC   PO457816   8.366   7.680   5.538
 4408POPC   GL157817   8.218   7.616   5.936
 4408POPC   GL257818   8.122   7.290   5.951
 4408POPC   C1A57819   8.333   7.555   6.375
 4408POPC   D2A57820   8.145   7.233   6.647
 4408POPC   C3A57821   8.110   7.422   7.044
 4408POPC   C4A57822   8.122   7.228   7.409
 4408POPC   C1B57823   8.522   7.155   6.131
 4408POPC   C2B57824   8.605   7.041   6.570
 4408POPC   C3B57825   8.556   7.173   7.026
 4408POPC   C4B57826   8.621   7.210   7.511
 4409POPC   NC357827  12.931  12.051   5.233
 4409POPC   PO457828  12.328  12.227   5.155
 4409POPC   GL157829  12.552  12.035   5.608
 4409POPC   GL257830  12.317  11.942   5.887
 4409POPC   C1A57831  12.807  12.134   6.013
 4409POPC   D2A57832  12.900  12.300   6.439
 4409POPC   C3A57833  13.034  12.111   6.851
 4409POPC   C4A57834  12.943  11.993   7.271
 4409POPC   C1B57835  12.431  12.034   6.323
 4409POPC   C2B57836  12.464  12.303   6.684
 4409POPC   C3B57837  12.464  12.070   7.038
 4409POPC   C4B57838  12.269  12.224   7.375
 4410POPC   NC357839   6.560  32.536   5.233
 4410POPC   PO457840   6.976  32.062   5.371
 4410POPC   GL157841   6.714  32.184   5.732
 4410POPC   GL257842   6.394  32.393   5.720
 4410POPC   C1A57843   6.836  32.164   6.178
 4410POPC   D2A57844   6.672  32.067   6.597
 4410POPC   C3A57845   6.753  32.322   6.946
 4410POPC   C4A57846   6.782  32.123   7.329
 4410POPC   C1B57847   6.293  32.593   6.155
 4410POPC   C2B57848   6.378  32.493   6.591
 4410POPC   C3B57849   6.325  32.624   7.002
 4410POPC   C4B57850   6.311  32.413   7.406
 4411POPC   NC357851   3.914  20.891   5.567
 4411POPC   PO457852   3.296  20.676   5.613
 4411POPC   GL157853   3.541  20.752   5.937
 4411POPC   GL257854   3.806  20.485   5.874
 4411POPC   C1A57855   3.368  20.588   6.341
 4411POPC   D2A57856   3.336  20.247   6.643
 4411POPC   C3A57857   3.393  20.421   7.043
 4411POPC   C4A57858   3.436  20.863   7.067
 4411POPC   C1B57859   3.875  20.631   6.293
 4411POPC   C2B57860   3.725  20.661   6.703
 4411POPC   C3B57861   3.880  20.614   7.101
 4411POPC   C4B57862   3.818  20.313   7.398
 4412POPC   NC357863   3.970  42.695   5.533
 4412POPC   PO457864   4.500  42.272   5.409
 4412POPC   GL157865   4.363  42.441   5.791
 4412POPC   GL257866   4.062  42.240   5.778
 4412POPC   C1A57867   4.271  42.340   6.238
 4412POPC   D2A57868   4.030  42.503   6.553
 4412POPC   C3A57869   4.247  42.379   6.896
 4412POPC   C4A57870   4.412  42.319   7.278
 4412POPC   C1B57871   4.325  41.915   5.993
 4412POPC   C2B57872   4.318  41.858   6.453
 4412POPC   C3B57873   4.357  41.881   6.897
 4412POPC   C4B57874   4.067  41.951   7.183
 4413POPC   NC357875   5.995  35.046   5.446
 4413POPC   PO457876   5.670  35.666   5.642
 4413POPC   GL157877   5.946  35.408   5.850
 4413POPC   GL257878   5.739  35.096   5.887
 4413POPC   C1A57879   5.986  35.496   6.274
 4413POPC   D2A57880   5.684  35.516   6.598
 4413POPC   C3A57881   5.909  35.583   6.995
 4413POPC   C4A57882   5.998  35.449   7.450
 4413POPC   C1B57883   5.804  35.000   6.322
 4413POPC   C2B57884   6.035  35.155   6.673
 4413POPC   C3B57885   5.934  35.073   7.088
 4413POPC   C4B57886   6.145  34.941   7.443
 4414POPC   NC357887   7.030  34.833   5.305
 4414POPC   PO457888   7.501  34.344   5.423
 4414POPC   GL157889   7.313  34.639   5.698
 4414POPC   GL257890   7.161  34.379   5.901
 4414POPC   C1A57891   7.319  34.921   6.062
 4414POPC   D2A57892   7.547  34.910   6.457
 4414POPC   C3A57893   7.385  34.818   6.887
 4414POPC   C4A57894   7.195  34.927   7.315
 4414POPC   C1B57895   7.576  34.455   6.116
 4414POPC   C2B57896   7.795  34.479   6.505
 4414POPC   C3B57897   7.687  34.367   6.902
 4414POPC   C4B57898   7.421  34.149   7.155
 4415POPC   NC357899  44.338  23.274   5.440
 4415POPC   PO457900  44.168  23.892   5.306
 4415POPC   GL157901  43.915  23.890   5.725
 4415POPC   GL257902  43.760  23.545   5.780
 4415POPC   C1A57903  44.099  23.890   6.171
 4415POPC   D2A57904  43.894  23.893   6.586
 4415POPC   C3A57905  43.931  23.644   6.947
 4415POPC   C4A57906  43.912  23.903   7.318
 4415POPC   C1B57907  43.641  23.668   6.208
 4415POPC   C2B57908  43.613  23.408   6.599
 4415POPC   C3B57909  43.380  23.314   6.981
 4415POPC   C4B57910  43.565  23.515   7.331
 4416POPC   NC357911  30.585  21.143   5.400
 4416POPC   PO457912  30.782  21.735   5.631
 4416POPC   GL157913  30.881  21.355   5.823
 4416POPC   GL257914  30.548  21.227   5.917
 4416POPC   C1A57915  31.060  21.257   6.222
 4416POPC   D2A57916  30.845  21.215   6.635
 4416POPC   C3A57917  31.066  21.149   6.972
 4416POPC   C4A57918  31.249  21.363   7.249
 4416POPC   C1B57919  30.623  21.518   6.266
 4416POPC   C2B57920  30.461  21.571   6.681
 4416POPC   C3B57921  30.583  21.515   7.098
 4416POPC   C4B57922  30.330  21.451   7.472
 4417POPC   NC357923  18.514  42.497   5.731
 4417POPC   PO457924  17.872  42.670   5.606
 4417POPC   GL157925  18.052  42.630   6.017
 4417POPC   GL257926  18.051  42.313   5.998
 4417POPC   C1A57927  18.420  42.552   6.338
 4417POPC   D2A57928  18.543  42.243   6.648
 4417POPC   C3A57929  18.490  42.432   7.063
 4417POPC   C4A57930  18.331  42.344   7.454
 4417POPC   C1B57931  18.113  42.135   6.382
 4417POPC   C2B57932  17.896  42.033   6.761
 4417POPC   C3B57933  18.001  42.006   7.230
 4417POPC   C4B57934  18.184  41.914   7.633
 4418POPC   NC357935  21.664   2.453   5.474
 4418POPC   PO457936  21.410   1.921   5.251
 4418POPC   GL157937  21.286   2.140   5.635
 4418POPC   GL257938  21.604   1.997   5.747
 4418POPC   C1A57939  21.349   2.302   6.108
 4418POPC   D2A57940  21.233   2.159   6.576
 4418POPC   C3A57941  21.452   2.166   7.011
 4418POPC   C4A57942  21.435   1.879   7.408
 4418POPC   C1B57943  21.698   1.928   6.187
 4418POPC   C2B57944  21.438   1.678   6.496
 4418POPC   C3B57945  21.252   1.677   6.920
 4418POPC   C4B57946  21.099   1.362   7.214
 4419POPC   NC357947   9.169  23.237   5.179
 4419POPC   PO457948   8.766  22.761   5.361
 4419POPC   GL157949   9.046  22.702   5.701
 4419POPC   GL257950   9.110  23.036   5.686
 4419POPC   C1A57951   9.055  22.738   6.142
 4419POPC   D2A57952   8.935  22.768   6.559
 4419POPC   C3A57953   9.042  22.547   6.941
 4419POPC   C4A57954   8.764  22.512   7.302
 4419POPC   C1B57955   8.896  23.225   6.074
 4419POPC   C2B57956   8.823  23.267   6.528
 4419POPC   C3B57957   9.085  23.109   6.915
 4419POPC   C4B57958   9.110  22.891   7.332
 4420POPC   NC357959  10.261   7.655   5.496
 4420POPC   PO457960  10.129   7.005   5.414
 4420POPC   GL157961  10.529   7.193   5.716
 4420POPC   GL257962  10.425   7.494   5.932
 4420POPC   C1A57963  10.733   7.173   6.169
 4420POPC   D2A57964  10.402   7.273   6.474
 4420POPC   C3A57965  10.453   7.413   6.900
 4420POPC   C4A57966  10.613   7.156   7.242
 4420POPC   C1B57967  10.523   7.766   6.271
 4420POPC   C2B57968  10.814   7.605   6.570
 4420POPC   C3B57969  10.944   7.441   6.957
 4420POPC   C4B57970  10.701   7.663   7.287
 4421POPC   NC357971  40.989   2.670   5.360
 4421POPC   PO457972  40.447   2.918   5.761
 4421POPC   GL157973  40.780   2.655   5.886
 4421POPC   GL257974  41.142   2.643   5.846
 4421POPC   C1A57975  40.887   2.637   6.325
 4421POPC   D2A57976  40.801   2.876   6.689
 4421POPC   C3A57977  40.770   2.793   7.152
 4421POPC   C4A57978  40.498   2.660   7.487
 4421POPC   C1B57979  41.204   2.995   6.138
 4421POPC   C2B57980  41.183   3.235   6.528
 4421POPC   C3B57981  41.124   3.121   6.984
 4421POPC   C4B57982  41.117   3.081   7.460
 4422POPC   NC357983  44.360  22.608   5.478
 4422POPC   PO457984  44.938  22.719   5.234
 4422POPC   GL157985  44.866  22.889   5.740
 4422POPC   GL257986  44.493  22.966   5.838
 4422POPC   C1A57987  44.831  23.154   6.167
 4422POPC   D2A57988  44.621  23.153   6.593
 4422POPC   C3A57989  44.813  23.096   6.992
 4422POPC   C4A57990   0.122  22.945   7.276
 4422POPC   C1B57991  44.339  22.857   6.284
 4422POPC   C2B57992  44.225  22.739   6.745
 4422POPC   C3B57993  44.350  22.899   7.165
 4422POPC   C4B57994  44.435  23.176   7.545
 4423POPC   NC357995   2.782  27.344   5.229
 4423POPC   PO457996   2.545  28.013   5.457
 4423POPC   GL157997   2.697  27.726   5.798
 4423POPC   GL257998   3.026  27.571   5.746
 4423POPC   C1A57999   2.655  27.729   6.264
 4423POPC   D2A58000   2.541  27.506   6.646
 4423POPC   C3A58001   2.697  27.622   7.020
 4423POPC   C4A58002   2.786  27.346   7.355
 4423POPC   C1B58003   3.153  27.646   6.200
 4423POPC   C2B58004   3.052  27.670   6.644
 4423POPC   C3B58005   3.200  27.531   7.064
 4423POPC   C4B58006   3.247  27.716   7.462
 4424POPC   NC358007  32.099  11.374   5.545
 4424POPC   PO458008  32.611  10.922   5.468
 4424POPC   GL158009  32.499  11.184   5.775
 4424POPC   GL258010  32.768  11.372   5.756
 4424POPC   C1A58011  32.240  11.252   6.180
 4424POPC   D2A58012  32.350  11.425   6.586
 4424POPC   C3A58013  32.205  11.190   6.935
 4424POPC   C4A58014  32.065  11.230   7.359
 4424POPC   C1B58015  32.751  11.168   6.197
 4424POPC   C2B58016  32.805  11.077   6.622
 4424POPC   C3B58017  32.799  11.230   6.993
 4424POPC   C4B58018  32.564  11.223   7.310
 4425POPC   NC358019  43.661   1.387   5.370
 4425POPC   PO458020  44.068   0.876   5.522
 4425POPC   GL158021  43.986   1.194   5.842
 4425POPC   GL258022  43.632   1.343   5.884
 4425POPC   C1A58023  43.908   1.109   6.285
 4425POPC   D2A58024  43.612   1.017   6.613
 4425POPC   C3A58025  43.824   1.069   6.995
 4425POPC   C4A58026  44.247   1.231   7.047
 4425POPC   C1B58027  43.427   1.432   6.295
 4425POPC   C2B58028  43.591   1.567   6.709
 4425POPC   C3B58029  43.784   1.581   7.126
 4425POPC   C4B58030  43.698   1.688   7.577
 4426POPC   NC358031  19.985  27.695   5.365
 4426POPC   PO458032  19.339  27.352   5.432
 4426POPC   GL158033  19.696  27.466   5.719
 4426POPC   GL258034  19.767  27.838   5.807
 4426POPC   C1A58035  19.853  27.469   6.143
 4426POPC   D2A58036  19.655  27.750   6.437
 4426POPC   C3A58037  19.585  27.544   6.814
 4426POPC   C4A58038  19.815  27.339   7.117
 4426POPC   C1B58039  20.047  27.960   6.143
 4426POPC   C2B58040  20.139  27.854   6.586
 4426POPC   C3B58041  19.910  27.930   6.937
 4426POPC   C4B58042  19.903  27.783   7.333
 4427POPC   NC358043  31.033  37.932   5.637
 4427POPC   PO458044  31.645  37.522   5.550
 4427POPC   GL158045  31.434  37.702   5.879
 4427POPC   GL258046  31.203  37.458   5.820
 4427POPC   C1A58047  31.294  37.892   6.283
 4427POPC   D2A58048  31.486  38.091   6.655
 4427POPC   C3A58049  31.622  37.831   7.005
 4427POPC   C4A58050  31.518  37.782   7.418
 4427POPC   C1B58051  31.212  37.400   6.263
 4427POPC   C2B58052  31.305  37.543   6.678
 4427POPC   C3B58053  31.171  37.619   7.090
 4427POPC   C4B58054  31.155  37.429   7.542
 4428POPC   NC358055  25.591  39.271   5.724
 4428POPC   PO458056  25.029  38.991   5.401
 4428POPC   GL158057  25.182  38.924   5.803
 4428POPC   GL258058  25.055  39.254   5.866
 4428POPC   C1A58059  25.317  38.954   6.264
 4428POPC   D2A58060  25.271  38.777   6.691
 4428POPC   C3A58061  25.436  38.971   7.086
 4428POPC   C4A58062  25.649  39.270   7.366
 4428POPC   C1B58063  24.996  39.341   6.296
 4428POPC   C2B58064  25.092  39.268   6.711
 4428POPC   C3B58065  24.897  39.463   7.033
 4428POPC   C4B58066  25.222  39.549   7.280
 4429POPC   NC358067  33.371   3.205   5.552
 4429POPC   PO458068  33.035   2.807   5.136
 4429POPC   GL158069  32.941   2.939   5.654
 4429POPC   GL258070  32.896   2.681   5.894
 4429POPC   C1A58071  33.118   3.037   6.146
 4429POPC   D2A58072  33.284   2.779   6.521
 4429POPC   C3A58073  33.150   2.846   6.949
 4429POPC   C4A58074  33.325   3.222   7.120
 4429POPC   C1B58075  32.684   2.492   6.231
 4429POPC   C2B58076  32.798   2.552   6.657
 4429POPC   C3B58077  32.756   2.386   7.036
 4429POPC   C4B58078  32.856   2.562   7.428
 4430POPC   NC358079   1.351  30.809   5.076
 4430POPC   PO458080   1.405  30.499   5.638
 4430POPC   GL158081   1.134  30.623   5.913
 4430POPC   GL258082   0.863  30.826   5.718
 4430POPC   C1A58083   1.325  30.826   6.265
 4430POPC   D2A58084   1.158  31.058   6.621
 4430POPC   C3A58085   1.189  30.817   7.004
 4430POPC   C4A58086   1.130  30.832   7.450
 4430POPC   C1B58087   0.833  30.919   6.186
 4430POPC   C2B58088   0.961  30.574   6.506
 4430POPC   C3B58089   0.920  30.384   6.916
 4430POPC   C4B58090   0.794  30.476   7.324
 4431POPC   NC358091  32.463  11.234   5.172
 4431POPC   PO458092  33.173  11.333   5.143
 4431POPC   GL158093  33.266  11.415   5.662
 4431POPC   GL258094  33.208  11.151   5.923
 4431POPC   C1A58095  33.077  11.593   6.126
 4431POPC   D2A58096  32.836  11.573   6.534
 4431POPC   C3A58097  32.629  11.702   6.935
 4431POPC   C4A58098  32.863  11.699   7.289
 4431POPC   C1B58099  33.233  11.160   6.375
 4431POPC   C2B58100  33.243  11.358   6.765
 4431POPC   C3B58101  33.260  11.368   7.186
 4431POPC   C4B58102  33.288  11.015   7.449
 4432POPC   NC358103  16.076   9.574   5.357
 4432POPC   PO458104  15.911  10.243   5.429
 4432POPC   GL158105  15.966  10.010   5.812
 4432POPC   GL258106  15.886   9.690   5.821
 4432POPC   C1A58107  15.751  10.011   6.226
 4432POPC   D2A58108  15.598   9.951   6.646
 4432POPC   C3A58109  15.911   9.883   6.982
 4432POPC   C4A58110  15.846  10.066   7.388
 4432POPC   C1B58111  16.202   9.734   6.156
 4432POPC   C2B58112  16.291   9.895   6.570
 4432POPC   C3B58113  16.498   9.639   6.875
 4432POPC   C4B58114  16.262   9.508   7.232
 4433POPC   NC358115  41.835  15.208   5.237
 4433POPC   PO458116  41.408  15.574   5.535
 4433POPC   GL158117  41.757  15.442   5.765
 4433POPC   GL258118  41.800  15.079   5.875
 4433POPC   C1A58119  41.648  15.453   6.211
 4433POPC   D2A58120  41.581  15.381   6.642
 4433POPC   C3A58121  41.741  15.587   7.016
 4433POPC   C4A58122  41.580  15.376   7.391
 4433POPC   C1B58123  41.510  14.944   6.221
 4433POPC   C2B58124  41.633  14.853   6.625
 4433POPC   C3B58125  41.660  15.031   7.021
 4433POPC   C4B58126  41.484  14.831   7.357
 4434POPC   NC358127  21.356   1.462   5.339
 4434POPC   PO458128  21.148   0.731   5.492
 4434POPC   GL158129  21.096   1.119   5.670
 4434POPC   GL258130  21.466   1.120   5.704
 4434POPC   C1A58131  21.152   1.237   6.103
 4434POPC   D2A58132  21.492   1.142   6.397
 4434POPC   C3A58133  21.380   1.179   6.813
 4434POPC   C4A58134  21.307   0.865   7.124
 4434POPC   C1B58135  21.608   1.455   5.990
 4434POPC   C2B58136  21.888   1.467   6.334
 4434POPC   C3B58137  21.819   1.494   6.789
 4434POPC   C4B58138  21.632   1.429   7.189
 4435POPC   NC358139  11.448  35.411   5.457
 4435POPC   PO458140  10.869  35.550   5.188
 4435POPC   GL158141  11.042  35.240   5.677
 4435POPC   GL258142  10.798  35.369   5.936
 4435POPC   C1A58143  11.322  35.358   6.108
 4435POPC   D2A58144  11.384  35.570   6.554
 4435POPC   C3A58145  11.558  35.308   6.906
 4435POPC   C4A58146  11.474  34.876   7.078
 4435POPC   C1B58147  10.687  35.162   6.319
 4435POPC   C2B58148  10.790  35.135   6.770
 4435POPC   C3B58149  11.088  35.286   7.074
 4435POPC   C4B58150  11.207  35.724   7.158
 4436POPC   NC358151   0.504   2.345   5.694
 4436POPC   PO458152   0.543   2.879   5.254
 4436POPC   GL158153   0.449   2.875   5.678
 4436POPC   GL258154   0.757   2.792   5.740
 4436POPC   C1A58155   0.423   2.923   6.155
 4436POPC   D2A58156   0.199   2.841   6.577
 4436POPC   C3A58157   0.284   2.516   6.891
 4436POPC   C4A58158   0.364   2.693   7.298
 4436POPC   C1B58159   0.875   2.642   6.143
 4436POPC   C2B58160   0.665   2.608   6.540
 4436POPC   C3B58161   0.691   2.860   6.926
 4436POPC   C4B58162   0.861   2.759   7.365
 4437POPC   NC358163   4.888  37.420   5.447
 4437POPC   PO458164   5.379  38.004   5.410
 4437POPC   GL158165   5.218  37.713   5.711
 4437POPC   GL258166   5.466  37.452   5.854
 4437POPC   C1A58167   5.023  37.615   6.116
 4437POPC   D2A58168   5.145  37.476   6.540
 4437POPC   C3A58169   5.055  37.779   6.887
 4437POPC   C4A58170   5.194  37.716   7.317
 4437POPC   C1B58171   5.509  37.824   6.109
 4437POPC   C2B58172   5.377  37.939   6.502
 4437POPC   C3B58173   5.537  37.711   6.829
 4437POPC   C4B58174   5.683  37.941   7.142
 4438POPC   NC358175  10.017  37.112   4.809
 4438POPC   PO458176   9.934  37.024   5.442
 4438POPC   GL158177   9.740  36.697   5.736
 4438POPC   GL258178   9.455  36.914   5.876
 4438POPC   C1A58179   9.530  36.481   6.111
 4438POPC   D2A58180   9.515  36.749   6.470
 4438POPC   C3A58181   9.626  36.545   6.845
 4438POPC   C4A58182   9.527  36.692   7.242
 4438POPC   C1B58183   9.860  36.992   6.138
 4438POPC   C2B58184  10.008  36.958   6.554
 4438POPC   C3B58185   9.941  36.960   6.994
 4438POPC   C4B58186   9.940  36.898   7.424
 4439POPC   NC358187  43.577  37.998   5.584
 4439POPC   PO458188  43.854  37.431   5.464
 4439POPC   GL158189  43.881  37.568   5.836
 4439POPC   GL258190  44.170  37.801   5.842
 4439POPC   C1A58191  43.708  37.762   6.203
 4439POPC   D2A58192  43.845  37.879   6.601
 4439POPC   C3A58193  43.542  37.820   6.913
 4439POPC   C4A58194  43.698  37.927   7.300
 4439POPC   C1B58195  44.170  37.545   6.239
 4439POPC   C2B58196  43.981  37.384   6.622
 4439POPC   C3B58197  44.011  37.592   7.032
 4439POPC   C4B58198  44.180  37.452   7.466
 4440POPC   NC358199  17.904  20.156   5.630
 4440POPC   PO458200  18.276  20.294   5.094
 4440POPC   GL158201  18.332  19.894   5.548
 4440POPC   GL258202  18.031  19.705   5.801
 4440POPC   C1A58203  18.431  19.853   6.037
 4440POPC   D2A58204  18.506  19.785   6.485
 4440POPC   C3A58205  18.405  19.958   6.918
 4440POPC   C4A58206  18.621  19.873   7.309
 4440POPC   C1B58207  17.982  19.668   6.296
 4440POPC   C2B58208  18.073  19.584   6.756
 4440POPC   C3B58209  17.847  19.484   7.173
 4440POPC   C4B58210  17.749  19.467   7.644
 4441POPC   NC358211   9.336  24.026   5.486
 4441POPC   PO458212  10.022  23.754   5.398
 4441POPC   GL158213   9.696  23.602   5.723
 4441POPC   GL258214   9.515  23.328   5.578
 4441POPC   C1A58215   9.733  23.596   6.209
 4441POPC   D2A58216   9.827  23.853   6.588
 4441POPC   C3A58217   9.639  23.887   7.011
 4441POPC   C4A58218   9.933  23.661   7.246
 4441POPC   C1B58219   9.393  23.282   6.006
 4441POPC   C2B58220   9.325  23.331   6.438
 4441POPC   C3B58221   9.539  23.442   6.799
 4441POPC   C4B58222   9.462  23.349   7.222
 4442POPC   NC358223   4.702   1.067   5.365
 4442POPC   PO458224   5.368   1.049   5.419
 4442POPC   GL158225   5.043   1.078   5.787
 4442POPC   GL258226   4.835   1.418   5.730
 4442POPC   C1A58227   5.029   0.941   6.270
 4442POPC   D2A58228   5.013   0.855   6.748
 4442POPC   C3A58229   5.284   1.093   7.023
 4442POPC   C4A58230   5.221   1.027   7.445
 4442POPC   C1B58231   5.002   1.462   6.165
 4442POPC   C2B58232   5.023   1.356   6.614
 4442POPC   C3B58233   4.814   1.292   7.022
 4442POPC   C4B58234   4.838   1.393   7.465
 4443POPC   NC358235  30.280  34.324   5.361
 4443POPC   PO458236  29.636  34.289   5.512
 4443POPC   GL158237  29.899  34.624   5.709
 4443POPC   GL258238  29.824  34.988   5.610
 4443POPC   C1A58239  30.018  34.587   6.164
 4443POPC   D2A58240  29.831  34.394   6.531
 4443POPC   C3A58241  29.996  34.444   6.952
 4443POPC   C4A58242  29.819  34.267   7.293
 4443POPC   C1B58243  29.686  34.977   6.076
 4443POPC   C2B58244  29.811  34.918   6.556
 4443POPC   C3B58245  29.890  34.981   7.027
 4443POPC   C4B58246  29.910  34.755   7.441
 4444POPC   NC358247   6.242  24.789   5.539
 4444POPC   PO458248   5.772  24.221   5.521
 4444POPC   GL158249   6.006  24.406   5.810
 4444POPC   GL258250   5.816  24.711   5.818
 4444POPC   C1A58251   5.976  24.463   6.248
 4444POPC   D2A58252   5.616  24.424   6.503
 4444POPC   C3A58253   5.749  24.445   6.907
 4444POPC   C4A58254   5.732  24.154   7.211
 4444POPC   C1B58255   5.643  24.880   6.185
 4444POPC   C2B58256   5.821  24.880   6.579
 4444POPC   C3B58257   5.675  24.945   6.976
 4444POPC   C4B58258   5.563  24.687   7.323
 4445POPC   NC358259  32.274  26.978   5.304
 4445POPC   PO458260  31.799  26.576   5.534
 4445POPC   GL158261  32.147  26.736   5.743
 4445POPC   GL258262  32.464  26.574   5.656
 4445POPC   C1A58263  32.154  26.817   6.166
 4445POPC   D2A58264  32.200  26.906   6.586
 4445POPC   C3A58265  31.881  26.944   6.908
 4445POPC   C4A58266  32.053  26.955   7.304
 4445POPC   C1B58267  32.465  26.428   6.087
 4445POPC   C2B58268  32.374  26.407   6.553
 4445POPC   C3B58269  32.305  26.609   6.988
 4445POPC   C4B58270  32.422  26.546   7.431
 4446POPC   NC358271  30.198  40.458   5.552
 4446POPC   PO458272  30.137  39.802   5.489
 4446POPC   GL158273  29.827  39.930   5.832
 4446POPC   GL258274  29.570  40.220   5.735
 4446POPC   C1A58275  29.862  39.863   6.298
 4446POPC   D2A58276  30.183  39.856   6.641
 4446POPC   C3A58277  30.061  39.913   7.075
 4446POPC   C4A58278  30.220  40.109   7.476
 4446POPC   C1B58279  29.783  40.358   6.124
 4446POPC   C2B58280  29.933  40.316   6.566
 4446POPC   C3B58281  29.727  40.453   6.938
 4446POPC   C4B58282  29.456  40.362   7.274
 4447POPC   NC358283  31.954   3.514   5.488
 4447POPC   PO458284  32.594   3.230   5.374
 4447POPC   GL158285  32.379   3.367   5.756
 4447POPC   GL258286  32.487   3.676   5.876
 4447POPC   C1A58287  32.219   3.316   6.213
 4447POPC   D2A58288  32.113   3.277   6.662
 4447POPC   C3A58289  32.331   3.504   6.988
 4447POPC   C4A58290  32.351   3.225   7.291
 4447POPC   C1B58291  32.228   3.828   6.228
 4447POPC   C2B58292  32.034   3.781   6.654
 4447POPC   C3B58293  32.047   3.927   7.100
 4447POPC   C4B58294  32.122   3.946   7.553
 4448POPC   NC358295  31.345  31.698   5.325
 4448POPC   PO458296  31.236  31.033   5.248
 4448POPC   GL158297  31.200  31.324   5.666
 4448POPC   GL258298  31.525  31.465   5.752
 4448POPC   C1A58299  31.160  31.624   6.083
 4448POPC   D2A58300  31.367  31.692   6.529
 4448POPC   C3A58301  31.197  31.589   6.971
 4448POPC   C4A58302  31.418  31.777   7.369
 4448POPC   C1B58303  31.673  31.490   6.183
 4448POPC   C2B58304  31.727  31.275   6.563
 4448POPC   C3B58305  31.683  31.439   6.988
 4448POPC   C4B58306  31.660  31.256   7.387
 4449POPC   NC358307  34.282  21.085   5.356
 4449POPC   PO458308  34.788  20.627   5.293
 4449POPC   GL158309  34.533  20.675   5.653
 4449POPC   GL258310  34.637  20.367   5.744
 4449POPC   C1A58311  34.353  20.663   6.100
 4449POPC   D2A58312  34.559  20.637   6.533
 4449POPC   C3A58313  34.380  20.621   6.947
 4449POPC   C4A58314  34.513  20.667   7.359
 4449POPC   C1B58315  34.791  20.370   6.141
 4449POPC   C2B58316  34.932  20.288   6.544
 4449POPC   C3B58317  34.897  20.486   6.936
 4449POPC   C4B58318  34.818  20.279   7.306
 4450POPC   NC358319   6.998  11.213   5.506
 4450POPC   PO458320   7.421  11.607   5.148
 4450POPC   GL158321   7.503  11.333   5.590
 4450POPC   GL258322   7.700  11.486   5.842
 4450POPC   C1A58323   7.484  11.119   6.080
 4450POPC   D2A58324   7.735  11.132   6.498
 4450POPC   C3A58325   7.530  11.168   6.944
 4450POPC   C4A58326   7.228  11.284   7.290
 4450POPC   C1B58327   7.607  11.684   6.249
 4450POPC   C2B58328   7.641  11.605   6.681
 4450POPC   C3B58329   7.550  11.661   7.095
 4450POPC   C4B58330   7.511  11.633   7.530
 4451POPC   NC358331   9.468   3.492   5.343
 4451POPC   PO458332   9.901   4.002   5.436
 4451POPC   GL158333   9.846   3.623   5.733
 4451POPC   GL258334   9.577   3.345   5.819
 4451POPC   C1A58335  10.052   3.420   6.102
 4451POPC   D2A58336  10.197   3.550   6.523
 4451POPC   C3A58337   9.857   3.511   6.832
 4451POPC   C4A58338   9.729   3.104   7.040
 4451POPC   C1B58339   9.554   3.334   6.274
 4451POPC   C2B58340   9.412   3.290   6.687
 4451POPC   C3B58341   9.326   3.587   7.007
 4451POPC   C4B58342   9.644   3.767   7.243
 4452POPC   NC358343  10.209  18.456   5.435
 4452POPC   PO458344  10.769  18.009   5.450
 4452POPC   GL158345  10.602  18.327   5.793
 4452POPC   GL258346  10.731  18.686   5.820
 4452POPC   C1A58347  10.419  18.517   6.225
 4452POPC   D2A58348  10.243  18.645   6.661
 4452POPC   C3A58349  10.423  18.422   7.027
 4452POPC   C4A58350  10.267  18.237   7.413
 4452POPC   C1B58351  10.933  18.445   6.183
 4452POPC   C2B58352  10.789  18.376   6.611
 4452POPC   C3B58353  10.916  18.252   7.027
 4452POPC   C4B58354  10.787  18.325   7.458
 4453POPC   NC358355  17.484  31.842   5.351
 4453POPC   PO458356  17.316  31.092   5.513
 4453POPC   GL158357  17.602  31.348   5.782
 4453POPC   GL258358  17.527  31.709   5.840
 4453POPC   C1A58359  17.643  31.425   6.235
 4453POPC   D2A58360  17.520  31.570   6.624
 4453POPC   C3A58361  17.616  31.236   6.879
 4453POPC   C4A58362  17.545  31.356   7.278
 4453POPC   C1B58363  17.309  31.884   6.209
 4453POPC   C2B58364  17.115  31.919   6.632
 4453POPC   C3B58365  17.308  31.883   7.041
 4453POPC   C4B58366  17.217  31.998   7.502
 4454POPC   NC358367  20.959  13.649   5.370
 4454POPC   PO458368  21.568  13.465   5.122
 4454POPC   GL158369  21.485  13.510   5.597
 4454POPC   GL258370  21.661  13.301   5.823
 4454POPC   C1A58371  21.300  13.647   6.037
 4454POPC   D2A58372  21.389  13.692   6.517
 4454POPC   C3A58373  21.140  13.696   6.917
 4454POPC   C4A58374  21.330  13.738   7.336
 4454POPC   C1B58375  21.717  13.422   6.216
 4454POPC   C2B58376  21.622  13.233   6.582
 4454POPC   C3B58377  21.599  13.431   6.974
 4454POPC   C4B58378  21.696  13.384   7.401
 4455POPC   NC358379  38.397  42.565   5.301
 4455POPC   PO458380  38.656  41.930   5.377
 4455POPC   GL158381  38.627  42.217   5.726
 4455POPC   GL258382  38.263  42.196   5.805
 4455POPC   C1A58383  38.611  42.259   6.189
 4455POPC   D2A58384  38.692  42.437   6.593
 4455POPC   C3A58385  38.483  42.400   6.935
 4455POPC   C4A58386  38.641  42.263   7.317
 4455POPC   C1B58387  38.199  41.969   6.223
 4455POPC   C2B58388  38.403  41.974   6.651
 4455POPC   C3B58389  38.218  42.012   7.103
 4455POPC   C4B58390  38.052  41.982   7.551
 4456POPC   NC358391  41.942  43.145   5.151
 4456POPC   PO458392  42.523  42.795   5.489
 4456POPC   GL158393  42.278  43.023   5.766
 4456POPC   GL258394  41.992  42.925   5.635
 4456POPC   C1A58395  42.253  43.182   6.185
 4456POPC   D2A58396  42.490  43.271   6.563
 4456POPC   C3A58397  42.555  43.019   6.932
 4456POPC   C4A58398  42.643  43.071   7.363
 4456POPC   C1B58399  41.945  42.772   6.096
 4456POPC   C2B58400  41.811  43.029   6.486
 4456POPC   C3B58401  42.062  43.178   6.852
 4456POPC   C4B58402  42.117  43.001   7.279
 4457POPC   NC358403  22.760  42.887   5.482
 4457POPC   PO458404  22.500  43.493   5.399
 4457POPC   GL158405  22.717  43.410   5.819
 4457POPC   GL258406  23.072  43.271   5.760
 4457POPC   C1A58407  22.946  43.538   6.204
 4457POPC   D2A58408  23.146  43.377   6.579
 4457POPC   C3A58409  22.944  43.418   6.984
 4457POPC   C4A58410  23.156  43.501   7.370
 4457POPC   C1B58411  22.989  43.007   6.115
 4457POPC   C2B58412  23.152  42.862   6.514
 4457POPC   C3B58413  23.138  42.935   6.952
 4457POPC   C4B58414  22.718  42.939   7.123
 4458POPC   NC358415  33.101  40.501   5.451
 4458POPC   PO458416  32.964  41.179   5.551
 4458POPC   GL158417  32.739  41.031   5.901
 4458POPC   GL258418  32.832  40.691   5.846
 4458POPC   C1A58419  32.803  40.900   6.357
 4458POPC   D2A58420  33.064  40.603   6.571
 4458POPC   C3A58421  33.038  40.682   7.012
 4458POPC   C4A58422  32.736  40.940   7.215
 4458POPC   C1B58423  33.213  40.864   6.073
 4458POPC   C2B58424  33.294  41.057   6.477
 4458POPC   C3B58425  33.471  40.890   6.862
 4458POPC   C4B58426  33.410  40.942   7.325
 4459POPC   NC358427  12.968   9.553   5.341
 4459POPC   PO458428  12.922   8.833   5.367
 4459POPC   GL158429  12.701   8.823   5.743
 4459POPC   GL258430  12.785   8.516   5.871
 4459POPC   C1A58431  12.602   8.926   6.158
 4459POPC   D2A58432  12.759   8.636   6.457
 4459POPC   C3A58433  12.808   8.830   6.881
 4459POPC   C4A58434  12.977   8.662   7.246
 4459POPC   C1B58435  13.101   8.780   6.090
 4459POPC   C2B58436  13.183   8.935   6.522
 4459POPC   C3B58437  13.312   8.911   6.964
 4459POPC   C4B58438  13.123   9.146   7.330
 4460POPC   NC358439  27.044  16.129   5.281
 4460POPC   PO458440  26.607  15.701   5.503
 4460POPC   GL158441  26.992  15.578   5.734
 4460POPC   GL258442  27.070  15.932   5.768
 4460POPC   C1A58443  27.097  15.552   6.162
 4460POPC   D2A58444  26.779  15.682   6.480
 4460POPC   C3A58445  26.937  15.728   6.899
 4460POPC   C4A58446  27.097  15.815   7.308
 4460POPC   C1B58447  27.079  16.070   6.203
 4460POPC   C2B58448  26.922  16.159   6.621
 4460POPC   C3B58449  27.067  16.274   7.026
 4460POPC   C4B58450  27.421  16.262   7.236
 4461POPC   NC358451  10.435  31.707   5.149
 4461POPC   PO458452  10.711  31.293   5.509
 4461POPC   GL158453  10.388  31.453   5.737
 4461POPC   GL258454  10.349  31.140   5.895
 4461POPC   C1A58455  10.266  31.589   6.156
 4461POPC   D2A58456  10.605  31.586   6.479
 4461POPC   C3A58457  10.477  31.645   6.897
 4461POPC   C4A58458  10.196  31.574   7.209
 4461POPC   C1B58459  10.435  31.139   6.310
 4461POPC   C2B58460  10.479  30.891   6.629
 4461POPC   C3B58461  10.426  31.120   6.970
 4461POPC   C4B58462  10.302  31.090   7.376
 4462POPC   NC358463  21.634  10.627   5.482
 4462POPC   PO458464  21.210  10.116   5.280
 4462POPC   GL158465  21.234  10.352   5.717
 4462POPC   GL258466  21.532  10.454   5.929
 4462POPC   C1A58467  21.093  10.410   6.183
 4462POPC   D2A58468  21.320  10.473   6.579
 4462POPC   C3A58469  21.207  10.736   6.915
 4462POPC   C4A58470  21.094  10.578   7.269
 4462POPC   C1B58471  21.459  10.793   6.211
 4462POPC   C2B58472  21.620  10.898   6.626
 4462POPC   C3B58473  21.691  10.588   6.936
 4462POPC   C4B58474  21.597  10.742   7.296
 4463POPC   NC358475  38.147  18.197   5.598
 4463POPC   PO458476  38.653  18.142   5.167
 4463POPC   GL158477  38.705  18.273   5.613
 4463POPC   GL258478  38.579  17.981   5.781
 4463POPC   C1A58479  38.735  18.341   6.117
 4463POPC   D2A58480  38.803  18.371   6.600
 4463POPC   C3A58481  38.453  18.357   6.888
 4463POPC   C4A58482  38.457  18.314   7.316
 4463POPC   C1B58483  38.360  17.927   6.166
 4463POPC   C2B58484  38.513  17.935   6.565
 4463POPC   C3B58485  38.370  17.864   6.967
 4463POPC   C4B58486  38.039  18.077   7.151
 4464POPC   NC358487  33.869  33.002   5.366
 4464POPC   PO458488  33.406  32.548   5.450
 4464POPC   GL158489  33.577  32.908   5.787
 4464POPC   GL258490  33.797  33.243   5.805
 4464POPC   C1A58491  33.826  32.983   6.220
 4464POPC   D2A58492  33.979  33.250   6.592
 4464POPC   C3A58493  33.796  33.029   6.963
 4464POPC   C4A58494  33.973  32.872   7.369
 4464POPC   C1B58495  33.781  33.507   6.178
 4464POPC   C2B58496  33.681  33.683   6.565
 4464POPC   C3B58497  33.732  33.530   6.984
 4464POPC   C4B58498  33.956  33.402   7.352
 4465POPC   NC358499   2.435   3.980   5.378
 4465POPC   PO458500   3.068   4.150   5.236
 4465POPC   GL158501   2.929   4.061   5.710
 4465POPC   GL258502   3.082   4.307   5.884
 4465POPC   C1A58503   2.715   4.159   6.200
 4465POPC   D2A58504   2.502   4.008   6.648
 4465POPC   C3A58505   2.610   4.218   7.038
 4465POPC   C4A58506   2.596   4.478   7.443
 4465POPC   C1B58507   3.226   4.472   6.280
 4465POPC   C2B58508   3.042   4.350   6.677
 4465POPC   C3B58509   3.049   4.451   7.108
 4465POPC   C4B58510   3.044   4.260   7.496
 4466POPC   NC358511   9.871  12.150   5.332
 4466POPC   PO458512   9.269  12.043   5.496
 4466POPC   GL158513   9.550  12.170   5.765
 4466POPC   GL258514   9.878  12.010   5.827
 4466POPC   C1A58515   9.638  12.336   6.156
 4466POPC   D2A58516   9.753  12.224   6.540
 4466POPC   C3A58517   9.522  12.092   6.857
 4466POPC   C4A58518   9.775  12.207   7.203
 4466POPC   C1B58519   9.634  11.750   6.038
 4466POPC   C2B58520   9.542  11.755   6.440
 4466POPC   C3B58521   9.716  11.571   6.777
 4466POPC   C4B58522   9.644  11.704   7.180
 4467POPC   NC358523  34.949   9.785   5.419
 4467POPC   PO458524  34.257   9.529   5.338
 4467POPC   GL158525  34.390   9.648   5.779
 4467POPC   GL258526  34.714   9.537   5.796
 4467POPC   C1A58527  34.469   9.585   6.255
 4467POPC   D2A58528  34.521   9.633   6.687
 4467POPC   C3A58529  34.617   9.965   6.973
 4467POPC   C4A58530  34.436   9.727   7.288
 4467POPC   C1B58531  34.862   9.843   6.100
 4467POPC   C2B58532  34.898   9.906   6.522
 4467POPC   C3B58533  35.024   9.701   6.908
 4467POPC   C4B58534  34.969   9.835   7.348
 4468POPC   NC358535  44.010   8.988   5.417
 4468POPC   PO458536  43.454   9.270   5.348
 4468POPC   GL158537  43.627   9.043   5.763
 4468POPC   GL258538  43.981   9.138   5.919
 4468POPC   C1A58539  43.757   8.770   6.161
 4468POPC   D2A58540  44.078   8.763   6.533
 4468POPC   C3A58541  43.932   8.916   6.945
 4468POPC   C4A58542  43.579   8.944   7.213
 4468POPC   C1B58543  43.664   9.359   6.178
 4468POPC   C2B58544  43.437   9.452   6.580
 4468POPC   C3B58545  43.647   9.426   6.980
 4468POPC   C4B58546  44.055   9.386   7.172
 4469POPC   NC358547  35.745   5.221   5.589
 4469POPC   PO458548  35.172   5.429   5.351
 4469POPC   GL158549  35.196   5.078   5.743
 4469POPC   GL258550  35.467   4.820   5.797
 4469POPC   C1A58551  35.247   5.081   6.241
 4469POPC   D2A58552  35.272   5.456   6.538
 4469POPC   C3A58553  35.133   5.404   6.974
 4469POPC   C4A58554  35.146   4.985   7.174
 4469POPC   C1B58555  35.719   4.840   6.196
 4469POPC   C2B58556  35.707   5.140   6.545
 4469POPC   C3B58557  35.592   5.168   6.979
 4469POPC   C4B58558  35.634   4.805   7.265
 4470POPC   NC358559  20.672  28.614   5.441
 4470POPC   PO458560  20.304  28.044   5.401
 4470POPC   GL158561  20.478  28.138   5.813
 4470POPC   GL258562  20.454  28.498   5.893
 4470POPC   C1A58563  20.502  28.135   6.289
 4470POPC   D2A58564  20.290  28.337   6.658
 4470POPC   C3A58565  20.325  28.207   7.097
 4470POPC   C4A58566  20.455  28.336   7.519
 4470POPC   C1B58567  20.551  28.646   6.321
 4470POPC   C2B58568  20.463  28.818   6.744
 4470POPC   C3B58569  20.528  28.736   7.189
 4470POPC   C4B58570  20.491  28.879   7.620
 4471POPC   NC358571  41.376  36.834   5.454
 4471POPC   PO458572  42.010  36.591   5.577
 4471POPC   GL158573  41.750  36.901   5.810
 4471POPC   GL258574  41.898  37.191   5.941
 4471POPC   C1A58575  41.411  36.944   6.098
 4471POPC   D2A58576  41.298  37.052   6.507
 4471POPC   C3A58577  41.515  36.874   6.820
 4471POPC   C4A58578  41.404  37.026   7.208
 4471POPC   C1B58579  41.835  37.108   6.389
 4471POPC   C2B58580  41.998  37.135   6.809
 4471POPC   C3B58581  41.893  36.890   7.181
 4471POPC   C4B58582  41.945  37.040   7.602
 4472POPC   NC358583  31.929  21.148   5.720
 4472POPC   PO458584  31.504  21.445   5.369
 4472POPC   GL158585  31.419  21.406   5.802
 4472POPC   GL258586  31.323  21.067   5.816
 4472POPC   C1A58587  31.490  21.576   6.215
 4472POPC   D2A58588  31.352  21.420   6.608
 4472POPC   C3A58589  31.442  21.717   6.934
 4472POPC   C4A58590  31.714  21.550   7.250
 4472POPC   C1B58591  31.542  21.061   6.212
 4472POPC   C2B58592  31.779  21.028   6.567
 4472POPC   C3B58593  31.601  21.120   6.955
 4472POPC   C4B58594  31.606  21.016   7.369
 4473POPC   NC358595  13.410   8.798   5.420
 4473POPC   PO458596  13.714   9.440   5.439
 4473POPC   GL158597  13.505   9.194   5.773
 4473POPC   GL258598  13.127   9.151   5.724
 4473POPC   C1A58599  13.578   8.950   6.174
 4473POPC   D2A58600  13.659   8.762   6.597
 4473POPC   C3A58601  13.818   8.952   6.993
 4473POPC   C4A58602  13.819   8.745   7.385
 4473POPC   C1B58603  13.199   9.305   6.166
 4473POPC   C2B58604  13.478   9.371   6.553
 4473POPC   C3B58605  13.490   9.390   7.017
 4473POPC   C4B58606  13.629   9.200   7.417
 4474POPC   NC358607  42.230  30.415   5.439
 4474POPC   PO458608  42.622  30.996   5.252
 4474POPC   GL158609  42.529  30.809   5.656
 4474POPC   GL258610  42.271  31.019   5.780
 4474POPC   C1A58611  42.621  30.701   6.103
 4474POPC   D2A58612  42.487  30.480   6.485
 4474POPC   C3A58613  42.639  30.625   6.887
 4474POPC   C4A58614  42.461  30.589   7.245
 4474POPC   C1B58615  42.104  30.741   6.070
 4474POPC   C2B58616  42.068  30.774   6.494
 4474POPC   C3B58617  42.132  30.768   6.915
 4474POPC   C4B58618  41.918  30.506   7.216
 4475POPC   NC358619   2.073  34.291   5.233
 4475POPC   PO458620   1.980  35.012   5.410
 4475POPC   GL158621   1.987  34.638   5.727
 4475POPC   GL258622   2.225  34.347   5.732
 4475POPC   C1A58623   1.865  34.373   6.114
 4475POPC   D2A58624   1.968  34.484   6.533
 4475POPC   C3A58625   1.751  34.513   6.926
 4475POPC   C4A58626   1.866  34.927   7.159
 4475POPC   C1B58627   2.369  34.243   6.153
 4475POPC   C2B58628   2.358  34.189   6.558
 4475POPC   C3B58629   2.128  34.130   6.899
 4475POPC   C4B58630   2.058  34.317   7.280
 4476POPC   NC358631  23.617  41.637   5.397
 4476POPC   PO458632  22.969  41.596   5.461
 4476POPC   GL158633  23.233  41.707   5.789
 4476POPC   GL258634  22.960  41.545   5.986
 4476POPC   C1A58635  23.265  41.842   6.238
 4476POPC   D2A58636  23.241  41.895   6.686
 4476POPC   C3A58637  23.041  41.602   6.971
 4476POPC   C4A58638  23.206  41.575   7.381
 4476POPC   C1B58639  22.859  41.610   6.436
 4476POPC   C2B58640  22.556  41.576   6.758
 4476POPC   C3B58641  22.534  41.702   7.180
 4476POPC   C4B58642  22.663  41.690   7.621
 4477POPC   NC358643  22.950  43.653   5.445
 4477POPC   PO458644  22.836  44.329   5.559
 4477POPC   GL158645  22.851  43.984   5.889
 4477POPC   GL258646  23.199  43.810   5.867
 4477POPC   C1A58647  22.723  44.037   6.347
 4477POPC   D2A58648  22.349  43.986   6.627
 4477POPC   C3A58649  22.556  43.838   6.985
 4477POPC   C4A58650  22.955  43.909   7.131
 4477POPC   C1B58651  23.217  44.122   6.229
 4477POPC   C2B58652  23.104  44.232   6.677
 4477POPC   C3B58653  23.329  44.231   7.084
 4477POPC   C4B58654  23.260  43.990   7.531
 4478POPC   NC358655   5.646   6.389   5.487
 4478POPC   PO458656   6.081   6.996   5.473
 4478POPC   GL158657   6.019   6.736   5.831
 4478POPC   GL258658   5.675   6.780   5.876
 4478POPC   C1A58659   6.003   6.728   6.301
 4478POPC   D2A58660   5.681   6.692   6.638
 4478POPC   C3A58661   5.870   6.576   7.002
 4478POPC   C4A58662   5.969   6.964   7.164
 4478POPC   C1B58663   5.465   6.544   6.196
 4478POPC   C2B58664   5.235   6.412   6.587
 4478POPC   C3B58665   5.377   6.233   6.975
 4478POPC   C4B58666   5.617   6.325   7.356
 4479POPC   NC358667   0.960  11.061   5.077
 4479POPC   PO458668   1.302  11.534   5.524
 4479POPC   GL158669   1.339  11.336   5.959
 4479POPC   GL258670   1.505  11.538   6.208
 4479POPC   C1A58671   1.193  11.155   6.363
 4479POPC   D2A58672   0.910  11.410   6.603
 4479POPC   C3A58673   1.010  11.425   7.022
 4479POPC   C4A58674   1.082  11.049   7.293
 4479POPC   C1B58675   1.711  11.116   6.220
 4479POPC   C2B58676   1.645  10.884   6.602
 4479POPC   C3B58677   1.433  11.165   6.915
 4479POPC   C4B58678   1.416  11.436   7.317
 4480POPC   NC358679  26.246  41.573   5.270
 4480POPC   PO458680  25.698  41.863   5.519
 4480POPC   GL158681  26.023  41.682   5.756
 4480POPC   GL258682  25.996  41.323   5.784
 4480POPC   C1A58683  26.145  41.689   6.199
 4480POPC   D2A58684  25.860  41.853   6.557
 4480POPC   C3A58685  25.951  41.712   6.960
 4480POPC   C4A58686  26.263  41.587   7.262
 4480POPC   C1B58687  26.205  41.194   6.181
 4480POPC   C2B58688  26.121  41.366   6.593
 4480POPC   C3B58689  26.059  41.206   6.992
 4480POPC   C4B58690  26.334  41.068   7.313
 4481POPC   NC358691  23.491   3.957   5.432
 4481POPC   PO458692  23.955   4.474   5.423
 4481POPC   GL158693  23.915   4.136   5.800
 4481POPC   GL258694  23.557   4.069   5.922
 4481POPC   C1A58695  23.929   4.170   6.276
 4481POPC   D2A58696  23.719   4.471   6.582
 4481POPC   C3A58697  23.789   4.408   7.025
 4481POPC   C4A58698  23.598   4.698   7.347
 4481POPC   C1B58699  23.428   4.105   6.342
 4481POPC   C2B58700  23.619   3.978   6.697
 4481POPC   C3B58701  23.374   4.107   7.016
 4481POPC   C4B58702  23.275   4.321   7.364
 4482POPC   NC358703  12.492   9.190   5.474
 4482POPC   PO458704  11.840   9.041   5.604
 4482POPC   GL158705  12.142   8.905   5.901
 4482POPC   GL258706  12.261   8.570   5.866
 4482POPC   C1A58707  12.085   9.056   6.316
 4482POPC   D2A58708  11.799   9.283   6.617
 4482POPC   C3A58709  11.949   9.226   7.041
 4482POPC   C4A58710  11.849   8.949   7.354
 4482POPC   C1B58711  12.274   8.564   6.317
 4482POPC   C2B58712  12.327   8.795   6.712
 4482POPC   C3B58713  12.337   8.886   7.162
 4482POPC   C4B58714  12.318   8.843   7.618
 4483POPC   NC358715  39.800  12.814   5.478
 4483POPC   PO458716  40.292  13.121   5.730
 4483POPC   GL158717  40.009  12.922   5.971
 4483POPC   GL258718  39.945  12.555   5.907
 4483POPC   C1A58719  40.036  13.087   6.388
 4483POPC   D2A58720  40.212  12.899   6.720
 4483POPC   C3A58721  39.920  12.655   6.953
 4483POPC   C4A58722  39.806  12.736   7.366
 4483POPC   C1B58723  39.974  12.564   6.369
 4483POPC   C2B58724  40.268  12.393   6.666
 4483POPC   C3B58725  40.263  12.274   7.035
 4483POPC   C4B58726  40.275  12.529   7.432
 4484POPC   NC358727  28.796  21.444   5.601
 4484POPC   PO458728  29.421  21.168   5.575
 4484POPC   GL158729  29.225  21.408   5.908
 4484POPC   GL258730  29.291  21.763   5.923
 4484POPC   C1A58731  29.128  21.338   6.342
 4484POPC   D2A58732  29.321  21.152   6.683
 4484POPC   C3A58733  29.044  21.136   6.973
 4484POPC   C4A58734  28.682  21.176   7.170
 4484POPC   C1B58735  29.259  21.832   6.386
 4484POPC   C2B58736  29.009  21.683   6.747
 4484POPC   C3B58737  29.005  21.596   7.189
 4484POPC   C4B58738  29.296  21.667   7.573
 4485POPC   NC358739  32.511  14.560   5.564
 4485POPC   PO458740  31.861  14.320   5.312
 4485POPC   GL158741  32.027  14.310   5.769
 4485POPC   GL258742  32.373  14.181   5.872
 4485POPC   C1A58743  32.105  14.496   6.216
 4485POPC   D2A58744  31.952  14.358   6.608
 4485POPC   C3A58745  32.078  14.566   6.969
 4485POPC   C4A58746  32.222  14.615   7.395
 4485POPC   C1B58747  32.608  14.402   6.211
 4485POPC   C2B58748  32.522  14.473   6.658
 4485POPC   C3B58749  32.579  14.436   7.104
 4485POPC   C4B58750  32.762  14.510   7.507
 4486POPC   NC358751  12.591  21.058   5.404
 4486POPC   PO458752  12.836  21.703   5.498
 4486POPC   GL158753  12.727  21.367   5.794
 4486POPC   GL258754  12.998  21.113   5.837
 4486POPC   C1A58755  12.631  21.242   6.230
 4486POPC   D2A58756  12.748  21.047   6.631
 4486POPC   C3A58757  12.818  21.252   7.016
 4486POPC   C4A58758  12.767  21.504   7.387
 4486POPC   C1B58759  13.143  21.045   6.297
 4486POPC   C2B58760  13.193  20.809   6.680
 4486POPC   C3B58761  13.220  20.963   7.116
 4486POPC   C4B58762  13.216  21.267   7.473
 4487POPC   NC358763   3.294  40.281   5.181
 4487POPC   PO458764   3.621  40.819   5.479
 4487POPC   GL158765   3.664  40.673   5.796
 4487POPC   GL258766   3.886  40.391   5.706
 4487POPC   C1A58767   3.409  40.788   6.164
 4487POPC   D2A58768   3.460  41.094   6.468
 4487POPC   C3A58769   3.425  40.906   6.842
 4487POPC   C4A58770   3.566  40.601   7.109
 4487POPC   C1B58771   3.760  40.389   6.170
 4487POPC   C2B58772   3.707  40.578   6.549
 4487POPC   C3B58773   3.997  40.520   6.857
 4487POPC   C4B58774   3.981  40.364   7.257
 4488POPC   NC358775  38.662  18.637   5.134
 4488POPC   PO458776  38.112  18.665   5.574
 4488POPC   GL158777  38.181  19.015   5.890
 4488POPC   GL258778  38.519  19.155   5.843
 4488POPC   C1A58779  38.210  19.008   6.361
 4488POPC   D2A58780  38.511  18.804   6.641
 4488POPC   C3A58781  38.396  18.842   7.071
 4488POPC   C4A58782  38.117  18.673   7.369
 4488POPC   C1B58783  38.712  19.130   6.252
 4488POPC   C2B58784  38.600  19.297   6.649
 4488POPC   C3B58785  38.465  19.405   7.044
 4488POPC   C4B58786  38.450  19.197   7.432
 4489POPC   NC358787  42.448  44.018   5.470
 4489POPC   PO458788  42.284  43.349   5.366
 4489POPC   GL158789  42.412  43.536   5.818
 4489POPC   GL258790  42.181  43.871   5.889
 4489POPC   C1A58791  42.450  43.657   6.241
 4489POPC   D2A58792  42.230  43.827   6.597
 4489POPC   C3A58793  42.466  43.664   6.894
 4489POPC   C4A58794  42.354  43.441   7.234
 4489POPC   C1B58795  42.325  44.154   6.208
 4489POPC   C2B58796  42.368  44.348   6.625
 4489POPC   C3B58797  42.263  44.179   7.008
 4489POPC   C4B58798  42.010  43.800   7.141
 4490POPC   NC358799   2.218  16.068   5.618
 4490POPC   PO458800   1.703  15.653   5.374
 4490POPC   GL158801   1.791  15.852   5.835
 4490POPC   GL258802   1.859  16.229   5.955
 4490POPC   C1A58803   2.055  15.764   6.225
 4490POPC   D2A58804   2.293  16.030   6.463
 4490POPC   C3A58805   2.132  16.150   6.834
 4490POPC   C4A58806   2.109  15.855   7.127
 4490POPC   C1B58807   1.764  16.135   6.414
 4490POPC   C2B58808   1.793  15.750   6.676
 4490POPC   C3B58809   1.509  15.618   6.985
 4490POPC   C4B58810   1.674  15.718   7.336
 4491POPC   NC358811  43.022  17.808   5.544
 4491POPC   PO458812  43.313  17.255   5.676
 4491POPC   GL158813  42.966  17.391   5.906
 4491POPC   GL258814  43.093  17.702   6.032
 4491POPC   C1A58815  42.845  17.361   6.314
 4491POPC   D2A58816  43.083  17.564   6.610
 4491POPC   C3A58817  42.909  17.379   6.930
 4491POPC   C4A58818  42.827  17.522   7.297
 4491POPC   C1B58819  43.255  17.980   6.361
 4491POPC   C2B58820  43.407  17.956   6.798
 4491POPC   C3B58821  43.318  17.638   7.109
 4491POPC   C4B58822  43.413  17.480   7.496
 4492POPC   NC358823   6.510   6.978   5.264
 4492POPC   PO458824   6.855   6.425   5.346
 4492POPC   GL158825   6.671   6.517   5.713
 4492POPC   GL258826   6.992   6.653   5.821
 4492POPC   C1A58827   6.381   6.424   6.048
 4492POPC   D2A58828   6.438   6.428   6.491
 4492POPC   C3A58829   6.320   6.729   6.798
 4492POPC   C4A58830   6.332   6.604   7.234
 4492POPC   C1B58831   6.879   6.484   6.214
 4492POPC   C2B58832   6.827   6.740   6.598
 4492POPC   C3B58833   6.808   6.621   7.015
 4492POPC   C4B58834   6.772   6.718   7.452
 4493POPC   NC358835   3.127   2.967   5.388
 4493POPC   PO458836   2.763   3.610   5.428
 4493POPC   GL158837   2.692   3.609   5.815
 4493POPC   GL258838   2.454   3.887   5.872
 4493POPC   C1A58839   2.970   3.708   6.132
 4493POPC   D2A58840   2.978   3.869   6.529
 4493POPC   C3A58841   2.821   3.628   6.859
 4493POPC   C4A58842   2.874   3.839   7.253
 4493POPC   C1B58843   2.481   3.686   6.263
 4493POPC   C2B58844   2.477   3.313   6.489
 4493POPC   C3B58845   2.459   3.179   6.922
 4493POPC   C4B58846   2.424   3.565   7.189
 4494POPC   NC358847  16.013  12.348   5.303
 4494POPC   PO458848  15.852  11.779   5.315
 4494POPC   GL158849  16.034  11.762   5.732
 4494POPC   GL258850  16.281  12.012   5.829
 4494POPC   C1A58851  16.031  11.664   6.185
 4494POPC   D2A58852  16.148  11.583   6.627
 4494POPC   C3A58853  15.877  11.802   6.927
 4494POPC   C4A58854  15.809  11.780   7.357
 4494POPC   C1B58855  16.394  12.003   6.310
 4494POPC   C2B58856  16.238  12.120   6.736
 4494POPC   C3B58857  16.257  12.076   7.201
 4494POPC   C4B58858  16.224  12.281   7.640
 4495POPC   NC358859  17.966   1.512   5.474
 4495POPC   PO458860  18.537   1.241   5.428
 4495POPC   GL158861  18.246   1.197   5.752
 4495POPC   GL258862  18.365   1.507   5.870
 4495POPC   C1A58863  18.302   1.011   6.165
 4495POPC   D2A58864  18.395   1.139   6.570
 4495POPC   C3A58865  18.307   0.882   6.924
 4495POPC   C4A58866  18.286   0.992   7.337
 4495POPC   C1B58867  18.045   1.436   6.169
 4495POPC   C2B58868  17.935   1.371   6.577
 4495POPC   C3B58869  18.065   1.336   6.976
 4495POPC   C4B58870  17.872   1.558   7.293
 4496POPC   NC358871  31.771  10.015   5.372
 4496POPC   PO458872  31.824   9.398   5.599
 4496POPC   GL158873  31.673   9.755   5.882
 4496POPC   GL258874  31.355   9.948   5.803
 4496POPC   C1A58875  31.625   9.738   6.345
 4496POPC   D2A58876  31.953   9.605   6.669
 4496POPC   C3A58877  31.748   9.473   7.045
 4496POPC   C4A58878  31.330   9.461   7.187
 4496POPC   C1B58879  31.498  10.226   6.115
 4496POPC   C2B58880  31.387  10.193   6.534
 4496POPC   C3B58881  31.435   9.850   6.838
 4496POPC   C4B58882  31.717   9.961   7.154
 4497POPC   NC358883   6.578  30.175   5.339
 4497POPC   PO458884   6.559  29.491   5.460
 4497POPC   GL158885   6.457  29.818   5.774
 4497POPC   GL258886   6.365  30.195   5.810
 4497POPC   C1A58887   6.656  29.786   6.174
 4497POPC   D2A58888   6.758  29.960   6.569
 4497POPC   C3A58889   6.948  29.829   6.938
 4497POPC   C4A58890   6.648  30.031   7.154
 4497POPC   C1B58891   6.536  30.290   6.216
 4497POPC   C2B58892   6.882  30.447   6.470
 4497POPC   C3B58893   6.981  30.355   6.899
 4497POPC   C4B58894   6.805  30.499   7.262
 4498POPC   NC358895  21.183   2.848   5.362
 4498POPC   PO458896  21.893   2.796   5.287
 4498POPC   GL158897  21.735   2.819   5.783
 4498POPC   GL258898  21.378   2.749   5.824
 4498POPC   C1A58899  21.815   2.610   6.166
 4498POPC   D2A58900  21.580   2.548   6.553
 4498POPC   C3A58901  21.658   2.810   6.908
 4498POPC   C4A58902  21.539   2.825   7.323
 4498POPC   C1B58903  21.429   2.963   6.223
 4498POPC   C2B58904  21.247   3.024   6.651
 4498POPC   C3B58905  21.153   2.728   6.996
 4498POPC   C4B58906  21.029   2.758   7.442
 4499POPC   NC358907   2.479  19.249   5.413
 4499POPC   PO458908   1.831  18.912   5.421
 4499POPC   GL158909   1.898  18.936   5.810
 4499POPC   GL258910   2.261  18.898   5.825
 4499POPC   C1A58911   1.617  19.033   6.151
 4499POPC   D2A58912   1.605  19.271   6.515
 4499POPC   C3A58913   1.840  19.092   6.831
 4499POPC   C4A58914   1.906  18.850   7.204
 4499POPC   C1B58915   2.112  19.148   6.217
 4499POPC   C2B58916   2.255  19.367   6.584
 4499POPC   C3B58917   2.235  19.394   7.006
 4499POPC   C4B58918   1.850  19.407   7.227
 4500POPC   NC358919  28.415  24.330   5.258
 4500POPC   PO458920  27.997  24.537   5.731
 4500POPC   GL158921  28.356  24.523   5.933
 4500POPC   GL258922  28.619  24.302   5.756
 4500POPC   C1A58923  28.251  24.417   6.393
 4500POPC   D2A58924  28.238  24.248   6.846
 4500POPC   C3A58925  28.259  24.568   7.183
 4500POPC   C4A58926  27.929  24.844   7.317
 4500POPC   C1B58927  28.723  24.345   6.213
 4500POPC   C2B58928  28.680  24.481   6.664
 4500POPC   C3B58929  28.714  24.328   7.087
 4500POPC   C4B58930  28.707  24.496   7.536
 4501POPC   NC358931  31.433  27.346   5.228
 4501POPC   PO458932  31.850  27.661   5.621
 4501POPC   GL158933  31.648  27.408   5.925
 4501POPC   GL258934  31.309  27.339   5.762
 4501POPC   C1A58935  31.855  27.212   6.291
 4501POPC   D2A58936  32.027  27.397   6.671
 4501POPC   C3A58937  31.654  27.555   6.887
 4501POPC   C4A58938  31.497  27.809   7.231
 4501POPC   C1B58939  31.237  27.616   6.133
 4501POPC   C2B58940  31.126  27.520   6.568
 4501POPC   C3B58941  31.143  27.498   7.020
 4501POPC   C4B58942  30.986  27.890   7.200
 4502POPC   NC358943  12.719  30.884   5.351
 4502POPC   PO458944  13.116  30.323   5.394
 4502POPC   GL158945  12.898  30.416   5.775
 4502POPC   GL258946  12.969  30.768   5.801
 4502POPC   C1A58947  12.974  30.482   6.243
 4502POPC   D2A58948  12.937  30.835   6.560
 4502POPC   C3A58949  12.909  30.749   6.997
 4502POPC   C4A58950  13.071  30.562   7.403
 4502POPC   C1B58951  12.651  30.873   6.126
 4502POPC   C2B58952  12.533  31.169   6.488
 4502POPC   C3B58953  12.405  31.016   6.899
 4502POPC   C4B58954  12.422  30.608   7.074
 4503POPC   NC358955  40.193  24.000   5.467
 4503POPC   PO458956  39.922  23.395   5.424
 4503POPC   GL158957  39.801  23.606   5.843
 4503POPC   GL258958  39.884  23.949   5.878
 4503POPC   C1A58959  39.933  23.673   6.310
 4503POPC   D2A58960  40.224  23.560   6.663
 4503POPC   C3A58961  40.026  23.590   7.062
 4503POPC   C4A58962  39.621  23.743   7.174
 4503POPC   C1B58963  40.296  23.995   6.113
 4503POPC   C2B58964  40.265  24.089   6.546
 4503POPC   C3B58965  40.319  24.015   6.972
 4503POPC   C4B58966  40.615  24.024   7.294
 4504POPC   NC358967  27.012  22.588   5.495
 4504POPC   PO458968  26.659  21.944   5.377
 4504POPC   GL158969  26.852  22.121   5.698
 4504POPC   GL258970  27.069  21.898   5.814
 4504POPC   C1A58971  26.861  22.300   6.106
 4504POPC   D2A58972  26.892  22.532   6.490
 4504POPC   C3A58973  26.974  22.356   6.906
 4504POPC   C4A58974  26.671  22.141   7.170
 4504POPC   C1B58975  27.119  21.842   6.227
 4504POPC   C2B58976  27.255  21.936   6.622
 4504POPC   C3B58977  27.114  21.863   7.028
 4504POPC   C4B58978  27.148  22.157   7.366
 4505POPC   NC358979   9.144  21.649   5.159
 4505POPC   PO458980   8.804  21.057   5.421
 4505POPC   GL158981   8.979  21.258   5.785
 4505POPC   GL258982   9.126  21.570   5.674
 4505POPC   C1A58983   9.015  21.132   6.234
 4505POPC   D2A58984   8.750  21.140   6.608
 4505POPC   C3A58985   8.910  21.170   7.031
 4505POPC   C4A58986   8.869  21.547   7.280
 4505POPC   C1B58987   9.291  21.542   6.102
 4505POPC   C2B58988   9.441  21.440   6.528
 4505POPC   C3B58989   9.350  21.490   6.968
 4505POPC   C4B58990   9.361  21.509   7.409
 4506POPC   NC358991  40.898  24.091   5.594
 4506POPC   PO458992  41.268  24.467   5.121
 4506POPC   GL158993  41.054  24.558   5.616
 4506POPC   GL258994  40.731  24.723   5.737
 4506POPC   C1A58995  41.023  24.456   6.106
 4506POPC   D2A58996  40.745  24.258   6.461
 4506POPC   C3A58997  40.805  24.320   6.915
 4506POPC   C4A58998  41.013  24.434   7.307
 4506POPC   C1B58999  40.561  24.646   6.170
 4506POPC   C2B59000  40.856  24.764   6.493
 4506POPC   C3B59001  40.919  24.836   6.915
 4506POPC   C4B59002  40.606  24.719   7.202
 4507POPC   NC359003  32.943   2.486   5.446
 4507POPC   PO459004  33.302   1.872   5.368
 4507POPC   GL159005  33.043   2.035   5.698
 4507POPC   GL259006  33.237   2.308   5.816
 4507POPC   C1A59007  32.884   1.974   6.137
 4507POPC   D2A59008  33.017   1.726   6.522
 4507POPC   C3A59009  32.953   1.897   6.956
 4507POPC   C4A59010  32.859   1.809   7.399
 4507POPC   C1B59011  33.171   2.396   6.215
 4507POPC   C2B59012  33.156   2.206   6.571
 4507POPC   C3B59013  33.265   2.328   6.946
 4507POPC   C4B59014  33.174   2.193   7.343
 4508POPC   NC359015  25.457  23.253   5.158
 4508POPC   PO459016  25.036  22.734   5.259
 4508POPC   GL159017  25.144  23.100   5.587
 4508POPC   GL259018  25.488  23.243   5.682
 4508POPC   C1A59019  25.120  23.218   6.054
 4508POPC   D2A59020  25.264  23.185   6.523
 4508POPC   C3A59021  25.037  23.128   6.938
 4508POPC   C4A59022  24.947  22.953   7.390
 4508POPC   C1B59023  25.613  23.163   6.136
 4508POPC   C2B59024  25.770  23.005   6.521
 4508POPC   C3B59025  25.563  23.025   6.917
 4508POPC   C4B59026  25.411  23.085   7.321
 4509POPC   NC359027  27.055  32.616   5.444
 4509POPC   PO459028  27.108  32.004   5.433
 4509POPC   GL159029  26.918  32.179   5.822
 4509POPC   GL259030  26.954  32.549   5.951
 4509POPC   C1A59031  26.848  32.067   6.279
 4509POPC   D2A59032  27.062  32.041   6.698
 4509POPC   C3A59033  26.849  32.042   7.135
 4509POPC   C4A59034  26.919  32.191   7.581
 4509POPC   C1B59035  27.013  32.542   6.431
 4509POPC   C2B59036  26.846  32.524   6.867
 4509POPC   C3B59037  26.621  32.511   7.264
 4509POPC   C4B59038  26.570  32.580   7.710
 4510POPC   NC359039  21.737  24.082   5.595
 4510POPC   PO459040  21.197  23.860   5.266
 4510POPC   GL159041  21.265  23.542   5.604
 4510POPC   GL259042  21.501  23.664   5.805
 4510POPC   C1A59043  21.125  23.469   6.063
 4510POPC   D2A59044  21.402  23.430   6.463
 4510POPC   C3A59045  21.185  23.296   6.893
 4510POPC   C4A59046  21.255  23.485   7.315
 4510POPC   C1B59047  21.483  23.887   6.178
 4510POPC   C2B59048  21.668  23.841   6.575
 4510POPC   C3B59049  21.536  23.638   6.923
 4510POPC   C4B59050  21.748  23.416   7.235
 4511POPC   NC359051  13.075  16.677   5.488
 4511POPC   PO459052  12.532  16.276   5.334
 4511POPC   GL159053  12.683  16.489   5.725
 4511POPC   GL259054  13.008  16.414   5.898
 4511POPC   C1A59055  12.621  16.565   6.184
 4511POPC   D2A59056  12.444  16.469   6.586
 4511POPC   C3A59057  12.644  16.562   6.981
 4511POPC   C4A59058  12.588  16.759   7.394
 4511POPC   C1B59059  13.150  16.453   6.295
 4511POPC   C2B59060  13.221  16.630   6.670
 4511POPC   C3B59061  13.158  16.374   6.999
 4511POPC   C4B59062  12.925  16.369   7.377
 4512POPC   NC359063  41.172  24.895   5.259
 4512POPC   PO459064  40.838  25.477   5.323
 4512POPC   GL159065  40.683  25.234   5.717
 4512POPC   GL259066  40.765  25.545   5.892
 4512POPC   C1A59067  40.592  25.145   6.176
 4512POPC   D2A59068  40.698  25.235   6.598
 4512POPC   C3A59069  40.560  25.204   6.998
 4512POPC   C4A59070  40.732  25.186   7.409
 4512POPC   C1B59071  40.943  25.568   6.308
 4512POPC   C2B59072  41.162  25.427   6.685
 4512POPC   C3B59073  41.127  25.389   7.148
 4512POPC   C4B59074  41.178  25.273   7.619
 4513POPC   NC359075  44.758  17.685   5.456
 4513POPC   PO459076  44.700  17.092   5.158
 4513POPC   GL159077  44.710  17.219   5.654
 4513POPC   GL259078  44.913  17.471   5.882
 4513POPC   C1A59079  44.460  17.368   6.057
 4513POPC   D2A59080  44.428  17.607   6.463
 4513POPC   C3A59081  44.655  17.493   6.850
 4513POPC   C4A59082  44.648  17.627   7.310
 4513POPC   C1B59083   0.105  17.666   6.235
 4513POPC   C2B59084  44.912  17.873   6.596
 4513POPC   C3B59085   0.024  17.783   7.030
 4513POPC   C4B59086   0.114  17.353   7.200
 4514POPC   NC359087  16.550  20.873   5.071
 4514POPC   PO459088  16.736  20.387   5.454
 4514POPC   GL159089  16.641  20.537   5.834
 4514POPC   GL259090  16.855  20.785   5.786
 4514POPC   C1A59091  16.736  20.387   6.225
 4514POPC   D2A59092  16.972  20.180   6.515
 4514POPC   C3A59093  16.796  20.371   6.860
 4514POPC   C4A59094  16.886  20.485   7.263
 4514POPC   C1B59095  16.856  20.890   6.187
 4514POPC   C2B59096  16.727  20.782   6.584
 4514POPC   C3B59097  16.663  20.916   7.001
 4514POPC   C4B59098  16.766  20.945   7.436
 4515POPC   NC359099  23.131  13.530   5.285
 4515POPC   PO459100  22.986  14.189   5.323
 4515POPC   GL159101  23.006  13.950   5.753
 4515POPC   GL259102  22.986  13.593   5.826
 4515POPC   C1A59103  22.864  13.938   6.208
 4515POPC   D2A59104  22.892  13.655   6.554
 4515POPC   C3A59105  22.960  13.747   6.993
 4515POPC   C4A59106  23.056  13.567   7.447
 4515POPC   C1B59107  22.704  13.386   6.138
 4515POPC   C2B59108  22.545  13.312   6.553
 4515POPC   C3B59109  22.696  13.314   6.926
 4515POPC   C4B59110  22.588  13.541   7.277
 4516POPC   NC359111  28.727  31.293   5.601
 4516POPC   PO459112  28.050  31.121   5.576
 4516POPC   GL159113  28.308  31.303   5.902
 4516POPC   GL259114  28.424  31.654   5.852
 4516POPC   C1A59115  28.424  31.313   6.369
 4516POPC   D2A59116  28.302  31.251   6.807
 4516POPC   C3A59117  28.508  31.142   7.147
 4516POPC   C4A59118  28.441  31.086   7.556
 4516POPC   C1B59119  28.639  31.761   6.237
 4516POPC   C2B59120  28.704  31.644   6.653
 4516POPC   C3B59121  28.509  31.646   7.036
 4516POPC   C4B59122  28.659  31.548   7.412
 4517POPC   NC359123  41.183  28.156   5.252
 4517POPC   PO459124  41.756  28.473   5.520
 4517POPC   GL159125  41.430  28.408   5.795
 4517POPC   GL259126  41.364  28.086   5.725
 4517POPC   C1A59127  41.477  28.566   6.219
 4517POPC   D2A59128  41.831  28.578   6.496
 4517POPC   C3A59129  41.671  28.574   6.894
 4517POPC   C4A59130  41.308  28.793   7.101
 4517POPC   C1B59131  41.294  28.097   6.170
 4517POPC   C2B59132  41.314  28.272   6.615
 4517POPC   C3B59133  41.376  28.216   7.067
 4517POPC   C4B59134  41.807  28.149   7.220
 4518POPC   NC359135  29.180  43.281   5.378
 4518POPC   PO459136  29.384  42.685   5.295
 4518POPC   GL159137  29.379  42.894   5.746
 4518POPC   GL259138  29.071  43.091   5.854
 4518POPC   C1A59139  29.390  42.927   6.234
 4518POPC   D2A59140  29.262  43.199   6.625
 4518POPC   C3A59141  29.439  43.129   7.038
 4518POPC   C4A59142  29.404  42.694   7.161
 4518POPC   C1B59143  28.890  43.196   6.272
 4518POPC   C2B59144  28.832  43.479   6.653
 4518POPC   C3B59145  29.004  43.416   7.072
 4518POPC   C4B59146  28.963  42.978   7.116
 4519POPC   NC359147  26.739  20.543   5.440
 4519POPC   PO459148  27.314  20.362   5.286
 4519POPC   GL159149  27.188  20.423   5.735
 4519POPC   GL259150  27.135  20.774   5.828
 4519POPC   C1A59151  27.232  20.415   6.236
 4519POPC   D2A59152  27.245  20.657   6.669
 4519POPC   C3A59153  27.068  20.472   7.058
 4519POPC   C4A59154  26.903  20.223   7.415
 4519POPC   C1B59155  26.927  20.824   6.262
 4519POPC   C2B59156  26.743  20.768   6.721
 4519POPC   C3B59157  26.739  20.822   7.187
 4519POPC   C4B59158  26.980  20.708   7.587
 4520POPC   NC359159  13.862  17.194   5.462
 4520POPC   PO459160  13.528  17.826   5.370
 4520POPC   GL159161  13.556  17.600   5.751
 4520POPC   GL259162  13.895  17.671   5.766
 4520POPC   C1A59163  13.430  17.431   6.179
 4520POPC   D2A59164  13.622  17.396   6.617
 4520POPC   C3A59165  13.420  17.442   7.022
 4520POPC   C4A59166  13.564  17.606   7.429
 4520POPC   C1B59167  13.901  17.611   6.202
 4520POPC   C2B59168  13.856  17.842   6.601
 4520POPC   C3B59169  13.890  17.688   7.035
 4520POPC   C4B59170  14.088  17.577   7.439
 4521POPC   NC359171  42.031  22.468   5.604
 4521POPC   PO459172  42.485  22.757   5.186
 4521POPC   GL159173  42.396  22.860   5.647
 4521POPC   GL259174  42.038  22.979   5.716
 4521POPC   C1A59175  42.297  22.792   6.118
 4521POPC   D2A59176  42.507  22.787   6.520
 4521POPC   C3A59177  42.345  22.747   6.933
 4521POPC   C4A59178  42.436  23.053   7.234
 4521POPC   C1B59179  41.906  23.161   6.125
 4521POPC   C2B59180  41.797  23.278   6.555
 4521POPC   C3B59181  41.953  23.139   6.966
 4521POPC   C4B59182  41.961  23.014   7.393
 4522POPC   NC359183  40.582  26.580   5.662
 4522POPC   PO459184  41.095  26.891   5.694
 4522POPC   GL159185  40.701  26.985   5.928
 4522POPC   GL259186  40.769  27.152   6.219
 4522POPC   C1A59187  40.401  26.781   6.252
 4522POPC   D2A59188  40.439  26.912   6.673
 4522POPC   C3A59189  40.466  26.598   6.950
 4522POPC   C4A59190  40.733  26.507   7.248
 4522POPC   C1B59191  40.928  26.716   6.327
 4522POPC   C2B59192  40.948  26.559   6.740
 4522POPC   C3B59193  40.955  26.909   7.025
 4522POPC   C4B59194  41.232  26.928   7.363
 4523POPC   NC359195  20.838  21.478   5.201
 4523POPC   PO459196  20.244  21.179   5.284
 4523POPC   GL159197  20.317  21.473   5.720
 4523POPC   GL259198  20.666  21.445   5.794
 4523POPC   C1A59199  20.358  21.745   6.167
 4523POPC   D2A59200  20.673  21.755   6.549
 4523POPC   C3A59201  20.634  21.678   7.029
 4523POPC   C4A59202  20.677  21.867   7.476
 4523POPC   C1B59203  20.580  21.295   6.238
 4523POPC   C2B59204  20.678  21.254   6.695
 4523POPC   C3B59205  21.012  21.330   7.005
 4523POPC   C4B59206  21.131  21.679   7.276
 4524POPC   NC359207  44.056  20.004   5.349
 4524POPC   PO459208  43.824  19.356   5.263
 4524POPC   GL159209  43.687  19.734   5.613
 4524POPC   GL259210  43.757  20.071   5.759
 4524POPC   C1A59211  43.666  19.746   6.130
 4524POPC   D2A59212  43.571  19.905   6.572
 4524POPC   C3A59213  43.757  19.805   6.995
 4524POPC   C4A59214  43.733  19.588   7.416
 4524POPC   C1B59215  43.813  20.224   6.221
 4524POPC   C2B59216  43.910  20.306   6.654
 4524POPC   C3B59217  44.041  20.222   7.094
 4524POPC   C4B59218  43.859  20.066   7.507
 4525POPC   NC359219  18.119  44.126   5.353
 4525POPC   PO459220  18.352  43.516   5.407
 4525POPC   GL159221  18.246  43.686   5.800
 4525POPC   GL259222  18.284  44.057   5.840
 4525POPC   C1A59223  18.008  43.745   6.178
 4525POPC   D2A59224  18.083  43.965   6.552
 4525POPC   C3A59225  18.081  43.704   6.907
 4525POPC   C4A59226  18.076  43.808   7.306
 4525POPC   C1B59227  18.503  43.902   6.217
 4525POPC   C2B59228  18.580  44.054   6.613
 4525POPC   C3B59229  18.401  44.110   7.014
 4525POPC   C4B59230  18.525  43.977   7.434
 4526POPC   NC359231   1.112  11.984   5.454
 4526POPC   PO459232   1.602  12.487   5.481
 4526POPC   GL159233   1.296  12.322   5.801
 4526POPC   GL259234   0.991  12.480   5.666
 4526POPC   C1A59235   1.268  12.078   6.206
 4526POPC   D2A59236   1.249  11.795   6.576
 4526POPC   C3A59237   1.145  12.010   6.941
 4526POPC   C4A59238   1.419  12.236   7.223
 4526POPC   C1B59239   0.817  12.294   6.061
 4526POPC   C2B59240   0.750  12.296   6.535
 4526POPC   C3B59241   0.847  12.436   6.982
 4526POPC   C4B59242   0.856  12.251   7.368
 4527POPC   NC359243   5.490  43.229   5.501
 4527POPC   PO459244   6.090  42.991   5.315
 4527POPC   GL159245   5.895  43.045   5.745
 4527POPC   GL259246   5.647  42.834   5.800
 4527POPC   C1A59247   5.719  43.192   6.185
 4527POPC   D2A59248   5.704  43.405   6.620
 4527POPC   C3A59249   5.810  43.224   7.022
 4527POPC   C4A59250   5.921  43.328   7.460
 4527POPC   C1B59251   5.533  42.718   6.197
 4527POPC   C2B59252   5.494  42.919   6.587
 4527POPC   C3B59253   5.303  43.208   6.901
 4527POPC   C4B59254   5.397  43.195   7.340
 4528POPC   NC359255  31.525  40.749   5.314
 4528POPC   PO459256  31.296  41.325   5.164
 4528POPC   GL159257  31.276  41.039   5.640
 4528POPC   GL259258  31.175  40.653   5.692
 4528POPC   C1A59259  31.442  40.895   6.074
 4528POPC   D2A59260  31.248  40.769   6.520
 4528POPC   C3A59261  31.396  40.805   6.974
 4528POPC   C4A59262  31.708  41.030   7.231
 4528POPC   C1B59263  31.298  40.407   6.071
 4528POPC   C2B59264  31.481  40.310   6.473
 4528POPC   C3B59265  31.368  40.284   6.889
 4528POPC   C4B59266  31.656  40.416   7.189
 4529POPC   NC359267   7.727  24.547   5.329
 4529POPC   PO459268   8.385  24.411   5.183
 4529POPC   GL159269   8.226  24.354   5.668
 4529POPC   GL259270   7.933  24.556   5.814
 4529POPC   C1A59271   8.273  24.274   6.145
 4529POPC   D2A59272   8.248  24.422   6.593
 4529POPC   C3A59273   8.280  24.237   6.992
 4529POPC   C4A59274   8.476  24.250   7.403
 4529POPC   C1B59275   8.036  24.732   6.232
 4529POPC   C2B59276   7.886  24.779   6.642
 4529POPC   C3B59277   8.077  24.741   7.042
 4529POPC   C4B59278   7.837  24.718   7.454
 4530POPC   NC359279  12.120  11.908   5.397
 4530POPC   PO459280  12.166  11.248   5.286
 4530POPC   GL159281  12.096  11.211   5.710
 4530POPC   GL259282  12.009  11.525   5.746
 4530POPC   C1A59283  12.162  10.983   6.091
 4530POPC   D2A59284  12.134  11.093   6.525
 4530POPC   C3A59285  12.107  10.898   6.928
 4530POPC   C4A59286  12.123  11.163   7.302
 4530POPC   C1B59287  12.272  11.473   6.125
 4530POPC   C2B59288  12.300  11.570   6.529
 4530POPC   C3B59289  12.182  11.518   6.938
 4530POPC   C4B59290  12.229  11.698   7.336
 4531POPC   NC359291  11.579  39.253   5.052
 4531POPC   PO459292  12.168  39.170   5.368
 4531POPC   GL159293  12.190  39.363   5.787
 4531POPC   GL259294  11.843  39.463   5.809
 4531POPC   C1A59295  12.361  39.202   6.205
 4531POPC   D2A59296  12.256  38.937   6.562
 4531POPC   C3A59297  12.079  38.985   6.996
 4531POPC   C4A59298  12.280  38.953   7.409
 4531POPC   C1B59299  11.851  39.224   6.206
 4531POPC   C2B59300  11.917  39.335   6.609
 4531POPC   C3B59301  11.654  39.332   6.944
 4531POPC   C4B59302  11.783  39.229   7.333
 4532POPC   NC359303  32.522   0.184   5.596
 4532POPC   PO459304  32.473  44.571   5.447
 4532POPC   GL159305  32.191  44.591   5.758
 4532POPC   GL259306  32.168  44.915   5.852
 4532POPC   C1A59307  32.071  44.465   6.172
 4532POPC   D2A59308  32.143  44.303   6.592
 4532POPC   C3A59309  32.172  44.534   7.002
 4532POPC   C4A59310  32.594  44.631   7.197
 4532POPC   C1B59311  32.243  44.970   6.283
 4532POPC   C2B59312  32.387  44.889   6.691
 4532POPC   C3B59313  32.270   0.036   7.083
 4532POPC   C4B59314  32.079  44.902   7.459
 4533POPC   NC359315   2.738  33.546   5.270
 4533POPC   PO459316   2.782  32.789   5.319
 4533POPC   GL159317   2.696  33.061   5.671
 4533POPC   GL259318   3.018  32.993   5.766
 4533POPC   C1A59319   2.570  33.208   6.120
 4533POPC   D2A59320   2.421  33.364   6.531
 4533POPC   C3A59321   2.634  33.287   6.935
 4533POPC   C4A59322   2.844  33.214   7.362
 4533POPC   C1B59323   2.838  32.779   6.119
 4533POPC   C2B59324   2.777  32.953   6.536
 4533POPC   C3B59325   2.945  32.873   6.932
 4533POPC   C4B59326   3.144  32.816   7.313
 4534POPC   NC359327  11.049  16.089   5.424
 4534POPC   PO459328  11.728  15.838   5.437
 4534POPC   GL159329  11.337  15.765   5.695
 4534POPC   GL259330  11.302  15.453   5.863
 4534POPC   C1A59331  11.062  15.862   6.084
 4534POPC   D2A59332  11.079  15.661   6.521
 4534POPC   C3A59333  11.183  15.953   6.872
 4534POPC   C4A59334  11.342  15.909   7.262
 4534POPC   C1B59335  11.537  15.744   6.163
 4534POPC   C2B59336  11.554  15.980   6.530
 4534POPC   C3B59337  11.725  16.020   6.947
 4534POPC   C4B59338  11.778  16.196   7.347
 4535POPC   NC359339  31.200  30.748   5.603
 4535POPC   PO459340  30.486  30.756   5.487
 4535POPC   GL159341  30.686  30.668   5.873
 4535POPC   GL259342  30.843  30.376   5.793
 4535POPC   C1A59343  30.743  30.601   6.328
 4535POPC   D2A59344  31.012  30.720   6.691
 4535POPC   C3A59345  30.835  30.715   7.131
 4535POPC   C4A59346  30.896  30.917   7.560
 4535POPC   C1B59347  30.427  30.264   6.045
 4535POPC   C2B59348  30.270  30.376   6.474
 4535POPC   C3B59349  30.487  30.326   6.877
 4535POPC   C4B59350  30.474  30.403   7.309
 4536POPC   NC359351  44.188  32.102   5.366
 4536POPC   PO459352  43.578  32.004   5.608
 4536POPC   GL159353  43.874  32.357   5.838
 4536POPC   GL259354  44.263  32.282   5.835
 4536POPC   C1A59355  44.074  32.442   6.288
 4536POPC   D2A59356  44.073  32.523   6.751
 4536POPC   C3A59357  43.804  32.311   6.995
 4536POPC   C4A59358  43.720  32.383   7.388
 4536POPC   C1B59359  44.320  31.996   6.204
 4536POPC   C2B59360  44.130  32.006   6.621
 4536POPC   C3B59361  44.264  32.133   7.049
 4536POPC   C4B59362  44.153  32.080   7.472
 4537POPC   NC359363  12.132  10.086   5.212
 4537POPC   PO459364  12.528   9.567   5.191
 4537POPC   GL159365  12.241   9.671   5.591
 4537POPC   GL259366  12.397   9.819   5.915
 4537POPC   C1A59367  11.929   9.644   5.979
 4537POPC   D2A59368  11.984   9.860   6.394
 4537POPC   C3A59369  11.775  10.083   6.748
 4537POPC   C4A59370  11.915  10.073   7.180
 4537POPC   C1B59371  12.364   9.495   6.249
 4537POPC   C2B59372  12.299   9.400   6.658
 4537POPC   C3B59373  12.096   9.690   6.889
 4537POPC   C4B59374  12.252   9.696   7.280
 4538POPC   NC359375   7.815  27.699   5.469
 4538POPC   PO459376   7.304  27.429   5.124
 4538POPC   GL159377   7.375  27.408   5.628
 4538POPC   GL259378   7.141  27.101   5.675
 4538POPC   C1A59379   7.573  27.540   6.073
 4538POPC   D2A59380   7.456  27.639   6.535
 4538POPC   C3A59381   7.552  27.438   6.934
 4538POPC   C4A59382   7.487  27.648   7.334
 4538POPC   C1B59383   7.154  27.237   6.100
 4538POPC   C2B59384   7.295  27.156   6.506
 4538POPC   C3B59385   7.079  27.300   6.853
 4538POPC   C4B59386   7.111  27.305   7.273
 4539POPC   NC359387  30.963   0.178   5.275
 4539POPC   PO459388  30.440   0.553   5.291
 4539POPC   GL159389  30.731   0.550   5.639
 4539POPC   GL259390  30.785   0.208   5.755
 4539POPC   C1A59391  30.711   0.597   6.094
 4539POPC   D2A59392  30.698   0.659   6.534
 4539POPC   C3A59393  30.582   0.434   6.913
 4539POPC   C4A59394  30.445   0.158   7.235
 4539POPC   C1B59395  30.767   0.118   6.209
 4539POPC   C2B59396  30.958   0.208   6.626
 4539POPC   C3B59397  31.025   0.177   7.101
 4539POPC   C4B59398  31.077   0.061   7.598
 4540POPC   NC359399  41.408  16.776   5.406
 4540POPC   PO459400  41.956  16.387   5.338
 4540POPC   GL159401  41.845  16.581   5.736
 4540POPC   GL259402  41.505  16.587   5.871
 4540POPC   C1A59403  41.947  16.632   6.168
 4540POPC   D2A59404  41.648  16.638   6.497
 4540POPC   C3A59405  41.807  16.611   6.890
 4540POPC   C4A59406  41.568  16.614   7.261
 4540POPC   C1B59407  41.233  16.858   6.131
 4540POPC   C2B59408  41.133  16.769   6.549
 4540POPC   C3B59409  41.373  16.913   6.882
 4540POPC   C4B59410  41.293  17.141   7.260
 4541POPC   NC359411  19.574  19.930   5.257
 4541POPC   PO459412  20.038  19.521   5.244
 4541POPC   GL159413  19.729  19.588   5.650
 4541POPC   GL259414  19.445  19.854   5.757
 4541POPC   C1A59415  19.724  19.517   6.118
 4541POPC   D2A59416  19.962  19.577   6.520
 4541POPC   C3A59417  19.803  19.494   6.959
 4541POPC   C4A59418  20.016  19.571   7.381
 4541POPC   C1B59419  19.413  19.942   6.230
 4541POPC   C2B59420  19.585  19.907   6.687
 4541POPC   C3B59421  19.728  19.946   7.164
 4541POPC   C4B59422  19.668  19.901   7.626
 4542POPC   NC359423   1.794  16.085   5.272
 4542POPC   PO459424   0.974  15.986   5.370
 4542POPC   GL159425   0.979  16.060   5.843
 4542POPC   GL259426   1.340  16.192   5.905
 4542POPC   C1A59427   1.087  16.059   6.292
 4542POPC   D2A59428   1.289  15.857   6.600
 4542POPC   C3A59429   1.106  15.967   6.980
 4542POPC   C4A59430   1.162  15.748   7.340
 4542POPC   C1B59431   1.391  16.467   6.260
 4542POPC   C2B59432   1.361  16.350   6.682
 4542POPC   C3B59433   1.596  16.139   7.035
 4542POPC   C4B59434   1.446  16.147   7.507
 4543POPC   NC359435  33.251  30.080   5.458
 4543POPC   PO459436  33.540  29.513   5.122
 4543POPC   GL159437  33.575  29.649   5.641
 4543POPC   GL259438  33.335  29.829   5.899
 4543POPC   C1A59439  33.750  29.647   6.123
 4543POPC   D2A59440  33.526  29.636   6.555
 4543POPC   C3A59441  33.608  29.720   6.997
 4543POPC   C4A59442  33.498  29.950   7.389
 4543POPC   C1B59443  33.523  30.075   6.286
 4543POPC   C2B59444  33.729  30.137   6.724
 4543POPC   C3B59445  33.934  30.103   7.163
 4543POPC   C4B59446  33.859  30.231   7.624
 4544POPC   NC359447  28.001  16.782   5.356
 4544POPC   PO459448  27.437  16.386   5.376
 4544POPC   GL159449  27.607  16.593   5.765
 4544POPC   GL259450  27.298  16.493   5.905
 4544POPC   C1A59451  27.709  16.558   6.260
 4544POPC   D2A59452  27.515  16.494   6.714
 4544POPC   C3A59453  27.749  16.631   7.099
 4544POPC   C4A59454  27.786  16.731   7.550
 4544POPC   C1B59455  27.310  16.848   6.152
 4544POPC   C2B59456  27.331  16.998   6.599
 4544POPC   C3B59457  27.177  16.823   6.983
 4544POPC   C4B59458  27.268  16.714   7.391
 4545POPC   NC359459   0.192  44.695   5.305
 4545POPC   PO459460   0.689   0.199   5.222
 4545POPC   GL159461   0.432  44.968   5.628
 4545POPC   GL259462   0.087  44.998   5.741
 4545POPC   C1A59463   0.390  44.652   6.005
 4545POPC   D2A59464   0.438  44.390   6.424
 4545POPC   C3A59465   0.637  44.541   6.834
 4545POPC   C4A59466   0.421  44.692   7.197
 4545POPC   C1B59467  44.950  44.886   6.165
 4545POPC   C2B59468  44.913  44.936   6.631
 4545POPC   C3B59469  44.858  44.931   7.087
 4545POPC   C4B59470   0.145   0.030   7.444
 4546POPC   NC359471  31.644   0.620   5.790
 4546POPC   PO459472  31.403   0.284   5.250
 4546POPC   GL159473  31.306   0.207   5.720
 4546POPC   GL259474  31.168   0.501   5.902
 4546POPC   C1A59475  31.295   0.128   6.214
 4546POPC   D2A59476  31.452   0.042   6.650
 4546POPC   C3A59477  31.515   0.315   7.018
 4546POPC   C4A59478  31.353   0.453   7.414
 4546POPC   C1B59479  31.188   0.654   6.309
 4546POPC   C2B59480  31.237   0.642   6.731
 4546POPC   C3B59481  30.991   0.705   7.063
 4546POPC   C4B59482  30.824   0.488   7.433
 4547POPC   NC359483   2.460  14.426   5.358
 4547POPC   PO459484   3.033  14.203   5.453
 4547POPC   GL159485   2.668  14.225   5.772
 4547POPC   GL259486   2.607  14.605   5.843
 4547POPC   C1A59487   2.632  14.081   6.200
 4547POPC   D2A59488   2.876  13.977   6.554
 4547POPC   C3A59489   2.787  14.330   6.837
 4547POPC   C4A59490   2.800  14.296   7.267
 4547POPC   C1B59491   2.466  14.748   6.292
 4547POPC   C2B59492   2.367  14.743   6.757
 4547POPC   C3B59493   2.619  14.764   7.127
 4547POPC   C4B59494   3.083  14.690   7.143
 4548POPC   NC359495  43.621   5.318   5.665
 4548POPC   PO459496  44.028   4.851   5.380
 4548POPC   GL159497  43.966   4.948   5.832
 4548POPC   GL259498  43.977   5.292   6.049
 4548POPC   C1A59499  44.110   4.817   6.240
 4548POPC   D2A59500  44.016   5.100   6.553
 4548POPC   C3A59501  43.845   5.182   6.950
 4548POPC   C4A59502  43.938   4.876   7.202
 4548POPC   C1B59503  43.726   5.507   6.407
 4548POPC   C2B59504  43.550   5.598   6.833
 4548POPC   C3B59505  43.510   5.471   7.260
 4548POPC   C4B59506  43.821   5.274   7.501
 4549POPC   NC359507  28.607  29.590   5.370
 4549POPC   PO459508  28.508  30.273   5.310
 4549POPC   GL159509  28.515  29.995   5.698
 4549POPC   GL259510  28.255  29.732   5.781
 4549POPC   C1A59511  28.473  30.092   6.148
 4549POPC   D2A59512  28.451  30.324   6.538
 4549POPC   C3A59513  28.313  30.040   6.850
 4549POPC   C4A59514  28.460  29.866   7.231
 4549POPC   C1B59515  27.982  29.588   6.134
 4549POPC   C2B59516  27.869  29.518   6.600
 4549POPC   C3B59517  27.920  29.612   7.061
 4549POPC   C4B59518  28.093  29.679   7.534
 4550POPC   NC359519  17.266  29.272   5.411
 4550POPC   PO459520  17.639  28.784   5.250
 4550POPC   GL159521  17.444  28.849   5.653
 4550POPC   GL259522  17.603  29.092   5.889
 4550POPC   C1A59523  17.152  28.910   6.002
 4550POPC   D2A59524  17.323  29.132   6.356
 4550POPC   C3A59525  17.296  29.030   6.788
 4550POPC   C4A59526  17.318  28.997   7.227
 4550POPC   C1B59527  17.728  29.396   6.215
 4550POPC   C2B59528  17.593  29.471   6.659
 4550POPC   C3B59529  17.558  29.489   7.113
 4550POPC   C4B59530  17.568  29.584   7.587
 4551POPC   NC359531  15.633  43.828   5.449
 4551POPC   PO459532  16.067  44.240   5.202
 4551POPC   GL159533  16.026  44.035   5.685
 4551POPC   GL259534  15.976  43.680   5.814
 4551POPC   C1A59535  15.797  44.018   6.137
 4551POPC   D2A59536  15.737  44.154   6.592
 4551POPC   C3A59537  15.819  43.915   7.008
 4551POPC   C4A59538  15.994  43.993   7.458
 4551POPC   C1B59539  15.849  43.421   6.184
 4551POPC   C2B59540  15.668  43.372   6.620
 4551POPC   C3B59541  15.707  43.240   7.074
 4551POPC   C4B59542  16.004  43.513   7.316
 4552POPC   NC359543   0.861  36.560   5.527
 4552POPC   PO459544   1.408  36.980   5.465
 4552POPC   GL159545   1.194  36.774   5.842
 4552POPC   GL259546   0.851  36.800   5.984
 4552POPC   C1A59547   1.260  36.627   6.265
 4552POPC   D2A59548   1.049  36.563   6.672
 4552POPC   C3A59549   1.180  36.849   6.989
 4552POPC   C4A59550   1.314  37.106   7.349
 4552POPC   C1B59551   1.146  37.126   6.190
 4552POPC   C2B59552   1.393  37.099   6.571
 4552POPC   C3B59553   1.314  37.380   6.917
 4552POPC   C4B59554   0.941  37.468   7.197
 4553POPC   NC359555  26.066  42.735   5.505
 4553POPC   PO459556  26.195  42.083   5.231
 4553POPC   GL159557  25.977  42.249   5.686
 4553POPC   GL259558  25.866  42.555   5.929
 4553POPC   C1A59559  26.018  42.162   6.161
 4553POPC   D2A59560  25.998  42.372   6.578
 4553POPC   C3A59561  26.157  42.182   6.956
 4553POPC   C4A59562  26.037  42.034   7.376
 4553POPC   C1B59563  26.243  42.631   6.179
 4553POPC   C2B59564  26.421  42.670   6.597
 4553POPC   C3B59565  26.314  42.671   7.040
 4553POPC   C4B59566  26.338  42.748   7.511
 4554POPC   NC359567  19.884   9.772   5.348
 4554POPC   PO459568  19.581   9.357   5.704
 4554POPC   GL159569  19.827   9.621   5.859
 4554POPC   GL259570  19.619   9.868   5.851
 4554POPC   C1A59571  20.028   9.657   6.229
 4554POPC   D2A59572  20.309   9.673   6.559
 4554POPC   C3A59573  20.069   9.499   6.905
 4554POPC   C4A59574  19.905   9.697   7.258
 4554POPC   C1B59575  19.586   9.883   6.333
 4554POPC   C2B59576  19.574   9.721   6.781
 4554POPC   C3B59577  19.438   9.839   7.215
 4554POPC   C4B59578  19.551   9.938   7.665
 4555POPC   NC359579  40.268  17.784   5.603
 4555POPC   PO459580  39.973  17.267   5.250
 4555POPC   GL159581  39.873  17.432   5.665
 4555POPC   GL259582  40.176  17.315   5.843
 4555POPC   C1A59583  39.807  17.494   6.138
 4555POPC   D2A59584  39.946  17.630   6.566
 4555POPC   C3A59585  39.802  17.423   6.890
 4555POPC   C4A59586  39.652  17.342   7.280
 4555POPC   C1B59587  40.312  17.354   6.303
 4555POPC   C2B59588  40.305  17.277   6.771
 4555POPC   C3B59589  40.237  17.475   7.150
 4555POPC   C4B59590  40.467  17.770   7.372
 4556POPC   NC359591  28.856  30.526   5.121
 4556POPC   PO459592  29.305  30.840   5.520
 4556POPC   GL159593  29.294  30.715   5.935
 4556POPC   GL259594  28.955  30.777   5.895
 4556POPC   C1A59595  29.231  30.847   6.349
 4556POPC   D2A59596  29.409  30.946   6.730
 4556POPC   C3A59597  29.117  30.847   7.008
 4556POPC   C4A59598  29.157  30.443   7.198
 4556POPC   C1B59599  28.864  30.485   6.224
 4556POPC   C2B59600  28.950  30.508   6.659
 4556POPC   C3B59601  28.764  30.232   7.003
 4556POPC   C4B59602  28.744  30.227   7.503
 4557POPC   NC359603  19.224   0.127   5.554
 4557POPC   PO459604  18.852   0.597   5.261
 4557POPC   GL159605  18.867   0.440   5.711
 4557POPC   GL259606  19.016   0.739   5.884
 4557POPC   C1A59607  18.968   0.270   6.144
 4557POPC   D2A59608  19.179   0.423   6.520
 4557POPC   C3A59609  18.989   0.338   6.920
 4557POPC   C4A59610  19.082   0.378   7.343
 4557POPC   C1B59611  18.870   0.910   6.293
 4557POPC   C2B59612  18.760   0.765   6.719
 4557POPC   C3B59613  18.779   0.813   7.191
 4557POPC   C4B59614  18.580   0.715   7.638
 4558POPC   NC359615  44.482  29.683   5.503
 4558POPC   PO459616  44.815  29.160   5.089
 4558POPC   GL159617  44.554  29.162   5.509
 4558POPC   GL259618  44.422  28.841   5.651
 4558POPC   C1A59619  44.541  29.187   5.998
 4558POPC   D2A59620  44.452  29.185   6.474
 4558POPC   C3A59621  44.804  29.172   6.780
 4558POPC   C4A59622  44.848  29.180   7.249
 4558POPC   C1B59623  44.268  28.760   6.113
 4558POPC   C2B59624  44.322  28.686   6.582
 4558POPC   C3B59625  44.429  28.827   7.013
 4558POPC   C4B59626  44.331  28.898   7.445
 4559POPC   NC359627  27.750  20.173   5.228
 4559POPC   PO459628  27.861  19.571   5.501
 4559POPC   GL159629  27.711  19.770   5.893
 4559POPC   GL259630  27.938  19.905   6.080
 4559POPC   C1A59631  27.479  19.914   6.306
 4559POPC   D2A59632  27.437  20.184   6.682
 4559POPC   C3A59633  27.279  20.018   7.103
 4559POPC   C4A59634  27.246  19.846   7.553
 4559POPC   C1B59635  27.832  19.550   6.357
 4559POPC   C2B59636  27.766  19.682   6.771
 4559POPC   C3B59637  27.527  19.581   7.139
 4559POPC   C4B59638  27.204  19.291   7.257
 4560POPC   NC359639   3.336   1.824   5.321
 4560POPC   PO459640   3.356   2.313   5.822
 4560POPC   GL159641   3.416   1.870   5.840
 4560POPC   GL259642   3.717   1.621   5.862
 4560POPC   C1A59643   3.367   1.827   6.255
 4560POPC   D2A59644   3.138   2.049   6.542
 4560POPC   C3A59645   3.382   1.996   6.875
 4560POPC   C4A59646   3.371   1.742   7.187
 4560POPC   C1B59647   3.868   1.902   6.223
 4560POPC   C2B59648   3.692   2.242   6.509
 4560POPC   C3B59649   3.821   2.256   6.950
 4560POPC   C4B59650   3.870   1.888   7.228
 4561POPC   NC359651  39.002  34.812   5.285
 4561POPC   PO459652  39.559  34.444   5.526
 4561POPC   GL159653  39.275  34.416   5.846
 4561POPC   GL259654  39.100  34.698   5.786
 4561POPC   C1A59655  39.154  34.424   6.276
 4561POPC   D2A59656  38.970  34.748   6.532
 4561POPC   C3A59657  39.089  34.645   6.920
 4561POPC   C4A59658  39.256  34.241   7.070
 4561POPC   C1B59659  39.280  34.916   6.133
 4561POPC   C2B59660  39.469  34.781   6.524
 4561POPC   C3B59661  39.578  34.841   6.939
 4561POPC   C4B59662  39.397  34.727   7.318
 4562POPC   NC359663   5.427  22.191   5.433
 4562POPC   PO459664   4.893  22.493   5.539
 4562POPC   GL159665   5.137  22.289   5.860
 4562POPC   GL259666   5.206  21.957   5.828
 4562POPC   C1A59667   5.320  22.148   6.280
 4562POPC   D2A59668   5.104  22.158   6.663
 4562POPC   C3A59669   5.288  22.089   7.057
 4562POPC   C4A59670   5.083  22.270   7.381
 4562POPC   C1B59671   4.846  21.963   6.167
 4562POPC   C2B59672   4.650  21.938   6.609
 4562POPC   C3B59673   4.753  22.002   7.085
 4562POPC   C4B59674   4.749  21.820   7.539
 4563POPC   NC359675  12.224  17.175   5.407
 4563POPC   PO459676  12.001  17.816   5.549
 4563POPC   GL159677  11.835  17.501   5.809
 4563POPC   GL259678  12.129  17.310   5.887
 4563POPC   C1A59679  11.880  17.587   6.237
 4563POPC   D2A59680  12.124  17.689   6.598
 4563POPC   C3A59681  11.845  17.481   6.871
 4563POPC   C4A59682  11.841  17.276   7.279
 4563POPC   C1B59683  12.403  17.558   6.158
 4563POPC   C2B59684  12.623  17.516   6.553
 4563POPC   C3B59685  12.534  17.466   6.985
 4563POPC   C4B59686  12.198  17.640   7.167
 4564POPC   NC359687  20.949   1.926   5.164
 4564POPC   PO459688  20.898   2.485   5.464
 4564POPC   GL159689  20.720   2.133   5.753
 4564POPC   GL259690  20.350   2.231   5.788
 4564POPC   C1A59691  20.804   1.738   6.080
 4564POPC   D2A59692  20.914   1.464   6.502
 4564POPC   C3A59693  20.723   1.571   6.918
 4564POPC   C4A59694  20.851   1.803   7.287
 4564POPC   C1B59695  20.457   2.097   6.218
 4564POPC   C2B59696  20.287   1.981   6.630
 4564POPC   C3B59697  20.388   1.962   7.081
 4564POPC   C4B59698  20.174   2.068   7.458
 4565POPC   NC359699   8.474  11.084   5.326
 4565POPC   PO459700   9.243  11.190   5.321
 4565POPC   GL159701   9.097  11.200   5.767
 4565POPC   GL259702   9.212  11.513   5.908
 4565POPC   C1A59703   8.990  11.077   6.224
 4565POPC   D2A59704   8.729  10.918   6.601
 4565POPC   C3A59705   8.897  11.027   7.022
 4565POPC   C4A59706   8.697  10.974   7.452
 4565POPC   C1B59707   9.035  11.580   6.283
 4565POPC   C2B59708   8.754  11.426   6.565
 4565POPC   C3B59709   8.588  11.412   6.945
 4565POPC   C4B59710   8.819  11.441   7.313
 4566POPC   NC359711  28.241  27.259   5.319
 4566POPC   PO459712  28.643  26.693   5.052
 4566POPC   GL159713  28.622  26.954   5.548
 4566POPC   GL259714  28.365  27.070   5.796
 4566POPC   C1A59715  28.811  27.008   6.018
 4566POPC   D2A59716  28.822  26.935   6.502
 4566POPC   C3A59717  28.734  27.046   6.976
 4566POPC   C4A59718  28.491  26.908   7.338
 4566POPC   C1B59719  28.192  26.840   6.152
 4566POPC   C2B59720  28.301  26.889   6.587
 4566POPC   C3B59721  28.168  26.727   6.963
 4566POPC   C4B59722  27.994  26.894   7.311
 4567POPC   NC359723  33.183  20.076   5.421
 4567POPC   PO459724  32.923  19.494   5.480
 4567POPC   GL159725  33.143  19.686   5.805
 4567POPC   GL259726  32.917  19.976   5.852
 4567POPC   C1A59727  33.079  19.621   6.249
 4567POPC   D2A59728  32.838  19.785   6.592
 4567POPC   C3A59729  32.835  19.581   7.004
 4567POPC   C4A59730  32.789  19.591   7.454
 4567POPC   C1B59731  33.273  20.081   6.113
 4567POPC   C2B59732  33.195  20.179   6.539
 4567POPC   C3B59733  33.159  20.004   6.958
 4567POPC   C4B59734  33.365  19.764   7.274
 4568POPC   NC359735  13.981  30.579   5.106
 4568POPC   PO459736  14.647  30.700   5.487
 4568POPC   GL159737  14.497  30.608   5.860
 4568POPC   GL259738  14.164  30.620   5.853
 4568POPC   C1A59739  14.420  30.875   6.206
 4568POPC   D2A59740  14.239  30.883   6.585
 4568POPC   C3A59741  14.532  30.722   6.886
 4568POPC   C4A59742  14.690  30.616   7.290
 4568POPC   C1B59743  13.906  30.604   6.239
 4568POPC   C2B59744  13.749  30.743   6.622
 4568POPC   C3B59745  13.878  30.678   7.052
 4568POPC   C4B59746  14.211  30.731   7.329
 4569POPC   NC359747   2.510  42.527   5.360
 4569POPC   PO459748   1.905  42.223   5.412
 4569POPC   GL159749   1.951  42.545   5.711
 4569POPC   GL259750   2.029  42.226   5.919
 4569POPC   C1A59751   1.904  42.741   6.150
 4569POPC   D2A59752   1.857  42.483   6.557
 4569POPC   C3A59753   1.749  42.481   7.026
 4569POPC   C4A59754   1.903  42.387   7.475
 4569POPC   C1B59755   1.858  41.995   6.299
 4569POPC   C2B59756   1.831  42.022   6.761
 4569POPC   C3B59757   2.124  42.137   7.090
 4569POPC   C4B59758   2.191  41.910   7.489
 4570POPC   NC359759  10.081  37.430   5.605
 4570POPC   PO459760   9.751  38.015   5.503
 4570POPC   GL159761   9.683  37.893   5.892
 4570POPC   GL259762  10.031  37.847   5.908
 4570POPC   C1A59763   9.762  37.920   6.341
 4570POPC   D2A59764   9.503  37.900   6.701
 4570POPC   C3A59765   9.732  37.816   7.031
 4570POPC   C4A59766   9.787  37.902   7.459
 4570POPC   C1B59767  10.047  37.528   6.235
 4570POPC   C2B59768   9.718  37.402   6.527
 4570POPC   C3B59769   9.578  37.332   6.963
 4570POPC   C4B59770   9.882  37.407   7.303
 4571POPC   NC359771  39.148  36.228   5.368
 4571POPC   PO459772  39.521  35.661   5.425
 4571POPC   GL159773  39.513  35.847   5.788
 4571POPC   GL259774  39.184  35.787   5.853
 4571POPC   C1A59775  39.640  36.038   6.174
 4571POPC   D2A59776  39.477  36.305   6.489
 4571POPC   C3A59777  39.575  36.143   6.894
 4571POPC   C4A59778  39.265  36.169   7.174
 4571POPC   C1B59779  39.205  35.822   6.303
 4571POPC   C2B59780  39.140  35.909   6.720
 4571POPC   C3B59781  39.144  35.677   7.082
 4571POPC   C4B59782  39.542  35.759   7.281
 4572POPC   NC359783  24.391  40.110   5.439
 4572POPC   PO459784  24.615  40.681   5.455
 4572POPC   GL159785  24.822  40.891   5.857
 4572POPC   GL259786  24.506  40.890   6.016
 4572POPC   C1A59787  24.884  40.788   6.345
 4572POPC   D2A59788  24.687  40.623   6.755
 4572POPC   C3A59789  24.623  40.688   7.217
 4572POPC   C4A59790  24.704  40.412   7.608
 4572POPC   C1B59791  24.399  40.955   6.457
 4572POPC   C2B59792  24.377  41.026   6.907
 4572POPC   C3B59793  24.323  41.092   7.347
 4572POPC   C4B59794  24.302  41.403   7.677
 4573POPC   NC359795  11.675  26.034   4.908
 4573POPC   PO459796  11.259  26.373   5.251
 4573POPC   GL159797  11.238  26.157   5.712
 4573POPC   GL259798  10.890  26.089   5.818
 4573POPC   C1A59799  11.430  26.087   6.187
 4573POPC   D2A59800  11.348  26.219   6.660
 4573POPC   C3A59801  11.572  26.164   7.087
 4573POPC   C4A59802  11.569  25.812   7.387
 4573POPC   C1B59803  10.933  26.018   6.260
 4573POPC   C2B59804  10.958  25.898   6.691
 4573POPC   C3B59805  11.066  26.041   7.106
 4573POPC   C4B59806  10.808  26.067   7.479
 4574POPC   NC359807   9.408  27.139   5.472
 4574POPC   PO459808   8.787  26.835   5.482
 4574POPC   GL159809   8.920  26.676   5.847
 4574POPC   GL259810   8.730  26.356   5.814
 4574POPC   C1A59811   9.131  26.558   6.226
 4574POPC   D2A59812   9.312  26.779   6.569
 4574POPC   C3A59813   9.111  26.857   6.975
 4574POPC   C4A59814   8.862  26.786   7.322
 4574POPC   C1B59815   8.611  26.559   6.215
 4574POPC   C2B59816   8.783  26.697   6.614
 4574POPC   C3B59817   8.747  26.439   6.980
 4574POPC   C4B59818   8.445  26.447   7.290
 4575POPC   NC359819  29.898  15.570   5.406
 4575POPC   PO459820  29.846  16.212   5.144
 4575POPC   GL159821  30.032  16.051   5.574
 4575POPC   GL259822  30.304  16.256   5.742
 4575POPC   C1A59823  29.779  15.927   5.983
 4575POPC   D2A59824  29.592  15.935   6.429
 4575POPC   C3A59825  29.827  15.829   6.828
 4575POPC   C4A59826  29.714  15.738   7.264
 4575POPC   C1B59827  30.116  16.296   6.146
 4575POPC   C2B59828  29.946  16.289   6.568
 4575POPC   C3B59829  30.168  16.206   6.946
 4575POPC   C4B59830  30.018  16.204   7.321
 4576POPC   NC359831  19.701  29.184   5.458
 4576POPC   PO459832  20.272  28.846   5.434
 4576POPC   GL159833  20.069  28.864   5.823
 4576POPC   GL259834  19.723  28.814   5.802
 4576POPC   C1A59835  20.217  29.024   6.237
 4576POPC   D2A59836  20.159  29.307   6.587
 4576POPC   C3A59837  20.114  29.126   6.990
 4576POPC   C4A59838  20.038  29.110   7.452
 4576POPC   C1B59839  19.721  28.982   6.226
 4576POPC   C2B59840  19.678  29.150   6.665
 4576POPC   C3B59841  19.629  29.218   7.137
 4576POPC   C4B59842  19.654  29.468   7.550
 4577POPC   NC359843   1.803  22.433   5.591
 4577POPC   PO459844   1.911  21.790   5.586
 4577POPC   GL159845   2.055  22.083   5.917
 4577POPC   GL259846   2.179  22.462   5.924
 4577POPC   C1A59847   2.118  21.904   6.315
 4577POPC   D2A59848   1.913  21.905   6.705
 4577POPC   C3A59849   2.117  21.853   7.130
 4577POPC   C4A59850   2.119  21.714   7.595
 4577POPC   C1B59851   1.924  22.390   6.318
 4577POPC   C2B59852   1.970  22.446   6.764
 4577POPC   C3B59853   1.772  22.218   7.097
 4577POPC   C4B59854   1.866  22.156   7.518
 4578POPC   NC359855  23.798   9.486   5.216
 4578POPC   PO459856  23.423  10.012   5.305
 4578POPC   GL159857  23.593   9.780   5.605
 4578POPC   GL259858  23.348   9.934   5.837
 4578POPC   C1A59859  23.860   9.800   5.963
 4578POPC   D2A59860  23.922  10.072   6.330
 4578POPC   C3A59861  23.714   9.939   6.712
 4578POPC   C4A59862  23.787   9.921   7.137
 4578POPC   C1B59863  23.447   9.835   6.277
 4578POPC   C2B59864  23.550   9.468   6.548
 4578POPC   C3B59865  23.597   9.334   6.996
 4578POPC   C4B59866  23.483   9.625   7.396
 4579POPC   NC359867   2.032  23.366   5.331
 4579POPC   PO459868   2.149  22.757   5.497
 4579POPC   GL159869   2.060  22.986   5.840
 4579POPC   GL259870   1.776  23.202   5.752
 4579POPC   C1A59871   2.089  22.869   6.264
 4579POPC   D2A59872   2.119  23.078   6.636
 4579POPC   C3A59873   2.152  22.866   7.015
 4579POPC   C4A59874   1.978  22.617   7.294
 4579POPC   C1B59875   1.818  23.321   6.186
 4579POPC   C2B59876   1.618  23.351   6.581
 4579POPC   C3B59877   1.736  23.174   6.945
 4579POPC   C4B59878   2.034  23.319   7.213
 4580POPC   NC359879   0.593  23.685   5.729
 4580POPC   PO459880   0.158  24.121   5.404
 4580POPC   GL159881   0.070  23.822   5.776
 4580POPC   GL259882   0.151  23.438   5.829
 4580POPC   C1A59883   0.198  23.875   6.219
 4580POPC   D2A59884   0.491  23.810   6.554
 4580POPC   C3A59885   0.314  23.814   6.964
 4580POPC   C4A59886   0.528  23.726   7.336
 4580POPC   C1B59887   0.318  23.367   6.256
 4580POPC   C2B59888   0.212  23.353   6.683
 4580POPC   C3B59889   0.371  23.315   7.087
 4580POPC   C4B59890   0.391  23.293   7.585
 4581POPC   NC359891  42.816  39.495   5.473
 4581POPC   PO459892  43.177  38.954   5.376
 4581POPC   GL159893  42.993  39.117   5.772
 4581POPC   GL259894  43.318  39.259   5.872
 4581POPC   C1A59895  42.931  39.448   6.133
 4581POPC   D2A59896  43.067  39.379   6.556
 4581POPC   C3A59897  43.177  39.531   6.918
 4581POPC   C4A59898  42.882  39.564   7.226
 4581POPC   C1B59899  43.179  39.002   6.259
 4581POPC   C2B59900  43.176  38.911   6.738
 4581POPC   C3B59901  43.317  39.093   7.138
 4581POPC   C4B59902  43.457  39.239   7.536
 4582POPC   NC359903   5.690  34.094   5.470
 4582POPC   PO459904   5.605  34.724   5.515
 4582POPC   GL159905   5.925  34.576   5.783
 4582POPC   GL259906   6.163  34.321   5.646
 4582POPC   C1A59907   6.121  34.603   6.189
 4582POPC   D2A59908   6.172  34.676   6.598
 4582POPC   C3A59909   5.780  34.675   6.775
 4582POPC   C4A59910   5.744  34.587   7.186
 4582POPC   C1B59911   6.125  34.117   6.057
 4582POPC   C2B59912   5.976  34.199   6.490
 4582POPC   C3B59913   6.123  34.152   6.925
 4582POPC   C4B59914   5.911  34.030   7.328
 4583POPC   NC359915  30.488  13.422   5.236
 4583POPC   PO459916  31.056  13.731   5.391
 4583POPC   GL159917  30.723  13.697   5.692
 4583POPC   GL259918  30.543  13.425   5.741
 4583POPC   C1A59919  30.800  13.670   6.148
 4583POPC   D2A59920  30.683  13.367   6.482
 4583POPC   C3A59921  30.849  13.304   6.897
 4583POPC   C4A59922  30.810  13.602   7.216
 4583POPC   C1B59923  30.331  13.500   6.114
 4583POPC   C2B59924  30.175  13.523   6.536
 4583POPC   C3B59925  30.351  13.539   6.935
 4583POPC   C4B59926  30.284  13.353   7.327
 4584POPC   NC359927   9.196  22.456   5.284
 4584POPC   PO459928   8.734  21.905   5.152
 4584POPC   GL159929   8.796  22.196   5.505
 4584POPC   GL259930   9.132  22.103   5.649
 4584POPC   C1A59931   8.712  22.368   5.932
 4584POPC   D2A59932   8.703  22.328   6.382
 4584POPC   C3A59933   8.596  22.324   6.826
 4584POPC   C4A59934   8.717  22.016   7.128
 4584POPC   C1B59935   9.328  22.335   5.991
 4584POPC   C2B59936   9.211  22.336   6.434
 4584POPC   C3B59937   9.068  22.054   6.761
 4584POPC   C4B59938   9.215  21.967   7.197
 4585POPC   NC359939  40.601   4.166   5.362
 4585POPC   PO459940  40.940   4.756   5.329
 4585POPC   GL159941  40.788   4.519   5.701
 4585POPC   GL259942  40.919   4.183   5.762
 4585POPC   C1A59943  40.585   4.364   6.120
 4585POPC   D2A59944  40.739   4.133   6.500
 4585POPC   C3A59945  40.674   4.294   6.911
 4585POPC   C4A59946  40.925   4.512   7.165
 4585POPC   C1B59947  41.014   3.909   6.089
 4585POPC   C2B59948  41.148   3.808   6.499
 4585POPC   C3B59949  41.099   3.979   6.906
 4585POPC   C4B59950  41.158   4.047   7.353
 4586POPC   NC359951  37.905   3.986   5.529
 4586POPC   PO459952  37.396   4.430   5.349
 4586POPC   GL159953  37.619   4.410   5.738
 4586POPC   GL259954  37.982   4.456   5.785
 4586POPC   C1A59955  37.558   4.446   6.182
 4586POPC   D2A59956  37.631   4.223   6.542
 4586POPC   C3A59957  37.523   4.380   6.933
 4586POPC   C4A59958  37.679   4.233   7.299
 4586POPC   C1B59959  37.982   4.151   6.148
 4586POPC   C2B59960  38.086   3.960   6.537
 4586POPC   C3B59961  37.969   4.084   6.915
 4586POPC   C4B59962  38.029   3.871   7.290
 4587POPC   NC359963  32.864  16.237   5.584
 4587POPC   PO459964  33.169  16.797   5.496
 4587POPC   GL159965  32.952  16.771   5.880
 4587POPC   GL259966  32.695  16.602   5.942
 4587POPC   C1A59967  32.817  16.958   6.289
 4587POPC   D2A59968  33.036  16.979   6.661
 4587POPC   C3A59969  33.244  16.622   6.786
 4587POPC   C4A59970  33.330  16.668   7.200
 4587POPC   C1B59971  32.923  16.435   6.303
 4587POPC   C2B59972  32.760  16.492   6.714
 4587POPC   C3B59973  32.711  16.785   7.045
 4587POPC   C4B59974  32.449  17.001   7.374
 4588POPC   NC359975   5.759  44.186   5.603
 4588POPC   PO459976   5.953  43.528   5.492
 4588POPC   GL159977   5.916  43.565   5.902
 4588POPC   GL259978   5.957  43.950   5.991
 4588POPC   C1A59979   6.068  43.587   6.307
 4588POPC   D2A59980   6.046  43.881   6.607
 4588POPC   C3A59981   6.062  43.684   6.992
 4588POPC   C4A59982   6.093  43.816   7.409
 4588POPC   C1B59983   5.679  44.203   6.284
 4588POPC   C2B59984   5.818  44.327   6.701
 4588POPC   C3B59985   6.015  44.197   7.066
 4588POPC   C4B59986   5.641  44.007   7.208
 4589POPC   NC359987   3.548  39.562   5.406
 4589POPC   PO459988   3.483  38.966   5.607
 4589POPC   GL159989   3.416  39.268   5.852
 4589POPC   GL259990   3.744  39.402   5.857
 4589POPC   C1A59991   3.318  39.234   6.270
 4589POPC   D2A59992   3.219  38.932   6.600
 4589POPC   C3A59993   3.197  39.196   6.948
 4589POPC   C4A59994   3.457  39.384   7.273
 4589POPC   C1B59995   3.821  39.234   6.266
 4589POPC   C2B59996   3.638  39.230   6.699
 4589POPC   C3B59997   3.773  39.016   7.087
 4589POPC   C4B59998   3.843  39.150   7.560
 4590POPC   NC359999  27.923   8.874   5.462
 4590POPC   PO460000  27.273   9.037   5.418
 4590POPC   GL160001  27.419   9.140   5.843
 4590POPC   GL260002  27.608   8.852   5.915
 4590POPC   C1A60003  27.661   9.231   6.266
 4590POPC   D2A60004  27.486   9.336   6.696
 4590POPC   C3A60005  27.552   9.252   7.167
 4590POPC   C4A60006  27.703   8.948   7.503
 4590POPC   C1B60007  27.382   8.812   6.327
 4590POPC   C2B60008  27.223   8.655   6.725
 4590POPC   C3B60009  27.318   8.773   7.167
 4590POPC   C4B60010  27.085   8.819   7.557
 4591POPC   NC360011  20.265  34.379   5.537
 4591POPC   PO460012  19.613  34.641   5.462
 4591POPC   GL160013  19.859  34.607   5.787
 4591POPC   GL260014  19.849  34.258   5.812
 4591POPC   C1A60015  20.028  34.599   6.193
 4591POPC   D2A60016  20.073  34.769   6.580
 4591POPC   C3A60017  19.787  34.824   6.928
 4591POPC   C4A60018  19.399  34.745   7.169
 4591POPC   C1B60019  19.613  34.266   6.195
 4591POPC   C2B60020  19.587  34.460   6.618
 4591POPC   C3B60021  19.727  34.320   7.027
 4591POPC   C4B60022  20.152  34.398   7.114
 4592POPC   NC360023  39.585   8.312   5.388
 4592POPC   PO460024  38.855   8.477   5.436
 4592POPC   GL160025  39.194   8.308   5.750
 4592POPC   GL260026  39.518   8.105   5.839
 4592POPC   C1A60027  39.338   8.442   6.190
 4592POPC   D2A60028  39.095   8.308   6.568
 4592POPC   C3A60029  39.167   8.448   6.989
 4592POPC   C4A60030  39.162   8.180   7.347
 4592POPC   C1B60031  39.597   7.733   6.137
 4592POPC   C2B60032  39.581   7.565   6.582
 4592POPC   C3B60033  39.461   7.805   6.974
 4592POPC   C4B60034  39.529   7.857   7.431
 4593POPC   NC360035  16.492  29.652   5.658
 4593POPC   PO460036  17.112  29.892   5.519
 4593POPC   GL160037  16.864  30.055   5.823
 4593POPC   GL260038  16.548  30.185   5.688
 4593POPC   C1A60039  16.764  29.900   6.227
 4593POPC   D2A60040  16.616  29.769   6.618
 4593POPC   C3A60041  16.856  29.896   6.961
 4593POPC   C4A60042  16.787  29.728   7.336
 4593POPC   C1B60043  16.307  30.181   6.054
 4593POPC   C2B60044  16.259  30.130   6.489
 4593POPC   C3B60045  16.423  30.169   6.908
 4593POPC   C4B60046  16.326  29.941   7.276
 4594POPC   NC360047   4.181  11.646   5.170
 4594POPC   PO460048   4.878  11.657   5.535
 4594POPC   GL160049   4.663  11.854   5.861
 4594POPC   GL260050   4.305  11.900   5.815
 4594POPC   C1A60051   4.632  12.104   6.213
 4594POPC   D2A60052   4.760  12.326   6.580
 4594POPC   C3A60053   4.607  12.119   6.960
 4594POPC   C4A60054   4.308  12.224   7.308
 4594POPC   C1B60055   4.150  11.932   6.217
 4594POPC   C2B60056   4.358  11.874   6.589
 4594POPC   C3B60057   4.101  11.960   6.942
 4594POPC   C4B60058   3.942  11.746   7.300
 4595POPC   NC360059   4.631  24.281   5.093
 4595POPC   PO460060   4.208  24.264   5.692
 4595POPC   GL160061   4.293  24.603   5.995
 4595POPC   GL260062   4.159  24.911   5.875
 4595POPC   C1A60063   4.280  24.693   6.442
 4595POPC   D2A60064   4.460  24.478   6.780
 4595POPC   C3A60065   4.336  24.350   7.141
 4595POPC   C4A60066   4.048  24.074   7.059
 4595POPC   C1B60067   3.980  25.075   6.293
 4595POPC   C2B60068   3.800  24.837   6.625
 4595POPC   C3B60069   3.980  24.656   6.949
 4595POPC   C4B60070   3.950  24.658   7.375
 4596POPC   NC360071  13.410  15.145   5.365
 4596POPC   PO460072  13.987  15.028   5.400
 4596POPC   GL160073  13.800  15.169   5.813
 4596POPC   GL260074  13.682  15.498   5.692
 4596POPC   C1A60075  13.729  15.165   6.317
 4596POPC   D2A60076  13.412  15.045   6.648
 4596POPC   C3A60077  13.525  14.881   7.059
 4596POPC   C4A60078  13.761  14.899   7.422
 4596POPC   C1B60079  13.466  15.554   6.105
 4596POPC   C2B60080  13.451  15.554   6.587
 4596POPC   C3B60081  13.468  15.570   7.073
 4596POPC   C4B60082  13.421  15.273   7.425
 4597POPC   NC360083  30.467  37.042   5.299
 4597POPC   PO460084  30.789  37.547   5.526
 4597POPC   GL160085  30.810  37.144   5.802
 4597POPC   GL260086  30.542  36.982   5.841
 4597POPC   C1A60087  30.871  37.028   6.265
 4597POPC   D2A60088  30.808  37.285   6.692
 4597POPC   C3A60089  31.040  37.132   7.088
 4597POPC   C4A60090  31.171  36.908   7.455
 4597POPC   C1B60091  30.463  36.713   6.219
 4597POPC   C2B60092  30.694  36.468   6.514
 4597POPC   C3B60093  30.790  36.771   6.817
 4597POPC   C4B60094  30.521  37.034   7.085
 4598POPC   NC360095  40.255  16.895   5.182
 4598POPC   PO460096  39.781  16.528   5.366
 4598POPC   GL160097  39.951  16.831   5.690
 4598POPC   GL260098  40.026  16.527   5.823
 4598POPC   C1A60099  40.113  16.899   6.163
 4598POPC   D2A60100  39.985  16.918   6.621
 4598POPC   C3A60101  40.002  16.976   7.095
 4598POPC   C4A60102  39.688  16.879   7.454
 4598POPC   C1B60103  39.769  16.391   6.171
 4598POPC   C2B60104  39.626  16.532   6.553
 4598POPC   C3B60105  39.667  16.475   6.967
 4598POPC   C4B60106  40.050  16.468   7.186
 4599POPC   NC360107  21.879  13.795   5.231
 4599POPC   PO460108  22.041  13.217   5.509
 4599POPC   GL160109  22.183  13.354   5.898
 4599POPC   GL260110  22.080  13.697   5.961
 4599POPC   C1A60111  22.146  13.194   6.292
 4599POPC   D2A60112  22.056  13.453   6.643
 4599POPC   C3A60113  22.152  13.311   7.040
 4599POPC   C4A60114  22.182  13.354   7.504
 4599POPC   C1B60115  22.372  13.760   6.346
 4599POPC   C2B60116  22.421  13.750   6.829
 4599POPC   C3B60117  22.158  13.794   7.229
 4599POPC   C4B60118  22.064  13.833   7.684
 4600POPC   NC360119   8.861  28.947   5.369
 4600POPC   PO460120   8.444  29.545   5.474
 4600POPC   GL160121   8.714  29.305   5.748
 4600POPC   GL260122   8.681  28.951   5.854
 4600POPC   C1A60123   9.017  29.258   6.103
 4600POPC   D2A60124   9.090  29.352   6.538
 4600POPC   C3A60125   9.026  29.077   6.875
 4600POPC   C4A60126   9.069  29.159   7.312
 4600POPC   C1B60127   9.065  28.747   6.076
 4600POPC   C2B60128   9.244  28.739   6.503
 4600POPC   C3B60129   9.030  28.572   6.875
 4600POPC   C4B60130   8.784  28.742   7.212
 4601POPC   NC360131  37.108  43.944   5.450
 4601POPC   PO460132  36.611  43.443   5.536
 4601POPC   GL160133  36.779  43.806   5.814
 4601POPC   GL260134  37.175  43.801   5.927
 4601POPC   C1A60135  36.817  44.023   6.221
 4601POPC   D2A60136  37.060  43.819   6.551
 4601POPC   C3A60137  36.790  43.687   6.863
 4601POPC   C4A60138  36.771  43.934   7.184
 4601POPC   C1B60139  37.312  44.146   6.233
 4601POPC   C2B60140  37.168  44.306   6.677
 4601POPC   C3B60141  37.266  44.046   7.044
 4601POPC   C4B60142  37.219  43.594   7.120
 4602POPC   NC360143  22.419   0.257   5.226
 4602POPC   PO460144  22.087   0.708   5.555
 4602POPC   GL160145  22.258   0.503   5.851
 4602POPC   GL260146  22.310   0.155   5.729
 4602POPC   C1A60147  22.209   0.372   6.248
 4602POPC   D2A60148  22.115   0.529   6.634
 4602POPC   C3A60149  22.488   0.570   6.872
 4602POPC   C4A60150  22.506   0.475   7.282
 4602POPC   C1B60151  22.374  44.905   6.117
 4602POPC   C2B60152  22.313  44.964   6.558
 4602POPC   C3B60153  22.255   0.131   6.968
 4602POPC   C4B60154  22.520  44.974   7.296
 4603POPC   NC360155  42.063  12.666   5.439
 4603POPC   PO460156  42.430  13.251   5.551
 4603POPC   GL160157  42.639  13.005   5.853
 4603POPC   GL260158  42.410  12.772   5.802
 4603POPC   C1A60159  42.518  13.047   6.269
 4603POPC   D2A60160  42.137  13.094   6.493
 4603POPC   C3A60161  42.328  13.031   6.880
 4603POPC   C4A60162  42.320  12.872   7.285
 4603POPC   C1B60163  42.193  12.637   6.159
 4603POPC   C2B60164  42.281  12.581   6.588
 4603POPC   C3B60165  42.064  12.549   6.976
 4603POPC   C4B60166  42.299  12.318   7.265
 4604POPC   NC360167  40.147  21.939   5.241
 4604POPC   PO460168  39.772  22.406   5.423
 4604POPC   GL160169  39.943  22.256   5.766
 4604POPC   GL260170  40.052  21.914   5.750
 4604POPC   C1A60171  39.931  22.172   6.175
 4604POPC   D2A60172  40.139  22.118   6.544
 4604POPC   C3A60173  39.913  22.188   6.905
 4604POPC   C4A60174  39.665  22.361   7.219
 4604POPC   C1B60175  40.360  21.858   6.127
 4604POPC   C2B60176  40.373  21.662   6.551
 4604POPC   C3B60177  40.370  21.887   6.930
 4604POPC   C4B60178  40.486  21.826   7.334
 4605POPC   NC360179  19.869  31.546   4.931
 4605POPC   PO460180  19.641  31.138   5.382
 4605POPC   GL160181  19.826  31.406   5.703
 4605POPC   GL260182  19.837  31.188   5.958
 4605POPC   C1A60183  19.932  31.693   6.049
 4605POPC   D2A60184  19.807  31.790   6.515
 4605POPC   C3A60185  20.000  31.755   6.945
 4605POPC   C4A60186  20.132  31.992   7.318
 4605POPC   C1B60187  19.525  31.475   6.200
 4605POPC   C2B60188  19.371  31.494   6.614
 4605POPC   C3B60189  19.482  31.563   7.018
 4605POPC   C4B60190  19.826  31.253   7.146
 4606POPC   NC360191   3.115  42.994   5.372
 4606POPC   PO460192   3.576  43.457   5.262
 4606POPC   GL160193   3.413  43.258   5.691
 4606POPC   GL260194   3.619  42.983   5.810
 4606POPC   C1A60195   3.200  43.062   6.108
 4606POPC   D2A60196   3.231  42.835   6.527
 4606POPC   C3A60197   3.461  43.025   6.889
 4606POPC   C4A60198   3.363  43.275   7.269
 4606POPC   C1B60199   3.708  43.060   6.273
 4606POPC   C2B60200   4.007  43.018   6.643
 4606POPC   C3B60201   3.958  42.825   7.037
 4606POPC   C4B60202   3.658  42.845   7.346
 4607POPC   NC360203   9.920  22.601   5.357
 4607POPC   PO460204   9.494  22.059   5.265
 4607POPC   GL160205   9.686  22.162   5.651
 4607POPC   GL260206   9.593  21.858   5.836
 4607POPC   C1A60207   9.847  22.310   6.076
 4607POPC   D2A60208   9.706  22.387   6.517
 4607POPC   C3A60209   9.892  22.246   6.942
 4607POPC   C4A60210   9.814  22.308   7.409
 4607POPC   C1B60211   9.661  21.881   6.315
 4607POPC   C2B60212   9.812  21.738   6.746
 4607POPC   C3B60213   9.709  21.828   7.186
 4607POPC   C4B60214   9.527  21.925   7.621
 4608POPC   NC360215  38.183  44.870   5.760
 4608POPC   PO460216  37.824  44.501   5.301
 4608POPC   GL160217  37.605  44.494   5.753
 4608POPC   GL260218  37.401  44.798   5.869
 4608POPC   C1A60219  37.658  44.524   6.237
 4608POPC   D2A60220  37.470  44.721   6.658
 4608POPC   C3A60221  37.518  44.521   7.068
 4608POPC   C4A60222  37.374  44.518   7.507
 4608POPC   C1B60223  37.531  44.991   6.235
 4608POPC   C2B60224  37.922  44.924   6.517
 4608POPC   C3B60225  37.854  44.946   6.972
 4608POPC   C4B60226  37.419   0.053   7.115
 4609POPC   NC360227  34.013   5.471   5.459
 4609POPC   PO460228  33.603   4.934   5.421
 4609POPC   GL160229  33.489   5.061   5.822
 4609POPC   GL260230  33.524   5.447   5.821
 4609POPC   C1A60231  33.579   4.860   6.231
 4609POPC   D2A60232  33.568   5.104   6.623
 4609POPC   C3A60233  33.410   5.029   7.057
 4609POPC   C4A60234  33.393   4.967   7.530
 4609POPC   C1B60235  33.877   5.278   6.120
 4609POPC   C2B60236  34.051   5.306   6.564
 4609POPC   C3B60237  33.848   5.376   6.970
 4609POPC   C4B60238  33.840   5.152   7.338
 4610POPC   NC360239  27.443  15.278   5.411
 4610POPC   PO460240  27.970  14.882   5.465
 4610POPC   GL160241  27.833  15.207   5.782
 4610POPC   GL260242  27.484  15.267   5.923
 4610POPC   C1A60243  27.862  15.241   6.243
 4610POPC   D2A60244  27.593  15.231   6.620
 4610POPC   C3A60245  27.813  15.331   6.998
 4610POPC   C4A60246  27.864  15.220   7.405
 4610POPC   C1B60247  27.290  15.046   6.254
 4610POPC   C2B60248  27.285  14.786   6.611
 4610POPC   C3B60249  27.324  14.972   6.991
 4610POPC   C4B60250  27.299  15.401   7.063
 4611POPC   NC360251  11.369   4.290   5.233
 4611POPC   PO460252  12.036   4.510   5.411
 4611POPC   GL160253  12.190   4.316   5.817
 4611POPC   GL260254  12.192   4.601   6.039
 4611POPC   C1A60255  11.943   4.197   6.236
 4611POPC   D2A60256  11.795   4.513   6.540
 4611POPC   C3A60257  11.750   4.391   6.971
 4611POPC   C4A60258  11.841   3.954   7.128
 4611POPC   C1B60259  12.403   4.319   6.338
 4611POPC   C2B60260  12.207   4.209   6.751
 4611POPC   C3B60261  12.229   4.404   7.171
 4611POPC   C4B60262  12.168   4.730   7.513
 4612POPC   NC360263  38.917   9.008   5.454
 4612POPC   PO460264  39.600   8.852   5.460
 4612POPC   GL160265  39.337   9.060   5.782
 4612POPC   GL260266  39.104   8.801   5.879
 4612POPC   C1A60267  39.286   9.116   6.245
 4612POPC   D2A60268  39.216   8.805   6.588
 4612POPC   C3A60269  39.189   9.028   6.978
 4612POPC   C4A60270  39.439   9.420   7.027
 4612POPC   C1B60271  38.788   9.009   6.150
 4612POPC   C2B60272  38.775   9.062   6.576
 4612POPC   C3B60273  38.662   8.902   6.946
 4612POPC   C4B60274  38.806   8.998   7.320
 4613POPC   NC360275   5.544   5.623   5.478
 4613POPC   PO460276   6.132   5.945   5.513
 4613POPC   GL160277   5.823   5.833   5.847
 4613POPC   GL260278   5.528   6.064   5.923
 4613POPC   C1A60279   5.920   5.704   6.269
 4613POPC   D2A60280   6.148   5.789   6.663
 4613POPC   C3A60281   5.807   5.926   6.974
 4613POPC   C4A60282   5.627   5.821   7.390
 4613POPC   C1B60283   5.888   6.244   6.145
 4613POPC   C2B60284   5.970   6.271   6.583
 4613POPC   C3B60285   6.235   6.210   6.943
 4613POPC   C4B60286   6.101   6.121   7.381
 4614POPC   NC360287  41.210  12.205   5.081
 4614POPC   PO460288  41.804  12.232   5.449
 4614POPC   GL160289  41.633  12.084   5.824
 4614POPC   GL260290  41.356  11.942   5.650
 4614POPC   C1A60291  41.687  12.087   6.284
 4614POPC   D2A60292  41.711  11.891   6.701
 4614POPC   C3A60293  41.629  12.204   7.005
 4614POPC   C4A60294  41.816  12.324   7.394
 4614POPC   C1B60295  41.279  11.790   6.092
 4614POPC   C2B60296  41.222  11.972   6.522
 4614POPC   C3B60297  41.248  11.788   6.933
 4614POPC   C4B60298  41.483  11.817   7.335
 4615POPC   NC360299   4.236  29.379   5.420
 4615POPC   PO460300   4.364  28.675   5.408
 4615POPC   GL160301   4.364  28.993   5.761
 4615POPC   GL260302   4.008  28.934   5.815
 4615POPC   C1A60303   4.212  29.326   6.124
 4615POPC   D2A60304   3.997  29.460   6.549
 4615POPC   C3A60305   4.122  29.388   7.002
 4615POPC   C4A60306   4.368  29.048   7.194
 4615POPC   C1B60307   4.170  28.837   6.238
 4615POPC   C2B60308   4.112  28.966   6.677
 4615POPC   C3B60309   3.888  28.888   7.063
 4615POPC   C4B60310   3.903  29.000   7.508
 4616POPC   NC360311  35.398  11.317   5.222
 4616POPC   PO460312  35.214  10.731   5.065
 4616POPC   GL160313  35.196  10.939   5.519
 4616POPC   GL260314  35.534  10.997   5.646
 4616POPC   C1A60315  35.150  11.101   6.002
 4616POPC   D2A60316  35.264  11.191   6.453
 4616POPC   C3A60317  35.120  11.190   6.882
 4616POPC   C4A60318  35.353  11.401   7.232
 4616POPC   C1B60319  35.652  11.045   6.068
 4616POPC   C2B60320  35.734  10.996   6.503
 4616POPC   C3B60321  35.659  11.137   6.899
 4616POPC   C4B60322  35.681  10.998   7.310
 4617POPC   NC360323   1.768  33.450   5.378
 4617POPC   PO460324   1.640  34.111   5.267
 4617POPC   GL160325   1.843  33.850   5.681
 4617POPC   GL260326   1.641  33.545   5.862
 4617POPC   C1A60327   2.088  33.672   6.066
 4617POPC   D2A60328   2.063  33.783   6.509
 4617POPC   C3A60329   2.127  33.562   6.897
 4617POPC   C4A60330   2.394  33.573   7.271
 4617POPC   C1B60331   1.620  33.878   6.172
 4617POPC   C2B60332   1.633  34.071   6.579
 4617POPC   C3B60333   1.704  33.861   6.956
 4617POPC   C4B60334   1.972  33.835   7.314
 4618POPC   NC360335  37.558   4.840   5.142
 4618POPC   PO460336  37.869   5.406   5.281
 4618POPC   GL160337  37.740   5.283   5.659
 4618POPC   GL260338  37.908   4.950   5.585
 4618POPC   C1A60339  37.742   5.396   6.111
 4618POPC   D2A60340  37.633   5.373   6.566
 4618POPC   C3A60341  37.919   5.448   6.917
 4618POPC   C4A60342  37.862   5.259   7.313
 4618POPC   C1B60343  37.710   4.879   5.963
 4618POPC   C2B60344  37.799   4.900   6.393
 4618POPC   C3B60345  37.740   4.838   6.821
 4618POPC   C4B60346  37.796   4.728   7.246
 4619POPC   NC360347  26.968  37.197   5.520
 4619POPC   PO460348  26.874  37.870   5.379
 4619POPC   GL160349  26.687  37.744   5.756
 4619POPC   GL260350  26.499  37.440   5.703
 4619POPC   C1A60351  26.635  37.887   6.194
 4619POPC   D2A60352  26.864  38.105   6.541
 4619POPC   C3A60353  26.935  37.812   6.889
 4619POPC   C4A60354  26.765  37.643   7.275
 4619POPC   C1B60355  26.401  37.408   6.158
 4619POPC   C2B60356  26.571  37.454   6.601
 4619POPC   C3B60357  26.418  37.325   7.008
 4619POPC   C4B60358  26.333  37.421   7.444
 4620POPC   NC360359   7.274   4.296   5.341
 4620POPC   PO460360   7.669   3.898   5.686
 4620POPC   GL160361   7.425   4.235   5.869
 4620POPC   GL260362   7.271   4.561   5.772
 4620POPC   C1A60363   7.481   4.365   6.287
 4620POPC   D2A60364   7.299   4.090   6.597
 4620POPC   C3A60365   7.465   4.072   7.011
 4620POPC   C4A60366   7.688   4.148   7.375
 4620POPC   C1B60367   7.214   4.787   6.124
 4620POPC   C2B60368   7.192   4.714   6.526
 4620POPC   C3B60369   7.446   4.565   6.808
 4620POPC   C4B60370   7.393   4.543   7.220
 4621POPC   NC360371  42.030   4.918   5.419
 4621POPC   PO460372  42.452   5.467   5.247
 4621POPC   GL160373  42.379   5.255   5.640
 4621POPC   GL260374  42.602   4.959   5.694
 4621POPC   C1A60375  42.325   5.157   6.082
 4621POPC   D2A60376  42.260   5.356   6.464
 4621POPC   C3A60377  42.122   5.105   6.829
 4621POPC   C4A60378  42.211   5.198   7.256
 4621POPC   C1B60379  42.741   4.827   6.122
 4621POPC   C2B60380  42.537   4.889   6.544
 4621POPC   C3B60381  42.616   5.014   6.979
 4621POPC   C4B60382  42.590   4.860   7.400
 4622POPC   NC360383  44.488  12.247   5.367
 4622POPC   PO460384  44.852  11.587   5.355
 4622POPC   GL160385  44.706  11.835   5.746
 4622POPC   GL260386  44.830  12.184   5.746
 4622POPC   C1A60387  44.796  11.973   6.210
 4622POPC   D2A60388  44.550  11.897   6.601
 4622POPC   C3A60389  44.798  11.968   6.982
 4622POPC   C4A60390  44.815  11.882   7.422
 4622POPC   C1B60391  44.449  12.296   6.026
 4622POPC   C2B60392  44.465  12.388   6.471
 4622POPC   C3B60393  44.448  12.345   6.898
 4622POPC   C4B60394  44.421  12.201   7.309
 4623POPC   NC360395  19.116  24.622   5.496
 4623POPC   PO460396  19.032  24.070   5.204
 4623POPC   GL160397  19.134  24.176   5.719
 4623POPC   GL260398  19.453  24.138   5.855
 4623POPC   C1A60399  19.245  24.519   6.111
 4623POPC   D2A60400  19.258  24.532   6.590
 4623POPC   C3A60401  19.063  24.605   7.024
 4623POPC   C4A60402  18.878  24.259   7.216
 4623POPC   C1B60403  19.202  24.044   6.262
 4623POPC   C2B60404  19.076  23.936   6.707
 4623POPC   C3B60405  19.338  24.110   7.033
 4623POPC   C4B60406  19.535  24.495   7.200
 4624POPC   NC360407  39.906  20.034   5.582
 4624POPC   PO460408  40.390  19.586   5.493
 4624POPC   GL160409  40.205  19.576   5.875
 4624POPC   GL260410  39.862  19.550   5.791
 4624POPC   C1A60411  40.038  19.831   6.197
 4624POPC   D2A60412  39.754  19.897   6.530
 4624POPC   C3A60413  39.929  19.955   6.954
 4624POPC   C4A60414  40.226  19.914   7.311
 4624POPC   C1B60415  39.792  19.365   6.165
 4624POPC   C2B60416  39.608  19.395   6.568
 4624POPC   C3B60417  39.816  19.449   6.942
 4624POPC   C4B60418  39.767  19.419   7.359
 4625POPC   NC360419  24.952  14.269   5.501
 4625POPC   PO460420  25.624  14.505   5.385
 4625POPC   GL160421  25.335  14.528   5.726
 4625POPC   GL260422  25.369  14.194   5.799
 4625POPC   C1A60423  25.118  14.523   6.165
 4625POPC   D2A60424  25.201  14.684   6.602
 4625POPC   C3A60425  24.880  14.713   6.921
 4625POPC   C4A60426  24.785  14.606   7.361
 4625POPC   C1B60427  25.583  14.272   6.189
 4625POPC   C2B60428  25.401  14.198   6.595
 4625POPC   C3B60429  25.262  14.375   7.014
 4625POPC   C4B60430  25.635  14.515   7.241
 4626POPC   NC360431  10.192  32.574   5.347
 4626POPC   PO460432  10.710  32.079   5.342
 4626POPC   GL160433  10.504  31.977   5.715
 4626POPC   GL260434  10.298  32.288   5.770
 4626POPC   C1A60435  10.522  32.015   6.173
 4626POPC   D2A60436  10.266  31.977   6.560
 4626POPC   C3A60437  10.433  32.149   7.000
 4626POPC   C4A60438  10.577  31.875   7.372
 4626POPC   C1B60439  10.392  32.522   6.150
 4626POPC   C2B60440  10.463  32.457   6.564
 4626POPC   C3B60441  10.762  32.545   6.853
 4626POPC   C4B60442  10.651  32.633   7.253
 4627POPC   NC360443  18.757  33.755   5.348
 4627POPC   PO460444  18.201  33.878   5.157
 4627POPC   GL160445  18.326  33.696   5.602
 4627POPC   GL260446  18.484  33.996   5.784
 4627POPC   C1A60447  18.301  33.607   6.071
 4627POPC   D2A60448  18.432  33.634   6.525
 4627POPC   C3A60449  18.213  33.590   6.935
 4627POPC   C4A60450  18.309  33.670   7.363
 4627POPC   C1B60451  18.449  34.095   6.247
 4627POPC   C2B60452  18.279  34.083   6.682
 4627POPC   C3B60453  18.111  34.086   7.098
 4627POPC   C4B60454  18.079  34.121   7.544
 4628POPC   NC360455  32.578   4.436   5.379
 4628POPC   PO460456  32.277   3.859   5.463
 4628POPC   GL160457  32.360   4.167   5.828
 4628POPC   GL260458  32.697   4.147   5.908
 4628POPC   C1A60459  32.423   4.348   6.286
 4628POPC   D2A60460  32.555   4.751   6.556
 4628POPC   C3A60461  32.346   4.790   6.997
 4628POPC   C4A60462  32.227   4.392   7.237
 4628POPC   C1B60463  32.728   3.886   6.299
 4628POPC   C2B60464  32.531   3.931   6.717
 4628POPC   C3B60465  32.571   3.996   7.159
 4628POPC   C4B60466  32.560   4.161   7.596
 4629POPC   NC360467  31.242  13.283   5.433
 4629POPC   PO460468  30.615  12.969   5.445
 4629POPC   GL160469  30.911  13.087   5.810
 4629POPC   GL260470  30.590  12.983   6.000
 4629POPC   C1A60471  31.028  12.942   6.249
 4629POPC   D2A60472  30.745  12.858   6.617
 4629POPC   C3A60473  30.921  12.777   7.031
 4629POPC   C4A60474  30.725  12.633   7.412
 4629POPC   C1B60475  30.304  13.052   6.361
 4629POPC   C2B60476  30.222  13.032   6.776
 4629POPC   C3B60477  30.428  12.917   7.120
 4629POPC   C4B60478  30.312  12.888   7.574
 4630POPC   NC360479  11.111  10.987   5.583
 4630POPC   PO460480  10.813  10.391   5.410
 4630POPC   GL160481  10.427  10.403   5.689
 4630POPC   GL260482  10.249  10.731   5.792
 4630POPC   C1A60483  10.410  10.386   6.151
 4630POPC   D2A60484  10.676  10.577   6.480
 4630POPC   C3A60485  10.549  10.500   6.890
 4630POPC   C4A60486  10.366  10.302   7.240
 4630POPC   C1B60487  10.335  10.899   6.244
 4630POPC   C2B60488  10.368  10.964   6.700
 4630POPC   C3B60489  10.377  10.898   7.169
 4630POPC   C4B60490  10.563  10.900   7.570
 4631POPC   NC360491  16.071   0.485   5.159
 4631POPC   PO460492  15.570   0.103   5.299
 4631POPC   GL160493  15.785   0.309   5.697
 4631POPC   GL260494  16.152   0.350   5.654
 4631POPC   C1A60495  15.721   0.439   6.191
 4631POPC   D2A60496  15.670   0.210   6.636
 4631POPC   C3A60497  15.614   0.378   7.068
 4631POPC   C4A60498  15.702   0.281   7.522
 4631POPC   C1B60499  16.223   0.296   6.116
 4631POPC   C2B60500  16.115   0.441   6.576
 4631POPC   C3B60501  16.156   0.289   7.013
 4631POPC   C4B60502  16.531   0.190   7.276
 4632POPC   NC360503  38.257  27.291   5.379
 4632POPC   PO460504  38.537  27.915   5.474
 4632POPC   GL160505  38.265  27.684   5.743
 4632POPC   GL260506  38.401  27.373   5.856
 4632POPC   C1A60507  38.185  27.671   6.188
 4632POPC   D2A60508  38.463  27.813   6.527
 4632POPC   C3A60509  38.423  27.768   6.963
 4632POPC   C4A60510  38.181  27.434   7.049
 4632POPC   C1B60511  38.602  27.343   6.250
 4632POPC   C2B60512  38.522  27.300   6.691
 4632POPC   C3B60513  38.650  27.303   7.117
 4632POPC   C4B60514  38.629  27.247   7.553
 4633POPC   NC360515  22.461  11.529   5.445
 4633POPC   PO460516  21.985  10.974   5.487
 4633POPC   GL160517  22.101  11.055   5.900
 4633POPC   GL260518  22.426  11.211   5.849
 4633POPC   C1A60519  22.052  11.001   6.348
 4633POPC   D2A60520  21.970  11.285   6.689
 4633POPC   C3A60521  21.955  11.074   7.072
 4633POPC   C4A60522  22.159  11.166   7.455
 4633POPC   C1B60523  22.520  11.216   6.269
 4633POPC   C2B60524  22.450  11.087   6.690
 4633POPC   C3B60525  22.410  11.350   7.020
 4633POPC   C4B60526  22.678  11.331   7.365
 4634POPC   NC360527  39.972  41.219   5.574
 4634POPC   PO460528  39.539  41.720   5.594
 4634POPC   GL160529  39.878  41.676   5.908
 4634POPC   GL260530  40.224  41.664   5.767
 4634POPC   C1A60531  39.884  41.514   6.349
 4634POPC   D2A60532  39.781  41.665   6.801
 4634POPC   C3A60533  39.937  41.497   7.239
 4634POPC   C4A60534  40.018  41.469   7.730
 4634POPC   C1B60535  40.342  41.740   6.202
 4634POPC   C2B60536  40.281  41.625   6.644
 4634POPC   C3B60537  40.300  41.788   7.048
 4634POPC   C4B60538  40.381  41.708   7.464
 4635POPC   NC360539  14.201  30.153   5.567
 4635POPC   PO460540  14.735  29.747   5.359
 4635POPC   GL160541  14.671  29.773   5.805
 4635POPC   GL260542  14.488  30.084   5.969
 4635POPC   C1A60543  14.583  29.668   6.238
 4635POPC   D2A60544  14.351  29.910   6.524
 4635POPC   C3A60545  14.534  29.792   6.899
 4635POPC   C4A60546  14.456  29.806   7.313
 4635POPC   C1B60547  14.358  30.370   6.300
 4635POPC   C2B60548  14.162  30.378   6.709
 4635POPC   C3B60549  14.380  30.265   7.102
 4635POPC   C4B60550  14.410  30.256   7.565
 4636POPC   NC360551  30.095  37.970   5.295
 4636POPC   PO460552  30.043  37.276   5.444
 4636POPC   GL160553  29.911  37.565   5.799
 4636POPC   GL260554  30.007  37.937   5.799
 4636POPC   C1A60555  30.041  37.643   6.228
 4636POPC   D2A60556  29.803  37.529   6.539
 4636POPC   C3A60557  29.881  37.609   6.901
 4636POPC   C4A60558  29.978  37.709   7.253
 4636POPC   C1B60559  29.781  38.085   6.174
 4636POPC   C2B60560  29.796  38.033   6.610
 4636POPC   C3B60561  29.764  38.108   7.029
 4636POPC   C4B60562  29.984  38.199   7.396
 4637POPC   NC360563   2.057  25.525   5.445
 4637POPC   PO460564   1.864  24.932   5.171
 4637POPC   GL160565   1.793  25.055   5.644
 4637POPC   GL260566   1.685  25.384   5.780
 4637POPC   C1A60567   1.985  25.099   6.095
 4637POPC   D2A60568   1.956  25.037   6.556
 4637POPC   C3A60569   2.222  25.262   6.828
 4637POPC   C4A60570   2.112  25.441   7.180
 4637POPC   C1B60571   1.706  25.545   6.212
 4637POPC   C2B60572   1.554  25.681   6.626
 4637POPC   C3B60573   1.673  25.346   6.903
 4637POPC   C4B60574   1.641  25.252   7.322
 4638POPC   NC360575  34.563  32.809   4.715
 4638POPC   PO460576  34.295  32.934   5.202
 4638POPC   GL160577  34.270  33.047   5.691
 4638POPC   GL260578  34.077  32.781   5.803
 4638POPC   C1A60579  34.310  33.168   6.177
 4638POPC   D2A60580  34.587  33.074   6.578
 4638POPC   C3A60581  34.732  33.280   7.020
 4638POPC   C4A60582  34.652  33.332   7.495
 4638POPC   C1B60583  34.229  32.658   6.215
 4638POPC   C2B60584  34.149  32.780   6.641
 4638POPC   C3B60585  34.290  33.032   6.994
 4638POPC   C4B60586  34.536  32.866   7.313
 4639POPC   NC360587  31.165  42.830   5.540
 4639POPC   PO460588  31.549  42.245   5.465
 4639POPC   GL160589  31.375  42.390   5.837
 4639POPC   GL260590  31.571  42.676   5.881
 4639POPC   C1A60591  31.576  42.323   6.256
 4639POPC   D2A60592  31.474  42.446   6.649
 4639POPC   C3A60593  31.593  42.191   7.004
 4639POPC   C4A60594  31.376  42.133   7.395
 4639POPC   C1B60595  31.240  42.713   6.242
 4639POPC   C2B60596  30.997  42.612   6.661
 4639POPC   C3B60597  31.186  42.493   7.078
 4639POPC   C4B60598  31.624  42.640   7.236
 4640POPC   NC360599  43.214  24.716   5.390
 4640POPC   PO460600  43.117  24.032   5.389
 4640POPC   GL160601  43.094  24.344   5.783
 4640POPC   GL260602  43.252  24.686   5.884
 4640POPC   C1A60603  42.920  24.461   6.215
 4640POPC   D2A60604  43.062  24.466   6.641
 4640POPC   C3A60605  43.041  24.196   6.966
 4640POPC   C4A60606  43.062  24.468   7.292
 4640POPC   C1B60607  43.386  24.659   6.294
 4640POPC   C2B60608  43.317  24.902   6.654
 4640POPC   C3B60609  43.384  24.972   7.087
 4640POPC   C4B60610  43.528  24.712   7.449
 4641POPC   NC360611   0.756  28.665   5.515
 4641POPC   PO460612   0.160  28.434   5.257
 4641POPC   GL160613   0.284  28.369   5.690
 4641POPC   GL260614   0.574  28.221   5.787
 4641POPC   C1A60615   0.137  28.296   6.114
 4641POPC   D2A60616   0.237  28.540   6.474
 4641POPC   C3A60617   0.222  28.383   6.890
 4641POPC   C4A60618   0.449  28.646   7.179
 4641POPC   C1B60619   0.531  27.951   6.121
 4641POPC   C2B60620   0.535  28.116   6.527
 4641POPC   C3B60621   0.713  28.236   6.910
 4641POPC   C4B60622   0.514  28.151   7.285
 4642POPC   NC360623  32.922  37.816   5.449
 4642POPC   PO460624  33.580  37.925   5.438
 4642POPC   GL160625  33.276  37.963   5.799
 4642POPC   GL260626  33.193  37.622   5.871
 4642POPC   C1A60627  33.148  37.923   6.271
 4642POPC   D2A60628  33.185  37.579   6.596
 4642POPC   C3A60629  33.286  37.652   7.035
 4642POPC   C4A60630  32.957  37.892   7.214
 4642POPC   C1B60631  32.761  37.625   6.084
 4642POPC   C2B60632  32.674  37.549   6.524
 4642POPC   C3B60633  32.815  37.473   6.962
 4642POPC   C4B60634  32.936  37.395   7.425
 4643POPC   NC360635  15.793  26.797   5.535
 4643POPC   PO460636  15.711  27.380   5.468
 4643POPC   GL160637  15.878  27.245   5.862
 4643POPC   GL260638  15.580  27.058   5.908
 4643POPC   C1A60639  16.080  27.156   6.276
 4643POPC   D2A60640  16.220  27.303   6.692
 4643POPC   C3A60641  16.127  27.118   7.125
 4643POPC   C4A60642  16.281  26.827   7.481
 4643POPC   C1B60643  15.696  26.792   6.261
 4643POPC   C2B60644  15.918  26.758   6.655
 4643POPC   C3B60645  15.752  26.742   7.082
 4643POPC   C4B60646  15.389  26.720   7.384
 4644POPC   NC360647  11.947  14.384   5.367
 4644POPC   PO460648  12.555  14.513   5.349
 4644POPC   GL160649  12.234  14.559   5.737
 4644POPC   GL260650  12.087  14.201   5.809
 4644POPC   C1A60651  11.975  14.561   6.129
 4644POPC   D2A60652  12.093  14.517   6.549
 4644POPC   C3A60653  11.942  14.671   6.956
 4644POPC   C4A60654  12.134  14.590   7.352
 4644POPC   C1B60655  12.325  14.065   6.177
 4644POPC   C2B60656  12.139  14.003   6.531
 4644POPC   C3B60657  12.039  14.168   6.927
 4644POPC   C4B60658  11.791  14.217   7.300
 4645POPC   NC360659   8.507  19.474   5.392
 4645POPC   PO460660   7.950  19.184   5.407
 4645POPC   GL160661   8.184  19.184   5.827
 4645POPC   GL260662   8.439  19.434   5.897
 4645POPC   C1A60663   8.193  19.216   6.303
 4645POPC   D2A60664   8.315  19.276   6.760
 4645POPC   C3A60665   8.030  19.128   7.113
 4645POPC   C4A60666   7.913  18.912   7.526
 4645POPC   C1B60667   8.687  19.345   6.282
 4645POPC   C2B60668   8.810  19.446   6.721
 4645POPC   C3B60669   8.627  19.353   7.168
 4645POPC   C4B60670   8.688  19.261   7.640
 4646POPC   NC360671  11.133  11.985   5.537
 4646POPC   PO460672  11.605  12.439   5.487
 4646POPC   GL160673  11.387  12.292   5.871
 4646POPC   GL260674  11.041  12.312   5.900
 4646POPC   C1A60675  11.467  12.020   6.246
 4646POPC   D2A60676  11.567  12.120   6.694
 4646POPC   C3A60677  11.328  11.944   7.071
 4646POPC   C4A60678  11.352  11.823   7.509
 4646POPC   C1B60679  11.054  12.291   6.324
 4646POPC   C2B60680  11.072  12.267   6.745
 4646POPC   C3B60681  11.330  12.468   7.047
 4646POPC   C4B60682  11.405  12.334   7.473
 4647POPC   NC360683  44.020   3.112   5.407
 4647POPC   PO460684  43.629   2.581   5.423
 4647POPC   GL160685  43.874   2.728   5.772
 4647POPC   GL260686  43.857   3.071   5.876
 4647POPC   C1A60687  43.921   2.626   6.216
 4647POPC   D2A60688  44.068   2.466   6.623
 4647POPC   C3A60689  43.826   2.536   7.014
 4647POPC   C4A60690  43.967   2.457   7.416
 4647POPC   C1B60691  43.623   3.043   6.229
 4647POPC   C2B60692  43.739   2.880   6.637
 4647POPC   C3B60693  43.909   3.063   7.006
 4647POPC   C4B60694  43.865   2.940   7.432
 4648POPC   NC360695  30.381  41.954   5.345
 4648POPC   PO460696  29.819  42.358   5.444
 4648POPC   GL160697  29.818  42.390   5.897
 4648POPC   GL260698  30.109  42.170   5.890
 4648POPC   C1A60699  29.861  42.195   6.343
 4648POPC   D2A60700  30.146  42.118   6.701
 4648POPC   C3A60701  30.067  42.206   7.152
 4648POPC   C4A60702  29.790  42.452   7.388
 4648POPC   C1B60703  30.233  42.540   6.164
 4648POPC   C2B60704  30.081  42.637   6.578
 4648POPC   C3B60705  30.285  42.602   6.973
 4648POPC   C4B60706  30.214  42.806   7.387
 4649POPC   NC360707  29.475  35.551   5.083
 4649POPC   PO460708  30.124  35.633   5.349
 4649POPC   GL160709  30.109  35.402   5.773
 4649POPC   GL260710  29.774  35.461   5.927
 4649POPC   C1A60711  30.137  35.215   6.201
 4649POPC   D2A60712  29.923  35.430   6.534
 4649POPC   C3A60713  30.169  35.526   6.899
 4649POPC   C4A60714  30.316  35.224   7.175
 4649POPC   C1B60715  29.687  35.808   6.231
 4649POPC   C2B60716  29.558  35.784   6.659
 4649POPC   C3B60717  29.649  35.467   6.976
 4649POPC   C4B60718  29.888  35.455   7.341
 4650POPC   NC360719  29.052  26.784   5.394
 4650POPC   PO460720  29.654  26.602   5.508
 4650POPC   GL160721  29.428  26.793   5.842
 4650POPC   GL260722  29.147  26.595   5.845
 4650POPC   C1A60723  29.282  26.920   6.275
 4650POPC   D2A60724  29.430  27.075   6.705
 4650POPC   C3A60725  29.271  26.987   7.128
 4650POPC   C4A60726  28.965  27.005   7.484
 4650POPC   C1B60727  28.935  26.490   6.187
 4650POPC   C2B60728  29.153  26.427   6.551
 4650POPC   C3B60729  29.005  26.633   6.868
 4650POPC   C4B60730  28.643  26.512   7.076
 4651POPC   NC360731   5.940  44.787   5.295
 4651POPC   PO460732   6.201  44.124   5.508
 4651POPC   GL160733   6.173  44.475   5.815
 4651POPC   GL260734   6.090  44.859   5.792
 4651POPC   C1A60735   6.049  44.549   6.249
 4651POPC   D2A60736   5.691  44.737   6.444
 4651POPC   C3A60737   5.784  44.800   6.884
 4651POPC   C4A60738   5.689  44.537   7.231
 4651POPC   C1B60739   6.013   0.056   6.214
 4651POPC   C2B60740   6.180   0.182   6.586
 4651POPC   C3B60741   6.205   0.078   7.000
 4651POPC   C4B60742   6.146  44.737   7.244
 4652POPC   NC360743  31.750  32.375   5.466
 4652POPC   PO460744  31.234  32.127   5.196
 4652POPC   GL160745  31.369  32.102   5.659
 4652POPC   GL260746  31.300  32.475   5.727
 4652POPC   C1A60747  31.577  31.981   6.086
 4652POPC   D2A60748  31.614  32.174   6.519
 4652POPC   C3A60749  31.495  32.028   6.911
 4652POPC   C4A60750  31.515  32.330   7.220
 4652POPC   C1B60751  31.487  32.521   6.147
 4652POPC   C2B60752  31.319  32.629   6.572
 4652POPC   C3B60753  31.127  32.537   6.972
 4652POPC   C4B60754  31.147  32.603   7.481
 4653POPC   NC360755  13.135  20.724   5.283
 4653POPC   PO460756  12.484  20.603   5.420
 4653POPC   GL160757  12.815  20.640   5.715
 4653POPC   GL260758  12.852  20.288   5.792
 4653POPC   C1A60759  12.765  20.736   6.165
 4653POPC   D2A60760  12.693  20.547   6.579
 4653POPC   C3A60761  12.824  20.664   7.016
 4653POPC   C4A60762  12.650  20.483   7.455
 4653POPC   C1B60763  12.944  20.262   6.249
 4653POPC   C2B60764  13.028  20.162   6.702
 4653POPC   C3B60765  12.900  20.180   7.124
 4653POPC   C4B60766  13.042  20.168   7.551
 4654POPC   NC360767   3.629  20.449   5.389
 4654POPC   PO460768   3.214  19.909   5.328
 4654POPC   GL160769   3.404  19.942   5.762
 4654POPC   GL260770   3.398  19.631   5.943
 4654POPC   C1A60771   3.556  20.154   6.160
 4654POPC   D2A60772   3.846  20.182   6.530
 4654POPC   C3A60773   3.708  20.021   6.950
 4654POPC   C4A60774   3.467  19.686   7.163
 4654POPC   C1B60775   3.329  19.750   6.365
 4654POPC   C2B60776   3.171  19.771   6.747
 4654POPC   C3B60777   3.090  19.998   7.076
 4654POPC   C4B60778   3.024  19.752   7.446
 4655POPC   NC360779  42.782   1.508   5.361
 4655POPC   PO460780  43.316   1.016   5.434
 4655POPC   GL160781  43.130   1.290   5.682
 4655POPC   GL260782  43.269   1.642   5.643
 4655POPC   C1A60783  42.992   1.143   6.097
 4655POPC   D2A60784  43.111   1.040   6.504
 4655POPC   C3A60785  42.945   0.978   6.912
 4655POPC   C4A60786  43.256   1.152   7.222
 4655POPC   C1B60787  43.004   1.643   6.014
 4655POPC   C2B60788  42.887   1.509   6.430
 4655POPC   C3B60789  43.090   1.456   6.819
 4655POPC   C4B60790  42.846   1.430   7.207
 4656POPC   NC360791  42.545  19.327   5.355
 4656POPC   PO460792  41.943  19.058   5.298
 4656POPC   GL160793  42.121  18.938   5.676
 4656POPC   GL260794  42.458  19.068   5.797
 4656POPC   C1A60795  42.063  18.841   6.096
 4656POPC   D2A60796  42.270  19.026   6.462
 4656POPC   C3A60797  42.036  19.109   6.841
 4656POPC   C4A60798  42.100  18.953   7.251
 4656POPC   C1B60799  42.645  19.262   6.182
 4656POPC   C2B60800  42.750  19.151   6.626
 4656POPC   C3B60801  42.599  18.993   7.024
 4656POPC   C4B60802  42.511  19.277   7.351
 4657POPC   NC360803  28.046  27.962   5.457
 4657POPC   PO460804  28.587  27.574   5.396
 4657POPC   GL160805  28.397  27.578   5.798
 4657POPC   GL260806  28.086  27.522   5.756
 4657POPC   C1A60807  28.309  27.354   6.219
 4657POPC   D2A60808  28.531  27.364   6.626
 4657POPC   C3A60809  28.316  27.343   7.051
 4657POPC   C4A60810  28.610  27.382   7.408
 4657POPC   C1B60811  28.081  27.810   6.127
 4657POPC   C2B60812  28.196  27.746   6.554
 4657POPC   C3B60813  27.963  27.724   6.936
 4657POPC   C4B60814  28.072  27.802   7.329
 4658POPC   NC360815   1.968   9.410   5.498
 4658POPC   PO460816   1.755  10.071   5.375
 4658POPC   GL160817   1.687   9.797   5.772
 4658POPC   GL260818   1.705   9.419   5.933
 4658POPC   C1A60819   1.838   9.839   6.205
 4658POPC   D2A60820   2.140   9.783   6.538
 4658POPC   C3A60821   2.010   9.879   6.936
 4658POPC   C4A60822   2.185  10.252   7.109
 4658POPC   C1B60823   2.140   9.411   6.170
 4658POPC   C2B60824   2.324   9.317   6.600
 4658POPC   C3B60825   2.381   9.525   7.014
 4658POPC   C4B60826   2.196   9.336   7.398
 4659POPC   NC360827  19.996  12.352   5.402
 4659POPC   PO460828  19.635  11.853   5.399
 4659POPC   GL160829  19.863  11.957   5.754
 4659POPC   GL260830  20.194  11.968   5.698
 4659POPC   C1A60831  19.959  11.903   6.193
 4659POPC   D2A60832  20.136  11.772   6.583
 4659POPC   C3A60833  19.913  11.990   6.900
 4659POPC   C4A60834  19.907  11.905   7.312
 4659POPC   C1B60835  20.131  12.343   6.027
 4659POPC   C2B60836  20.124  12.296   6.498
 4659POPC   C3B60837  20.125  12.471   6.932
 4659POPC   C4B60838  19.835  12.429   7.284
 4660POPC   NC360839  41.901  31.316   5.586
 4660POPC   PO460840  41.521  31.880   5.613
 4660POPC   GL160841  41.516  31.555   5.971
 4660POPC   GL260842  41.521  31.187   5.905
 4660POPC   C1A60843  41.352  31.322   6.365
 4660POPC   D2A60844  41.248  31.320   6.817
 4660POPC   C3A60845  41.525  31.591   7.092
 4660POPC   C4A60846  41.794  31.946   7.226
 4660POPC   C1B60847  41.865  31.193   6.224
 4660POPC   C2B60848  42.057  31.255   6.637
 4660POPC   C3B60849  41.950  31.238   7.061
 4660POPC   C4B60850  42.120  31.553   7.282
 4661POPC   NC360851  16.500  41.163   5.403
 4661POPC   PO460852  16.887  41.667   5.119
 4661POPC   GL160853  16.648  41.661   5.608
 4661POPC   GL260854  16.988  41.687   5.796
 4661POPC   C1A60855  16.605  41.583   6.104
 4661POPC   D2A60856  16.795  41.570   6.542
 4661POPC   C3A60857  16.652  41.708   6.959
 4661POPC   C4A60858  16.390  41.378   7.096
 4661POPC   C1B60859  17.130  41.438   6.169
 4661POPC   C2B60860  17.203  41.260   6.565
 4661POPC   C3B60861  17.159  41.465   6.935
 4661POPC   C4B60862  16.923  41.430   7.295
 4662POPC   NC360863  34.298  41.362   5.186
 4662POPC   PO460864  34.753  41.756   5.295
 4662POPC   GL160865  34.623  41.848   5.758
 4662POPC   GL260866  34.264  41.726   5.803
 4662POPC   C1A60867  34.498  41.965   6.239
 4662POPC   D2A60868  34.428  41.913   6.718
 4662POPC   C3A60869  34.713  41.766   7.072
 4662POPC   C4A60870  34.948  41.815   7.467
 4662POPC   C1B60871  34.116  41.591   6.255
 4662POPC   C2B60872  34.014  41.614   6.711
 4662POPC   C3B60873  34.225  41.613   7.108
 4662POPC   C4B60874  34.403  41.808   7.523
 4663POPC   NC360875  17.357  32.878   5.509
 4663POPC   PO460876  17.656  33.539   5.479
 4663POPC   GL160877  17.528  33.288   5.808
 4663POPC   GL260878  17.820  33.038   5.819
 4663POPC   C1A60879  17.439  33.001   6.159
 4663POPC   D2A60880  17.632  32.949   6.546
 4663POPC   C3A60881  17.281  32.925   6.799
 4663POPC   C4A60882  17.211  33.229   7.123
 4663POPC   C1B60883  17.882  32.686   6.142
 4663POPC   C2B60884  17.868  32.487   6.539
 4663POPC   C3B60885  17.728  32.614   6.924
 4663POPC   C4B60886  17.699  33.024   7.078
 4664POPC   NC360887  12.237   7.772   5.515
 4664POPC   PO460888  11.670   7.472   5.249
 4664POPC   GL160889  11.828   7.443   5.668
 4664POPC   GL260890  11.725   7.755   5.715
 4664POPC   C1A60891  12.045   7.547   6.094
 4664POPC   D2A60892  12.206   7.468   6.511
 4664POPC   C3A60893  12.212   7.476   6.961
 4664POPC   C4A60894  12.241   7.116   7.267
 4664POPC   C1B60895  11.640   7.829   6.130
 4664POPC   C2B60896  11.732   7.697   6.522
 4664POPC   C3B60897  11.771   7.768   6.948
 4664POPC   C4B60898  11.809   7.486   7.256
 4665POPC   NC360899  32.507  23.250   5.623
 4665POPC   PO460900  32.038  23.329   5.109
 4665POPC   GL160901  32.134  23.677   5.553
 4665POPC   GL260902  32.468  23.793   5.686
 4665POPC   C1A60903  32.169  23.692   6.087
 4665POPC   D2A60904  32.218  23.787   6.569
 4665POPC   C3A60905  32.230  23.587   6.991
 4665POPC   C4A60906  32.626  23.491   7.231
 4665POPC   C1B60907  32.529  24.098   6.049
 4665POPC   C2B60908  32.554  24.182   6.513
 4665POPC   C3B60909  32.485  24.036   6.956
 4665POPC   C4B60910  32.368  23.927   7.380
 4666POPC   NC360911  27.056  10.250   5.332
 4666POPC   PO460912  26.333  10.331   5.395
 4666POPC   GL160913  26.689  10.368   5.698
 4666POPC   GL260914  26.585  10.118   5.907
 4666POPC   C1A60915  26.903  10.495   6.139
 4666POPC   D2A60916  27.221  10.695   6.474
 4666POPC   C3A60917  27.078  10.748   6.923
 4666POPC   C4A60918  26.957  10.408   7.206
 4666POPC   C1B60919  26.402  10.276   6.269
 4666POPC   C2B60920  26.551  10.394   6.673
 4666POPC   C3B60921  26.479  10.237   7.053
 4666POPC   C4B60922  26.450  10.640   7.199
 4667POPC   NC360923  10.569  21.807   5.437
 4667POPC   PO460924  10.367  22.451   5.388
 4667POPC   GL160925  10.590  22.305   5.746
 4667POPC   GL260926  10.739  21.987   5.864
 4667POPC   C1A60927  10.373  22.192   6.132
 4667POPC   D2A60928  10.154  22.127   6.501
 4667POPC   C3A60929  10.404  22.179   6.860
 4667POPC   C4A60930  10.351  22.026   7.252
 4667POPC   C1B60931  10.733  21.769   6.243
 4667POPC   C2B60932  10.590  21.674   6.646
 4667POPC   C3B60933  10.781  21.830   7.000
 4667POPC   C4B60934  10.851  22.004   7.403
 4668POPC   NC360935  20.626  34.304   5.118
 4668POPC   PO460936  20.580  34.766   5.585
 4668POPC   GL160937  20.632  34.496   5.892
 4668POPC   GL260938  20.952  34.372   5.796
 4668POPC   C1A60939  20.523  34.471   6.316
 4668POPC   D2A60940  20.422  34.395   6.699
 4668POPC   C3A60941  20.665  34.480   7.072
 4668POPC   C4A60942  20.759  34.775   7.398
 4668POPC   C1B60943  21.023  34.425   6.224
 4668POPC   C2B60944  20.924  34.264   6.612
 4668POPC   C3B60945  21.126  34.176   6.966
 4668POPC   C4B60946  20.946  34.134   7.322
 4669POPC   NC360947  22.337   8.168   5.324
 4669POPC   PO460948  21.956   8.744   5.229
 4669POPC   GL160949  22.247   8.604   5.562
 4669POPC   GL260950  22.104   8.295   5.740
 4669POPC   C1A60951  22.442   8.591   5.976
 4669POPC   D2A60952  22.426   8.575   6.453
 4669POPC   C3A60953  22.452   8.336   6.847
 4669POPC   C4A60954  22.092   8.327   7.129
 4669POPC   C1B60955  22.024   8.048   6.095
 4669POPC   C2B60956  21.865   7.883   6.448
 4669POPC   C3B60957  22.063   7.894   6.821
 4669POPC   C4B60958  21.917   7.686   7.140
 4670POPC   NC360959   4.533   4.866   5.477
 4670POPC   PO460960   3.828   5.112   5.420
 4670POPC   GL160961   4.072   4.981   5.745
 4670POPC   GL260962   4.279   5.284   5.742
 4670POPC   C1A60963   4.227   4.867   6.171
 4670POPC   D2A60964   4.030   4.959   6.567
 4670POPC   C3A60965   4.256   4.946   6.943
 4670POPC   C4A60966   4.336   4.684   7.260
 4670POPC   C1B60967   4.511   5.304   6.132
 4670POPC   C2B60968   4.537   5.192   6.575
 4670POPC   C3B60969   4.415   5.440   6.939
 4670POPC   C4B60970   4.230   5.515   7.326
 4671POPC   NC360971  18.217   6.409   5.357
 4671POPC   PO460972  17.930   7.018   5.081
 4671POPC   GL160973  18.177   6.893   5.566
 4671POPC   GL260974  18.455   7.077   5.699
 4671POPC   C1A60975  18.363   6.720   6.065
 4671POPC   D2A60976  18.407   6.502   6.501
 4671POPC   C3A60977  18.369   6.542   6.973
 4671POPC   C4A60978  18.473   6.321   7.395
 4671POPC   C1B60979  18.182   7.179   6.055
 4671POPC   C2B60980  18.165   7.008   6.482
 4671POPC   C3B60981  18.168   7.037   6.942
 4671POPC   C4B60982  17.934   7.012   7.319
 4672POPC   NC360983   3.613   9.853   5.232
 4672POPC   PO460984   3.280   9.453   5.550
 4672POPC   GL160985   3.574   9.718   5.739
 4672POPC   GL260986   3.443  10.058   5.766
 4672POPC   C1A60987   3.745   9.821   6.135
 4672POPC   D2A60988   3.775   9.930   6.563
 4672POPC   C3A60989   3.673   9.611   6.859
 4672POPC   C4A60990   3.659   9.702   7.283
 4672POPC   C1B60991   3.224   9.820   6.114
 4672POPC   C2B60992   3.246   9.802   6.549
 4672POPC   C3B60993   3.325   9.995   6.933
 4672POPC   C4B60994   3.194   9.910   7.315
 4673POPC   NC360995  23.155  23.891   5.210
 4673POPC   PO460996  22.669  23.550   5.338
 4673POPC   GL160997  22.860  23.849   5.687
 4673POPC   GL260998  23.231  23.946   5.718
 4673POPC   C1A60999  22.782  23.941   6.154
 4673POPC   D2A61000  22.735  24.136   6.610
 4673POPC   C3A61001  22.835  23.862   6.972
 4673POPC   C4A61002  22.641  23.767   7.383
 4673POPC   C1B61003  23.305  23.817   6.160
 4673POPC   C2B61004  23.256  23.908   6.620
 4673POPC   C3B61005  23.346  23.803   7.065
 4673POPC   C4B61006  23.127  23.812   7.462
 4674POPC   NC361007  34.356   1.902   5.530
 4674POPC   PO461008  34.966   2.075   5.445
 4674POPC   GL161009  34.682   2.160   5.847
 4674POPC   GL261010  34.316   2.133   5.987
 4674POPC   C1A61011  34.691   2.009   6.283
 4674POPC   D2A61012  34.618   1.770   6.658
 4674POPC   C3A61013  34.787   1.887   7.022
 4674POPC   C4A61014  34.889   2.264   7.096
 4674POPC   C1B61015  34.301   1.688   6.258
 4674POPC   C2B61016  34.135   1.611   6.693
 4674POPC   C3B61017  34.293   1.791   7.073
 4674POPC   C4B61018  34.110   2.029   7.414
 4675POPC   NC361019  20.926  33.644   5.389
 4675POPC   PO461020  20.336  33.972   5.289
 4675POPC   GL161021  20.656  33.980   5.662
 4675POPC   GL261022  20.734  33.627   5.862
 4675POPC   C1A61023  20.704  34.036   6.133
 4675POPC   D2A61024  20.521  33.876   6.522
 4675POPC   C3A61025  20.627  33.974   6.938
 4675POPC   C4A61026  20.673  33.704   7.276
 4675POPC   C1B61027  20.899  33.571   6.309
 4675POPC   C2B61028  20.990  33.626   6.769
 4675POPC   C3B61029  20.929  33.306   7.125
 4675POPC   C4B61030  20.997  33.357   7.588
 4676POPC   NC361031  30.965   8.585   5.435
 4676POPC   PO461032  30.376   8.924   5.444
 4676POPC   GL161033  30.590   9.064   5.805
 4676POPC   GL261034  30.675   8.702   5.859
 4676POPC   C1A61035  30.672   9.363   6.173
 4676POPC   D2A61036  30.857   9.438   6.603
 4676POPC   C3A61037  30.755   9.279   7.008
 4676POPC   C4A61038  30.674   9.337   7.450
 4676POPC   C1B61039  30.792   8.862   6.272
 4676POPC   C2B61040  30.899   8.863   6.718
 4676POPC   C3B61041  30.731   8.805   7.164
 4676POPC   C4B61042  30.605   8.837   7.622
 4677POPC   NC361043  21.585  23.113   5.354
 4677POPC   PO461044  21.223  22.463   5.473
 4677POPC   GL161045  21.367  22.817   5.719
 4677POPC   GL261046  21.101  23.067   5.680
 4677POPC   C1A61047  21.406  23.050   6.121
 4677POPC   D2A61048  21.364  22.942   6.549
 4677POPC   C3A61049  21.623  23.038   6.896
 4677POPC   C4A61050  21.494  22.980   7.340
 4677POPC   C1B61051  20.940  22.848   6.064
 4677POPC   C2B61052  20.966  22.631   6.478
 4677POPC   C3B61053  21.014  22.795   6.897
 4677POPC   C4B61054  21.028  22.706   7.347
 4678POPC   NC361055  34.347  17.907   5.327
 4678POPC   PO461056  34.789  17.359   5.460
 4678POPC   GL161057  34.499  17.569   5.704
 4678POPC   GL261058  34.644  17.852   5.793
 4678POPC   C1A61059  34.341  17.501   6.116
 4678POPC   D2A61060  34.620  17.224   6.355
 4678POPC   C3A61061  34.647  17.186   6.808
 4678POPC   C4A61062  34.770  17.393   7.173
 4678POPC   C1B61063  34.743  17.841   6.222
 4678POPC   C2B61064  34.526  17.886   6.595
 4678POPC   C3B61065  34.374  17.645   6.936
 4678POPC   C4B61066  34.524  17.785   7.333
 4679POPC   NC361067  12.664  37.246   5.303
 4679POPC   PO461068  12.837  36.658   5.480
 4679POPC   GL161069  13.080  36.842   5.798
 4679POPC   GL261070  12.897  37.150   5.752
 4679POPC   C1A61071  13.181  36.642   6.172
 4679POPC   D2A61072  12.873  36.510   6.479
 4679POPC   C3A61073  12.952  36.670   6.884
 4679POPC   C4A61074  13.004  36.714   7.322
 4679POPC   C1B61075  12.763  36.944   6.172
 4679POPC   C2B61076  12.606  36.977   6.615
 4679POPC   C3B61077  12.600  37.028   7.078
 4679POPC   C4B61078  12.868  37.175   7.431
 4680POPC   NC361079  16.142  11.416   5.370
 4680POPC   PO461080  15.597  11.066   5.337
 4680POPC   GL161081  15.766  11.291   5.752
 4680POPC   GL261082  16.101  11.265   5.890
 4680POPC   C1A61083  15.698  11.265   6.230
 4680POPC   D2A61084  15.716  11.056   6.666
 4680POPC   C3A61085  15.902  11.293   7.016
 4680POPC   C4A61086  16.264  11.554   7.161
 4680POPC   C1B61087  16.201  11.125   6.340
 4680POPC   C2B61088  16.227  10.955   6.774
 4680POPC   C3B61089  16.282  11.040   7.246
 4680POPC   C4B61090  16.495  11.309   7.587
 4681POPC   NC361091  43.589  22.684   5.527
 4681POPC   PO461092  43.106  23.211   5.335
 4681POPC   GL161093  43.108  23.080   5.761
 4681POPC   GL261094  43.456  23.099   5.806
 4681POPC   C1A61095  42.949  22.923   6.161
 4681POPC   D2A61096  42.886  23.178   6.525
 4681POPC   C3A61097  42.826  22.981   6.882
 4681POPC   C4A61098  42.986  22.871   7.222
 4681POPC   C1B61099  43.472  22.855   6.189
 4681POPC   C2B61100  43.367  22.909   6.634
 4681POPC   C3B61101  43.448  22.792   7.073
 4681POPC   C4B61102  43.442  23.045   7.452
 4682POPC   NC361103  11.455  16.977   5.206
 4682POPC   PO461104  11.025  16.549   5.451
 4682POPC   GL161105  11.097  16.863   5.780
 4682POPC   GL261106  11.462  16.981   5.763
 4682POPC   C1A61107  11.141  16.775   6.226
 4682POPC   D2A61108  11.254  16.965   6.611
 4682POPC   C3A61109  11.205  16.861   7.042
 4682POPC   C4A61110  11.405  17.052   7.405
 4682POPC   C1B61111  11.582  16.599   6.027
 4682POPC   C2B61112  11.564  16.521   6.500
 4682POPC   C3B61113  11.525  16.471   6.969
 4682POPC   C4B61114  11.382  16.533   7.413
 4683POPC   NC361115  31.058   2.052   5.444
 4683POPC   PO461116  30.415   2.104   5.499
 4683POPC   GL161117  30.588   1.858   5.845
 4683POPC   GL261118  30.964   1.859   5.903
 4683POPC   C1A61119  30.660   1.940   6.284
 4683POPC   D2A61120  30.973   1.966   6.583
 4683POPC   C3A61121  30.794   2.095   6.993
 4683POPC   C4A61122  30.574   2.440   7.203
 4683POPC   C1B61123  31.079   1.553   6.188
 4683POPC   C2B61124  31.265   1.504   6.589
 4683POPC   C3B61125  31.147   1.681   6.978
 4683POPC   C4B61126  30.896   1.748   7.365
 4684POPC   NC361127   1.085  43.270   5.305
 4684POPC   PO461128   1.526  42.846   5.346
 4684POPC   GL161129   1.293  42.970   5.757
 4684POPC   GL261130   0.992  43.207   5.824
 4684POPC   C1A61131   1.297  43.085   6.220
 4684POPC   D2A61132   1.122  43.407   6.517
 4684POPC   C3A61133   1.222  43.291   6.935
 4684POPC   C4A61134   1.446  42.935   7.077
 4684POPC   C1B61135   0.799  43.078   6.234
 4684POPC   C2B61136   0.907  42.798   6.587
 4684POPC   C3B61137   0.907  42.882   7.020
 4684POPC   C4B61138   0.757  43.269   7.176
 4685POPC   NC361139  34.042  23.270   5.082
 4685POPC   PO461140  33.748  22.774   5.369
 4685POPC   GL161141  33.754  23.029   5.728
 4685POPC   GL261142  33.751  22.678   5.884
 4685POPC   C1A61143  33.967  23.056   6.146
 4685POPC   D2A61144  33.921  22.741   6.477
 4685POPC   C3A61145  33.783  22.922   6.866
 4685POPC   C4A61146  33.631  23.077   7.257
 4685POPC   C1B61147  33.870  22.330   6.146
 4685POPC   C2B61148  34.027  22.218   6.517
 4685POPC   C3B61149  33.985  22.427   6.892
 4685POPC   C4B61150  33.819  22.582   7.264
 4686POPC   NC361151  14.038  38.591   4.989
 4686POPC   PO461152  14.506  38.222   5.382
 4686POPC   GL161153  14.512  38.367   5.811
 4686POPC   GL261154  14.172  38.532   5.984
 4686POPC   C1A61155  14.454  38.199   6.190
 4686POPC   D2A61156  14.407  38.437   6.523
 4686POPC   C3A61157  14.521  38.207   6.836
 4686POPC   C4A61158  14.487  38.293   7.246
 4686POPC   C1B61159  14.525  38.773   6.145
 4686POPC   C2B61160  14.587  38.931   6.551
 4686POPC   C3B61161  14.506  38.731   6.945
 4686POPC   C4B61162  14.753  38.705   7.309
 4687POPC   NC361163   7.317  40.537   5.450
 4687POPC   PO461164   7.813  41.034   5.370
 4687POPC   GL161165   7.600  40.939   5.733
 4687POPC   GL261166   7.731  40.613   5.751
 4687POPC   C1A61167   7.432  41.056   6.160
 4687POPC   D2A61168   7.169  40.852   6.469
 4687POPC   C3A61169   7.160  41.008   6.888
 4687POPC   C4A61170   7.479  40.940   7.194
 4687POPC   C1B61171   7.489  40.555   6.097
 4687POPC   C2B61172   7.399  40.342   6.452
 4687POPC   C3B61173   7.355  40.512   6.842
 4687POPC   C4B61174   7.652  40.452   7.149
 4688POPC   NC361175  40.663  44.556   5.448
 4688POPC   PO461176  41.288  44.786   5.585
 4688POPC   GL161177  40.979  44.743   5.914
 4688POPC   GL261178  40.654  44.542   5.957
 4688POPC   C1A61179  40.775  44.922   6.270
 4688POPC   D2A61180  40.600  44.786   6.646
 4688POPC   C3A61181  40.969  44.740   6.870
 4688POPC   C4A61182  41.104  44.735   7.265
 4688POPC   C1B61183  40.952  44.315   6.221
 4688POPC   C2B61184  40.849  44.116   6.618
 4688POPC   C3B61185  40.711  44.325   6.999
 4688POPC   C4B61186  40.596  44.688   7.229
 4689POPC   NC361187  11.536  33.536   5.499
 4689POPC   PO461188  11.312  32.875   5.285
 4689POPC   GL161189  11.438  33.068   5.696
 4689POPC   GL261190  11.169  33.286   5.805
 4689POPC   C1A61191  11.468  33.060   6.184
 4689POPC   D2A61192  11.541  33.034   6.660
 4689POPC   C3A61193  11.288  32.946   7.083
 4689POPC   C4A61194  11.423  32.881   7.545
 4689POPC   C1B61195  11.057  33.375   6.263
 4689POPC   C2B61196  11.090  33.299   6.728
 4689POPC   C3B61197  10.932  33.416   7.132
 4689POPC   C4B61198  10.852  33.450   7.637
 4690POPC   NC361199  35.511  19.348   5.371
 4690POPC   PO461200  34.920  18.948   5.449
 4690POPC   GL161201  35.015  19.157   5.831
 4690POPC   GL261202  35.260  19.450   5.858
 4690POPC   C1A61203  35.147  18.955   6.224
 4690POPC   D2A61204  35.512  18.806   6.452
 4690POPC   C3A61205  35.511  18.810   6.935
 4690POPC   C4A61206  35.177  18.953   7.202
 4690POPC   C1B61207  35.556  19.285   6.225
 4690POPC   C2B61208  35.622  19.248   6.687
 4690POPC   C3B61209  35.605  19.275   7.155
 4690POPC   C4B61210  35.755  19.475   7.575
 4691POPC   NC361211  33.412  25.487   5.572
 4691POPC   PO461212  32.857  25.208   5.333
 4691POPC   GL161213  32.978  25.218   5.773
 4691POPC   GL261214  33.287  25.046   5.859
 4691POPC   C1A61215  32.799  25.315   6.177
 4691POPC   D2A61216  32.793  25.124   6.561
 4691POPC   C3A61217  32.829  25.386   6.905
 4691POPC   C4A61218  32.818  25.261   7.318
 4691POPC   C1B61219  33.367  25.268   6.212
 4691POPC   C2B61220  33.217  25.403   6.570
 4691POPC   C3B61221  33.308  25.574   6.926
 4691POPC   C4B61222  33.385  25.294   7.237
 4692POPC   NC361223  20.039   1.567   5.373
 4692POPC   PO461224  20.218   0.988   5.350
 4692POPC   GL161225  19.941   1.166   5.685
 4692POPC   GL261226  20.209   1.195   5.863
 4692POPC   C1A61227  19.782   1.359   6.118
 4692POPC   D2A61228  19.886   1.295   6.577
 4692POPC   C3A61229  19.692   1.349   6.999
 4692POPC   C4A61230  19.689   1.530   7.413
 4692POPC   C1B61231  20.204   1.030   6.274
 4692POPC   C2B61232  20.314   0.992   6.704
 4692POPC   C3B61233  20.136   0.848   7.051
 4692POPC   C4B61234  20.013   1.136   7.329
 4693POPC   NC361235  31.555  34.962   5.484
 4693POPC   PO461236  31.505  34.301   5.396
 4693POPC   GL161237  31.282  34.388   5.782
 4693POPC   GL261238  31.112  34.714   5.783
 4693POPC   C1A61239  31.457  34.585   6.162
 4693POPC   D2A61240  31.655  34.763   6.529
 4693POPC   C3A61241  31.474  34.744   6.927
 4693POPC   C4A61242  31.515  34.390   7.177
 4693POPC   C1B61243  30.958  34.542   6.186
 4693POPC   C2B61244  31.087  34.538   6.642
 4693POPC   C3B61245  31.025  34.549   7.108
 4693POPC   C4B61246  31.195  34.506   7.541
 4694POPC   NC361247  11.335  12.832   5.487
 4694POPC   PO461248  11.624  13.265   5.048
 4694POPC   GL161249  11.761  13.018   5.649
 4694POPC   GL261250  11.633  12.744   5.900
 4694POPC   C1A61251  11.649  13.185   6.140
 4694POPC   D2A61252  11.412  12.952   6.514
 4694POPC   C3A61253  11.318  12.998   6.965
 4694POPC   C4A61254  11.493  12.830   7.383
 4694POPC   C1B61255  11.190  12.754   6.104
 4694POPC   C2B61256  10.917  12.748   6.485
 4694POPC   C3B61257  10.864  12.706   6.922
 4694POPC   C4B61258  10.993  12.766   7.345
 4695POPC   NC361259   5.837  12.364   5.008
 4695POPC   PO461260   5.833  11.953   5.506
 4695POPC   GL161261   5.848  12.206   5.825
 4695POPC   GL261262   6.153  12.243   5.841
 4695POPC   C1A61263   5.837  12.158   6.263
 4695POPC   D2A61264   5.575  11.815   6.438
 4695POPC   C3A61265   5.627  11.852   6.863
 4695POPC   C4A61266   5.753  12.236   7.018
 4695POPC   C1B61267   6.320  12.360   6.221
 4695POPC   C2B61268   6.430  12.219   6.606
 4695POPC   C3B61269   6.296  12.342   7.005
 4695POPC   C4B61270   6.123  12.026   7.263
 4696POPC   NC361271  31.546  25.485   5.289
 4696POPC   PO461272  31.358  24.796   5.273
 4696POPC   GL161273  31.458  25.086   5.637
 4696POPC   GL261274  31.301  25.435   5.715
 4696POPC   C1A61275  31.642  25.070   6.051
 4696POPC   D2A61276  31.590  25.208   6.469
 4696POPC   C3A61277  31.907  25.199   6.773
 4696POPC   C4A61278  31.819  25.250   7.202
 4696POPC   C1B61279  31.393  25.532   6.116
 4696POPC   C2B61280  31.304  25.650   6.510
 4696POPC   C3B61281  31.453  25.475   6.888
 4696POPC   C4B61282  31.404  25.560   7.289
 4697POPC   NC361283   3.887  38.890   5.412
 4697POPC   PO461284   4.456  38.591   5.491
 4697POPC   GL161285   4.329  38.516   5.893
 4697POPC   GL261286   4.043  38.760   5.912
 4697POPC   C1A61287   4.619  38.619   6.254
 4697POPC   D2A61288   4.605  38.847   6.660
 4697POPC   C3A61289   4.560  38.624   7.084
 4697POPC   C4A61290   4.589  38.677   7.562
 4697POPC   C1B61291   4.096  38.554   6.342
 4697POPC   C2B61292   4.383  38.333   6.615
 4697POPC   C3B61293   4.337  38.150   6.998
 4697POPC   C4B61294   4.299  38.264   7.415
 4698POPC   NC361295  41.097  43.024   5.674
 4698POPC   PO461296  40.836  43.550   5.503
 4698POPC   GL161297  40.784  43.382   5.861
 4698POPC   GL261298  40.495  43.207   5.742
 4698POPC   C1A61299  40.713  43.126   6.228
 4698POPC   D2A61300  40.926  42.939   6.551
 4698POPC   C3A61301  40.756  43.012   6.910
 4698POPC   C4A61302  40.874  42.976   7.314
 4698POPC   C1B61303  40.344  43.469   6.086
 4698POPC   C2B61304  40.286  43.322   6.495
 4698POPC   C3B61305  40.385  43.354   6.906
 4698POPC   C4B61306  40.609  43.398   7.233
 4699POPC   NC361307   0.476  35.177   5.410
 4699POPC   PO461308   0.664  35.828   5.528
 4699POPC   GL161309   0.444  35.555   5.854
 4699POPC   GL261310   0.342  35.207   5.884
 4699POPC   C1A61311   0.544  35.385   6.298
 4699POPC   D2A61312   0.768  35.418   6.634
 4699POPC   C3A61313   0.547  35.251   6.942
 4699POPC   C4A61314   0.292  35.440   7.231
 4699POPC   C1B61315   0.209  34.995   6.231
 4699POPC   C2B61316   0.146  35.176   6.627
 4699POPC   C3B61317   0.029  35.040   7.037
 4699POPC   C4B61318   0.140  35.027   7.485
 4700POPC   NC361319  19.691  43.272   5.524
 4700POPC   PO461320  19.170  43.082   5.028
 4700POPC   GL161321  19.201  43.132   5.579
 4700POPC   GL261322  19.252  43.433   5.752
 4700POPC   C1A61323  19.039  43.145   6.080
 4700POPC   D2A61324  18.783  43.152   6.475
 4700POPC   C3A61325  18.896  43.183   6.924
 4700POPC   C4A61326  18.782  42.974   7.333
 4700POPC   C1B61327  19.454  43.479   6.143
 4700POPC   C2B61328  19.292  43.366   6.522
 4700POPC   C3B61329  19.269  43.575   6.900
 4700POPC   C4B61330  19.106  43.504   7.285
 4701POPC   NC361331  31.373  18.288   5.150
 4701POPC   PO461332  31.886  18.339   5.565
 4701POPC   GL161333  31.595  18.408   5.832
 4701POPC   GL261334  31.374  18.162   5.672
 4701POPC   C1A61335  31.418  18.414   6.239
 4701POPC   D2A61336  31.540  18.397   6.627
 4701POPC   C3A61337  31.434  18.704   6.899
 4701POPC   C4A61338  31.471  18.522   7.276
 4701POPC   C1B61339  31.488  17.951   6.059
 4701POPC   C2B61340  31.333  17.940   6.500
 4701POPC   C3B61341  31.386  18.031   6.965
 4701POPC   C4B61342  31.029  17.896   7.244
 4702POPC   NC361343   7.052   8.807   5.400
 4702POPC   PO461344   6.412   8.715   5.291
 4702POPC   GL161345   6.611   8.936   5.670
 4702POPC   GL261346   6.859   8.756   5.881
 4702POPC   C1A61347   6.744   9.267   5.976
 4702POPC   D2A61348   6.668   9.342   6.436
 4702POPC   C3A61349   6.948   9.131   6.732
 4702POPC   C4A61350   7.025   9.081   7.190
 4702POPC   C1B61351   6.780   8.855   6.293
 4702POPC   C2B61352   6.519   8.863   6.637
 4702POPC   C3B61353   6.549   8.945   7.071
 4702POPC   C4B61354   6.325   8.741   7.356
 4703POPC   NC361355  24.999  11.833   5.475
 4703POPC   PO461356  25.415  12.266   5.260
 4703POPC   GL161357  25.352  12.133   5.756
 4703POPC   GL261358  25.021  12.063   5.914
 4703POPC   C1A61359  25.382  11.936   6.225
 4703POPC   D2A61360  25.170  12.034   6.619
 4703POPC   C3A61361  25.469  12.133   6.948
 4703POPC   C4A61362  25.774  12.031   7.278
 4703POPC   C1B61363  24.950  12.328   6.246
 4703POPC   C2B61364  24.826  12.412   6.673
 4703POPC   C3B61365  25.036  12.453   7.081
 4703POPC   C4B61366  25.013  12.597   7.516
 4704POPC   NC361367  36.703  12.151   5.300
 4704POPC   PO461368  37.278  12.078   5.395
 4704POPC   GL161369  37.094  12.243   5.778
 4704POPC   GL261370  36.794  12.457   5.715
 4704POPC   C1A61371  37.214  12.087   6.208
 4704POPC   D2A61372  36.962  12.098   6.587
 4704POPC   C3A61373  36.950  11.799   6.941
 4704POPC   C4A61374  37.176  11.963   7.293
 4704POPC   C1B61375  36.746  12.355   6.162
 4704POPC   C2B61376  36.453  12.289   6.524
 4704POPC   C3B61377  36.611  12.188   6.939
 4704POPC   C4B61378  36.836  12.389   7.293
 4705POPC   NC361379  38.633  21.815   5.194
 4705POPC   PO461380  38.151  22.178   5.630
 4705POPC   GL161381  38.486  22.188   5.892
 4705POPC   GL261382  38.623  21.845   5.858
 4705POPC   C1A61383  38.479  22.366   6.331
 4705POPC   D2A61384  38.142  22.367   6.693
 4705POPC   C3A61385  38.378  22.315   7.080
 4705POPC   C4A61386  38.735  22.502   7.235
 4705POPC   C1B61387  38.467  21.826   6.255
 4705POPC   C2B61388  38.438  21.970   6.652
 4705POPC   C3B61389  38.440  21.779   7.009
 4705POPC   C4B61390  38.544  21.886   7.385
 4706POPC   NC361391  10.841  43.651   5.496
 4706POPC   PO461392  10.288  44.083   5.463
 4706POPC   GL161393  10.492  43.893   5.808
 4706POPC   GL261394  10.828  44.036   5.875
 4706POPC   C1A61395  10.413  43.986   6.238
 4706POPC   D2A61396  10.437  44.204   6.621
 4706POPC   C3A61397  10.331  43.934   6.972
 4706POPC   C4A61398  10.525  43.896   7.365
 4706POPC   C1B61399  10.829  43.683   6.199
 4706POPC   C2B61400  10.673  43.738   6.632
 4706POPC   C3B61401  10.890  43.883   7.011
 4706POPC   C4B61402  10.995  43.634   7.416
 4707POPC   NC361403  41.893  21.656   5.394
 4707POPC   PO461404  41.336  21.215   5.366
 4707POPC   GL161405  41.592  21.401   5.732
 4707POPC   GL261406  41.669  21.724   5.841
 4707POPC   C1A61407  41.696  21.269   6.160
 4707POPC   D2A61408  41.413  20.986   6.419
 4707POPC   C3A61409  41.389  21.042   6.848
 4707POPC   C4A61410  41.457  21.396   7.098
 4707POPC   C1B61411  41.551  21.748   6.270
 4707POPC   C2B61412  41.671  21.505   6.628
 4707POPC   C3B61413  41.915  21.613   6.974
 4707POPC   C4B61414  41.678  21.882   7.201
 4708POPC   NC361415  29.192  38.195   5.661
 4708POPC   PO461416  29.115  37.615   5.291
 4708POPC   GL161417  29.157  37.578   5.750
 4708POPC   GL261418  29.461  37.764   5.717
 4708POPC   C1A61419  28.998  37.793   6.180
 4708POPC   D2A61420  28.841  37.974   6.610
 4708POPC   C3A61421  28.862  37.723   7.013
 4708POPC   C4A61422  29.096  37.449   7.320
 4708POPC   C1B61423  29.493  37.665   6.152
 4708POPC   C2B61424  29.343  37.774   6.570
 4708POPC   C3B61425  29.391  37.737   6.996
 4708POPC   C4B61426  29.503  37.881   7.412
 4709POPC   NC361427  24.276  11.763   5.160
 4709POPC   PO461428  24.662  12.182   5.575
 4709POPC   GL161429  24.517  12.243   5.981
 4709POPC   GL261430  24.196  12.407   6.012
 4709POPC   C1A61431  24.554  12.036   6.388
 4709POPC   D2A61432  24.726  11.753   6.661
 4709POPC   C3A61433  24.786  12.003   7.012
 4709POPC   C4A61434  24.818  11.787   7.348
 4709POPC   C1B61435  24.105  11.978   6.161
 4709POPC   C2B61436  24.055  11.814   6.546
 4709POPC   C3B61437  24.302  11.916   6.877
 4709POPC   C4B61438  24.315  11.864   7.308
 4710POPC   NC361439   2.518  38.681   5.302
 4710POPC   PO461440   2.886  38.261   5.580
 4710POPC   GL161441   2.535  38.336   5.816
 4710POPC   GL261442   2.671  38.637   5.841
 4710POPC   C1A61443   2.596  38.329   6.255
 4710POPC   D2A61444   2.863  38.564   6.538
 4710POPC   C3A61445   2.679  38.463   6.939
 4710POPC   C4A61446   2.414  38.100   6.958
 4710POPC   C1B61447   2.384  38.777   6.125
 4710POPC   C2B61448   2.438  38.891   6.524
 4710POPC   C3B61449   2.731  38.958   6.837
 4710POPC   C4B61450   2.640  38.903   7.255
 4711POPC   NC361451  42.230  17.829   5.393
 4711POPC   PO461452  42.682  17.453   5.484
 4711POPC   GL161453  42.463  17.622   5.836
 4711POPC   GL261454  42.128  17.460   5.755
 4711POPC   C1A61455  42.341  17.478   6.269
 4711POPC   D2A61456  42.440  17.202   6.634
 4711POPC   C3A61457  42.374  17.370   7.043
 4711POPC   C4A61458  42.423  17.792   7.173
 4711POPC   C1B61459  41.846  17.520   6.106
 4711POPC   C2B61460  41.900  17.575   6.544
 4711POPC   C3B61461  41.958  17.723   6.950
 4711POPC   C4B61462  42.004  17.566   7.367
 4712POPC   NC361463   9.306  33.947   5.371
 4712POPC   PO461464   9.954  34.084   5.054
 4712POPC   GL161465   9.764  33.852   5.563
 4712POPC   GL261466   9.415  33.700   5.786
 4712POPC   C1A61467   9.741  33.943   6.062
 4712POPC   D2A61468   9.809  33.782   6.477
 4712POPC   C3A61469   9.876  34.042   6.851
 4712POPC   C4A61470  10.007  33.818   7.231
 4712POPC   C1B61471   9.350  33.626   6.240
 4712POPC   C2B61472   9.374  33.474   6.660
 4712POPC   C3B61473   9.683  33.530   6.935
 4712POPC   C4B61474   9.492  33.862   7.137
 4713POPC   NC361475  10.275  25.438   5.299
 4713POPC   PO461476  10.604  24.973   5.599
 4713POPC   GL161477  10.462  25.337   5.797
 4713POPC   GL261478  10.134  25.281   5.764
 4713POPC   C1A61479  10.432  25.413   6.244
 4713POPC   D2A61480  10.312  25.303   6.659
 4713POPC   C3A61481  10.625  25.361   6.959
 4713POPC   C4A61482  10.634  24.921   7.102
 4713POPC   C1B61483  10.013  25.619   6.070
 4713POPC   C2B61484  10.124  25.764   6.534
 4713POPC   C3B61485  10.114  25.646   6.979
 4713POPC   C4B61486  10.221  25.248   7.235
 4714POPC   NC361487  14.028  34.437   5.447
 4714POPC   PO461488  14.577  34.609   5.279
 4714POPC   GL161489  14.508  34.577   5.726
 4714POPC   GL261490  14.723  34.833   5.860
 4714POPC   C1A61491  14.271  34.689   6.123
 4714POPC   D2A61492  14.114  34.531   6.547
 4714POPC   C3A61493  14.391  34.570   6.924
 4714POPC   C4A61494  14.272  34.383   7.321
 4714POPC   C1B61495  14.771  34.575   6.210
 4714POPC   C2B61496  14.805  34.709   6.620
 4714POPC   C3B61497  14.830  34.810   7.041
 4714POPC   C4B61498  14.757  34.571   7.391
 4715POPC   NC361499  33.643  10.440   5.390
 4715POPC   PO461500  34.376  10.514   5.462
 4715POPC   GL161501  33.995  10.469   5.761
 4715POPC   GL261502  33.624  10.442   5.908
 4715POPC   C1A61503  34.047  10.487   6.234
 4715POPC   D2A61504  33.961  10.792   6.619
 4715POPC   C3A61505  34.093  10.688   7.066
 4715POPC   C4A61506  33.907  10.472   7.489
 4715POPC   C1B61507  33.652  10.214   6.343
 4715POPC   C2B61508  33.881  10.294   6.725
 4715POPC   C3B61509  33.626  10.545   6.999
 4715POPC   C4B61510  33.316  10.536   7.262
 4716POPC   NC361511   4.133  37.506   5.337
 4716POPC   PO461512   3.775  37.994   5.637
 4716POPC   GL161513   3.594  37.672   5.856
 4716POPC   GL261514   3.901  37.457   5.802
 4716POPC   C1A61515   3.382  37.675   6.260
 4716POPC   D2A61516   3.304  37.883   6.676
 4716POPC   C3A61517   3.513  37.948   7.069
 4716POPC   C4A61518   3.493  37.899   7.537
 4716POPC   C1B61519   3.920  37.573   6.231
 4716POPC   C2B61520   3.726  37.597   6.623
 4716POPC   C3B61521   3.641  37.458   7.018
 4716POPC   C4B61522   3.860  37.176   7.195
 4717POPC   NC361523  22.999   5.546   5.380
 4717POPC   PO461524  22.929   6.214   5.516
 4717POPC   GL161525  22.847   6.064   5.905
 4717POPC   GL261526  22.864   5.721   5.835
 4717POPC   C1A61527  22.757   6.199   6.333
 4717POPC   D2A61528  22.727   6.340   6.788
 4717POPC   C3A61529  22.952   6.120   7.129
 4717POPC   C4A61530  23.041   6.078   7.592
 4717POPC   C1B61531  23.076   5.773   6.244
 4717POPC   C2B61532  22.878   5.782   6.629
 4717POPC   C3B61533  22.914   5.605   6.984
 4717POPC   C4B61534  23.166   5.668   7.297
 4718POPC   NC361535  13.278  12.456   5.526
 4718POPC   PO461536  13.666  11.931   5.256
 4718POPC   GL161537  13.433  11.971   5.617
 4718POPC   GL261538  13.687  12.172   5.735
 4718POPC   C1A61539  13.308  12.042   6.065
 4718POPC   D2A61540  13.404  12.236   6.490
 4718POPC   C3A61541  13.576  12.003   6.851
 4718POPC   C4A61542  13.667  12.066   7.275
 4718POPC   C1B61543  13.781  12.313   6.152
 4718POPC   C2B61544  13.917  12.245   6.573
 4718POPC   C3B61545  13.919  12.415   6.973
 4718POPC   C4B61546  14.068  12.354   7.403
 4719POPC   NC361547  10.216   4.995   5.524
 4719POPC   PO461548   9.626   5.065   5.298
 4719POPC   GL161549   9.757   5.123   5.712
 4719POPC   GL261550   9.421   5.164   5.774
 4719POPC   C1A61551   9.819   5.006   6.130
 4719POPC   D2A61552   9.614   5.078   6.528
 4719POPC   C3A61553   9.714   5.035   6.965
 4719POPC   C4A61554   9.785   5.240   7.350
 4719POPC   C1B61555   9.243   5.304   6.133
 4719POPC   C2B61556   9.127   5.186   6.518
 4719POPC   C3B61557   9.280   5.282   6.918
 4719POPC   C4B61558   9.272   5.027   7.276
 4720POPC   NC361559  19.876   7.110   5.417
 4720POPC   PO461560  20.261   7.629   5.558
 4720POPC   GL161561  19.836   7.543   5.747
 4720POPC   GL261562  19.812   7.212   5.924
 4720POPC   C1A61563  19.517   7.620   6.064
 4720POPC   D2A61564  19.475   7.753   6.474
 4720POPC   C3A61565  19.509   7.474   6.840
 4720POPC   C4A61566  19.612   7.654   7.262
 4720POPC   C1B61567  20.112   7.285   6.281
 4720POPC   C2B61568  20.211   7.348   6.739
 4720POPC   C3B61569  19.952   7.283   7.093
 4720POPC   C4B61570  19.526   7.160   7.269
 4721POPC   NC361571  31.222  21.833   5.541
 4721POPC   PO461572  31.601  22.358   5.459
 4721POPC   GL161573  31.676  22.404   5.854
 4721POPC   GL261574  31.513  22.082   5.922
 4721POPC   C1A61575  31.820  22.341   6.271
 4721POPC   D2A61576  31.768  21.975   6.530
 4721POPC   C3A61577  31.889  21.965   6.974
 4721POPC   C4A61578  31.684  22.029   7.402
 4721POPC   C1B61579  31.297  22.293   6.251
 4721POPC   C2B61580  31.287  22.154   6.658
 4721POPC   C3B61581  31.467  22.310   7.025
 4721POPC   C4B61582  31.224  22.286   7.395
 4722POPC   NC361583   1.474   2.224   5.482
 4722POPC   PO461584   1.129   1.645   5.320
 4722POPC   GL161585   1.153   1.815   5.759
 4722POPC   GL261586   1.007   2.143   5.854
 4722POPC   C1A61587   1.072   1.702   6.184
 4722POPC   D2A61588   1.223   1.700   6.600
 4722POPC   C3A61589   0.983   1.859   6.955
 4722POPC   C4A61590   0.873   1.724   7.352
 4722POPC   C1B61591   1.009   2.181   6.327
 4722POPC   C2B61592   1.181   2.265   6.729
 4722POPC   C3B61593   1.311   2.287   7.206
 4722POPC   C4B61594   1.321   2.451   7.637
 4723POPC   NC361595  44.228  19.139   5.243
 4723POPC   PO461596  43.650  19.252   5.723
 4723POPC   GL161597  43.864  18.864   5.860
 4723POPC   GL261598  44.202  18.928   5.914
 4723POPC   C1A61599  43.960  18.632   6.239
 4723POPC   D2A61600  43.833  18.739   6.648
 4723POPC   C3A61601  43.644  19.069   6.781
 4723POPC   C4A61602  43.512  19.216   7.158
 4723POPC   C1B61603  43.948  19.147   6.299
 4723POPC   C2B61604  43.932  19.478   6.625
 4723POPC   C3B61605  43.990  19.340   7.048
 4723POPC   C4B61606  43.957  18.883   7.153
 4724POPC   NC361607  18.799  43.405   5.484
 4724POPC   PO461608  19.409  43.814   5.493
 4724POPC   GL161609  19.105  43.946   5.807
 4724POPC   GL261610  18.773  43.797   5.805
 4724POPC   C1A61611  18.977  44.112   6.222
 4724POPC   D2A61612  19.227  43.976   6.557
 4724POPC   C3A61613  19.001  44.009   6.941
 4724POPC   C4A61614  19.025  44.043   7.356
 4724POPC   C1B61615  18.961  43.622   6.189
 4724POPC   C2B61616  18.852  43.630   6.605
 4724POPC   C3B61617  18.630  43.658   6.975
 4724POPC   C4B61618  18.592  43.440   7.328
 4725POPC   NC361619  39.834  31.013   5.352
 4725POPC   PO461620  40.322  30.538   5.435
 4725POPC   GL161621  40.118  30.757   5.736
 4725POPC   GL261622  39.871  30.579   5.905
 4725POPC   C1A61623  40.243  30.956   6.123
 4725POPC   D2A61624  40.411  30.871   6.538
 4725POPC   C3A61625  40.190  30.967   6.972
 4725POPC   C4A61626  39.783  31.013   7.212
 4725POPC   C1B61627  40.170  30.471   6.268
 4725POPC   C2B61628  40.130  30.468   6.731
 4725POPC   C3B61629  39.889  30.333   7.105
 4725POPC   C4B61630  39.962  30.181   7.536
 4726POPC   NC361631  39.811  42.814   5.366
 4726POPC   PO461632  40.018  43.460   5.297
 4726POPC   GL161633  39.980  43.237   5.688
 4726POPC   GL261634  39.700  43.038   5.803
 4726POPC   C1A61635  40.117  43.001   6.078
 4726POPC   D2A61636  39.910  42.983   6.488
 4726POPC   C3A61637  40.240  42.876   6.773
 4726POPC   C4A61638  40.357  42.918   7.203
 4726POPC   C1B61639  39.781  43.386   6.152
 4726POPC   C2B61640  39.702  43.441   6.611
 4726POPC   C3B61641  39.905  43.219   6.965
 4726POPC   C4B61642  39.860  42.809   7.179
 4727POPC   NC361643   5.557  38.543   5.319
 4727POPC   PO461644   6.153  38.650   5.604
 4727POPC   GL161645   6.043  38.383   5.877
 4727POPC   GL261646   5.755  38.173   5.792
 4727POPC   C1A61647   6.152  38.476   6.276
 4727POPC   D2A61648   5.939  38.557   6.619
 4727POPC   C3A61649   5.993  38.317   6.945
 4727POPC   C4A61650   6.070  38.417   7.337
 4727POPC   C1B61651   5.644  38.305   6.236
 4727POPC   C2B61652   5.431  38.462   6.633
 4727POPC   C3B61653   5.544  38.568   7.067
 4727POPC   C4B61654   5.595  38.340   7.461
 4728POPC   NC361655  28.201  18.213   5.445
 4728POPC   PO461656  28.370  18.793   5.133
 4728POPC   GL161657  28.247  18.686   5.602
 4728POPC   GL261658  28.547  18.457   5.721
 4728POPC   C1A61659  28.192  18.520   6.081
 4728POPC   D2A61660  28.034  18.217   6.467
 4728POPC   C3A61661  28.215  18.237   6.917
 4728POPC   C4A61662  28.209  18.466   7.336
 4728POPC   C1B61663  28.550  18.170   6.110
 4728POPC   C2B61664  28.543  18.262   6.512
 4728POPC   C3B61665  28.666  18.476   6.870
 4728POPC   C4B61666  28.690  18.239   7.219
 4729POPC   NC361667  10.378   3.078   5.379
 4729POPC   PO461668  10.438   2.502   5.204
 4729POPC   GL161669  10.489   2.568   5.673
 4729POPC   GL261670  10.173   2.655   5.865
 4729POPC   C1A61671  10.743   2.498   6.066
 4729POPC   D2A61672  10.840   2.609   6.502
 4729POPC   C3A61673  10.590   2.887   6.713
 4729POPC   C4A61674  10.550   2.871   7.147
 4729POPC   C1B61675  10.320   2.679   6.318
 4729POPC   C2B61676  10.367   2.412   6.706
 4729POPC   C3B61677  10.295   2.403   7.168
 4729POPC   C4B61678  10.450   2.581   7.577
 4730POPC   NC361679   3.704  25.375   5.400
 4730POPC   PO461680   3.387  24.787   5.464
 4730POPC   GL161681   3.581  24.964   5.853
 4730POPC   GL261682   3.803  25.260   5.866
 4730POPC   C1A61683   3.449  25.036   6.286
 4730POPC   D2A61684   3.563  25.285   6.661
 4730POPC   C3A61685   3.318  25.288   7.059
 4730POPC   C4A61686   3.397  25.265   7.521
 4730POPC   C1B61687   4.067  25.549   6.104
 4730POPC   C2B61688   4.029  25.537   6.531
 4730POPC   C3B61689   4.044  25.323   6.886
 4730POPC   C4B61690   3.782  25.114   7.150
 4731POPC   NC361691   4.398  15.900   5.267
 4731POPC   PO461692   3.769  15.899   5.379
 4731POPC   GL161693   4.109  15.866   5.705
 4731POPC   GL261694   4.294  16.155   5.832
 4731POPC   C1A61695   4.283  15.735   6.130
 4731POPC   D2A61696   4.434  15.842   6.563
 4731POPC   C3A61697   4.194  15.737   6.959
 4731POPC   C4A61698   3.855  15.655   7.299
 4731POPC   C1B61699   4.108  16.209   6.275
 4731POPC   C2B61700   4.164  16.231   6.752
 4731POPC   C3B61701   4.572  16.132   6.966
 4731POPC   C4B61702   4.958  15.949   7.185
 4732POPC   NC361703  18.864   3.055   5.481
 4732POPC   PO461704  19.375   2.627   5.457
 4732POPC   GL161705  19.194   2.707   5.875
 4732POPC   GL261706  19.262   3.060   5.844
 4732POPC   C1A61707  19.102   2.554   6.325
 4732POPC   D2A61708  18.768   2.690   6.617
 4732POPC   C3A61709  18.784   2.682   7.062
 4732POPC   C4A61710  19.199   2.622   7.248
 4732POPC   C1B61711  19.513   3.105   6.199
 4732POPC   C2B61712  19.226   3.000   6.557
 4732POPC   C3B61713  19.141   3.093   6.976
 4732POPC   C4B61714  19.449   3.290   7.224
 4733POPC   NC361715  33.927   8.503   5.472
 4733POPC   PO461716  33.552   7.987   5.302
 4733POPC   GL161717  33.688   8.107   5.702
 4733POPC   GL261718  33.565   8.427   5.820
 4733POPC   C1A61719  33.843   8.083   6.122
 4733POPC   D2A61720  33.923   8.403   6.441
 4733POPC   C3A61721  33.794   8.315   6.875
 4733POPC   C4A61722  33.949   8.337   7.299
 4733POPC   C1B61723  33.361   8.578   6.188
 4733POPC   C2B61724  33.126   8.501   6.541
 4733POPC   C3B61725  33.283   8.481   6.927
 4733POPC   C4B61726  33.559   8.679   7.201
 4734POPC   NC361727  34.929   5.040   5.281
 4734POPC   PO461728  34.381   5.242   5.617
 4734POPC   GL161729  34.556   5.013   5.898
 4734POPC   GL261730  34.230   4.913   5.994
 4734POPC   C1A61731  34.731   5.114   6.307
 4734POPC   D2A61732  34.933   5.023   6.694
 4734POPC   C3A61733  34.686   5.165   7.076
 4734POPC   C4A61734  34.766   5.049   7.524
 4734POPC   C1B61735  34.450   4.689   6.296
 4734POPC   C2B61736  34.476   4.785   6.720
 4734POPC   C3B61737  34.212   5.006   7.030
 4734POPC   C4B61738  34.256   4.939   7.519
 4735POPC   NC361739  24.256  24.295   5.443
 4735POPC   PO461740  24.870  24.588   5.465
 4735POPC   GL161741  24.596  24.506   5.853
 4735POPC   GL261742  24.314  24.722   5.777
 4735POPC   C1A61743  24.549  24.357   6.316
 4735POPC   D2A61744  24.378  24.247   6.762
 4735POPC   C3A61745  24.459  24.603   7.083
 4735POPC   C4A61746  24.758  24.847   7.347
 4735POPC   C1B61747  24.102  24.499   6.110
 4735POPC   C2B61748  24.135  24.630   6.527
 4735POPC   C3B61749  23.984  24.582   6.928
 4735POPC   C4B61750  24.077  24.302   7.256
 4736POPC   NC361751   8.455  23.934   5.021
 4736POPC   PO461752   8.156  23.553   5.548
 4736POPC   GL161753   8.013  23.641   5.933
 4736POPC   GL261754   8.298  23.787   6.022
 4736POPC   C1A61755   7.942  23.804   6.371
 4736POPC   D2A61756   8.227  23.755   6.739
 4736POPC   C3A61757   8.056  23.790   7.148
 4736POPC   C4A61758   7.636  23.861   7.254
 4736POPC   C1B61759   8.331  23.431   6.304
 4736POPC   C2B61760   8.302  23.194   6.672
 4736POPC   C3B61761   8.170  23.281   7.104
 4736POPC   C4B61762   8.364  23.482   7.464
 4737POPC   NC361763  41.248  39.430   5.387
 4737POPC   PO461764  41.738  39.018   5.426
 4737POPC   GL161765  41.590  39.217   5.758
 4737POPC   GL261766  41.310  39.033   5.793
 4737POPC   C1A61767  41.692  39.331   6.178
 4737POPC   D2A61768  41.647  39.143   6.583
 4737POPC   C3A61769  41.628  39.369   6.970
 4737POPC   C4A61770  41.568  39.237   7.420
 4737POPC   C1B61771  41.216  39.161   6.233
 4737POPC   C2B61772  41.198  39.375   6.652
 4737POPC   C3B61773  41.132  39.257   7.101
 4737POPC   C4B61774  40.864  39.311   7.474
 4738POPC   NC361775   2.555   0.188   5.335
 4738POPC   PO461776   2.885   0.654   5.099
 4738POPC   GL161777   2.778   0.502   5.659
 4738POPC   GL261778   2.582   0.211   5.817
 4738POPC   C1A61779   2.891   0.426   6.133
 4738POPC   D2A61780   2.892   0.604   6.556
 4738POPC   C3A61781   3.065   0.357   6.894
 4738POPC   C4A61782   3.101   0.138   7.278
 4738POPC   C1B61783   2.384   0.341   6.183
 4738POPC   C2B61784   2.486   0.260   6.576
 4738POPC   C3B61785   2.567   0.445   6.939
 4738POPC   C4B61786   2.401   0.274   7.263
 4739POPC   NC361787   4.800  43.910   5.666
 4739POPC   PO461788   4.149  43.966   5.396
 4739POPC   GL161789   4.075  43.733   5.763
 4739POPC   GL261790   3.909  43.411   5.740
 4739POPC   C1A61791   4.267  43.806   6.151
 4739POPC   D2A61792   4.582  43.882   6.451
 4739POPC   C3A61793   4.399  43.946   6.844
 4739POPC   C4A61794   4.595  44.179   7.158
 4739POPC   C1B61795   3.811  43.553   6.184
 4739POPC   C2B61796   3.989  43.732   6.577
 4739POPC   C3B61797   3.986  43.672   7.019
 4739POPC   C4B61798   3.867  43.341   7.287
 4740POPC   NC361799  44.750  35.053   5.343
 4740POPC   PO461800  44.953  34.396   5.424
 4740POPC   GL161801  44.661  34.686   5.700
 4740POPC   GL261802  44.866  34.958   5.851
 4740POPC   C1A61803  44.524  34.763   6.166
 4740POPC   D2A61804  44.830  34.760   6.542
 4740POPC   C3A61805  44.681  34.657   6.974
 4740POPC   C4A61806  44.524  34.992   7.227
 4740POPC   C1B61807  44.986  34.553   6.075
 4740POPC   C2B61808   0.148  34.289   6.425
 4740POPC   C3B61809   0.091  34.118   6.848
 4740POPC   C4B61810  44.828  34.160   7.219
 4741POPC   NC361811  33.711  37.457   5.476
 4741POPC   PO461812  34.343  37.355   5.740
 4741POPC   GL161813  33.926  37.434   5.931
 4741POPC   GL261814  33.736  37.142   5.908
 4741POPC   C1A61815  33.577  37.540   6.247
 4741POPC   D2A61816  33.693  37.600   6.716
 4741POPC   C3A61817  33.656  38.041   6.953
 4741POPC   C4A61818  33.798  38.215   7.381
 4741POPC   C1B61819  33.898  37.160   6.355
 4741POPC   C2B61820  34.117  37.210   6.721
 4741POPC   C3B61821  34.089  37.429   7.072
 4741POPC   C4B61822  33.772  37.652   7.241
 4742POPC   NC361823  16.369  17.120   5.335
 4742POPC   PO461824  16.466  17.721   5.339
 4742POPC   GL161825  16.441  17.687   5.809
 4742POPC   GL261826  16.206  17.949   5.914
 4742POPC   C1A61827  16.715  17.523   6.183
 4742POPC   D2A61828  16.667  17.445   6.648
 4742POPC   C3A61829  16.809  17.697   7.025
 4742POPC   C4A61830  16.961  17.695   7.483
 4742POPC   C1B61831  16.444  17.924   6.297
 4742POPC   C2B61832  16.295  17.798   6.688
 4742POPC   C3B61833  16.318  17.884   7.115
 4742POPC   C4B61834  16.458  17.705   7.470
 4743POPC   NC361835  11.480  44.417   5.430
 4743POPC   PO461836  10.911  44.865   5.452
 4743POPC   GL161837  11.112  44.587   5.749
 4743POPC   GL261838  11.423  44.808   5.798
 4743POPC   C1A61839  11.279  44.487   6.160
 4743POPC   D2A61840  11.316  44.581   6.589
 4743POPC   C3A61841  11.620  44.533   6.918
 4743POPC   C4A61842  11.248  44.474   7.167
 4743POPC   C1B61843  11.492  44.956   6.216
 4743POPC   C2B61844  11.631  44.970   6.622
 4743POPC   C3B61845  11.364  44.967   6.989
 4743POPC   C4B61846  11.490  44.857   7.408
 4744POPC   NC361847   9.811  13.106   5.618
 4744POPC   PO461848   9.720  13.587   5.186
 4744POPC   GL161849   9.770  13.642   5.657
 4744POPC   GL261850   9.437  13.498   5.722
 4744POPC   C1A61851   9.901  13.731   6.123
 4744POPC   D2A61852  10.120  13.725   6.562
 4744POPC   C3A61853   9.897  13.635   6.955
 4744POPC   C4A61854   9.987  13.655   7.378
 4744POPC   C1B61855   9.438  13.505   6.187
 4744POPC   C2B61856   9.473  13.611   6.667
 4744POPC   C3B61857   9.413  13.572   7.141
 4744POPC   C4B61858   9.287  13.357   7.531
 4745POPC   NC361859   8.648   7.296   5.474
 4745POPC   PO461860   8.928   7.834   5.229
 4745POPC   GL161861   9.042   7.561   5.660
 4745POPC   GL261862   8.733   7.576   5.883
 4745POPC   C1A61863   9.055   7.259   6.079
 4745POPC   D2A61864   8.894   7.447   6.447
 4745POPC   C3A61865   9.012   7.236   6.832
 4745POPC   C4A61866   9.009   7.342   7.236
 4745POPC   C1B61867   8.755   7.929   6.114
 4745POPC   C2B61868   8.700   8.010   6.547
 4745POPC   C3B61869   8.611   7.674   6.828
 4745POPC   C4B61870   8.543   7.627   7.240
 4746POPC   NC361871  39.664  42.154   5.685
 4746POPC   PO461872  40.153  42.470   5.348
 4746POPC   GL161873  40.018  42.515   5.797
 4746POPC   GL261874  40.106  42.166   5.923
 4746POPC   C1A61875  39.900  42.526   6.261
 4746POPC   D2A61876  39.822  42.537   6.739
 4746POPC   C3A61877  40.203  42.444   7.031
 4746POPC   C4A61878  40.225  42.280   7.437
 4746POPC   C1B61879  39.916  42.019   6.306
 4746POPC   C2B61880  40.057  42.085   6.698
 4746POPC   C3B61881  39.869  42.070   7.114
 4746POPC   C4B61882  39.892  41.919   7.538
 4747POPC   NC361883  10.365  33.926   5.244
 4747POPC   PO461884  11.067  33.676   5.340
 4747POPC   GL161885  10.759  33.598   5.716
 4747POPC   GL261886  10.408  33.754   5.756
 4747POPC   C1A61887  10.730  33.757   6.172
 4747POPC   D2A61888  10.655  33.513   6.574
 4747POPC   C3A61889  10.439  33.645   6.942
 4747POPC   C4A61890  10.560  33.740   7.349
 4747POPC   C1B61891  10.251  33.931   6.170
 4747POPC   C2B61892  10.335  34.047   6.615
 4747POPC   C3B61893  10.349  34.157   7.085
 4747POPC   C4B61894  10.280  34.083   7.579
 4748POPC   NC361895  16.655  38.121   5.592
 4748POPC   PO461896  17.009  38.727   5.512
 4748POPC   GL161897  16.678  38.631   5.778
 4748POPC   GL261898  16.694  38.916   5.941
 4748POPC   C1A61899  16.585  38.408   6.162
 4748POPC   D2A61900  16.679  38.127   6.499
 4748POPC   C3A61901  16.757  38.327   6.892
 4748POPC   C4A61902  16.433  38.431   7.193
 4748POPC   C1B61903  16.600  38.892   6.329
 4748POPC   C2B61904  16.469  38.636   6.615
 4748POPC   C3B61905  16.648  38.822   6.955
 4748POPC   C4B61906  16.461  39.083   7.190
 4749POPC   NC361907  19.938  32.435   5.435
 4749POPC   PO461908  19.993  31.757   5.315
 4749POPC   GL161909  19.753  32.020   5.701
 4749POPC   GL261910  19.863  32.332   5.928
 4749POPC   C1A61911  19.513  32.005   6.125
 4749POPC   D2A61912  19.586  32.239   6.519
 4749POPC   C3A61913  19.588  32.079   6.931
 4749POPC   C4A61914  19.776  32.332   7.250
 4749POPC   C1B61915  20.068  32.340   6.342
 4749POPC   C2B61916  20.051  32.278   6.798
 4749POPC   C3B61917  20.259  32.474   7.172
 4749POPC   C4B61918  20.147  32.432   7.608
 4750POPC   NC361919  21.587   9.845   5.393
 4750POPC   PO461920  21.146   9.455   5.657
 4750POPC   GL161921  21.445   9.613   5.973
 4750POPC   GL261922  21.598   9.943   5.899
 4750POPC   C1A61923  21.522   9.630   6.420
 4750POPC   D2A61924  21.221   9.824   6.679
 4750POPC   C3A61925  21.173   9.629   7.072
 4750POPC   C4A61926  20.894   9.463   7.390
 4750POPC   C1B61927  21.561  10.119   6.297
 4750POPC   C2B61928  21.655  10.103   6.714
 4750POPC   C3B61929  21.321  10.196   7.020
 4750POPC   C4B61930  21.275  10.027   7.425
 4751POPC   NC361931  25.248   8.464   5.436
 4751POPC   PO461932  25.207   9.222   5.413
 4751POPC   GL161933  25.363   9.130   5.840
 4751POPC   GL261934  25.263   8.797   5.835
 4751POPC   C1A61935  25.260   8.989   6.308
 4751POPC   D2A61936  25.469   8.843   6.691
 4751POPC   C3A61937  25.313   9.016   7.100
 4751POPC   C4A61938  25.238   8.895   7.556
 4751POPC   C1B61939  24.910   8.668   6.090
 4751POPC   C2B61940  24.912   8.602   6.517
 4751POPC   C3B61941  25.113   8.565   6.902
 4751POPC   C4B61942  25.170   8.437   7.288
 4752POPC   NC361943  43.064  16.301   5.230
 4752POPC   PO461944  42.661  15.917   5.553
 4752POPC   GL161945  42.942  15.866   5.878
 4752POPC   GL261946  43.254  15.799   5.726
 4752POPC   C1A61947  42.924  15.936   6.325
 4752POPC   D2A61948  42.791  16.292   6.588
 4752POPC   C3A61949  42.944  16.180   6.979
 4752POPC   C4A61950  42.879  15.792   7.216
 4752POPC   C1B61951  43.423  15.937   6.124
 4752POPC   C2B61952  43.370  15.763   6.550
 4752POPC   C3B61953  43.339  15.828   6.997
 4752POPC   C4B61954  43.299  15.560   7.412
 4753POPC   NC361955  38.819  17.134   5.459
 4753POPC   PO461956  38.271  16.617   5.527
 4753POPC   GL161957  38.420  16.952   5.776
 4753POPC   GL261958  38.730  16.771   5.825
 4753POPC   C1A61959  38.551  17.087   6.201
 4753POPC   D2A61960  38.712  16.931   6.624
 4753POPC   C3A61961  38.481  16.945   7.017
 4753POPC   C4A61962  38.392  16.900   7.452
 4753POPC   C1B61963  38.626  16.589   6.215
 4753POPC   C2B61964  38.778  16.391   6.595
 4753POPC   C3B61965  38.625  16.272   7.006
 4753POPC   C4B61966  38.281  16.481   7.191
 4754POPC   NC361967  19.629  43.209   5.038
 4754POPC   PO461968  20.112  43.107   5.575
 4754POPC   GL161969  19.886  43.163   5.979
 4754POPC   GL261970  19.542  43.033   5.944
 4754POPC   C1A61971  19.801  43.187   6.413
 4754POPC   D2A61972  19.827  42.895   6.727
 4754POPC   C3A61973  19.885  43.000   7.168
 4754POPC   C4A61974  20.076  43.231   7.548
 4754POPC   C1B61975  19.401  42.885   6.299
 4754POPC   C2B61976  19.243  42.883   6.658
 4754POPC   C3B61977  19.405  43.097   6.978
 4754POPC   C4B61978  19.298  42.954   7.339
 4755POPC   NC361979  24.369   4.760   5.371
 4755POPC   PO461980  24.304   5.410   5.370
 4755POPC   GL161981  24.364   5.106   5.769
 4755POPC   GL261982  24.642   4.844   5.805
 4755POPC   C1A61983  24.326   4.976   6.243
 4755POPC   D2A61984  24.205   4.983   6.700
 4755POPC   C3A61985  24.483   5.077   7.097
 4755POPC   C4A61986  24.371   4.976   7.540
 4755POPC   C1B61987  24.782   4.737   6.224
 4755POPC   C2B61988  24.713   4.875   6.650
 4755POPC   C3B61989  24.919   4.791   7.073
 4755POPC   C4B61990  25.159   5.094   7.361
 4756POPC   NC361991  43.014  28.487   5.485
 4756POPC   PO461992  43.120  27.887   5.531
 4756POPC   GL161993  43.238  28.179   5.894
 4756POPC   GL261994  43.298  28.544   5.907
 4756POPC   C1A61995  43.274  28.318   6.349
 4756POPC   D2A61996  43.382  28.437   6.764
 4756POPC   C3A61997  43.168  28.256   7.114
 4756POPC   C4A61998  43.245  28.304   7.558
 4756POPC   C1B61999  42.975  28.705   6.212
 4756POPC   C2B62000  43.009  28.927   6.608
 4756POPC   C3B62001  43.083  28.788   7.051
 4756POPC   C4B62002  42.921  28.685   7.487
 4757POPC   NC362003  11.738  24.442   4.954
 4757POPC   PO462004  11.289  24.576   5.266
 4757POPC   GL162005  11.181  24.510   5.752
 4757POPC   GL262006  11.255  24.201   5.938
 4757POPC   C1A62007  10.977  24.572   6.194
 4757POPC   D2A62008  10.983  24.613   6.695
 4757POPC   C3A62009  11.188  24.497   7.100
 4757POPC   C4A62010  11.393  24.764   7.415
 4757POPC   C1B62011  11.316  24.265   6.404
 4757POPC   C2B62012  11.515  24.551   6.696
 4757POPC   C3B62013  11.727  24.538   7.094
 4757POPC   C4B62014  11.651  24.313   7.457
 4758POPC   NC362015  22.143  34.936   5.193
 4758POPC   PO462016  22.170  35.554   5.388
 4758POPC   GL162017  22.071  35.287   5.716
 4758POPC   GL262018  22.159  35.559   5.919
 4758POPC   C1A62019  21.999  35.158   6.167
 4758POPC   D2A62020  21.849  35.275   6.594
 4758POPC   C3A62021  22.072  35.219   6.992
 4758POPC   C4A62022  22.114  35.225   7.456
 4758POPC   C1B62023  22.394  35.517   6.310
 4758POPC   C2B62024  22.376  35.563   6.762
 4758POPC   C3B62025  22.272  35.667   7.204
 4758POPC   C4B62026  22.375  35.650   7.669
 4759POPC   NC362027  31.987  22.054   5.409
 4759POPC   PO462028  32.260  22.624   5.391
 4759POPC   GL162029  32.228  22.363   5.765
 4759POPC   GL262030  32.495  22.110   5.847
 4759POPC   C1A62031  32.342  22.425   6.203
 4759POPC   D2A62032  32.225  22.263   6.575
 4759POPC   C3A62033  31.948  22.449   6.818
 4759POPC   C4A62034  32.036  22.381   7.234
 4759POPC   C1B62035  32.203  21.934   6.169
 4759POPC   C2B62036  32.262  21.773   6.605
 4759POPC   C3B62037  32.424  21.964   7.002
 4759POPC   C4B62038  32.190  21.906   7.407
 4760POPC   NC362039  28.570  34.179   5.470
 4760POPC   PO462040  28.363  34.812   5.219
 4760POPC   GL162041  28.320  34.620   5.666
 4760POPC   GL262042  28.599  34.786   5.868
 4760POPC   C1A62043  28.379  34.361   6.090
 4760POPC   D2A62044  28.153  34.286   6.489
 4760POPC   C3A62045  28.250  34.369   6.946
 4760POPC   C4A62046  28.477  34.449   7.364
 4760POPC   C1B62047  28.227  34.848   6.151
 4760POPC   C2B62048  28.285  34.784   6.583
 4760POPC   C3B62049  28.493  34.819   6.979
 4760POPC   C4B62050  28.645  34.990   7.360
 4761POPC   NC362051  41.075  31.786   5.574
 4761POPC   PO462052  40.563  31.405   5.602
 4761POPC   GL162053  40.728  31.170   5.931
 4761POPC   GL262054  41.032  31.369   5.924
 4761POPC   C1A62055  40.814  31.218   6.391
 4761POPC   D2A62056  40.797  31.063   6.810
 4761POPC   C3A62057  40.596  31.288   7.103
 4761POPC   C4A62058  40.443  31.689   7.259
 4761POPC   C1B62059  41.025  31.699   6.244
 4761POPC   C2B62060  40.878  31.665   6.681
 4761POPC   C3B62061  40.971  31.644   7.122
 4761POPC   C4B62062  41.183  31.482   7.479
 4762POPC   NC362063  21.938   1.909   5.346
 4762POPC   PO462064  22.465   1.488   5.383
 4762POPC   GL162065  22.438   1.742   5.778
 4762POPC   GL262066  22.109   1.913   5.828
 4762POPC   C1A62067  22.329   1.743   6.242
 4762POPC   D2A62068  22.062   1.891   6.557
 4762POPC   C3A62069  22.255   1.933   6.951
 4762POPC   C4A62070  21.874   1.887   7.147
 4762POPC   C1B62071  22.214   2.231   6.155
 4762POPC   C2B62072  22.305   2.320   6.592
 4762POPC   C3B62073  21.940   2.333   6.880
 4762POPC   C4B62074  21.982   2.344   7.317
 4763POPC   NC362075   3.259  44.765   5.678
 4763POPC   PO462076   4.003  44.931   5.614
 4763POPC   GL162077   3.721  44.859   5.892
 4763POPC   GL262078   3.689  44.524   5.899
 4763POPC   C1A62079   3.592  44.829   6.295
 4763POPC   D2A62080   3.625   0.091   6.609
 4763POPC   C3A62081   3.420  44.978   6.922
 4763POPC   C4A62082   3.537  44.855   7.296
 4763POPC   C1B62083   3.373  44.339   6.160
 4763POPC   C2B62084   3.444  44.411   6.561
 4763POPC   C3B62085   3.360  44.471   6.934
 4763POPC   C4B62086   3.555  44.331   7.283
 4764POPC   NC362087   8.393  32.724   5.395
 4764POPC   PO462088   7.733  32.601   5.397
 4764POPC   GL162089   7.986  32.669   5.820
 4764POPC   GL262090   8.377  32.709   5.889
 4764POPC   C1A62091   8.039  32.949   6.211
 4764POPC   D2A62092   8.221  33.302   6.473
 4764POPC   C3A62093   8.201  33.206   6.919
 4764POPC   C4A62094   8.348  33.136   7.311
 4764POPC   C1B62095   8.576  32.916   6.247
 4764POPC   C2B62096   8.408  32.838   6.630
 4764POPC   C3B62097   8.355  32.686   7.033
 4764POPC   C4B62098   8.685  32.724   7.307
 4765POPC   NC362099  43.727   6.023   5.000
 4765POPC   PO462100  43.994   5.583   5.622
 4765POPC   GL162101  43.785   5.797   5.980
 4765POPC   GL262102  44.050   5.972   5.997
 4765POPC   C1A62103  43.752   6.139   6.334
 4765POPC   D2A62104  43.917   5.968   6.665
 4765POPC   C3A62105  43.995   6.224   6.988
 4765POPC   C4A62106  43.823   6.281   7.347
 4765POPC   C1B62107  44.218   5.683   6.300
 4765POPC   C2B62108  44.166   5.538   6.730
 4765POPC   C3B62109  44.034   5.693   7.120
 4765POPC   C4B62110  44.347   6.002   7.283
 4766POPC   NC362111  36.196  43.642   5.561
 4766POPC   PO462112  36.061  44.275   5.467
 4766POPC   GL162113  35.995  44.041   5.819
 4766POPC   GL262114  35.737  43.759   5.761
 4766POPC   C1A62115  36.283  43.970   6.155
 4766POPC   D2A62116  36.446  43.738   6.482
 4766POPC   C3A62117  36.340  43.958   6.851
 4766POPC   C4A62118  36.266  43.881   7.268
 4766POPC   C1B62119  35.896  43.616   6.166
 4766POPC   C2B62120  35.961  43.618   6.603
 4766POPC   C3B62121  36.019  43.513   7.022
 4766POPC   C4B62122  35.944  43.466   7.473
 4767POPC   NC362123  16.232  36.065   5.526
 4767POPC   PO462124  15.714  35.741   5.237
 4767POPC   GL162125  15.752  35.970   5.709
 4767POPC   GL262126  15.752  36.311   5.746
 4767POPC   C1A62127  15.833  35.982   6.193
 4767POPC   D2A62128  15.990  36.173   6.608
 4767POPC   C3A62129  15.970  35.990   7.032
 4767POPC   C4A62130  16.107  36.197   7.402
 4767POPC   C1B62131  15.528  36.391   6.154
 4767POPC   C2B62132  15.610  36.557   6.571
 4767POPC   C3B62133  15.677  36.398   6.973
 4767POPC   C4B62134  15.617  36.206   7.403
 4768POPC   NC362135  29.353  23.173   5.372
 4768POPC   PO462136  29.013  22.594   5.391
 4768POPC   GL162137  29.015  22.941   5.699
 4768POPC   GL262138  29.367  22.938   5.822
 4768POPC   C1A62139  28.935  23.101   6.140
 4768POPC   D2A62140  28.800  23.097   6.609
 4768POPC   C3A62141  29.091  23.311   6.897
 4768POPC   C4A62142  29.348  23.148   7.209
 4768POPC   C1B62143  29.347  22.773   6.233
 4768POPC   C2B62144  29.272  22.850   6.675
 4768POPC   C3B62145  29.283  22.639   7.062
 4768POPC   C4B62146  29.350  22.738   7.513
 4769POPC   NC362147   1.691  16.918   5.600
 4769POPC   PO462148   2.222  16.514   5.555
 4769POPC   GL162149   2.070  16.740   5.904
 4769POPC   GL262150   2.098  17.118   5.844
 4769POPC   C1A62151   1.901  16.636   6.301
 4769POPC   D2A62152   1.820  16.554   6.745
 4769POPC   C3A62153   2.148  16.657   6.972
 4769POPC   C4A62154   2.304  16.391   7.285
 4769POPC   C1B62155   1.784  17.238   6.178
 4769POPC   C2B62156   1.683  17.383   6.599
 4769POPC   C3B62157   1.813  17.100   6.939
 4769POPC   C4B62158   1.624  17.029   7.300
 4770POPC   NC362159  18.070  43.130   5.427
 4770POPC   PO462160  18.723  42.900   5.575
 4770POPC   GL162161  18.542  42.987   5.958
 4770POPC   GL262162  18.202  43.107   5.903
 4770POPC   C1A62163  18.511  43.399   6.138
 4770POPC   D2A62164  18.357  43.517   6.523
 4770POPC   C3A62165  18.363  43.234   6.869
 4770POPC   C4A62166  18.108  43.296   7.251
 4770POPC   C1B62167  18.149  43.008   6.344
 4770POPC   C2B62168  18.017  42.651   6.617
 4770POPC   C3B62169  18.046  42.850   6.983
 4770POPC   C4B62170  18.297  42.834   7.342
 4771POPC   NC362171  37.060   4.676   5.565
 4771POPC   PO462172  36.879   5.276   5.220
 4771POPC   GL162173  36.892   5.155   5.686
 4771POPC   GL262174  37.240   5.187   5.798
 4771POPC   C1A62175  36.889   4.922   6.123
 4771POPC   D2A62176  36.731   4.982   6.534
 4771POPC   C3A62177  36.883   4.941   6.961
 4771POPC   C4A62178  36.943   5.338   7.175
 4771POPC   C1B62179  37.339   5.102   6.244
 4771POPC   C2B62180  37.287   4.993   6.675
 4771POPC   C3B62181  37.388   5.038   7.142
 4771POPC   C4B62182  37.471   4.874   7.612
 4772POPC   NC362183  21.426   7.713   5.304
 4772POPC   PO462184  21.868   7.155   5.388
 4772POPC   GL162185  21.601   7.365   5.777
 4772POPC   GL262186  21.342   7.155   5.849
 4772POPC   C1A62187  21.466   7.377   6.296
 4772POPC   D2A62188  21.657   7.483   6.714
 4772POPC   C3A62189  21.443   7.440   7.075
 4772POPC   C4A62190  21.008   7.485   7.066
 4772POPC   C1B62191  21.171   6.993   6.253
 4772POPC   C2B62192  21.234   7.096   6.721
 4772POPC   C3B62193  21.171   6.997   7.186
 4772POPC   C4B62194  20.990   6.891   7.626
 4773POPC   NC362195  10.467  13.852   5.506
 4773POPC   PO462196  10.238  13.172   5.454
 4773POPC   GL162197  10.268  13.506   5.832
 4773POPC   GL262198  10.637  13.508   5.890
 4773POPC   C1A62199  10.432  13.852   6.182
 4773POPC   D2A62200  10.819  13.819   6.488
 4773POPC   C3A62201  10.635  13.713   6.881
 4773POPC   C4A62202  10.292  13.960   7.096
 4773POPC   C1B62203  10.610  13.370   6.351
 4773POPC   C2B62204  10.914  13.226   6.683
 4773POPC   C3B62205  10.826  13.205   7.120
 4773POPC   C4B62206  10.444  13.411   7.257
 4774POPC   NC362207  10.095  21.054   5.648
 4774POPC   PO462208  10.493  20.500   5.441
 4774POPC   GL162209  10.537  20.620   5.856
 4774POPC   GL262210  10.527  20.968   5.920
 4774POPC   C1A62211  10.552  20.370   6.238
 4774POPC   D2A62212  10.798  20.350   6.638
 4774POPC   C3A62213  10.575  20.416   7.039
 4774POPC   C4A62214  10.719  20.473   7.465
 4774POPC   C1B62215  10.251  20.800   6.254
 4774POPC   C2B62216  10.303  20.633   6.657
 4774POPC   C3B62217  10.285  20.878   7.060
 4774POPC   C4B62218  10.600  20.959   7.384
 4775POPC   NC362219  16.813  31.129   5.492
 4775POPC   PO462220  17.022  31.786   5.452
 4775POPC   GL162221  16.749  31.580   5.758
 4775POPC   GL262222  16.854  31.850   5.992
 4775POPC   C1A62223  16.579  31.463   6.168
 4775POPC   D2A62224  16.794  31.515   6.553
 4775POPC   C3A62225  16.583  31.518   6.936
 4775POPC   C4A62226  16.382  31.656   7.331
 4775POPC   C1B62227  17.099  31.430   6.105
 4775POPC   C2B62228  17.203  31.197   6.495
 4775POPC   C3B62229  17.133  31.377   6.923
 4775POPC   C4B62230  16.947  31.598   7.264
 4776POPC   NC362231  21.564  32.910   5.276
 4776POPC   PO462232  21.428  33.566   5.358
 4776POPC   GL162233  21.172  33.314   5.693
 4776POPC   GL262234  21.467  33.127   5.792
 4776POPC   C1A62235  21.059  33.121   6.114
 4776POPC   D2A62236  21.237  33.060   6.524
 4776POPC   C3A62237  21.100  32.884   6.910
 4776POPC   C4A62238  21.332  32.996   7.304
 4776POPC   C1B62239  21.654  33.125   6.220
 4776POPC   C2B62240  21.733  33.046   6.673
 4776POPC   C3B62241  21.817  32.941   7.123
 4776POPC   C4B62242  21.778  33.014   7.589
 4777POPC   NC362243   2.102  18.545   5.368
 4777POPC   PO462244   1.501  18.345   5.299
 4777POPC   GL162245   1.705  18.156   5.676
 4777POPC   GL262246   1.884  18.424   5.847
 4777POPC   C1A62247   1.601  18.097   6.134
 4777POPC   D2A62248   1.734  18.285   6.562
 4777POPC   C3A62249   1.681  18.092   6.993
 4777POPC   C4A62250   1.725  18.238   7.436
 4777POPC   C1B62251   2.109  18.216   6.211
 4777POPC   C2B62252   2.352  18.213   6.635
 4777POPC   C3B62253   2.159  18.260   7.068
 4777POPC   C4B62254   2.240  18.202   7.535
 4778POPC   NC362255   2.585  29.506   5.542
 4778POPC   PO462256   2.595  30.209   5.436
 4778POPC   GL162257   2.721  29.990   5.801
 4778POPC   GL262258   3.096  29.954   5.754
 4778POPC   C1A62259   2.496  29.826   6.204
 4778POPC   D2A62260   2.351  29.880   6.658
 4778POPC   C3A62261   2.680  29.748   6.993
 4778POPC   C4A62262   2.762  29.687   7.450
 4778POPC   C1B62263   3.003  29.851   6.193
 4778POPC   C2B62264   2.802  30.105   6.548
 4778POPC   C3B62265   2.603  30.250   6.935
 4778POPC   C4B62266   2.804  30.177   7.342
 4779POPC   NC362267   9.604   7.039   5.351
 4779POPC   PO462268   9.827   7.750   5.379
 4779POPC   GL162269   9.839   7.499   5.766
 4779POPC   GL262270   9.512   7.311   5.780
 4779POPC   C1A62271   9.981   7.299   6.155
 4779POPC   D2A62272   9.788   7.309   6.564
 4779POPC   C3A62273   9.963   7.322   6.953
 4779POPC   C4A62274   9.922   6.982   7.218
 4779POPC   C1B62275   9.487   7.509   6.202
 4779POPC   C2B62276   9.365   7.596   6.651
 4779POPC   C3B62277   9.472   7.373   7.044
 4779POPC   C4B62278   9.417   7.005   7.296
 4780POPC   NC362279  19.802  22.479   5.444
 4780POPC   PO462280  20.161  21.921   5.459
 4780POPC   GL162281  19.864  21.846   5.799
 4780POPC   GL262282  19.700  22.189   5.882
 4780POPC   C1A62283  19.855  21.792   6.238
 4780POPC   D2A62284  19.726  22.008   6.585
 4780POPC   C3A62285  19.845  21.920   6.984
 4780POPC   C4A62286  19.865  22.273   7.246
 4780POPC   C1B62287  19.677  22.427   6.290
 4780POPC   C2B62288  19.786  22.472   6.769
 4780POPC   C3B62289  19.663  22.739   7.144
 4780POPC   C4B62290  19.636  22.846   7.609
 4781POPC   NC362291  19.793  24.879   5.489
 4781POPC   PO462292  19.879  25.456   5.303
 4781POPC   GL162293  20.030  25.478   5.747
 4781POPC   GL262294  20.100  25.136   5.804
 4781POPC   C1A62295  19.850  25.474   6.163
 4781POPC   D2A62296  19.644  25.301   6.525
 4781POPC   C3A62297  19.749  25.389   6.942
 4781POPC   C4A62298  19.435  25.431   7.271
 4781POPC   C1B62299  20.244  25.117   6.205
 4781POPC   C2B62300  20.207  24.945   6.594
 4781POPC   C3B62301  20.257  25.109   6.940
 4781POPC   C4B62302  20.154  25.239   7.315
 4782POPC   NC362303  34.866  22.068   5.479
 4782POPC   PO462304  34.161  22.291   5.586
 4782POPC   GL162305  34.494  22.125   5.863
 4782POPC   GL262306  34.767  22.338   5.918
 4782POPC   C1A62307  34.503  22.068   6.306
 4782POPC   D2A62308  34.330  21.818   6.659
 4782POPC   C3A62309  34.424  22.062   7.022
 4782POPC   C4A62310  34.351  22.455   7.236
 4782POPC   C1B62311  35.005  22.239   6.274
 4782POPC   C2B62312  34.996  22.384   6.673
 4782POPC   C3B62313  34.939  22.345   7.100
 4782POPC   C4B62314  34.820  21.988   7.358
 4783POPC   NC362315  34.107  28.705   5.556
 4783POPC   PO462316  33.766  28.167   5.638
 4783POPC   GL162317  33.728  28.359   6.016
 4783POPC   GL262318  33.787  28.692   5.966
 4783POPC   C1A62319  33.919  28.467   6.406
 4783POPC   D2A62320  33.794  28.259   6.754
 4783POPC   C3A62321  33.922  28.255   7.160
 4783POPC   C4A62322  33.648  28.149   7.462
 4783POPC   C1B62323  33.481  28.725   6.274
 4783POPC   C2B62324  33.386  28.528   6.632
 4783POPC   C3B62325  33.518  28.571   7.064
 4783POPC   C4B62326  33.725  28.751   7.396
 4784POPC   NC362327  30.832  28.587   5.448
 4784POPC   PO462328  30.339  28.153   5.358
 4784POPC   GL162329  30.529  28.314   5.763
 4784POPC   GL262330  30.424  28.636   5.822
 4784POPC   C1A62331  30.714  28.466   6.197
 4784POPC   D2A62332  30.897  28.408   6.630
 4784POPC   C3A62333  30.669  28.284   7.000
 4784POPC   C4A62334  30.805  28.316   7.435
 4784POPC   C1B62335  30.306  28.767   6.242
 4784POPC   C2B62336  30.639  28.856   6.576
 4784POPC   C3B62337  30.734  28.793   7.013
 4784POPC   C4B62338  30.480  28.684   7.360
 4785POPC   NC362339  29.025  27.763   5.413
 4785POPC   PO462340  29.374  27.218   5.482
 4785POPC   GL162341  29.085  27.425   5.809
 4785POPC   GL262342  28.866  27.752   5.879
 4785POPC   C1A62343  29.041  27.443   6.252
 4785POPC   D2A62344  29.291  27.567   6.580
 4785POPC   C3A62345  29.076  27.423   6.885
 4785POPC   C4A62346  29.094  27.460   7.274
 4785POPC   C1B62347  28.623  27.778   6.244
 4785POPC   C2B62348  28.809  27.806   6.636
 4785POPC   C3B62349  28.695  27.731   7.064
 4785POPC   C4B62350  28.877  27.874   7.477
 4786POPC   NC362351  41.629  20.756   5.279
 4786POPC   PO462352  41.107  20.480   5.661
 4786POPC   GL162353  41.345  20.673   5.977
 4786POPC   GL262354  41.590  20.894   5.795
 4786POPC   C1A62355  41.464  20.422   6.333
 4786POPC   D2A62356  41.478  20.144   6.679
 4786POPC   C3A62357  41.362  20.316   7.063
 4786POPC   C4A62358  41.341  20.741   7.299
 4786POPC   C1B62359  41.806  20.777   6.183
 4786POPC   C2B62360  41.897  20.558   6.609
 4786POPC   C3B62361  41.811  20.563   7.065
 4786POPC   C4B62362  41.807  20.695   7.496
 4787POPC   NC362363  15.362  43.113   5.359
 4787POPC   PO462364  14.891  43.580   5.438
 4787POPC   GL162365  14.805  43.397   5.839
 4787POPC   GL262366  15.097  43.161   5.867
 4787POPC   C1A62367  14.875  43.381   6.291
 4787POPC   D2A62368  15.117  43.371   6.635
 4787POPC   C3A62369  14.936  43.251   7.026
 4787POPC   C4A62370  15.252  43.188   7.323
 4787POPC   C1B62371  15.379  43.181   6.221
 4787POPC   C2B62372  15.412  42.932   6.616
 4787POPC   C3B62373  15.404  42.767   7.034
 4787POPC   C4B62374  15.197  42.632   7.436
 4788POPC   NC362375  20.070  44.869   5.609
 4788POPC   PO462376  19.895  44.303   5.217
 4788POPC   GL162377  19.682  44.425   5.645
 4788POPC   GL262378  19.502  44.730   5.735
 4788POPC   C1A62379  19.760  44.473   6.099
 4788POPC   D2A62380  20.123  44.488   6.411
 4788POPC   C3A62381  20.093  44.725   6.820
 4788POPC   C4A62382  19.978  44.476   7.215
 4788POPC   C1B62383  19.490  44.943   6.172
 4788POPC   C2B62384  19.692  44.764   6.506
 4788POPC   C3B62385  19.605  44.609   6.882
 4788POPC   C4B62386  19.777  44.940   7.178
 4789POPC   NC362387  31.607   2.669   5.297
 4789POPC   PO462388  30.993   2.609   5.430
 4789POPC   GL162389  31.364   2.704   5.758
 4789POPC   GL262390  31.752   2.602   5.785
 4789POPC   C1A62391  31.455   2.805   6.211
 4789POPC   D2A62392  31.368   2.668   6.647
 4789POPC   C3A62393  31.483   2.946   7.029
 4789POPC   C4A62394  31.926   2.943   7.164
 4789POPC   C1B62395  31.708   2.379   6.202
 4789POPC   C2B62396  31.782   2.391   6.662
 4789POPC   C3B62397  31.659   2.470   7.116
 4789POPC   C4B62398  31.596   2.675   7.540
 4790POPC   NC362399   5.573  31.080   5.414
 4790POPC   PO462400   5.115  30.581   5.373
 4790POPC   GL162401   5.188  30.802   5.723
 4790POPC   GL262402   5.157  31.142   5.703
 4790POPC   C1A62403   4.970  30.883   6.125
 4790POPC   D2A62404   5.023  30.635   6.485
 4790POPC   C3A62405   4.868  30.706   6.884
 4790POPC   C4A62406   5.004  30.413   7.189
 4790POPC   C1B62407   5.436  31.088   6.051
 4790POPC   C2B62408   5.454  30.991   6.471
 4790POPC   C3B62409   5.395  30.777   6.846
 4790POPC   C4B62410   5.212  30.889   7.214
 4791POPC   NC362411  18.225   8.152   5.151
 4791POPC   PO462412  18.883   8.105   5.157
 4791POPC   GL162413  18.574   8.318   5.554
 4791POPC   GL262414  18.230   8.172   5.669
 4791POPC   C1A62415  18.445   8.447   6.052
 4791POPC   D2A62416  18.156   8.423   6.495
 4791POPC   C3A62417  18.309   8.326   6.924
 4791POPC   C4A62418  18.501   8.394   7.343
 4791POPC   C1B62419  18.017   8.153   6.091
 4791POPC   C2B62420  17.984   7.946   6.523
 4791POPC   C3B62421  17.953   7.949   6.967
 4791POPC   C4B62422  18.196   7.835   7.334
 4792POPC   NC362423  32.153  35.679   5.442
 4792POPC   PO462424  32.641  35.426   5.020
 4792POPC   GL162425  32.465  35.272   5.478
 4792POPC   GL262426  32.443  35.515   5.810
 4792POPC   C1A62427  32.207  35.077   5.881
 4792POPC   D2A62428  32.252  35.219   6.363
 4792POPC   C3A62429  32.031  35.097   6.779
 4792POPC   C4A62430  32.133  35.092   7.238
 4792POPC   C1B62431  32.588  35.633   6.222
 4792POPC   C2B62432  32.337  35.706   6.624
 4792POPC   C3B62433  32.251  35.575   7.056
 4792POPC   C4B62434  31.989  35.556   7.418
 4793POPC   NC362435   2.012  12.514   5.212
 4793POPC   PO462436   1.760  13.121   5.397
 4793POPC   GL162437   1.779  12.897   5.766
 4793POPC   GL262438   1.494  12.772   5.891
 4793POPC   C1A62439   1.980  12.871   6.169
 4793POPC   D2A62440   2.199  12.792   6.564
 4793POPC   C3A62441   2.175  13.130   6.863
 4793POPC   C4A62442   2.184  13.016   7.281
 4793POPC   C1B62443   1.602  12.487   6.216
 4793POPC   C2B62444   1.798  12.466   6.594
 4793POPC   C3B62445   1.853  12.693   6.976
 4793POPC   C4B62446   1.758  12.637   7.412
 4794POPC   NC362447  18.288  33.140   5.253
 4794POPC   PO462448  17.850  32.630   5.493
 4794POPC   GL162449  18.283  32.779   5.673
 4794POPC   GL262450  18.382  33.156   5.799
 4794POPC   C1A62451  18.502  32.750   6.076
 4794POPC   D2A62452  18.513  32.685   6.520
 4794POPC   C3A62453  18.156  32.859   6.721
 4794POPC   C4A62454  18.201  32.860   7.136
 4794POPC   C1B62455  18.579  33.202   6.286
 4794POPC   C2B62456  18.530  33.198   6.795
 4794POPC   C3B62457  18.553  33.214   7.283
 4794POPC   C4B62458  18.781  33.133   7.688
 4795POPC   NC362459  41.177  43.772   5.302
 4795POPC   PO462460  41.804  43.930   5.532
 4795POPC   GL162461  41.638  43.821   5.911
 4795POPC   GL262462  41.407  43.525   5.784
 4795POPC   C1A62463  41.624  44.031   6.345
 4795POPC   D2A62464  41.332  44.317   6.600
 4795POPC   C3A62465  41.226  44.297   7.045
 4795POPC   C4A62466  41.344  44.182   7.471
 4795POPC   C1B62467  41.361  43.580   6.247
 4795POPC   C2B62468  41.261  43.792   6.645
 4795POPC   C3B62469  41.475  43.864   7.034
 4795POPC   C4B62470  41.423  43.676   7.418
 4796POPC   NC362471   7.686  36.224   5.136
 4796POPC   PO462472   7.121  35.927   5.325
 4796POPC   GL162473   7.282  36.125   5.750
 4796POPC   GL262474   7.645  36.026   5.785
 4796POPC   C1A62475   7.551  36.354   6.130
 4796POPC   D2A62476   7.793  36.284   6.515
 4796POPC   C3A62477   7.596  36.253   6.927
 4796POPC   C4A62478   7.237  36.238   7.154
 4796POPC   C1B62479   7.400  35.857   6.173
 4796POPC   C2B62480   7.298  35.959   6.603
 4796POPC   C3B62481   7.417  35.770   7.000
 4796POPC   C4B62482   7.689  35.877   7.332
 4797POPC   NC362483  23.163   0.461   5.355
 4797POPC   PO462484  22.593   0.775   5.202
 4797POPC   GL162485  22.708   0.524   5.607
 4797POPC   GL262486  23.027   0.609   5.815
 4797POPC   C1A62487  22.694   0.306   6.035
 4797POPC   D2A62488  22.678   0.328   6.485
 4797POPC   C3A62489  22.838   0.206   6.938
 4797POPC   C4A62490  22.928   0.258   7.417
 4797POPC   C1B62491  23.064   0.623   6.267
 4797POPC   C2B62492  22.969   0.698   6.705
 4797POPC   C3B62493  22.934   0.702   7.137
 4797POPC   C4B62494  23.246   0.703   7.451
 4798POPC   NC362495   9.408   2.660   5.399
 4798POPC   PO462496   8.799   2.902   5.453
 4798POPC   GL162497   9.010   2.779   5.800
 4798POPC   GL262498   8.701   2.646   5.962
 4798POPC   C1A62499   9.250   2.922   6.159
 4798POPC   D2A62500   9.091   2.913   6.595
 4798POPC   C3A62501   9.243   2.891   7.047
 4798POPC   C4A62502   9.153   2.522   7.300
 4798POPC   C1B62503   8.591   3.050   6.100
 4798POPC   C2B62504   8.616   3.112   6.534
 4798POPC   C3B62505   8.650   2.835   6.891
 4798POPC   C4B62506   8.723   2.830   7.327
 4799POPC   NC362507  25.590   1.165   5.394
 4799POPC   PO462508  25.043   1.445   5.676
 4799POPC   GL162509  25.452   1.335   5.840
 4799POPC   GL262510  25.692   1.614   5.717
 4799POPC   C1A62511  25.459   1.138   6.235
 4799POPC   D2A62512  25.144   1.187   6.547
 4799POPC   C3A62513  25.323   1.056   6.906
 4799POPC   C4A62514  25.037   0.945   7.187
 4799POPC   C1B62515  25.504   1.731   6.146
 4799POPC   C2B62516  25.481   1.573   6.554
 4799POPC   C3B62517  25.353   1.569   7.000
 4799POPC   C4B62518  25.565   1.713   7.427
 4800POPC   NC362519  34.822  15.305   5.348
 4800POPC   PO462520  34.139  15.172   5.542
 4800POPC   GL162521  34.500  15.260   5.815
 4800POPC   GL262522  34.780  15.020   5.766
 4800POPC   C1A62523  34.470  15.323   6.282
 4800POPC   D2A62524  34.151  15.243   6.601
 4800POPC   C3A62525  34.322  15.177   7.000
 4800POPC   C4A62526  34.631  15.356   7.262
 4800POPC   C1B62527  34.885  15.023   6.174
 4800POPC   C2B62528  34.751  14.931   6.580
 4800POPC   C3B62529  34.916  15.037   6.970
 4800POPC   C4B62530  34.899  14.979   7.436
 4801POPC   NC362531  10.187   8.216   5.316
 4801POPC   PO462532  10.714   7.783   5.516
 4801POPC   GL162533  10.420   8.061   5.768
 4801POPC   GL262534  10.043   8.006   5.775
 4801POPC   C1A62535  10.279   8.248   6.147
 4801POPC   D2A62536  10.197   8.188   6.556
 4801POPC   C3A62537  10.530   8.012   6.771
 4801POPC   C4A62538  10.462   8.244   7.145
 4801POPC   C1B62539   9.975   7.826   6.196
 4801POPC   C2B62540  10.121   7.692   6.614
 4801POPC   C3B62541  10.167   7.814   7.059
 4801POPC   C4B62542  10.331   7.910   7.504
 4802POPC   NC362543   7.702   8.080   5.427
 4802POPC   PO462544   8.181   8.474   5.406
 4802POPC   GL162545   8.189   8.141   5.750
 4802POPC   GL262546   7.888   8.010   5.885
 4802POPC   C1A62547   8.271   8.057   6.203
 4802POPC   D2A62548   8.229   8.267   6.579
 4802POPC   C3A62549   8.412   8.160   6.995
 4802POPC   C4A62550   8.196   7.977   7.380
 4802POPC   C1B62551   7.829   8.374   6.169
 4802POPC   C2B62552   7.708   8.451   6.622
 4802POPC   C3B62553   7.903   8.293   6.984
 4802POPC   C4B62554   7.911   8.394   7.408
 4803POPC   NC362555   3.775  21.713   5.243
 4803POPC   PO462556   3.543  21.032   5.314
 4803POPC   GL162557   3.390  21.277   5.675
 4803POPC   GL262558   3.311  21.648   5.645
 4803POPC   C1A62559   3.481  21.331   6.112
 4803POPC   D2A62560   3.523  21.070   6.457
 4803POPC   C3A62561   3.740  21.203   6.806
 4803POPC   C4A62562   3.815  21.174   7.220
 4803POPC   C1B62563   3.090  21.659   6.062
 4803POPC   C2B62564   3.058  21.442   6.452
 4803POPC   C3B62565   3.273  21.448   6.832
 4803POPC   C4B62566   3.504  21.572   7.182
 4804POPC   NC362567  36.596  23.936   5.393
 4804POPC   PO462568  35.962  23.705   5.420
 4804POPC   GL162569  36.073  23.759   5.844
 4804POPC   GL262570  36.335  23.974   5.844
 4804POPC   C1A62571  36.010  23.747   6.288
 4804POPC   D2A62572  36.096  23.873   6.712
 4804POPC   C3A62573  35.920  23.630   7.087
 4804POPC   C4A62574  35.856  23.255   7.348
 4804POPC   C1B62575  36.541  23.821   6.212
 4804POPC   C2B62576  36.626  23.862   6.655
 4804POPC   C3B62577  36.451  23.717   7.077
 4804POPC   C4B62578  36.463  23.645   7.529
 4805POPC   NC362579   8.069   5.900   5.093
 4805POPC   PO462580   8.634   6.143   5.405
 4805POPC   GL162581   8.382   5.920   5.763
 4805POPC   GL262582   8.005   5.961   5.770
 4805POPC   C1A62583   8.342   5.684   6.146
 4805POPC   D2A62584   8.091   5.595   6.525
 4805POPC   C3A62585   8.345   5.642   6.884
 4805POPC   C4A62586   8.694   5.820   7.128
 4805POPC   C1B62587   7.904   5.983   6.228
 4805POPC   C2B62588   8.026   6.069   6.702
 4805POPC   C3B62589   7.936   5.834   7.127
 4805POPC   C4B62590   7.878   5.765   7.590
 4806POPC   NC362591  35.891   0.995   5.479
 4806POPC   PO462592  36.439   1.342   5.378
 4806POPC   GL162593  36.265   1.206   5.805
 4806POPC   GL262594  36.421   0.910   5.782
 4806POPC   C1A62595  36.076   1.013   6.215
 4806POPC   D2A62596  35.855   1.245   6.526
 4806POPC   C3A62597  36.119   1.513   6.770
 4806POPC   C4A62598  36.121   1.549   7.189
 4806POPC   C1B62599  36.567   0.964   6.176
 4806POPC   C2B62600  36.418   1.150   6.580
 4806POPC   C3B62601  36.103   1.008   6.915
 4806POPC   C4B62602  36.145   0.792   7.313
 4807POPC   NC362603   6.984   4.885   5.472
 4807POPC   PO462604   6.382   4.977   5.487
 4807POPC   GL162605   6.634   5.039   5.818
 4807POPC   GL262606   6.773   4.698   5.894
 4807POPC   C1A62607   6.543   5.345   6.130
 4807POPC   D2A62608   6.678   5.462   6.524
 4807POPC   C3A62609   6.467   5.337   6.911
 4807POPC   C4A62610   6.588   5.019   7.219
 4807POPC   C1B62611   6.751   4.903   6.295
 4807POPC   C2B62612   6.718   4.935   6.703
 4807POPC   C3B62613   7.007   4.831   6.992
 4807POPC   C4B62614   6.891   4.605   7.327
 4808POPC   NC362615  15.482  11.504   5.394
 4808POPC   PO462616  14.850  11.340   5.456
 4808POPC   GL162617  15.074  11.217   5.814
 4808POPC   GL262618  15.352  10.928   5.781
 4808POPC   C1A62619  14.872  11.243   6.207
 4808POPC   D2A62620  14.829  10.957   6.531
 4808POPC   C3A62621  14.905  11.118   6.969
 4808POPC   C4A62622  14.870  11.095   7.430
 4808POPC   C1B62623  15.299  10.917   6.245
 4808POPC   C2B62624  15.252  11.240   6.560
 4808POPC   C3B62625  15.364  11.393   6.952
 4808POPC   C4B62626  15.516  11.368   7.344
 4809POPC   NC362627  12.079  10.802   5.412
 4809POPC   PO462628  12.558  10.333   5.195
 4809POPC   GL162629  12.331  10.247   5.648
 4809POPC   GL262630  12.000  10.401   5.725
 4809POPC   C1A62631  12.313  10.264   6.120
 4809POPC   D2A62632  12.084  10.405   6.468
 4809POPC   C3A62633  12.226  10.319   6.876
 4809POPC   C4A62634  12.172  10.507   7.253
 4809POPC   C1B62635  11.789  10.649   6.095
 4809POPC   C2B62636  11.722  10.754   6.568
 4809POPC   C3B62637  11.726  10.547   7.001
 4809POPC   C4B62638  11.780  10.771   7.412
 4810POPC   NC362639   9.082  19.879   5.323
 4810POPC   PO462640   8.936  19.334   5.441
 4810POPC   GL162641   8.865  19.694   5.757
 4810POPC   GL262642   8.919  20.072   5.751
 4810POPC   C1A62643   8.959  19.761   6.205
 4810POPC   D2A62644   9.137  19.912   6.584
 4810POPC   C3A62645   9.095  19.785   7.009
 4810POPC   C4A62646   9.023  19.566   7.395
 4810POPC   C1B62647   8.831  20.264   6.127
 4810POPC   C2B62648   8.676  20.138   6.532
 4810POPC   C3B62649   8.771  20.216   6.971
 4810POPC   C4B62650   8.852  20.039   7.383
 4811POPC   NC362651  38.547  20.899   5.355
 4811POPC   PO462652  38.017  20.379   5.439
 4811POPC   GL162653  38.176  20.513   5.838
 4811POPC   GL262654  38.204  20.862   5.882
 4811POPC   C1A62655  38.276  20.482   6.286
 4811POPC   D2A62656  38.389  20.692   6.718
 4811POPC   C3A62657  38.388  20.483   7.149
 4811POPC   C4A62658  38.155  20.582   7.557
 4811POPC   C1B62659  38.188  20.999   6.318
 4811POPC   C2B62660  38.036  21.063   6.745
 4811POPC   C3B62661  38.190  20.967   7.189
 4811POPC   C4B62662  38.205  21.101   7.659
 4812POPC   NC362663  35.544  15.994   5.415
 4812POPC   PO462664  34.949  16.355   5.578
 4812POPC   GL162665  35.156  15.999   5.817
 4812POPC   GL262666  35.432  15.719   5.812
 4812POPC   C1A62667  35.190  15.884   6.254
 4812POPC   D2A62668  35.441  15.911   6.603
 4812POPC   C3A62669  35.182  16.047   6.936
 4812POPC   C4A62670  35.216  16.208   7.374
 4812POPC   C1B62671  35.675  15.655   6.197
 4812POPC   C2B62672  35.749  15.476   6.601
 4812POPC   C3B62673  35.762  15.682   6.988
 4812POPC   C4B62674  35.445  15.777   7.271
 4813POPC   NC362675   5.425  11.724   5.657
 4813POPC   PO462676   5.679  11.224   5.234
 4813POPC   GL162677   5.791  11.231   5.701
 4813POPC   GL262678   5.935  11.517   5.731
 4813POPC   C1A62679   5.654  11.331   6.165
 4813POPC   D2A62680   5.769  11.364   6.622
 4813POPC   C3A62681   5.543  11.040   6.890
 4813POPC   C4A62682   5.455  10.982   7.329
 4813POPC   C1B62683   6.002  11.704   6.136
 4813POPC   C2B62684   6.105  11.795   6.578
 4813POPC   C3B62685   6.069  11.593   6.988
 4813POPC   C4B62686   5.751  11.391   7.202
 4814POPC   NC362687  41.931  18.590   5.332
 4814POPC   PO462688  41.839  17.986   5.564
 4814POPC   GL162689  41.582  18.257   5.827
 4814POPC   GL262690  41.357  18.044   6.023
 4814POPC   C1A62691  41.665  18.500   6.216
 4814POPC   D2A62692  41.803  18.755   6.553
 4814POPC   C3A62693  41.789  18.600   6.965
 4814POPC   C4A62694  41.519  18.530   7.277
 4814POPC   C1B62695  41.753  18.004   6.252
 4814POPC   C2B62696  41.813  18.179   6.662
 4814POPC   C3B62697  41.579  18.081   7.045
 4814POPC   C4B62698  41.753  18.007   7.471
 4815POPC   NC362699  43.413   3.782   5.416
 4815POPC   PO462700  43.027   3.341   5.080
 4815POPC   GL162701  43.061   3.393   5.565
 4815POPC   GL262702  42.996   3.752   5.730
 4815POPC   C1A62703  43.184   3.362   6.015
 4815POPC   D2A62704  42.937   3.319   6.404
 4815POPC   C3A62705  43.110   3.478   6.804
 4815POPC   C4A62706  43.013   3.387   7.236
 4815POPC   C1B62707  42.931   3.811   6.198
 4815POPC   C2B62708  42.702   3.966   6.600
 4815POPC   C3B62709  42.786   3.890   7.043
 4815POPC   C4B62710  43.212   3.867   7.210
 4816POPC   NC362711  31.065  19.629   5.709
 4816POPC   PO462712  30.567  19.933   5.380
 4816POPC   GL162713  30.626  19.979   5.806
 4816POPC   GL262714  30.495  19.669   5.840
 4816POPC   C1A62715  30.750  19.895   6.252
 4816POPC   D2A62716  31.046  19.759   6.570
 4816POPC   C3A62717  30.976  20.024   6.906
 4816POPC   C4A62718  30.957  19.918   7.324
 4816POPC   C1B62719  30.272  19.699   6.241
 4816POPC   C2B62720  30.449  19.703   6.661
 4816POPC   C3B62721  30.617  19.591   7.065
 4816POPC   C4B62722  30.433  19.644   7.476
 4817POPC   NC362723  27.273  44.746   5.452
 4817POPC   PO462724  26.561  44.711   5.417
 4817POPC   GL162725  26.822  44.854   5.777
 4817POPC   GL262726  26.900  44.612   6.071
 4817POPC   C1A62727  26.659   0.024   6.179
 4817POPC   D2A62728  26.560  44.691   6.469
 4817POPC   C3A62729  26.775  44.671   6.846
 4817POPC   C4A62730  26.695  44.737   7.262
 4817POPC   C1B62731  27.170  44.946   6.204
 4817POPC   C2B62732  27.016   0.106   6.616
 4817POPC   C3B62733  27.130   0.010   7.032
 4817POPC   C4B62734  27.224  44.627   7.265
 4818POPC   NC362735  17.073  36.603   5.491
 4818POPC   PO462736  16.572  36.748   5.009
 4818POPC   GL162737  16.644  36.874   5.583
 4818POPC   GL262738  16.898  37.023   5.807
 4818POPC   C1A62739  16.690  36.651   6.093
 4818POPC   D2A62740  16.908  36.555   6.549
 4818POPC   C3A62741  16.749  36.584   7.035
 4818POPC   C4A62742  16.788  36.701   7.521
 4818POPC   C1B62743  16.922  37.094   6.287
 4818POPC   C2B62744  16.829  37.134   6.778
 4818POPC   C3B62745  16.988  37.018   7.198
 4818POPC   C4B62746  17.114  37.257   7.576
 4819POPC   NC362747  43.505  29.257   5.683
 4819POPC   PO462748  44.083  29.265   5.341
 4819POPC   GL162749  44.003  29.113   5.755
 4819POPC   GL262750  43.756  28.835   5.877
 4819POPC   C1A62751  44.013  29.252   6.166
 4819POPC   D2A62752  43.941  29.010   6.516
 4819POPC   C3A62753  44.091  29.195   6.878
 4819POPC   C4A62754  44.130  29.334   7.291
 4819POPC   C1B62755  43.482  28.872   6.276
 4819POPC   C2B62756  43.496  28.923   6.733
 4819POPC   C3B62757  43.637  29.065   7.106
 4819POPC   C4B62758  43.828  28.924   7.465
 4820POPC   NC362759  20.014  44.036   5.581
 4820POPC   PO462760  19.876  43.599   5.170
 4820POPC   GL162761  19.789  43.662   5.770
 4820POPC   GL262762  20.153  43.581   5.825
 4820POPC   C1A62763  19.573  43.978   6.127
 4820POPC   D2A62764  19.689  44.220   6.534
 4820POPC   C3A62765  19.842  44.049   6.934
 4820POPC   C4A62766  19.551  43.874   7.218
 4820POPC   C1B62767  19.948  43.650   6.233
 4820POPC   C2B62768  19.685  43.683   6.582
 4820POPC   C3B62769  19.779  43.480   6.955
 4820POPC   C4B62770  20.160  43.634   7.116
 4821POPC   NC362771  35.576   7.702   5.383
 4821POPC   PO462772  35.012   7.442   5.533
 4821POPC   GL162773  35.099   7.270   5.896
 4821POPC   GL262774  35.432   7.362   5.848
 4821POPC   C1A62775  35.131   7.377   6.301
 4821POPC   D2A62776  34.999   7.568   6.666
 4821POPC   C3A62777  35.168   7.231   6.866
 4821POPC   C4A62778  35.231   7.116   7.267
 4821POPC   C1B62779  35.609   7.559   6.209
 4821POPC   C2B62780  35.515   7.617   6.660
 4821POPC   C3B62781  35.408   7.602   7.101
 4821POPC   C4B62782  35.544   7.451   7.484
 4822POPC   NC362783  35.033  42.102   5.390
 4822POPC   PO462784  35.639  42.360   5.468
 4822POPC   GL162785  35.462  42.538   5.868
 4822POPC   GL262786  35.160  42.376   5.807
 4822POPC   C1A62787  35.352  42.411   6.329
 4822POPC   D2A62788  35.188  42.152   6.676
 4822POPC   C3A62789  35.372  42.228   7.085
 4822POPC   C4A62790  35.576  42.622   7.155
 4822POPC   C1B62791  34.909  42.522   6.122
 4822POPC   C2B62792  34.807  42.512   6.553
 4822POPC   C3B62793  35.017  42.575   6.948
 4822POPC   C4B62794  35.124  42.568   7.390
 4823POPC   NC362795   0.190  41.379   5.569
 4823POPC   PO462796   0.411  41.873   5.175
 4823POPC   GL162797   0.496  41.956   5.699
 4823POPC   GL262798   0.531  41.621   5.862
 4823POPC   C1A62799   0.411  41.939   6.219
 4823POPC   D2A62800   0.484  41.648   6.596
 4823POPC   C3A62801   0.259  41.689   7.011
 4823POPC   C4A62802   0.141  41.768   7.448
 4823POPC   C1B62803   0.529  41.279   6.207
 4823POPC   C2B62804   0.487  41.131   6.652
 4823POPC   C3B62805   0.641  41.320   7.043
 4823POPC   C4B62806   0.741  41.163   7.452
 4824POPC   NC362807   1.111  34.042   5.344
 4824POPC   PO462808   1.302  33.407   5.492
 4824POPC   GL162809   1.167  33.747   5.785
 4824POPC   GL262810   0.830  33.854   5.747
 4824POPC   C1A62811   1.135  34.045   6.174
 4824POPC   D2A62812   1.165  33.800   6.574
 4824POPC   C3A62813   1.209  33.962   6.990
 4824POPC   C4A62814   1.457  33.955   7.394
 4824POPC   C1B62815   0.833  33.647   6.174
 4824POPC   C2B62816   0.754  33.453   6.573
 4824POPC   C3B62817   0.911  33.548   6.956
 4824POPC   C4B62818   1.235  33.518   7.251
 4825POPC   NC362819  44.702   7.383   5.452
 4825POPC   PO462820  44.207   6.983   5.756
 4825POPC   GL162821  44.503   7.320   5.915
 4825POPC   GL262822  44.909   7.287   5.888
 4825POPC   C1A62823  44.495   7.573   6.299
 4825POPC   D2A62824  44.279   7.608   6.704
 4825POPC   C3A62825  44.514   7.538   7.074
 4825POPC   C4A62826  44.801   7.443   7.456
 4825POPC   C1B62827  44.988   7.404   6.282
 4825POPC   C2B62828  44.865   7.444   6.708
 4825POPC   C3B62829   0.107   7.272   7.042
 4825POPC   C4B62830   0.049   7.004   7.387
 4826POPC   NC362831   3.043  22.915   5.293
 4826POPC   PO462832   3.751  22.929   5.207
 4826POPC   GL162833   3.786  23.014   5.661
 4826POPC   GL262834   3.443  23.059   5.740
 4826POPC   C1A62835   3.733  22.821   6.102
 4826POPC   D2A62836   3.451  22.919   6.480
 4826POPC   C3A62837   3.685  22.793   6.846
 4826POPC   C4A62838   3.572  22.787   7.274
 4826POPC   C1B62839   3.599  23.298   6.132
 4826POPC   C2B62840   3.819  23.248   6.537
 4826POPC   C3B62841   3.697  23.304   6.924
 4826POPC   C4B62842   3.439  23.307   7.258
 4827POPC   NC362843   6.354  39.036   5.410
 4827POPC   PO462844   6.744  39.642   5.257
 4827POPC   GL162845   6.669  39.423   5.679
 4827POPC   GL262846   6.366  39.284   5.868
 4827POPC   C1A62847   6.790  39.466   6.122
 4827POPC   D2A62848   6.763  39.147   6.429
 4827POPC   C3A62849   6.682  39.172   6.849
 4827POPC   C4A62850   6.818  39.455   7.179
 4827POPC   C1B62851   6.248  38.999   6.206
 4827POPC   C2B62852   6.386  38.812   6.592
 4827POPC   C3B62853   6.322  38.743   6.993
 4827POPC   C4B62854   6.281  39.138   7.177
 4828POPC   NC362855  36.999  23.067   5.360
 4828POPC   PO462856  36.683  22.465   5.204
 4828POPC   GL162857  36.882  22.649   5.667
 4828POPC   GL262858  36.869  23.002   5.832
 4828POPC   C1A62859  36.857  22.596   6.124
 4828POPC   D2A62860  36.710  22.906   6.463
 4828POPC   C3A62861  36.966  22.954   6.842
 4828POPC   C4A62862  37.151  22.983   7.254
 4828POPC   C1B62863  36.831  23.290   6.112
 4828POPC   C2B62864  36.827  23.416   6.477
 4828POPC   C3B62865  36.846  23.463   6.875
 4828POPC   C4B62866  36.819  23.373   7.284
 4829POPC   NC362867  32.691  22.306   5.353
 4829POPC   PO462868  33.346  21.965   5.311
 4829POPC   GL162869  33.011  22.026   5.674
 4829POPC   GL262870  32.830  21.708   5.777
 4829POPC   C1A62871  32.896  22.356   6.040
 4829POPC   D2A62872  32.744  22.259   6.487
 4829POPC   C3A62873  33.004  22.401   6.834
 4829POPC   C4A62874  32.910  22.452   7.254
 4829POPC   C1B62875  32.991  21.888   6.194
 4829POPC   C2B62876  33.126  21.940   6.664
 4829POPC   C3B62877  33.038  21.962   7.130
 4829POPC   C4B62878  33.174  21.830   7.564
 4830POPC   NC362879  30.632  14.130   5.379
 4830POPC   PO462880  31.253  14.391   5.300
 4830POPC   GL162881  30.918  14.474   5.656
 4830POPC   GL262882  30.940  14.142   5.784
 4830POPC   C1A62883  30.829  14.467   6.161
 4830POPC   D2A62884  30.917  14.377   6.639
 4830POPC   C3A62885  30.906  14.737   6.964
 4830POPC   C4A62886  31.073  14.812   7.428
 4830POPC   C1B62887  30.511  14.062   6.022
 4830POPC   C2B62888  30.474  13.930   6.468
 4830POPC   C3B62889  30.661  13.978   6.890
 4830POPC   C4B62890  30.601  14.086   7.341
 4831POPC   NC362891   3.213  36.201   5.480
 4831POPC   PO462892   2.664  35.977   5.145
 4831POPC   GL162893   2.706  36.088   5.652
 4831POPC   GL262894   2.575  36.399   5.828
 4831POPC   C1A62895   2.768  36.000   6.122
 4831POPC   D2A62896   2.970  35.828   6.546
 4831POPC   C3A62897   2.750  35.906   6.956
 4831POPC   C4A62898   2.459  36.239   7.099
 4831POPC   C1B62899   2.826  36.499   6.233
 4831POPC   C2B62900   2.848  36.348   6.686
 4831POPC   C3B62901   2.960  36.361   7.135
 4831POPC   C4B62902   3.175  36.663   7.372
 4832POPC   NC362903  19.427  44.197   5.250
 4832POPC   PO462904  19.016  44.751   5.379
 4832POPC   GL162905  18.984  44.791   5.847
 4832POPC   GL262906  19.098  44.458   5.885
 4832POPC   C1A62907  18.833  44.716   6.283
 4832POPC   D2A62908  18.923  44.419   6.642
 4832POPC   C3A62909  18.976  44.534   7.069
 4832POPC   C4A62910  18.792  44.921   7.268
 4832POPC   C1B62911  19.293  44.504   6.308
 4832POPC   C2B62912  19.208  44.870   6.633
 4832POPC   C3B62913  19.278  44.938   7.088
 4832POPC   C4B62914  19.473  44.590   7.372
 4833POPC   NC362915  15.557  36.171   5.252
 4833POPC   PO462916  15.169  35.775   5.570
 4833POPC   GL162917  15.192  36.089   5.846
 4833POPC   GL262918  14.833  36.172   5.785
 4833POPC   C1A62919  15.208  36.009   6.288
 4833POPC   D2A62920  15.495  36.047   6.617
 4833POPC   C3A62921  15.384  35.966   7.031
 4833POPC   C4A62922  15.117  36.146   7.374
 4833POPC   C1B62923  14.717  36.123   6.230
 4833POPC   C2B62924  14.855  36.077   6.688
 4833POPC   C3B62925  14.702  36.178   7.092
 4833POPC   C4B62926  14.787  36.532   7.383
 4834POPC   NC362927  30.352  24.446   5.362
 4834POPC   PO462928  29.776  24.785   5.403
 4834POPC   GL162929  29.789  24.643   5.844
 4834POPC   GL262930  29.993  24.332   5.776
 4834POPC   C1A62931  29.624  24.706   6.297
 4834POPC   D2A62932  29.624  24.746   6.779
 4834POPC   C3A62933  29.926  24.563   7.062
 4834POPC   C4A62934  30.182  24.289   7.345
 4834POPC   C1B62935  29.739  24.221   6.152
 4834POPC   C2B62936  29.787  24.293   6.571
 4834POPC   C3B62937  30.003  24.098   6.869
 4834POPC   C4B62938  29.842  23.917   7.181
 4835POPC   NC362939   6.806  29.488   5.069
 4835POPC   PO462940   6.832  28.925   5.579
 4835POPC   GL162941   6.691  29.008   5.977
 4835POPC   GL262942   6.636  29.341   5.947
 4835POPC   C1A62943   6.493  28.816   6.280
 4835POPC   D2A62944   6.713  28.856   6.630
 4835POPC   C3A62945   6.464  28.933   6.925
 4835POPC   C4A62946   6.631  29.061   7.264
 4835POPC   C1B62947   6.560  29.318   6.413
 4835POPC   C2B62948   6.687  29.395   6.862
 4835POPC   C3B62949   6.593  29.556   7.312
 4835POPC   C4B62950   6.628  29.668   7.768
 4836POPC   NC362951  27.057  31.562   5.352
 4836POPC   PO462952  27.060  31.018   5.595
 4836POPC   GL162953  26.996  31.456   5.851
 4836POPC   GL262954  27.255  31.731   5.834
 4836POPC   C1A62955  26.845  31.497   6.305
 4836POPC   D2A62956  26.904  31.186   6.673
 4836POPC   C3A62957  26.806  31.272   7.111
 4836POPC   C4A62958  26.924  31.071   7.529
 4836POPC   C1B62959  27.270  31.763   6.266
 4836POPC   C2B62960  27.257  31.549   6.631
 4836POPC   C3B62961  27.217  31.692   7.045
 4836POPC   C4B62962  26.992  31.612   7.446
 4837POPC   NC362963   6.148   9.285   5.457
 4837POPC   PO462964   5.825   8.689   5.475
 4837POPC   GL162965   6.099   8.863   5.746
 4837POPC   GL262966   5.901   9.131   5.888
 4837POPC   C1A62967   6.275   8.890   6.150
 4837POPC   D2A62968   6.047   8.669   6.469
 4837POPC   C3A62969   6.093   8.744   6.897
 4837POPC   C4A62970   5.820   8.790   7.243
 4837POPC   C1B62971   5.699   9.023   6.275
 4837POPC   C2B62972   5.660   8.972   6.714
 4837POPC   C3B62973   5.862   9.226   7.007
 4837POPC   C4B62974   5.681   9.389   7.376
 4838POPC   NC362975  28.179  38.796   5.431
 4838POPC   PO462976  28.546  39.374   5.410
 4838POPC   GL162977  28.577  39.193   5.822
 4838POPC   GL262978  28.228  39.160   5.806
 4838POPC   C1A62979  28.541  39.269   6.256
 4838POPC   D2A62980  28.604  39.347   6.680
 4838POPC   C3A62981  28.768  38.996   6.895
 4838POPC   C4A62982  28.831  39.099   7.308
 4838POPC   C1B62983  28.025  39.209   6.190
 4838POPC   C2B62984  28.157  39.015   6.579
 4838POPC   C3B62985  28.260  39.097   7.009
 4838POPC   C4B62986  28.223  39.468   7.232
 4839POPC   NC362987   9.906  24.856   5.486
 4839POPC   PO462988   9.805  25.542   5.414
 4839POPC   GL162989   9.626  25.285   5.755
 4839POPC   GL262990   9.478  24.951   5.781
 4839POPC   C1A62991   9.834  25.127   6.134
 4839POPC   D2A62992   9.834  25.346   6.486
 4839POPC   C3A62993   9.831  25.220   6.893
 4839POPC   C4A62994   9.736  25.422   7.261
 4839POPC   C1B62995   9.336  25.085   6.188
 4839POPC   C2B62996   9.322  25.299   6.581
 4839POPC   C3B62997   9.336  25.171   7.020
 4839POPC   C4B62998   9.548  24.947   7.331
 4840POPC   NC362999  17.722  27.030   5.311
 4840POPC   PO463000  17.550  26.435   5.472
 4840POPC   GL163001  17.743  26.727   5.823
 4840POPC   GL263002  17.693  27.117   5.830
 4840POPC   C1A63003  17.688  26.709   6.285
 4840POPC   D2A63004  17.747  26.840   6.725
 4840POPC   C3A63005  17.724  26.606   7.106
 4840POPC   C4A63006  17.351  26.483   7.378
 4840POPC   C1B63007  17.435  27.229   6.241
 4840POPC   C2B63008  17.368  27.196   6.715
 4840POPC   C3B63009  17.537  27.130   7.127
 4840POPC   C4B63010  17.636  27.359   7.494
 4841POPC   NC363011  12.155  32.853   5.601
 4841POPC   PO463012  12.143  32.325   5.199
 4841POPC   GL163013  12.221  32.301   5.652
 4841POPC   GL263014  12.564  32.158   5.644
 4841POPC   C1A63015  12.109  32.446   6.109
 4841POPC   D2A63016  11.969  32.585   6.550
 4841POPC   C3A63017  11.944  32.299   6.916
 4841POPC   C4A63018  12.033  32.307   7.396
 4841POPC   C1B63019  12.437  32.041   6.098
 4841POPC   C2B63020  12.251  32.136   6.488
 4841POPC   C3B63021  12.427  32.208   6.882
 4841POPC   C4B63022  12.367  31.994   7.243
 4842POPC   NC363023  27.490  38.904   5.395
 4842POPC   PO463024  27.943  38.389   5.408
 4842POPC   GL163025  27.666  38.519   5.712
 4842POPC   GL263026  27.831  38.821   5.806
 4842POPC   C1A63027  27.574  38.323   6.124
 4842POPC   D2A63028  27.328  38.362   6.518
 4842POPC   C3A63029  27.454  38.250   6.925
 4842POPC   C4A63030  27.523  38.613   7.165
 4842POPC   C1B63031  27.867  38.727   6.230
 4842POPC   C2B63032  27.988  38.416   6.511
 4842POPC   C3B63033  27.944  38.392   6.958
 4842POPC   C4B63034  27.994  38.720   7.285
 4843POPC   NC363035  20.195   4.084   5.276
 4843POPC   PO463036  19.586   4.176   5.137
 4843POPC   GL163037  19.752   4.100   5.619
 4843POPC   GL263038  20.004   4.306   5.730
 4843POPC   C1A63039  19.926   3.965   6.080
 4843POPC   D2A63040  20.063   4.053   6.505
 4843POPC   C3A63041  19.727   4.164   6.801
 4843POPC   C4A63042  19.653   4.241   7.256
 4843POPC   C1B63043  20.051   4.463   6.147
 4843POPC   C2B63044  19.936   4.564   6.560
 4843POPC   C3B63045  20.077   4.481   6.988
 4843POPC   C4B63046  20.261   4.591   7.373
 4844POPC   NC363047  27.795  42.214   5.427
 4844POPC   PO463048  27.162  42.282   5.393
 4844POPC   GL163049  27.413  42.426   5.770
 4844POPC   GL263050  27.717  42.648   5.707
 4844POPC   C1A63051  27.553  42.408   6.226
 4844POPC   D2A63052  27.683  42.115   6.592
 4844POPC   C3A63053  27.499  42.241   6.987
 4844POPC   C4A63054  27.523  42.166   7.425
 4844POPC   C1B63055  27.969  42.733   6.084
 4844POPC   C2B63056  27.936  42.898   6.506
 4844POPC   C3B63057  27.692  42.755   6.872
 4844POPC   C4B63058  27.789  42.596   7.276
 4845POPC   NC363059  31.260  17.296   5.093
 4845POPC   PO463060  31.567  17.886   5.251
 4845POPC   GL163061  31.433  17.633   5.642
 4845POPC   GL263062  31.436  17.268   5.653
 4845POPC   C1A63063  31.315  17.473   6.093
 4845POPC   D2A63064  31.399  17.359   6.530
 4845POPC   C3A63065  31.211  17.549   6.872
 4845POPC   C4A63066  31.466  17.584   7.215
 4845POPC   C1B63067  31.651  17.088   6.028
 4845POPC   C2B63068  31.793  17.021   6.437
 4845POPC   C3B63069  31.784  16.977   6.866
 4845POPC   C4B63070  31.792  17.185   7.233
 4846POPC   NC363071  15.914  34.361   5.372
 4846POPC   PO463072  16.021  34.994   5.265
 4846POPC   GL163073  16.227  34.778   5.662
 4846POPC   GL263074  16.261  34.399   5.740
 4846POPC   C1A63075  16.070  34.754   6.113
 4846POPC   D2A63076  15.731  34.656   6.441
 4846POPC   C3A63077  15.794  34.545   6.912
 4846POPC   C4A63078  16.068  34.706   7.267
 4846POPC   C1B63079  16.040  34.245   6.115
 4846POPC   C2B63080  16.111  34.325   6.549
 4846POPC   C3B63081  16.292  34.344   6.971
 4846POPC   C4B63082  16.445  34.293   7.380
 4847POPC   NC363083  14.155  40.998   5.542
 4847POPC   PO463084  14.646  41.372   5.419
 4847POPC   GL163085  14.584  41.080   5.802
 4847POPC   GL263086  14.489  40.677   5.750
 4847POPC   C1A63087  14.536  40.862   6.214
 4847POPC   D2A63088  14.800  40.746   6.550
 4847POPC   C3A63089  14.567  40.796   6.896
 4847POPC   C4A63090  14.429  40.928   7.278
 4847POPC   C1B63091  14.124  40.569   6.077
 4847POPC   C2B63092  13.993  40.579   6.520
 4847POPC   C3B63093  14.126  40.521   6.967
 4847POPC   C4B63094  14.076  40.576   7.408
 4848POPC   NC363095  21.083   3.625   5.308
 4848POPC   PO463096  21.513   3.137   5.483
 4848POPC   GL163097  21.230   3.312   5.703
 4848POPC   GL263098  21.380   3.640   5.732
 4848POPC   C1A63099  21.146   3.391   6.122
 4848POPC   D2A63100  21.505   3.451   6.418
 4848POPC   C3A63101  21.423   3.475   6.846
 4848POPC   C4A63102  21.254   3.217   7.164
 4848POPC   C1B63103  21.403   3.870   6.139
 4848POPC   C2B63104  21.497   3.941   6.601
 4848POPC   C3B63105  21.535   3.926   7.058
 4848POPC   C4B63106  21.216   3.736   7.269
 4849POPC   NC363107  40.663  19.259   5.675
 4849POPC   PO463108  40.680  18.601   5.710
 4849POPC   GL163109  40.806  18.929   6.066
 4849POPC   GL263110  40.582  19.253   6.163
 4849POPC   C1A63111  40.937  18.859   6.512
 4849POPC   D2A63112  40.724  18.697   6.874
 4849POPC   C3A63113  40.594  19.071   7.098
 4849POPC   C4A63114  40.269  19.368   7.222
 4849POPC   C1B63115  40.918  19.377   6.440
 4849POPC   C2B63116  41.026  19.325   6.878
 4849POPC   C3B63117  41.207  19.360   7.296
 4849POPC   C4B63118  41.239  19.299   7.763
 4850POPC   NC363119  19.036  17.262   4.931
 4850POPC   PO463120  19.173  17.685   5.405
 4850POPC   GL163121  19.092  17.583   5.821
 4850POPC   GL263122  19.208  17.884   5.974
 4850POPC   C1A63123  19.158  17.471   6.277
 4850POPC   D2A63124  19.030  17.555   6.721
 4850POPC   C3A63125  19.127  17.369   7.135
 4850POPC   C4A63126  18.982  17.431   7.564
 4850POPC   C1B63127  18.888  17.904   6.301
 4850POPC   C2B63128  18.846  18.059   6.736
 4850POPC   C3B63129  18.962  17.876   7.131
 4850POPC   C4B63130  18.803  17.900   7.533
 4851POPC   NC363131  13.609  13.153   5.073
 4851POPC   PO463132  13.755  13.729   5.385
 4851POPC   GL163133  13.467  13.792   5.739
 4851POPC   GL263134  13.441  13.470   5.840
 4851POPC   C1A63135  13.576  13.817   6.179
 4851POPC   D2A63136  13.847  13.774   6.498
 4851POPC   C3A63137  13.596  13.826   6.822
 4851POPC   C4A63138  13.545  13.583   7.176
 4851POPC   C1B63139  13.639  13.308   6.246
 4851POPC   C2B63140  13.697  13.319   6.706
 4851POPC   C3B63141  13.936  13.276   7.096
 4851POPC   C4B63142  13.936  13.452   7.511
 4852POPC   NC363143  42.738  37.855   5.514
 4852POPC   PO463144  43.111  37.341   5.369
 4852POPC   GL163145  42.856  37.406   5.739
 4852POPC   GL263146  42.976  37.705   5.934
 4852POPC   C1A63147  42.834  37.300   6.175
 4852POPC   D2A63148  43.090  37.266   6.534
 4852POPC   C3A63149  43.086  37.516   6.920
 4852POPC   C4A63150  43.026  37.405   7.335
 4852POPC   C1B63151  42.926  38.007   6.287
 4852POPC   C2B63152  43.031  38.003   6.717
 4852POPC   C3B63153  42.969  38.185   7.113
 4852POPC   C4B63154  42.922  37.941   7.467
 4853POPC   NC363155   4.953  44.716   5.435
 4853POPC   PO463156   5.570  44.409   5.244
 4853POPC   GL163157   5.441  44.623   5.675
 4853POPC   GL263158   5.677  44.575   5.914
 4853POPC   C1A63159   5.243  44.594   6.162
 4853POPC   D2A63160   5.106  44.358   6.539
 4853POPC   C3A63161   4.949  44.509   6.944
 4853POPC   C4A63162   5.206  44.391   7.270
 4853POPC   C1B63163   5.538  44.989   6.024
 4853POPC   C2B63164   5.281   0.058   6.371
 4853POPC   C3B63165   5.281  44.840   6.735
 4853POPC   C4B63166   5.355  44.918   7.148
 4854POPC   NC363167  27.683  40.500   5.112
 4854POPC   PO463168  27.380  41.033   5.454
 4854POPC   GL163169  27.617  40.970   5.851
 4854POPC   GL263170  27.467  40.704   6.042
 4854POPC   C1A63171  27.591  41.111   6.302
 4854POPC   D2A63172  27.464  40.897   6.686
 4854POPC   C3A63173  27.724  40.698   6.952
 4854POPC   C4A63174  27.915  40.780   7.397
 4854POPC   C1B63175  27.619  40.484   6.390
 4854POPC   C2B63176  27.356  40.385   6.684
 4854POPC   C3B63177  27.160  40.604   7.015
 4854POPC   C4B63178  27.392  40.800   7.323
 4855POPC   NC363179   0.985  32.790   5.612
 4855POPC   PO463180   1.171  32.190   5.244
 4855POPC   GL163181   1.047  32.110   5.709
 4855POPC   GL263182   1.390  31.991   5.786
 4855POPC   C1A63183   1.072  32.183   6.188
 4855POPC   D2A63184   1.030  32.459   6.580
 4855POPC   C3A63185   1.120  32.325   7.008
 4855POPC   C4A63186   1.045  32.651   7.338
 4855POPC   C1B63187   1.443  31.820   6.180
 4855POPC   C2B63188   1.320  31.955   6.609
 4855POPC   C3B63189   1.506  31.861   7.007
 4855POPC   C4B63190   1.605  32.021   7.409
 4856POPC   NC363191  12.372  20.128   5.337
 4856POPC   PO463192  12.849  19.567   5.433
 4856POPC   GL163193  12.850  19.766   5.812
 4856POPC   GL263194  12.498  19.810   5.738
 4856POPC   C1A63195  12.900  19.761   6.262
 4856POPC   D2A63196  12.890  19.546   6.648
 4856POPC   C3A63197  13.073  19.714   7.017
 4856POPC   C4A63198  12.805  19.740   7.363
 4856POPC   C1B63199  12.498  20.055   6.103
 4856POPC   C2B63200  12.568  20.044   6.538
 4856POPC   C3B63201  12.533  19.868   6.924
 4856POPC   C4B63202  12.393  20.046   7.299
 4857POPC   NC363203   3.752  27.423   5.001
 4857POPC   PO463204   3.413  27.763   5.453
 4857POPC   GL163205   3.567  27.631   5.851
 4857POPC   GL263206   3.434  27.327   5.937
 4857POPC   C1A63207   3.682  27.585   6.294
 4857POPC   D2A63208   3.594  27.555   6.717
 4857POPC   C3A63209   3.838  27.480   7.072
 4857POPC   C4A63210   3.769  27.645   7.495
 4857POPC   C1B63211   3.268  27.116   6.228
 4857POPC   C2B63212   3.253  27.202   6.613
 4857POPC   C3B63213   3.469  27.115   6.959
 4857POPC   C4B63214   3.546  27.205   7.400
 4858POPC   NC363215  15.411  42.274   5.073
 4858POPC   PO463216  15.696  42.452   5.623
 4858POPC   GL163217  15.837  42.118   5.834
 4858POPC   GL263218  16.127  42.280   5.927
 4858POPC   C1A63219  15.750  42.163   6.269
 4858POPC   D2A63220  15.676  42.454   6.638
 4858POPC   C3A63221  15.631  42.283   7.074
 4858POPC   C4A63222  15.896  42.107   7.408
 4858POPC   C1B63223  16.120  42.495   6.307
 4858POPC   C2B63224  16.138  42.224   6.644
 4858POPC   C3B63225  16.168  42.311   7.032
 4858POPC   C4B63226  16.426  42.167   7.344
 4859POPC   NC363227  35.652  10.656   5.288
 4859POPC   PO463228  35.105  10.444   5.591
 4859POPC   GL163229  35.374  10.459   5.932
 4859POPC   GL263230  35.267  10.127   6.037
 4859POPC   C1A63231  35.341  10.706   6.317
 4859POPC   D2A63232  35.424  10.679   6.782
 4859POPC   C3A63233  35.226  10.737   7.185
 4859POPC   C4A63234  35.206  10.998   7.567
 4859POPC   C1B63235  35.271  10.237   6.454
 4859POPC   C2B63236  34.997  10.339   6.771
 4859POPC   C3B63237  35.213  10.198   7.078
 4859POPC   C4B63238  35.198  10.274   7.490
 4860POPC   NC363239  11.721   4.266   5.627
 4860POPC   PO463240  11.343   4.741   5.366
 4860POPC   GL163241  11.302   4.483   5.777
 4860POPC   GL263242  11.212   4.166   5.762
 4860POPC   C1A63243  11.446   4.232   6.212
 4860POPC   D2A63244  11.582   4.027   6.619
 4860POPC   C3A63245  11.340   4.101   7.012
 4860POPC   C4A63246  11.350   4.414   7.362
 4860POPC   C1B63247  10.963   4.301   6.154
 4860POPC   C2B63248  10.802   4.347   6.579
 4860POPC   C3B63249  10.905   4.382   7.029
 4860POPC   C4B63250  10.892   4.307   7.502
 4861POPC   NC363251  18.360  22.852   5.276
 4861POPC   PO463252  17.724  22.915   5.291
 4861POPC   GL163253  18.012  22.709   5.648
 4861POPC   GL263254  18.236  23.002   5.762
 4861POPC   C1A63255  18.179  22.642   6.129
 4861POPC   D2A63256  18.493  22.749   6.509
 4861POPC   C3A63257  18.310  22.756   6.933
 4861POPC   C4A63258  18.221  22.799   7.372
 4861POPC   C1B63259  18.412  23.138   6.184
 4861POPC   C2B63260  18.313  23.214   6.653
 4861POPC   C3B63261  18.352  23.252   7.120
 4861POPC   C4B63262  18.235  23.273   7.565
 4862POPC   NC363263  34.763  10.652   5.226
 4862POPC   PO463264  34.525  11.236   5.549
 4862POPC   GL163265  34.469  11.134   5.949
 4862POPC   GL263266  34.284  10.849   5.909
 4862POPC   C1A63267  34.721  11.214   6.304
 4862POPC   D2A63268  34.723  11.492   6.635
 4862POPC   C3A63269  34.610  11.391   7.028
 4862POPC   C4A63270  34.868  11.313   7.331
 4862POPC   C1B63271  34.459  10.753   6.323
 4862POPC   C2B63272  34.427  11.012   6.676
 4862POPC   C3B63273  34.150  11.177   6.961
 4862POPC   C4B63274  34.316  11.056   7.355
 4863POPC   NC363275  36.048  14.260   5.327
 4863POPC   PO463276  36.641  14.335   5.529
 4863POPC   GL163277  36.290  14.401   5.783
 4863POPC   GL263278  36.047  14.691   5.701
 4863POPC   C1A63279  36.061  14.142   6.088
 4863POPC   D2A63280  35.874  14.223   6.490
 4863POPC   C3A63281  35.891  14.138   6.933
 4863POPC   C4A63282  36.009  14.416   7.281
 4863POPC   C1B63283  36.082  14.665   6.178
 4863POPC   C2B63284  36.281  14.570   6.585
 4863POPC   C3B63285  36.280  14.747   7.013
 4863POPC   C4B63286  36.410  14.724   7.462
 4864POPC   NC363287  19.431  36.422   5.417
 4864POPC   PO463288  18.841  36.297   5.428
 4864POPC   GL163289  18.999  36.072   5.786
 4864POPC   GL263290  19.259  36.269   5.898
 4864POPC   C1A63291  18.856  36.023   6.228
 4864POPC   D2A63292  19.109  36.204   6.542
 4864POPC   C3A63293  19.143  36.142   6.976
 4864POPC   C4A63294  19.083  36.100   7.436
 4864POPC   C1B63295  18.969  36.527   6.160
 4864POPC   C2B63296  18.897  36.650   6.618
 4864POPC   C3B63297  18.876  36.553   7.108
 4864POPC   C4B63298  18.748  36.469   7.578
 4865POPC   NC363299  15.154  37.644   5.499
 4865POPC   PO463300  15.644  38.039   5.247
 4865POPC   GL163301  15.551  37.897   5.727
 4865POPC   GL263302  15.473  37.556   5.955
 4865POPC   C1A63303  15.313  37.985   6.131
 4865POPC   D2A63304  15.354  37.930   6.567
 4865POPC   C3A63305  15.276  37.593   6.858
 4865POPC   C4A63306  15.411  37.927   7.162
 4865POPC   C1B63307  15.123  37.529   6.278
 4865POPC   C2B63308  14.793  37.491   6.597
 4865POPC   C3B63309  14.800  37.399   7.022
 4865POPC   C4B63310  15.018  37.628   7.317
 4866POPC   NC363311  23.425  35.517   5.547
 4866POPC   PO463312  24.042  35.388   5.241
 4866POPC   GL163313  23.975  35.373   5.738
 4866POPC   GL263314  23.643  35.249   5.888
 4866POPC   C1A63315  23.950  35.450   6.228
 4866POPC   D2A63316  23.747  35.291   6.623
 4866POPC   C3A63317  23.961  35.234   7.024
 4866POPC   C4A63318  24.241  35.174   7.378
 4866POPC   C1B63319  23.380  35.282   6.255
 4866POPC   C2B63320  23.304  35.535   6.646
 4866POPC   C3B63321  23.521  35.530   7.040
 4866POPC   C4B63322  23.363  35.357   7.431
 4867POPC   NC363323  10.489  11.629   5.537
 4867POPC   PO463324  10.273  12.180   5.565
 4867POPC   GL163325  10.630  12.022   5.802
 4867POPC   GL263326  10.353  11.845   5.990
 4867POPC   C1A63327  10.812  11.857   6.207
 4867POPC   D2A63328  10.556  11.882   6.610
 4867POPC   C3A63329  10.601  12.215   6.943
 4867POPC   C4A63330  10.913  12.263   7.278
 4867POPC   C1B63331  10.071  11.876   6.355
 4867POPC   C2B63332  10.071  11.936   6.838
 4867POPC   C3B63333  10.383  11.785   7.128
 4867POPC   C4B63334  10.849  11.758   7.204
 4868POPC   NC363335  12.219  30.165   5.412
 4868POPC   PO463336  11.686  29.860   5.426
 4868POPC   GL163337  11.963  29.902   5.778
 4868POPC   GL263338  11.955  30.256   5.846
 4868POPC   C1A63339  12.190  29.948   6.178
 4868POPC   D2A63340  12.076  30.013   6.608
 4868POPC   C3A63341  12.217  29.689   6.889
 4868POPC   C4A63342  12.135  29.586   7.303
 4868POPC   C1B63343  12.321  30.452   6.104
 4868POPC   C2B63344  12.533  30.422   6.547
 4868POPC   C3B63345  12.471  30.132   6.907
 4868POPC   C4B63346  12.222  30.087   7.277
 4869POPC   NC363347  44.926   7.972   5.452
 4869POPC   PO463348  44.406   8.141   5.210
 4869POPC   GL163349  44.448   7.954   5.677
 4869POPC   GL263350  44.736   7.772   5.864
 4869POPC   C1A63351  44.452   8.092   6.137
 4869POPC   D2A63352  44.483   8.487   6.390
 4869POPC   C3A63353  44.543   8.414   6.842
 4869POPC   C4A63354  44.755   8.445   7.234
 4869POPC   C1B63355  44.921   7.897   6.268
 4869POPC   C2B63356  44.693   7.939   6.652
 4869POPC   C3B63357  44.802   7.936   7.089
 4869POPC   C4B63358  44.842   7.947   7.530
 4870POPC   NC363359   2.474   6.480   5.313
 4870POPC   PO463360   3.117   6.685   5.421
 4870POPC   GL163361   2.757   6.713   5.723
 4870POPC   GL263362   2.465   6.477   5.866
 4870POPC   C1A63363   2.667   6.912   6.112
 4870POPC   D2A63364   2.583   7.050   6.538
 4870POPC   C3A63365   2.857   6.871   6.866
 4870POPC   C4A63366   3.126   6.995   7.229
 4870POPC   C1B63367   2.436   6.184   6.278
 4870POPC   C2B63368   2.651   6.089   6.718
 4870POPC   C3B63369   2.736   6.410   7.084
 4870POPC   C4B63370   2.406   6.453   7.418
 4871POPC   NC363371  17.967  20.956   5.674
 4871POPC   PO463372  18.329  20.374   5.626
 4871POPC   GL163373  18.184  20.559   5.922
 4871POPC   GL263374  18.442  20.844   5.826
 4871POPC   C1A63375  18.080  20.485   6.362
 4871POPC   D2A63376  18.024  20.742   6.715
 4871POPC   C3A63377  18.139  20.607   7.142
 4871POPC   C4A63378  18.479  20.360   7.371
 4871POPC   C1B63379  18.324  20.924   6.241
 4871POPC   C2B63380  18.516  20.813   6.591
 4871POPC   C3B63381  18.606  20.652   6.958
 4871POPC   C4B63382  18.617  20.851   7.337
 4872POPC   NC363383  27.584  25.889   5.359
 4872POPC   PO463384  27.722  26.514   5.321
 4872POPC   GL163385  27.379  26.320   5.628
 4872POPC   GL263386  27.578  26.073   5.831
 4872POPC   C1A63387  27.226  26.275   6.112
 4872POPC   D2A63388  27.475  26.032   6.474
 4872POPC   C3A63389  27.372  26.165   6.918
 4872POPC   C4A63390  27.227  26.588   7.035
 4872POPC   C1B63391  27.640  25.680   6.082
 4872POPC   C2B63392  27.819  25.607   6.520
 4872POPC   C3B63393  27.840  25.871   6.898
 4872POPC   C4B63394  27.598  25.735   7.262
 4873POPC   NC363395  41.119  33.847   5.209
 4873POPC   PO463396  40.548  33.750   5.354
 4873POPC   GL163397  40.723  33.573   5.696
 4873POPC   GL263398  40.928  33.833   5.693
 4873POPC   C1A63399  40.596  33.603   6.125
 4873POPC   D2A63400  40.632  33.767   6.536
 4873POPC   C3A63401  40.536  33.672   6.952
 4873POPC   C4A63402  40.882  33.513   7.131
 4873POPC   C1B63403  40.693  34.097   5.970
 4873POPC   C2B63404  40.630  34.226   6.367
 4873POPC   C3B63405  40.624  34.214   6.822
 4873POPC   C4B63406  40.820  34.034   7.183
 4874POPC   NC363407  19.268   4.096   5.477
 4874POPC   PO463408  19.170   3.399   5.457
 4874POPC   GL163409  19.226   3.584   5.834
 4874POPC   GL263410  18.924   3.788   5.931
 4874POPC   C1A63411  19.132   3.440   6.255
 4874POPC   D2A63412  19.059   3.772   6.556
 4874POPC   C3A63413  19.081   3.614   6.947
 4874POPC   C4A63414  19.000   3.493   7.332
 4874POPC   C1B63415  18.652   3.545   6.273
 4874POPC   C2B63416  18.758   3.298   6.668
 4874POPC   C3B63417  18.634   3.222   7.123
 4874POPC   C4B63418  18.536   3.456   7.536
 4875POPC   NC363419  11.684  37.685   5.279
 4875POPC   PO463420  12.255  37.415   5.422
 4875POPC   GL163421  12.072  37.549   5.811
 4875POPC   GL263422  12.040  37.894   5.826
 4875POPC   C1A63423  12.268  37.675   6.224
 4875POPC   D2A63424  12.129  37.739   6.637
 4875POPC   C3A63425  12.237  37.549   7.025
 4875POPC   C4A63426  12.039  37.681   7.409
 4875POPC   C1B63427  11.965  38.094   6.223
 4875POPC   C2B63428  11.749  38.079   6.639
 4875POPC   C3B63429  12.014  38.079   7.010
 4875POPC   C4B63430  11.927  38.167   7.420
 4876POPC   NC363431  10.723  35.993   5.417
 4876POPC   PO463432  10.063  35.937   5.497
 4876POPC   GL163433  10.355  36.097   5.850
 4876POPC   GL263434  10.677  35.948   5.925
 4876POPC   C1A63435  10.411  36.127   6.320
 4876POPC   D2A63436  10.282  35.916   6.693
 4876POPC   C3A63437  10.387  35.996   7.134
 4876POPC   C4A63438  10.312  35.986   7.583
 4876POPC   C1B63439  10.872  36.298   6.151
 4876POPC   C2B63440  10.822  36.464   6.568
 4876POPC   C3B63441  10.824  36.439   7.009
 4876POPC   C4B63442  10.602  36.389   7.388
 4877POPC   NC363443  40.036  16.142   5.472
 4877POPC   PO463444  39.715  15.576   5.525
 4877POPC   GL163445  40.045  15.717   5.803
 4877POPC   GL263446  40.135  16.045   5.964
 4877POPC   C1A63447  40.128  15.611   6.236
 4877POPC   D2A63448  40.115  15.980   6.492
 4877POPC   C3A63449  39.959  16.040   6.900
 4877POPC   C4A63450  39.955  15.781   7.229
 4877POPC   C1B63451  40.276  16.408   6.232
 4877POPC   C2B63452  40.172  16.454   6.638
 4877POPC   C3B63453  40.433  16.250   6.921
 4877POPC   C4B63454  40.400  16.022   7.275
 4878POPC   NC363455  37.481  15.384   5.439
 4878POPC   PO463456  38.070  14.992   5.306
 4878POPC   GL163457  37.808  15.021   5.640
 4878POPC   GL263458  37.871  15.351   5.803
 4878POPC   C1A63459  37.654  14.941   6.055
 4878POPC   D2A63460  37.777  15.176   6.431
 4878POPC   C3A63461  37.798  14.959   6.810
 4878POPC   C4A63462  37.666  15.049   7.212
 4878POPC   C1B63463  37.519  15.467   6.072
 4878POPC   C2B63464  37.385  15.504   6.484
 4878POPC   C3B63465  37.588  15.454   6.866
 4878POPC   C4B63466  37.443  15.501   7.263
 4879POPC   NC363467  44.243  20.886   5.575
 4879POPC   PO463468  43.827  20.414   5.320
 4879POPC   GL163469  43.669  20.567   5.743
 4879POPC   GL263470  44.007  20.531   5.864
 4879POPC   C1A63471  43.665  20.713   6.202
 4879POPC   D2A63472  43.757  20.816   6.627
 4879POPC   C3A63473  43.648  20.561   7.007
 4879POPC   C4A63474  43.591  20.783   7.384
 4879POPC   C1B63475  44.171  20.605   6.280
 4879POPC   C2B63476  44.243  20.710   6.702
 4879POPC   C3B63477  44.053  20.834   7.100
 4879POPC   C4B63478  44.045  20.569   7.463
 4880POPC   NC363479   2.786  25.781   5.409
 4880POPC   PO463480   3.045  26.439   5.436
 4880POPC   GL163481   2.886  26.192   5.779
 4880POPC   GL263482   2.999  25.845   5.852
 4880POPC   C1A63483   2.866  26.162   6.227
 4880POPC   D2A63484   3.095  26.126   6.610
 4880POPC   C3A63485   2.830  26.173   6.962
 4880POPC   C4A63486   2.720  26.013   7.382
 4880POPC   C1B63487   2.633  25.720   6.085
 4880POPC   C2B63488   2.605  25.662   6.544
 4880POPC   C3B63489   2.497  25.736   6.983
 4880POPC   C4B63490   2.576  25.502   7.355
 4881POPC   NC363491   9.761  34.777   5.597
 4881POPC   PO463492   9.237  34.392   5.476
 4881POPC   GL163493   9.542  34.299   5.772
 4881POPC   GL263494   9.937  34.302   5.706
 4881POPC   C1A63495   9.504  34.463   6.188
 4881POPC   D2A63496   9.492  34.707   6.546
 4881POPC   C3A63497   9.591  34.494   6.919
 4881POPC   C4A63498   9.643  34.830   7.193
 4881POPC   C1B63499   9.996  34.382   6.148
 4881POPC   C2B63500  10.001  34.506   6.581
 4881POPC   C3B63501  10.079  34.616   7.007
 4881POPC   C4B63502   9.925  34.335   7.315
 4882POPC   NC363503  41.810  15.906   5.417
 4882POPC   PO463504  41.246  16.304   5.396
 4882POPC   GL163505  41.327  16.118   5.803
 4882POPC   GL263506  41.594  15.934   5.859
 4882POPC   C1A63507  41.243  15.921   6.220
 4882POPC   D2A63508  41.076  16.092   6.582
 4882POPC   C3A63509  41.338  16.359   6.830
 4882POPC   C4A63510  41.384  16.124   7.183
 4882POPC   C1B63511  41.651  16.216   6.202
 4882POPC   C2B63512  41.665  16.027   6.610
 4882POPC   C3B63513  41.874  16.101   6.993
 4882POPC   C4B63514  42.049  16.398   7.287
 4883POPC   NC363515  19.307  18.969   5.404
 4883POPC   PO463516  18.775  19.184   5.183
 4883POPC   GL163517  18.924  19.225   5.619
 4883POPC   GL263518  19.256  19.376   5.771
 4883POPC   C1A63519  18.846  19.203   6.046
 4883POPC   D2A63520  18.774  19.357   6.448
 4883POPC   C3A63521  18.650  19.146   6.805
 4883POPC   C4A63522  18.891  18.954   7.119
 4883POPC   C1B63523  19.261  19.396   6.279
 4883POPC   C2B63524  19.163  19.286   6.752
 4883POPC   C3B63525  19.340  19.215   7.146
 4883POPC   C4B63526  19.532  19.463   7.423
 4884POPC   NC363527  28.689  44.956   5.387
 4884POPC   PO463528  28.194  44.529   5.419
 4884POPC   GL163529  28.124  44.747   5.769
 4884POPC   GL263530  28.486  44.788   5.837
 4884POPC   C1A63531  28.181  44.639   6.214
 4884POPC   D2A63532  28.370  44.898   6.568
 4884POPC   C3A63533  28.273  44.715   6.989
 4884POPC   C4A63534  28.222  44.804   7.445
 4884POPC   C1B63535  28.729   0.091   6.115
 4884POPC   C2B63536  28.926  44.995   6.529
 4884POPC   C3B63537  28.784  44.787   6.906
 4884POPC   C4B63538  28.716  44.655   7.338
 4885POPC   NC363539   1.809  37.113   5.210
 4885POPC   PO463540   2.250  37.514   5.541
 4885POPC   GL163541   1.951  37.561   5.843
 4885POPC   GL263542   1.674  37.410   5.684
 4885POPC   C1A63543   2.063  37.662   6.275
 4885POPC   D2A63544   1.996  37.929   6.615
 4885POPC   C3A63545   2.112  37.698   6.949
 4885POPC   C4A63546   2.132  37.704   7.341
 4885POPC   C1B63547   1.619  37.394   6.199
 4885POPC   C2B63548   1.798  37.408   6.670
 4885POPC   C3B63549   1.795  37.337   7.151
 4885POPC   C4B63550   1.843  37.429   7.634
 4886POPC   NC363551  43.027  42.276   5.583
 4886POPC   PO463552  43.505  42.640   5.378
 4886POPC   GL163553  43.387  42.569   5.780
 4886POPC   GL263554  43.487  42.257   5.827
 4886POPC   C1A63555  43.152  42.464   6.195
 4886POPC   D2A63556  43.107  42.231   6.577
 4886POPC   C3A63557  43.117  42.507   6.916
 4886POPC   C4A63558  42.958  42.700   7.282
 4886POPC   C1B63559  43.488  42.088   6.211
 4886POPC   C2B63560  43.603  42.110   6.634
 4886POPC   C3B63561  43.428  42.106   7.055
 4886POPC   C4B63562  43.456  42.129   7.519
 4887POPC   NC363563   9.315   0.947   5.593
 4887POPC   PO463564   9.870   1.266   5.371
 4887POPC   GL163565   9.808   1.152   5.790
 4887POPC   GL263566   9.539   1.396   5.850
 4887POPC   C1A63567   9.710   1.022   6.222
 4887POPC   D2A63568   9.488   1.161   6.599
 4887POPC   C3A63569   9.588   0.910   6.939
 4887POPC   C4A63570   9.734   0.962   7.320
 4887POPC   C1B63571   9.641   1.525   6.271
 4887POPC   C2B63572   9.654   1.666   6.742
 4887POPC   C3B63573   9.658   1.458   7.150
 4887POPC   C4B63574   9.909   1.406   7.506
 4888POPC   NC363575  34.935  24.741   5.555
 4888POPC   PO463576  35.634  24.615   5.356
 4888POPC   GL163577  35.445  24.654   5.782
 4888POPC   GL263578  35.774  24.783   5.867
 4888POPC   C1A63579  35.169  24.528   6.176
 4888POPC   D2A63580  35.222  24.255   6.566
 4888POPC   C3A63581  35.209  24.406   7.004
 4888POPC   C4A63582  35.275  24.400   7.481
 4888POPC   C1B63583  35.648  24.671   6.274
 4888POPC   C2B63584  35.368  24.772   6.630
 4888POPC   C3B63585  35.461  24.845   7.047
 4888POPC   C4B63586  35.685  24.520   7.187
 4889POPC   NC363587  21.634   6.737   5.341
 4889POPC   PO463588  21.026   6.279   5.281
 4889POPC   GL163589  21.296   6.347   5.714
 4889POPC   GL263590  21.458   6.655   5.787
 4889POPC   C1A63591  21.282   6.504   6.205
 4889POPC   D2A63592  21.259   6.319   6.576
 4889POPC   C3A63593  21.263   6.566   6.922
 4889POPC   C4A63594  21.231   6.445   7.335
 4889POPC   C1B63595  21.707   6.915   6.077
 4889POPC   C2B63596  21.793   7.033   6.488
 4889POPC   C3B63597  21.672   6.895   6.887
 4889POPC   C4B63598  21.630   6.738   7.265
 4890POPC   NC363599   2.157  20.569   5.342
 4890POPC   PO463600   1.470  20.711   5.399
 4890POPC   GL163601   1.793  20.514   5.700
 4890POPC   GL263602   1.989  20.787   5.772
 4890POPC   C1A63603   2.086  20.443   6.118
 4890POPC   D2A63604   2.326  20.420   6.530
 4890POPC   C3A63605   2.065  20.422   6.938
 4890POPC   C4A63606   2.137  20.221   7.377
 4890POPC   C1B63607   1.807  20.921   6.182
 4890POPC   C2B63608   1.679  20.856   6.619
 4890POPC   C3B63609   1.860  20.940   7.025
 4890POPC   C4B63610   2.031  20.714   7.391
 4891POPC   NC363611  32.604  39.941   5.464
 4891POPC   PO463612  33.302  40.088   5.432
 4891POPC   GL163613  32.998  40.118   5.758
 4891POPC   GL263614  32.996  39.791   5.843
 4891POPC   C1A63615  32.888  40.279   6.150
 4891POPC   D2A63616  32.993  40.066   6.516
 4891POPC   C3A63617  32.917  40.184   6.878
 4891POPC   C4A63618  33.205  40.229   7.190
 4891POPC   C1B63619  33.220  39.705   6.242
 4891POPC   C2B63620  33.131  39.592   6.701
 4891POPC   C3B63621  33.216  39.699   7.120
 4891POPC   C4B63622  33.372  39.881   7.524
 4892POPC   NC363623  10.288   4.055   5.189
 4892POPC   PO463624  10.922   4.248   5.348
 4892POPC   GL163625  10.699   4.407   5.751
 4892POPC   GL263626  10.540   4.735   5.824
 4892POPC   C1A63627  10.455   4.389   6.188
 4892POPC   D2A63628  10.155   4.444   6.512
 4892POPC   C3A63629  10.352   4.371   6.880
 4892POPC   C4A63630  10.475   4.192   7.248
 4892POPC   C1B63631  10.763   4.782   6.268
 4892POPC   C2B63632  10.612   4.795   6.731
 4892POPC   C3B63633  10.543   4.704   7.212
 4892POPC   C4B63634  10.625   4.707   7.672
 4893POPC   NC363635   7.991  29.683   5.469
 4893POPC   PO463636   7.768  30.330   5.571
 4893POPC   GL163637   7.979  30.029   5.843
 4893POPC   GL263638   8.340  29.998   5.756
 4893POPC   C1A63639   7.911  29.866   6.245
 4893POPC   D2A63640   8.087  29.952   6.630
 4893POPC   C3A63641   8.000  29.677   6.944
 4893POPC   C4A63642   7.901  29.970   7.240
 4893POPC   C1B63643   8.425  29.880   6.185
 4893POPC   C2B63644   8.479  29.647   6.566
 4893POPC   C3B63645   8.526  29.796   6.993
 4893POPC   C4B63646   8.356  29.699   7.387
 4894POPC   NC363647  40.580  42.236   5.346
 4894POPC   PO463648  41.027  42.580   5.656
 4894POPC   GL163649  40.910  42.266   5.950
 4894POPC   GL263650  40.606  42.063   5.855
 4894POPC   C1A63651  40.950  42.340   6.404
 4894POPC   D2A63652  40.660  42.526   6.723
 4894POPC   C3A63653  40.928  42.554   7.063
 4894POPC   C4A63654  41.073  42.395   7.467
 4894POPC   C1B63655  40.469  42.214   6.288
 4894POPC   C2B63656  40.601  42.026   6.683
 4894POPC   C3B63657  40.638  42.150   7.131
 4894POPC   C4B63658  40.670  42.115   7.589
 4895POPC   NC363659  11.885  20.969   5.461
 4895POPC   PO463660  11.994  20.382   5.187
 4895POPC   GL163661  12.061  20.485   5.649
 4895POPC   GL263662  11.834  20.418   5.865
 4895POPC   C1A63663  12.272  20.497   6.096
 4895POPC   D2A63664  12.150  20.366   6.539
 4895POPC   C3A63665  12.374  20.421   6.948
 4895POPC   C4A63666  12.384  20.826   7.188
 4895POPC   C1B63667  11.746  20.508   6.245
 4895POPC   C2B63668  11.743  20.764   6.565
 4895POPC   C3B63669  11.916  20.663   6.949
 4895POPC   C4B63670  11.901  20.915   7.294
 4896POPC   NC363671  40.238   7.670   5.291
 4896POPC   PO463672  39.877   7.099   5.294
 4896POPC   GL163673  39.984   7.376   5.661
 4896POPC   GL263674  39.850   7.725   5.681
 4896POPC   C1A63675  39.958   7.344   6.118
 4896POPC   D2A63676  40.198   7.322   6.500
 4896POPC   C3A63677  39.945   7.276   6.859
 4896POPC   C4A63678  40.157   7.213   7.223
 4896POPC   C1B63679  40.115   7.826   6.063
 4896POPC   C2B63680  40.046   7.818   6.532
 4896POPC   C3B63681  40.133   7.733   7.001
 4896POPC   C4B63682  39.975   7.628   7.438
 4897POPC   NC363683  44.490  36.548   5.529
 4897POPC   PO463684  44.711  35.937   5.422
 4897POPC   GL163685  44.774  36.070   5.815
 4897POPC   GL263686  44.932  36.418   5.787
 4897POPC   C1A63687  44.691  35.877   6.214
 4897POPC   D2A63688  44.924  35.997   6.591
 4897POPC   C3A63689  44.728  36.057   6.955
 4897POPC   C4A63690  44.783  35.896   7.332
 4897POPC   C1B63691  44.763  36.390   6.225
 4897POPC   C2B63692  44.941  36.512   6.621
 4897POPC   C3B63693   0.110  36.403   7.008
 4897POPC   C4B63694   0.068  36.293   7.411
 4898POPC   NC363695   1.828  40.261   5.288
 4898POPC   PO463696   2.286  39.729   5.480
 4898POPC   GL163697   2.036  40.002   5.732
 4898POPC   GL263698   1.772  39.785   5.821
 4898POPC   C1A63699   2.119  40.204   6.139
 4898POPC   D2A63700   2.146  40.377   6.573
 4898POPC   C3A63701   1.971  40.156   6.947
 4898POPC   C4A63702   1.892  40.324   7.359
 4898POPC   C1B63703   1.602  39.703   6.244
 4898POPC   C2B63704   1.648  39.796   6.722
 4898POPC   C3B63705   1.646  39.780   7.182
 4898POPC   C4B63706   1.645  39.627   7.656
 4899POPC   NC363707  12.062  13.470   5.065
 4899POPC   PO463708  12.213  12.959   5.472
 4899POPC   GL163709  12.151  12.744   5.873
 4899POPC   GL263710  12.392  12.471   5.846
 4899POPC   C1A63711  11.982  12.832   6.306
 4899POPC   D2A63712  11.876  13.119   6.642
 4899POPC   C3A63713  11.826  12.916   7.016
 4899POPC   C4A63714  12.016  12.936   7.421
 4899POPC   C1B63715  12.480  12.640   6.266
 4899POPC   C2B63716  12.360  12.840   6.680
 4899POPC   C3B63717  12.316  12.679   7.120
 4899POPC   C4B63718  12.371  12.646   7.632
 4900POPC   NC363719  39.145  21.270   5.386
 4900POPC   PO463720  38.971  21.856   5.498
 4900POPC   GL163721  39.201  21.640   5.807
 4900POPC   GL263722  39.365  21.298   5.837
 4900POPC   C1A63723  39.420  21.675   6.191
 4900POPC   D2A63724  39.239  21.688   6.602
 4900POPC   C3A63725  39.314  21.637   7.041
 4900POPC   C4A63726  38.914  21.571   7.208
 4900POPC   C1B63727  39.290  21.185   6.280
 4900POPC   C2B63728  39.346  21.182   6.740
 4900POPC   C3B63729  39.227  21.129   7.191
 4900POPC   C4B63730  39.355  20.961   7.615
 4901POPC   NC363731   1.808  40.892   5.129
 4901POPC   PO463732   2.157  40.526   5.523
 4901POPC   GL163733   2.051  40.843   5.779
 4901POPC   GL263734   1.717  40.718   5.851
 4901POPC   C1A63735   2.053  40.767   6.226
 4901POPC   D2A63736   1.930  40.949   6.597
 4901POPC   C3A63737   1.860  40.655   6.906
 4901POPC   C4A63738   2.090  40.784   7.245
 4901POPC   C1B63739   1.530  40.945   6.240
 4901POPC   C2B63740   1.483  41.185   6.648
 4901POPC   C3B63741   1.676  41.098   7.066
 4901POPC   C4B63742   1.573  40.737   7.326
 4902POPC   NC363743   6.130  11.169   5.313
 4902POPC   PO463744   6.659  11.604   5.538
 4902POPC   GL163745   6.643  11.293   5.859
 4902POPC   GL263746   6.312  11.186   5.823
 4902POPC   C1A63747   6.875  11.078   6.213
 4902POPC   D2A63748   7.099  11.120   6.647
 4902POPC   C3A63749   6.914  10.966   7.060
 4902POPC   C4A63750   6.747  11.210   7.458
 4902POPC   C1B63751   6.352  11.349   6.265
 4902POPC   C2B63752   6.585  11.218   6.623
 4902POPC   C3B63753   6.547  11.328   7.014
 4902POPC   C4B63754   6.252  11.255   7.342
 4903POPC   NC363755  14.439  37.736   5.320
 4903POPC   PO463756  14.972  38.059   5.570
 4903POPC   GL163757  14.668  37.835   5.768
 4903POPC   GL263758  14.295  37.884   5.789
 4903POPC   C1A63759  14.589  37.699   6.161
 4903POPC   D2A63760  14.345  37.824   6.498
 4903POPC   C3A63761  14.357  37.655   6.861
 4903POPC   C4A63762  14.552  37.814   7.185
 4903POPC   C1B63763  13.992  37.987   6.138
 4903POPC   C2B63764  13.971  38.188   6.547
 4903POPC   C3B63765  14.050  38.336   6.950
 4903POPC   C4B63766  14.043  37.969   7.197
 4904POPC   NC363767   1.887  14.236   5.319
 4904POPC   PO463768   2.204  14.808   5.405
 4904POPC   GL163769   2.106  14.499   5.708
 4904POPC   GL263770   1.770  14.410   5.787
 4904POPC   C1A63771   2.222  14.354   6.065
 4904POPC   D2A63772   2.094  14.397   6.470
 4904POPC   C3A63773   2.283  14.150   6.759
 4904POPC   C4A63774   2.299  14.303   7.178
 4904POPC   C1B63775   1.744  14.173   6.167
 4904POPC   C2B63776   1.795  13.995   6.610
 4904POPC   C3B63777   1.797  14.258   6.987
 4904POPC   C4B63778   1.664  14.320   7.425
 4905POPC   NC363779  42.683  27.845   5.417
 4905POPC   PO463780  42.100  27.535   5.489
 4905POPC   GL163781  42.471  27.540   5.808
 4905POPC   GL263782  42.617  27.176   5.914
 4905POPC   C1A63783  42.567  27.734   6.241
 4905POPC   D2A63784  42.498  27.970   6.657
 4905POPC   C3A63785  42.156  27.809   6.940
 4905POPC   C4A63786  42.246  27.667   7.374
 4905POPC   C1B63787  42.281  27.298   6.217
 4905POPC   C2B63788  42.184  27.396   6.650
 4905POPC   C3B63789  41.971  27.339   7.082
 4905POPC   C4B63790  42.017  27.254   7.567
 4906POPC   NC363791  25.825  23.644   5.460
 4906POPC   PO463792  26.265  24.117   5.158
 4906POPC   GL163793  26.243  23.909   5.630
 4906POPC   GL263794  26.381  23.587   5.765
 4906POPC   C1A63795  25.994  23.950   6.079
 4906POPC   D2A63796  25.999  23.869   6.574
 4906POPC   C3A63797  25.745  23.922   6.985
 4906POPC   C4A63798  25.878  24.179   7.344
 4906POPC   C1B63799  26.446  23.756   6.211
 4906POPC   C2B63800  26.494  23.716   6.670
 4906POPC   C3B63801  26.201  23.639   7.042
 4906POPC   C4B63802  26.346  23.451   7.474
 4907POPC   NC363803   0.424  18.862   5.341
 4907POPC   PO463804   0.360  19.473   5.569
 4907POPC   GL163805   0.499  19.128   5.794
 4907POPC   GL263806   0.200  19.036   5.803
 4907POPC   C1A63807   0.626  19.105   6.213
 4907POPC   D2A63808   0.477  19.161   6.613
 4907POPC   C3A63809   0.744  19.144   6.931
 4907POPC   C4A63810   0.534  19.017   7.264
 4907POPC   C1B63811   0.088  19.065   6.260
 4907POPC   C2B63812   0.095  18.809   6.676
 4907POPC   C3B63813   0.241  18.661   7.103
 4907POPC   C4B63814   0.154  18.564   7.593
 4908POPC   NC363815  32.809  24.760   5.244
 4908POPC   PO463816  33.259  24.294   5.387
 4908POPC   GL163817  33.047  24.315   5.749
 4908POPC   GL263818  32.975  24.666   5.735
 4908POPC   C1A63819  33.007  24.309   6.184
 4908POPC   D2A63820  33.247  24.321   6.562
 4908POPC   C3A63821  32.958  24.249   6.860
 4908POPC   C4A63822  32.821  24.317   7.246
 4908POPC   C1B63823  32.785  24.796   6.120
 4908POPC   C2B63824  32.812  24.632   6.548
 4908POPC   C3B63825  32.864  24.805   6.994
 4908POPC   C4B63826  32.628  24.807   7.372
 4909POPC   NC363827   7.256  43.274   5.472
 4909POPC   PO463828   7.626  42.567   5.512
 4909POPC   GL163829   7.710  42.893   5.854
 4909POPC   GL263830   7.597  43.224   5.833
 4909POPC   C1A63831   7.648  43.069   6.283
 4909POPC   D2A63832   7.455  43.219   6.628
 4909POPC   C3A63833   7.438  42.984   7.019
 4909POPC   C4A63834   7.255  42.627   7.234
 4909POPC   C1B63835   7.221  43.331   6.138
 4909POPC   C2B63836   7.014  43.486   6.536
 4909POPC   C3B63837   7.145  43.413   6.973
 4909POPC   C4B63838   7.083  43.590   7.358
 4910POPC   NC363839  22.697  35.294   5.385
 4910POPC   PO463840  23.295  35.047   5.487
 4910POPC   GL163841  23.025  35.302   5.820
 4910POPC   GL263842  22.688  35.516   5.830
 4910POPC   C1A63843  22.871  35.320   6.264
 4910POPC   D2A63844  23.015  35.129   6.623
 4910POPC   C3A63845  22.997  35.322   7.026
 4910POPC   C4A63846  22.707  35.451   7.326
 4910POPC   C1B63847  22.479  35.121   5.988
 4910POPC   C2B63848  22.405  35.003   6.429
 4910POPC   C3B63849  22.548  35.091   6.833
 4910POPC   C4B63850  22.492  34.972   7.243
 4911POPC   NC363851  38.808   7.047   5.650
 4911POPC   PO463852  39.175   6.544   5.343
 4911POPC   GL163853  39.332   6.604   5.775
 4911POPC   GL263854  39.579   6.330   5.795
 4911POPC   C1A63855  39.174   6.760   6.193
 4911POPC   D2A63856  38.913   6.650   6.558
 4911POPC   C3A63857  39.062   6.854   6.910
 4911POPC   C4A63858  39.124   6.779   7.322
 4911POPC   C1B63859  39.415   6.290   6.205
 4911POPC   C2B63860  39.408   6.517   6.602
 4911POPC   C3B63861  39.292   6.394   6.985
 4911POPC   C4B63862  39.501   6.452   7.335
 4912POPC   NC363863   8.474   2.577   5.497
 4912POPC   PO463864   8.058   3.120   5.416
 4912POPC   GL163865   8.132   2.847   5.749
 4912POPC   GL263866   7.922   2.566   5.691
 4912POPC   C1A63867   8.085   2.964   6.163
 4912POPC   D2A63868   8.125   3.245   6.507
 4912POPC   C3A63869   8.150   3.016   6.853
 4912POPC   C4A63870   8.220   2.817   7.216
 4912POPC   C1B63871   7.726   2.594   6.093
 4912POPC   C2B63872   7.864   2.693   6.537
 4912POPC   C3B63873   7.754   2.552   6.961
 4912POPC   C4B63874   7.682   2.428   7.396
 4913POPC   NC363875   4.075  40.856   5.424
 4913POPC   PO463876   4.676  40.783   5.655
 4913POPC   GL163877   4.310  40.653   5.888
 4913POPC   GL263878   4.230  40.991   5.898
 4913POPC   C1A63879   4.215  40.602   6.340
 4913POPC   D2A63880   4.402  40.787   6.720
 4913POPC   C3A63881   4.463  40.508   7.090
 4913POPC   C4A63882   4.661  40.699   7.425
 4913POPC   C1B63883   3.893  40.969   6.162
 4913POPC   C2B63884   3.956  41.013   6.583
 4913POPC   C3B63885   3.897  41.032   7.011
 4913POPC   C4B63886   4.158  40.845   7.287
 4914POPC   NC363887  31.105  41.719   5.012
 4914POPC   PO463888  31.361  41.538   5.635
 4914POPC   GL163889  31.268  41.633   5.969
 4914POPC   GL263890  31.480  41.913   5.970
 4914POPC   C1A63891  31.245  41.312   6.284
 4914POPC   D2A63892  31.359  41.247   6.721
 4914POPC   C3A63893  31.168  41.328   7.131
 4914POPC   C4A63894  31.294  41.196   7.564
 4914POPC   C1B63895  31.532  41.762   6.375
 4914POPC   C2B63896  31.474  41.750   6.772
 4914POPC   C3B63897  31.515  41.693   7.160
 4914POPC   C4B63898  31.685  41.482   7.468
 4915POPC   NC363899  16.753   0.019   5.328
 4915POPC   PO463900  16.842   0.690   5.328
 4915POPC   GL163901  16.636   0.557   5.695
 4915POPC   GL263902  16.640   0.210   5.790
 4915POPC   C1A63903  16.725   0.616   6.132
 4915POPC   D2A63904  16.976   0.510   6.502
 4915POPC   C3A63905  16.790   0.436   6.900
 4915POPC   C4A63906  16.547   0.683   7.184
 4915POPC   C1B63907  16.855   0.117   6.187
 4915POPC   C2B63908  16.784  44.977   6.622
 4915POPC   C3B63909  16.946  44.955   7.055
 4915POPC   C4B63910  16.963   0.050   7.526
 4916POPC   NC363911  38.754  22.752   5.396
 4916POPC   PO463912  39.268  23.241   5.362
 4916POPC   GL163913  39.138  23.017   5.732
 4916POPC   GL263914  39.502  23.039   5.843
 4916POPC   C1A63915  38.986  23.176   6.149
 4916POPC   D2A63916  39.084  23.378   6.556
 4916POPC   C3A63917  38.893  23.227   6.939
 4916POPC   C4A63918  39.060  22.931   7.243
 4916POPC   C1B63919  39.358  22.792   6.186
 4916POPC   C2B63920  39.510  22.567   6.558
 4916POPC   C3B63921  39.579  22.792   6.934
 4916POPC   C4B63922  39.528  22.810   7.376
 4917POPC   NC363923  43.086   7.503   5.207
 4917POPC   PO463924  43.284   7.008   5.637
 4917POPC   GL163925  43.057   7.322   5.810
 4917POPC   GL263926  43.154   7.650   5.727
 4917POPC   C1A63927  43.004   7.327   6.228
 4917POPC   D2A63928  43.094   7.010   6.508
 4917POPC   C3A63929  43.085   7.276   6.826
 4917POPC   C4A63930  42.988   7.415   7.204
 4917POPC   C1B63931  43.183   7.811   6.177
 4917POPC   C2B63932  43.018   7.741   6.601
 4917POPC   C3B63933  43.267   7.792   6.978
 4917POPC   C4B63934  43.454   7.612   7.383
 4918POPC   NC363935  33.401  28.453   5.606
 4918POPC   PO463936  32.888  28.759   5.200
 4918POPC   GL163937  32.924  28.634   5.676
 4918POPC   GL263938  32.886  28.282   5.727
 4918POPC   C1A63939  33.020  28.530   6.165
 4918POPC   D2A63940  32.914  28.703   6.612
 4918POPC   C3A63941  33.023  28.512   6.988
 4918POPC   C4A63942  33.225  28.159   7.175
 4918POPC   C1B63943  32.743  28.101   6.142
 4918POPC   C2B63944  32.873  28.175   6.587
 4918POPC   C3B63945  32.732  28.108   7.026
 4918POPC   C4B63946  32.843  27.925   7.450
 4919POPC   NC363947  41.114   5.098   5.061
 4919POPC   PO463948  41.667   5.226   5.396
 4919POPC   GL163949  41.696   5.409   5.796
 4919POPC   GL263950  41.975   5.666   5.765
 4919POPC   C1A63951  41.464   5.282   6.183
 4919POPC   D2A63952  41.223   4.953   6.432
 4919POPC   C3A63953  41.400   4.864   6.844
 4919POPC   C4A63954  41.226   4.901   7.250
 4919POPC   C1B63955  41.821   5.676   6.205
 4919POPC   C2B63956  41.761   5.440   6.589
 4919POPC   C3B63957  41.866   5.514   7.004
 4919POPC   C4B63958  41.622   5.215   7.151
 4920POPC   NC363959  10.955  19.141   5.484
 4920POPC   PO463960  10.338  18.912   5.451
 4920POPC   GL163961  10.504  19.177   5.785
 4920POPC   GL263962  10.837  19.228   5.965
 4920POPC   C1A63963  10.341  19.301   6.171
 4920POPC   D2A63964  10.257  19.159   6.583
 4920POPC   C3A63965  10.533  19.360   6.877
 4920POPC   C4A63966  10.658  19.182   7.275
 4920POPC   C1B63967  10.712  18.941   6.310
 4920POPC   C2B63968  10.680  18.875   6.765
 4920POPC   C3B63969  10.789  18.728   7.150
 4920POPC   C4B63970  10.880  18.836   7.605
 4921POPC   NC363971   4.030  43.533   5.256
 4921POPC   PO463972   4.328  42.991   5.517
 4921POPC   GL163973   4.144  43.008   5.923
 4921POPC   GL263974   4.010  42.718   6.054
 4921POPC   C1A63975   4.233  43.292   6.279
 4921POPC   D2A63976   4.442  43.440   6.667
 4921POPC   C3A63977   4.307  43.277   7.050
 4921POPC   C4A63978   4.390  43.210   7.495
 4921POPC   C1B63979   4.436  42.809   6.281
 4921POPC   C2B63980   4.560  42.745   6.702
 4921POPC   C3B63981   4.452  42.799   7.120
 4921POPC   C4B63982   4.240  42.732   7.550
 4922POPC   NC363983  14.311   0.576   5.367
 4922POPC   PO463984  14.971   0.821   5.377
 4922POPC   GL163985  14.715   0.606   5.736
 4922POPC   GL263986  14.744   0.796   6.058
 4922POPC   C1A63987  14.336   0.495   6.018
 4922POPC   D2A63988  14.168   0.520   6.433
 4922POPC   C3A63989  14.393   0.579   6.802
 4922POPC   C4A63990  14.211   0.576   7.220
 4922POPC   C1B63991  14.774   0.410   6.307
 4922POPC   C2B63992  14.749   0.091   6.638
 4922POPC   C3B63993  14.579   0.159   7.040
 4922POPC   C4B63994  14.707   0.489   7.303
 4923POPC   NC363995  42.073  38.005   5.285
 4923POPC   PO463996  42.421  37.441   5.435
 4923POPC   GL163997  42.345  37.559   5.812
 4923POPC   GL263998  42.027  37.662   5.737
 4923POPC   C1A63999  42.516  37.698   6.194
 4923POPC   D2A64000  42.713  37.615   6.583
 4923POPC   C3A64001  42.636  37.807   7.001
 4923POPC   C4A64002  42.562  37.611   7.420
 4923POPC   C1B64003  42.018  37.608   6.219
 4923POPC   C2B64004  42.193  37.617   6.668
 4923POPC   C3B64005  42.157  37.710   7.135
 4923POPC   C4B64006  42.094  37.550   7.609
 4924POPC   NC364007  41.609   3.453   5.309
 4924POPC   PO464008  41.034   3.923   5.320
 4924POPC   GL164009  41.313   3.716   5.690
 4924POPC   GL264010  41.713   3.726   5.752
 4924POPC   C1A64011  41.421   3.525   6.122
 4924POPC   D2A64012  41.619   3.604   6.530
 4924POPC   C3A64013  41.392   3.550   6.876
 4924POPC   C4A64014  41.183   3.563   7.240
 4924POPC   C1B64015  41.955   3.620   6.162
 4924POPC   C2B64016  42.074   3.364   6.510
 4924POPC   C3B64017  41.917   3.400   6.906
 4924POPC   C4B64018  41.757   3.775   7.147
 4925POPC   NC364019   3.587  31.867   5.451
 4925POPC   PO464020   3.749  32.590   5.476
 4925POPC   GL164021   3.686  32.303   5.829
 4925POPC   GL264022   3.503  31.986   5.929
 4925POPC   C1A64023   3.798  32.291   6.257
 4925POPC   D2A64024   3.946  32.249   6.661
 4925POPC   C3A64025   3.754  32.429   7.002
 4925POPC   C4A64026   3.559  32.098   7.209
 4925POPC   C1B64027   3.353  32.020   6.347
 4925POPC   C2B64028   3.268  31.995   6.782
 4925POPC   C3B64029   3.073  31.955   7.191
 4925POPC   C4B64030   2.913  31.881   7.609
 4926POPC   NC364031  34.410  26.186   5.289
 4926POPC   PO464032  35.003  25.960   5.415
 4926POPC   GL164033  34.700  25.999   5.736
 4926POPC   GL264034  34.375  26.011   5.778
 4926POPC   C1A64035  34.658  25.774   6.125
 4926POPC   D2A64036  34.530  25.855   6.538
 4926POPC   C3A64037  34.818  25.936   6.870
 4926POPC   C4A64038  34.764  26.291   7.143
 4926POPC   C1B64039  34.150  25.843   6.167
 4926POPC   C2B64040  34.039  25.980   6.601
 4926POPC   C3B64041  34.324  26.098   6.946
 4926POPC   C4B64042  34.441  25.929   7.324
 4927POPC   NC364043  33.700  35.079   5.269
 4927POPC   PO464044  33.469  35.713   5.428
 4927POPC   GL164045  33.585  35.471   5.795
 4927POPC   GL264046  33.857  35.222   5.748
 4927POPC   C1A64047  33.509  35.235   6.210
 4927POPC   D2A64048  33.707  34.905   6.461
 4927POPC   C3A64049  33.612  35.041   6.895
 4927POPC   C4A64050  33.617  35.214   7.313
 4927POPC   C1B64051  33.977  35.411   6.148
 4927POPC   C2B64052  33.895  35.344   6.594
 4927POPC   C3B64053  34.073  35.330   6.993
 4927POPC   C4B64054  33.939  35.595   7.265
 4928POPC   NC364055   8.756  31.907   5.306
 4928POPC   PO464056   9.087  31.342   5.149
 4928POPC   GL164057   8.955  31.514   5.613
 4928POPC   GL264058   8.670  31.330   5.710
 4928POPC   C1A64059   9.168  31.596   6.065
 4928POPC   D2A64060   9.107  31.386   6.504
 4928POPC   C3A64061   9.156  31.542   6.946
 4928POPC   C4A64062   9.092  31.754   7.361
 4928POPC   C1B64063   8.716  31.401   6.155
 4928POPC   C2B64064   8.739  31.760   6.505
 4928POPC   C3B64065   8.700  31.796   6.960
 4928POPC   C4B64066   8.656  31.402   7.202
 4929POPC   NC364067  44.695  25.492   5.442
 4929POPC   PO464068  44.470  24.844   5.344
 4929POPC   GL164069  44.600  25.094   5.740
 4929POPC   GL264070  44.885  25.287   5.868
 4929POPC   C1A64071  44.477  25.092   6.184
 4929POPC   D2A64072  44.418  24.947   6.627
 4929POPC   C3A64073  44.642  25.142   6.983
 4929POPC   C4A64074  44.849  25.016   7.361
 4929POPC   C1B64075  44.726  25.555   6.193
 4929POPC   C2B64076  44.477  25.477   6.565
 4929POPC   C3B64077  44.512  25.638   6.978
 4929POPC   C4B64078  44.705  25.503   7.376
 4930POPC   NC364079  40.881  40.603   5.591
 4930POPC   PO464080  40.413  41.127   5.501
 4930POPC   GL164081  40.706  41.010   5.836
 4930POPC   GL264082  40.522  40.742   5.942
 4930POPC   C1A64083  40.983  41.181   6.186
 4930POPC   D2A64084  41.111  41.241   6.643
 4930POPC   C3A64085  40.878  41.013   6.968
 4930POPC   C4A64086  40.967  40.588   7.188
 4930POPC   C1B64087  40.706  40.768   6.368
 4930POPC   C2B64088  40.574  40.642   6.817
 4930POPC   C3B64089  40.505  40.760   7.266
 4930POPC   C4B64090  40.369  40.686   7.709
 4931POPC   NC364091  42.835  38.643   5.402
 4931POPC   PO464092  43.135  38.105   5.647
 4931POPC   GL164093  43.427  38.365   5.897
 4931POPC   GL264094  43.344  38.712   5.886
 4931POPC   C1A64095  43.497  38.267   6.319
 4931POPC   D2A64096  43.315  38.417   6.704
 4931POPC   C3A64097  43.464  38.312   7.090
 4931POPC   C4A64098  43.338  38.238   7.509
 4931POPC   C1B64099  43.035  38.519   6.219
 4931POPC   C2B64100  42.812  38.466   6.632
 4931POPC   C3B64101  42.823  38.669   7.035
 4931POPC   C4B64102  43.147  38.656   7.313
 4932POPC   NC364103  31.814  41.655   5.624
 4932POPC   PO464104  32.318  41.371   5.400
 4932POPC   GL164105  32.199  41.331   5.846
 4932POPC   GL264106  32.269  41.638   6.017
 4932POPC   C1A64107  32.397  41.190   6.242
 4932POPC   D2A64108  32.327  41.205   6.685
 4932POPC   C3A64109  32.494  41.576   6.880
 4932POPC   C4A64110  32.736  41.451   7.235
 4932POPC   C1B64111  31.977  41.488   6.366
 4932POPC   C2B64112  31.852  41.374   6.814
 4932POPC   C3B64113  32.114  41.395   7.186
 4932POPC   C4B64114  32.353  41.758   7.344
 4933POPC   NC364115  18.122  32.255   5.627
 4933POPC   PO464116  17.728  32.155   5.096
 4933POPC   GL164117  17.623  32.206   5.650
 4933POPC   GL264118  17.274  32.143   5.750
 4933POPC   C1A64119  17.751  32.149   6.143
 4933POPC   D2A64120  17.608  32.061   6.579
 4933POPC   C3A64121  17.802  32.071   6.963
 4933POPC   C4A64122  17.563  32.285   7.259
 4933POPC   C1B64123  17.386  32.483   6.043
 4933POPC   C2B64124  17.366  32.510   6.494
 4933POPC   C3B64125  17.210  32.406   6.907
 4933POPC   C4B64126  17.299  32.709   7.249
 4934POPC   NC364127  20.082  28.443   5.341
 4934POPC   PO464128  19.605  28.023   5.349
 4934POPC   GL164129  19.653  28.323   5.674
 4934POPC   GL264130  19.976  28.334   5.815
 4934POPC   C1A64131  19.591  28.227   6.135
 4934POPC   D2A64132  19.794  28.232   6.536
 4934POPC   C3A64133  19.642  28.383   6.920
 4934POPC   C4A64134  19.766  28.270   7.336
 4934POPC   C1B64135  20.039  28.537   6.221
 4934POPC   C2B64136  19.963  28.728   6.651
 4934POPC   C3B64137  20.030  28.650   7.126
 4934POPC   C4B64138  20.035  28.613   7.613
 4935POPC   NC364139  24.827  43.765   5.515
 4935POPC   PO464140  24.296  44.183   5.336
 4935POPC   GL164141  24.323  44.070   5.794
 4935POPC   GL264142  24.403  43.720   5.876
 4935POPC   C1A64143  24.413  44.084   6.262
 4935POPC   D2A64144  24.520  43.792   6.583
 4935POPC   C3A64145  24.345  43.884   6.995
 4935POPC   C4A64146  24.470  44.032   7.429
 4935POPC   C1B64147  24.277  43.472   6.252
 4935POPC   C2B64148  24.241  43.366   6.711
 4935POPC   C3B64149  23.962  43.492   7.045
 4935POPC   C4B64150  24.044  43.768   7.397
 4936POPC   NC364151  41.086  19.979   5.599
 4936POPC   PO464152  41.717  19.725   5.421
 4936POPC   GL164153  41.761  19.714   5.855
 4936POPC   GL264154  41.450  19.656   5.857
 4936POPC   C1A64155  41.679  19.892   6.267
 4936POPC   D2A64156  41.973  20.039   6.570
 4936POPC   C3A64157  41.908  20.056   7.002
 4936POPC   C4A64158  41.674  19.863   7.299
 4936POPC   C1B64159  41.382  19.463   6.224
 4936POPC   C2B64160  41.331  19.642   6.604
 4936POPC   C3B64161  41.249  19.798   6.985
 4936POPC   C4B64162  41.170  19.933   7.356
 4937POPC   NC364163  26.847  41.092   5.452
 4937POPC   PO464164  27.104  40.429   5.381
 4937POPC   GL164165  26.999  40.708   5.778
 4937POPC   GL264166  27.105  41.064   5.879
 4937POPC   C1A64167  26.684  40.738   6.153
 4937POPC   D2A64168  26.848  40.634   6.593
 4937POPC   C3A64169  26.674  40.786   7.002
 4937POPC   C4A64170  26.519  40.605   7.415
 4937POPC   C1B64171  27.110  40.969   6.291
 4937POPC   C2B64172  27.099  41.230   6.620
 4937POPC   C3B64173  27.130  41.119   7.035
 4937POPC   C4B64174  26.907  40.983   7.416
 4938POPC   NC364175  34.350   0.144   5.386
 4938POPC   PO464176  34.844   0.766   5.444
 4938POPC   GL164177  34.775   0.534   5.827
 4938POPC   GL264178  34.692   0.183   5.798
 4938POPC   C1A64179  34.591   0.504   6.257
 4938POPC   D2A64180  34.365   0.263   6.576
 4938POPC   C3A64181  34.478   0.353   7.002
 4938POPC   C4A64182  34.410   0.505   7.467
 4938POPC   C1B64183  34.771   0.010   6.219
 4938POPC   C2B64184  34.885   0.192   6.626
 4938POPC   C3B64185  34.983   0.266   7.043
 4938POPC   C4B64186  34.776   0.131   7.418
 4939POPC   NC364187   0.322   5.087   5.227
 4939POPC   PO464188   0.951   5.390   5.385
 4939POPC   GL164189   0.666   5.079   5.627
 4939POPC   GL264190   0.283   5.047   5.751
 4939POPC   C1A64191   0.684   4.862   6.027
 4939POPC   D2A64192   0.448   4.962   6.398
 4939POPC   C3A64193   0.608   4.909   6.807
 4939POPC   C4A64194   0.377   4.992   7.161
 4939POPC   C1B64195   0.152   4.693   6.058
 4939POPC   C2B64196   0.143   4.514   6.498
 4939POPC   C3B64197   0.083   4.609   6.947
 4939POPC   C4B64198  44.827   4.910   7.131
 4940POPC   NC364199  11.777  32.639   5.210
 4940POPC   PO464200  11.972  33.276   5.486
 4940POPC   GL164201  11.892  33.271   5.900
 4940POPC   GL264202  12.253  33.260   5.931
 4940POPC   C1A64203  11.925  33.278   6.352
 4940POPC   D2A64204  11.924  33.363   6.785
 4940POPC   C3A64205  11.854  33.027   7.061
 4940POPC   C4A64206  12.150  32.712   7.135
 4940POPC   C1B64207  12.388  33.028   6.266
 4940POPC   C2B64208  12.242  32.995   6.685
 4940POPC   C3B64209  12.341  33.186   7.074
 4940POPC   C4B64210  12.514  32.956   7.397
 4941POPC   NC364211   6.812  35.585   5.240
 4941POPC   PO464212   6.188  35.526   5.386
 4941POPC   GL164213   6.527  35.547   5.732
 4941POPC   GL264214   6.740  35.865   5.699
 4941POPC   C1A64215   6.507  35.529   6.217
 4941POPC   D2A64216   6.340  35.580   6.663
 4941POPC   C3A64217   6.431  35.276   7.007
 4941POPC   C4A64218   6.805  35.296   7.262
 4941POPC   C1B64219   6.879  35.876   6.138
 4941POPC   C2B64220   6.888  35.660   6.554
 4941POPC   C3B64221   6.879  35.712   6.990
 4941POPC   C4B64222   6.489  35.727   7.247
 4942POPC   NC364223  13.220  27.239   5.452
 4942POPC   PO464224  13.391  27.865   5.354
 4942POPC   GL164225  13.455  27.809   5.805
 4942POPC   GL264226  13.812  27.857   5.830
 4942POPC   C1A64227  13.254  27.627   6.182
 4942POPC   D2A64228  13.448  27.542   6.598
 4942POPC   C3A64229  13.356  27.545   7.013
 4942POPC   C4A64230  13.627  27.732   7.273
 4942POPC   C1B64231  13.786  27.767   6.292
 4942POPC   C2B64232  13.930  27.739   6.744
 4942POPC   C3B64233  14.080  27.906   7.150
 4942POPC   C4B64234  14.006  27.890   7.635
 4943POPC   NC364235  17.254   0.482   5.416
 4943POPC   PO464236  17.874   0.409   5.177
 4943POPC   GL164237  17.742   0.490   5.657
 4943POPC   GL264238  17.876   0.181   5.826
 4943POPC   C1A64239  17.481   0.555   6.074
 4943POPC   D2A64240  17.445   0.709   6.525
 4943POPC   C3A64241  17.328   0.520   6.911
 4943POPC   C4A64242  17.564   0.589   7.300
 4943POPC   C1B64243  17.551   0.028   6.099
 4943POPC   C2B64244  17.324   0.135   6.458
 4943POPC   C3B64245  17.486   0.034   6.847
 4943POPC   C4B64246  17.375   0.127   7.255
 4944POPC   NC364247  13.846  16.353   5.368
 4944POPC   PO464248  13.466  16.904   5.443
 4944POPC   GL164249  13.500  16.600   5.774
 4944POPC   GL264250  13.827  16.681   5.797
 4944POPC   C1A64251  13.484  16.809   6.194
 4944POPC   D2A64252  13.692  16.894   6.584
 4944POPC   C3A64253  13.525  16.959   6.986
 4944POPC   C4A64254  13.794  17.178   7.288
 4944POPC   C1B64255  13.993  16.670   6.211
 4944POPC   C2B64256  14.112  16.609   6.631
 4944POPC   C3B64257  14.030  16.811   7.020
 4944POPC   C4B64258  13.854  16.686   7.432
 4945POPC   NC364259  43.678  29.503   5.192
 4945POPC   PO464260  44.207  29.842   5.163
 4945POPC   GL164261  43.999  29.833   5.612
 4945POPC   GL264262  43.649  29.764   5.727
 4945POPC   C1A64263  44.037  29.813   6.105
 4945POPC   D2A64264  44.058  29.606   6.559
 4945POPC   C3A64265  44.121  29.833   7.002
 4945POPC   C4A64266  44.039  30.211   7.300
 4945POPC   C1B64267  43.559  29.645   6.184
 4945POPC   C2B64268  43.578  29.400   6.562
 4945POPC   C3B64269  43.695  29.543   6.969
 4945POPC   C4B64270  43.646  29.901   7.229
 4946POPC   NC364271  18.161   7.404   5.277
 4946POPC   PO464272  18.741   7.441   5.485
 4946POPC   GL164273  18.377   7.616   5.716
 4946POPC   GL264274  18.577   7.491   5.996
 4946POPC   C1A64275  18.138   7.671   6.119
 4946POPC   D2A64276  18.370   7.486   6.473
 4946POPC   C3A64277  18.279   7.545   6.899
 4946POPC   C4A64278  18.632   7.669   7.140
 4946POPC   C1B64279  18.686   7.132   6.247
 4946POPC   C2B64280  18.635   6.950   6.684
 4946POPC   C3B64281  18.644   7.161   7.075
 4946POPC   C4B64282  18.369   7.322   7.389
 4947POPC   NC364283   0.732  38.027   5.377
 4947POPC   PO464284   0.617  38.644   5.444
 4947POPC   GL164285   0.328  38.423   5.711
 4947POPC   GL264286   0.413  38.078   5.816
 4947POPC   C1A64287   0.330  38.462   6.151
 4947POPC   D2A64288   0.332  38.286   6.537
 4947POPC   C3A64289   0.384  38.566   6.842
 4947POPC   C4A64290   0.507  38.413   7.199
 4947POPC   C1B64291   0.803  38.264   5.994
 4947POPC   C2B64292   0.815  38.442   6.395
 4947POPC   C3B64293   0.834  38.289   6.815
 4947POPC   C4B64294   1.056  38.468   7.147
 4948POPC   NC364295  28.157  30.566   5.416
 4948POPC   PO464296  28.713  30.940   5.297
 4948POPC   GL164297  28.488  30.844   5.694
 4948POPC   GL264298  28.519  30.499   5.801
 4948POPC   C1A64299  28.536  30.881   6.148
 4948POPC   D2A64300  28.331  30.829   6.534
 4948POPC   C3A64301  28.567  30.720   6.891
 4948POPC   C4A64302  28.747  30.714   7.320
 4948POPC   C1B64303  28.158  30.539   6.105
 4948POPC   C2B64304  27.946  30.508   6.508
 4948POPC   C3B64305  28.063  30.553   6.932
 4948POPC   C4B64306  28.355  30.410   7.232
 4949POPC   NC364307   8.302  35.528   5.505
 4949POPC   PO464308   7.717  35.157   5.555
 4949POPC   GL164309   8.038  35.239   5.829
 4949POPC   GL264310   7.926  35.595   5.831
 4949POPC   C1A64311   8.320  35.359   6.161
 4949POPC   D2A64312   8.211  35.498   6.556
 4949POPC   C3A64313   8.290  35.229   6.932
 4949POPC   C4A64314   8.515  35.387   7.285
 4949POPC   C1B64315   7.906  35.834   6.217
 4949POPC   C2B64316   7.775  35.771   6.627
 4949POPC   C3B64317   7.965  35.605   7.024
 4949POPC   C4B64318   8.032  35.516   7.448
 4950POPC   NC364319   4.794   7.934   5.540
 4950POPC   PO464320   5.283   7.476   5.422
 4950POPC   GL164321   5.068   7.571   5.744
 4950POPC   GL264322   4.990   7.242   5.824
 4950POPC   C1A64323   4.876   7.686   6.150
 4950POPC   D2A64324   4.760   7.467   6.511
 4950POPC   C3A64325   4.850   7.623   6.933
 4950POPC   C4A64326   5.191   7.651   7.206
 4950POPC   C1B64327   5.313   7.374   6.132
 4950POPC   C2B64328   5.320   7.478   6.570
 4950POPC   C3B64329   5.196   7.231   6.907
 4950POPC   C4B64330   4.863   7.154   7.175
 4951POPC   NC364331   5.016  22.937   5.591
 4951POPC   PO464332   5.650  22.617   5.480
 4951POPC   GL164333   5.427  22.762   5.833
 4951POPC   GL264334   5.441  23.131   5.810
 4951POPC   C1A64335   5.200  22.646   6.200
 4951POPC   D2A64336   5.220  22.797   6.593
 4951POPC   C3A64337   5.115  22.600   6.959
 4951POPC   C4A64338   5.269  22.760   7.320
 4951POPC   C1B64339   5.153  23.147   6.193
 4951POPC   C2B64340   5.122  23.292   6.625
 4951POPC   C3B64341   5.110  23.160   7.022
 4951POPC   C4B64342   4.802  22.962   7.233
 4952POPC   NC364343  16.035  17.836   5.439
 4952POPC   PO464344  15.922  17.132   5.433
 4952POPC   GL164345  15.981  17.447   5.787
 4952POPC   GL264346  15.750  17.722   5.854
 4952POPC   C1A64347  16.063  17.569   6.236
 4952POPC   D2A64348  15.830  17.584   6.637
 4952POPC   C3A64349  16.033  17.468   7.038
 4952POPC   C4A64350  16.162  17.280   7.463
 4952POPC   C1B64351  15.611  17.881   6.259
 4952POPC   C2B64352  15.396  17.845   6.655
 4952POPC   C3B64353  15.570  17.775   7.084
 4952POPC   C4B64354  15.454  17.752   7.553
 4953POPC   NC364355  33.367  41.430   5.500
 4953POPC   PO464356  33.971  41.690   5.274
 4953POPC   GL164357  33.744  41.709   5.720
 4953POPC   GL264358  33.517  41.988   5.813
 4953POPC   C1A64359  33.622  41.468   6.143
 4953POPC   D2A64360  33.768  41.212   6.534
 4953POPC   C3A64361  33.733  41.304   7.007
 4953POPC   C4A64362  33.950  41.273   7.412
 4953POPC   C1B64363  33.300  41.849   6.232
 4953POPC   C2B64364  33.402  41.605   6.609
 4953POPC   C3B64365  33.577  41.784   6.976
 4953POPC   C4B64366  33.392  41.878   7.373
 4954POPC   NC364367  26.027  22.609   5.668
 4954POPC   PO464368  25.910  23.216   5.329
 4954POPC   GL164369  26.049  23.125   5.731
 4954POPC   GL264370  25.950  23.384   5.869
 4954POPC   C1A64371  26.172  23.000   6.175
 4954POPC   D2A64372  26.300  22.831   6.587
 4954POPC   C3A64373  25.965  22.645   6.849
 4954POPC   C4A64374  25.799  22.732   7.261
 4954POPC   C1B64375  26.012  23.469   6.271
 4954POPC   C2B64376  26.187  23.318   6.623
 4954POPC   C3B64377  26.051  23.123   6.986
 4954POPC   C4B64378  25.833  23.353   7.238
 4955POPC   NC364379  41.059  15.855   5.455
 4955POPC   PO464380  40.489  16.083   5.410
 4955POPC   GL164381  40.594  16.239   5.838
 4955POPC   GL264382  40.837  16.004   5.878
 4955POPC   C1A64383  40.601  16.036   6.305
 4955POPC   D2A64384  40.636  15.820   6.706
 4955POPC   C3A64385  40.887  16.005   7.047
 4955POPC   C4A64386  40.911  16.210   7.421
 4955POPC   C1B64387  40.853  15.608   6.152
 4955POPC   C2B64388  41.073  15.528   6.565
 4955POPC   C3B64389  41.234  15.611   6.988
 4955POPC   C4B64390  41.163  15.667   7.435
 4956POPC   NC364391   3.765   4.579   5.477
 4956POPC   PO464392   3.866   3.834   5.505
 4956POPC   GL164393   3.548   4.021   5.816
 4956POPC   GL264394   3.586   4.381   5.903
 4956POPC   C1A64395   3.409   3.983   6.228
 4956POPC   D2A64396   3.647   3.991   6.612
 4956POPC   C3A64397   3.515   4.294   6.885
 4956POPC   C4A64398   3.498   4.147   7.284
 4956POPC   C1B64399   3.729   4.704   6.188
 4956POPC   C2B64400   3.563   4.762   6.596
 4956POPC   C3B64401   3.761   4.773   6.994
 4956POPC   C4B64402   3.478   4.663   7.273
 4957POPC   NC364403   9.047  26.448   5.410
 4957POPC   PO464404   8.860  25.845   5.503
 4957POPC   GL164405   9.096  25.908   5.848
 4957POPC   GL264406   9.234  26.224   5.827
 4957POPC   C1A64407   8.892  26.069   6.187
 4957POPC   D2A64408   8.901  26.216   6.547
 4957POPC   C3A64409   8.745  25.928   6.819
 4957POPC   C4A64410   8.803  25.965   7.245
 4957POPC   C1B64411   9.408  26.118   6.209
 4957POPC   C2B64412   9.402  26.266   6.619
 4957POPC   C3B64413   9.208  26.170   6.991
 4957POPC   C4B64414   9.118  26.342   7.391
 4958POPC   NC364415  38.778   6.290   5.534
 4958POPC   PO464416  38.378   6.886   5.539
 4958POPC   GL164417  38.526   6.644   5.854
 4958POPC   GL264418  38.310   6.336   5.806
 4958POPC   C1A64419  38.540   6.851   6.261
 4958POPC   D2A64420  38.304   7.019   6.604
 4958POPC   C3A64421  38.531   6.874   6.957
 4958POPC   C4A64422  38.691   7.040   7.349
 4958POPC   C1B64423  38.119   6.562   6.160
 4958POPC   C2B64424  38.199   6.502   6.580
 4958POPC   C3B64425  38.069   6.588   6.968
 4958POPC   C4B64426  38.229   6.775   7.348
 4959POPC   NC364427  34.821   5.428   5.679
 4959POPC   PO464428  34.728   5.943   5.304
 4959POPC   GL164429  34.633   5.894   5.754
 4959POPC   GL264430  34.348   5.701   5.832
 4959POPC   C1A64431  34.741   5.904   6.207
 4959POPC   D2A64432  34.592   6.025   6.624
 4959POPC   C3A64433  34.751   5.876   7.010
 4959POPC   C4A64434  34.468   5.908   7.398
 4959POPC   C1B64435  34.397   5.508   6.231
 4959POPC   C2B64436  34.551   5.495   6.649
 4959POPC   C3B64437  34.322   5.580   7.011
 4959POPC   C4B64438  34.346   5.405   7.406
 4960POPC   NC364439  13.562  43.505   4.975
 4960POPC   PO464440  13.469  42.976   5.374
 4960POPC   GL164441  13.300  43.065   5.784
 4960POPC   GL264442  13.381  43.442   5.836
 4960POPC   C1A64443  13.320  43.155   6.238
 4960POPC   D2A64444  13.177  43.051   6.620
 4960POPC   C3A64445  13.396  42.870   6.909
 4960POPC   C4A64446  13.336  43.012   7.303
 4960POPC   C1B64447  13.744  43.478   6.173
 4960POPC   C2B64448  13.891  43.361   6.570
 4960POPC   C3B64449  13.621  43.370   6.911
 4960POPC   C4B64450  13.733  43.324   7.315
 4961POPC   NC364451  25.938   6.738   5.470
 4961POPC   PO464452  26.489   6.840   5.516
 4961POPC   GL164453  26.222   6.643   5.879
 4961POPC   GL264454  25.890   6.423   5.869
 4961POPC   C1A64455  26.181   6.550   6.307
 4961POPC   D2A64456  25.978   6.391   6.664
 4961POPC   C3A64457  26.142   6.354   7.080
 4961POPC   C4A64458  26.247   6.292   7.532
 4961POPC   C1B64459  25.656   6.587   6.252
 4961POPC   C2B64460  25.496   6.545   6.679
 4961POPC   C3B64461  25.713   6.718   7.032
 4961POPC   C4B64462  25.860   6.596   7.434
 4962POPC   NC364463   4.028  34.278   5.488
 4962POPC   PO464464   4.633  34.552   5.364
 4962POPC   GL164465   4.620  34.631   5.815
 4962POPC   GL264466   4.253  34.625   5.816
 4962POPC   C1A64467   4.618  34.702   6.298
 4962POPC   D2A64468   4.726  34.773   6.771
 4962POPC   C3A64469   4.499  34.593   7.136
 4962POPC   C4A64470   4.604  34.413   7.524
 4962POPC   C1B64471   4.165  34.463   6.240
 4962POPC   C2B64472   4.253  34.475   6.695
 4962POPC   C3B64473   4.061  34.324   7.100
 4962POPC   C4B64474   3.772  34.292   7.472
 4963POPC   NC364475  42.090  26.232   5.576
 4963POPC   PO464476  41.461  26.067   5.261
 4963POPC   GL164477  41.605  25.892   5.665
 4963POPC   GL264478  41.615  26.195   5.795
 4963POPC   C1A64479  41.745  25.828   6.128
 4963POPC   D2A64480  41.845  26.059   6.524
 4963POPC   C3A64481  41.688  26.022   6.935
 4963POPC   C4A64482  41.464  25.799   7.229
 4963POPC   C1B64483  41.404  26.361   6.167
 4963POPC   C2B64484  41.474  26.412   6.612
 4963POPC   C3B64485  41.392  26.555   7.028
 4963POPC   C4B64486  41.504  26.500   7.463
 4964POPC   NC364487  30.047  30.837   5.366
 4964POPC   PO464488  29.565  30.415   5.301
 4964POPC   GL164489  29.750  30.616   5.725
 4964POPC   GL264490  29.729  31.011   5.739
 4964POPC   C1A64491  30.100  30.745   6.070
 4964POPC   D2A64492  30.213  30.919   6.517
 4964POPC   C3A64493  30.298  30.792   6.959
 4964POPC   C4A64494  30.025  30.635   7.320
 4964POPC   C1B64495  29.683  31.055   6.180
 4964POPC   C2B64496  29.796  31.257   6.581
 4964POPC   C3B64497  29.845  31.051   6.996
 4964POPC   C4B64498  29.553  30.780   7.250
 4965POPC   NC364499  26.018  24.859   5.494
 4965POPC   PO464500  25.834  25.547   5.394
 4965POPC   GL164501  25.948  25.520   5.830
 4965POPC   GL264502  25.693  25.739   5.925
 4965POPC   C1A64503  26.133  25.330   6.239
 4965POPC   D2A64504  26.041  24.942   6.481
 4965POPC   C3A64505  26.065  24.996   6.924
 4965POPC   C4A64506  26.190  25.129   7.317
 4965POPC   C1B64507  25.688  25.567   6.319
 4965POPC   C2B64508  25.865  25.474   6.750
 4965POPC   C3B64509  25.744  25.668   7.155
 4965POPC   C4B64510  25.727  25.814   7.617
 4966POPC   NC364511  30.649   5.438   5.442
 4966POPC   PO464512  30.995   5.960   5.298
 4966POPC   GL164513  30.890   5.833   5.764
 4966POPC   GL264514  30.655   5.572   5.933
 4966POPC   C1A64515  30.906   5.871   6.256
 4966POPC   D2A64516  30.665   5.738   6.667
 4966POPC   C3A64517  30.678   5.946   7.081
 4966POPC   C4A64518  30.961   6.067   7.446
 4966POPC   C1B64519  30.839   5.369   6.326
 4966POPC   C2B64520  30.988   5.356   6.770
 4966POPC   C3B64521  31.049   5.616   7.138
 4966POPC   C4B64522  30.765   5.615   7.492
 4967POPC   NC364523  26.761  35.693   5.387
 4967POPC   PO464524  26.618  35.020   5.350
 4967POPC   GL164525  26.813  35.309   5.743
 4967POPC   GL264526  26.581  35.577   5.862
 4967POPC   C1A64527  26.973  35.547   6.175
 4967POPC   D2A64528  27.136  35.474   6.635
 4967POPC   C3A64529  26.944  35.487   7.055
 4967POPC   C4A64530  26.998  35.346   7.491
 4967POPC   C1B64531  26.500  35.368   6.244
 4967POPC   C2B64532  26.608  35.444   6.667
 4967POPC   C3B64533  26.405  35.365   7.036
 4967POPC   C4B64534  26.659  35.077   7.234
 4968POPC   NC364535  41.829  24.638   5.363
 4968POPC   PO464536  41.381  24.143   5.522
 4968POPC   GL164537  41.552  24.451   5.765
 4968POPC   GL264538  41.471  24.811   5.720
 4968POPC   C1A64539  41.503  24.561   6.178
 4968POPC   D2A64540  41.608  24.453   6.588
 4968POPC   C3A64541  41.372  24.497   6.944
 4968POPC   C4A64542  41.520  24.354   7.337
 4968POPC   C1B64543  41.682  25.025   6.034
 4968POPC   C2B64544  41.884  24.837   6.363
 4968POPC   C3B64545  41.881  24.896   6.805
 4968POPC   C4B64546  41.748  24.776   7.202
 4969POPC   NC364547  33.387  34.576   5.522
 4969POPC   PO464548  33.937  34.231   5.419
 4969POPC   GL164549  33.780  34.401   5.839
 4969POPC   GL264550  33.662  34.765   5.923
 4969POPC   C1A64551  34.012  34.514   6.227
 4969POPC   D2A64552  34.212  34.452   6.633
 4969POPC   C3A64553  33.912  34.538   6.935
 4969POPC   C4A64554  33.941  34.843   7.239
 4969POPC   C1B64555  33.466  34.505   6.252
 4969POPC   C2B64556  33.434  34.566   6.726
 4969POPC   C3B64557  33.427  34.662   7.183
 4969POPC   C4B64558  33.448  34.363   7.510
 4970POPC   NC364559  38.288  35.719   5.344
 4970POPC   PO464560  38.721  35.206   5.386
 4970POPC   GL164561  38.590  35.299   5.816
 4970POPC   GL264562  38.267  35.368   5.779
 4970POPC   C1A64563  38.602  35.111   6.279
 4970POPC   D2A64564  38.646  35.060   6.740
 4970POPC   C3A64565  38.694  35.377   7.064
 4970POPC   C4A64566  38.339  35.258   7.277
 4970POPC   C1B64567  38.065  35.347   6.187
 4970POPC   C2B64568  37.839  35.375   6.601
 4970POPC   C3B64569  37.910  35.432   7.063
 4970POPC   C4B64570  37.848  35.160   7.455
 4971POPC   NC364571  40.808  16.397   5.294
 4971POPC   PO464572  40.692  17.043   5.220
 4971POPC   GL164573  40.696  16.788   5.641
 4971POPC   GL264574  40.996  16.573   5.751
 4971POPC   C1A64575  40.639  16.764   6.106
 4971POPC   D2A64576  40.616  16.964   6.520
 4971POPC   C3A64577  40.441  16.774   6.907
 4971POPC   C4A64578  40.532  16.569   7.333
 4971POPC   C1B64579  40.992  16.394   6.170
 4971POPC   C2B64580  40.720  16.463   6.545
 4971POPC   C3B64581  40.876  16.516   6.951
 4971POPC   C4B64582  41.061  16.692   7.293
 4972POPC   NC364583  36.743  26.352   5.438
 4972POPC   PO464584  37.167  25.865   5.555
 4972POPC   GL164585  36.925  25.788   5.894
 4972POPC   GL264586  36.650  25.997   5.826
 4972POPC   C1A64587  36.955  25.883   6.337
 4972POPC   D2A64588  37.186  25.986   6.715
 4972POPC   C3A64589  36.966  25.790   7.050
 4972POPC   C4A64590  36.585  25.645   7.214
 4972POPC   C1B64591  36.715  26.293   6.144
 4972POPC   C2B64592  36.787  26.328   6.574
 4972POPC   C3B64593  36.603  26.227   6.962
 4972POPC   C4B64594  36.762  26.177   7.350
 4973POPC   NC364595  26.343  43.411   5.380
 4973POPC   PO464596  26.285  44.097   5.389
 4973POPC   GL164597  26.401  43.819   5.758
 4973POPC   GL264598  26.058  43.721   5.734
 4973POPC   C1A64599  26.444  43.828   6.242
 4973POPC   D2A64600  26.297  44.072   6.649
 4973POPC   C3A64601  26.314  43.930   7.104
 4973POPC   C4A64602  26.559  43.920   7.532
 4973POPC   C1B64603  25.928  43.979   6.128
 4973POPC   C2B64604  25.796  43.964   6.571
 4973POPC   C3B64605  25.833  44.125   6.997
 4973POPC   C4B64606  26.004  44.181   7.430
 4974POPC   NC364607  44.916  26.411   5.116
 4974POPC   PO464608  44.759  25.936   5.609
 4974POPC   GL164609  44.682  26.162   5.924
 4974POPC   GL264610  44.440  26.407   5.847
 4974POPC   C1A64611  44.900  26.092   6.279
 4974POPC   D2A64612  44.794  25.877   6.603
 4974POPC   C3A64613  44.877  26.090   6.950
 4974POPC   C4A64614  44.848  25.995   7.340
 4974POPC   C1B64615  44.526  26.470   6.302
 4974POPC   C2B64616  44.729  26.520   6.700
 4974POPC   C3B64617  44.570  26.550   7.130
 4974POPC   C4B64618  44.547  26.365   7.557
 4975POPC   NC364619  31.468   1.119   4.942
 4975POPC   PO464620  31.318   0.780   5.514
 4975POPC   GL164621  31.346   1.085   5.792
 4975POPC   GL264622  31.671   1.213   5.742
 4975POPC   C1A64623  31.394   1.132   6.226
 4975POPC   D2A64624  31.554   1.051   6.611
 4975POPC   C3A64625  31.319   1.114   6.981
 4975POPC   C4A64626  30.943   1.244   7.148
 4975POPC   C1B64627  31.923   1.173   6.124
 4975POPC   C2B64628  32.065   1.113   6.568
 4975POPC   C3B64629  31.893   1.004   6.995
 4975POPC   C4B64630  31.655   1.162   7.375
 4976POPC   NC364631  22.119  15.325   5.052
 4976POPC   PO464632  22.016  14.843   5.576
 4976POPC   GL164633  21.966  15.072   5.930
 4976POPC   GL264634  22.285  15.161   5.912
 4976POPC   C1A64635  22.014  15.168   6.351
 4976POPC   D2A64636  22.249  15.040   6.694
 4976POPC   C3A64637  21.941  14.929   6.917
 4976POPC   C4A64638  21.944  15.190   7.232
 4976POPC   C1B64639  22.414  15.457   6.205
 4976POPC   C2B64640  22.260  15.545   6.596
 4976POPC   C3B64641  22.377  15.545   6.997
 4976POPC   C4B64642  22.317  15.556   7.438
 4977POPC   NC364643  38.824  27.559   5.617
 4977POPC   PO464644  39.269  27.758   5.203
 4977POPC   GL164645  39.321  27.691   5.693
 4977POPC   GL264646  39.301  27.320   5.657
 4977POPC   C1A64647  39.244  27.534   6.182
 4977POPC   D2A64648  38.962  27.519   6.580
 4977POPC   C3A64649  39.055  27.664   7.020
 4977POPC   C4A64650  39.474  27.714   7.213
 4977POPC   C1B64651  39.429  27.088   6.014
 4977POPC   C2B64652  39.410  27.092   6.457
 4977POPC   C3B64653  39.342  27.280   6.821
 4977POPC   C4B64654  39.114  27.149   7.134
 4978POPC   NC364655  42.451  16.212   5.248
 4978POPC   PO464656  42.118  15.592   5.256
 4978POPC   GL164657  42.210  15.768   5.728
 4978POPC   GL264658  42.077  16.119   5.808
 4978POPC   C1A64659  42.433  15.986   6.147
 4978POPC   D2A64660  42.178  16.206   6.501
 4978POPC   C3A64661  42.384  16.270   6.922
 4978POPC   C4A64662  42.513  16.133   7.367
 4978POPC   C1B64663  41.967  15.831   6.180
 4978POPC   C2B64664  42.050  15.659   6.591
 4978POPC   C3B64665  42.255  15.743   7.009
 4978POPC   C4B64666  42.077  15.853   7.407
 4979POPC   NC364667   4.884   7.184   5.319
 4979POPC   PO464668   5.390   6.760   5.436
 4979POPC   GL164669   5.211   6.483   5.751
 4979POPC   GL264670   4.944   6.718   5.792
 4979POPC   C1A64671   5.009   6.300   6.135
 4979POPC   D2A64672   4.775   6.150   6.526
 4979POPC   C3A64673   4.828   6.284   6.986
 4979POPC   C4A64674   5.107   6.442   7.357
 4979POPC   C1B64675   5.085   6.906   6.194
 4979POPC   C2B64676   4.874   6.963   6.599
 4979POPC   C3B64677   5.030   6.742   6.943
 4979POPC   C4B64678   5.436   6.807   7.116
 4980POPC   NC364679   1.157  18.528   5.042
 4980POPC   PO464680   0.929  17.944   5.390
 4980POPC   GL164681   0.987  18.150   5.776
 4980POPC   GL264682   1.262  18.367   5.833
 4980POPC   C1A64683   1.077  18.090   6.219
 4980POPC   D2A64684   1.111  18.331   6.596
 4980POPC   C3A64685   1.174  18.150   6.998
 4980POPC   C4A64686   1.137  18.345   7.404
 4980POPC   C1B64687   1.401  18.568   6.231
 4980POPC   C2B64688   1.475  18.721   6.666
 4980POPC   C3B64689   1.495  18.571   7.107
 4980POPC   C4B64690   1.482  18.671   7.577
 4981POPC   NC364691  43.654  10.837   5.304
 4981POPC   PO464692  44.050  10.317   5.184
 4981POPC   GL164693  43.894  10.442   5.647
 4981POPC   GL264694  43.687  10.195   5.835
 4981POPC   C1A64695  44.007  10.579   6.114
 4981POPC   D2A64696  44.179  10.770   6.540
 4981POPC   C3A64697  43.961  10.645   6.920
 4981POPC   C4A64698  44.063  10.397   7.299
 4981POPC   C1B64699  43.585  10.316   6.239
 4981POPC   C2B64700  43.674  10.306   6.655
 4981POPC   C3B64701  43.420  10.414   6.998
 4981POPC   C4B64702  43.420  10.278   7.447
 4982POPC   NC364703  32.451  15.304   5.459
 4982POPC   PO464704  32.117  14.768   5.632
 4982POPC   GL164705  32.447  14.960   5.868
 4982POPC   GL264706  32.420  15.311   5.983
 4982POPC   C1A64707  32.536  14.899   6.292
 4982POPC   D2A64708  32.245  14.906   6.631
 4982POPC   C3A64709  32.431  14.921   7.005
 4982POPC   C4A64710  32.419  15.284   7.185
 4982POPC   C1B64711  32.074  15.111   6.196
 4982POPC   C2B64712  31.770  14.852   6.444
 4982POPC   C3B64713  31.722  14.922   6.886
 4982POPC   C4B64714  31.993  15.015   7.256
 4983POPC   NC364715  25.832  36.932   5.436
 4983POPC   PO464716  26.549  36.999   5.430
 4983POPC   GL164717  26.246  37.007   5.814
 4983POPC   GL264718  25.948  36.798   5.900
 4983POPC   C1A64719  26.340  36.826   6.256
 4983POPC   D2A64720  26.291  36.967   6.648
 4983POPC   C3A64721  26.426  36.786   7.003
 4983POPC   C4A64722  26.202  36.914   7.304
 4983POPC   C1B64723  25.911  37.080   6.219
 4983POPC   C2B64724  25.791  36.920   6.603
 4983POPC   C3B64725  25.820  37.043   6.997
 4983POPC   C4B64726  25.683  36.771   7.319
 4984POPC   NC364727  20.452   2.638   5.449
 4984POPC   PO464728  20.853   3.178   5.321
 4984POPC   GL164729  20.874   2.945   5.767
 4984POPC   GL264730  20.666   2.672   5.893
 4984POPC   C1A64731  20.919   2.935   6.249
 4984POPC   D2A64732  20.746   2.819   6.662
 4984POPC   C3A64733  20.768   3.060   7.032
 4984POPC   C4A64734  20.526   2.933   7.363
 4984POPC   C1B64735  20.459   2.637   6.264
 4984POPC   C2B64736  20.326   2.509   6.665
 4984POPC   C3B64737  20.553   2.490   7.064
 4984POPC   C4B64738  20.970   2.292   7.191
 4985POPC   NC364739  38.265   7.309   5.367
 4985POPC   PO464740  38.844   7.477   5.478
 4985POPC   GL164741  38.498   7.423   5.815
 4985POPC   GL264742  38.141   7.555   5.874
 4985POPC   C1A64743  38.494   7.377   6.258
 4985POPC   D2A64744  38.699   7.600   6.588
 4985POPC   C3A64745  38.669   7.384   6.968
 4985POPC   C4A64746  38.311   7.355   7.239
 4985POPC   C1B64747  38.079   7.674   6.344
 4985POPC   C2B64748  38.191   7.618   6.787
 4985POPC   C3B64749  38.007   7.768   7.190
 4985POPC   C4B64750  38.235   7.789   7.594
 4986POPC   NC364751  14.684  10.901   5.396
 4986POPC   PO464752  14.172  10.328   5.392
 4986POPC   GL164753  14.506  10.306   5.670
 4986POPC   GL264754  14.312  10.195   5.945
 4986POPC   C1A64755  14.593  10.604   6.014
 4986POPC   D2A64756  14.484  10.554   6.463
 4986POPC   C3A64757  14.666  10.646   6.879
 4986POPC   C4A64758  14.582  10.673   7.287
 4986POPC   C1B64759  14.068  10.557   6.093
 4986POPC   C2B64760  13.979  10.732   6.493
 4986POPC   C3B64761  14.149  10.612   6.894
 4986POPC   C4B64762  14.075  10.702   7.305
 4987POPC   NC364763  18.770  22.259   5.459
 4987POPC   PO464764  19.353  22.508   5.511
 4987POPC   GL164765  19.159  22.230   5.821
 4987POPC   GL264766  19.291  21.866   5.800
 4987POPC   C1A64767  18.882  22.011   6.119
 4987POPC   D2A64768  18.645  21.813   6.461
 4987POPC   C3A64769  18.762  21.858   6.901
 4987POPC   C4A64770  18.983  22.109   7.218
 4987POPC   C1B64771  19.374  22.001   6.228
 4987POPC   C2B64772  19.275  22.246   6.592
 4987POPC   C3B64773  19.421  22.182   6.975
 4987POPC   C4B64774  19.452  21.894   7.285
 4988POPC   NC364775  34.871   2.482   5.197
 4988POPC   PO464776  34.311   2.403   5.557
 4988POPC   GL164777  34.518   2.669   5.804
 4988POPC   GL264778  34.262   2.793   6.003
 4988POPC   C1A64779  34.836   2.870   6.068
 4988POPC   D2A64780  34.950   2.926   6.511
 4988POPC   C3A64781  34.597   2.803   6.779
 4988POPC   C4A64782  34.552   2.739   7.231
 4988POPC   C1B64783  34.519   2.515   6.297
 4988POPC   C2B64784  34.575   2.295   6.681
 4988POPC   C3B64785  34.360   2.296   7.013
 4988POPC   C4B64786  34.021   2.491   7.195
 4989POPC   NC364787   0.757  15.519   5.342
 4989POPC   PO464788   0.402  14.932   5.271
 4989POPC   GL164789   0.652  15.061   5.677
 4989POPC   GL264790   0.485  15.355   5.767
 4989POPC   C1A64791   0.741  15.180   6.162
 4989POPC   D2A64792   0.589  15.264   6.597
 4989POPC   C3A64793   0.780  14.997   6.913
 4989POPC   C4A64794   0.660  14.868   7.332
 4989POPC   C1B64795   0.276  15.419   6.172
 4989POPC   C2B64796   0.273  15.661   6.546
 4989POPC   C3B64797   0.177  15.423   6.898
 4989POPC   C4B64798   0.286  15.208   7.270
 4990POPC   NC364799   3.709  30.765   5.220
 4990POPC   PO464800   3.162  30.957   5.543
 4990POPC   GL164801   3.365  30.602   5.689
 4990POPC   GL264802   3.714  30.636   5.721
 4990POPC   C1A64803   3.414  30.564   6.129
 4990POPC   D2A64804   3.554  30.403   6.510
 4990POPC   C3A64805   3.495  30.658   6.849
 4990POPC   C4A64806   3.629  30.720   7.243
 4990POPC   C1B64807   3.971  30.587   6.097
 4990POPC   C2B64808   4.052  30.370   6.490
 4990POPC   C3B64809   3.929  30.394   6.919
 4990POPC   C4B64810   4.082  30.506   7.349
 4991POPC   NC364811   1.046  27.709   5.466
 4991POPC   PO464812   1.670  27.534   5.466
 4991POPC   GL164813   1.367  27.553   5.852
 4991POPC   GL264814   1.034  27.764   5.960
 4991POPC   C1A64815   1.258  27.420   6.279
 4991POPC   D2A64816   1.401  27.733   6.577
 4991POPC   C3A64817   1.328  27.625   6.993
 4991POPC   C4A64818   1.487  27.246   7.188
 4991POPC   C1B64819   0.923  27.783   6.406
 4991POPC   C2B64820   0.896  27.418   6.662
 4991POPC   C3B64821   0.848  27.422   7.075
 4991POPC   C4B64822   0.902  27.843   7.210
 4992POPC   NC364823  28.698  17.475   5.537
 4992POPC   PO464824  29.307  17.426   5.309
 4992POPC   GL164825  29.314  17.413   5.753
 4992POPC   GL264826  29.093  17.696   5.812
 4992POPC   C1A64827  29.410  17.515   6.180
 4992POPC   D2A64828  29.167  17.727   6.490
 4992POPC   C3A64829  29.328  17.706   6.912
 4992POPC   C4A64830  29.424  17.309   7.080
 4992POPC   C1B64831  28.773  17.709   6.153
 4992POPC   C2B64832  28.603  17.727   6.572
 4992POPC   C3B64833  28.842  17.574   6.934
 4992POPC   C4B64834  28.967  17.805   7.287
 4993POPC   NC364835  32.735  33.572   5.323
 4993POPC   PO464836  33.145  34.142   5.467
 4993POPC   GL164837  32.967  33.874   5.747
 4993POPC   GL264838  32.604  33.922   5.722
 4993POPC   C1A64839  33.112  33.680   6.123
 4993POPC   D2A64840  33.193  33.570   6.519
 4993POPC   C3A64841  33.281  33.728   6.913
 4993POPC   C4A64842  33.240  33.534   7.295
 4993POPC   C1B64843  32.630  33.569   6.009
 4993POPC   C2B64844  32.688  33.592   6.450
 4993POPC   C3B64845  32.843  33.481   6.892
 4993POPC   C4B64846  32.851  33.843   7.195
 4994POPC   NC364847  24.250  35.897   5.509
 4994POPC   PO464848  24.534  36.489   5.500
 4994POPC   GL164849  24.696  36.239   5.865
 4994POPC   GL264850  25.021  36.040   5.853
 4994POPC   C1A64851  24.536  36.251   6.291
 4994POPC   D2A64852  24.418  36.430   6.701
 4994POPC   C3A64853  24.512  36.282   7.126
 4994POPC   C4A64854  24.777  36.444   7.464
 4994POPC   C1B64855  24.769  35.782   6.160
 4994POPC   C2B64856  24.335  35.777   6.340
 4994POPC   C3B64857  24.198  35.559   6.703
 4994POPC   C4B64858  24.276  35.663   7.135
 4995POPC   NC364859  25.551  32.397   5.497
 4995POPC   PO464860  25.030  32.156   5.592
 4995POPC   GL164861  25.125  32.604   5.774
 4995POPC   GL264862  25.463  32.738   5.868
 4995POPC   C1A64863  25.070  32.784   6.210
 4995POPC   D2A64864  25.320  32.711   6.601
 4995POPC   C3A64865  25.177  32.413   6.927
 4995POPC   C4A64866  24.981  32.239   7.313
 4995POPC   C1B64867  25.356  32.382   6.177
 4995POPC   C2B64868  25.556  32.256   6.561
 4995POPC   C3B64869  25.705  32.399   6.974
 4995POPC   C4B64870  25.814  32.208   7.400
 4996POPC   NC364871  19.457  23.948   5.343
 4996POPC   PO464872  20.199  23.815   5.240
 4996POPC   GL164873  20.123  23.736   5.682
 4996POPC   GL264874  19.782  23.780   5.717
 4996POPC   C1A64875  20.156  23.722   6.140
 4996POPC   D2A64876  20.001  23.927   6.517
 4996POPC   C3A64877  19.957  23.636   6.883
 4996POPC   C4A64878  20.042  23.744   7.315
 4996POPC   C1B64879  19.644  23.764   6.154
 4996POPC   C2B64880  19.529  23.751   6.597
 4996POPC   C3B64881  19.443  23.591   7.004
 4996POPC   C4B64882  19.549  23.722   7.418
 4997POPC   NC364883  24.464  34.529   5.327
 4997POPC   PO464884  24.895  35.046   5.379
 4997POPC   GL164885  24.563  34.877   5.692
 4997POPC   GL264886  24.782  34.642   5.755
 4997POPC   C1A64887  24.339  34.779   6.090
 4997POPC   D2A64888  24.308  34.484   6.450
 4997POPC   C3A64889  24.361  34.558   6.912
 4997POPC   C4A64890  24.413  34.277   7.296
 4997POPC   C1B64891  24.755  34.438   6.151
 4997POPC   C2B64892  24.819  34.464   6.594
 4997POPC   C3B64893  24.887  34.340   7.036
 4997POPC   C4B64894  24.889  34.303   7.494
 4998POPC   NC364895   2.870   9.410   5.345
 4998POPC   PO464896   3.069  10.023   5.184
 4998POPC   GL164897   2.956   9.831   5.667
 4998POPC   GL264898   2.914   9.446   5.875
 4998POPC   C1A64899   2.691   9.833   6.085
 4998POPC   D2A64900   2.721   9.669   6.519
 4998POPC   C3A64901   2.768   9.942   6.871
 4998POPC   C4A64902   2.618   9.951   7.292
 4998POPC   C1B64903   3.225   9.306   6.210
 4998POPC   C2B64904   3.307   9.293   6.654
 4998POPC   C3B64905   3.058   9.507   6.953
 4998POPC   C4B64906   3.047   9.439   7.372
 4999POPC   NC364907  44.984  14.891   5.434
 4999POPC   PO464908  44.527  15.373   5.473
 4999POPC   GL164909  44.671  15.138   5.791
 4999POPC   GL264910  44.982  15.322   5.749
 4999POPC   C1A64911  44.897  15.055   6.183
 4999POPC   D2A64912  44.937  14.967   6.629
 4999POPC   C3A64913  44.810  15.087   7.065
 4999POPC   C4A64914  44.890  14.912   7.493
 4999POPC   C1B64915  44.777  15.546   6.091
 4999POPC   C2B64916  44.818  15.456   6.504
 4999POPC   C3B64917  44.674  15.543   6.887
 4999POPC   C4B64918  44.684  15.549   7.283
 5000POPC   NC364919  44.228  37.169   5.471
 5000POPC   PO464920  44.848  36.841   5.430
 5000POPC   GL164921  44.679  36.983   5.765
 5000POPC   GL264922  44.667  37.328   5.741
 5000POPC   C1A64923  44.696  36.906   6.176
 5000POPC   D2A64924  44.938  37.042   6.516
 5000POPC   C3A64925  44.708  36.875   6.887
 5000POPC   C4A64926  44.798  36.706   7.295
 5000POPC   C1B64927  44.691  37.420   6.189
 5000POPC   C2B64928  44.467  37.236   6.525
 5000POPC   C3B64929  44.387  37.267   6.935
 5000POPC   C4B64930  44.473  37.087   7.323
 5001POPC   NC364931  10.919  29.366   5.443
 5001POPC   PO464932  11.551  29.085   5.393
 5001POPC   GL164933  11.343  29.119   5.777
 5001POPC   GL264934  11.122  28.868   5.875
 5001POPC   C1A64935  11.504  29.219   6.189
 5001POPC   D2A64936  11.389  29.263   6.600
 5001POPC   C3A64937  11.232  28.967   6.878
 5001POPC   C4A64938  11.461  29.023   7.251
 5001POPC   C1B64939  11.009  29.135   6.186
 5001POPC   C2B64940  10.877  29.227   6.589
 5001POPC   C3B64941  10.866  29.414   6.992
 5001POPC   C4B64942  11.089  29.384   7.368
 5002POPC   NC364943  19.731   5.690   5.486
 5002POPC   PO464944  20.160   6.256   5.413
 5002POPC   GL164945  20.227   5.946   5.753
 5002POPC   GL264946  20.241   5.604   5.634
 5002POPC   C1A64947  20.046   5.941   6.175
 5002POPC   D2A64948  19.948   5.989   6.637
 5002POPC   C3A64949  19.613   5.878   6.871
 5002POPC   C4A64950  19.509   5.648   7.222
 5002POPC   C1B64951  20.251   5.468   6.070
 5002POPC   C2B64952  20.332   5.388   6.534
 5002POPC   C3B64953  20.176   5.534   6.947
 5002POPC   C4B64954  20.042   5.918   7.173
 5003POPC   NC364955  34.328  10.052   5.443
 5003POPC   PO464956  33.676   9.842   5.219
 5003POPC   GL164957  33.899   9.818   5.678
 5003POPC   GL264958  33.906  10.017   5.948
 5003POPC   C1A64959  33.992   9.547   6.087
 5003POPC   D2A64960  34.007   9.845   6.451
 5003POPC   C3A64961  34.114   9.841   6.897
 5003POPC   C4A64962  33.935   9.606   7.243
 5003POPC   C1B64963  33.541   9.765   6.113
 5003POPC   C2B64964  33.542   9.563   6.504
 5003POPC   C3B64965  33.615   9.849   6.823
 5003POPC   C4B64966  33.758  10.087   7.187
 5004POPC   NC364967  16.229  36.883   5.298
 5004POPC   PO464968  15.624  36.625   5.308
 5004POPC   GL164969  15.872  36.814   5.683
 5004POPC   GL264970  16.184  36.612   5.762
 5004POPC   C1A64971  15.849  37.062   6.091
 5004POPC   D2A64972  15.806  37.040   6.569
 5004POPC   C3A64973  16.052  37.063   6.986
 5004POPC   C4A64974  16.465  36.987   7.187
 5004POPC   C1B64975  15.994  36.587   6.184
 5004POPC   C2B64976  16.153  36.660   6.608
 5004POPC   C3B64977  16.175  36.559   7.043
 5004POPC   C4B64978  15.859  36.661   7.357
 5005POPC   NC364979   7.128  40.279   5.015
 5005POPC   PO464980   7.708  40.241   5.387
 5005POPC   GL164981   7.583  40.125   5.790
 5005POPC   GL264982   7.282  40.125   5.952
 5005POPC   C1A64983   7.688  39.967   6.203
 5005POPC   D2A64984   7.547  39.835   6.574
 5005POPC   C3A64985   7.593  40.013   6.932
 5005POPC   C4A64986   7.248  40.120   7.155
 5005POPC   C1B64987   7.228  39.734   6.186
 5005POPC   C2B64988   7.101  39.517   6.584
 5005POPC   C3B64989   7.244  39.637   6.997
 5005POPC   C4B64990   7.158  39.719   7.463
 5006POPC   NC364991  30.185  12.806   5.513
 5006POPC   PO464992  29.619  13.144   5.445
 5006POPC   GL164993  29.714  12.932   5.820
 5006POPC   GL264994  30.034  12.891   5.981
 5006POPC   C1A64995  29.593  12.714   6.181
 5006POPC   D2A64996  29.824  12.600   6.525
 5006POPC   C3A64997  29.699  12.844   6.887
 5006POPC   C4A64998  29.922  12.968   7.250
 5006POPC   C1B64999  30.302  12.570   6.200
 5006POPC   C2B65000  30.341  12.504   6.596
 5006POPC   C3B65001  30.114  12.538   6.939
 5006POPC   C4B65002  30.225  12.468   7.291
 5007POPC   NC365003   5.441  43.923   5.241
 5007POPC   PO465004   5.066  44.290   5.628
 5007POPC   GL165005   5.293  44.086   5.947
 5007POPC   GL265006   5.476  43.815   5.791
 5007POPC   C1A65007   5.097  43.879   6.334
 5007POPC   D2A65008   4.980  43.579   6.681
 5007POPC   C3A65009   4.783  43.688   7.068
 5007POPC   C4A65010   4.846  43.796   7.546
 5007POPC   C1B65011   5.559  43.703   6.227
 5007POPC   C2B65012   5.510  43.890   6.651
 5007POPC   C3B65013   5.192  43.987   6.940
 5007POPC   C4B65014   5.253  43.679   7.263
 5008POPC   NC365015  38.903   1.430   5.034
 5008POPC   PO465016  39.423   1.481   5.566
 5008POPC   GL165017  39.171   1.254   5.846
 5008POPC   GL265018  39.204   0.896   5.837
 5008POPC   C1A65019  39.209   1.224   6.288
 5008POPC   D2A65020  39.453   1.392   6.614
 5008POPC   C3A65021  39.327   1.198   6.957
 5008POPC   C4A65022  39.223   1.293   7.341
 5008POPC   C1B65023  39.122   0.719   6.240
 5008POPC   C2B65024  38.964   0.863   6.664
 5008POPC   C3B65025  38.959   0.881   7.122
 5008POPC   C4B65026  39.006   0.908   7.612
 5009POPC   NC365027   6.353   2.300   5.485
 5009POPC   PO465028   5.860   1.863   5.464
 5009POPC   GL165029   6.098   1.984   5.804
 5009POPC   GL265030   5.805   2.146   5.948
 5009POPC   C1A65031   6.196   1.981   6.229
 5009POPC   D2A65032   5.948   2.242   6.493
 5009POPC   C3A65033   6.043   2.227   6.900
 5009POPC   C4A65034   6.001   1.882   7.168
 5009POPC   C1B65035   5.700   1.838   6.264
 5009POPC   C2B65036   5.769   1.804   6.701
 5009POPC   C3B65037   5.510   1.911   7.028
 5009POPC   C4B65038   5.217   1.612   7.188
 5010POPC   NC365039  20.803  23.631   5.338
 5010POPC   PO465040  20.495  24.092   5.678
 5010POPC   GL165041  20.687  23.735   5.819
 5010POPC   GL265042  21.000  23.940   5.758
 5010POPC   C1A65043  20.617  23.503   6.211
 5010POPC   D2A65044  20.464  23.741   6.573
 5010POPC   C3A65045  20.459  23.645   6.992
 5010POPC   C4A65046  20.744  23.500   7.263
 5010POPC   C1B65047  20.941  23.934   6.204
 5010POPC   C2B65048  20.965  23.653   6.549
 5010POPC   C3B65049  20.990  23.783   6.930
 5010POPC   C4B65050  20.720  24.073   7.151
 5011POPC   NC365051  33.742  26.158   5.339
 5011POPC   PO465052  34.257  25.745   5.349
 5011POPC   GL165053  33.903  25.810   5.714
 5011POPC   GL265054  33.906  26.192   5.831
 5011POPC   C1A65055  33.604  25.893   6.120
 5011POPC   D2A65056  33.359  26.005   6.539
 5011POPC   C3A65057  33.630  25.972   6.906
 5011POPC   C4A65058  33.943  25.885   7.200
 5011POPC   C1B65059  34.125  26.350   6.227
 5011POPC   C2B65060  34.148  26.482   6.670
 5011POPC   C3B65061  33.914  26.384   7.059
 5011POPC   C4B65062  34.063  26.300   7.492
 5012POPC   NC365063  33.357  15.841   4.957
 5012POPC   PO465064  32.715  15.823   5.436
 5012POPC   GL165065  32.894  15.753   5.812
 5012POPC   GL265066  33.257  15.822   5.725
 5012POPC   C1A65067  32.866  15.841   6.245
 5012POPC   D2A65068  32.695  15.994   6.609
 5012POPC   C3A65069  32.934  15.983   6.991
 5012POPC   C4A65070  32.953  16.341   7.253
 5012POPC   C1B65071  33.304  16.092   6.123
 5012POPC   C2B65072  33.258  16.147   6.590
 5012POPC   C3B65073  33.405  16.191   7.035
 5012POPC   C4B65074  33.471  16.002   7.438
 5013POPC   NC365075   8.563   8.071   5.390
 5013POPC   PO465076   9.118   8.445   5.497
 5013POPC   GL165077   8.919   8.326   5.841
 5013POPC   GL265078   8.608   8.445   5.757
 5013POPC   C1A65079   9.037   8.321   6.281
 5013POPC   D2A65080   9.218   8.288   6.675
 5013POPC   C3A65081   8.950   8.203   6.993
 5013POPC   C4A65082   9.033   7.813   7.115
 5013POPC   C1B65083   8.560   8.497   6.201
 5013POPC   C2B65084   8.690   8.535   6.642
 5013POPC   C3B65085   8.679   8.632   7.088
 5013POPC   C4B65086   8.883   8.524   7.492
 5014POPC   NC365087  24.272   4.044   5.439
 5014POPC   PO465088  24.746   4.507   5.401
 5014POPC   GL165089  24.480   4.357   5.776
 5014POPC   GL265090  24.431   4.001   5.926
 5014POPC   C1A65091  24.355   4.460   6.185
 5014POPC   D2A65092  24.220   4.450   6.605
 5014POPC   C3A65093  24.437   4.567   6.920
 5014POPC   C4A65094  24.492   4.565   7.286
 5014POPC   C1B65095  24.405   3.984   6.385
 5014POPC   C2B65096  24.138   3.968   6.754
 5014POPC   C3B65097  24.247   4.140   7.149
 5014POPC   C4B65098  24.176   4.104   7.587
 5015POPC   NC365099  33.118  10.976   5.459
 5015POPC   PO465100  33.185  10.361   5.378
 5015POPC   GL165101  32.884  10.404   5.757
 5015POPC   GL265102  32.852  10.760   5.885
 5015POPC   C1A65103  32.684  10.363   6.194
 5015POPC   D2A65104  32.863  10.572   6.567
 5015POPC   C3A65105  32.866  10.391   6.990
 5015POPC   C4A65106  32.917  10.268   7.434
 5015POPC   C1B65107  33.220  10.683   6.144
 5015POPC   C2B65108  33.411  10.723   6.565
 5015POPC   C3B65109  33.166  10.866   6.924
 5015POPC   C4B65110  32.862  10.799   7.277
 5016POPC   NC365111   3.046  12.780   5.468
 5016POPC   PO465112   2.394  12.430   5.492
 5016POPC   GL165113   2.663  12.623   5.789
 5016POPC   GL265114   2.946  12.450   5.888
 5016POPC   C1A65115   2.769  12.917   6.131
 5016POPC   D2A65116   2.613  13.120   6.511
 5016POPC   C3A65117   2.711  13.110   6.952
 5016POPC   C4A65118   2.672  13.086   7.411
 5016POPC   C1B65119   2.963  12.502   6.369
 5016POPC   C2B65120   2.684  12.611   6.724
 5016POPC   C3B65121   2.772  12.655   7.163
 5016POPC   C4B65122   3.113  12.873   7.285
 5017POPC   NC365123  35.298   8.581   4.954
 5017POPC   PO465124  35.220   8.130   5.421
 5017POPC   GL165125  35.328   7.880   5.798
 5017POPC   GL265126  35.712   7.890   5.822
 5017POPC   C1A65127  35.225   7.880   6.242
 5017POPC   D2A65128  35.319   8.125   6.583
 5017POPC   C3A65129  35.132   8.025   6.975
 5017POPC   C4A65130  35.260   8.264   7.329
 5017POPC   C1B65131  35.715   8.108   6.183
 5017POPC   C2B65132  35.833   8.017   6.579
 5017POPC   C3B65133  35.639   8.036   6.988
 5017POPC   C4B65134  35.651   7.941   7.423
 5018POPC   NC365135   8.815  13.365   5.496
 5018POPC   PO465136   9.098  13.956   5.520
 5018POPC   GL165137   8.998  13.714   5.915
 5018POPC   GL265138   9.001  13.331   5.970
 5018POPC   C1A65139   9.041  13.754   6.368
 5018POPC   D2A65140   8.920  13.603   6.769
 5018POPC   C3A65141   8.951  13.842   7.139
 5018POPC   C4A65142   9.067  13.807   7.566
 5018POPC   C1B65143   8.671  13.215   6.242
 5018POPC   C2B65144   8.672  13.126   6.660
 5018POPC   C3B65145   8.580  13.293   7.041
 5018POPC   C4B65146   8.466  13.055   7.375
 5019POPC   NC365147  42.187   5.819   5.124
 5019POPC   PO465148  42.666   6.170   5.483
 5019POPC   GL165149  42.359   6.023   5.782
 5019POPC   GL265150  42.037   6.205   5.868
 5019POPC   C1A65151  42.278   5.878   6.198
 5019POPC   D2A65152  42.100   5.823   6.629
 5019POPC   C3A65153  42.397   5.588   6.889
 5019POPC   C4A65154  42.685   5.486   7.206
 5019POPC   C1B65155  42.197   6.378   6.233
 5019POPC   C2B65156  42.389   6.235   6.590
 5019POPC   C3B65157  42.317   6.114   7.030
 5019POPC   C4B65158  42.356   6.206   7.483
 5020POPC   NC365159  42.561   3.228   5.167
 5020POPC   PO465160  42.224   3.633   5.601
 5020POPC   GL165161  42.550   3.529   5.895
 5020POPC   GL265162  42.705   3.195   5.936
 5020POPC   C1A65163  42.499   3.560   6.324
 5020POPC   D2A65164  42.590   3.483   6.753
 5020POPC   C3A65165  42.343   3.602   7.102
 5020POPC   C4A65166  42.304   3.767   7.509
 5020POPC   C1B65167  42.445   3.052   6.311
 5020POPC   C2B65168  42.357   3.031   6.764
 5020POPC   C3B65169  42.546   3.130   7.131
 5020POPC   C4B65170  42.580   3.345   7.499
 5021POPC   NC365171  23.348   6.472   5.524
 5021POPC   PO465172  22.840   6.929   5.404
 5021POPC   GL165173  22.991   6.924   5.796
 5021POPC   GL265174  22.968   6.573   5.892
 5021POPC   C1A65175  22.788   6.968   6.208
 5021POPC   D2A65176  22.888   6.813   6.605
 5021POPC   C3A65177  22.741   6.915   7.008
 5021POPC   C4A65178  22.718   6.573   7.288
 5021POPC   C1B65179  23.272   6.759   6.187
 5021POPC   C2B65180  23.377   6.648   6.595
 5021POPC   C3B65181  23.166   6.565   6.979
 5021POPC   C4B65182  23.213   6.498   7.401
 5022POPC   NC365183  39.351  10.020   5.525
 5022POPC   PO465184  39.183   9.408   5.415
 5022POPC   GL165185  39.261   9.600   5.816
 5022POPC   GL265186  38.942   9.635   5.967
 5022POPC   C1A65187  39.420   9.868   6.172
 5022POPC   D2A65188  39.429   9.768   6.624
 5022POPC   C3A65189  39.216   9.885   7.004
 5022POPC   C4A65190  39.407   9.705   7.444
 5022POPC   C1B65191  38.961   9.784   6.398
 5022POPC   C2B65192  39.031   9.467   6.717
 5022POPC   C3B65193  38.935   9.481   7.146
 5022POPC   C4B65194  38.938   9.883   7.419
 5023POPC   NC365195  39.991  19.399   5.321
 5023POPC   PO465196  40.056  18.753   5.319
 5023POPC   GL165197  39.861  19.002   5.676
 5023POPC   GL265198  40.146  19.061   5.899
 5023POPC   C1A65199  39.675  18.877   6.078
 5023POPC   D2A65200  39.876  18.948   6.459
 5023POPC   C3A65201  39.704  18.926   6.844
 5023POPC   C4A65202  39.944  18.976   7.188
 5023POPC   C1B65203  40.330  18.819   6.263
 5023POPC   C2B65204  40.246  18.624   6.690
 5023POPC   C3B65205  40.290  18.594   7.158
 5023POPC   C4B65206  40.309  18.867   7.520
 5024POPC   NC365207   7.753   5.502   5.637
 5024POPC   PO465208   7.616   5.819   5.117
 5024POPC   GL165209   7.419   5.876   5.601
 5024POPC   GL265210   7.510   6.109   5.818
 5024POPC   C1A65211   7.442   5.708   6.131
 5024POPC   D2A65212   7.580   5.517   6.549
 5024POPC   C3A65213   7.456   5.655   6.976
 5024POPC   C4A65214   7.432   5.565   7.427
 5024POPC   C1B65215   7.339   6.204   6.185
 5024POPC   C2B65216   7.522   6.044   6.563
 5024POPC   C3B65217   7.556   6.170   6.956
 5024POPC   C4B65218   7.518   6.064   7.342
 5025POPC   NC365219   9.234   6.369   5.427
 5025POPC   PO465220   9.133   7.039   5.486
 5025POPC   GL165221   8.792   6.849   5.757
 5025POPC   GL265222   8.837   6.475   5.745
 5025POPC   C1A65223   8.678   6.666   6.178
 5025POPC   D2A65224   8.959   6.656   6.516
 5025POPC   C3A65225   8.789   6.714   6.909
 5025POPC   C4A65226   8.953   6.853   7.263
 5025POPC   C1B65227   9.111   6.348   6.103
 5025POPC   C2B65228   9.096   6.157   6.528
 5025POPC   C3B65229   9.076   6.289   6.959
 5025POPC   C4B65230   9.248   6.102   7.319
 5026POPC   NC365231  24.393  22.773   5.183
 5026POPC   PO465232  24.373  23.480   5.304
 5026POPC   GL165233  24.545  23.207   5.756
 5026POPC   GL265234  24.679  22.880   5.653
 5026POPC   C1A65235  24.345  23.064   6.184
 5026POPC   D2A65236  24.336  22.835   6.578
 5026POPC   C3A65237  24.308  23.082   6.950
 5026POPC   C4A65238  24.241  23.334   7.288
 5026POPC   C1B65239  24.790  22.826   6.109
 5026POPC   C2B65240  24.896  22.799   6.563
 5026POPC   C3B65241  24.703  22.737   6.989
 5026POPC   C4B65242  24.454  22.820   7.381
 5027POPC   NC365243   5.272  21.209   5.545
 5027POPC   PO465244   4.847  21.664   5.542
 5027POPC   GL165245   5.008  21.502   5.887
 5027POPC   GL265246   4.876  21.229   5.860
 5027POPC   C1A65247   5.242  21.623   6.247
 5027POPC   D2A65248   5.409  21.730   6.632
 5027POPC   C3A65249   5.068  21.669   6.862
 5027POPC   C4A65250   5.088  21.584   7.261
 5027POPC   C1B65251   5.079  21.101   6.209
 5027POPC   C2B65252   5.129  21.238   6.605
 5027POPC   C3B65253   4.953  21.177   6.999
 5027POPC   C4B65254   5.120  21.056   7.379
 5028POPC   NC365255   7.688  41.452   5.607
 5028POPC   PO465256   7.250  41.691   5.146
 5028POPC   GL165257   7.072  41.619   5.653
 5028POPC   GL265258   7.311  41.483   5.931
 5028POPC   C1A65259   6.913  41.688   6.112
 5028POPC   D2A65260   7.118  41.456   6.471
 5028POPC   C3A65261   7.128  41.549   6.921
 5028POPC   C4A65262   7.125  41.335   7.333
 5028POPC   C1B65263   7.608  41.521   6.302
 5028POPC   C2B65264   7.562  41.278   6.696
 5028POPC   C3B65265   7.607  41.461   7.106
 5028POPC   C4B65266   7.847  41.862   7.189
 5029POPC   NC365267  22.616  33.622   5.429
 5029POPC   PO465268  23.191  34.059   5.387
 5029POPC   GL165269  22.911  33.938   5.732
 5029POPC   GL265270  22.584  34.085   5.691
 5029POPC   C1A65271  22.972  33.801   6.163
 5029POPC   D2A65272  22.797  33.851   6.558
 5029POPC   C3A65273  22.994  33.846   6.939
 5029POPC   C4A65274  22.915  33.602   7.254
 5029POPC   C1B65275  22.494  34.045   6.148
 5029POPC   C2B65276  22.334  34.021   6.590
 5029POPC   C3B65277  22.487  33.936   7.010
 5029POPC   C4B65278  22.753  34.096   7.342
 5030POPC   NC365279  29.609  13.617   5.536
 5030POPC   PO465280  30.258  13.839   5.289
 5030POPC   GL165281  30.102  13.726   5.708
 5030POPC   GL265282  30.040  13.347   5.693
 5030POPC   C1A65283  29.975  13.855   6.159
 5030POPC   D2A65284  29.699  13.722   6.519
 5030POPC   C3A65285  29.884  13.882   6.900
 5030POPC   C4A65286  30.134  13.905   7.257
 5030POPC   C1B65287  29.844  13.351   6.110
 5030POPC   C2B65288  29.800  13.168   6.504
 5030POPC   C3B65289  29.839  13.362   6.924
 5030POPC   C4B65290  29.806  13.525   7.348
 5031POPC   NC365291  16.227  40.029   5.593
 5031POPC   PO465292  15.628  40.333   5.664
 5031POPC   GL165293  15.789  39.950   5.901
 5031POPC   GL265294  15.984  39.638   5.824
 5031POPC   C1A65295  16.092  39.986   6.244
 5031POPC   D2A65296  15.992  40.214   6.600
 5031POPC   C3A65297  16.042  40.053   6.988
 5031POPC   C4A65298  15.739  40.094   7.332
 5031POPC   C1B65299  15.859  39.539   6.257
 5031POPC   C2B65300  15.739  39.752   6.622
 5031POPC   C3B65301  15.670  39.676   7.021
 5031POPC   C4B65302  15.953  39.633   7.312
 5032POPC   NC365303  36.581   5.683   5.295
 5032POPC   PO465304  37.096   5.993   5.295
 5032POPC   GL165305  36.949   5.793   5.662
 5032POPC   GL265306  37.039   6.107   5.810
 5032POPC   C1A65307  36.734   5.794   6.077
 5032POPC   D2A65308  36.671   5.928   6.496
 5032POPC   C3A65309  36.743   5.741   6.899
 5032POPC   C4A65310  36.635   5.916   7.289
 5032POPC   C1B65311  37.171   6.151   6.227
 5032POPC   C2B65312  37.166   6.036   6.658
 5032POPC   C3B65313  37.169   6.035   7.102
 5032POPC   C4B65314  37.083   5.783   7.451
 5033POPC   NC365315  39.447   2.646   5.407
 5033POPC   PO465316  39.513   3.249   5.626
 5033POPC   GL165317  39.233   3.071   5.891
 5033POPC   GL265318  39.143   2.725   5.861
 5033POPC   C1A65319  39.339   2.942   6.297
 5033POPC   D2A65320  39.106   2.806   6.632
 5033POPC   C3A65321  39.117   2.996   6.980
 5033POPC   C4A65322  39.265   2.880   7.360
 5033POPC   C1B65323  39.030   2.490   6.237
 5033POPC   C2B65324  39.074   2.299   6.669
 5033POPC   C3B65325  39.342   2.469   7.002
 5033POPC   C4B65326  39.606   2.778   6.962
 5034POPC   NC365327  38.865  23.462   5.459
 5034POPC   PO465328  38.707  24.054   5.206
 5034POPC   GL165329  38.463  23.799   5.587
 5034POPC   GL265330  38.350  23.440   5.644
 5034POPC   C1A65331  38.455  23.893   6.075
 5034POPC   D2A65332  38.685  23.874   6.492
 5034POPC   C3A65333  38.624  23.689   6.908
 5034POPC   C4A65334  38.559  23.934   7.273
 5034POPC   C1B65335  38.498  23.389   6.086
 5034POPC   C2B65336  38.551  23.328   6.534
 5034POPC   C3B65337  38.324  23.260   6.918
 5034POPC   C4B65338  38.391  23.450   7.331
 5035POPC   NC365339   4.591  13.059   5.375
 5035POPC   PO465340   4.325  12.461   5.331
 5035POPC   GL165341   4.268  12.591   5.756
 5035POPC   GL265342   4.177  12.933   5.698
 5035POPC   C1A65343   4.345  12.515   6.202
 5035POPC   D2A65344   4.234  12.368   6.606
 5035POPC   C3A65345   4.381  12.574   6.938
 5035POPC   C4A65346   4.309  12.743   7.323
 5035POPC   C1B65347   4.399  13.009   6.070
 5035POPC   C2B65348   4.472  12.914   6.528
 5035POPC   C3B65349   4.424  13.083   6.963
 5035POPC   C4B65350   4.329  13.241   7.387
 5036POPC   NC365351  10.213  28.968   5.381
 5036POPC   PO465352  10.877  28.839   5.435
 5036POPC   GL165353  10.643  29.130   5.799
 5036POPC   GL265354  10.254  29.145   5.850
 5036POPC   C1A65355  10.548  29.339   6.205
 5036POPC   D2A65356  10.380  29.153   6.586
 5036POPC   C3A65357  10.603  28.960   6.935
 5036POPC   C4A65358  10.590  29.121   7.343
 5036POPC   C1B65359  10.028  29.365   6.209
 5036POPC   C2B65360  10.082  29.546   6.645
 5036POPC   C3B65361  10.347  29.450   7.032
 5036POPC   C4B65362  10.174  29.355   7.459
 5037POPC   NC365363   7.756  11.273   5.123
 5037POPC   PO465364   8.418  11.529   5.160
 5037POPC   GL165365   8.468  11.465   5.678
 5037POPC   GL265366   8.177  11.222   5.769
 5037POPC   C1A65367   8.519  11.242   6.143
 5037POPC   D2A65368   8.268  11.189   6.585
 5037POPC   C3A65369   8.334  10.996   7.036
 5037POPC   C4A65370   8.170  11.010   7.469
 5037POPC   C1B65371   8.048  11.413   6.173
 5037POPC   C2B65372   8.090  11.729   6.468
 5037POPC   C3B65373   8.149  11.634   6.868
 5037POPC   C4B65374   8.006  11.404   7.188
 5038POPC   NC365375  36.898   7.964   5.458
 5038POPC   PO465376  36.507   8.478   5.526
 5038POPC   GL165377  36.660   8.371   5.912
 5038POPC   GL265378  37.007   8.322   5.854
 5038POPC   C1A65379  36.753   8.034   6.213
 5038POPC   D2A65380  36.945   7.982   6.607
 5038POPC   C3A65381  36.740   7.925   6.992
 5038POPC   C4A65382  37.063   7.982   7.271
 5038POPC   C1B65383  37.122   8.397   6.288
 5038POPC   C2B65384  36.913   8.494   6.686
 5038POPC   C3B65385  36.821   8.410   7.124
 5038POPC   C4B65386  37.007   8.417   7.540
 5039POPC   NC365387  25.432   9.600   5.591
 5039POPC   PO465388  24.954  10.053   5.471
 5039POPC   GL165389  25.080   9.906   5.881
 5039POPC   GL265390  25.047   9.542   5.892
 5039POPC   C1A65391  25.306  10.020   6.281
 5039POPC   D2A65392  25.440   9.847   6.683
 5039POPC   C3A65393  25.223   9.881   7.090
 5039POPC   C4A65394  25.330   9.901   7.529
 5039POPC   C1B65395  25.287   9.502   6.264
 5039POPC   C2B65396  25.437   9.342   6.662
 5039POPC   C3B65397  25.528   9.474   7.080
 5039POPC   C4B65398  25.234   9.414   7.449
 5040POPC   NC365399  33.480  24.651   5.560
 5040POPC   PO465400  33.961  24.209   5.539
 5040POPC   GL165401  33.847  24.457   5.888
 5040POPC   GL265402  33.494  24.427   6.012
 5040POPC   C1A65403  34.130  24.582   6.229
 5040POPC   D2A65404  34.148  24.753   6.641
 5040POPC   C3A65405  33.899  24.452   6.892
 5040POPC   C4A65406  33.963  24.291   7.289
 5040POPC   C1B65407  33.282  24.752   6.267
 5040POPC   C2B65408  33.267  24.855   6.696
 5040POPC   C3B65409  33.331  24.566   7.057
 5040POPC   C4B65410  33.583  24.603   7.420
 5041POPC   NC365411  14.960  32.195   5.376
 5041POPC   PO465412  15.447  32.555   4.989
 5041POPC   GL165413  15.412  32.251   5.550
 5041POPC   GL265414  15.582  31.983   5.783
 5041POPC   C1A65415  15.217  32.307   6.014
 5041POPC   D2A65416  14.981  32.503   6.379
 5041POPC   C3A65417  15.127  32.498   6.810
 5041POPC   C4A65418  15.096  32.376   7.263
 5041POPC   C1B65419  15.647  32.135   6.219
 5041POPC   C2B65420  15.532  32.286   6.589
 5041POPC   C3B65421  15.508  32.185   6.998
 5041POPC   C4B65422  15.548  32.168   7.401
 5042POPC   NC365423  30.958  22.791   5.404
 5042POPC   PO465424  30.415  23.264   5.463
 5042POPC   GL165425  30.676  23.080   5.783
 5042POPC   GL265426  30.607  22.742   5.814
 5042POPC   C1A65427  30.549  22.978   6.243
 5042POPC   D2A65428  30.774  23.051   6.585
 5042POPC   C3A65429  30.722  22.850   6.957
 5042POPC   C4A65430  30.730  22.983   7.363
 5042POPC   C1B65431  30.799  22.528   6.180
 5042POPC   C2B65432  31.006  22.597   6.578
 5042POPC   C3B65433  30.938  22.382   6.980
 5042POPC   C4B65434  30.736  22.471   7.370
 5043POPC   NC365435  15.424  21.916   5.031
 5043POPC   PO465436  15.085  22.302   5.285
 5043POPC   GL165437  15.090  22.263   5.775
 5043POPC   GL265438  15.233  21.932   5.896
 5043POPC   C1A65439  15.166  22.281   6.269
 5043POPC   D2A65440  15.168  22.061   6.700
 5043POPC   C3A65441  15.164  22.295   7.119
 5043POPC   C4A65442  14.905  22.414   7.536
 5043POPC   C1B65443  15.280  21.709   6.325
 5043POPC   C2B65444  15.505  21.622   6.737
 5043POPC   C3B65445  15.474  21.771   7.178
 5043POPC   C4B65446  15.529  21.873   7.655
 5044POPC   NC365447   0.954  44.833   5.403
 5044POPC   PO465448   1.561  44.551   5.267
 5044POPC   GL165449   1.651  44.653   5.712
 5044POPC   GL265450   1.707   0.022   5.716
 5044POPC   C1A65451   1.449  44.503   6.125
 5044POPC   D2A65452   1.095  44.495   6.452
 5044POPC   C3A65453   1.161  44.671   6.872
 5044POPC   C4A65454   0.985  44.831   7.236
 5044POPC   C1B65455   1.563   0.072   6.165
 5044POPC   C2B65456   1.541  44.815   6.523
 5044POPC   C3B65457   1.664  44.669   6.905
 5044POPC   C4B65458   1.495  44.697   7.346
 5045POPC   NC365459  19.950  34.083   5.037
 5045POPC   PO465460  19.643  33.660   5.451
 5045POPC   GL165461  19.842  33.752   5.846
 5045POPC   GL265462  20.191  33.849   5.821
 5045POPC   C1A65463  19.798  33.751   6.293
 5045POPC   D2A65464  19.535  33.505   6.573
 5045POPC   C3A65465  19.699  33.730   6.907
 5045POPC   C4A65466  19.604  33.882   7.274
 5045POPC   C1B65467  20.163  34.101   6.219
 5045POPC   C2B65468  20.036  34.054   6.680
 5045POPC   C3B65469  20.145  33.883   7.116
 5045POPC   C4B65470  20.208  33.652   7.504
 5046POPC   NC365471  39.804  32.732   5.484
 5046POPC   PO465472  39.172  32.855   5.329
 5046POPC   GL165473  39.348  32.892   5.768
 5046POPC   GL265474  39.050  33.077   5.890
 5046POPC   C1A65475  39.420  33.051   6.210
 5046POPC   D2A65476  39.373  33.373   6.522
 5046POPC   C3A65477  39.251  33.194   6.914
 5046POPC   C4A65478  39.212  32.885   7.279
 5046POPC   C1B65479  38.921  33.209   6.317
 5046POPC   C2B65480  38.706  33.187   6.717
 5046POPC   C3B65481  38.802  33.212   7.168
 5046POPC   C4B65482  38.836  33.018   7.589
 5047POPC   NC365483  26.550  36.621   5.695
 5047POPC   PO465484  26.639  36.147   5.215
 5047POPC   GL165485  26.670  36.109   5.682
 5047POPC   GL265486  27.022  36.185   5.791
 5047POPC   C1A65487  26.664  36.016   6.130
 5047POPC   D2A65488  26.794  35.899   6.537
 5047POPC   C3A65489  26.475  35.954   6.842
 5047POPC   C4A65490  26.486  36.261   7.166
 5047POPC   C1B65491  27.180  36.091   6.221
 5047POPC   C2B65492  27.281  35.985   6.675
 5047POPC   C3B65493  26.985  36.007   7.030
 5047POPC   C4B65494  27.057  35.842   7.449
 5048POPC   NC365495   5.463   7.909   5.517
 5048POPC   PO465496   4.894   8.346   5.347
 5048POPC   GL165497   4.969   8.328   5.792
 5048POPC   GL265498   5.174   8.057   5.927
 5048POPC   C1A65499   4.779   8.236   6.193
 5048POPC   D2A65500   4.801   8.415   6.609
 5048POPC   C3A65501   4.967   8.136   6.905
 5048POPC   C4A65502   4.912   8.078   7.333
 5048POPC   C1B65503   5.219   8.062   6.413
 5048POPC   C2B65504   5.432   7.924   6.828
 5048POPC   C3B65505   5.443   8.087   7.260
 5048POPC   C4B65506   5.526   8.457   7.498
 5049POPC   NC365507  37.207  16.201   5.364
 5049POPC   PO465508  36.581  15.939   5.520
 5049POPC   GL165509  36.961  15.779   5.685
 5049POPC   GL265510  37.039  16.064   5.886
 5049POPC   C1A65511  37.027  15.617   6.111
 5049POPC   D2A65512  36.983  15.853   6.492
 5049POPC   C3A65513  37.183  15.805   6.850
 5049POPC   C4A65514  37.098  15.869   7.250
 5049POPC   C1B65515  36.632  15.960   6.143
 5049POPC   C2B65516  36.490  16.172   6.496
 5049POPC   C3B65517  36.776  16.197   6.807
 5049POPC   C4B65518  36.707  16.168   7.193
 5050POPC   NC365519  33.180  32.933   5.412
 5050POPC   PO465520  32.629  33.137   5.228
 5050POPC   GL165521  32.740  33.184   5.667
 5050POPC   GL265522  33.069  33.352   5.722
 5050POPC   C1A65523  32.849  33.084   6.101
 5050POPC   D2A65524  32.966  33.115   6.536
 5050POPC   C3A65525  32.794  32.947   6.943
 5050POPC   C4A65526  32.917  33.121   7.324
 5050POPC   C1B65527  33.350  33.235   6.103
 5050POPC   C2B65528  33.483  33.170   6.544
 5050POPC   C3B65529  33.302  33.181   6.949
 5050POPC   C4B65530  33.498  33.108   7.377
 5051POPC   NC365531  24.190   6.517   5.468
 5051POPC   PO465532  23.586   6.966   5.463
 5051POPC   GL165533  23.673   6.818   5.855
 5051POPC   GL265534  24.016   6.884   5.788
 5051POPC   C1A65535  23.728   6.506   6.208
 5051POPC   D2A65536  23.714   6.247   6.595
 5051POPC   C3A65537  23.662   6.429   6.968
 5051POPC   C4A65538  23.673   6.673   7.300
 5051POPC   C1B65539  24.027   6.937   6.223
 5051POPC   C2B65540  23.789   6.935   6.592
 5051POPC   C3B65541  23.880   7.035   7.001
 5051POPC   C4B65542  23.665   7.185   7.374
 5052POPC   NC365543  13.193  33.097   5.610
 5052POPC   PO465544  12.588  32.802   5.434
 5052POPC   GL165545  12.665  32.946   5.832
 5052POPC   GL265546  12.751  33.249   5.824
 5052POPC   C1A65547  12.927  32.868   6.207
 5052POPC   D2A65548  13.023  32.613   6.545
 5052POPC   C3A65549  13.110  32.859   6.912
 5052POPC   C4A65550  12.980  32.778   7.321
 5052POPC   C1B65551  12.799  33.347   6.242
 5052POPC   C2B65552  12.704  33.196   6.672
 5052POPC   C3B65553  12.845  33.261   7.112
 5052POPC   C4B65554  12.920  33.599   7.404
 5053POPC   NC365555  19.741   6.444   5.446
 5053POPC   PO465556  20.286   6.892   5.343
 5053POPC   GL165557  20.026   6.753   5.750
 5053POPC   GL265558  19.996   6.401   5.875
 5053POPC   C1A65559  19.929   6.781   6.207
 5053POPC   D2A65560  20.076   6.850   6.629
 5053POPC   C3A65561  19.733   6.859   6.910
 5053POPC   C4A65562  19.828   6.774   7.335
 5053POPC   C1B65563  19.684   6.320   6.180
 5053POPC   C2B65564  19.706   6.449   6.593
 5053POPC   C3B65565  19.808   6.353   7.012
 5053POPC   C4B65566  19.520   6.179   7.310
 5054POPC   NC365567  21.697  44.651   5.301
 5054POPC   PO465568  21.046  44.443   5.349
 5054POPC   GL165569  21.133  44.710   5.743
 5054POPC   GL265570  21.519  44.682   5.803
 5054POPC   C1A65571  21.244  44.988   6.113
 5054POPC   D2A65572  21.422  44.831   6.480
 5054POPC   C3A65573  21.403  44.999   6.872
 5054POPC   C4A65574  21.777  44.930   7.109
 5054POPC   C1B65575  21.425  44.440   6.169
 5054POPC   C2B65576  21.418  44.294   6.579
 5054POPC   C3B65577  21.375  44.382   6.982
 5054POPC   C4B65578  21.346  44.686   7.258
 5055POPC   NC365579  41.215   4.370   5.373
 5055POPC   PO465580  41.876   4.444   5.494
 5055POPC   GL165581  41.544   4.224   5.777
 5055POPC   GL265582  41.311   4.497   5.864
 5055POPC   C1A65583  41.524   4.048   6.231
 5055POPC   D2A65584  41.694   4.095   6.700
 5055POPC   C3A65585  41.826   4.529   6.846
 5055POPC   C4A65586  41.757   4.756   7.266
 5055POPC   C1B65587  41.096   4.406   6.244
 5055POPC   C2B65588  41.128   4.449   6.686
 5055POPC   C3B65589  41.397   4.388   7.058
 5055POPC   C4B65590  41.386   4.473   7.507
 5056POPC   NC365591  18.967  26.293   5.372
 5056POPC   PO465592  19.035  25.846   4.935
 5056POPC   GL165593  18.941  25.812   5.514
 5056POPC   GL265594  19.132  25.555   5.737
 5056POPC   C1A65595  19.007  26.031   5.979
 5056POPC   D2A65596  19.040  26.397   6.299
 5056POPC   C3A65597  19.037  26.374   6.765
 5056POPC   C4A65598  19.058  26.238   7.195
 5056POPC   C1B65599  19.288  25.496   6.200
 5056POPC   C2B65600  19.317  25.728   6.670
 5056POPC   C3B65601  19.080  25.744   7.096
 5056POPC   C4B65602  19.154  25.822   7.592
 5057POPC   NC365603  32.425  10.499   5.352
 5057POPC   PO465604  32.035  11.056   5.176
 5057POPC   GL165605  31.991  10.754   5.545
 5057POPC   GL265606  32.054  10.928   5.820
 5057POPC   C1A65607  31.980  10.443   5.955
 5057POPC   D2A65608  32.154  10.422   6.418
 5057POPC   C3A65609  32.107  10.412   6.913
 5057POPC   C4A65610  32.420  10.277   7.241
 5057POPC   C1B65611  32.371  10.773   6.092
 5057POPC   C2B65612  32.363  10.878   6.521
 5057POPC   C3B65613  32.500  10.766   6.918
 5057POPC   C4B65614  32.290  10.772   7.298
 5058POPC   NC365615  31.210  12.376   5.185
 5058POPC   PO465616  31.752  12.000   5.016
 5058POPC   GL165617  31.521  11.991   5.495
 5058POPC   GL265618  31.342  12.282   5.716
 5058POPC   C1A65619  31.577  11.908   5.994
 5058POPC   D2A65620  31.486  12.002   6.461
 5058POPC   C3A65621  31.590  12.137   6.893
 5058POPC   C4A65622  31.401  11.948   7.258
 5058POPC   C1B65623  31.154  12.264   6.155
 5058POPC   C2B65624  31.181  12.439   6.604
 5058POPC   C3B65625  31.085  12.294   7.008
 5058POPC   C4B65626  31.141  12.365   7.407
 5059POPC   NC365627   2.433  44.269   5.412
 5059POPC   PO465628   2.857  43.725   5.449
 5059POPC   GL165629   2.759  43.931   5.820
 5059POPC   GL265630   3.123  44.024   5.833
 5059POPC   C1A65631   2.518  43.943   6.218
 5059POPC   D2A65632   2.435  44.151   6.621
 5059POPC   C3A65633   2.642  43.989   7.033
 5059POPC   C4A65634   2.662  43.984   7.520
 5059POPC   C1B65635   3.036  43.932   6.259
 5059POPC   C2B65636   3.011  43.765   6.644
 5059POPC   C3B65637   3.183  44.005   6.935
 5059POPC   C4B65638   3.110  44.113   7.355
 5060POPC   NC365639  14.542  10.229   5.136
 5060POPC   PO465640  14.552   9.552   5.387
 5060POPC   GL165641  14.368   9.753   5.704
 5060POPC   GL265642  14.665   9.783   5.942
 5060POPC   C1A65643  14.224   9.712   6.123
 5060POPC   D2A65644  14.467   9.589   6.494
 5060POPC   C3A65645  14.420   9.665   6.936
 5060POPC   C4A65646  14.464   9.741   7.376
 5060POPC   C1B65647  14.653  10.049   6.293
 5060POPC   C2B65648  14.425  10.098   6.669
 5060POPC   C3B65649  14.490  10.197   7.095
 5060POPC   C4B65650  14.683  10.234   7.517
 5061POPC   NC365651  26.277  25.733   5.358
 5061POPC   PO465652  26.336  26.403   5.277
 5061POPC   GL165653  26.275  26.158   5.649
 5061POPC   GL265654  25.916  26.073   5.592
 5061POPC   C1A65655  26.307  25.840   6.027
 5061POPC   D2A65656  26.089  25.878   6.451
 5061POPC   C3A65657  26.182  25.875   6.920
 5061POPC   C4A65658  25.986  26.134   7.249
 5061POPC   C1B65659  25.954  26.202   6.036
 5061POPC   C2B65660  25.931  26.406   6.408
 5061POPC   C3B65661  25.781  26.275   6.813
 5061POPC   C4B65662  25.669  26.544   7.178
 5062POPC   NC365663  16.428   0.961   5.258
 5062POPC   PO465664  16.776   1.453   5.527
 5062POPC   GL165665  16.745   1.066   5.789
 5062POPC   GL265666  17.064   0.865   5.763
 5062POPC   C1A65667  16.643   1.111   6.237
 5062POPC   D2A65668  16.579   1.382   6.611
 5062POPC   C3A65669  16.808   1.349   7.014
 5062POPC   C4A65670  17.015   1.446   7.412
 5062POPC   C1B65671  17.155   0.970   6.191
 5062POPC   C2B65672  16.970   1.011   6.612
 5062POPC   C3B65673  17.004   0.892   7.018
 5062POPC   C4B65674  17.265   0.997   7.327
 5063POPC   NC365675  10.294  41.887   5.621
 5063POPC   PO465676  10.569  41.370   5.356
 5063POPC   GL165677  10.507  41.406   5.832
 5063POPC   GL265678  10.165  41.433   5.864
 5063POPC   C1A65679  10.427  41.268   6.313
 5063POPC   D2A65680  10.614  41.111   6.730
 5063POPC   C3A65681  10.437  41.352   7.089
 5063POPC   C4A65682  10.499  41.365   7.563
 5063POPC   C1B65683  10.182  41.718   6.238
 5063POPC   C2B65684  10.339  41.678   6.650
 5063POPC   C3B65685  10.548  41.850   6.986
 5063POPC   C4B65686  10.372  41.801   7.373
 5064POPC   NC365687  35.654  44.500   5.442
 5064POPC   PO465688  35.028  44.846   5.591
 5064POPC   GL165689  35.263  44.617   5.796
 5064POPC   GL265690  35.547  44.880   5.766
 5064POPC   C1A65691  35.138  44.627   6.218
 5064POPC   D2A65692  35.313  44.968   6.428
 5064POPC   C3A65693  35.351  44.901   6.858
 5064POPC   C4A65694  35.206  44.887   7.296
 5064POPC   C1B65695  35.634  44.671   6.130
 5064POPC   C2B65696  35.686  44.585   6.539
 5064POPC   C3B65697  35.561  44.413   6.903
 5064POPC   C4B65698  35.655  44.694   7.235
 5065POPC   NC365699  12.786  28.063   5.162
 5065POPC   PO465700  12.815  27.492   5.495
 5065POPC   GL165701  12.800  27.689   5.868
 5065POPC   GL265702  12.490  27.869   5.922
 5065POPC   C1A65703  12.739  27.585   6.314
 5065POPC   D2A65704  12.985  27.326   6.608
 5065POPC   C3A65705  12.884  27.377   7.056
 5065POPC   C4A65706  13.076  27.266   7.481
 5065POPC   C1B65707  12.826  28.076   6.191
 5065POPC   C2B65708  13.111  27.974   6.533
 5065POPC   C3B65709  13.028  27.974   6.967
 5065POPC   C4B65710  12.620  27.918   7.166
 5066POPC   NC365711   7.573  26.310   5.535
 5066POPC   PO465712   7.217  25.708   5.417
 5066POPC   GL165713   7.250  25.967   5.792
 5066POPC   GL265714   7.581  25.992   5.933
 5066POPC   C1A65715   7.178  26.185   6.204
 5066POPC   D2A65716   7.385  26.188   6.643
 5066POPC   C3A65717   7.234  26.375   7.080
 5066POPC   C4A65718   7.160  26.401   7.542
 5066POPC   C1B65719   7.837  26.196   6.251
 5066POPC   C2B65720   7.908  26.004   6.648
 5066POPC   C3B65721   7.601  25.809   6.927
 5066POPC   C4B65722   7.484  25.990   7.322
 5067POPC   NC365723  11.679  43.740   5.359
 5067POPC   PO465724  11.056  44.088   5.412
 5067POPC   GL165725  11.334  43.937   5.732
 5067POPC   GL265726  11.229  43.599   5.833
 5067POPC   C1A65727  11.258  43.986   6.178
 5067POPC   D2A65728  11.050  44.107   6.555
 5067POPC   C3A65729  11.378  44.080   6.877
 5067POPC   C4A65730  11.637  44.158   7.284
 5067POPC   C1B65731  11.323  43.500   6.263
 5067POPC   C2B65732  11.187  43.608   6.662
 5067POPC   C3B65733  11.387  43.620   7.073
 5067POPC   C4B65734  11.415  43.342   7.402
 5068POPC   NC365735   2.551  11.138   5.522
 5068POPC   PO465736   3.085  10.724   5.208
 5068POPC   GL165737   3.121  10.976   5.708
 5068POPC   GL265738   2.918  11.256   5.858
 5068POPC   C1A65739   3.122  10.970   6.236
 5068POPC   D2A65740   2.954  10.919   6.701
 5068POPC   C3A65741   2.772  11.214   7.032
 5068POPC   C4A65742   2.717  11.148   7.485
 5068POPC   C1B65743   3.061  11.503   6.220
 5068POPC   C2B65744   2.934  11.557   6.633
 5068POPC   C3B65745   2.950  11.727   7.033
 5068POPC   C4B65746   2.724  11.639   7.410
 5069POPC   NC365747  29.859   3.092   5.521
 5069POPC   PO465748  29.746   3.700   5.606
 5069POPC   GL165749  29.979   3.478   5.936
 5069POPC   GL265750  30.163   3.134   5.928
 5069POPC   C1A65751  30.014   3.553   6.406
 5069POPC   D2A65752  29.751   3.698   6.771
 5069POPC   C3A65753  29.890   3.608   7.209
 5069POPC   C4A65754  30.249   3.595   7.507
 5069POPC   C1B65755  29.817   3.117   6.239
 5069POPC   C2B65756  29.785   3.169   6.694
 5069POPC   C3B65757  29.808   3.095   7.146
 5069POPC   C4B65758  29.438   3.048   7.431
 5070POPC   NC365759  24.940   6.673   5.495
 5070POPC   PO465760  25.549   6.503   5.462
 5070POPC   GL165761  25.331   6.538   5.842
 5070POPC   GL265762  25.085   6.290   5.869
 5070POPC   C1A65763  25.166   6.786   6.212
 5070POPC   D2A65764  24.995   6.716   6.644
 5070POPC   C3A65765  25.216   6.864   7.015
 5070POPC   C4A65766  25.363   6.671   7.408
 5070POPC   C1B65767  25.224   6.295   6.290
 5070POPC   C2B65768  25.114   6.206   6.664
 5070POPC   C3B65769  25.157   6.363   7.055
 5070POPC   C4B65770  25.062   6.242   7.481
 5071POPC   NC365771  27.884  41.272   5.498
 5071POPC   PO465772  28.416  41.643   5.307
 5071POPC   GL165773  28.524  41.606   5.752
 5071POPC   GL265774  28.184  41.542   5.868
 5071POPC   C1A65775  28.566  41.350   6.165
 5071POPC   D2A65776  28.346  41.323   6.586
 5071POPC   C3A65777  28.579  41.469   6.968
 5071POPC   C4A65778  28.477  41.519   7.409
 5071POPC   C1B65779  28.367  41.829   6.203
 5071POPC   C2B65780  28.311  41.916   6.639
 5071POPC   C3B65781  28.073  41.683   6.932
 5071POPC   C4B65782  27.737  41.728   7.213
 5072POPC   NC365783   3.046  34.496   5.316
 5072POPC   PO465784   3.706  34.635   5.451
 5072POPC   GL165785   3.729  34.861   5.848
 5072POPC   GL265786   3.369  34.774   5.905
 5072POPC   C1A65787   3.685  34.850   6.292
 5072POPC   D2A65788   3.721  34.530   6.604
 5072POPC   C3A65789   3.683  34.665   7.027
 5072POPC   C4A65790   3.419  34.329   7.117
 5072POPC   C1B65791   3.162  34.728   6.329
 5072POPC   C2B65792   3.161  34.632   6.798
 5072POPC   C3B65793   3.251  34.810   7.252
 5072POPC   C4B65794   3.091  34.859   7.721
 5073POPC   NC365795  43.884  34.720   5.388
 5073POPC   PO465796  44.170  34.087   5.302
 5073POPC   GL165797  44.049  34.270   5.749
 5073POPC   GL265798  43.816  34.555   5.864
 5073POPC   C1A65799  44.124  34.409   6.222
 5073POPC   D2A65800  43.899  34.595   6.578
 5073POPC   C3A65801  43.924  34.383   6.967
 5073POPC   C4A65802  44.090  34.720   7.151
 5073POPC   C1B65803  43.534  34.537   6.231
 5073POPC   C2B65804  43.377  34.642   6.661
 5073POPC   C3B65805  43.596  34.844   6.987
 5073POPC   C4B65806  43.658  34.863   7.430
 5074POPC   NC365807   5.452  12.552   5.407
 5074POPC   PO465808   5.071  13.102   5.383
 5074POPC   GL165809   4.959  12.733   5.653
 5074POPC   GL265810   5.250  12.790   5.816
 5074POPC   C1A65811   4.920  12.543   6.105
 5074POPC   D2A65812   5.130  12.708   6.508
 5074POPC   C3A65813   4.854  12.737   6.880
 5074POPC   C4A65814   4.805  12.487   7.247
 5074POPC   C1B65815   5.362  13.125   6.063
 5074POPC   C2B65816   5.428  13.187   6.497
 5074POPC   C3B65817   5.376  13.132   6.942
 5074POPC   C4B65818   5.211  12.834   7.221
 5075POPC   NC365819  37.663  18.570   5.406
 5075POPC   PO465820  37.882  17.970   5.298
 5075POPC   GL165821  37.688  18.054   5.740
 5075POPC   GL265822  37.400  17.884   5.813
 5075POPC   C1A65823  37.827  18.030   6.201
 5075POPC   D2A65824  38.052  18.145   6.608
 5075POPC   C3A65825  37.918  18.505   6.882
 5075POPC   C4A65826  37.689  18.413   7.263
 5075POPC   C1B65827  37.353  18.227   6.128
 5075POPC   C2B65828  37.420  18.514   6.474
 5075POPC   C3B65829  37.320  18.409   6.900
 5075POPC   C4B65830  37.420  17.998   7.101
 5076POPC   NC365831  10.799   5.663   5.743
 5076POPC   PO465832  10.172   5.738   5.415
 5076POPC   GL165833  10.350   5.896   5.846
 5076POPC   GL265834  10.322   6.260   5.929
 5076POPC   C1A65835  10.409   5.717   6.301
 5076POPC   D2A65836  10.454   5.866   6.750
 5076POPC   C3A65837  10.584   5.668   7.194
 5076POPC   C4A65838  10.681   5.630   7.673
 5076POPC   C1B65839  10.290   6.423   6.366
 5076POPC   C2B65840  10.444   6.384   6.779
 5076POPC   C3B65841  10.339   6.178   7.144
 5076POPC   C4B65842   9.933   6.044   7.242
 5077POPC   NC365843  40.507  13.811   5.291
 5077POPC   PO465844  40.968  13.398   5.262
 5077POPC   GL165845  40.741  13.488   5.687
 5077POPC   GL265846  40.715  13.839   5.761
 5077POPC   C1A65847  40.741  13.544   6.159
 5077POPC   D2A65848  40.564  13.783   6.512
 5077POPC   C3A65849  40.509  13.561   6.897
 5077POPC   C4A65850  40.578  13.349   7.280
 5077POPC   C1B65851  41.107  13.949   6.047
 5077POPC   C2B65852  41.296  13.994   6.476
 5077POPC   C3B65853  41.254  13.791   6.886
 5077POPC   C4B65854  40.913  13.735   7.185
 5078POPC   NC365855  44.572  40.527   5.470
 5078POPC   PO465856  44.791  41.140   5.493
 5078POPC   GL165857  44.647  40.850   5.882
 5078POPC   GL265858  44.403  40.530   5.930
 5078POPC   C1A65859  44.597  40.802   6.343
 5078POPC   D2A65860  44.542  41.011   6.755
 5078POPC   C3A65861  44.795  40.998   7.125
 5078POPC   C4A65862  44.806  41.051   7.574
 5078POPC   C1B65863  44.201  40.491   6.292
 5078POPC   C2B65864  44.312  40.556   6.721
 5078POPC   C3B65865  44.354  40.726   7.139
 5078POPC   C4B65866  44.296  40.764   7.596
 5079POPC   NC365867  27.953  29.930   5.348
 5079POPC   PO465868  27.332  29.691   5.425
 5079POPC   GL165869  27.608  29.749   5.762
 5079POPC   GL265870  27.573  30.096   5.770
 5079POPC   C1A65871  27.540  29.833   6.223
 5079POPC   D2A65872  27.310  29.963   6.597
 5079POPC   C3A65873  27.418  29.778   6.999
 5079POPC   C4A65874  27.628  29.813   7.426
 5079POPC   C1B65875  27.947  30.092   6.002
 5079POPC   C2B65876  27.999  30.011   6.432
 5079POPC   C3B65877  27.789  30.098   6.821
 5079POPC   C4B65878  27.970  30.101   7.220
 5080POPC   NC365879  29.457  22.370   5.450
 5080POPC   PO465880  28.982  21.861   5.493
 5080POPC   GL165881  29.037  22.188   5.764
 5080POPC   GL265882  29.175  22.474   5.860
 5080POPC   C1A65883  28.972  22.172   6.190
 5080POPC   D2A65884  29.227  22.351   6.530
 5080POPC   C3A65885  29.410  22.100   6.814
 5080POPC   C4A65886  29.259  22.022   7.208
 5080POPC   C1B65887  29.496  22.259   6.099
 5080POPC   C2B65888  29.739  22.492   6.411
 5080POPC   C3B65889  29.855  22.395   6.818
 5080POPC   C4B65890  29.640  22.339   7.216
 5081POPC   NC365891  39.495  25.274   5.507
 5081POPC   PO465892  38.996  24.858   5.517
 5081POPC   GL165893  39.012  25.027   5.942
 5081POPC   GL265894  39.126  25.360   5.876
 5081POPC   C1A65895  39.291  25.139   6.312
 5081POPC   D2A65896  39.406  25.318   6.731
 5081POPC   C3A65897  39.274  25.068   7.096
 5081POPC   C4A65898  39.395  24.889   7.499
 5081POPC   C1B65899  38.881  25.494   6.249
 5081POPC   C2B65900  38.903  25.424   6.695
 5081POPC   C3B65901  39.018  25.498   7.111
 5081POPC   C4B65902  39.358  25.433   7.474
 5082POPC   NC365903  20.454  26.857   5.470
 5082POPC   PO465904  20.527  26.214   5.373
 5082POPC   GL165905  20.606  26.460   5.805
 5082POPC   GL265906  20.284  26.623   5.967
 5082POPC   C1A65907  20.706  26.672   6.252
 5082POPC   D2A65908  20.561  26.825   6.685
 5082POPC   C3A65909  20.845  26.787   7.082
 5082POPC   C4A65910  20.793  26.602   7.521
 5082POPC   C1B65911  20.230  27.058   6.214
 5082POPC   C2B65912  20.042  27.304   6.610
 5082POPC   C3B65913  20.244  27.104   7.000
 5082POPC   C4B65914  20.356  26.710   7.223
 5083POPC   NC365915  22.554  14.345   5.246
 5083POPC   PO465916  22.961  14.742   5.535
 5083POPC   GL165917  23.085  14.450   5.801
 5083POPC   GL265918  22.732  14.376   5.895
 5083POPC   C1A65919  23.283  14.260   6.150
 5083POPC   D2A65920  23.046  14.362   6.479
 5083POPC   C3A65921  23.129  14.337   6.911
 5083POPC   C4A65922  22.938  14.536   7.227
 5083POPC   C1B65923  22.544  14.319   6.313
 5083POPC   C2B65924  22.653  14.188   6.739
 5083POPC   C3B65925  22.613  14.104   7.174
 5083POPC   C4B65926  22.351  14.255   7.502
 5084POPC   NC365927  30.863  24.881   5.155
 5084POPC   PO465928  30.511  25.411   5.142
 5084POPC   GL165929  30.633  25.319   5.589
 5084POPC   GL265930  30.932  25.103   5.618
 5084POPC   C1A65931  30.588  25.137   6.023
 5084POPC   D2A65932  30.511  25.007   6.466
 5084POPC   C3A65933  30.620  25.155   6.873
 5084POPC   C4A65934  30.472  25.507   7.149
 5084POPC   C1B65935  31.107  25.088   6.041
 5084POPC   C2B65936  31.065  25.178   6.474
 5084POPC   C3B65937  31.149  25.074   6.894
 5084POPC   C4B65938  30.961  25.218   7.255
 5085POPC   NC365939  35.160  28.245   5.406
 5085POPC   PO465940  35.602  28.609   5.416
 5085POPC   GL165941  35.392  28.460   5.821
 5085POPC   GL265942  35.031  28.523   5.835
 5085POPC   C1A65943  35.293  28.147   6.174
 5085POPC   D2A65944  35.181  28.205   6.623
 5085POPC   C3A65945  35.464  28.176   6.969
 5085POPC   C4A65946  35.393  28.146   7.413
 5085POPC   C1B65947  35.083  28.619   6.283
 5085POPC   C2B65948  35.103  28.725   6.739
 5085POPC   C3B65949  35.242  28.589   7.181
 5085POPC   C4B65950  35.439  28.626   7.611
 5086POPC   NC365951   5.953   3.804   5.149
 5086POPC   PO465952   6.260   3.413   5.550
 5086POPC   GL165953   5.979   3.513   5.857
 5086POPC   GL265954   5.782   3.824   5.756
 5086POPC   C1A65955   5.954   3.319   6.289
 5086POPC   D2A65956   6.185   3.240   6.674
 5086POPC   C3A65957   5.995   3.483   7.026
 5086POPC   C4A65958   5.907   3.902   7.132
 5086POPC   C1B65959   5.850   3.828   6.233
 5086POPC   C2B65960   5.711   3.682   6.637
 5086POPC   C3B65961   5.441   3.907   6.932
 5086POPC   C4B65962   5.515   4.136   7.340
 5087POPC   NC365963  42.152  36.263   5.240
 5087POPC   PO465964  42.649  35.841   5.410
 5087POPC   GL165965  42.458  36.139   5.715
 5087POPC   GL265966  42.306  35.857   5.867
 5087POPC   C1A65967  42.534  36.160   6.198
 5087POPC   D2A65968  42.573  35.762   6.511
 5087POPC   C3A65969  42.567  35.873   6.964
 5087POPC   C4A65970  42.482  36.315   7.076
 5087POPC   C1B65971  42.105  35.897   6.282
 5087POPC   C2B65972  42.225  36.147   6.617
 5087POPC   C3B65973  42.068  35.908   6.887
 5087POPC   C4B65974  41.934  35.917   7.252
 5088POPC   NC365975  13.454  34.909   5.529
 5088POPC   PO465976  13.333  34.270   5.318
 5088POPC   GL165977  13.377  34.444   5.756
 5088POPC   GL265978  13.721  34.596   5.867
 5088POPC   C1A65979  13.316  34.638   6.181
 5088POPC   D2A65980  13.555  34.590   6.574
 5088POPC   C3A65981  13.422  34.767   6.984
 5088POPC   C4A65982  13.528  34.332   7.056
 5088POPC   C1B65983  13.788  34.897   6.242
 5088POPC   C2B65984  13.858  34.956   6.720
 5088POPC   C3B65985  13.917  34.669   7.087
 5088POPC   C4B65986  13.631  34.623   7.466
 5089POPC   NC365987  22.092   5.949   5.328
 5089POPC   PO465988  22.548   5.457   5.274
 5089POPC   GL165989  22.330   5.680   5.681
 5089POPC   GL265990  22.366   6.035   5.761
 5089POPC   C1A65991  22.003   5.816   6.063
 5089POPC   D2A65992  22.013   6.039   6.485
 5089POPC   C3A65993  21.953   5.825   6.910
 5089POPC   C4A65994  22.054   5.943   7.344
 5089POPC   C1B65995  22.497   5.758   6.166
 5089POPC   C2B65996  22.374   5.686   6.594
 5089POPC   C3B65997  22.474   5.911   6.982
 5089POPC   C4B65998  22.655   5.784   7.371
 5090POPC   NC365999  32.722   3.707   5.342
 5090POPC   PO466000  33.416   3.666   5.478
 5090POPC   GL166001  33.146   3.665   5.802
 5090POPC   GL266002  32.919   3.431   5.754
 5090POPC   C1A66003  33.192   3.577   6.232
 5090POPC   D2A66004  33.190   3.416   6.637
 5090POPC   C3A66005  32.989   3.693   6.935
 5090POPC   C4A66006  32.991   3.531   7.343
 5090POPC   C1B66007  32.733   3.371   6.164
 5090POPC   C2B66008  32.656   3.448   6.595
 5090POPC   C3B66009  32.775   3.213   6.977
 5090POPC   C4B66010  32.805   3.064   7.419
 5091POPC   NC366011  19.701   2.367   5.259
 5091POPC   PO466012  20.064   2.953   5.408
 5091POPC   GL166013  20.061   2.723   5.792
 5091POPC   GL266014  19.710   2.754   5.816
 5091POPC   C1A66015  20.031   2.897   6.207
 5091POPC   D2A66016  20.229   3.025   6.592
 5091POPC   C3A66017  20.144   2.857   7.007
 5091POPC   C4A66018  19.937   3.013   7.379
 5091POPC   C1B66019  19.598   2.611   6.222
 5091POPC   C2B66020  19.724   2.840   6.612
 5091POPC   C3B66021  19.612   2.841   7.027
 5091POPC   C4B66022  19.687   2.548   7.366
 5092POPC   NC366023  11.575  26.915   5.371
 5092POPC   PO466024  10.865  26.952   5.398
 5092POPC   GL166025  11.154  26.985   5.713
 5092POPC   GL266026  11.159  26.659   5.774
 5092POPC   C1A66027  11.348  27.021   6.154
 5092POPC   D2A66028  11.513  27.200   6.571
 5092POPC   C3A66029  11.420  27.035   6.992
 5092POPC   C4A66030  11.203  26.952   7.396
 5092POPC   C1B66031  11.178  26.524   6.194
 5092POPC   C2B66032  11.264  26.713   6.612
 5092POPC   C3B66033  11.252  26.557   7.061
 5092POPC   C4B66034  11.554  26.591   7.408
 5093POPC   NC366035  43.541  35.309   5.353
 5093POPC   PO466036  44.194  35.083   5.385
 5093POPC   GL166037  43.888  35.097   5.736
 5093POPC   GL266038  43.934  35.381   5.927
 5093POPC   C1A66039  43.987  34.927   6.157
 5093POPC   D2A66040  44.228  35.058   6.485
 5093POPC   C3A66041  44.054  35.372   6.762
 5093POPC   C4A66042  43.932  35.186   7.153
 5093POPC   C1B66043  43.761  35.575   6.272
 5093POPC   C2B66044  43.922  35.892   6.514
 5093POPC   C3B66045  43.989  35.873   6.924
 5093POPC   C4B66046  43.843  35.645   7.260
 5094POPC   NC366047  14.247  19.717   5.483
 5094POPC   PO466048  14.848  20.086   5.348
 5094POPC   GL166049  14.569  20.010   5.717
 5094POPC   GL266050  14.643  19.659   5.811
 5094POPC   C1A66051  14.581  20.064   6.198
 5094POPC   D2A66052  14.529  20.256   6.661
 5094POPC   C3A66053  14.423  19.950   7.022
 5094POPC   C4A66054  14.056  19.643   7.005
 5094POPC   C1B66055  14.557  19.497   6.213
 5094POPC   C2B66056  14.760  19.490   6.606
 5094POPC   C3B66057  14.597  19.436   7.042
 5094POPC   C4B66058  14.327  19.537   7.407
 5095POPC   NC366059  24.992  38.518   5.449
 5095POPC   PO466060  25.627  38.352   5.238
 5095POPC   GL166061  25.445  38.451   5.689
 5095POPC   GL266062  25.247  38.155   5.808
 5095POPC   C1A66063  25.427  38.465   6.182
 5095POPC   D2A66064  25.404  38.246   6.608
 5095POPC   C3A66065  25.564  38.474   6.967
 5095POPC   C4A66066  25.519  38.370   7.377
 5095POPC   C1B66067  25.017  38.162   6.225
 5095POPC   C2B66068  24.929  38.398   6.630
 5095POPC   C3B66069  25.045  38.428   7.095
 5095POPC   C4B66070  24.717  38.391   7.439
 5096POPC   NC366071  33.271   8.357   5.401
 5096POPC   PO466072  32.749   7.841   5.339
 5096POPC   GL166073  32.882   8.030   5.722
 5096POPC   GL266074  33.195   7.951   5.698
 5096POPC   C1A66075  32.834   8.224   6.167
 5096POPC   D2A66076  32.968   8.015   6.568
 5096POPC   C3A66077  32.868   8.207   6.978
 5096POPC   C4A66078  32.677   8.567   7.152
 5096POPC   C1B66079  33.307   8.081   6.090
 5096POPC   C2B66080  33.476   8.124   6.482
 5096POPC   C3B66081  33.389   7.993   6.865
 5096POPC   C4B66082  33.477   8.143   7.253
 5097POPC   NC366083  36.818  34.635   5.137
 5097POPC   PO466084  36.553  35.088   5.617
 5097POPC   GL166085  36.732  34.836   5.961
 5097POPC   GL266086  36.797  34.515   5.795
 5097POPC   C1A66087  37.068  34.673   6.281
 5097POPC   D2A66088  37.285  34.626   6.689
 5097POPC   C3A66089  37.045  34.696   7.043
 5097POPC   C4A66090  36.617  34.868   7.063
 5097POPC   C1B66091  36.649  34.389   6.233
 5097POPC   C2B66092  36.709  34.552   6.654
 5097POPC   C3B66093  36.667  34.351   7.067
 5097POPC   C4B66094  36.855  34.387   7.484
 5098POPC   NC366095  12.448  18.502   5.160
 5098POPC   PO466096  12.918  18.080   5.406
 5098POPC   GL166097  13.103  18.186   5.824
 5098POPC   GL266098  13.139  17.857   5.927
 5098POPC   C1A66099  13.135  18.326   6.262
 5098POPC   D2A66100  12.887  18.472   6.638
 5098POPC   C3A66101  13.030  18.258   7.019
 5098POPC   C4A66102  13.174  18.415   7.421
 5098POPC   C1B66103  12.803  17.922   6.260
 5098POPC   C2B66104  12.558  18.020   6.662
 5098POPC   C3B66105  12.575  17.997   7.119
 5098POPC   C4B66106  12.837  18.035   7.496
 5099POPC   NC366107   3.053  22.110   5.588
 5099POPC   PO466108   2.717  21.590   5.241
 5099POPC   GL166109   2.690  21.585   5.717
 5099POPC   GL266110   2.365  21.672   5.870
 5099POPC   C1A66111   2.668  21.319   6.111
 5099POPC   D2A66112   2.662  21.090   6.504
 5099POPC   C3A66113   2.743  21.334   6.880
 5099POPC   C4A66114   2.978  21.472   7.260
 5099POPC   C1B66115   2.632  21.806   6.245
 5099POPC   C2B66116   2.783  21.819   6.679
 5099POPC   C3B66117   2.639  21.859   7.124
 5099POPC   C4B66118   2.699  21.761   7.595
 5100POPC   NC366119   0.186  23.106   5.214
 5100POPC   PO466120   0.487  22.538   5.441
 5100POPC   GL166121   0.379  22.781   5.788
 5100POPC   GL266122   0.524  23.089   5.752
 5100POPC   C1A66123   0.258  22.855   6.219
 5100POPC   D2A66124   0.124  22.840   6.660
 5100POPC   C3A66125   0.413  22.634   6.962
 5100POPC   C4A66126   0.588  22.784   7.389
 5100POPC   C1B66127   0.733  23.053   6.156
 5100POPC   C2B66128   0.606  22.988   6.584
 5100POPC   C3B66129   0.773  23.010   6.968
 5100POPC   C4B66130   0.818  23.258   7.323
 5101POPC   NC366131   2.830  15.645   5.085
 5101POPC   PO466132   2.527  16.136   5.263
 5101POPC   GL166133   2.678  15.863   5.620
 5101POPC   GL266134   2.710  16.198   5.769
 5101POPC   C1A66135   2.631  15.850   6.115
 5101POPC   D2A66136   2.821  16.098   6.474
 5101POPC   C3A66137   2.646  15.991   6.885
 5101POPC   C4A66138   2.782  15.638   7.129
 5101POPC   C1B66139   2.485  16.380   6.139
 5101POPC   C2B66140   2.487  16.477   6.589
 5101POPC   C3B66141   2.823  16.496   6.848
 5101POPC   C4B66142   2.813  16.346   7.244
 5102POPC   NC366143   7.672   2.859   5.322
 5102POPC   PO466144   7.069   3.138   5.433
 5102POPC   GL166145   7.330   2.922   5.765
 5102POPC   GL266146   7.672   3.049   5.822
 5102POPC   C1A66147   7.212   2.716   6.157
 5102POPC   D2A66148   7.391   2.493   6.503
 5102POPC   C3A66149   7.243   2.620   6.894
 5102POPC   C4A66150   7.289   2.729   7.298
 5102POPC   C1B66151   7.587   3.062   6.279
 5102POPC   C2B66152   7.660   3.135   6.733
 5102POPC   C3B66153   7.700   3.015   7.174
 5102POPC   C4B66154   7.894   2.853   7.579
 5103POPC   NC366155  11.457  38.212   5.612
 5103POPC   PO466156  11.260  37.884   5.068
 5103POPC   GL166157  11.234  37.712   5.554
 5103POPC   GL266158  11.534  37.746   5.783
 5103POPC   C1A66159  11.125  37.565   6.044
 5103POPC   D2A66160  10.995  37.546   6.520
 5103POPC   C3A66161  11.235  37.597   6.885
 5103POPC   C4A66162  11.450  37.217   6.980
 5103POPC   C1B66163  11.710  37.642   6.173
 5103POPC   C2B66164  11.661  37.517   6.585
 5103POPC   C3B66165  11.736  37.646   6.992
 5103POPC   C4B66166  11.544  37.856   7.320
 5104POPC   NC366167  39.725  35.468   5.069
 5104POPC   PO466168  40.134  35.262   5.506
 5104POPC   GL166169  39.904  35.170   5.846
 5104POPC   GL266170  40.007  35.455   6.019
 5104POPC   C1A66171  39.797  35.063   6.260
 5104POPC   D2A66172  39.948  35.330   6.549
 5104POPC   C3A66173  39.961  35.204   6.959
 5104POPC   C4A66174  40.015  35.541   7.266
 5104POPC   C1B66175  40.298  35.150   6.198
 5104POPC   C2B66176  40.432  35.163   6.632
 5104POPC   C3B66177  40.410  35.461   6.939
 5104POPC   C4B66178  40.535  35.460   7.353
 5105POPC   NC366179  39.750  11.143   5.356
 5105POPC   PO466180  40.389  11.030   5.240
 5105POPC   GL166181  40.188  11.297   5.599
 5105POPC   GL266182  40.398  11.516   5.804
 5105POPC   C1A66183  39.916  11.304   6.011
 5105POPC   D2A66184  39.947  11.127   6.455
 5105POPC   C3A66185  39.930  11.379   6.833
 5105POPC   C4A66186  39.680  11.311   7.204
 5105POPC   C1B66187  40.397  11.230   6.157
 5105POPC   C2B66188  40.411  11.347   6.561
 5105POPC   C3B66189  40.408  11.126   6.916
 5105POPC   C4B66190  40.185  11.221   7.255
 5106POPC   NC366191  28.494  42.063   5.470
 5106POPC   PO466192  28.081  42.585   5.329
 5106POPC   GL166193  28.192  42.405   5.747
 5106POPC   GL266194  28.113  42.054   5.811
 5106POPC   C1A66195  28.484  42.402   6.123
 5106POPC   D2A66196  28.738  42.269   6.488
 5106POPC   C3A66197  28.545  42.309   6.907
 5106POPC   C4A66198  28.428  41.952   7.164
 5106POPC   C1B66199  28.023  42.217   6.214
 5106POPC   C2B66200  28.107  42.404   6.607
 5106POPC   C3B66201  28.020  42.221   7.011
 5106POPC   C4B66202  28.037  42.160   7.460
 5107POPC   NC366203  12.600  32.436   5.150
 5107POPC   PO466204  13.036  31.909   5.372
 5107POPC   GL166205  13.079  32.180   5.734
 5107POPC   GL266206  12.991  32.545   5.738
 5107POPC   C1A66207  13.060  32.239   6.176
 5107POPC   D2A66208  12.779  32.147   6.528
 5107POPC   C3A66209  12.938  32.313   6.959
 5107POPC   C4A66210  12.986  32.164   7.406
 5107POPC   C1B66211  12.627  32.497   6.052
 5107POPC   C2B66212  12.506  32.586   6.491
 5107POPC   C3B66213  12.614  32.715   6.920
 5107POPC   C4B66214  12.576  32.455   7.306
 5108POPC   NC366215   1.091  39.586   5.318
 5108POPC   PO466216   1.481  39.044   5.434
 5108POPC   GL166217   1.431  39.302   5.772
 5108POPC   GL266218   1.060  39.266   5.745
 5108POPC   C1A66219   1.548  39.190   6.191
 5108POPC   D2A66220   1.384  39.358   6.574
 5108POPC   C3A66221   1.245  39.160   6.936
 5108POPC   C4A66222   1.339  39.370   7.336
 5108POPC   C1B66223   1.074  39.456   6.170
 5108POPC   C2B66224   0.882  39.450   6.621
 5108POPC   C3B66225   0.870  39.474   7.088
 5108POPC   C4B66226   0.859  39.302   7.524
 5109POPC   NC366227  30.472  43.445   5.497
 5109POPC   PO466228  31.027  43.194   5.244
 5109POPC   GL166229  30.869  43.231   5.733
 5109POPC   GL266230  30.531  43.366   5.973
 5109POPC   C1A66231  30.978  43.312   6.167
 5109POPC   D2A66232  31.051  43.093   6.521
 5109POPC   C3A66233  30.869  43.162   6.899
 5109POPC   C4A66234  30.901  43.485   7.209
 5109POPC   C1B66235  30.604  42.961   6.159
 5109POPC   C2B66236  30.533  42.906   6.592
 5109POPC   C3B66237  30.360  43.090   6.954
 5109POPC   C4B66238  30.545  43.173   7.329
 5110POPC   NC366239   1.005  35.887   5.185
 5110POPC   PO466240   1.273  36.272   5.653
 5110POPC   GL166241   0.988  36.269   5.947
 5110POPC   GL266242   0.788  35.969   5.987
 5110POPC   C1A66243   1.085  36.157   6.359
 5110POPC   D2A66244   1.345  36.113   6.722
 5110POPC   C3A66245   1.233  36.257   7.148
 5110POPC   C4A66246   1.326  36.175   7.617
 5110POPC   C1B66247   0.645  35.877   6.340
 5110POPC   C2B66248   0.826  35.911   6.718
 5110POPC   C3B66249   0.711  36.030   7.073
 5110POPC   C4B66250   0.869  36.046   7.453
 5111POPC   NC366251  23.963  23.412   5.076
 5111POPC   PO466252  24.166  22.974   5.536
 5111POPC   GL166253  23.918  22.969   5.892
 5111POPC   GL266254  23.594  22.823   5.838
 5111POPC   C1A66255  23.864  22.928   6.325
 5111POPC   D2A66256  23.896  23.195   6.661
 5111POPC   C3A66257  23.788  23.035   7.062
 5111POPC   C4A66258  23.792  23.214   7.461
 5111POPC   C1B66259  23.382  22.785   6.247
 5111POPC   C2B66260  23.466  22.874   6.677
 5111POPC   C3B66261  23.373  22.728   7.100
 5111POPC   C4B66262  23.590  22.410   7.350
 5112POPC   NC366263   1.499  21.152   5.547
 5112POPC   PO466264   1.045  21.562   5.168
 5112POPC   GL166265   1.037  21.549   5.671
 5112POPC   GL266266   1.171  21.273   5.917
 5112POPC   C1A66267   1.098  21.732   6.107
 5112POPC   D2A66268   1.069  21.430   6.443
 5112POPC   C3A66269   0.929  21.447   6.884
 5112POPC   C4A66270   1.100  21.647   7.251
 5112POPC   C1B66271   1.526  21.366   6.228
 5112POPC   C2B66272   1.595  21.350   6.699
 5112POPC   C3B66273   1.434  21.254   7.126
 5112POPC   C4B66274   1.629  21.009   7.487
 5113POPC   NC366275  11.417  21.672   4.926
 5113POPC   PO466276  11.272  21.104   5.275
 5113POPC   GL166277  11.223  21.155   5.790
 5113POPC   GL266278  11.042  20.926   5.882
 5113POPC   C1A66279  11.284  21.452   6.176
 5113POPC   D2A66280  11.141  21.683   6.572
 5113POPC   C3A66281  11.174  21.501   7.018
 5113POPC   C4A66282  11.263  21.640   7.490
 5113POPC   C1B66283  11.307  20.936   6.259
 5113POPC   C2B66284  11.389  21.170   6.610
 5113POPC   C3B66285  11.538  21.040   6.957
 5113POPC   C4B66286  11.512  21.253   7.291
 5114POPC   NC366287  24.082   2.157   5.166
 5114POPC   PO466288  24.611   2.175   5.547
 5114POPC   GL166289  24.468   1.917   5.834
 5114POPC   GL266290  24.137   2.037   5.770
 5114POPC   C1A66291  24.597   1.793   6.263
 5114POPC   D2A66292  24.638   1.550   6.647
 5114POPC   C3A66293  24.630   1.857   6.939
 5114POPC   C4A66294  24.589   2.043   7.292
 5114POPC   C1B66295  24.259   2.197   6.204
 5114POPC   C2B66296  24.234   2.036   6.645
 5114POPC   C3B66297  24.109   2.092   7.096
 5114POPC   C4B66298  24.034   2.385   7.470
 5115POPC   NC366299  26.600  39.062   5.532
 5115POPC   PO466300  25.990  39.243   5.512
 5115POPC   GL166301  26.125  39.339   5.897
 5115POPC   GL266302  26.444  39.506   5.783
 5115POPC   C1A66303  25.989  39.092   6.287
 5115POPC   D2A66304  25.836  38.915   6.706
 5115POPC   C3A66305  25.986  39.240   6.999
 5115POPC   C4A66306  26.122  39.499   7.383
 5115POPC   C1B66307  26.530  39.381   6.202
 5115POPC   C2B66308  26.378  39.276   6.602
 5115POPC   C3B66309  26.477  39.367   7.001
 5115POPC   C4B66310  26.374  39.042   7.299
 5116POPC   NC366311  29.648  41.973   5.645
 5116POPC   PO466312  30.204  41.574   5.554
 5116POPC   GL166313  29.886  41.550   5.827
 5116POPC   GL266314  30.062  41.322   5.988
 5116POPC   C1A66315  29.767  41.639   6.264
 5116POPC   D2A66316  29.758  41.434   6.674
 5116POPC   C3A66317  29.872  41.760   6.952
 5116POPC   C4A66318  29.744  41.891   7.347
 5116POPC   C1B66319  30.300  41.551   6.227
 5116POPC   C2B66320  30.256  41.598   6.631
 5116POPC   C3B66321  30.219  41.362   6.977
 5116POPC   C4B66322  30.119  41.519   7.318
 5117POPC   NC366323  33.940  35.698   5.479
 5117POPC   PO466324  33.487  36.269   5.324
 5117POPC   GL166325  33.465  36.100   5.748
 5117POPC   GL266326  33.783  36.113   5.726
 5117POPC   C1A66327  33.632  35.840   6.136
 5117POPC   D2A66328  33.583  36.050   6.537
 5117POPC   C3A66329  33.655  35.835   6.919
 5117POPC   C4A66330  33.613  35.988   7.354
 5117POPC   C1B66331  33.807  36.303   6.123
 5117POPC   C2B66332  34.060  36.296   6.466
 5117POPC   C3B66333  33.933  36.277   6.862
 5117POPC   C4B66334  33.851  36.462   7.252
 5118POPC   NC366335  35.627   2.868   5.414
 5118POPC   PO466336  35.304   2.390   5.044
 5118POPC   GL166337  35.310   2.489   5.544
 5118POPC   GL266338  35.004   2.542   5.701
 5118POPC   C1A66339  35.383   2.704   6.011
 5118POPC   D2A66340  35.444   2.729   6.487
 5118POPC   C3A66341  35.398   3.009   6.848
 5118POPC   C4A66342  35.429   2.909   7.325
 5118POPC   C1B66343  35.019   2.391   6.162
 5118POPC   C2B66344  35.052   2.438   6.624
 5118POPC   C3B66345  35.032   2.725   7.018
 5118POPC   C4B66346  35.025   2.600   7.458
 5119POPC   NC366347  30.489  23.657   5.232
 5119POPC   PO466348  29.802  23.918   5.410
 5119POPC   GL166349  29.793  23.843   5.843
 5119POPC   GL266350  30.127  23.855   5.938
 5119POPC   C1A66351  29.783  23.578   6.221
 5119POPC   D2A66352  29.913  23.626   6.671
 5119POPC   C3A66353  29.815  23.393   7.052
 5119POPC   C4A66354  29.609  23.536   7.424
 5119POPC   C1B66355  30.173  23.987   6.355
 5119POPC   C2B66356  30.387  23.811   6.684
 5119POPC   C3B66357  30.269  23.674   7.093
 5119POPC   C4B66358  30.337  23.852   7.552
 5120POPC   NC366359  36.588   1.090   5.024
 5120POPC   PO466360  37.148   1.354   5.121
 5120POPC   GL166361  37.060   1.162   5.601
 5120POPC   GL266362  36.770   1.303   5.776
 5120POPC   C1A66363  37.070   1.044   6.099
 5120POPC   D2A66364  36.893   0.933   6.553
 5120POPC   C3A66365  37.111   1.046   6.951
 5120POPC   C4A66366  37.021   1.157   7.372
 5120POPC   C1B66367  36.734   1.445   6.231
 5120POPC   C2B66368  37.013   1.453   6.601
 5120POPC   C3B66369  37.031   1.562   7.047
 5120POPC   C4B66370  37.015   1.638   7.515
 5121POPC   NC366371   8.560   3.310   5.412
 5121POPC   PO466372   9.089   3.804   5.315
 5121POPC   GL166373   8.998   3.508   5.669
 5121POPC   GL266374   8.678   3.620   5.832
 5121POPC   C1A66375   9.014   3.371   6.128
 5121POPC   D2A66376   8.967   3.505   6.557
 5121POPC   C3A66377   8.928   3.276   6.929
 5121POPC   C4A66378   8.938   3.367   7.363
 5121POPC   C1B66379   8.799   3.876   6.228
 5121POPC   C2B66380   8.965   3.992   6.673
 5121POPC   C3B66381   8.827   3.786   7.056
 5121POPC   C4B66382   8.386   3.782   7.231
 5122POPC   NC366383   3.115  26.653   5.030
 5122POPC   PO466384   3.056  27.102   5.510
 5122POPC   GL166385   2.913  26.998   5.901
 5122POPC   GL266386   2.736  27.257   6.040
 5122POPC   C1A66387   2.692  26.663   6.123
 5122POPC   D2A66388   2.699  26.518   6.537
 5122POPC   C3A66389   2.528  26.744   6.822
 5122POPC   C4A66390   2.629  26.779   7.230
 5122POPC   C1B66391   2.769  27.067   6.449
 5122POPC   C2B66392   2.852  27.131   6.896
 5122POPC   C3B66393   3.097  26.971   7.252
 5122POPC   C4B66394   3.141  27.086   7.653
 5123POPC   NC366395  42.019  16.853   5.338
 5123POPC   PO466396  42.667  16.645   5.302
 5123POPC   GL166397  42.402  16.703   5.696
 5123POPC   GL266398  42.537  16.368   5.771
 5123POPC   C1A66399  42.349  16.952   6.149
 5123POPC   D2A66400  42.254  16.718   6.596
 5123POPC   C3A66401  42.265  16.850   7.061
 5123POPC   C4A66402  42.172  17.083   7.475
 5123POPC   C1B66403  42.537  16.491   6.196
 5123POPC   C2B66404  42.762  16.813   6.455
 5123POPC   C3B66405  42.782  16.891   6.894
 5123POPC   C4B66406  42.708  16.579   7.187
 5124POPC   NC366407  34.684  13.838   5.592
 5124POPC   PO466408  34.728  14.568   5.506
 5124POPC   GL166409  34.690  14.317   5.842
 5124POPC   GL266410  34.619  14.607   6.050
 5124POPC   C1A66411  34.754  14.174   6.263
 5124POPC   D2A66412  34.741  14.399   6.649
 5124POPC   C3A66413  34.808  14.172   7.028
 5124POPC   C4A66414  34.595  14.328   7.361
 5124POPC   C1B66415  34.309  14.824   6.298
 5124POPC   C2B66416  34.251  14.739   6.709
 5124POPC   C3B66417  34.537  14.702   7.028
 5124POPC   C4B66418  34.397  14.849   7.400
 5125POPC   NC366419  26.700  40.167   5.328
 5125POPC   PO466420  26.787  39.482   5.331
 5125POPC   GL166421  26.847  39.798   5.654
 5125POPC   GL266422  27.126  40.029   5.716
 5125POPC   C1A66423  26.737  39.851   6.099
 5125POPC   D2A66424  26.511  39.782   6.517
 5125POPC   C3A66425  26.597  39.866   6.933
 5125POPC   C4A66426  26.571  39.756   7.347
 5125POPC   C1B66427  26.996  40.293   6.097
 5125POPC   C2B66428  26.924  40.115   6.524
 5125POPC   C3B66429  27.058  40.087   6.941
 5125POPC   C4B66430  26.794  40.269   7.176
 5126POPC   NC366431  23.099   8.047   5.423
 5126POPC   PO466432  22.702   8.552   5.356
 5126POPC   GL166433  22.900   8.418   5.742
 5126POPC   GL266434  22.680   8.126   5.743
 5126POPC   C1A66435  23.086   8.431   6.176
 5126POPC   D2A66436  23.287   8.351   6.594
 5126POPC   C3A66437  23.035   8.346   6.981
 5126POPC   C4A66438  22.954   8.054   7.321
 5126POPC   C1B66439  22.566   8.147   6.166
 5126POPC   C2B66440  22.823   8.139   6.529
 5126POPC   C3B66441  22.768   7.900   6.882
 5126POPC   C4B66442  22.428   7.920   7.207
 5127POPC   NC366443  24.568  37.723   5.439
 5127POPC   PO466444  24.092  37.302   5.468
 5127POPC   GL166445  24.361  37.470   5.839
 5127POPC   GL266446  24.699  37.404   5.841
 5127POPC   C1A66447  24.544  37.747   6.214
 5127POPC   D2A66448  24.391  37.918   6.641
 5127POPC   C3A66449  24.324  37.822   7.116
 5127POPC   C4A66450  24.412  37.985   7.556
 5127POPC   C1B66451  24.586  37.248   6.257
 5127POPC   C2B66452  24.587  37.433   6.658
 5127POPC   C3B66453  24.500  37.318   7.047
 5127POPC   C4B66454  24.451  37.460   7.461
 5128POPC   NC366455  21.649   9.023   5.458
 5128POPC   PO466456  21.225   8.539   5.263
 5128POPC   GL166457  21.088   8.664   5.703
 5128POPC   GL266458  21.270   8.977   5.828
 5128POPC   C1A66459  21.139   8.638   6.174
 5128POPC   D2A66460  21.418   8.716   6.536
 5128POPC   C3A66461  21.246   8.823   6.939
 5128POPC   C4A66462  21.269   9.111   7.293
 5128POPC   C1B66463  21.136   9.156   6.267
 5128POPC   C2B66464  21.282   9.273   6.703
 5128POPC   C3B66465  21.640   9.324   7.006
 5128POPC   C4B66466  21.897   9.455   7.372
 5129POPC   NC366467   5.837  29.666   5.255
 5129POPC   PO466468   6.084  30.332   5.360
 5129POPC   GL166469   5.926  30.008   5.658
 5129POPC   GL266470   5.717  30.179   5.876
 5129POPC   C1A66471   6.031  29.807   6.082
 5129POPC   D2A66472   6.250  29.934   6.481
 5129POPC   C3A66473   6.144  29.913   6.941
 5129POPC   C4A66474   5.918  30.205   7.204
 5129POPC   C1B66475   5.547  29.942   6.206
 5129POPC   C2B66476   5.728  29.823   6.612
 5129POPC   C3B66477   5.615  29.795   7.065
 5129POPC   C4B66478   5.299  30.000   7.368
 5130POPC   NC366479  42.960   0.721   5.594
 5130POPC   PO466480  42.758   0.145   5.400
 5130POPC   GL166481  42.955   0.259   5.868
 5130POPC   GL266482  43.261   0.444   5.937
 5130POPC   C1A66483  43.010   0.240   6.357
 5130POPC   D2A66484  42.732   0.346   6.732
 5130POPC   C3A66485  42.882   0.495   7.105
 5130POPC   C4A66486  43.190   0.527   7.421
 5130POPC   C1B66487  43.384   0.660   6.264
 5130POPC   C2B66488  43.251   0.581   6.671
 5130POPC   C3B66489  43.407   0.740   6.997
 5130POPC   C4B66490  43.638   0.709   7.341
 5131POPC   NC366491  26.052  14.642   5.287
 5131POPC   PO466492  26.352  15.183   5.286
 5131POPC   GL166493  26.079  15.109   5.672
 5131POPC   GL266494  25.985  15.411   5.879
 5131POPC   C1A66495  26.241  15.052   6.127
 5131POPC   D2A66496  26.363  15.007   6.573
 5131POPC   C3A66497  26.121  15.193   6.902
 5131POPC   C4A66498  26.140  15.391   7.311
 5131POPC   C1B66499  25.710  15.389   6.221
 5131POPC   C2B66500  25.665  15.288   6.670
 5131POPC   C3B66501  25.676  15.357   7.117
 5131POPC   C4B66502  25.711  15.488   7.567
 5132POPC   NC366503  18.491  37.448   5.313
 5132POPC   PO466504  18.004  37.704   5.623
 5132POPC   GL166505  18.004  37.457   5.972
 5132POPC   GL266506  18.242  37.259   5.805
 5132POPC   C1A66507  18.054  37.607   6.393
 5132POPC   D2A66508  18.001  37.759   6.838
 5132POPC   C3A66509  18.257  37.821   7.203
 5132POPC   C4A66510  18.222  38.013   7.597
 5132POPC   C1B66511  18.378  37.210   6.254
 5132POPC   C2B66512  18.189  37.210   6.683
 5132POPC   C3B66513  18.285  37.312   7.115
 5132POPC   C4B66514  18.452  37.362   7.544
 5133POPC   NC366515  17.802  27.925   5.324
 5133POPC   PO466516  18.407  27.513   5.107
 5133POPC   GL166517  18.123  27.556   5.516
 5133POPC   GL266518  18.113  27.915   5.718
 5133POPC   C1A66519  18.119  27.494   5.974
 5133POPC   D2A66520  18.241  27.537   6.414
 5133POPC   C3A66521  18.290  27.547   6.859
 5133POPC   C4A66522  18.578  27.460   7.185
 5133POPC   C1B66523  18.136  27.977   6.163
 5133POPC   C2B66524  18.325  28.029   6.572
 5133POPC   C3B66525  18.167  28.033   6.983
 5133POPC   C4B66526  18.283  27.867   7.310
 5134POPC   NC366527  34.603   9.216   5.288
 5134POPC   PO466528  34.926   8.735   5.168
 5134POPC   GL166529  34.630   8.734   5.544
 5134POPC   GL266530  34.719   9.027   5.731
 5134POPC   C1A66531  34.550   8.646   6.004
 5134POPC   D2A66532  34.722   8.743   6.416
 5134POPC   C3A66533  34.476   8.702   6.796
 5134POPC   C4A66534  34.599   8.889   7.182
 5134POPC   C1B66535  34.908   9.169   6.101
 5134POPC   C2B66536  34.904   9.370   6.474
 5134POPC   C3B66537  34.814   9.226   6.859
 5134POPC   C4B66538  34.806   9.362   7.272
 5135POPC   NC366539  27.421  29.237   5.465
 5135POPC   PO466540  28.114  29.433   5.393
 5135POPC   GL166541  27.855  29.278   5.747
 5135POPC   GL266542  28.052  29.059   5.895
 5135POPC   C1A66543  27.675  29.181   6.215
 5135POPC   D2A66544  27.531  29.082   6.681
 5135POPC   C3A66545  27.473  29.290   7.091
 5135POPC   C4A66546  27.316  29.449   7.502
 5135POPC   C1B66547  28.116  28.855   6.260
 5135POPC   C2B66548  28.212  28.823   6.697
 5135POPC   C3B66549  27.965  29.010   7.022
 5135POPC   C4B66550  27.639  28.816   7.201
 5136POPC   NC366551   6.138  13.148   5.014
 5136POPC   PO466552   5.925  12.585   5.414
 5136POPC   GL166553   5.765  12.707   5.823
 5136POPC   GL266554   6.096  12.741   5.939
 5136POPC   C1A66555   5.748  12.797   6.299
 5136POPC   D2A66556   5.930  12.547   6.639
 5136POPC   C3A66557   5.736  12.739   7.027
 5136POPC   C4A66558   5.672  12.924   7.445
 5136POPC   C1B66559   6.253  12.869   6.327
 5136POPC   C2B66560   6.199  12.963   6.766
 5136POPC   C3B66561   6.281  12.867   7.182
 5136POPC   C4B66562   6.268  12.970   7.643
 5137POPC   NC366563   3.454  14.469   5.455
 5137POPC   PO466564   3.867  13.923   5.433
 5137POPC   GL166565   3.685  14.157   5.807
 5137POPC   GL266566   3.701  14.542   5.897
 5137POPC   C1A66567   3.566  14.202   6.259
 5137POPC   D2A66568   3.280  14.303   6.597
 5137POPC   C3A66569   3.512  14.275   6.977
 5137POPC   C4A66570   3.338  14.293   7.365
 5137POPC   C1B66571   3.455  14.706   6.289
 5137POPC   C2B66572   3.465  14.751   6.768
 5137POPC   C3B66573   3.585  14.740   7.212
 5137POPC   C4B66574   3.360  14.791   7.586
 5138POPC   NC366575  20.373  17.049   5.655
 5138POPC   PO466576  20.237  16.470   5.565
 5138POPC   GL166577  20.578  16.599   5.876
 5138POPC   GL266578  20.874  16.332   5.854
 5138POPC   C1A66579  20.607  16.858   6.299
 5138POPC   D2A66580  20.411  16.998   6.729
 5138POPC   C3A66581  20.624  16.871   7.116
 5138POPC   C4A66582  20.523  16.813   7.561
 5138POPC   C1B66583  20.743  16.347   6.301
 5138POPC   C2B66584  20.494  16.477   6.670
 5138POPC   C3B66585  20.449  16.387   7.109
 5138POPC   C4B66586  20.827  16.426   7.376
 5139POPC   NC366587  40.908  21.535   5.268
 5139POPC   PO466588  40.564  21.034   5.612
 5139POPC   GL166589  40.733  21.446   5.781
 5139POPC   GL266590  41.092  21.533   5.737
 5139POPC   C1A66591  40.728  21.458   6.240
 5139POPC   D2A66592  40.847  21.050   6.463
 5139POPC   C3A66593  40.875  21.060   6.907
 5139POPC   C4A66594  40.609  21.210   7.206
 5139POPC   C1B66595  41.210  21.361   6.122
 5139POPC   C2B66596  41.160  21.450   6.553
 5139POPC   C3B66597  40.819  21.580   6.816
 5139POPC   C4B66598  40.931  21.632   7.235
 5140POPC   NC366599  37.258   9.485   5.546
 5140POPC   PO466600  36.604   9.740   5.375
 5140POPC   GL166601  36.800   9.667   5.777
 5140POPC   GL266602  37.050   9.893   5.763
 5140POPC   C1A66603  36.738   9.891   6.178
 5140POPC   D2A66604  36.929  10.059   6.556
 5140POPC   C3A66605  36.766   9.875   6.889
 5140POPC   C4A66606  36.904   9.736   7.259
 5140POPC   C1B66607  37.256   9.930   6.161
 5140POPC   C2B66608  37.406   9.811   6.530
 5140POPC   C3B66609  37.269   9.755   6.913
 5140POPC   C4B66610  37.173  10.148   7.087
 5141POPC   NC366611   2.489  28.492   5.472
 5141POPC   PO466612   1.902  28.280   5.411
 5141POPC   GL166613   2.150  28.275   5.794
 5141POPC   GL266614   2.257  27.952   5.936
 5141POPC   C1A66615   2.128  28.387   6.242
 5141POPC   D2A66616   2.075  28.317   6.694
 5141POPC   C3A66617   2.106  28.527   7.089
 5141POPC   C4A66618   2.112  28.426   7.561
 5141POPC   C1B66619   1.808  28.011   6.075
 5141POPC   C2B66620   1.643  28.194   6.453
 5141POPC   C3B66621   1.632  28.081   6.901
 5141POPC   C4B66622   1.921  28.068   7.232
 5142POPC   NC366623  16.284  19.391   5.400
 5142POPC   PO466624  15.665  19.221   5.538
 5142POPC   GL166625  15.867  19.258   5.912
 5142POPC   GL266626  16.046  18.961   6.031
 5142POPC   C1A66627  15.747  19.197   6.357
 5142POPC   D2A66628  15.978  19.322   6.706
 5142POPC   C3A66629  15.775  19.250   7.079
 5142POPC   C4A66630  15.784  18.950   7.436
 5142POPC   C1B66631  16.284  19.280   6.257
 5142POPC   C2B66632  16.469  19.442   6.651
 5142POPC   C3B66633  16.485  19.369   7.085
 5142POPC   C4B66634  16.153  19.325   7.389
 5143POPC   NC366635   1.545  25.343   5.214
 5143POPC   PO466636   1.032  25.036   5.373
 5143POPC   GL166637   1.201  25.266   5.706
 5143POPC   GL266638   1.311  25.009   5.886
 5143POPC   C1A66639   1.205  25.428   6.167
 5143POPC   D2A66640   1.190  25.294   6.649
 5143POPC   C3A66641   1.219  25.503   7.103
 5143POPC   C4A66642   1.153  25.276   7.522
 5143POPC   C1B66643   1.499  25.003   6.303
 5143POPC   C2B66644   1.502  24.872   6.750
 5143POPC   C3B66645   1.264  24.961   7.129
 5143POPC   C4B66646   1.151  24.730   7.522
 5144POPC   NC366647  19.156  34.808   5.349
 5144POPC   PO466648  18.907  34.189   5.401
 5144POPC   GL166649  18.997  34.323   5.798
 5144POPC   GL266650  19.033  34.660   5.805
 5144POPC   C1A66651  19.078  34.227   6.216
 5144POPC   D2A66652  19.068  34.451   6.599
 5144POPC   C3A66653  19.197  34.307   6.975
 5144POPC   C4A66654  18.985  34.389   7.343
 5144POPC   C1B66655  19.117  34.789   6.214
 5144POPC   C2B66656  18.867  34.932   6.573
 5144POPC   C3B66657  18.927  34.778   6.997
 5144POPC   C4B66658  18.757  34.823   7.417
 5145POPC   NC366659  39.043   6.176   5.076
 5145POPC   PO466660  39.358   5.707   5.408
 5145POPC   GL166661  39.463   5.735   5.862
 5145POPC   GL266662  39.734   5.459   5.921
 5145POPC   C1A66663  39.189   5.821   6.224
 5145POPC   D2A66664  39.094   6.109   6.568
 5145POPC   C3A66665  39.137   5.901   6.961
 5145POPC   C4A66666  39.069   6.062   7.371
 5145POPC   C1B66667  39.524   5.423   6.285
 5145POPC   C2B66668  39.286   5.505   6.630
 5145POPC   C3B66669  39.453   5.486   7.023
 5145POPC   C4B66670  39.374   5.604   7.436
 5146POPC   NC366671   0.013  38.033   5.492
 5146POPC   PO466672  44.623  38.549   5.395
 5146POPC   GL166673  44.628  38.697   5.822
 5146POPC   GL266674  44.979  38.817   5.862
 5146POPC   C1A66675  44.357  38.592   6.209
 5146POPC   D2A66676  44.407  38.303   6.577
 5146POPC   C3A66677  44.477  38.482   6.981
 5146POPC   C4A66678  44.456  38.363   7.400
 5146POPC   C1B66679  44.859  38.621   6.273
 5146POPC   C2B66680  44.890  38.471   6.693
 5146POPC   C3B66681  44.962  38.358   7.141
 5146POPC   C4B66682  44.918  38.482   7.602
 5147POPC   NC366683  24.004  15.148   4.979
 5147POPC   PO466684  23.418  14.974   5.089
 5147POPC   GL166685  23.536  14.947   5.557
 5147POPC   GL266686  23.910  14.896   5.645
 5147POPC   C1A66687  23.594  15.124   5.996
 5147POPC   D2A66688  23.788  15.241   6.423
 5147POPC   C3A66689  23.550  15.240   6.822
 5147POPC   C4A66690  23.681  15.423   7.205
 5147POPC   C1B66691  24.082  14.961   6.081
 5147POPC   C2B66692  24.219  14.979   6.516
 5147POPC   C3B66693  24.083  15.209   6.887
 5147POPC   C4B66694  24.138  15.256   7.343
 5148POPC   NC366695  43.957  42.573   5.367
 5148POPC   PO466696  44.269  42.004   5.489
 5148POPC   GL166697  43.991  42.209   5.822
 5148POPC   GL266698  43.909  42.590   5.866
 5148POPC   C1A66699  43.922  42.325   6.287
 5148POPC   D2A66700  43.960  42.683   6.572
 5148POPC   C3A66701  44.096  42.531   6.984
 5148POPC   C4A66702  43.890  42.262   7.251
 5148POPC   C1B66703  43.613  42.727   6.181
 5148POPC   C2B66704  43.448  42.889   6.533
 5148POPC   C3B66705  43.598  42.841   6.921
 5148POPC   C4B66706  43.480  42.586   7.267
 5149POPC   NC366707  20.048  11.730   5.233
 5149POPC   PO466708  19.700  11.178   5.051
 5149POPC   GL166709  19.769  11.339   5.500
 5149POPC   GL266710  19.716  11.055   5.709
 5149POPC   C1A66711  19.820  11.464   5.979
 5149POPC   D2A66712  19.635  11.576   6.416
 5149POPC   C3A66713  19.778  11.489   6.859
 5149POPC   C4A66714  19.528  11.576   7.254
 5149POPC   C1B66715  20.099  11.013   5.972
 5149POPC   C2B66716  20.149  11.014   6.452
 5149POPC   C3B66717  19.969  10.977   6.896
 5149POPC   C4B66718  19.883  11.212   7.285
 5150POPC   NC366719  25.494  13.284   5.416
 5150POPC   PO466720  25.221  13.879   5.413
 5150POPC   GL166721  25.460  13.692   5.721
 5150POPC   GL266722  25.212  13.470   5.797
 5150POPC   C1A66723  25.440  13.779   6.152
 5150POPC   D2A66724  25.505  13.627   6.542
 5150POPC   C3A66725  25.274  13.800   6.880
 5150POPC   C4A66726  25.431  13.965   7.243
 5150POPC   C1B66727  25.232  13.295   6.182
 5150POPC   C2B66728  25.075  13.347   6.581
 5150POPC   C3B66729  25.350  13.302   6.917
 5150POPC   C4B66730  25.293  13.448   7.312
 5151POPC   NC366731  12.644   0.432   5.190
 5151POPC   PO466732  13.243   0.122   5.397
 5151POPC   GL166733  12.933   0.108   5.736
 5151POPC   GL266734  12.708   0.385   5.701
 5151POPC   C1A66735  13.010   0.299   6.145
 5151POPC   D2A66736  13.132   0.518   6.525
 5151POPC   C3A66737  12.987   0.415   6.926
 5151POPC   C4A66738  12.905   0.366   7.378
 5151POPC   C1B66739  12.578   0.599   6.094
 5151POPC   C2B66740  12.612   0.433   6.548
 5151POPC   C3B66741  12.517   0.555   6.983
 5151POPC   C4B66742  12.508   0.656   7.412
 5152POPC   NC366743   5.589  32.769   5.190
 5152POPC   PO466744   5.938  33.197   5.580
 5152POPC   GL166745   5.640  33.068   5.867
 5152POPC   GL266746   5.559  33.375   5.938
 5152POPC   C1A66747   5.704  32.802   6.254
 5152POPC   D2A66748   5.965  32.775   6.618
 5152POPC   C3A66749   5.820  32.632   7.025
 5152POPC   C4A66750   6.002  32.817   7.398
 5152POPC   C1B66751   5.866  33.300   6.267
 5152POPC   C2B66752   6.099  33.275   6.623
 5152POPC   C3B66753   5.961  33.141   7.006
 5152POPC   C4B66754   5.806  33.327   7.358
 5153POPC   NC366755  16.239  33.591   5.312
 5153POPC   PO466756  15.735  34.009   5.146
 5153POPC   GL166757  15.802  33.906   5.636
 5153POPC   GL266758  16.158  33.863   5.771
 5153POPC   C1A66759  15.636  33.926   6.107
 5153POPC   D2A66760  15.600  34.124   6.550
 5153POPC   C3A66761  15.863  34.031   6.913
 5153POPC   C4A66762  15.971  34.116   7.333
 5153POPC   C1B66763  16.012  33.577   6.125
 5153POPC   C2B66764  15.847  33.627   6.574
 5153POPC   C3B66765  16.048  33.563   7.005
 5153POPC   C4B66766  16.129  33.647   7.437
 5154POPC   NC366767  34.437   0.912   5.640
 5154POPC   PO466768  34.180   1.485   5.648
 5154POPC   GL166769  34.575   1.376   5.889
 5154POPC   GL266770  34.790   1.044   5.982
 5154POPC   C1A66771  34.736   1.437   6.295
 5154POPC   D2A66772  34.713   1.162   6.636
 5154POPC   C3A66773  34.601   1.379   7.000
 5154POPC   C4A66774  34.883   1.493   7.328
 5154POPC   C1B66775  34.397   1.011   6.265
 5154POPC   C2B66776  34.338   0.776   6.640
 5154POPC   C3B66777  34.579   0.839   7.002
 5154POPC   C4B66778  34.544   1.027   7.360
 5155POPC   NC366779  26.105  34.940   5.410
 5155POPC   PO466780  26.268  35.626   5.478
 5155POPC   GL166781  26.100  35.343   5.768
 5155POPC   GL266782  26.349  35.090   5.820
 5155POPC   C1A66783  25.998  35.457   6.177
 5155POPC   D2A66784  26.154  35.623   6.578
 5155POPC   C3A66785  25.916  35.523   6.921
 5155POPC   C4A66786  25.834  35.354   7.299
 5155POPC   C1B66787  26.151  34.983   6.196
 5155POPC   C2B66788  26.058  35.126   6.593
 5155POPC   C3B66789  26.021  34.996   6.994
 5155POPC   C4B66790  26.202  35.008   7.400
 5156POPC   NC366791  42.161  34.600   5.576
 5156POPC   PO466792  42.722  34.250   5.634
 5156POPC   GL166793  42.389  34.314   5.933
 5156POPC   GL266794  42.069  34.176   5.874
 5156POPC   C1A66795  42.265  34.601   6.253
 5156POPC   D2A66796  42.474  34.701   6.630
 5156POPC   C3A66797  42.473  34.375   6.947
 5156POPC   C4A66798  42.531  34.541   7.322
 5156POPC   C1B66799  41.998  34.165   6.315
 5156POPC   C2B66800  42.018  34.360   6.718
 5156POPC   C3B66801  42.085  34.730   6.997
 5156POPC   C4B66802  41.902  34.903   7.379
 5157POPC   NC366803  23.373  33.643   5.331
 5157POPC   PO466804  22.908  33.270   5.438
 5157POPC   GL166805  22.875  33.416   5.848
 5157POPC   GL266806  22.561  33.291   5.892
 5157POPC   C1A66807  22.972  33.303   6.304
 5157POPC   D2A66808  22.880  33.366   6.758
 5157POPC   C3A66809  23.079  33.149   7.121
 5157POPC   C4A66810  23.185  33.262   7.580
 5157POPC   C1B66811  22.518  33.544   6.256
 5157POPC   C2B66812  22.399  33.529   6.698
 5157POPC   C3B66813  22.506  33.342   7.111
 5157POPC   C4B66814  22.256  33.132   7.417
 5158POPC   NC366815   6.123  36.665   5.590
 5158POPC   PO466816   6.125  37.337   5.517
 5158POPC   GL166817   5.949  37.137   5.876
 5158POPC   GL266818   5.702  36.897   5.807
 5158POPC   C1A66819   5.745  37.263   6.270
 5158POPC   D2A66820   5.542  37.156   6.674
 5158POPC   C3A66821   5.749  36.923   7.021
 5158POPC   C4A66822   5.910  37.136   7.441
 5158POPC   C1B66823   5.846  36.740   6.218
 5158POPC   C2B66824   5.812  36.569   6.637
 5158POPC   C3B66825   6.091  36.525   6.956
 5158POPC   C4B66826   6.048  36.663   7.369
 5159POPC   NC366827   1.600  36.591   5.616
 5159POPC   PO466828   2.143  36.756   5.356
 5159POPC   GL166829   2.012  37.024   5.728
 5159POPC   GL266830   1.684  36.966   5.929
 5159POPC   C1A66831   2.076  37.144   6.181
 5159POPC   D2A66832   2.006  36.963   6.604
 5159POPC   C3A66833   2.247  37.179   6.932
 5159POPC   C4A66834   2.261  37.211   7.372
 5159POPC   C1B66835   1.795  36.648   6.248
 5159POPC   C2B66836   1.603  36.619   6.655
 5159POPC   C3B66837   1.691  36.840   7.046
 5159POPC   C4B66838   1.807  36.945   7.479
 5160POPC   NC366839   9.111  24.680   5.502
 5160POPC   PO466840   8.892  24.113   5.646
 5160POPC   GL166841   8.919  24.455   5.933
 5160POPC   GL266842   9.284  24.486   5.937
 5160POPC   C1A66843   8.707  24.537   6.335
 5160POPC   D2A66844   8.748  24.366   6.752
 5160POPC   C3A66845   8.631  24.629   7.083
 5160POPC   C4A66846   8.827  24.594   7.514
 5160POPC   C1B66847   9.222  24.602   6.353
 5160POPC   C2B66848   9.083  24.839   6.700
 5160POPC   C3B66849   9.141  24.676   7.102
 5160POPC   C4B66850   9.032  24.226   7.201
 5161POPC   NC366851  42.190  11.899   5.341
 5161POPC   PO466852  42.555  12.514   5.340
 5161POPC   GL166853  42.344  12.276   5.679
 5161POPC   GL266854  42.566  12.007   5.711
 5161POPC   C1A66855  42.281  12.116   6.121
 5161POPC   D2A66856  42.473  11.953   6.514
 5161POPC   C3A66857  42.182  12.056   6.831
 5161POPC   C4A66858  41.987  11.873   7.186
 5161POPC   C1B66859  42.800  12.071   6.112
 5161POPC   C2B66860  42.928  12.204   6.527
 5161POPC   C3B66861  42.673  12.241   6.911
 5161POPC   C4B66862  42.546  11.848   7.137
 5162POPC   NC366863  35.418   2.021   5.295
 5162POPC   PO466864  35.620   1.371   5.266
 5162POPC   GL166865  35.589   1.745   5.663
 5162POPC   GL266866  35.574   2.107   5.773
 5162POPC   C1A66867  35.409   1.753   6.112
 5162POPC   D2A66868  35.165   1.958   6.426
 5162POPC   C3A66869  35.253   1.995   6.834
 5162POPC   C4A66870  35.307   1.740   7.170
 5162POPC   C1B66871  35.551   2.251   6.194
 5162POPC   C2B66872  35.688   2.299   6.606
 5162POPC   C3B66873  35.450   2.442   6.951
 5162POPC   C4B66874  35.347   2.233   7.317
 5163POPC   NC366875  20.234  36.627   5.132
 5163POPC   PO466876  20.266  37.151   5.512
 5163POPC   GL166877  19.993  36.826   5.788
 5163POPC   GL266878  19.672  36.589   5.848
 5163POPC   C1A66879  19.925  36.788   6.249
 5163POPC   D2A66880  19.712  36.912   6.632
 5163POPC   C3A66881  19.894  36.766   7.037
 5163POPC   C4A66882  20.202  36.767   7.402
 5163POPC   C1B66883  19.489  36.486   6.295
 5163POPC   C2B66884  19.506  36.463   6.756
 5163POPC   C3B66885  19.467  36.504   7.182
 5163POPC   C4B66886  19.707  36.700   7.528
 5164POPC   NC366887  41.696  27.299   5.297
 5164POPC   PO466888  41.616  27.998   5.220
 5164POPC   GL166889  41.619  27.675   5.636
 5164POPC   GL266890  41.337  27.437   5.687
 5164POPC   C1A66891  41.729  27.811   6.094
 5164POPC   D2A66892  41.514  27.803   6.504
 5164POPC   C3A66893  41.640  27.751   6.920
 5164POPC   C4A66894  41.355  27.734   7.255
 5164POPC   C1B66895  41.513  27.359   6.130
 5164POPC   C2B66896  41.672  27.323   6.590
 5164POPC   C3B66897  41.460  27.274   7.031
 5164POPC   C4B66898  41.524  27.308   7.498
 5165POPC   NC366899  34.049  23.765   5.583
 5165POPC   PO466900  33.617  23.423   5.210
 5165POPC   GL166901  33.572  23.566   5.672
 5165POPC   GL266902  33.575  23.950   5.758
 5165POPC   C1A66903  33.725  23.535   6.130
 5165POPC   D2A66904  33.611  23.312   6.541
 5165POPC   C3A66905  33.664  23.511   6.941
 5165POPC   C4A66906  34.000  23.452   7.239
 5165POPC   C1B66907  33.418  23.956   6.210
 5165POPC   C2B66908  33.328  23.810   6.643
 5165POPC   C3B66909  33.487  24.016   7.026
 5165POPC   C4B66910  33.695  23.836   7.384
 5166POPC   NC366911   0.781   1.467   5.071
 5166POPC   PO466912   0.944   1.087   5.605
 5166POPC   GL166913   1.031   1.248   5.954
 5166POPC   GL266914   1.392   1.270   5.979
 5166POPC   C1A66915   1.021   1.215   6.383
 5166POPC   D2A66916   1.318   1.198   6.703
 5166POPC   C3A66917   1.104   1.369   7.049
 5166POPC   C4A66918   0.893   1.157   7.404
 5166POPC   C1B66919   1.569   1.573   6.227
 5166POPC   C2B66920   1.769   1.621   6.592
 5166POPC   C3B66921   1.654   1.452   6.999
 5166POPC   C4B66922   1.498   1.116   7.222
 5167POPC   NC366923   1.036  21.963   5.384
 5167POPC   PO466924   1.335  22.536   5.576
 5167POPC   GL166925   1.255  22.186   5.847
 5167POPC   GL266926   1.435  21.887   5.747
 5167POPC   C1A66927   1.221  22.217   6.303
 5167POPC   D2A66928   1.502  22.291   6.658
 5167POPC   C3A66929   1.269  22.254   7.041
 5167POPC   C4A66930   0.912  22.523   7.114
 5167POPC   C1B66931   1.604  21.897   6.183
 5167POPC   C2B66932   1.404  21.801   6.583
 5167POPC   C3B66933   1.540  21.763   7.020
 5167POPC   C4B66934   1.582  21.728   7.459
 5168POPC   NC366935  39.363  26.199   5.613
 5168POPC   PO466936  39.555  25.671   5.297
 5168POPC   GL166937  39.480  25.730   5.791
 5168POPC   GL266938  39.108  25.879   5.919
 5168POPC   C1A66939  39.408  25.642   6.258
 5168POPC   D2A66940  39.261  25.808   6.678
 5168POPC   C3A66941  39.472  25.749   7.087
 5168POPC   C4A66942  39.452  25.935   7.520
 5168POPC   C1B66943  39.244  26.152   6.280
 5168POPC   C2B66944  39.157  26.310   6.726
 5168POPC   C3B66945  39.135  26.154   7.155
 5168POPC   C4B66946  39.110  26.328   7.605
 5169POPC   NC366947  21.630  13.050   5.366
 5169POPC   PO466948  21.243  12.408   5.366
 5169POPC   GL166949  21.426  12.543   5.759
 5169POPC   GL266950  21.373  12.887   5.793
 5169POPC   C1A66951  21.322  12.606   6.223
 5169POPC   D2A66952  21.389  12.774   6.632
 5169POPC   C3A66953  21.288  12.667   7.077
 5169POPC   C4A66954  21.468  12.910   7.433
 5169POPC   C1B66955  21.284  13.134   6.211
 5169POPC   C2B66956  21.130  13.226   6.671
 5169POPC   C3B66957  21.142  13.230   7.136
 5169POPC   C4B66958  20.854  13.514   7.388
 5170POPC   NC366959  22.461  21.827   5.496
 5170POPC   PO466960  22.692  21.243   5.618
 5170POPC   GL166961  22.777  21.583   5.921
 5170POPC   GL266962  23.133  21.565   6.059
 5170POPC   C1A66963  22.744  21.671   6.361
 5170POPC   D2A66964  22.789  21.485   6.766
 5170POPC   C3A66965  22.951  21.747   7.095
 5170POPC   C4A66966  22.981  21.629   7.524
 5170POPC   C1B66967  23.004  21.209   6.352
 5170POPC   C2B66968  22.872  20.969   6.737
 5170POPC   C3B66969  22.888  21.016   7.203
 5170POPC   C4B66970  23.042  20.652   7.490
 5171POPC   NC366971   3.134  17.205   5.419
 5171POPC   PO466972   2.794  17.758   5.216
 5171POPC   GL166973   2.873  17.712   5.670
 5171POPC   GL266974   2.591  17.867   5.790
 5171POPC   C1A66975   2.830  17.518   6.134
 5171POPC   D2A66976   3.025  17.513   6.559
 5171POPC   C3A66977   2.774  17.351   6.907
 5171POPC   C4A66978   2.867  17.240   7.316
 5171POPC   C1B66979   2.473  17.874   6.217
 5171POPC   C2B66980   2.534  17.709   6.591
 5171POPC   C3B66981   2.388  17.768   6.973
 5171POPC   C4B66982   2.566  17.654   7.300
 5172POPC   NC366983  13.781   0.122   5.303
 5172POPC   PO466984  13.556  44.477   5.432
 5172POPC   GL166985  13.702  44.777   5.730
 5172POPC   GL266986  13.346  44.797   5.798
 5172POPC   C1A66987  13.855  44.696   6.157
 5172POPC   D2A66988  13.893  44.347   6.453
 5172POPC   C3A66989  13.925  44.554   6.846
 5172POPC   C4A66990  13.623  44.760   7.104
 5172POPC   C1B66991  13.417  44.967   6.170
 5172POPC   C2B66992  13.502  44.821   6.578
 5172POPC   C3B66993  13.422   0.153   6.843
 5172POPC   C4B66994  13.336   0.179   7.217
 5173POPC   NC366995  13.784  26.433   5.635
 5173POPC   PO466996  13.498  26.877   5.465
 5173POPC   GL166997  13.371  26.979   5.869
 5173POPC   GL266998  13.581  26.745   6.005
 5173POPC   C1A66999  13.391  27.132   6.296
 5173POPC   D2A67000  13.532  27.026   6.713
 5173POPC   C3A67001  13.246  27.005   7.059
 5173POPC   C4A67002  13.278  26.795   7.482
 5173POPC   C1B67003  13.743  26.514   6.349
 5173POPC   C2B67004  13.648  26.490   6.783
 5173POPC   C3B67005  13.685  26.745   7.148
 5173POPC   C4B67006  13.866  26.778   7.556
 5174POPC   NC367007  32.645  41.507   5.678
 5174POPC   PO467008  33.191  41.844   5.448
 5174POPC   GL167009  33.080  41.700   5.822
 5174POPC   GL267010  32.823  41.902   5.907
 5174POPC   C1A67011  33.055  41.401   6.182
 5174POPC   D2A67012  32.841  41.364   6.571
 5174POPC   C3A67013  33.065  41.212   6.911
 5174POPC   C4A67014  33.273  41.427   7.203
 5174POPC   C1B67015  32.700  41.785   6.287
 5174POPC   C2B67016  32.863  41.991   6.604
 5174POPC   C3B67017  33.052  41.825   6.947
 5174POPC   C4B67018  32.869  41.919   7.321
 5175POPC   NC367019  14.259  41.703   5.387
 5175POPC   PO467020  14.852  42.034   5.614
 5175POPC   GL167021  14.537  41.653   5.831
 5175POPC   GL267022  14.156  41.636   5.869
 5175POPC   C1A67023  14.464  41.400   6.202
 5175POPC   D2A67024  14.315  41.553   6.587
 5175POPC   C3A67025  14.369  41.323   6.949
 5175POPC   C4A67026  14.424  41.500   7.344
 5175POPC   C1B67027  13.933  41.708   6.251
 5175POPC   C2B67028  13.804  41.657   6.655
 5175POPC   C3B67029  14.008  41.681   7.027
 5175POPC   C4B67030  13.909  41.643   7.417
 5176POPC   NC367031  42.819  29.415   5.436
 5176POPC   PO467032  43.303  28.873   5.521
 5176POPC   GL167033  43.073  29.042   5.844
 5176POPC   GL267034  42.753  28.900   5.773
 5176POPC   C1A67035  43.173  29.272   6.237
 5176POPC   D2A67036  43.053  29.460   6.597
 5176POPC   C3A67037  43.204  29.302   6.946
 5176POPC   C4A67038  43.274  29.535   7.268
 5176POPC   C1B67039  42.693  29.133   6.186
 5176POPC   C2B67040  42.575  29.178   6.624
 5176POPC   C3B67041  42.717  29.186   7.072
 5176POPC   C4B67042  42.703  29.163   7.541
 5177POPC   NC367043  25.679   9.135   5.298
 5177POPC   PO467044  25.674   8.519   5.201
 5177POPC   GL167045  25.738   8.763   5.663
 5177POPC   GL267046  25.981   9.047   5.750
 5177POPC   C1A67047  25.719   8.932   6.158
 5177POPC   D2A67048  25.891   9.102   6.606
 5177POPC   C3A67049  25.831   9.047   7.036
 5177POPC   C4A67050  26.069   8.857   7.407
 5177POPC   C1B67051  26.206   9.116   6.198
 5177POPC   C2B67052  26.343   9.318   6.635
 5177POPC   C3B67053  26.382   9.073   7.062
 5177POPC   C4B67054  26.560   8.973   7.510
 5178POPC   NC367055   3.111  10.366   5.516
 5178POPC   PO467056   3.741  10.603   5.474
 5178POPC   GL167057   3.698  10.526   5.876
 5178POPC   GL267058   3.363  10.568   5.902
 5178POPC   C1A67059   3.633  10.761   6.270
 5178POPC   D2A67060   3.474  10.886   6.650
 5178POPC   C3A67061   3.761  10.861   6.978
 5178POPC   C4A67062   3.692  10.787   7.392
 5178POPC   C1B67063   3.423  10.282   6.270
 5178POPC   C2B67064   3.559  10.381   6.691
 5178POPC   C3B67065   3.384  10.538   7.076
 5178POPC   C4B67066   3.388  10.401   7.518
 5179POPC   NC367067  41.309  34.728   5.461
 5179POPC   PO467068  40.907  34.272   5.216
 5179POPC   GL167069  40.865  34.448   5.646
 5179POPC   GL267070  41.170  34.287   5.721
 5179POPC   C1A67071  40.692  34.646   6.085
 5179POPC   D2A67072  40.506  34.679   6.540
 5179POPC   C3A67073  40.715  34.710   6.931
 5179POPC   C4A67074  40.656  34.499   7.293
 5179POPC   C1B67075  41.118  34.344   6.170
 5179POPC   C2B67076  41.003  34.518   6.560
 5179POPC   C3B67077  41.123  34.385   6.982
 5179POPC   C4B67078  41.214  34.313   7.420
 5180POPC   NC367079   9.158   5.018   5.331
 5180POPC   PO467080   8.477   5.249   5.178
 5180POPC   GL167081   8.728   5.157   5.574
 5180POPC   GL267082   8.776   4.789   5.694
 5180POPC   C1A67083   8.719   5.278   6.026
 5180POPC   D2A67084   8.839   5.601   6.377
 5180POPC   C3A67085   8.797   5.426   6.810
 5180POPC   C4A67086   8.724   5.290   7.234
 5180POPC   C1B67087   8.951   4.803   6.132
 5180POPC   C2B67088   8.751   4.852   6.539
 5180POPC   C3B67089   8.884   4.917   6.932
 5180POPC   C4B67090   8.779   4.784   7.340
 5181POPC   NC367091  10.983   0.373   5.507
 5181POPC   PO467092  11.640   0.547   5.523
 5181POPC   GL167093  11.408   0.343   5.852
 5181POPC   GL267094  11.746   0.282   5.947
 5181POPC   C1A67095  11.115   0.445   6.223
 5181POPC   D2A67096  10.965   0.705   6.606
 5181POPC   C3A67097  11.161   0.690   7.013
 5181POPC   C4A67098  11.176   0.327   7.319
 5181POPC   C1B67099  11.611   0.469   6.319
 5181POPC   C2B67100  11.386   0.391   6.665
 5181POPC   C3B67101  11.607   0.427   7.029
 5181POPC   C4B67102  11.663   0.781   7.268
 5182POPC   NC367103   6.369   5.433   5.488
 5182POPC   PO467104   5.686   5.155   5.433
 5182POPC   GL167105   5.841   5.282   5.840
 5182POPC   GL267106   6.127   5.045   5.942
 5182POPC   C1A67107   5.779   5.198   6.295
 5182POPC   D2A67108   5.923   5.338   6.714
 5182POPC   C3A67109   5.834   5.182   7.135
 5182POPC   C4A67110   5.729   5.333   7.536
 5182POPC   C1B67111   6.253   5.001   6.413
 5182POPC   C2B67112   6.178   4.908   6.872
 5182POPC   C3B67113   6.177   4.762   7.308
 5182POPC   C4B67114   6.411   4.751   7.702
 5183POPC   NC367115  17.867  42.152   5.537
 5183POPC   PO467116  17.198  42.447   5.559
 5183POPC   GL167117  17.510  42.263   5.883
 5183POPC   GL267118  17.360  42.004   5.922
 5183POPC   C1A67119  17.649  42.361   6.310
 5183POPC   D2A67120  17.437  42.252   6.665
 5183POPC   C3A67121  17.598  42.276   7.084
 5183POPC   C4A67122  17.878  42.527   7.318
 5183POPC   C1B67123  17.124  41.923   6.306
 5183POPC   C2B67124  17.046  41.959   6.752
 5183POPC   C3B67125  17.093  41.924   7.171
 5183POPC   C4B67126  17.340  42.084   7.472
 5184POPC   NC367127  15.568  40.778   5.539
 5184POPC   PO467128  16.041  41.178   5.325
 5184POPC   GL167129  16.090  40.942   5.747
 5184POPC   GL267130  16.081  40.555   5.824
 5184POPC   C1A67131  16.126  41.052   6.206
 5184POPC   D2A67132  16.319  41.120   6.635
 5184POPC   C3A67133  16.008  41.066   6.962
 5184POPC   C4A67134  15.573  40.981   7.053
 5184POPC   C1B67135  15.827  40.598   6.232
 5184POPC   C2B67136  15.811  40.679   6.699
 5184POPC   C3B67137  15.869  40.567   7.165
 5184POPC   C4B67138  15.728  40.520   7.642
 5185POPC   NC367139  21.686  25.732   5.404
 5185POPC   PO467140  22.056  26.258   5.332
 5185POPC   GL167141  22.052  25.965   5.683
 5185POPC   GL267142  22.350  25.852   5.851
 5185POPC   C1A67143  21.920  25.957   6.119
 5185POPC   D2A67144  21.923  26.209   6.497
 5185POPC   C3A67145  21.968  25.993   6.853
 5185POPC   C4A67146  22.169  25.845   7.204
 5185POPC   C1B67147  22.395  25.925   6.326
 5185POPC   C2B67148  22.498  25.617   6.676
 5185POPC   C3B67149  22.566  25.540   7.143
 5185POPC   C4B67150  22.551  25.801   7.544
 5186POPC   NC367151  14.255  36.839   5.452
 5186POPC   PO467152  14.787  37.303   5.375
 5186POPC   GL167153  14.454  37.330   5.760
 5186POPC   GL267154  14.171  37.046   5.906
 5186POPC   C1A67155  14.535  37.205   6.206
 5186POPC   D2A67156  14.256  37.015   6.481
 5186POPC   C3A67157  14.450  37.027   6.854
 5186POPC   C4A67158  14.322  37.258   7.179
 5186POPC   C1B67159  14.445  36.701   6.113
 5186POPC   C2B67160  14.542  36.514   6.507
 5186POPC   C3B67161  14.370  36.512   6.902
 5186POPC   C4B67162  14.323  36.750   7.271
 5187POPC   NC367163   5.926  32.734   5.615
 5187POPC   PO467164   5.978  32.094   5.417
 5187POPC   GL167165   5.928  32.171   5.836
 5187POPC   GL267166   6.158  31.932   5.877
 5187POPC   C1A67167   5.781  32.030   6.245
 5187POPC   D2A67168   5.723  32.283   6.641
 5187POPC   C3A67169   5.656  32.116   7.073
 5187POPC   C4A67170   5.757  32.337   7.489
 5187POPC   C1B67171   6.320  32.094   6.203
 5187POPC   C2B67172   6.169  32.042   6.580
 5187POPC   C3B67173   6.151  32.152   6.980
 5187POPC   C4B67174   6.105  31.925   7.360
 5188POPC   NC367175  36.297   7.439   5.358
 5188POPC   PO467176  35.656   7.231   5.385
 5188POPC   GL167177  35.935   7.404   5.781
 5188POPC   GL267178  36.279   7.321   5.847
 5188POPC   C1A67179  36.048   7.326   6.281
 5188POPC   D2A67180  36.050   7.072   6.670
 5188POPC   C3A67181  35.787   7.250   6.978
 5188POPC   C4A67182  35.919   7.630   7.123
 5188POPC   C1B67183  36.383   7.687   6.110
 5188POPC   C2B67184  36.524   7.669   6.566
 5188POPC   C3B67185  36.436   7.480   7.019
 5188POPC   C4B67186  36.478   7.216   7.434
 5189POPC   NC367187   2.664  26.824   5.492
 5189POPC   PO467188   2.031  26.634   5.502
 5189POPC   GL167189   2.176  26.808   5.882
 5189POPC   GL267190   1.988  26.514   6.005
 5189POPC   C1A67191   2.245  26.776   6.357
 5189POPC   D2A67192   2.057  26.551   6.722
 5189POPC   C3A67193   2.104  26.807   7.114
 5189POPC   C4A67194   2.358  27.212   7.103
 5189POPC   C1B67195   1.666  26.551   6.299
 5189POPC   C2B67196   1.540  26.615   6.719
 5189POPC   C3B67197   1.503  26.689   7.133
 5189POPC   C4B67198   1.714  26.892   7.462
 5190POPC   NC367199  43.876  16.319   5.415
 5190POPC   PO467200  43.637  15.721   5.374
 5190POPC   GL167201  43.747  15.663   5.799
 5190POPC   GL267202  43.931  15.937   5.773
 5190POPC   C1A67203  43.790  15.576   6.243
 5190POPC   D2A67204  43.873  15.645   6.661
 5190POPC   C3A67205  43.713  15.486   6.988
 5190POPC   C4A67206  43.737  15.775   7.312
 5190POPC   C1B67207  43.937  16.080   6.171
 5190POPC   C2B67208  43.736  16.108   6.541
 5190POPC   C3B67209  43.828  16.133   6.966
 5190POPC   C4B67210  43.500  16.235   7.242
 5191POPC   NC367211  41.088  18.356   5.614
 5191POPC   PO467212  40.584  17.951   5.314
 5191POPC   GL167213  40.533  18.139   5.820
 5191POPC   GL267214  40.847  18.183   6.032
 5191POPC   C1A67215  40.441  18.315   6.270
 5191POPC   D2A67216  40.711  18.242   6.624
 5191POPC   C3A67217  40.549  18.167   7.041
 5191POPC   C4A67218  40.637  18.224   7.484
 5191POPC   C1B67219  41.148  18.450   6.276
 5191POPC   C2B67220  41.330  18.518   6.696
 5191POPC   C3B67221  41.079  18.352   7.055
 5191POPC   C4B67222  41.018  17.952   7.269
 5192POPC   NC367223   9.274  20.951   5.478
 5192POPC   PO467224   9.233  20.313   5.403
 5192POPC   GL167225   9.229  20.542   5.797
 5192POPC   GL267226   8.920  20.745   5.827
 5192POPC   C1A67227   9.167  20.617   6.250
 5192POPC   D2A67228   9.236  20.420   6.632
 5192POPC   C3A67229   9.092  20.608   7.012
 5192POPC   C4A67230   9.240  20.327   7.264
 5192POPC   C1B67231   8.670  20.757   6.208
 5192POPC   C2B67232   8.744  20.635   6.625
 5192POPC   C3B67233   8.594  20.741   7.043
 5192POPC   C4B67234   8.628  20.486   7.408
 5193POPC   NC367235   0.402  12.566   5.441
 5193POPC   PO467236   0.020  13.078   5.749
 5193POPC   GL167237   0.364  12.850   5.877
 5193POPC   GL267238   0.152  12.567   5.868
 5193POPC   C1A67239   0.602  12.727   6.246
 5193POPC   D2A67240   0.850  12.804   6.640
 5193POPC   C3A67241   0.552  12.886   6.989
 5193POPC   C4A67242   0.359  13.096   7.356
 5193POPC   C1B67243  44.913  12.472   6.198
 5193POPC   C2B67244  44.900  12.613   6.606
 5193POPC   C3B67245  44.950  12.467   7.031
 5193POPC   C4B67246   0.297  12.552   7.305
 5194POPC   NC367247  43.074  31.122   5.189
 5194POPC   PO467248  43.430  30.527   5.335
 5194POPC   GL167249  43.128  30.697   5.668
 5194POPC   GL267250  43.101  31.074   5.718
 5194POPC   C1A67251  43.196  30.681   6.128
 5194POPC   D2A67252  43.002  30.568   6.522
 5194POPC   C3A67253  43.213  30.409   6.898
 5194POPC   C4A67254  43.023  30.521   7.276
 5194POPC   C1B67255  42.917  31.112   6.148
 5194POPC   C2B67256  43.123  31.073   6.533
 5194POPC   C3B67257  43.062  30.908   6.932
 5194POPC   C4B67258  42.813  30.979   7.284
 5195POPC   NC367259  42.896  22.010   5.400
 5195POPC   PO467260  43.172  21.343   5.194
 5195POPC   GL167261  43.069  21.434   5.660
 5195POPC   GL267262  42.742  21.594   5.694
 5195POPC   C1A67263  43.166  21.477   6.133
 5195POPC   D2A67264  43.196  21.624   6.585
 5195POPC   C3A67265  43.211  21.403   7.002
 5195POPC   C4A67266  43.179  21.097   7.337
 5195POPC   C1B67267  42.649  21.327   6.067
 5195POPC   C2B67268  42.745  21.305   6.528
 5195POPC   C3B67269  42.753  21.571   6.925
 5195POPC   C4B67270  42.848  21.499   7.402
 5196POPC   NC367271   6.801  33.274   5.216
 5196POPC   PO467272   6.273  32.884   5.315
 5196POPC   GL167273   6.386  32.918   5.744
 5196POPC   GL267274   6.709  33.026   5.696
 5196POPC   C1A67275   6.332  33.112   6.151
 5196POPC   D2A67276   6.523  32.979   6.526
 5196POPC   C3A67277   6.462  33.101   6.943
 5196POPC   C4A67278   6.373  33.190   7.372
 5196POPC   C1B67279   6.780  32.672   6.002
 5196POPC   C2B67280   6.853  32.597   6.472
 5196POPC   C3B67281   6.906  32.823   6.878
 5196POPC   C4B67282   6.709  32.779   7.285
 5197POPC   NC367283  27.821  21.952   5.385
 5197POPC   PO467284  27.453  22.452   5.524
 5197POPC   GL167285  27.485  22.165   5.828
 5197POPC   GL267286  27.783  22.218   5.939
 5197POPC   C1A67287  27.347  22.298   6.247
 5197POPC   D2A67288  27.624  22.330   6.587
 5197POPC   C3A67289  27.507  22.208   6.991
 5197POPC   C4A67290  27.651  22.308   7.396
 5197POPC   C1B67291  27.662  21.911   6.274
 5197POPC   C2B67292  27.762  21.815   6.707
 5197POPC   C3B67293  27.967  21.908   7.119
 5197POPC   C4B67294  27.987  21.992   7.598
 5198POPC   NC367295  30.951  24.205   4.991
 5198POPC   PO467296  30.737  24.642   5.530
 5198POPC   GL167297  30.786  24.396   5.891
 5198POPC   GL267298  31.073  24.133   5.905
 5198POPC   C1A67299  30.531  24.422   6.284
 5198POPC   D2A67300  30.265  24.493   6.649
 5198POPC   C3A67301  30.463  24.624   7.039
 5198POPC   C4A67302  30.855  24.697   7.253
 5198POPC   C1B67303  31.056  24.337   6.310
 5198POPC   C2B67304  30.899  24.678   6.576
 5198POPC   C3B67305  31.166  24.574   6.878
 5198POPC   C4B67306  31.077  24.218   7.102
 5199POPC   NC367307   1.419  30.980   5.613
 5199POPC   PO467308   1.707  30.510   5.191
 5199POPC   GL167309   1.882  30.670   5.667
 5199POPC   GL267310   2.029  31.045   5.659
 5199POPC   C1A67311   1.764  30.550   6.167
 5199POPC   D2A67312   1.568  30.591   6.643
 5199POPC   C3A67313   1.801  30.435   7.026
 5199POPC   C4A67314   2.085  30.609   7.372
 5199POPC   C1B67315   2.152  30.895   6.084
 5199POPC   C2B67316   2.049  30.783   6.525
 5199POPC   C3B67317   2.041  30.916   6.947
 5199POPC   C4B67318   2.328  31.039   7.271
 5200POPC   NC367319  15.523   9.994   5.561
 5200POPC   PO467320  14.942  10.330   5.349
 5200POPC   GL167321  15.196  10.397   5.690
 5200POPC   GL267322  14.964  10.245   5.908
 5200POPC   C1A67323  15.464  10.450   6.044
 5200POPC   D2A67324  15.457  10.420   6.493
 5200POPC   C3A67325  15.261  10.739   6.769
 5200POPC   C4A67326  15.313  10.915   7.192
 5200POPC   C1B67327  14.995  10.487   6.277
 5200POPC   C2B67328  14.957  10.320   6.639
 5200POPC   C3B67329  15.236  10.215   6.930
 5200POPC   C4B67330  15.029  10.450   7.208
 5201POPC   NC367331  24.349  16.047   5.494
 5201POPC   PO467332  24.932  15.721   5.477
 5201POPC   GL167333  24.658  15.745   5.802
 5201POPC   GL267334  24.727  16.085   5.841
 5201POPC   C1A67335  24.383  15.882   6.169
 5201POPC   D2A67336  24.520  16.016   6.588
 5201POPC   C3A67337  24.288  16.091   6.960
 5201POPC   C4A67338  24.555  16.167   7.246
 5201POPC   C1B67339  24.875  16.333   6.177
 5201POPC   C2B67340  24.800  16.447   6.608
 5201POPC   C3B67341  24.979  16.335   7.017
 5201POPC   C4B67342  24.956  16.391   7.497
 5202POPC   NC367343   6.160   8.362   5.482
 5202POPC   PO467344   5.448   8.292   5.280
 5202POPC   GL167345   5.537   8.375   5.746
 5202POPC   GL267346   5.873   8.208   5.864
 5202POPC   C1A67347   5.643   8.519   6.172
 5202POPC   D2A67348   5.694   8.262   6.531
 5202POPC   C3A67349   5.700   8.397   6.935
 5202POPC   C4A67350   6.026   8.318   7.246
 5202POPC   C1B67351   6.105   8.125   6.265
 5202POPC   C2B67352   6.213   8.248   6.715
 5202POPC   C3B67353   6.339   7.971   7.048
 5202POPC   C4B67354   6.293   7.907   7.507
 5203POPC   NC367355   6.637   1.034   5.246
 5203POPC   PO467356   6.810   1.551   5.459
 5203POPC   GL167357   6.706   1.221   5.758
 5203POPC   GL267358   6.839   0.871   5.703
 5203POPC   C1A67359   6.828   1.162   6.218
 5203POPC   D2A67360   6.705   1.391   6.615
 5203POPC   C3A67361   6.782   1.370   7.067
 5203POPC   C4A67362   6.541   1.222   7.431
 5203POPC   C1B67363   6.485   0.837   6.010
 5203POPC   C2B67364   6.343   1.053   6.415
 5203POPC   C3B67365   6.460   0.977   6.856
 5203POPC   C4B67366   6.794   0.867   7.166
 5204POPC   NC367367  42.200  41.796   5.290
 5204POPC   PO467368  42.562  41.263   5.236
 5204POPC   GL167369  42.481  41.528   5.650
 5204POPC   GL267370  42.134  41.631   5.766
 5204POPC   C1A67371  42.450  41.545   6.142
 5204POPC   D2A67372  42.230  41.374   6.544
 5204POPC   C3A67373  42.466  41.430   6.945
 5204POPC   C4A67374  42.735  41.784   7.098
 5204POPC   C1B67375  41.952  41.659   6.200
 5204POPC   C2B67376  41.944  41.906   6.585
 5204POPC   C3B67377  42.047  41.739   6.992
 5204POPC   C4B67378  41.992  41.317   7.148
 5205POPC   NC367379  41.726   2.521   5.508
 5205POPC   PO467380  41.392   3.092   5.483
 5205POPC   GL167381  41.602   2.911   5.831
 5205POPC   GL267382  41.825   3.207   5.862
 5205POPC   C1A67383  41.522   2.587   6.192
 5205POPC   D2A67384  41.276   2.457   6.590
 5205POPC   C3A67385  41.435   2.706   6.938
 5205POPC   C4A67386  41.444   2.704   7.382
 5205POPC   C1B67387  41.692   3.097   6.303
 5205POPC   C2B67388  41.861   2.890   6.681
 5205POPC   C3B67389  41.886   2.925   7.132
 5205POPC   C4B67390  41.559   3.191   7.213
 5206POPC   NC367391   1.845  43.163   5.268
 5206POPC   PO467392   2.511  43.009   5.293
 5206POPC   GL167393   2.208  43.057   5.715
 5206POPC   GL267394   1.832  43.136   5.773
 5206POPC   C1A67395   2.254  43.269   6.161
 5206POPC   D2A67396   2.325  43.049   6.571
 5206POPC   C3A67397   2.000  42.904   6.863
 5206POPC   C4A67398   1.894  42.889   7.310
 5206POPC   C1B67399   1.763  43.263   6.198
 5206POPC   C2B67400   1.641  43.171   6.617
 5206POPC   C3B67401   1.759  43.331   7.032
 5206POPC   C4B67402   1.519  43.363   7.365
 5207POPC   NC367403  25.306  25.803   5.585
 5207POPC   PO467404  25.430  26.455   5.503
 5207POPC   GL167405  25.471  26.210   5.866
 5207POPC   GL267406  25.122  26.098   5.970
 5207POPC   C1A67407  25.520  26.082   6.307
 5207POPC   D2A67408  25.147  26.126   6.549
 5207POPC   C3A67409  25.151  26.157   6.979
 5207POPC   C4A67410  25.466  26.070   7.246
 5207POPC   C1B67411  25.127  25.711   6.243
 5207POPC   C2B67412  25.319  25.591   6.663
 5207POPC   C3B67413  25.201  25.642   7.090
 5207POPC   C4B67414  24.881  25.873   7.354
 5208POPC   NC367415  35.692  21.686   5.308
 5208POPC   PO467416  35.588  21.031   5.560
 5208POPC   GL167417  35.241  21.316   5.658
 5208POPC   GL267418  35.404  21.587   5.785
 5208POPC   C1A67419  34.997  21.348   6.029
 5208POPC   D2A67420  35.048  21.313   6.481
 5208POPC   C3A67421  35.201  21.512   6.849
 5208POPC   C4A67422  35.116  21.350   7.270
 5208POPC   C1B67423  35.471  21.274   6.164
 5208POPC   C2B67424  35.589  21.255   6.599
 5208POPC   C3B67425  35.535  21.176   7.036
 5208POPC   C4B67426  35.612  21.569   7.258
 5209POPC   NC367427  10.576   6.922   5.287
 5209POPC   PO467428  10.594   6.267   5.436
 5209POPC   GL167429  10.590   6.655   5.718
 5209POPC   GL267430  10.917   6.805   5.820
 5209POPC   C1A67431  10.321   6.861   6.075
 5209POPC   D2A67432  10.068   6.875   6.482
 5209POPC   C3A67433  10.299   6.926   6.874
 5209POPC   C4A67434  10.463   6.673   7.200
 5209POPC   C1B67435  10.773   6.647   6.191
 5209POPC   C2B67436  10.662   6.783   6.560
 5209POPC   C3B67437  10.896   6.654   6.936
 5209POPC   C4B67438  10.897   6.439   7.343
 5210POPC   NC367439  26.740  14.432   5.372
 5210POPC   PO467440  27.207  14.691   5.122
 5210POPC   GL167441  27.131  14.453   5.673
 5210POPC   GL267442  26.824  14.285   5.849
 5210POPC   C1A67443  27.042  14.615   6.153
 5210POPC   D2A67444  26.797  14.759   6.523
 5210POPC   C3A67445  26.894  14.642   6.916
 5210POPC   C4A67446  26.953  14.792   7.304
 5210POPC   C1B67447  27.021  14.120   6.249
 5210POPC   C2B67448  26.857  14.172   6.700
 5210POPC   C3B67449  26.617  14.225   7.094
 5210POPC   C4B67450  26.663  14.159   7.565
 5211POPC   NC367451   0.073  43.893   5.523
 5211POPC   PO467452  44.391  43.998   5.371
 5211POPC   GL167453  44.516  44.023   5.764
 5211POPC   GL267454  44.680  43.723   5.811
 5211POPC   C1A67455  44.508  44.137   6.172
 5211POPC   D2A67456  44.586  44.023   6.581
 5211POPC   C3A67457  44.647  44.258   6.910
 5211POPC   C4A67458  44.913  43.973   7.149
 5211POPC   C1B67459  44.830  43.727   6.246
 5211POPC   C2B67460  44.831  43.598   6.710
 5211POPC   C3B67461  44.893  43.460   7.161
 5211POPC   C4B67462   0.031  43.568   7.606
 5212POPC   NC367463  36.041  42.150   5.442
 5212POPC   PO467464  36.469  42.575   5.306
 5212POPC   GL167465  36.312  42.573   5.731
 5212POPC   GL267466  35.967  42.601   5.790
 5212POPC   C1A67467  36.293  42.692   6.184
 5212POPC   D2A67468  36.059  42.767   6.563
 5212POPC   C3A67469  36.173  42.595   6.963
 5212POPC   C4A67470  36.465  42.709   7.321
 5212POPC   C1B67471  35.849  42.413   6.219
 5212POPC   C2B67472  35.728  42.392   6.700
 5212POPC   C3B67473  35.884  42.210   7.120
 5212POPC   C4B67474  35.839  42.118   7.561
 5213POPC   NC367475  21.360  31.953   5.070
 5213POPC   PO467476  21.243  32.585   5.315
 5213POPC   GL167477  21.173  32.714   5.784
 5213POPC   GL267478  20.857  32.654   5.998
 5213POPC   C1A67479  21.358  32.700   6.192
 5213POPC   D2A67480  21.399  32.507   6.608
 5213POPC   C3A67481  21.458  32.557   7.055
 5213POPC   C4A67482  21.691  32.528   7.446
 5213POPC   C1B67483  20.918  32.654   6.466
 5213POPC   C2B67484  20.971  32.244   6.735
 5213POPC   C3B67485  21.113  32.178   7.184
 5213POPC   C4B67486  21.181  32.510   7.496
 5214POPC   NC367487  18.384  39.769   5.355
 5214POPC   PO467488  17.936  40.128   5.177
 5214POPC   GL167489  18.040  40.152   5.644
 5214POPC   GL267490  18.189  39.867   5.816
 5214POPC   C1A67491  17.931  40.179   6.145
 5214POPC   D2A67492  17.963  39.946   6.557
 5214POPC   C3A67493  17.960  40.130   6.988
 5214POPC   C4A67494  18.100  40.190   7.422
 5214POPC   C1B67495  18.373  39.911   6.246
 5214POPC   C2B67496  18.437  39.803   6.702
 5214POPC   C3B67497  18.392  39.864   7.155
 5214POPC   C4B67498  18.525  39.944   7.623
 5215POPC   NC367499   9.956   9.534   5.390
 5215POPC   PO467500   9.635  10.067   5.464
 5215POPC   GL167501   9.787   9.796   5.794
 5215POPC   GL267502  10.169   9.853   5.761
 5215POPC   C1A67503   9.592   9.726   6.200
 5215POPC   D2A67504   9.376   9.923   6.560
 5215POPC   C3A67505   9.581   9.743   6.904
 5215POPC   C4A67506   9.729   9.455   7.205
 5215POPC   C1B67507  10.059   9.994   6.180
 5215POPC   C2B67508   9.875  10.058   6.560
 5215POPC   C3B67509  10.015  10.040   6.961
 5215POPC   C4B67510   9.917  10.133   7.381
 5216POPC   NC367511  42.165  34.626   4.999
 5216POPC   PO467512  41.747  34.403   5.471
 5216POPC   GL167513  41.704  34.563   5.854
 5216POPC   GL267514  41.591  34.268   5.997
 5216POPC   C1A67515  41.755  34.636   6.292
 5216POPC   D2A67516  41.505  34.448   6.590
 5216POPC   C3A67517  41.364  34.805   6.830
 5216POPC   C4A67518  41.444  34.729   7.241
 5216POPC   C1B67519  41.529  33.981   6.320
 5216POPC   C2B67520  41.662  33.966   6.724
 5216POPC   C3B67521  41.647  34.237   7.082
 5216POPC   C4B67522  42.028  34.330   7.312
 5217POPC   NC367523   7.246  30.675   5.281
 5217POPC   PO467524   6.779  30.460   5.641
 5217POPC   GL167525   7.212  30.466   5.772
 5217POPC   GL267526   7.412  30.778   5.743
 5217POPC   C1A67527   7.393  30.509   6.195
 5217POPC   D2A67528   7.379  30.508   6.635
 5217POPC   C3A67529   7.297  30.817   6.960
 5217POPC   C4A67530   7.285  30.583   7.320
 5217POPC   C1B67531   7.584  30.989   6.106
 5217POPC   C2B67532   7.677  30.896   6.524
 5217POPC   C3B67533   7.808  30.677   6.897
 5217POPC   C4B67534   7.708  30.847   7.290
 5218POPC   NC367535   4.370   0.277   5.444
 5218POPC   PO467536   3.830   0.759   5.545
 5218POPC   GL167537   4.272   0.692   5.736
 5218POPC   GL267538   4.182   0.385   5.914
 5218POPC   C1A67539   4.600   0.599   6.099
 5218POPC   D2A67540   4.467   0.313   6.451
 5218POPC   C3A67541   4.540   0.455   6.892
 5218POPC   C4A67542   4.252   0.509   7.280
 5218POPC   C1B67543   4.006   0.154   6.260
 5218POPC   C2B67544   4.118  44.962   6.660
 5218POPC   C3B67545   3.916   0.094   7.048
 5218POPC   C4B67546   3.946   0.098   7.504
 5219POPC   NC367547  15.578  28.449   5.389
 5219POPC   PO467548  15.031  28.043   5.390
 5219POPC   GL167549  15.120  28.312   5.750
 5219POPC   GL267550  15.424  28.469   5.885
 5219POPC   C1A67551  15.013  28.361   6.195
 5219POPC   D2A67552  15.354  28.512   6.471
 5219POPC   C3A67553  15.361  28.433   6.933
 5219POPC   C4A67554  15.361  28.772   7.221
 5219POPC   C1B67555  15.434  28.074   6.179
 5219POPC   C2B67556  15.186  28.036   6.606
 5219POPC   C3B67557  15.151  27.981   7.085
 5219POPC   C4B67558  14.905  28.161   7.449
 5220POPC   NC367559   8.798  30.993   5.279
 5220POPC   PO467560   8.971  30.368   5.450
 5220POPC   GL167561   9.071  30.609   5.820
 5220POPC   GL267562   8.811  30.849   5.801
 5220POPC   C1A67563   8.889  30.614   6.255
 5220POPC   D2A67564   8.742  30.314   6.569
 5220POPC   C3A67565   8.814  30.477   6.984
 5220POPC   C4A67566   9.211  30.574   7.183
 5220POPC   C1B67567   9.145  31.042   6.082
 5220POPC   C2B67568   9.264  30.895   6.513
 5220POPC   C3B67569   9.187  31.024   6.940
 5220POPC   C4B67570   8.865  30.931   7.247
 5221POPC   NC367571   4.108  39.857   5.416
 5221POPC   PO467572   4.646  40.231   5.245
 5221POPC   GL167573   4.455  40.205   5.671
 5221POPC   GL267574   4.535  39.874   5.712
 5221POPC   C1A67575   4.187  40.106   6.053
 5221POPC   D2A67576   4.047  40.137   6.504
 5221POPC   C3A67577   4.154  39.994   6.906
 5221POPC   C4A67578   4.286  39.982   7.321
 5221POPC   C1B67579   4.602  39.787   6.172
 5221POPC   C2B67580   4.527  39.762   6.618
 5221POPC   C3B67581   4.449  39.577   7.024
 5221POPC   C4B67582   4.629  39.601   7.406
 5222POPC   NC367583  27.534  31.037   5.565
 5222POPC   PO467584  27.719  30.352   5.364
 5222POPC   GL167585  27.746  30.598   5.766
 5222POPC   GL267586  27.392  30.602   5.830
 5222POPC   C1A67587  27.727  30.860   6.188
 5222POPC   D2A67588  27.438  31.015   6.551
 5222POPC   C3A67589  27.594  30.857   6.955
 5222POPC   C4A67590  27.614  30.476   7.176
 5222POPC   C1B67591  27.543  30.368   6.207
 5222POPC   C2B67592  27.458  30.469   6.638
 5222POPC   C3B67593  27.187  30.327   6.943
 5222POPC   C4B67594  27.245  30.121   7.314
 5223POPC   NC367595  39.542   7.345   5.040
 5223POPC   PO467596  39.335   7.940   5.306
 5223POPC   GL167597  39.245   7.698   5.717
 5223POPC   GL267598  39.446   7.391   5.761
 5223POPC   C1A67599  39.047   7.507   6.131
 5223POPC   D2A67600  39.005   7.188   6.499
 5223POPC   C3A67601  39.208   7.339   6.915
 5223POPC   C4A67602  39.575   7.363   7.214
 5223POPC   C1B67603  39.464   7.203   6.197
 5223POPC   C2B67604  39.501   7.025   6.621
 5223POPC   C3B67605  39.601   6.872   7.056
 5223POPC   C4B67606  39.538   6.943   7.548
 5224POPC   NC367607  21.626  14.694   5.382
 5224POPC   PO467608  21.138  14.212   5.423
 5224POPC   GL167609  21.326  14.448   5.788
 5224POPC   GL267610  21.706  14.470   5.831
 5224POPC   C1A67611  21.332  14.321   6.233
 5224POPC   D2A67612  21.100  14.129   6.589
 5224POPC   C3A67613  21.301  14.172   6.994
 5224POPC   C4A67614  21.321  14.302   7.404
 5224POPC   C1B67615  21.750  14.706   6.200
 5224POPC   C2B67616  21.667  14.548   6.562
 5224POPC   C3B67617  21.701  14.473   6.945
 5224POPC   C4B67618  21.623  14.684   7.254
 5225POPC   NC367619   7.015   2.622   5.477
 5225POPC   PO467620   6.284   2.768   5.456
 5225POPC   GL167621   6.407   2.848   5.854
 5225POPC   GL267622   6.793   2.908   5.898
 5225POPC   C1A67623   6.387   2.974   6.251
 5225POPC   D2A67624   6.728   2.885   6.462
 5225POPC   C3A67625   6.716   3.001   6.872
 5225POPC   C4A67626   6.749   2.875   7.269
 5225POPC   C1B67627   6.717   2.508   6.110
 5225POPC   C2B67628   6.885   2.403   6.502
 5225POPC   C3B67629   6.770   2.451   6.894
 5225POPC   C4B67630   6.931   2.372   7.275
 5226POPC   NC367631  31.850   0.213   5.126
 5226POPC   PO467632  32.301   0.596   5.503
 5226POPC   GL167633  32.505   0.602   5.888
 5226POPC   GL267634  32.183   0.420   5.995
 5226POPC   C1A67635  32.616   0.387   6.249
 5226POPC   D2A67636  32.398   0.398   6.598
 5226POPC   C3A67637  32.589   0.489   6.962
 5226POPC   C4A67638  32.441   0.411   7.367
 5226POPC   C1B67639  31.860   0.297   6.314
 5226POPC   C2B67640  31.937   0.232   6.719
 5226POPC   C3B67641  32.068   0.514   7.013
 5226POPC   C4B67642  31.901   0.368   7.355
 5227POPC   NC367643  20.320   3.350   5.422
 5227POPC   PO467644  20.676   3.862   5.307
 5227POPC   GL167645  20.510   3.708   5.734
 5227POPC   GL267646  20.732   3.443   5.739
 5227POPC   C1A67647  20.689   3.684   6.177
 5227POPC   D2A67648  21.036   3.707   6.503
 5227POPC   C3A67649  20.904   3.565   6.909
 5227POPC   C4A67650  20.675   3.817   7.214
 5227POPC   C1B67651  20.526   3.202   6.085
 5227POPC   C2B67652  20.636   3.315   6.537
 5227POPC   C3B67653  20.406   3.404   6.940
 5227POPC   C4B67654  20.363   3.434   7.395
 5228POPC   NC367655  18.510  36.081   5.667
 5228POPC   PO467656  18.065  36.400   5.463
 5228POPC   GL167657  18.027  36.232   5.834
 5228POPC   GL267658  17.948  35.893   5.716
 5228POPC   C1A67659  18.264  36.270   6.230
 5228POPC   D2A67660  18.545  36.276   6.572
 5228POPC   C3A67661  18.381  36.407   6.960
 5228POPC   C4A67662  18.594  36.130   7.231
 5228POPC   C1B67663  18.033  35.823   6.151
 5228POPC   C2B67664  18.189  35.872   6.577
 5228POPC   C3B67665  17.944  35.886   6.943
 5228POPC   C4B67666  18.083  36.116   7.265
 5229POPC   NC367667  17.441  34.817   5.308
 5229POPC   PO467668  17.332  34.157   5.208
 5229POPC   GL167669  17.588  34.425   5.571
 5229POPC   GL267670  17.270  34.649   5.762
 5229POPC   C1A67671  17.686  34.464   6.025
 5229POPC   D2A67672  17.546  34.204   6.378
 5229POPC   C3A67673  17.702  34.281   6.813
 5229POPC   C4A67674  17.669  34.399   7.259
 5229POPC   C1B67675  17.057  34.550   6.205
 5229POPC   C2B67676  17.111  34.322   6.597
 5229POPC   C3B67677  17.258  34.499   6.942
 5229POPC   C4B67678  17.192  34.707   7.297
 5230POPC   NC367679  36.784   6.857   5.287
 5230POPC   PO467680  36.842   7.556   5.239
 5230POPC   GL167681  36.774   7.328   5.604
 5230POPC   GL267682  37.104   7.239   5.629
 5230POPC   C1A67683  36.738   7.296   6.067
 5230POPC   D2A67684  37.011   7.536   6.369
 5230POPC   C3A67685  36.962   7.496   6.826
 5230POPC   C4A67686  36.864   7.181   7.114
 5230POPC   C1B67687  37.227   7.178   6.056
 5230POPC   C2B67688  37.342   7.135   6.505
 5230POPC   C3B67689  37.384   7.215   6.934
 5230POPC   C4B67690  37.300   7.057   7.319
 5231POPC   NC367691  34.011  19.536   5.273
 5231POPC   PO467692  33.536  19.107   5.178
 5231POPC   GL167693  33.720  19.094   5.634
 5231POPC   GL267694  34.011  19.319   5.744
 5231POPC   C1A67695  33.694  18.909   6.083
 5231POPC   D2A67696  33.572  18.726   6.504
 5231POPC   C3A67697  33.666  18.929   6.924
 5231POPC   C4A67698  33.716  19.288   7.226
 5231POPC   C1B67699  34.149  19.143   6.129
 5231POPC   C2B67700  33.948  19.176   6.516
 5231POPC   C3B67701  34.120  19.188   6.903
 5231POPC   C4B67702  34.285  19.058   7.254
 5232POPC   NC367703  25.338   6.131   5.291
 5232POPC   PO467704  25.190   5.532   5.252
 5232POPC   GL167705  25.205   5.819   5.669
 5232POPC   GL267706  25.523   6.045   5.779
 5232POPC   C1A67707  25.223   5.817   6.146
 5232POPC   D2A67708  25.346   5.666   6.579
 5232POPC   C3A67709  25.257   5.850   7.003
 5232POPC   C4A67710  24.966   5.560   7.178
 5232POPC   C1B67711  25.683   6.068   6.244
 5232POPC   C2B67712  25.629   6.046   6.707
 5232POPC   C3B67713  25.638   6.226   7.102
 5232POPC   C4B67714  25.573   6.190   7.525
 5233POPC   NC367715   7.122  29.292   5.497
 5233POPC   PO467716   7.723  28.855   5.538
 5233POPC   GL167717   7.507  29.099   5.818
 5233POPC   GL267718   7.194  29.006   5.924
 5233POPC   C1A67719   7.546  29.174   6.242
 5233POPC   D2A67720   7.614  28.988   6.594
 5233POPC   C3A67721   7.714  29.240   6.884
 5233POPC   C4A67722   7.547  29.092   7.222
 5233POPC   C1B67723   7.050  29.292   6.226
 5233POPC   C2B67724   7.176  29.286   6.631
 5233POPC   C3B67725   7.084  29.055   6.975
 5233POPC   C4B67726   7.071  29.351   7.254
 5234POPC   NC367727  44.431  38.988   5.437
 5234POPC   PO467728  44.998  39.356   5.448
 5234POPC   GL167729  44.716  39.257   5.773
 5234POPC   GL267730  44.525  39.525   5.789
 5234POPC   C1A67731  44.539  39.091   6.149
 5234POPC   D2A67732  44.679  39.042   6.569
 5234POPC   C3A67733  44.455  39.003   6.955
 5234POPC   C4A67734  44.614  38.843   7.356
 5234POPC   C1B67735  44.705  39.644   6.158
 5234POPC   C2B67736  44.666  39.571   6.585
 5234POPC   C3B67737  44.979  39.438   6.850
 5234POPC   C4B67738  44.801  39.307   7.187
 5235POPC   NC367739   1.657  43.968   5.625
 5235POPC   PO467740   1.158  43.721   5.192
 5235POPC   GL167741   1.118  43.705   5.668
 5235POPC   GL267742   1.428  43.505   5.796
 5235POPC   C1A67743   1.107  43.994   6.072
 5235POPC   D2A67744   1.227  44.006   6.528
 5235POPC   C3A67745   1.017  44.172   6.875
 5235POPC   C4A67746   1.207  44.282   7.269
 5235POPC   C1B67747   1.489  43.680   6.233
 5235POPC   C2B67748   1.546  43.662   6.696
 5235POPC   C3B67749   1.334  43.768   7.083
 5235POPC   C4B67750   1.487  43.880   7.487
 5236POPC   NC367751  23.737  24.058   5.563
 5236POPC   PO467752  23.915  24.619   5.485
 5236POPC   GL167753  23.684  24.683   5.845
 5236POPC   GL267754  23.462  24.429   5.804
 5236POPC   C1A67755  23.753  24.861   6.238
 5236POPC   D2A67756  23.626  24.665   6.576
 5236POPC   C3A67757  23.464  24.770   6.942
 5236POPC   C4A67758  23.638  24.623   7.306
 5236POPC   C1B67759  23.578  24.278   6.210
 5236POPC   C2B67760  23.834  24.196   6.571
 5236POPC   C3B67761  23.672  24.176   6.985
 5236POPC   C4B67762  23.470  24.176   7.406
 5237POPC   NC367763  35.633  42.825   5.441
 5237POPC   PO467764  35.133  43.207   5.305
 5237POPC   GL167765  35.332  43.134   5.705
 5237POPC   GL267766  35.073  42.886   5.779
 5237POPC   C1A67767  35.471  43.343   6.079
 5237POPC   D2A67768  35.263  43.371   6.494
 5237POPC   C3A67769  35.519  43.463   6.834
 5237POPC   C4A67770  35.520  43.441   7.221
 5237POPC   C1B67771  35.265  42.896   6.210
 5237POPC   C2B67772  35.397  42.812   6.646
 5237POPC   C3B67773  35.286  43.023   7.027
 5237POPC   C4B67774  35.178  43.078   7.448
 5238POPC   NC367775   6.301  43.414   5.210
 5238POPC   PO467776   6.827  43.043   5.469
 5238POPC   GL167777   6.617  42.999   5.853
 5238POPC   GL267778   6.370  43.212   5.720
 5238POPC   C1A67779   6.633  42.883   6.290
 5238POPC   D2A67780   6.686  43.122   6.686
 5238POPC   C3A67781   6.881  42.968   7.056
 5238POPC   C4A67782   6.826  42.853   7.476
 5238POPC   C1B67783   6.215  43.140   6.143
 5238POPC   C2B67784   6.162  43.131   6.605
 5238POPC   C3B67785   6.312  43.233   7.039
 5238POPC   C4B67786   6.391  43.122   7.484
 5239POPC   NC367787  42.924  10.404   5.529
 5239POPC   PO467788  42.814  11.020   5.570
 5239POPC   GL167789  43.098  10.756   5.872
 5239POPC   GL267790  43.390  10.628   5.711
 5239POPC   C1A67791  43.156  10.633   6.352
 5239POPC   D2A67792  42.983  10.840   6.766
 5239POPC   C3A67793  43.009  10.641   7.211
 5239POPC   C4A67794  42.967  10.427   7.625
 5239POPC   C1B67795  43.555  10.825   6.070
 5239POPC   C2B67796  43.630  10.787   6.511
 5239POPC   C3B67797  43.520  10.937   6.941
 5239POPC   C4B67798  43.645  10.734   7.317
 5240POPC   NC367799  31.680  14.841   5.743
 5240POPC   PO467800  31.352  15.175   5.215
 5240POPC   GL167801  31.375  15.421   5.720
 5240POPC   GL267802  31.722  15.392   5.849
 5240POPC   C1A67803  31.194  15.449   6.167
 5240POPC   D2A67804  31.138  15.185   6.557
 5240POPC   C3A67805  31.320  15.298   6.964
 5240POPC   C4A67806  31.493  15.085   7.316
 5240POPC   C1B67807  31.665  15.367   6.335
 5240POPC   C2B67808  31.935  15.385   6.693
 5240POPC   C3B67809  31.840  15.442   7.111
 5240POPC   C4B67810  31.778  15.402   7.594
 5241POPC   NC367811  36.431  33.087   5.305
 5241POPC   PO467812  36.013  33.550   5.284
 5241POPC   GL167813  35.964  33.286   5.738
 5241POPC   GL267814  36.117  32.931   5.782
 5241POPC   C1A67815  36.058  33.164   6.227
 5241POPC   D2A67816  36.197  32.920   6.604
 5241POPC   C3A67817  36.035  32.897   7.019
 5241POPC   C4A67818  35.864  32.802   7.434
 5241POPC   C1B67819  36.237  32.656   6.172
 5241POPC   C2B67820  36.142  32.410   6.603
 5241POPC   C3B67821  35.964  32.375   7.017
 5241POPC   C4B67822  36.185  32.374   7.408
 5242POPC   NC367823  34.059  11.316   5.478
 5242POPC   PO467824  33.588  10.906   5.432
 5242POPC   GL167825  33.707  11.219   5.825
 5242POPC   GL267826  33.740  11.619   5.784
 5242POPC   C1A67827  33.629  11.436   6.245
 5242POPC   D2A67828  33.753  11.419   6.696
 5242POPC   C3A67829  33.642  11.074   6.975
 5242POPC   C4A67830  33.794  10.947   7.378
 5242POPC   C1B67831  34.110  11.527   6.078
 5242POPC   C2B67832  34.237  11.455   6.492
 5242POPC   C3B67833  34.204  11.681   6.874
 5242POPC   C4B67834  34.161  11.549   7.320
 5243POPC   NC367835  14.165  39.214   5.155
 5243POPC   PO467836  14.671  38.958   5.523
 5243POPC   GL167837  14.380  39.163   5.796
 5243POPC   GL267838  14.135  38.927   5.667
 5243POPC   C1A67839  14.395  39.303   6.253
 5243POPC   D2A67840  14.230  39.269   6.691
 5243POPC   C3A67841  14.457  39.260   7.118
 5243POPC   C4A67842  14.592  39.471   7.530
 5243POPC   C1B67843  13.958  39.018   6.097
 5243POPC   C2B67844  13.912  38.866   6.551
 5243POPC   C3B67845  14.027  38.933   7.012
 5243POPC   C4B67846  14.261  38.829   7.399
 5244POPC   NC367847  23.494   1.472   5.328
 5244POPC   PO467848  24.117   1.172   5.397
 5244POPC   GL167849  23.889   1.108   5.792
 5244POPC   GL267850  23.536   1.216   5.786
 5244POPC   C1A67851  23.888   1.205   6.216
 5244POPC   D2A67852  23.644   1.332   6.553
 5244POPC   C3A67853  23.815   1.227   6.923
 5244POPC   C4A67854  24.149   1.160   7.220
 5244POPC   C1B67855  23.363   1.094   6.178
 5244POPC   C2B67856  23.459   0.839   6.547
 5244POPC   C3B67857  23.423   0.849   6.988
 5244POPC   C4B67858  23.649   1.018   7.345
 5245POPC   NC367859  42.196  32.086   5.499
 5245POPC   PO467860  42.795  32.402   5.329
 5245POPC   GL167861  42.560  32.358   5.745
 5245POPC   GL267862  42.742  32.485   5.943
 5245POPC   C1A67863  42.270  32.398   6.157
 5245POPC   D2A67864  42.159  32.532   6.619
 5245POPC   C3A67865  42.159  32.248   7.002
 5245POPC   C4A67866  42.381  32.012   7.359
 5245POPC   C1B67867  42.718  32.187   6.250
 5245POPC   C2B67868  42.503  32.075   6.604
 5245POPC   C3B67869  42.659  32.219   6.972
 5245POPC   C4B67870  42.826  32.345   7.325
 5246POPC   NC367871   2.746  13.814   5.438
 5246POPC   PO467872   2.963  13.252   5.471
 5246POPC   GL167873   2.688  13.458   5.797
 5246POPC   GL267874   2.894  13.749   5.915
 5246POPC   C1A67875   2.552  13.561   6.231
 5246POPC   D2A67876   2.558  13.598   6.675
 5246POPC   C3A67877   2.617  13.859   7.017
 5246POPC   C4A67878   2.511  13.526   7.241
 5246POPC   C1B67879   3.040  13.354   6.131
 5246POPC   C2B67880   3.141  13.363   6.526
 5246POPC   C3B67881   3.010  13.510   6.898
 5246POPC   C4B67882   3.046  13.414   7.296
 5247POPC   NC367883   0.458  31.135   5.386
 5247POPC   PO467884   0.698  31.760   5.404
 5247POPC   GL167885   0.541  31.494   5.740
 5247POPC   GL267886   0.206  31.490   5.714
 5247POPC   C1A67887   0.605  31.379   6.166
 5247POPC   D2A67888   0.473  31.596   6.552
 5247POPC   C3A67889   0.550  31.385   6.944
 5247POPC   C4A67890   0.640  31.513   7.373
 5247POPC   C1B67891   0.101  31.401   6.151
 5247POPC   C2B67892  44.992  31.365   6.565
 5247POPC   C3B67893   0.071  31.610   6.901
 5247POPC   C4B67894   0.171  31.412   7.283
 5248POPC   NC367895  22.253  34.383   5.384
 5248POPC   PO467896  21.793  34.759   4.972
 5248POPC   GL167897  21.789  34.791   5.524
 5248POPC   GL267898  22.163  34.788   5.679
 5248POPC   C1A67899  21.840  34.698   6.026
 5248POPC   D2A67900  21.876  34.769   6.488
 5248POPC   C3A67901  22.168  34.725   6.819
 5248POPC   C4A67902  22.000  34.771   7.211
 5248POPC   C1B67903  22.386  34.574   6.023
 5248POPC   C2B67904  22.485  34.491   6.455
 5248POPC   C3B67905  22.591  34.419   6.891
 5248POPC   C4B67906  22.341  34.402   7.257
 5249POPC   NC367907  22.387  22.454   5.162
 5249POPC   PO467908  22.007  21.943   5.417
 5249POPC   GL167909  22.089  22.161   5.816
 5249POPC   GL267910  22.078  22.496   5.691
 5249POPC   C1A67911  21.906  22.263   6.252
 5249POPC   D2A67912  21.831  22.153   6.691
 5249POPC   C3A67913  22.138  22.179   7.040
 5249POPC   C4A67914  22.355  21.918   7.337
 5249POPC   C1B67915  22.282  22.569   6.126
 5249POPC   C2B67916  22.287  22.459   6.598
 5249POPC   C3B67917  22.403  22.625   7.017
 5249POPC   C4B67918  22.397  22.449   7.428
 5250POPC   NC367919  32.820  25.845   5.034
 5250POPC   PO467920  33.305  26.037   5.443
 5250POPC   GL167921  33.105  25.880   5.794
 5250POPC   GL267922  32.822  26.071   5.956
 5250POPC   C1A67923  33.102  25.724   6.197
 5250POPC   D2A67924  32.783  25.747   6.510
 5250POPC   C3A67925  32.941  25.941   6.877
 5250POPC   C4A67926  32.946  25.737   7.282
 5250POPC   C1B67927  32.874  26.286   6.381
 5250POPC   C2B67928  33.173  26.565   6.604
 5250POPC   C3B67929  33.328  26.364   6.962
 5250POPC   C4B67930  33.115  26.210   7.287
 5251POPC   NC367931  15.508  33.016   5.212
 5251POPC   PO467932  16.209  33.131   5.218
 5251POPC   GL167933  15.912  33.033   5.559
 5251POPC   GL267934  16.105  32.779   5.689
 5251POPC   C1A67935  15.816  33.076   6.022
 5251POPC   D2A67936  15.984  33.151   6.449
 5251POPC   C3A67937  15.789  33.155   6.854
 5251POPC   C4A67938  15.845  33.019   7.281
 5251POPC   C1B67939  16.114  32.682   6.149
 5251POPC   C2B67940  16.355  32.801   6.510
 5251POPC   C3B67941  16.219  32.793   6.926
 5251POPC   C4B67942  16.421  32.680   7.301
 5252POPC   NC367943  27.263  27.624   5.334
 5252POPC   PO467944  26.568  27.753   5.356
 5252POPC   GL167945  26.853  27.601   5.719
 5252POPC   GL267946  27.092  27.299   5.723
 5252POPC   C1A67947  26.775  27.540   6.183
 5252POPC   D2A67948  26.759  27.820   6.559
 5252POPC   C3A67949  26.589  27.868   6.975
 5252POPC   C4A67950  26.740  27.778   7.378
 5252POPC   C1B67951  27.269  27.538   6.092
 5252POPC   C2B67952  27.191  27.557   6.525
 5252POPC   C3B67953  27.062  27.602   6.966
 5252POPC   C4B67954  27.273  27.451   7.355
 5253POPC   NC367955  22.229  27.263   5.389
 5253POPC   PO467956  22.643  26.867   5.604
 5253POPC   GL167957  22.373  27.218   5.886
 5253POPC   GL267958  22.254  27.587   5.815
 5253POPC   C1A67959  22.069  27.364   6.243
 5253POPC   D2A67960  21.925  27.194   6.656
 5253POPC   C3A67961  22.006  27.398   7.086
 5253POPC   C4A67962  22.357  27.554   7.357
 5253POPC   C1B67963  22.186  27.872   6.212
 5253POPC   C2B67964  22.064  27.789   6.680
 5253POPC   C3B67965  22.041  27.915   7.154
 5253POPC   C4B67966  22.217  27.969   7.615
 5254POPC   NC367967  38.544  25.012   5.524
 5254POPC   PO467968  38.302  25.576   5.568
 5254POPC   GL167969  38.071  25.438   5.885
 5254POPC   GL267970  38.125  25.070   5.840
 5254POPC   C1A67971  38.277  25.464   6.262
 5254POPC   D2A67972  38.436  25.623   6.633
 5254POPC   C3A67973  38.403  25.361   6.996
 5254POPC   C4A67974  38.085  25.523   7.250
 5254POPC   C1B67975  38.435  24.978   6.190
 5254POPC   C2B67976  38.585  25.039   6.609
 5254POPC   C3B67977  38.762  24.990   7.031
 5254POPC   C4B67978  38.515  24.952   7.409
 5255POPC   NC367979  25.808  26.603   5.258
 5255POPC   PO467980  26.005  27.299   5.372
 5255POPC   GL167981  26.112  26.853   5.578
 5255POPC   GL267982  25.848  26.603   5.749
 5255POPC   C1A67983  26.281  26.645   5.978
 5255POPC   D2A67984  26.339  26.745   6.436
 5255POPC   C3A67985  26.092  26.698   6.837
 5255POPC   C4A67986  26.277  26.779   7.243
 5255POPC   C1B67987  25.856  26.962   6.007
 5255POPC   C2B67988  25.795  26.915   6.442
 5255POPC   C3B67989  25.633  26.947   6.839
 5255POPC   C4B67990  25.835  27.031   7.211
 5256POPC   NC367991  11.960  37.091   5.588
 5256POPC   PO467992  11.876  36.425   5.498
 5256POPC   GL167993  12.119  36.650   5.834
 5256POPC   GL267994  12.427  36.894   5.741
 5256POPC   C1A67995  11.905  36.833   6.212
 5256POPC   D2A67996  11.799  36.697   6.624
 5256POPC   C3A67997  12.182  36.707   6.873
 5256POPC   C4A67998  12.180  36.803   7.279
 5256POPC   C1B67999  12.327  37.178   6.099
 5256POPC   C2B68000  12.159  37.244   6.502
 5256POPC   C3B68001  11.937  37.156   6.853
 5256POPC   C4B68002  11.891  37.224   7.272
 5257POPC   NC368003  44.661   5.748   5.336
 5257POPC   PO468004  44.029   5.714   5.133
 5257POPC   GL168005  44.295   5.984   5.563
 5257POPC   GL268006  44.442   5.699   5.792
 5257POPC   C1A68007  44.525   6.136   6.009
 5257POPC   D2A68008  44.572   6.026   6.476
 5257POPC   C3A68009  44.848   6.181   6.829
 5257POPC   C4A68010  44.884   6.041   7.265
 5257POPC   C1B68011  44.726   5.630   6.120
 5257POPC   C2B68012  44.782   5.545   6.550
 5257POPC   C3B68013  44.624   5.697   6.929
 5257POPC   C4B68014  44.672   5.549   7.326
 5258POPC   NC368015  14.260  29.522   5.340
 5258POPC   PO468016  14.556  28.916   5.502
 5258POPC   GL168017  14.453  29.020   5.884
 5258POPC   GL268018  14.381  29.325   5.848
 5258POPC   C1A68019  14.563  29.147   6.297
 5258POPC   D2A68020  14.633  29.074   6.720
 5258POPC   C3A68021  14.533  29.290   7.085
 5258POPC   C4A68022  14.386  29.004   7.374
 5258POPC   C1B68023  14.101  29.330   6.218
 5258POPC   C2B68024  14.226  29.432   6.634
 5258POPC   C3B68025  14.066  29.595   7.024
 5258POPC   C4B68026  14.043  29.388   7.403
 5259POPC   NC368027  17.718   8.265   5.526
 5259POPC   PO468028  17.085   8.183   5.521
 5259POPC   GL168029  17.305   8.328   5.880
 5259POPC   GL268030  17.303   7.994   5.989
 5259POPC   C1A68031  17.569   8.304   6.292
 5259POPC   D2A68032  17.564   8.224   6.706
 5259POPC   C3A68033  17.769   8.437   7.001
 5259POPC   C4A68034  17.570   8.263   7.388
 5259POPC   C1B68035  17.496   7.804   6.368
 5259POPC   C2B68036  17.411   7.748   6.801
 5259POPC   C3B68037  17.236   8.022   7.116
 5259POPC   C4B68038  17.201   7.980   7.580
 5260POPC   NC368039  37.949  28.011   5.447
 5260POPC   PO468040  37.802  27.338   5.371
 5260POPC   GL168041  37.868  27.335   5.803
 5260POPC   GL268042  37.747  27.677   5.827
 5260POPC   C1A68043  37.763  27.362   6.259
 5260POPC   D2A68044  37.937  27.634   6.629
 5260POPC   C3A68045  37.736  27.653   7.021
 5260POPC   C4A68046  37.701  27.799   7.415
 5260POPC   C1B68047  37.619  27.842   6.246
 5260POPC   C2B68048  37.408  27.629   6.628
 5260POPC   C3B68049  37.251  27.793   7.060
 5260POPC   C4B68050  37.191  27.850   7.505
 5261POPC   NC368051  37.806  22.517   5.576
 5261POPC   PO468052  38.021  21.939   5.198
 5261POPC   GL168053  37.677  21.989   5.613
 5261POPC   GL268054  37.401  22.266   5.745
 5261POPC   C1A68055  37.695  22.070   6.088
 5261POPC   D2A68056  37.978  21.957   6.391
 5261POPC   C3A68057  37.856  21.905   6.794
 5261POPC   C4A68058  38.007  21.988   7.174
 5261POPC   C1B68059  37.475  22.523   6.152
 5261POPC   C2B68060  37.622  22.325   6.554
 5261POPC   C3B68061  37.688  22.374   6.989
 5261POPC   C4B68062  37.884  22.455   7.351
 5262POPC   NC368063  12.905  40.237   5.444
 5262POPC   PO468064  12.734  40.792   5.518
 5262POPC   GL168065  12.685  40.494   5.871
 5262POPC   GL268066  13.017  40.365   5.926
 5262POPC   C1A68067  12.687  40.468   6.328
 5262POPC   D2A68068  12.947  40.655   6.658
 5262POPC   C3A68069  12.774  40.719   7.064
 5262POPC   C4A68070  12.883  40.635   7.475
 5262POPC   C1B68071  13.105  40.755   6.140
 5262POPC   C2B68072  13.186  41.048   6.460
 5262POPC   C3B68073  13.316  40.943   6.898
 5262POPC   C4B68074  13.178  41.007   7.293
 5263POPC   NC368075  24.408  16.966   5.151
 5263POPC   PO468076  24.279  16.472   5.380
 5263POPC   GL168077  24.445  16.517   5.810
 5263POPC   GL268078  24.531  16.853   5.952
 5263POPC   C1A68079  24.382  16.386   6.236
 5263POPC   D2A68080  24.244  16.472   6.638
 5263POPC   C3A68081  24.460  16.599   6.999
 5263POPC   C4A68082  24.433  17.008   7.217
 5263POPC   C1B68083  24.486  16.859   6.412
 5263POPC   C2B68084  24.753  16.947   6.764
 5263POPC   C3B68085  24.900  16.810   7.190
 5263POPC   C4B68086  24.895  16.893   7.648
 5264POPC   NC368087  43.767   7.062   5.603
 5264POPC   PO468088  44.261   7.533   5.436
 5264POPC   GL168089  44.012   7.502   5.855
 5264POPC   GL268090  43.679   7.599   5.702
 5264POPC   C1A68091  43.965   7.368   6.345
 5264POPC   D2A68092  44.010   7.161   6.791
 5264POPC   C3A68093  44.012   7.443   7.153
 5264POPC   C4A68094  43.987   7.384   7.579
 5264POPC   C1B68095  43.507   7.425   6.082
 5264POPC   C2B68096  43.439   7.454   6.498
 5264POPC   C3B68097  43.569   7.392   6.902
 5264POPC   C4B68098  43.575   7.153   7.235
 5265POPC   NC368099  13.785  43.230   5.600
 5265POPC   PO468100  14.256  42.808   5.398
 5265POPC   GL168101  14.445  43.019   5.725
 5265POPC   GL268102  14.253  43.291   5.837
 5265POPC   C1A68103  14.549  43.015   6.148
 5265POPC   D2A68104  14.370  42.845   6.503
 5265POPC   C3A68105  14.474  43.013   6.891
 5265POPC   C4A68106  14.542  42.952   7.298
 5265POPC   C1B68107  14.363  43.517   6.218
 5265POPC   C2B68108  14.450  43.501   6.677
 5265POPC   C3B68109  14.168  43.380   7.039
 5265POPC   C4B68110  14.213  43.269   7.518
 5266POPC   NC368111  10.326  14.565   5.619
 5266POPC   PO468112  10.845  14.142   5.465
 5266POPC   GL168113  10.671  14.267   5.843
 5266POPC   GL268114  10.861  14.087   6.052
 5266POPC   C1A68115  10.483  14.383   6.251
 5266POPC   D2A68116  10.464  14.162   6.649
 5266POPC   C3A68117  10.568  14.415   7.019
 5266POPC   C4A68118  10.314  14.726   7.203
 5266POPC   C1B68119  11.178  14.196   6.379
 5266POPC   C2B68120  11.141  14.126   6.825
 5266POPC   C3B68121  10.887  14.040   7.190
 5266POPC   C4B68122  10.778  14.359   7.518
 5267POPC   NC368123  42.761  25.476   5.404
 5267POPC   PO468124  43.301  25.141   5.558
 5267POPC   GL168125  43.057  25.370   5.834
 5267POPC   GL268126  42.848  25.078   5.793
 5267POPC   C1A68127  43.102  25.490   6.267
 5267POPC   D2A68128  43.012  25.292   6.669
 5267POPC   C3A68129  43.032  25.396   7.102
 5267POPC   C4A68130  43.291  25.314   7.456
 5267POPC   C1B68131  42.962  24.993   6.210
 5267POPC   C2B68132  42.751  24.876   6.564
 5267POPC   C3B68133  42.892  24.873   6.988
 5267POPC   C4B68134  42.974  24.937   7.436
 5268POPC   NC368135  41.282  22.446   5.439
 5268POPC   PO468136  41.811  22.105   5.373
 5268POPC   GL168137  41.589  22.221   5.767
 5268POPC   GL268138  41.260  22.038   5.768
 5268POPC   C1A68139  41.416  22.264   6.191
 5268POPC   D2A68140  41.650  22.342   6.557
 5268POPC   C3A68141  41.453  22.309   6.918
 5268POPC   C4A68142  41.461  22.521   7.294
 5268POPC   C1B68143  41.062  21.857   6.139
 5268POPC   C2B68144  41.172  21.975   6.547
 5268POPC   C3B68145  41.273  21.829   6.911
 5268POPC   C4B68146  41.222  22.059   7.299
 5269POPC   NC368147  43.656  40.918   5.381
 5269POPC   PO468148  43.773  40.247   5.129
 5269POPC   GL168149  43.762  40.456   5.570
 5269POPC   GL268150  44.055  40.706   5.609
 5269POPC   C1A68151  43.763  40.598   6.041
 5269POPC   D2A68152  43.769  40.605   6.544
 5269POPC   C3A68153  43.884  40.486   6.987
 5269POPC   C4A68154  43.723  40.814   7.229
 5269POPC   C1B68155  44.154  40.968   5.984
 5269POPC   C2B68156  44.130  41.009   6.432
 5269POPC   C3B68157  44.020  40.970   6.843
 5269POPC   C4B68158  44.111  41.133   7.287
 5270POPC   NC368159  17.859  36.692   5.171
 5270POPC   PO468160  17.314  37.063   5.511
 5270POPC   GL168161  17.473  36.862   5.849
 5270POPC   GL268162  17.582  36.531   5.772
 5270POPC   C1A68163  17.433  36.917   6.270
 5270POPC   D2A68164  17.250  36.913   6.626
 5270POPC   C3A68165  17.384  37.083   6.909
 5270POPC   C4A68166  17.605  36.915   7.133
 5270POPC   C1B68167  17.793  36.508   6.204
 5270POPC   C2B68168  17.958  36.354   6.617
 5270POPC   C3B68169  17.794  36.430   6.984
 5270POPC   C4B68170  17.762  36.553   7.419
 5271POPC   NC368171   1.223  23.659   5.449
 5271POPC   PO468172   0.820  24.073   5.769
 5271POPC   GL168173   1.205  23.891   5.934
 5271POPC   GL268174   1.449  23.589   5.906
 5271POPC   C1A68175   1.101  23.716   6.314
 5271POPC   D2A68176   0.841  23.424   6.511
 5271POPC   C3A68177   0.787  23.552   6.907
 5271POPC   C4A68178   1.073  23.691   7.206
 5271POPC   C1B68179   1.604  23.781   6.274
 5271POPC   C2B68180   1.428  23.855   6.693
 5271POPC   C3B68181   1.557  23.906   7.092
 5271POPC   C4B68182   1.580  23.516   7.281
 5272POPC   NC368183  29.551  28.479   5.272
 5272POPC   PO468184  28.988  28.223   5.493
 5272POPC   GL168185  29.318  28.262   5.754
 5272POPC   GL268186  29.349  27.909   5.780
 5272POPC   C1A68187  29.338  28.459   6.159
 5272POPC   D2A68188  29.361  28.642   6.564
 5272POPC   C3A68189  29.234  28.454   6.960
 5272POPC   C4A68190  28.873  28.573   7.278
 5272POPC   C1B68191  29.243  27.947   6.231
 5272POPC   C2B68192  29.380  28.067   6.650
 5272POPC   C3B68193  29.225  27.925   7.054
 5272POPC   C4B68194  29.246  28.217   7.407
 5273POPC   NC368195  26.567   1.378   5.403
 5273POPC   PO468196  27.196   1.055   5.424
 5273POPC   GL168197  26.991   1.255   5.754
 5273POPC   GL268198  26.664   1.147   5.854
 5273POPC   C1A68199  27.056   1.266   6.204
 5273POPC   D2A68200  26.847   1.205   6.641
 5273POPC   C3A68201  27.051   1.164   7.017
 5273POPC   C4A68202  27.193   1.362   7.387
 5273POPC   C1B68203  26.714   0.920   6.232
 5273POPC   C2B68204  26.512   0.810   6.622
 5273POPC   C3B68205  26.601   0.914   7.044
 5273POPC   C4B68206  26.808   1.021   7.461
 5274POPC   NC368207  44.546  16.631   5.203
 5274POPC   PO468208   0.130  16.534   5.394
 5274POPC   GL168209  44.778  16.717   5.648
 5274POPC   GL268210  44.507  16.459   5.700
 5274POPC   C1A68211  44.507  16.857   6.039
 5274POPC   D2A68212  44.295  17.046   6.467
 5274POPC   C3A68213  44.526  16.968   6.898
 5274POPC   C4A68214  44.918  16.878   7.138
 5274POPC   C1B68215  44.871  16.432   6.046
 5274POPC   C2B68216  44.972  16.465   6.503
 5274POPC   C3B68217  44.714  16.467   6.888
 5274POPC   C4B68218  44.311  16.349   7.128
 5275POPC   NC368219  27.269  38.130   5.310
 5275POPC   PO468220  27.819  37.806   5.060
 5275POPC   GL168221  27.772  37.651   5.493
 5275POPC   GL268222  27.761  37.965   5.732
 5275POPC   C1A68223  27.662  37.401   5.904
 5275POPC   D2A68224  27.592  37.539   6.352
 5275POPC   C3A68225  27.448  37.480   6.797
 5275POPC   C4A68226  27.397  37.786   7.150
 5275POPC   C1B68227  27.920  37.919   6.186
 5275POPC   C2B68228  27.762  37.963   6.611
 5275POPC   C3B68229  27.898  37.881   7.022
 5275POPC   C4B68230  27.928  38.110   7.386
 5276POPC   NC368231  23.185   5.257   4.853
 5276POPC   PO468232  22.934   4.992   5.375
 5276POPC   GL168233  22.864   5.205   5.754
 5276POPC   GL268234  22.553   5.282   5.893
 5276POPC   C1A68235  22.980   5.273   6.185
 5276POPC   D2A68236  22.891   5.232   6.617
 5276POPC   C3A68237  23.129   5.138   7.011
 5276POPC   C4A68238  22.908   5.237   7.392
 5276POPC   C1B68239  22.597   4.886   6.116
 5276POPC   C2B68240  22.614   4.670   6.514
 5276POPC   C3B68241  22.692   4.844   6.904
 5276POPC   C4B68242  22.503   4.938   7.278
 5277POPC   NC368243   1.510  30.099   5.421
 5277POPC   PO468244   0.865  29.784   5.247
 5277POPC   GL168245   1.090  29.803   5.690
 5277POPC   GL268246   1.350  30.029   5.887
 5277POPC   C1A68247   0.933  29.928   6.132
 5277POPC   D2A68248   0.930  30.050   6.535
 5277POPC   C3A68249   1.038  29.826   6.893
 5277POPC   C4A68250   0.968  30.008   7.272
 5277POPC   C1B68251   1.340  30.248   6.298
 5277POPC   C2B68252   1.498  30.082   6.703
 5277POPC   C3B68253   1.460  30.039   7.129
 5277POPC   C4B68254   1.327  30.391   7.323
 5278POPC   NC368255  28.589  35.429   5.379
 5278POPC   PO468256  27.989  35.294   5.688
 5278POPC   GL168257  28.432  35.300   5.863
 5278POPC   GL268258  28.581  35.653   5.834
 5278POPC   C1A68259  28.564  35.191   6.305
 5278POPC   D2A68260  28.182  35.281   6.584
 5278POPC   C3A68261  27.988  35.029   6.919
 5278POPC   C4A68262  28.132  35.181   7.298
 5278POPC   C1B68263  28.376  35.670   6.238
 5278POPC   C2B68264  28.582  35.592   6.631
 5278POPC   C3B68265  28.451  35.530   7.037
 5278POPC   C4B68266  28.768  35.618   7.309
 5279POPC   NC368267   8.977  33.351   5.663
 5279POPC   PO468268   8.780  33.929   5.386
 5279POPC   GL168269   8.961  34.062   5.758
 5279POPC   GL268270   8.872  33.776   5.893
 5279POPC   C1A68271   9.166  34.092   6.159
 5279POPC   D2A68272   9.409  34.087   6.548
 5279POPC   C3A68273   9.170  34.202   6.889
 5279POPC   C4A68274   9.009  34.056   7.260
 5279POPC   C1B68275   8.750  33.596   6.253
 5279POPC   C2B68276   8.962  33.776   6.565
 5279POPC   C3B68277   8.912  33.681   6.951
 5279POPC   C4B68278   8.506  33.590   7.124
 5280POPC   NC368279  32.497  38.327   5.318
 5280POPC   PO468280  32.006  38.727   5.399
 5280POPC   GL168281  32.239  38.555   5.739
 5280POPC   GL268282  32.157  38.228   5.677
 5280POPC   C1A68283  32.356  38.702   6.161
 5280POPC   D2A68284  32.101  38.906   6.507
 5280POPC   C3A68285  32.273  38.758   6.893
 5280POPC   C4A68286  32.251  38.419   7.165
 5280POPC   C1B68287  32.264  38.164   6.104
 5280POPC   C2B68288  32.257  38.345   6.539
 5280POPC   C3B68289  32.002  38.121   6.856
 5280POPC   C4B68290  32.076  37.955   7.272
 5281POPC   NC368291  20.682  44.731   5.317
 5281POPC   PO468292  20.221  44.424   5.670
 5281POPC   GL168293  20.640  44.555   5.830
 5281POPC   GL268294  20.640  44.921   5.822
 5281POPC   C1A68295  20.910  44.623   6.214
 5281POPC   D2A68296  20.943  44.936   6.555
 5281POPC   C3A68297  20.940  44.754   6.976
 5281POPC   C4A68298  20.868  44.563   7.407
 5281POPC   C1B68299  20.481  44.894   6.281
 5281POPC   C2B68300  20.562  44.598   6.658
 5281POPC   C3B68301  20.469  44.586   7.116
 5281POPC   C4B68302  20.240  44.867   7.405
 5282POPC   NC368303   2.430   3.292   5.486
 5282POPC   PO468304   1.797   3.391   5.567
 5282POPC   GL168305   2.016   3.644   5.787
 5282POPC   GL268306   2.217   3.414   5.930
 5282POPC   C1A68307   1.986   3.855   6.186
 5282POPC   D2A68308   2.106   3.668   6.596
 5282POPC   C3A68309   2.043   3.850   6.965
 5282POPC   C4A68310   1.908   3.696   7.365
 5282POPC   C1B68311   1.926   3.331   6.247
 5282POPC   C2B68312   2.023   3.124   6.621
 5282POPC   C3B68313   1.996   3.337   7.003
 5282POPC   C4B68314   2.047   3.212   7.426
 5283POPC   NC368315  42.182  41.066   5.040
 5283POPC   PO468316  42.260  40.690   5.555
 5283POPC   GL168317  42.276  40.803   5.934
 5283POPC   GL268318  42.298  41.131   5.900
 5283POPC   C1A68319  42.402  40.588   6.299
 5283POPC   D2A68320  42.273  40.328   6.629
 5283POPC   C3A68321  42.415  40.497   7.008
 5283POPC   C4A68322  42.406  40.483   7.466
 5283POPC   C1B68323  42.609  41.065   6.259
 5283POPC   C2B68324  42.698  40.861   6.677
 5283POPC   C3B68325  42.624  40.933   7.102
 5283POPC   C4B68326  42.297  40.991   7.411
 5284POPC   NC368327  41.957  28.028   5.516
 5284POPC   PO468328  42.539  28.343   5.389
 5284POPC   GL168329  42.612  28.364   5.825
 5284POPC   GL268330  42.748  28.036   5.885
 5284POPC   C1A68331  42.292  28.214   6.149
 5284POPC   D2A68332  42.004  28.078   6.498
 5284POPC   C3A68333  42.142  28.335   6.848
 5284POPC   C4A68334  42.155  28.514   7.255
 5284POPC   C1B68335  42.781  28.228   6.297
 5284POPC   C2B68336  42.850  28.455   6.693
 5284POPC   C3B68337  42.688  28.422   7.102
 5284POPC   C4B68338  42.447  28.101   7.205
 5285POPC   NC368339  34.920  35.149   5.569
 5285POPC   PO468340  35.671  35.131   5.566
 5285POPC   GL168341  35.346  35.353   5.790
 5285POPC   GL268342  35.481  35.588   5.996
 5285POPC   C1A68343  35.285  35.173   6.184
 5285POPC   D2A68344  35.459  35.408   6.496
 5285POPC   C3A68345  35.538  35.204   6.873
 5285POPC   C4A68346  35.249  35.357   7.097
 5285POPC   C1B68347  35.020  35.602   6.224
 5285POPC   C2B68348  35.038  35.754   6.647
 5285POPC   C3B68349  35.441  35.762   6.867
 5285POPC   C4B68350  35.742  35.648   7.148
 5286POPC   NC368351  42.719  32.829   5.538
 5286POPC   PO468352  42.308  33.395   5.321
 5286POPC   GL168353  42.438  33.227   5.753
 5286POPC   GL268354  42.347  32.861   5.865
 5286POPC   C1A68355  42.298  33.321   6.178
 5286POPC   D2A68356  42.376  33.152   6.598
 5286POPC   C3A68357  42.211  33.318   6.975
 5286POPC   C4A68358  42.352  33.116   7.369
 5286POPC   C1B68359  42.537  32.824   6.253
 5286POPC   C2B68360  42.662  32.592   6.569
 5286POPC   C3B68361  42.506  32.730   6.932
 5286POPC   C4B68362  42.385  32.590   7.304
 5287POPC   NC368363   2.485  41.615   5.267
 5287POPC   PO468364   2.925  41.108   5.407
 5287POPC   GL168365   2.715  41.364   5.704
 5287POPC   GL268366   2.803  41.723   5.676
 5287POPC   C1A68367   2.605  41.469   6.129
 5287POPC   D2A68368   2.423  41.534   6.513
 5287POPC   C3A68369   2.699  41.376   6.816
 5287POPC   C4A68370   2.629  41.345   7.243
 5287POPC   C1B68371   2.967  41.821   6.094
 5287POPC   C2B68372   2.803  41.859   6.508
 5287POPC   C3B68373   2.952  41.821   6.898
 5287POPC   C4B68374   3.098  42.088   7.191
 5288POPC   NC368375  25.789   3.679   5.455
 5288POPC   PO468376  26.434   3.538   5.442
 5288POPC   GL168377  26.069   3.345   5.753
 5288POPC   GL268378  25.703   3.209   5.709
 5288POPC   C1A68379  25.823   3.506   6.145
 5288POPC   D2A68380  25.813   3.711   6.575
 5288POPC   C3A68381  26.141   3.575   6.872
 5288POPC   C4A68382  26.213   3.214   7.151
 5288POPC   C1B68383  25.634   3.042   6.144
 5288POPC   C2B68384  25.758   3.191   6.578
 5288POPC   C3B68385  25.709   3.358   7.010
 5288POPC   C4B68386  25.840   3.310   7.495
 5289POPC   NC368387  36.101  35.062   5.688
 5289POPC   PO468388  36.093  35.682   5.305
 5289POPC   GL168389  35.953  35.542   5.731
 5289POPC   GL268390  36.314  35.502   5.842
 5289POPC   C1A68391  35.937  35.469   6.217
 5289POPC   D2A68392  35.941  35.480   6.690
 5289POPC   C3A68393  36.047  35.240   7.082
 5289POPC   C4A68394  36.090  35.442   7.493
 5289POPC   C1B68395  36.455  35.337   6.271
 5289POPC   C2B68396  36.432  35.258   6.733
 5289POPC   C3B68397  36.541  35.354   7.167
 5289POPC   C4B68398  36.481  35.138   7.545
 5290POPC   NC368399   8.857  20.595   5.340
 5290POPC   PO468400   8.200  20.769   5.351
 5290POPC   GL168401   8.246  20.771   5.804
 5290POPC   GL268402   8.487  21.063   5.846
 5290POPC   C1A68403   7.916  20.674   6.168
 5290POPC   D2A68404   7.793  20.817   6.601
 5290POPC   C3A68405   7.968  20.564   6.939
 5290POPC   C4A68406   7.861  20.359   7.324
 5290POPC   C1B68407   8.240  21.059   6.226
 5290POPC   C2B68408   8.293  20.896   6.629
 5290POPC   C3B68409   8.142  21.025   7.025
 5290POPC   C4B68410   8.177  20.759   7.365
 5291POPC   NC368411   2.121  30.320   5.346
 5291POPC   PO468412   1.753  29.680   5.420
 5291POPC   GL168413   1.869  29.952   5.758
 5291POPC   GL268414   2.223  29.896   5.710
 5291POPC   C1A68415   1.758  29.953   6.211
 5291POPC   D2A68416   1.841  29.700   6.572
 5291POPC   C3A68417   1.911  29.861   6.969
 5291POPC   C4A68418   2.185  30.116   7.207
 5291POPC   C1B68419   2.088  29.568   6.035
 5291POPC   C2B68420   2.149  29.328   6.421
 5291POPC   C3B68421   2.208  29.439   6.851
 5291POPC   C4B68422   2.263  29.608   7.255
 5292POPC   NC368423  13.413  37.757   5.361
 5292POPC   PO468424  14.029  37.944   5.260
 5292POPC   GL168425  13.800  37.800   5.690
 5292POPC   GL268426  13.924  37.466   5.745
 5292POPC   C1A68427  13.601  37.641   6.139
 5292POPC   D2A68428  13.309  37.532   6.517
 5292POPC   C3A68429  13.425  37.637   6.924
 5292POPC   C4A68430  13.557  37.714   7.355
 5292POPC   C1B68431  14.081  37.478   6.200
 5292POPC   C2B68432  13.878  37.660   6.609
 5292POPC   C3B68433  13.895  37.489   7.043
 5292POPC   C4B68434  14.065  37.554   7.493
 5293POPC   NC368435  14.994  41.587   5.667
 5293POPC   PO468436  15.488  41.866   5.287
 5293POPC   GL168437  15.471  41.747   5.845
 5293POPC   GL268438  15.300  41.468   6.054
 5293POPC   C1A68439  15.351  41.869   6.323
 5293POPC   D2A68440  15.341  41.444   6.547
 5293POPC   C3A68441  15.246  41.437   6.935
 5293POPC   C4A68442  15.312  41.887   6.897
 5293POPC   C1B68443  14.903  41.644   6.294
 5293POPC   C2B68444  14.775  41.789   6.684
 5293POPC   C3B68445  14.857  41.705   7.108
 5293POPC   C4B68446  14.909  41.512   7.528
 5294POPC   NC368447  12.636  11.106   5.374
 5294POPC   PO468448  13.065  11.659   5.441
 5294POPC   GL168449  12.880  11.378   5.729
 5294POPC   GL268450  12.549  11.510   5.713
 5294POPC   C1A68451  12.675  11.130   6.053
 5294POPC   D2A68452  12.667  11.225   6.472
 5294POPC   C3A68453  12.549  11.156   6.878
 5294POPC   C4A68454  12.911  11.114   7.125
 5294POPC   C1B68455  12.752  11.642   6.160
 5294POPC   C2B68456  12.759  11.731   6.647
 5294POPC   C3B68457  12.681  11.595   7.112
 5294POPC   C4B68458  12.658  11.725   7.594
 5295POPC   NC368459  23.307  12.676   5.575
 5295POPC   PO468460  22.883  13.206   5.510
 5295POPC   GL168461  22.899  12.889   5.816
 5295POPC   GL268462  22.625  12.659   5.869
 5295POPC   C1A68463  23.029  12.741   6.190
 5295POPC   D2A68464  22.970  13.024   6.534
 5295POPC   C3A68465  22.910  12.839   6.900
 5295POPC   C4A68466  23.201  12.725   7.168
 5295POPC   C1B68467  22.554  12.899   6.251
 5295POPC   C2B68468  22.404  12.857   6.698
 5295POPC   C3B68469  22.461  12.923   7.133
 5295POPC   C4B68470  22.840  13.092   7.379
 5296POPC   NC368471  33.969  15.596   5.407
 5296POPC   PO468472  33.632  16.153   5.215
 5296POPC   GL168473  33.783  16.020   5.613
 5296POPC   GL268474  34.171  15.998   5.616
 5296POPC   C1A68475  33.779  15.887   6.035
 5296POPC   D2A68476  33.775  16.143   6.404
 5296POPC   C3A68477  33.735  15.912   6.759
 5296POPC   C4A68478  33.885  16.019   7.156
 5296POPC   C1B68479  34.268  15.712   5.988
 5296POPC   C2B68480  34.114  15.730   6.411
 5296POPC   C3B68481  34.241  15.846   6.812
 5296POPC   C4B68482  34.285  15.725   7.220
 5297POPC   NC368483  29.503  33.817   5.472
 5297POPC   PO468484  30.099  33.426   5.386
 5297POPC   GL168485  29.964  33.744   5.698
 5297POPC   GL268486  29.685  33.607   5.914
 5297POPC   C1A68487  29.934  34.010   6.087
 5297POPC   D2A68488  29.797  33.793   6.450
 5297POPC   C3A68489  30.023  33.954   6.817
 5297POPC   C4A68490  30.261  34.046   7.199
 5297POPC   C1B68491  29.334  33.621   6.219
 5297POPC   C2B68492  29.283  33.650   6.642
 5297POPC   C3B68493  29.645  33.537   6.872
 5297POPC   C4B68494  29.798  33.760   7.223
 5298POPC   NC368495  19.352   2.204   5.675
 5298POPC   PO468496  20.014   2.028   5.368
 5298POPC   GL168497  19.912   1.913   5.800
 5298POPC   GL268498  19.827   2.250   5.854
 5298POPC   C1A68499  19.794   1.886   6.265
 5298POPC   D2A68500  19.815   1.779   6.718
 5298POPC   C3A68501  19.613   2.016   7.052
 5298POPC   C4A68502  19.657   2.065   7.495
 5298POPC   C1B68503  20.025   2.353   6.235
 5298POPC   C2B68504  19.853   2.313   6.651
 5298POPC   C3B68505  20.035   2.350   7.065
 5298POPC   C4B68506  20.179   2.573   7.478
 5299POPC   NC368507   5.074  34.667   5.531
 5299POPC   PO468508   4.941  33.922   5.547
 5299POPC   GL168509   5.036  34.250   5.818
 5299POPC   GL268510   5.391  34.345   5.796
 5299POPC   C1A68511   5.093  34.508   6.202
 5299POPC   D2A68512   5.296  34.789   6.533
 5299POPC   C3A68513   5.225  34.578   6.931
 5299POPC   C4A68514   4.905  34.303   7.098
 5299POPC   C1B68515   5.615  34.455   6.179
 5299POPC   C2B68516   5.488  34.311   6.567
 5299POPC   C3B68517   5.617  34.124   6.902
 5299POPC   C4B68518   5.400  34.206   7.233
 5300POPC   NC368519  13.834  42.604   5.311
 5300POPC   PO468520  13.219  42.254   5.339
 5300POPC   GL168521  13.399  42.513   5.639
 5300POPC   GL268522  13.656  42.278   5.702
 5300POPC   C1A68523  13.483  42.547   6.098
 5300POPC   D2A68524  13.279  42.442   6.493
 5300POPC   C3A68525  13.458  42.349   6.898
 5300POPC   C4A68526  13.640  42.572   7.246
 5300POPC   C1B68527  13.923  42.196   6.078
 5300POPC   C2B68528  13.822  42.166   6.525
 5300POPC   C3B68529  13.933  42.179   6.968
 5300POPC   C4B68530  13.697  42.092   7.351
 5301POPC   NC368531  34.007   7.770   5.378
 5301POPC   PO468532  33.877   7.097   5.480
 5301POPC   GL168533  33.856   7.425   5.746
 5301POPC   GL268534  33.575   7.612   5.651
 5301POPC   C1A68535  34.009   7.417   6.160
 5301POPC   D2A68536  33.756   7.260   6.490
 5301POPC   C3A68537  33.948   7.413   6.850
 5301POPC   C4A68538  33.814   7.271   7.295
 5301POPC   C1B68539  33.529   7.627   6.118
 5301POPC   C2B68540  33.327   7.582   6.538
 5301POPC   C3B68541  33.477   7.517   6.978
 5301POPC   C4B68542  33.833   7.808   7.147
 5302POPC   NC368543  43.647  18.921   5.403
 5302POPC   PO468544  42.929  19.059   5.462
 5302POPC   GL168545  43.125  19.003   5.839
 5302POPC   GL268546  43.362  18.725   5.815
 5302POPC   C1A68547  43.155  19.263   6.179
 5302POPC   D2A68548  43.461  19.382   6.436
 5302POPC   C3A68549  43.225  19.406   6.784
 5302POPC   C4A68550  43.006  19.261   7.165
 5302POPC   C1B68551  43.481  18.872   6.246
 5302POPC   C2B68552  43.203  18.921   6.587
 5302POPC   C3B68553  43.215  18.807   7.019
 5302POPC   C4B68554  43.307  18.859   7.467
 5303POPC   NC368555  19.474  31.660   5.471
 5303POPC   PO468556  18.897  31.429   5.565
 5303POPC   GL168557  19.150  31.571   5.848
 5303POPC   GL268558  19.337  31.255   5.797
 5303POPC   C1A68559  19.060  31.675   6.241
 5303POPC   D2A68560  18.879  31.410   6.573
 5303POPC   C3A68561  18.920  31.579   6.963
 5303POPC   C4A68562  19.045  31.633   7.365
 5303POPC   C1B68563  19.127  31.154   6.217
 5303POPC   C2B68564  19.193  30.976   6.661
 5303POPC   C3B68565  19.302  31.081   7.100
 5303POPC   C4B68566  19.420  31.305   7.475
 5304POPC   NC368567  38.172  12.913   5.213
 5304POPC   PO468568  38.653  12.872   5.793
 5304POPC   GL168569  38.297  12.889   6.067
 5304POPC   GL268570  38.203  13.210   6.150
 5304POPC   C1A68571  38.187  12.861   6.524
 5304POPC   D2A68572  38.262  12.570   6.827
 5304POPC   C3A68573  38.477  12.816   7.105
 5304POPC   C4A68574  38.540  12.891   7.549
 5304POPC   C1B68575  38.612  13.158   6.403
 5304POPC   C2B68576  38.812  13.353   6.775
 5304POPC   C3B68577  38.830  13.204   7.221
 5304POPC   C4B68578  38.893  13.223   7.692
 5305POPC   NC368579  32.082  39.184   5.377
 5305POPC   PO468580  32.230  39.786   5.234
 5305POPC   GL168581  32.133  39.507   5.731
 5305POPC   GL268582  31.913  39.169   5.856
 5305POPC   C1A68583  32.329  39.242   6.130
 5305POPC   D2A68584  32.580  39.068   6.498
 5305POPC   C3A68585  32.409  39.251   6.872
 5305POPC   C4A68586  32.407  39.079   7.289
 5305POPC   C1B68587  31.818  39.319   6.277
 5305POPC   C2B68588  31.802  39.376   6.730
 5305POPC   C3B68589  31.938  39.144   7.086
 5305POPC   C4B68590  32.004  39.277   7.528
 5306POPC   NC368591  27.140   9.490   5.369
 5306POPC   PO468592  27.448  10.051   5.459
 5306POPC   GL168593  27.407   9.686   5.772
 5306POPC   GL268594  27.723   9.556   5.861
 5306POPC   C1A68595  27.252   9.520   6.171
 5306POPC   D2A68596  27.245   9.758   6.566
 5306POPC   C3A68597  27.417   9.763   6.998
 5306POPC   C4A68598  27.292  10.038   7.343
 5306POPC   C1B68599  27.700   9.748   6.287
 5306POPC   C2B68600  27.827   9.870   6.716
 5306POPC   C3B68601  27.812  10.074   7.134
 5306POPC   C4B68602  28.065   9.895   7.482
 5307POPC   NC368603  15.081  41.247   5.258
 5307POPC   PO468604  15.239  40.582   5.260
 5307POPC   GL168605  15.134  40.567   5.740
 5307POPC   GL268606  15.077  40.935   5.811
 5307POPC   C1A68607  15.218  40.667   6.222
 5307POPC   D2A68608  15.255  40.947   6.630
 5307POPC   C3A68609  15.086  40.759   7.021
 5307POPC   C4A68610  15.357  40.529   7.281
 5307POPC   C1B68611  14.961  41.138   6.228
 5307POPC   C2B68612  14.820  41.265   6.664
 5307POPC   C3B68613  14.836  41.192   7.129
 5307POPC   C4B68614  14.845  40.988   7.560
 5308POPC   NC368615  35.144  17.762   5.533
 5308POPC   PO468616  35.693  17.345   5.531
 5308POPC   GL168617  35.399  17.445   5.880
 5308POPC   GL268618  35.017  17.486   5.941
 5308POPC   C1A68619  35.325  17.276   6.307
 5308POPC   D2A68620  35.050  17.464   6.620
 5308POPC   C3A68621  35.257  17.434   7.019
 5308POPC   C4A68622  35.497  17.084   7.236
 5308POPC   C1B68623  35.263  17.786   6.236
 5308POPC   C2B68624  35.114  18.001   6.599
 5308POPC   C3B68625  34.918  17.840   6.972
 5308POPC   C4B68626  35.051  17.788   7.395
 5309POPC   NC368627   3.623  16.335   5.360
 5309POPC   PO468628   3.179  16.747   5.385
 5309POPC   GL168629   3.372  16.615   5.795
 5309POPC   GL268630   3.241  16.279   5.798
 5309POPC   C1A68631   3.401  16.801   6.251
 5309POPC   D2A68632   3.464  17.089   6.652
 5309POPC   C3A68633   3.597  17.009   7.101
 5309POPC   C4A68634   3.803  17.275   7.426
 5309POPC   C1B68635   3.292  16.290   6.263
 5309POPC   C2B68636   3.306  16.526   6.675
 5309POPC   C3B68637   3.393  16.539   7.121
 5309POPC   C4B68638   3.366  16.353   7.520
 5310POPC   NC368639  10.068  15.901   5.479
 5310POPC   PO468640  10.734  15.750   5.382
 5310POPC   GL168641  10.507  15.846   5.775
 5310POPC   GL268642  10.231  15.623   5.890
 5310POPC   C1A68643  10.583  15.862   6.224
 5310POPC   D2A68644  10.774  16.057   6.549
 5310POPC   C3A68645  10.704  15.802   6.921
 5310POPC   C4A68646  10.541  16.003   7.266
 5310POPC   C1B68647  10.103  15.971   6.194
 5310POPC   C2B68648  10.265  15.994   6.651
 5310POPC   C3B68649  10.197  15.712   7.037
 5310POPC   C4B68650   9.864  15.604   7.334
 5311POPC   NC368651   5.578  10.755   5.461
 5311POPC   PO468652   6.249  10.445   5.427
 5311POPC   GL168653   6.178  10.243   5.862
 5311POPC   GL268654   5.821  10.121   5.934
 5311POPC   C1A68655   6.143  10.230   6.322
 5311POPC   D2A68656   6.133  10.514   6.653
 5311POPC   C3A68657   6.072  10.486   7.074
 5311POPC   C4A68658   5.942  10.854   7.287
 5311POPC   C1B68659   5.684  10.064   6.369
 5311POPC   C2B68660   5.559  10.357   6.697
 5311POPC   C3B68661   5.549  10.520   7.110
 5311POPC   C4B68662   5.615  10.306   7.485
 5312POPC   NC368663   4.725  34.109   5.206
 5312POPC   PO468664   4.059  33.812   5.356
 5312POPC   GL168665   4.423  33.772   5.646
 5312POPC   GL268666   4.501  34.141   5.680
 5312POPC   C1A68667   4.491  33.632   6.116
 5312POPC   D2A68668   4.418  33.521   6.591
 5312POPC   C3A68669   4.102  33.808   6.834
 5312POPC   C4A68670   3.946  33.854   7.278
 5312POPC   C1B68671   4.627  34.192   6.111
 5312POPC   C2B68672   4.496  34.034   6.496
 5312POPC   C3B68673   4.632  33.893   6.885
 5312POPC   C4B68674   4.446  34.001   7.262
 5313POPC   NC368675  39.691  43.683   5.547
 5313POPC   PO468676  39.043  43.810   5.532
 5313POPC   GL168677  39.200  44.022   5.896
 5313POPC   GL268678  39.549  44.140   5.793
 5313POPC   C1A68679  39.055  43.883   6.348
 5313POPC   D2A68680  39.026  43.583   6.729
 5313POPC   C3A68681  39.171  43.799   7.100
 5313POPC   C4A68682  39.264  44.220   7.215
 5313POPC   C1B68683  39.555  43.991   6.248
 5313POPC   C2B68684  39.470  44.176   6.682
 5313POPC   C3B68685  39.702  44.036   7.059
 5313POPC   C4B68686  39.665  43.611   7.200
 5314POPC   NC368687  15.736  32.559   5.373
 5314POPC   PO468688  16.221  32.238   5.536
 5314POPC   GL168689  16.028  32.222   5.893
 5314POPC   GL268690  15.737  32.477   5.867
 5314POPC   C1A68691  16.129  32.000   6.286
 5314POPC   D2A68692  16.144  32.326   6.574
 5314POPC   C3A68693  15.979  32.333   6.926
 5314POPC   C4A68694  15.936  32.489   7.285
 5314POPC   C1B68695  15.583  32.662   6.224
 5314POPC   C2B68696  15.800  32.708   6.608
 5314POPC   C3B68697  15.573  32.693   6.993
 5314POPC   C4B68698  15.491  32.678   7.439
 5315POPC   NC368699  44.851  28.176   5.508
 5315POPC   PO468700  44.719  27.577   5.523
 5315POPC   GL168701  44.769  27.859   5.883
 5315POPC   GL268702  44.442  27.882   5.992
 5315POPC   C1A68703  44.830  27.908   6.324
 5315POPC   D2A68704  44.502  27.684   6.541
 5315POPC   C3A68705  44.578  27.424   6.867
 5315POPC   C4A68706  44.605  27.773   7.141
 5315POPC   C1B68707  44.219  27.479   6.187
 5315POPC   C2B68708  44.099  27.361   6.645
 5315POPC   C3B68709  44.149  27.559   7.097
 5315POPC   C4B68710  44.414  27.491   7.509
 5316POPC   NC368711  27.863  35.734   5.690
 5316POPC   PO468712  27.863  36.388   5.591
 5316POPC   GL168713  27.609  36.141   5.880
 5316POPC   GL268714  27.574  36.444   6.020
 5316POPC   C1A68715  27.671  36.035   6.328
 5316POPC   D2A68716  27.850  36.331   6.616
 5316POPC   C3A68717  27.778  36.250   7.029
 5316POPC   C4A68718  27.483  35.987   7.194
 5316POPC   C1B68719  27.523  36.638   6.363
 5316POPC   C2B68720  27.250  36.492   6.609
 5316POPC   C3B68721  27.315  36.450   7.007
 5316POPC   C4B68722  27.144  36.348   7.383
 5317POPC   NC368723  15.548  35.524   5.631
 5317POPC   PO468724  14.944  35.166   5.513
 5317POPC   GL168725  15.075  35.393   5.913
 5317POPC   GL268726  14.883  35.695   5.999
 5317POPC   C1A68727  15.224  35.321   6.351
 5317POPC   D2A68728  15.203  35.048   6.727
 5317POPC   C3A68729  15.241  35.214   7.090
 5317POPC   C4A68730  15.545  35.509   7.240
 5317POPC   C1B68731  14.839  35.645   6.433
 5317POPC   C2B68732  15.090  35.610   6.792
 5317POPC   C3B68733  15.023  35.672   7.228
 5317POPC   C4B68734  14.903  35.734   7.639
 5318POPC   NC368735  16.872   8.611   5.563
 5318POPC   PO468736  16.475   8.196   5.221
 5318POPC   GL168737  16.589   8.200   5.683
 5318POPC   GL268738  16.393   7.928   5.744
 5318POPC   C1A68739  16.833   8.304   6.118
 5318POPC   D2A68740  17.087   8.155   6.479
 5318POPC   C3A68741  16.878   8.285   6.876
 5318POPC   C4A68742  16.797   8.602   7.226
 5318POPC   C1B68743  16.361   8.095   6.179
 5318POPC   C2B68744  16.491   7.971   6.611
 5318POPC   C3B68745  16.382   7.777   7.026
 5318POPC   C4B68746  16.491   8.164   7.200
 5319POPC   NC368747   7.652   9.607   5.430
 5319POPC   PO468748   7.187  10.132   5.279
 5319POPC   GL168749   7.242   9.960   5.708
 5319POPC   GL268750   7.265   9.612   5.761
 5319POPC   C1A68751   7.432   9.930   6.149
 5319POPC   D2A68752   7.300   9.793   6.561
 5319POPC   C3A68753   7.512   9.866   6.938
 5319POPC   C4A68754   7.246   9.952   7.289
 5319POPC   C1B68755   7.563   9.429   6.089
 5319POPC   C2B68756   7.561   9.374   6.553
 5319POPC   C3B68757   7.364   9.384   6.946
 5319POPC   C4B68758   7.525   9.545   7.349
 5320POPC   NC368759  15.947  41.690   5.384
 5320POPC   PO468760  15.374  41.298   5.604
 5320POPC   GL168761  15.811  41.381   5.828
 5320POPC   GL268762  16.109  41.657   5.855
 5320POPC   C1A68763  15.789  41.612   6.246
 5320POPC   D2A68764  15.763  41.835   6.651
 5320POPC   C3A68765  15.742  41.518   6.935
 5320POPC   C4A68766  15.797  41.376   7.336
 5320POPC   C1B68767  16.213  41.892   6.241
 5320POPC   C2B68768  16.257  41.705   6.647
 5320POPC   C3B68769  16.138  41.808   7.078
 5320POPC   C4B68770  16.241  41.732   7.530
 5321POPC   NC368771  27.237   2.144   5.312
 5321POPC   PO468772  26.576   1.831   5.306
 5321POPC   GL168773  26.705   1.963   5.673
 5321POPC   GL268774  27.020   1.790   5.648
 5321POPC   C1A68775  26.499   2.023   6.061
 5321POPC   D2A68776  26.692   2.022   6.464
 5321POPC   C3A68777  26.510   2.119   6.854
 5321POPC   C4A68778  26.794   2.179   7.170
 5321POPC   C1B68779  26.894   1.710   6.083
 5321POPC   C2B68780  27.044   1.661   6.538
 5321POPC   C3B68781  26.956   1.686   6.991
 5321POPC   C4B68782  27.137   1.851   7.373
 5322POPC   NC368783  10.664  17.569   5.369
 5322POPC   PO468784  10.270  17.070   5.506
 5322POPC   GL168785  10.517  17.348   5.810
 5322POPC   GL268786  10.448  17.749   5.805
 5322POPC   C1A68787  10.633  17.486   6.233
 5322POPC   D2A68788  10.628  17.719   6.633
 5322POPC   C3A68789  10.621  17.432   6.989
 5322POPC   C4A68790  10.956  17.267   7.233
 5322POPC   C1B68791  10.513  18.015   6.184
 5322POPC   C2B68792  10.326  18.143   6.582
 5322POPC   C3B68793  10.276  17.919   6.962
 5322POPC   C4B68794  10.593  17.900   7.230
 5323POPC   NC368795  39.765  17.671   5.149
 5323POPC   PO468796  39.218  17.351   5.292
 5323POPC   GL168797  39.275  17.574   5.704
 5323POPC   GL268798  39.540  17.814   5.823
 5323POPC   C1A68799  39.253  17.511   6.156
 5323POPC   D2A68800  39.069  17.309   6.518
 5323POPC   C3A68801  39.288  17.426   6.877
 5323POPC   C4A68802  39.138  17.513   7.264
 5323POPC   C1B68803  39.562  17.934   6.283
 5323POPC   C2B68804  39.589  17.986   6.741
 5323POPC   C3B68805  39.540  17.826   7.165
 5323POPC   C4B68806  39.464  17.671   7.619
 5324POPC   NC368807  27.381  36.463   5.540
 5324POPC   PO468808  27.720  36.967   5.272
 5324POPC   GL168809  27.700  36.853   5.717
 5324POPC   GL268810  27.410  36.919   5.852
 5324POPC   C1A68811  27.860  36.935   6.125
 5324POPC   D2A68812  27.769  37.089   6.537
 5324POPC   C3A68813  27.741  36.778   6.832
 5324POPC   C4A68814  27.996  36.714   7.150
 5324POPC   C1B68815  27.315  37.092   6.251
 5324POPC   C2B68816  27.292  36.992   6.692
 5324POPC   C3B68817  27.372  36.961   7.130
 5324POPC   C4B68818  27.236  36.899   7.548
 5325POPC   NC368819  26.969   8.687   5.387
 5325POPC   PO468820  26.505   8.401   5.334
 5325POPC   GL168821  26.626   8.494   5.786
 5325POPC   GL268822  26.672   8.155   5.869
 5325POPC   C1A68823  26.789   8.483   6.259
 5325POPC   D2A68824  26.804   8.294   6.696
 5325POPC   C3A68825  26.920   8.447   7.125
 5325POPC   C4A68826  27.006   8.279   7.550
 5325POPC   C1B68827  26.361   8.198   6.205
 5325POPC   C2B68828  26.291   8.311   6.647
 5325POPC   C3B68829  26.415   8.537   7.041
 5325POPC   C4B68830  26.516   8.452   7.475
 5326POPC   NC368831  27.996  33.709   5.344
 5326POPC   PO468832  28.660  33.690   5.460
 5326POPC   GL168833  28.510  33.616   5.876
 5326POPC   GL268834  28.168  33.720   5.828
 5326POPC   C1A68835  28.406  33.850   6.286
 5326POPC   D2A68836  28.509  33.974   6.704
 5326POPC   C3A68837  28.315  33.856   7.059
 5326POPC   C4A68838  28.428  33.457   7.156
 5326POPC   C1B68839  28.116  33.443   6.193
 5326POPC   C2B68840  28.268  33.442   6.613
 5326POPC   C3B68841  27.985  33.442   6.942
 5326POPC   C4B68842  27.916  33.639   7.301
 5327POPC   NC368843  42.201  13.847   5.404
 5327POPC   PO468844  42.678  13.488   5.150
 5327POPC   GL168845  42.634  13.691   5.664
 5327POPC   GL268846  42.441  13.995   5.807
 5327POPC   C1A68847  42.417  13.568   6.102
 5327POPC   D2A68848  42.094  13.627   6.430
 5327POPC   C3A68849  42.270  13.557   6.844
 5327POPC   C4A68850  42.091  13.366   7.196
 5327POPC   C1B68851  42.643  14.022   6.175
 5327POPC   C2B68852  42.598  13.818   6.527
 5327POPC   C3B68853  42.620  13.934   6.904
 5327POPC   C4B68854  42.508  13.780   7.285
 5328POPC   NC368855  40.914  27.207   5.416
 5328POPC   PO468856  40.838  27.876   5.414
 5328POPC   GL168857  40.682  27.782   5.825
 5328POPC   GL268858  40.849  27.491   5.844
 5328POPC   C1A68859  40.575  27.660   6.251
 5328POPC   D2A68860  40.684  27.464   6.605
 5328POPC   C3A68861  40.539  27.714   6.922
 5328POPC   C4A68862  40.595  27.704   7.349
 5328POPC   C1B68863  41.082  27.615   6.218
 5328POPC   C2B68864  41.179  27.432   6.633
 5328POPC   C3B68865  40.972  27.451   7.053
 5328POPC   C4B68866  40.997  27.408   7.510
 5329POPC   NC368867  30.141  28.598   5.353
 5329POPC   PO468868  29.753  28.086   5.161
 5329POPC   GL168869  29.819  28.085   5.609
 5329POPC   GL268870  30.003  28.346   5.761
 5329POPC   C1A68871  29.713  28.090   6.064
 5329POPC   D2A68872  29.783  28.343   6.414
 5329POPC   C3A68873  29.888  28.196   6.774
 5329POPC   C4A68874  29.673  28.155   7.155
 5329POPC   C1B68875  30.222  28.180   6.146
 5329POPC   C2B68876  30.346  28.354   6.541
 5329POPC   C3B68877  30.257  28.599   6.872
 5329POPC   C4B68878  30.142  28.336   7.212
 5330POPC   NC368879  18.786  23.738   5.442
 5330POPC   PO468880  19.401  23.501   5.479
 5330POPC   GL168881  19.229  23.670   5.827
 5330POPC   GL268882  18.941  23.465   5.840
 5330POPC   C1A68883  19.182  23.547   6.262
 5330POPC   D2A68884  18.816  23.463   6.557
 5330POPC   C3A68885  18.932  23.491   6.983
 5330POPC   C4A68886  19.035  23.794   7.293
 5330POPC   C1B68887  18.757  23.782   6.138
 5330POPC   C2B68888  18.579  23.920   6.523
 5330POPC   C3B68889  18.610  23.899   6.974
 5330POPC   C4B68890  18.451  23.917   7.400
 5331POPC   NC368891  37.545  26.958   5.450
 5331POPC   PO468892  37.982  26.429   5.441
 5331POPC   GL168893  37.883  26.633   5.815
 5331POPC   GL268894  37.527  26.582   5.824
 5331POPC   C1A68895  37.944  26.857   6.222
 5331POPC   D2A68896  38.051  27.135   6.595
 5331POPC   C3A68897  37.810  27.122   7.000
 5331POPC   C4A68898  37.815  27.292   7.428
 5331POPC   C1B68899  37.435  26.796   6.196
 5331POPC   C2B68900  37.584  26.890   6.604
 5331POPC   C3B68901  37.522  26.715   7.026
 5331POPC   C4B68902  37.930  26.640   7.164
 5332POPC   NC368903  25.875  35.909   5.502
 5332POPC   PO468904  26.135  36.580   5.471
 5332POPC   GL168905  26.061  36.299   5.855
 5332POPC   GL268906  26.200  35.942   5.898
 5332POPC   C1A68907  25.961  36.469   6.293
 5332POPC   D2A68908  26.242  36.430   6.669
 5332POPC   C3A68909  26.030  36.464   7.076
 5332POPC   C4A68910  25.870  36.328   7.483
 5332POPC   C1B68911  25.954  35.967   6.281
 5332POPC   C2B68912  25.890  36.033   6.771
 5332POPC   C3B68913  26.082  35.923   7.213
 5332POPC   C4B68914  26.242  35.990   7.662
 5333POPC   NC368915  11.845  41.494   5.494
 5333POPC   PO468916  12.456  41.744   5.388
 5333POPC   GL168917  12.308  41.608   5.787
 5333POPC   GL268918  12.287  41.259   5.855
 5333POPC   C1A68919  11.992  41.641   6.155
 5333POPC   D2A68920  11.716  41.676   6.517
 5333POPC   C3A68921  11.895  41.619   6.947
 5333POPC   C4A68922  12.145  41.793   7.261
 5333POPC   C1B68923  12.431  41.417   6.244
 5333POPC   C2B68924  12.229  41.398   6.626
 5333POPC   C3B68925  12.472  41.516   6.982
 5333POPC   C4B68926  12.659  41.697   7.322
 5334POPC   NC368927  30.514  15.936   5.307
 5334POPC   PO468928  31.146  15.882   5.414
 5334POPC   GL168929  30.777  15.964   5.735
 5334POPC   GL268930  30.447  15.769   5.773
 5334POPC   C1A68931  30.631  16.156   6.131
 5334POPC   D2A68932  30.827  16.071   6.524
 5334POPC   C3A68933  30.676  16.212   6.882
 5334POPC   C4A68934  30.716  16.043   7.256
 5334POPC   C1B68935  30.239  15.805   6.147
 5334POPC   C2B68936  30.337  15.923   6.547
 5334POPC   C3B68937  30.419  15.729   6.938
 5334POPC   C4B68938  30.226  15.733   7.310
 5335POPC   NC368939  38.361   8.587   5.357
 5335POPC   PO468940  38.508   9.262   5.439
 5335POPC   GL168941  38.366   9.006   5.728
 5335POPC   GL268942  38.590   8.746   5.775
 5335POPC   C1A68943  38.272   9.110   6.123
 5335POPC   D2A68944  38.278   8.986   6.529
 5335POPC   C3A68945  38.311   9.305   6.838
 5335POPC   C4A68946  38.384   9.242   7.264
 5335POPC   C1B68947  38.330   8.609   6.097
 5335POPC   C2B68948  38.121   8.499   6.485
 5335POPC   C3B68949  38.214   8.649   6.908
 5335POPC   C4B68950  38.323   8.744   7.331
 5336POPC   NC368951   9.536  14.033   5.361
 5336POPC   PO468952  10.152  14.149   5.647
 5336POPC   GL168953   9.917  14.234   5.933
 5336POPC   GL268954   9.842  14.558   5.807
 5336POPC   C1A68955  10.001  14.204   6.363
 5336POPC   D2A68956   9.810  14.097   6.743
 5336POPC   C3A68957   9.933  14.350   7.080
 5336POPC   C4A68958   9.792  14.190   7.453
 5336POPC   C1B68959   9.618  14.523   6.215
 5336POPC   C2B68960   9.671  14.578   6.663
 5336POPC   C3B68961   9.469  14.574   7.069
 5336POPC   C4B68962   9.437  14.758   7.457
 5337POPC   NC368963  29.606  44.954   5.581
 5337POPC   PO468964  29.746  44.234   5.428
 5337POPC   GL168965  29.725  44.488   5.829
 5337POPC   GL268966  30.067  44.476   5.936
 5337POPC   C1A68967  29.827  44.827   6.198
 5337POPC   D2A68968  30.185  44.893   6.520
 5337POPC   C3A68969  30.097  44.856   6.979
 5337POPC   C4A68970  29.697  44.847   7.185
 5337POPC   C1B68971  29.894  44.337   6.341
 5337POPC   C2B68972  29.960  44.374   6.802
 5337POPC   C3B68973  30.093  44.318   7.236
 5337POPC   C4B68974  29.924  44.276   7.659
 5338POPC   NC368975  37.887   6.807   5.556
 5338POPC   PO468976  37.251   6.903   5.254
 5338POPC   GL168977  37.377   6.815   5.716
 5338POPC   GL268978  37.389   6.484   5.862
 5338POPC   C1A68979  37.592   6.852   6.140
 5338POPC   D2A68980  37.806   6.811   6.517
 5338POPC   C3A68981  37.592   6.765   6.881
 5338POPC   C4A68982  37.695   6.752   7.309
 5338POPC   C1B68983  37.656   6.355   6.201
 5338POPC   C2B68984  37.698   6.327   6.621
 5338POPC   C3B68985  37.622   6.287   7.050
 5338POPC   C4B68986  37.937   6.300   7.368
 5339POPC   NC368987  41.201  33.245   5.594
 5339POPC   PO468988  40.605  33.085   5.558
 5339POPC   GL168989  40.817  33.103   5.923
 5339POPC   GL268990  41.067  32.857   5.951
 5339POPC   C1A68991  40.987  33.315   6.256
 5339POPC   D2A68992  40.770  33.285   6.620
 5339POPC   C3A68993  40.969  33.064   6.901
 5339POPC   C4A68994  40.893  32.900   7.238
 5339POPC   C1B68995  40.988  32.832   6.390
 5339POPC   C2B68996  40.823  32.613   6.708
 5339POPC   C3B68997  40.488  32.720   6.956
 5339POPC   C4B68998  40.412  32.725   7.408
 5340POPC   NC368999  42.023  20.025   5.259
 5340POPC   PO469000  42.632  19.778   5.378
 5340POPC   GL169001  42.279  19.762   5.670
 5340POPC   GL269002  42.107  19.444   5.600
 5340POPC   C1A69003  42.196  19.973   6.097
 5340POPC   D2A69004  42.441  20.177   6.474
 5340POPC   C3A69005  42.407  19.971   6.864
 5340POPC   C4A69006  42.428  19.850   7.301
 5340POPC   C1B69007  42.173  19.435   6.050
 5340POPC   C2B69008  42.327  19.599   6.451
 5340POPC   C3B69009  42.403  19.468   6.881
 5340POPC   C4B69010  42.074  19.493   7.213
 5341POPC   NC369011  44.516   0.988   5.525
 5341POPC   PO469012  44.522   1.690   5.491
 5341POPC   GL169013  44.537   1.367   5.839
 5341POPC   GL269014  44.900   1.288   5.756
 5341POPC   C1A69015  44.475   1.125   6.277
 5341POPC   D2A69016  44.675   1.181   6.729
 5341POPC   C3A69017  44.680   1.019   7.187
 5341POPC   C4A69018  44.513   1.116   7.571
 5341POPC   C1B69019  44.927   1.348   6.217
 5341POPC   C2B69020   0.152   1.397   6.643
 5341POPC   C3B69021   0.051   1.375   7.098
 5341POPC   C4B69022  44.992   1.312   7.566
 5342POPC   NC369023  10.031  27.697   5.448
 5342POPC   PO469024   9.581  27.316   5.076
 5342POPC   GL169025   9.517  27.611   5.558
 5342POPC   GL269026   9.761  27.683   5.854
 5342POPC   C1A69027   9.332  27.547   6.047
 5342POPC   D2A69028   9.552  27.482   6.490
 5342POPC   C3A69029   9.613  27.726   6.896
 5342POPC   C4A69030   9.805  27.533   7.264
 5342POPC   C1B69031  10.074  27.640   6.185
 5342POPC   C2B69032  10.048  27.654   6.612
 5342POPC   C3B69033  10.216  27.667   6.971
 5342POPC   C4B69034  10.132  27.922   7.264
 5343POPC   NC369035   5.426  19.827   5.377
 5343POPC   PO469036   4.716  19.968   5.402
 5343POPC   GL169037   5.035  19.951   5.762
 5343POPC   GL269038   5.086  20.273   5.878
 5343POPC   C1A69039   5.222  19.930   6.236
 5343POPC   D2A69040   5.253  20.056   6.716
 5343POPC   C3A69041   5.313  19.671   7.012
 5343POPC   C4A69042   5.341  19.503   7.456
 5343POPC   C1B69043   4.756  20.119   6.183
 5343POPC   C2B69044   4.784  19.902   6.596
 5343POPC   C3B69045   4.856  19.888   7.060
 5343POPC   C4B69046   4.873  19.808   7.512
 5344POPC   NC369047  23.824   8.030   5.483
 5344POPC   PO469048  23.382   8.452   5.453
 5344POPC   GL169049  23.483   8.341   5.849
 5344POPC   GL269050  23.455   8.013   5.840
 5344POPC   C1A69051  23.698   8.289   6.246
 5344POPC   D2A69052  23.922   8.405   6.617
 5344POPC   C3A69053  23.648   8.327   6.959
 5344POPC   C4A69054  23.901   8.231   7.309
 5344POPC   C1B69055  23.307   7.959   6.223
 5344POPC   C2B69056  23.513   7.895   6.599
 5344POPC   C3B69057  23.302   7.910   6.953
 5344POPC   C4B69058  23.506   7.932   7.304
 5345POPC   NC369059  37.059  22.298   5.379
 5345POPC   PO469060  36.468  21.999   5.594
 5345POPC   GL169061  36.898  22.050   5.797
 5345POPC   GL269062  37.177  21.802   5.715
 5345POPC   C1A69063  37.139  22.147   6.175
 5345POPC   D2A69064  37.111  22.438   6.535
 5345POPC   C3A69065  37.181  22.489   6.970
 5345POPC   C4A69066  36.858  22.540   7.296
 5345POPC   C1B69067  37.022  21.650   6.135
 5345POPC   C2B69068  36.899  21.838   6.532
 5345POPC   C3B69069  36.826  22.108   6.873
 5345POPC   C4B69070  36.940  21.981   7.251
 5346POPC   NC369071  20.669   6.679   5.159
 5346POPC   PO469072  20.992   6.993   5.525
 5346POPC   GL169073  20.856   6.619   5.703
 5346POPC   GL269074  20.502   6.582   5.707
 5346POPC   C1A69075  20.780   6.663   6.145
 5346POPC   D2A69076  20.890   6.736   6.577
 5346POPC   C3A69077  20.572   6.707   6.850
 5346POPC   C4A69078  20.789   6.646   7.224
 5346POPC   C1B69079  20.434   6.296   6.074
 5346POPC   C2B69080  20.222   6.377   6.449
 5346POPC   C3B69081  20.315   6.255   6.868
 5346POPC   C4B69082  20.442   6.297   7.269
 5347POPC   NC369083   3.514  15.463   5.434
 5347POPC   PO469084   3.693  14.868   5.479
 5347POPC   GL169085   3.351  15.080   5.760
 5347POPC   GL269086   3.171  15.444   5.823
 5347POPC   C1A69087   3.402  15.208   6.200
 5347POPC   D2A69088   3.270  15.199   6.621
 5347POPC   C3A69089   3.582  15.220   6.984
 5347POPC   C4A69090   3.673  15.196   7.449
 5347POPC   C1B69091   2.984  15.515   6.270
 5347POPC   C2B69092   3.053  15.654   6.710
 5347POPC   C3B69093   3.313  15.636   7.128
 5347POPC   C4B69094   3.317  15.558   7.593
 5348POPC   NC369095  37.196   6.429   5.393
 5348POPC   PO469096  36.503   6.486   5.232
 5348POPC   GL169097  36.700   6.486   5.659
 5348POPC   GL269098  36.819   6.824   5.788
 5348POPC   C1A69099  36.632   6.331   6.107
 5348POPC   D2A69100  36.825   6.411   6.531
 5348POPC   C3A69101  36.756   6.395   6.992
 5348POPC   C4A69102  36.751   6.731   7.363
 5348POPC   C1B69103  37.029   6.683   6.131
 5348POPC   C2B69104  37.282   6.624   6.481
 5348POPC   C3B69105  37.088   6.775   6.856
 5348POPC   C4B69106  37.219   6.568   7.204
 5349POPC   NC369107  36.925  20.967   5.304
 5349POPC   PO469108  37.193  21.564   5.190
 5349POPC   GL169109  37.168  21.307   5.585
 5349POPC   GL269110  36.836  21.310   5.719
 5349POPC   C1A69111  37.262  21.219   6.020
 5349POPC   D2A69112  37.209  21.176   6.492
 5349POPC   C3A69113  37.191  21.501   6.819
 5349POPC   C4A69114  37.120  21.489   7.279
 5349POPC   C1B69115  36.737  21.192   6.167
 5349POPC   C2B69116  36.546  21.445   6.529
 5349POPC   C3B69117  36.708  21.536   6.950
 5349POPC   C4B69118  36.852  21.100   7.117
 5350POPC   NC369119   7.293   6.409   5.465
 5350POPC   PO469120   7.818   6.449   5.614
 5350POPC   GL169121   7.566   6.628   5.894
 5350POPC   GL269122   7.613   6.959   5.816
 5350POPC   C1A69123   7.322   6.740   6.246
 5350POPC   D2A69124   7.261   6.478   6.605
 5350POPC   C3A69125   7.330   6.669   6.955
 5350POPC   C4A69126   7.555   6.591   7.300
 5350POPC   C1B69127   7.768   7.001   6.200
 5350POPC   C2B69128   7.657   6.964   6.604
 5350POPC   C3B69129   7.727   7.006   7.050
 5350POPC   C4B69130   7.297   7.097   7.235
 5351POPC   NC369131  33.022   0.864   5.294
 5351POPC   PO469132  32.900   0.222   5.333
 5351POPC   GL169133  33.019   0.321   5.775
 5351POPC   GL269134  33.290   0.589   5.798
 5351POPC   C1A69135  33.158   0.229   6.218
 5351POPC   D2A69136  33.377   0.343   6.605
 5351POPC   C3A69137  33.161   0.409   6.985
 5351POPC   C4A69138  33.312   0.377   7.402
 5351POPC   C1B69139  32.982   0.711   6.128
 5351POPC   C2B69140  32.930   0.628   6.565
 5351POPC   C3B69141  32.919   0.872   6.923
 5351POPC   C4B69142  32.918   0.726   7.329
 5352POPC   NC369143  16.119  42.656   5.577
 5352POPC   PO469144  15.801  43.368   5.440
 5352POPC   GL169145  15.925  43.103   5.761
 5352POPC   GL269146  15.603  42.947   5.790
 5352POPC   C1A69147  16.194  43.035   6.154
 5352POPC   D2A69148  16.361  43.297   6.518
 5352POPC   C3A69149  16.193  43.200   6.941
 5352POPC   C4A69150  16.113  43.038   7.397
 5352POPC   C1B69151  15.721  42.802   6.208
 5352POPC   C2B69152  15.934  42.903   6.607
 5352POPC   C3B69153  15.911  42.746   7.043
 5352POPC   C4B69154  15.686  42.754   7.474
 5353POPC   NC369155  19.331  34.022   5.547
 5353POPC   PO469156  19.001  33.414   5.504
 5353POPC   GL169157  19.235  33.569   5.791
 5353POPC   GL269158  18.965  33.814   5.818
 5353POPC   C1A69159  19.317  33.774   6.182
 5353POPC   D2A69160  19.377  33.996   6.570
 5353POPC   C3A69161  19.198  33.801   6.894
 5353POPC   C4A69162  19.084  33.904   7.277
 5353POPC   C1B69163  18.809  33.757   6.189
 5353POPC   C2B69164  18.811  33.990   6.598
 5353POPC   C3B69165  18.661  33.847   6.989
 5353POPC   C4B69166  18.602  34.063   7.376
 5354POPC   NC369167  12.340  36.194   5.365
 5354POPC   PO469168  11.821  35.688   5.461
 5354POPC   GL169169  11.943  35.985   5.819
 5354POPC   GL269170  12.269  36.105   5.849
 5354POPC   C1A69171  11.929  36.273   6.198
 5354POPC   D2A69172  12.124  36.270   6.601
 5354POPC   C3A69173  11.860  36.317   6.989
 5354POPC   C4A69174  11.865  36.429   7.420
 5354POPC   C1B69175  12.296  35.862   6.223
 5354POPC   C2B69176  12.353  35.706   6.635
 5354POPC   C3B69177  12.173  35.906   6.945
 5354POPC   C4B69178  12.243  36.111   7.289
 5355POPC   NC369179  34.770  19.448   5.452
 5355POPC   PO469180  34.215  19.104   5.323
 5355POPC   GL169181  34.494  19.093   5.710
 5355POPC   GL269182  34.535  19.395   5.907
 5355POPC   C1A69183  34.613  18.887   6.105
 5355POPC   D2A69184  34.475  19.017   6.531
 5355POPC   C3A69185  34.548  18.779   6.909
 5355POPC   C4A69186  34.694  18.757   7.320
 5355POPC   C1B69187  34.819  19.339   6.261
 5355POPC   C2B69188  34.962  19.174   6.667
 5355POPC   C3B69189  34.753  19.225   7.056
 5355POPC   C4B69190  34.635  19.356   7.446
 5356POPC   NC369191  42.898  18.589   5.589
 5356POPC   PO469192  42.471  18.212   5.228
 5356POPC   GL169193  42.267  18.286   5.617
 5356POPC   GL269194  42.423  18.542   5.733
 5356POPC   C1A69195  42.268  18.153   6.057
 5356POPC   D2A69196  42.226  17.955   6.450
 5356POPC   C3A69197  42.331  18.142   6.828
 5356POPC   C4A69198  42.071  18.199   7.142
 5356POPC   C1B69199  42.517  18.608   6.150
 5356POPC   C2B69200  42.228  18.489   6.455
 5356POPC   C3B69201  42.271  18.647   6.836
 5356POPC   C4B69202  42.409  18.552   7.223
 5357POPC   NC369203  23.937   7.275   5.434
 5357POPC   PO469204  23.447   7.724   5.432
 5357POPC   GL169205  23.566   7.436   5.763
 5357POPC   GL269206  23.875   7.610   5.799
 5357POPC   C1A69207  23.652   7.266   6.182
 5357POPC   D2A69208  23.834   7.445   6.577
 5357POPC   C3A69209  23.617   7.502   6.962
 5357POPC   C4A69210  23.286   7.490   7.276
 5357POPC   C1B69211  23.776   7.760   6.167
 5357POPC   C2B69212  24.002   7.924   6.482
 5357POPC   C3B69213  23.950   7.910   6.901
 5357POPC   C4B69214  23.972   7.711   7.286
 5358POPC   NC369215  43.330   2.991   5.321
 5358POPC   PO469216  42.686   2.910   5.488
 5358POPC   GL169217  43.072   2.671   5.706
 5358POPC   GL269218  43.364   2.884   5.808
 5358POPC   C1A69219  43.317   2.443   6.073
 5358POPC   D2A69220  43.155   2.413   6.518
 5358POPC   C3A69221  43.286   2.522   6.967
 5358POPC   C4A69222  43.040   2.418   7.363
 5358POPC   C1B69223  43.133   2.892   6.203
 5358POPC   C2B69224  43.254   2.989   6.626
 5358POPC   C3B69225  43.402   3.080   7.026
 5358POPC   C4B69226  43.204   2.924   7.367
 5359POPC   NC369227  42.864  13.904   5.263
 5359POPC   PO469228  43.382  13.479   5.461
 5359POPC   GL169229  43.121  13.577   5.782
 5359POPC   GL269230  43.116  13.224   5.918
 5359POPC   C1A69231  42.929  13.604   6.176
 5359POPC   D2A69232  43.087  13.611   6.565
 5359POPC   C3A69233  42.822  13.446   6.865
 5359POPC   C4A69234  42.945  13.507   7.258
 5359POPC   C1B69235  43.423  13.400   6.193
 5359POPC   C2B69236  43.589  13.435   6.599
 5359POPC   C3B69237  43.381  13.428   6.979
 5359POPC   C4B69238  43.458  13.165   7.342
 5360POPC   NC369239   9.728  42.966   5.414
 5360POPC   PO469240  10.378  43.320   5.528
 5360POPC   GL169241  10.120  43.079   5.764
 5360POPC   GL269242   9.821  43.293   5.830
 5360POPC   C1A69243  10.034  42.957   6.176
 5360POPC   D2A69244   9.802  43.190   6.474
 5360POPC   C3A69245   9.804  42.970   6.855
 5360POPC   C4A69246   9.654  42.958   7.252
 5360POPC   C1B69247   9.526  43.482   6.135
 5360POPC   C2B69248   9.489  43.597   6.571
 5360POPC   C3B69249   9.385  43.273   6.858
 5360POPC   C4B69250   9.284  43.329   7.266
 5361POPC   NC369251  39.668  43.546   5.012
 5361POPC   PO469252  39.975  44.040   5.372
 5361POPC   GL169253  40.097  43.991   5.761
 5361POPC   GL269254  40.303  44.258   5.719
 5361POPC   C1A69255  40.039  43.858   6.173
 5361POPC   D2A69256  39.947  44.004   6.574
 5361POPC   C3A69257  40.048  43.716   6.869
 5361POPC   C4A69258  40.183  43.689   7.280
 5361POPC   C1B69259  40.166  44.363   6.157
 5361POPC   C2B69260  40.352  44.329   6.573
 5361POPC   C3B69261  40.211  44.190   6.982
 5361POPC   C4B69262  40.428  44.142   7.382
 5362POPC   NC369263  18.986  35.533   5.356
 5362POPC   PO469264  18.676  34.938   5.482
 5362POPC   GL169265  19.021  35.184   5.743
 5362POPC   GL269266  18.957  35.550   5.855
 5362POPC   C1A69267  19.290  35.261   6.137
 5362POPC   D2A69268  19.375  35.057   6.597
 5362POPC   C3A69269  19.098  35.249   6.935
 5362POPC   C4A69270  18.707  35.271   7.187
 5362POPC   C1B69271  18.867  35.506   6.291
 5362POPC   C2B69272  19.069  35.693   6.650
 5362POPC   C3B69273  18.894  35.722   7.062
 5362POPC   C4B69274  18.736  35.697   7.465
 5363POPC   NC369275   5.437  20.752   5.130
 5363POPC   PO469276   5.723  20.209   5.334
 5363POPC   GL169277   5.875  20.343   5.793
 5363POPC   GL269278   5.821  20.712   5.849
 5363POPC   C1A69279   6.009  20.478   6.240
 5363POPC   D2A69280   5.798  20.771   6.517
 5363POPC   C3A69281   5.759  20.615   6.946
 5363POPC   C4A69282   5.879  20.528   7.373
 5363POPC   C1B69283   6.026  21.020   6.109
 5363POPC   C2B69284   6.149  21.177   6.508
 5363POPC   C3B69285   6.008  21.056   6.912
 5363POPC   C4B69286   5.824  21.028   7.280
 5364POPC   NC369287  27.439  33.836   5.397
 5364POPC   PO469288  28.060  34.164   5.409
 5364POPC   GL169289  27.780  34.054   5.788
 5364POPC   GL269290  27.453  33.880   5.911
 5364POPC   C1A69291  27.884  33.908   6.222
 5364POPC   D2A69292  27.965  33.867   6.674
 5364POPC   C3A69293  27.583  33.815   6.940
 5364POPC   C4A69294  27.403  33.624   7.286
 5364POPC   C1B69295  27.435  34.127   6.311
 5364POPC   C2B69296  27.229  34.116   6.703
 5364POPC   C3B69297  27.290  34.279   7.122
 5364POPC   C4B69298  27.267  34.068   7.514
 5365POPC   NC369299  25.648   2.666   5.391
 5365POPC   PO469300  25.019   2.965   5.325
 5365POPC   GL169301  25.011   2.824   5.732
 5365POPC   GL269302  25.348   2.824   5.782
 5365POPC   C1A69303  25.007   2.971   6.165
 5365POPC   D2A69304  25.282   2.979   6.540
 5365POPC   C3A69305  25.092   2.770   6.886
 5365POPC   C4A69306  24.918   2.907   7.249
 5365POPC   C1B69307  25.358   2.611   6.191
 5365POPC   C2B69308  25.372   2.415   6.614
 5365POPC   C3B69309  25.516   2.513   7.031
 5365POPC   C4B69310  25.349   2.691   7.407
 5366POPC   NC369311  37.891   5.830   5.492
 5366POPC   PO469312  38.566   5.934   5.296
 5366POPC   GL169313  38.451   5.837   5.766
 5366POPC   GL269314  38.108   5.793   5.964
 5366POPC   C1A69315  38.600   5.927   6.220
 5366POPC   D2A69316  38.795   5.702   6.585
 5366POPC   C3A69317  38.673   5.763   7.059
 5366POPC   C4A69318  38.871   5.505   7.387
 5366POPC   C1B69319  38.116   6.011   6.394
 5366POPC   C2B69320  38.456   6.095   6.738
 5366POPC   C3B69321  38.426   6.260   7.206
 5366POPC   C4B69322  38.308   6.335   7.706
 5367POPC   NC369323  25.366  43.271   5.401
 5367POPC   PO469324  25.565  42.691   5.563
 5367POPC   GL169325  25.326  42.972   5.885
 5367POPC   GL269326  25.141  43.313   5.860
 5367POPC   C1A69327  25.178  43.039   6.333
 5367POPC   D2A69328  25.201  42.758   6.704
 5367POPC   C3A69329  25.172  42.997   7.073
 5367POPC   C4A69330  25.177  43.430   7.107
 5367POPC   C1B69331  25.342  43.515   6.200
 5367POPC   C2B69332  25.635  43.480   6.504
 5367POPC   C3B69333  25.580  43.216   6.829
 5367POPC   C4B69334  25.607  43.221   7.261
 5368POPC   NC369335  21.734  12.209   5.342
 5368POPC   PO469336  21.301  11.691   5.353
 5368POPC   GL169337  21.411  11.991   5.688
 5368POPC   GL269338  21.132  12.131   5.783
 5368POPC   C1A69339  21.510  12.158   6.126
 5368POPC   D2A69340  21.697  12.354   6.524
 5368POPC   C3A69341  21.603  12.247   6.985
 5368POPC   C4A69342  21.625  11.998   7.424
 5368POPC   C1B69343  20.987  12.154   6.184
 5368POPC   C2B69344  21.053  12.331   6.564
 5368POPC   C3B69345  20.946  12.124   6.924
 5368POPC   C4B69346  21.160  12.117   7.253
 5369POPC   NC369347   4.673  40.884   5.204
 5369POPC   PO469348   5.276  40.874   5.343
 5369POPC   GL169349   5.161  40.885   5.823
 5369POPC   GL269350   5.038  40.589   6.017
 5369POPC   C1A69351   5.042  41.002   6.290
 5369POPC   D2A69352   4.804  41.221   6.604
 5369POPC   C3A69353   5.084  41.192   6.938
 5369POPC   C4A69354   5.056  41.021   7.365
 5369POPC   C1B69355   5.171  40.280   6.318
 5369POPC   C2B69356   5.062  40.241   6.728
 5369POPC   C3B69357   4.967  40.564   6.999
 5369POPC   C4B69358   5.123  40.513   7.376
 5370POPC   NC369359  29.035  33.786   5.200
 5370POPC   PO469360  29.378  33.343   5.603
 5370POPC   GL169361  29.092  33.704   5.773
 5370POPC   GL269362  29.298  34.024   5.875
 5370POPC   C1A69363  28.897  33.936   6.155
 5370POPC   D2A69364  28.996  34.066   6.587
 5370POPC   C3A69365  28.937  33.861   7.006
 5370POPC   C4A69366  29.284  33.636   7.202
 5370POPC   C1B69367  29.428  34.134   6.306
 5370POPC   C2B69368  29.521  34.073   6.770
 5370POPC   C3B69369  29.339  34.157   7.124
 5370POPC   C4B69370  29.409  34.032   7.540
 5371POPC   NC369371  16.884  42.039   5.393
 5371POPC   PO469372  16.245  42.025   5.497
 5371POPC   GL169373  16.583  42.339   5.711
 5371POPC   GL269374  16.893  42.189   5.883
 5371POPC   C1A69375  16.598  42.441   6.171
 5371POPC   D2A69376  16.633  42.096   6.483
 5371POPC   C3A69377  16.667  42.264   6.905
 5371POPC   C4A69378  16.545  42.653   7.149
 5371POPC   C1B69379  17.116  42.421   6.246
 5371POPC   C2B69380  17.065  42.610   6.656
 5371POPC   C3B69381  17.126  42.443   7.048
 5371POPC   C4B69382  16.903  42.351   7.405
 5372POPC   NC369383  26.727  39.210   4.971
 5372POPC   PO469384  27.055  39.024   5.525
 5372POPC   GL169385  26.940  39.312   5.848
 5372POPC   GL269386  27.183  39.573   5.965
 5372POPC   C1A69387  26.918  39.057   6.219
 5372POPC   D2A69388  26.870  39.145   6.645
 5372POPC   C3A69389  26.817  38.964   7.034
 5372POPC   C4A69390  26.839  39.285   7.347
 5372POPC   C1B69391  27.049  39.528   6.343
 5372POPC   C2B69392  26.976  39.630   6.715
 5372POPC   C3B69393  27.148  39.606   7.092
 5372POPC   C4B69394  27.348  39.519   7.451
 5373POPC   NC369395   5.993   4.788   5.376
 5373POPC   PO469396   5.833   4.183   5.386
 5373POPC   GL169397   5.996   4.325   5.808
 5373POPC   GL269398   6.278   4.557   5.762
 5373POPC   C1A69399   5.943   4.344   6.260
 5373POPC   D2A69400   5.957   4.129   6.666
 5373POPC   C3A69401   5.963   4.402   7.015
 5373POPC   C4A69402   5.697   4.683   7.255
 5373POPC   C1B69403   6.409   4.533   6.195
 5373POPC   C2B69404   6.309   4.495   6.611
 5373POPC   C3B69405   6.515   4.524   6.992
 5373POPC   C4B69406   6.440   4.338   7.381
 5374POPC   NC369407  42.121  40.266   5.638
 5374POPC   PO469408  42.381  39.686   5.474
 5374POPC   GL169409  42.227  39.798   5.844
 5374POPC   GL269410  41.971  39.585   5.845
 5374POPC   C1A69411  42.288  39.964   6.268
 5374POPC   D2A69412  42.089  39.802   6.646
 5374POPC   C3A69413  42.179  40.054   7.047
 5374POPC   C4A69414  42.616  40.069   7.196
 5374POPC   C1B69415  42.186  39.474   6.234
 5374POPC   C2B69416  42.547  39.509   6.512
 5374POPC   C3B69417  42.495  39.654   6.913
 5374POPC   C4B69418  42.089  39.575   7.124
 5375POPC   NC369419  12.359  27.501   5.576
 5375POPC   PO469420  11.975  27.069   5.194
 5375POPC   GL169421  11.943  27.087   5.698
 5375POPC   GL269422  12.257  27.080   5.864
 5375POPC   C1A69423  11.869  26.963   6.202
 5375POPC   D2A69424  11.775  26.764   6.644
 5375POPC   C3A69425  11.904  26.860   7.087
 5375POPC   C4A69426  12.034  26.752   7.524
 5375POPC   C1B69427  12.384  27.097   6.311
 5375POPC   C2B69428  12.300  26.871   6.724
 5375POPC   C3B69429  12.421  26.809   7.174
 5375POPC   C4B69430  12.632  26.979   7.544
 5376POPC   NC369431   7.941  13.056   5.271
 5376POPC   PO469432   8.227  12.443   5.296
 5376POPC   GL169433   8.382  12.654   5.706
 5376POPC   GL269434   8.361  13.027   5.716
 5376POPC   C1A69435   8.461  12.745   6.162
 5376POPC   D2A69436   8.135  12.791   6.487
 5376POPC   C3A69437   8.263  12.883   6.904
 5376POPC   C4A69438   8.152  12.685   7.284
 5376POPC   C1B69439   8.163  13.165   6.102
 5376POPC   C2B69440   8.214  13.320   6.517
 5376POPC   C3B69441   8.082  13.379   6.940
 5376POPC   C4B69442   7.966  13.153   7.286
 5377POPC   NC369443   5.795  40.113   5.486
 5377POPC   PO469444   6.220  39.644   5.546
 5377POPC   GL169445   5.970  39.793   5.882
 5377POPC   GL269446   6.072  40.136   5.940
 5377POPC   C1A69447   5.827  39.767   6.315
 5377POPC   D2A69448   6.063  39.832   6.681
 5377POPC   C3A69449   5.885  39.993   7.053
 5377POPC   C4A69450   5.959  40.397   7.222
 5377POPC   C1B69451   5.660  40.215   6.144
 5377POPC   C2B69452   5.600  40.195   6.605
 5377POPC   C3B69453   5.479  40.326   7.035
 5377POPC   C4B69454   5.541  40.230   7.480
 5378POPC   NC369455  38.608   2.339   5.328
 5378POPC   PO469456  38.657   1.691   5.388
 5378POPC   GL169457  38.538   1.986   5.715
 5378POPC   GL269458  38.178   1.979   5.836
 5378POPC   C1A69459  38.645   2.163   6.126
 5378POPC   D2A69460  38.466   2.194   6.558
 5378POPC   C3A69461  38.691   2.126   6.955
 5378POPC   C4A69462  38.922   2.398   7.271
 5378POPC   C1B69463  38.347   1.746   6.221
 5378POPC   C2B69464  38.342   1.623   6.676
 5378POPC   C3B69465  38.474   1.681   7.112
 5378POPC   C4B69466  38.385   2.052   7.360
 5379POPC   NC369467  44.850  15.709   5.440
 5379POPC   PO469468  44.258  16.046   5.379
 5379POPC   GL169469  44.433  15.829   5.722
 5379POPC   GL269470  44.700  15.994   5.847
 5379POPC   C1A69471  44.276  15.690   6.092
 5379POPC   D2A69472  44.342  15.606   6.505
 5379POPC   C3A69473  44.285  15.885   6.863
 5379POPC   C4A69474  44.248  15.842   7.314
 5379POPC   C1B69475  44.663  16.002   6.301
 5379POPC   C2B69476  44.861  15.969   6.693
 5379POPC   C3B69477  44.721  16.018   7.122
 5379POPC   C4B69478  44.849  16.352   7.375
 5380POPC   NC369479   8.074  42.763   5.532
 5380POPC   PO469480   8.505  43.256   5.463
 5380POPC   GL169481   8.194  43.194   5.786
 5380POPC   GL269482   8.394  42.872   5.918
 5380POPC   C1A69483   8.160  43.241   6.222
 5380POPC   D2A69484   8.455  42.942   6.479
 5380POPC   C3A69485   8.387  43.051   6.904
 5380POPC   C4A69486   8.090  43.312   7.064
 5380POPC   C1B69487   8.058  42.757   6.211
 5380POPC   C2B69488   7.959  42.967   6.642
 5380POPC   C3B69489   7.927  42.831   7.037
 5380POPC   C4B69490   8.165  42.874   7.399
 5381POPC   NC369491   2.935   8.669   5.458
 5381POPC   PO469492   2.415   9.238   5.440
 5381POPC   GL169493   2.671   9.010   5.706
 5381POPC   GL269494   2.542   8.676   5.794
 5381POPC   C1A69495   2.875   8.949   6.102
 5381POPC   D2A69496   2.817   9.162   6.500
 5381POPC   C3A69497   2.913   8.996   6.908
 5381POPC   C4A69498   2.661   9.166   7.233
 5381POPC   C1B69499   2.683   8.476   6.149
 5381POPC   C2B69500   2.713   8.652   6.537
 5381POPC   C3B69501   2.612   8.578   6.943
 5381POPC   C4B69502   2.632   8.698   7.373
 5382POPC   NC369503  25.121  35.515   5.462
 5382POPC   PO469504  25.653  35.131   5.507
 5382POPC   GL169505  25.589  35.485   5.837
 5382POPC   GL269506  25.248  35.591   5.926
 5382POPC   C1A69507  25.548  35.624   6.306
 5382POPC   D2A69508  25.224  35.683   6.608
 5382POPC   C3A69509  25.413  35.610   6.985
 5382POPC   C4A69510  25.359  35.498   7.391
 5382POPC   C1B69511  25.085  35.362   6.237
 5382POPC   C2B69512  25.088  35.081   6.566
 5382POPC   C3B69513  25.040  35.272   6.951
 5382POPC   C4B69514  25.031  35.088   7.339
 5383POPC   NC369515  26.194  16.379   5.462
 5383POPC   PO469516  26.194  17.054   5.309
 5383POPC   GL169517  26.399  16.827   5.683
 5383POPC   GL269518  26.406  16.493   5.890
 5383POPC   C1A69519  26.456  16.900   6.152
 5383POPC   D2A69520  26.436  16.555   6.453
 5383POPC   C3A69521  26.200  16.655   6.821
 5383POPC   C4A69522  26.262  16.644   7.266
 5383POPC   C1B69523  26.059  16.344   6.154
 5383POPC   C2B69524  25.979  16.234   6.594
 5383POPC   C3B69525  26.086  16.205   7.049
 5383POPC   C4B69526  25.843  16.343   7.411
 5384POPC   NC369527  13.371  33.901   5.606
 5384POPC   PO469528  13.972  33.963   5.423
 5384POPC   GL169529  13.815  33.713   5.817
 5384POPC   GL269530  13.529  33.440   5.837
 5384POPC   C1A69531  13.654  33.712   6.267
 5384POPC   D2A69532  13.402  33.792   6.662
 5384POPC   C3A69533  13.689  33.822   6.989
 5384POPC   C4A69534  13.866  34.073   7.316
 5384POPC   C1B69535  13.311  33.330   6.241
 5384POPC   C2B69536  13.183  33.332   6.675
 5384POPC   C3B69537  13.331  33.462   7.084
 5384POPC   C4B69538  13.545  33.651   7.453
 5385POPC   NC369539  18.499  18.849   5.347
 5385POPC   PO469540  18.179  19.436   5.400
 5385POPC   GL169541  18.453  19.391   5.751
 5385POPC   GL269542  18.451  19.005   5.841
 5385POPC   C1A69543  18.343  19.345   6.203
 5385POPC   D2A69544  18.076  19.105   6.521
 5385POPC   C3A69545  18.148  19.125   6.975
 5385POPC   C4A69546  18.402  19.425   7.186
 5385POPC   C1B69547  18.545  18.885   6.329
 5385POPC   C2B69548  18.384  18.719   6.766
 5385POPC   C3B69549  18.409  18.776   7.247
 5385POPC   C4B69550  18.420  18.685   7.728
 5386POPC   NC369551  22.363  35.986   5.411
 5386POPC   PO469552  23.021  35.719   5.400
 5386POPC   GL169553  23.112  35.817   5.827
 5386POPC   GL269554  23.131  36.163   5.894
 5386POPC   C1A69555  23.035  35.798   6.261
 5386POPC   D2A69556  22.713  35.894   6.536
 5386POPC   C3A69557  22.804  35.800   6.945
 5386POPC   C4A69558  23.135  35.788   7.213
 5386POPC   C1B69559  23.350  36.210   6.299
 5386POPC   C2B69560  23.253  36.034   6.716
 5386POPC   C3B69561  23.070  36.280   7.055
 5386POPC   C4B69562  23.350  36.585   7.316
 5387POPC   NC369563  30.027  43.975   5.166
 5387POPC   PO469564  29.667  43.380   5.411
 5387POPC   GL169565  30.020  43.627   5.674
 5387POPC   GL269566  29.966  43.980   5.806
 5387POPC   C1A69567  30.090  43.631   6.149
 5387POPC   D2A69568  29.841  43.837   6.509
 5387POPC   C3A69569  30.017  43.867   6.924
 5387POPC   C4A69570  29.917  43.835   7.340
 5387POPC   C1B69571  29.572  44.028   6.101
 5387POPC   C2B69572  29.415  44.132   6.501
 5387POPC   C3B69573  29.526  44.114   6.909
 5387POPC   C4B69574  29.586  44.354   7.238
 5388POPC   NC369575  36.044   6.525   5.344
 5388POPC   PO469576  36.408   7.000   5.491
 5388POPC   GL169577  36.298   6.772   5.829
 5388POPC   GL269578  35.948   6.785   5.782
 5388POPC   C1A69579  36.470   6.820   6.242
 5388POPC   D2A69580  36.414   6.682   6.666
 5388POPC   C3A69581  36.420   6.923   7.005
 5388POPC   C4A69582  36.209   6.811   7.341
 5388POPC   C1B69583  35.942   6.829   6.225
 5388POPC   C2B69584  35.879   6.588   6.599
 5388POPC   C3B69585  36.020   6.473   7.012
 5388POPC   C4B69586  35.928   6.392   7.486
 5389POPC   NC369587   0.940   5.862   5.360
 5389POPC   PO469588   0.611   6.439   5.435
 5389POPC   GL169589   0.730   6.088   5.781
 5389POPC   GL269590   0.683   5.678   5.757
 5389POPC   C1A69591   0.546   5.922   6.200
 5389POPC   D2A69592   0.144   5.897   6.476
 5389POPC   C3A69593   0.250   5.834   6.925
 5389POPC   C4A69594   0.690   5.917   7.077
 5389POPC   C1B69595   0.569   5.382   6.104
 5389POPC   C2B69596   0.669   5.432   6.561
 5389POPC   C3B69597   0.650   5.399   7.009
 5389POPC   C4B69598   0.407   5.539   7.332
 5390POPC   NC369599   5.343   4.029   5.410
 5390POPC   PO469600   4.931   4.607   5.466
 5390POPC   GL169601   5.153   4.451   5.806
 5390POPC   GL269602   5.499   4.456   5.697
 5390POPC   C1A69603   5.066   4.406   6.260
 5390POPC   D2A69604   5.001   4.220   6.674
 5390POPC   C3A69605   4.881   4.529   6.973
 5390POPC   C4A69606   4.744   4.432   7.408
 5390POPC   C1B69607   5.494   4.170   6.070
 5390POPC   C2B69608   5.493   4.262   6.522
 5390POPC   C3B69609   5.400   4.433   6.928
 5390POPC   C4B69610   5.221   4.553   7.326
 5391POPC   NC369611  25.545  37.910   5.334
 5391POPC   PO469612  24.888  38.056   5.437
 5391POPC   GL169613  25.081  37.695   5.630
 5391POPC   GL269614  25.433  37.652   5.758
 5391POPC   C1A69615  25.051  37.646   6.090
 5391POPC   D2A69616  25.247  37.762   6.459
 5391POPC   C3A69617  25.044  37.738   6.839
 5391POPC   C4A69618  25.324  37.959   7.133
 5391POPC   C1B69619  25.483  37.372   6.112
 5391POPC   C2B69620  25.552  37.354   6.545
 5391POPC   C3B69621  25.450  37.447   6.955
 5391POPC   C4B69622  25.420  37.212   7.308
 5392POPC   NC369623  30.200  22.725   5.451
 5392POPC   PO469624  29.850  22.068   5.490
 5392POPC   GL169625  30.055  22.312   5.771
 5392POPC   GL269626  29.812  22.595   5.855
 5392POPC   C1A69627  30.055  22.165   6.180
 5392POPC   D2A69628  29.766  21.977   6.440
 5392POPC   C3A69629  29.971  21.890   6.785
 5392POPC   C4A69630  29.728  21.839   7.147
 5392POPC   C1B69631  30.176  22.653   6.142
 5392POPC   C2B69632  30.413  22.553   6.525
 5392POPC   C3B69633  30.377  22.467   6.963
 5392POPC   C4B69634  30.117  22.158   7.207
 5393POPC   NC369635  14.963  19.636   5.402
 5393POPC   PO469636  15.528  20.059   5.698
 5393POPC   GL169637  15.306  19.751   5.780
 5393POPC   GL269638  15.051  19.959   5.801
 5393POPC   C1A69639  15.458  19.540   6.126
 5393POPC   D2A69640  15.385  19.687   6.528
 5393POPC   C3A69641  15.607  19.685   6.864
 5393POPC   C4A69642  15.366  19.739   7.229
 5393POPC   C1B69643  15.011  19.809   6.196
 5393POPC   C2B69644  14.953  19.959   6.572
 5393POPC   C3B69645  14.951  19.828   6.958
 5393POPC   C4B69646  14.829  19.771   7.354
 5394POPC   NC369647  44.384  21.808   5.215
 5394POPC   PO469648   0.053  21.656   5.257
 5394POPC   GL169649  44.726  21.547   5.656
 5394POPC   GL269650  44.412  21.731   5.713
 5394POPC   C1A69651  44.769  21.279   6.071
 5394POPC   D2A69652   0.067  21.218   6.462
 5394POPC   C3A69653  44.957  21.303   6.939
 5394POPC   C4A69654  44.673  21.337   7.339
 5394POPC   C1B69655  44.598  21.799   6.113
 5394POPC   C2B69656  44.693  21.580   6.487
 5394POPC   C3B69657  44.513  21.534   6.875
 5394POPC   C4B69658  44.387  21.757   7.242
 5395POPC   NC369659   8.443  10.286   5.419
 5395POPC   PO469660   8.022  10.811   5.224
 5395POPC   GL169661   8.041  10.728   5.651
 5395POPC   GL269662   8.093  10.404   5.767
 5395POPC   C1A69663   7.954  10.835   6.083
 5395POPC   D2A69664   7.942  10.648   6.492
 5395POPC   C3A69665   8.306  10.585   6.739
 5395POPC   C4A69666   8.230  10.498   7.170
 5395POPC   C1B69667   8.320  10.410   6.174
 5395POPC   C2B69668   8.350  10.122   6.536
 5395POPC   C3B69669   8.581  10.157   6.946
 5395POPC   C4B69670   8.624  10.170   7.411
 5396POPC   NC369671  18.704  16.628   5.630
 5396POPC   PO469672  19.129  16.988   5.282
 5396POPC   GL169673  19.171  16.879   5.726
 5396POPC   GL269674  19.323  17.136   5.929
 5396POPC   C1A69675  19.135  16.757   6.187
 5396POPC   D2A69676  19.030  17.044   6.539
 5396POPC   C3A69677  18.956  16.914   6.974
 5396POPC   C4A69678  18.678  17.114   7.289
 5396POPC   C1B69679  19.522  17.114   6.338
 5396POPC   C2B69680  19.454  17.108   6.811
 5396POPC   C3B69681  19.580  17.081   7.236
 5396POPC   C4B69682  19.631  16.776   7.584
 5397POPC   NC369683  14.096  32.687   5.480
 5397POPC   PO469684  14.457  33.230   5.464
 5397POPC   GL169685  14.577  33.113   5.841
 5397POPC   GL269686  14.556  32.771   5.752
 5397POPC   C1A69687  14.346  33.096   6.196
 5397POPC   D2A69688  14.381  33.260   6.577
 5397POPC   C3A69689  14.132  33.149   6.954
 5397POPC   C4A69690  14.333  33.204   7.361
 5397POPC   C1B69691  14.521  32.611   6.167
 5397POPC   C2B69692  14.540  32.755   6.607
 5397POPC   C3B69693  14.389  32.715   7.019
 5397POPC   C4B69694  14.675  32.679   7.301
 5398POPC   NC369695  10.013  25.983   5.387
 5398POPC   PO469696   9.504  26.378   5.415
 5398POPC   GL169697   9.749  26.224   5.773
 5398POPC   GL269698   9.636  25.864   5.790
 5398POPC   C1A69699   9.929  26.106   6.190
 5398POPC   D2A69700   9.902  26.230   6.629
 5398POPC   C3A69701  10.044  26.187   7.049
 5398POPC   C4A69702   9.964  26.378   7.489
 5398POPC   C1B69703   9.502  25.612   6.152
 5398POPC   C2B69704   9.622  25.793   6.545
 5398POPC   C3B69705   9.646  25.872   6.955
 5398POPC   C4B69706   9.436  25.817   7.320
 5399POPC   NC369707   7.991  38.072   5.257
 5399POPC   PO469708   8.359  38.622   5.477
 5399POPC   GL169709   8.100  38.491   5.809
 5399POPC   GL269710   7.991  38.155   5.777
 5399POPC   C1A69711   8.272  38.489   6.226
 5399POPC   D2A69712   8.271  38.804   6.537
 5399POPC   C3A69713   8.058  38.531   6.801
 5399POPC   C4A69714   8.098  38.472   7.207
 5399POPC   C1B69715   7.791  38.237   6.204
 5399POPC   C2B69716   7.551  38.041   6.577
 5399POPC   C3B69717   7.707  38.207   6.988
 5399POPC   C4B69718   7.816  38.129   7.451
 5400POPC   NC369719  35.346  25.628   5.473
 5400POPC   PO469720  35.597  26.243   5.370
 5400POPC   GL169721  35.390  26.081   5.757
 5400POPC   GL269722  35.136  25.811   5.894
 5400POPC   C1A69723  35.218  26.250   6.135
 5400POPC   D2A69724  35.043  26.317   6.529
 5400POPC   C3A69725  35.365  26.378   6.842
 5400POPC   C4A69726  35.230  26.120   7.153
 5400POPC   C1B69727  35.120  25.775   6.346
 5400POPC   C2B69728  35.320  25.804   6.736
 5400POPC   C3B69729  35.183  25.622   7.094
 5400POPC   C4B69730  34.784  25.548   7.224
 5401POPC   NC369731  44.939   1.890   5.437
 5401POPC   PO469732   0.096   2.507   5.562
 5401POPC   GL169733   0.022   2.144   5.905
 5401POPC   GL269734  44.802   1.801   5.909
 5401POPC   C1A69735  44.718   2.111   6.289
 5401POPC   D2A69736  44.337   2.034   6.563
 5401POPC   C3A69737  44.460   2.222   6.953
 5401POPC   C4A69738  44.894   2.265   7.164
 5401POPC   C1B69739  44.497   1.658   6.234
 5401POPC   C2B69740  44.700   1.672   6.607
 5401POPC   C3B69741  44.756   1.791   7.006
 5401POPC   C4B69742  44.612   1.540   7.313
 5402POPC   NC369743  29.703  33.216   5.269
 5402POPC   PO469744  29.788  32.616   5.626
 5402POPC   GL169745  29.794  33.082   5.826
 5402POPC   GL269746  30.091  33.246   5.893
 5402POPC   C1A69747  29.702  33.222   6.268
 5402POPC   D2A69748  29.753  32.943   6.659
 5402POPC   C3A69749  29.961  33.154   6.997
 5402POPC   C4A69750  30.233  33.531   7.060
 5402POPC   C1B69751  30.087  32.872   6.239
 5402POPC   C2B69752  30.174  32.617   6.649
 5402POPC   C3B69753  30.198  32.705   7.100
 5402POPC   C4B69754  30.384  33.089   7.282
 5403POPC   NC369755  33.437  20.604   5.121
 5403POPC   PO469756  34.019  20.714   5.515
 5403POPC   GL169757  33.771  20.655   5.843
 5403POPC   GL269758  33.485  20.476   5.707
 5403POPC   C1A69759  33.837  20.817   6.222
 5403POPC   D2A69760  34.048  20.589   6.539
 5403POPC   C3A69761  33.869  20.747   6.902
 5403POPC   C4A69762  33.663  20.759   7.275
 5403POPC   C1B69763  33.360  20.570   6.148
 5403POPC   C2B69764  33.532  20.562   6.551
 5403POPC   C3B69765  33.541  20.353   6.920
 5403POPC   C4B69766  33.478  20.279   7.299
 5404POPC   NC369767   8.014  20.344   5.398
 5404POPC   PO469768   8.607  19.933   5.313
 5404POPC   GL169769   8.405  19.940   5.672
 5404POPC   GL269770   8.450  20.296   5.733
 5404POPC   C1A69771   8.481  19.894   6.101
 5404POPC   D2A69772   8.384  19.706   6.480
 5404POPC   C3A69773   8.490  19.793   6.896
 5404POPC   C4A69774   8.186  19.615   7.142
 5404POPC   C1B69775   8.334  20.379   6.175
 5404POPC   C2B69776   8.101  20.252   6.534
 5404POPC   C3B69777   8.025  20.055   6.932
 5404POPC   C4B69778   8.324  20.114   7.261
 5405POPC   NC369779  38.686  16.298   5.507
 5405POPC   PO469780  38.158  15.839   5.585
 5405POPC   GL169781  38.424  15.903   5.897
 5405POPC   GL269782  38.349  16.266   5.908
 5405POPC   C1A69783  38.618  15.693   6.278
 5405POPC   D2A69784  38.596  15.871   6.706
 5405POPC   C3A69785  38.657  15.732   7.139
 5405POPC   C4A69786  38.574  15.702   7.601
 5405POPC   C1B69787  38.381  16.161   6.341
 5405POPC   C2B69788  38.175  16.208   6.731
 5405POPC   C3B69789  38.159  15.971   7.103
 5405POPC   C4B69790  38.244  16.067   7.529
 5406POPC   NC369791  13.016  42.772   5.380
 5406POPC   PO469792  12.538  43.322   5.491
 5406POPC   GL169793  12.796  43.194   5.850
 5406POPC   GL269794  12.759  42.841   5.809
 5406POPC   C1A69795  12.761  43.165   6.321
 5406POPC   D2A69796  12.528  43.097   6.712
 5406POPC   C3A69797  12.642  43.325   7.078
 5406POPC   C4A69798  12.882  43.207   7.460
 5406POPC   C1B69799  13.002  42.746   6.155
 5406POPC   C2B69800  12.837  42.698   6.570
 5406POPC   C3B69801  12.883  42.873   7.013
 5406POPC   C4B69802  12.680  42.741   7.412
 5407POPC   NC369803  22.605   6.534   5.465
 5407POPC   PO469804  21.971   6.390   5.287
 5407POPC   GL169805  21.974   6.496   5.706
 5407POPC   GL269806  21.801   6.185   5.759
 5407POPC   C1A69807  22.183   6.728   6.079
 5407POPC   D2A69808  22.314   6.950   6.475
 5407POPC   C3A69809  22.272   6.726   6.870
 5407POPC   C4A69810  22.265   6.907   7.272
 5407POPC   C1B69811  21.779   6.395   6.162
 5407POPC   C2B69812  21.864   6.530   6.572
 5407POPC   C3B69813  21.898   6.370   6.994
 5407POPC   C4B69814  22.203   6.415   7.322
 5408POPC   NC369815  18.945  18.047   5.544
 5408POPC   PO469816  18.929  18.654   5.460
 5408POPC   GL169817  18.954  18.684   5.916
 5408POPC   GL269818  19.229  18.890   5.925
 5408POPC   C1A69819  19.084  18.385   6.298
 5408POPC   D2A69820  19.319  18.034   6.563
 5408POPC   C3A69821  19.416  18.080   7.031
 5408POPC   C4A69822  19.217  18.205   7.459
 5408POPC   C1B69823  19.090  18.914   6.377
 5408POPC   C2B69824  18.888  18.676   6.688
 5408POPC   C3B69825  19.068  18.466   7.034
 5408POPC   C4B69826  19.489  18.579   7.200
 5409POPC   NC369827  44.306  35.565   5.508
 5409POPC   PO469828  44.987  35.384   5.574
 5409POPC   GL169829  44.690  35.444   5.890
 5409POPC   GL269830  44.405  35.197   5.886
 5409POPC   C1A69831  44.730  35.233   6.295
 5409POPC   D2A69832  44.630  35.251   6.726
 5409POPC   C3A69833  44.870  35.538   6.927
 5409POPC   C4A69834  44.797  35.399   7.329
 5409POPC   C1B69835  44.302  35.519   6.253
 5409POPC   C2B69836  44.424  35.741   6.647
 5409POPC   C3B69837  44.397  35.635   7.093
 5409POPC   C4B69838  44.276  35.409   7.445
 5410POPC   NC369839  31.260  16.331   5.380
 5410POPC   PO469840  31.464  16.926   5.285
 5410POPC   GL169841  31.516  16.700   5.700
 5410POPC   GL269842  31.248  16.816   5.842
 5410POPC   C1A69843  31.559  16.587   6.191
 5410POPC   D2A69844  31.764  16.504   6.621
 5410POPC   C3A69845  31.517  16.553   7.033
 5410POPC   C4A69846  31.560  16.776   7.435
 5410POPC   C1B69847  31.212  16.979   6.254
 5410POPC   C2B69848  31.328  16.864   6.659
 5410POPC   C3B69849  31.300  17.061   7.068
 5410POPC   C4B69850  31.098  16.929   7.450
 5411POPC   NC369851  23.276  11.028   5.652
 5411POPC   PO469852  23.091  11.612   5.347
 5411POPC   GL169853  22.909  11.447   5.781
 5411POPC   GL269854  22.978  11.158   6.037
 5411POPC   C1A69855  22.839  11.637   6.221
 5411POPC   D2A69856  22.749  11.503   6.639
 5411POPC   C3A69857  22.940  11.631   6.996
 5411POPC   C4A69858  23.167  11.493   7.330
 5411POPC   C1B69859  23.347  11.064   6.329
 5411POPC   C2B69860  23.261  11.208   6.736
 5411POPC   C3B69861  22.933  11.127   6.960
 5411POPC   C4B69862  23.131  11.000   7.295
 5412POPC   NC369863  42.729  20.264   5.453
 5412POPC   PO469864  42.027  20.499   5.271
 5412POPC   GL169865  42.117  20.655   5.741
 5412POPC   GL269866  42.462  20.823   5.855
 5412POPC   C1A69867  42.226  20.534   6.196
 5412POPC   D2A69868  42.411  20.809   6.556
 5412POPC   C3A69869  42.280  20.771   6.974
 5412POPC   C4A69870  42.343  20.383   7.184
 5412POPC   C1B69871  42.721  20.583   6.200
 5412POPC   C2B69872  42.924  20.686   6.604
 5412POPC   C3B69873  42.811  20.986   6.933
 5412POPC   C4B69874  42.569  21.074   7.278
 5413POPC   NC369875  26.455  34.008   5.255
 5413POPC   PO469876  27.069  34.114   5.290
 5413POPC   GL169877  26.919  33.824   5.691
 5413POPC   GL269878  26.641  33.520   5.663
 5413POPC   C1A69879  26.972  33.877   6.184
 5413POPC   D2A69880  26.704  33.967   6.567
 5413POPC   C3A69881  26.608  33.863   6.987
 5413POPC   C4A69882  27.006  33.876   7.117
 5413POPC   C1B69883  26.890  33.400   6.045
 5413POPC   C2B69884  27.112  33.415   6.463
 5413POPC   C3B69885  27.027  33.399   6.915
 5413POPC   C4B69886  26.792  33.457   7.272
 5414POPC   NC369887  32.502  40.935   5.414
 5414POPC   PO469888  31.944  40.597   5.387
 5414POPC   GL169889  31.920  40.885   5.732
 5414POPC   GL269890  32.257  40.823   5.833
 5414POPC   C1A69891  31.938  40.973   6.199
 5414POPC   D2A69892  32.147  40.734   6.532
 5414POPC   C3A69893  32.004  40.708   6.938
 5414POPC   C4A69894  32.223  40.904   7.269
 5414POPC   C1B69895  32.446  40.625   6.145
 5414POPC   C2B69896  32.581  40.449   6.536
 5414POPC   C3B69897  32.522  40.575   6.932
 5414POPC   C4B69898  32.708  40.387   7.280
 5415POPC   NC369899   1.502   5.483   5.344
 5415POPC   PO469900   1.285   6.180   5.416
 5415POPC   GL169901   1.493   5.893   5.679
 5415POPC   GL269902   1.219   5.645   5.743
 5415POPC   C1A69903   1.496   5.821   6.132
 5415POPC   D2A69904   1.203   6.001   6.448
 5415POPC   C3A69905   1.249   6.025   6.904
 5415POPC   C4A69906   1.092   6.119   7.333
 5415POPC   C1B69907   1.027   5.607   6.152
 5415POPC   C2B69908   1.299   5.490   6.494
 5415POPC   C3B69909   1.420   5.528   6.914
 5415POPC   C4B69910   1.086   5.608   7.203
 5416POPC   NC369911  30.381  25.788   5.354
 5416POPC   PO469912  30.678  26.388   5.166
 5416POPC   GL169913  30.769  26.182   5.592
 5416POPC   GL269914  30.944  25.840   5.620
 5416POPC   C1A69915  30.660  26.084   6.050
 5416POPC   D2A69916  30.433  26.031   6.458
 5416POPC   C3A69917  30.605  26.009   6.887
 5416POPC   C4A69918  30.712  26.190   7.310
 5416POPC   C1B69919  30.879  25.578   5.994
 5416POPC   C2B69920  30.770  25.600   6.435
 5416POPC   C3B69921  30.933  25.579   6.857
 5416POPC   C4B69922  30.914  25.726   7.263
 5417POPC   NC369923  28.386  14.681   5.446
 5417POPC   PO469924  28.548  14.041   5.533
 5417POPC   GL169925  28.441  14.364   5.845
 5417POPC   GL269926  28.083  14.381   5.730
 5417POPC   C1A69927  28.558  14.540   6.267
 5417POPC   D2A69928  28.577  14.751   6.703
 5417POPC   C3A69929  28.671  14.391   6.980
 5417POPC   C4A69930  28.521  14.191   7.346
 5417POPC   C1B69931  28.049  14.374   6.196
 5417POPC   C2B69932  28.180  14.439   6.641
 5417POPC   C3B69933  28.143  14.441   7.101
 5417POPC   C4B69934  28.040  14.243   7.507
 5418POPC   NC369935   9.679  28.566   5.321
 5418POPC   PO469936   9.699  27.886   5.163
 5418POPC   GL169937   9.840  28.140   5.585
 5418POPC   GL269938   9.567  28.302   5.743
 5418POPC   C1A69939   9.990  28.226   6.051
 5418POPC   D2A69940  10.153  28.156   6.502
 5418POPC   C3A69941   9.916  28.178   6.890
 5418POPC   C4A69942   9.590  28.280   7.204
 5418POPC   C1B69943   9.571  28.558   6.120
 5418POPC   C2B69944   9.771  28.522   6.527
 5418POPC   C3B69945   9.740  28.684   6.953
 5418POPC   C4B69946   9.367  28.771   7.181
 5419POPC   NC369947  41.148  25.780   5.453
 5419POPC   PO469948  40.496  26.009   5.259
 5419POPC   GL169949  40.749  26.029   5.650
 5419POPC   GL269950  41.085  26.212   5.723
 5419POPC   C1A69951  40.750  26.021   6.107
 5419POPC   D2A69952  40.724  26.096   6.555
 5419POPC   C3A69953  40.716  25.716   6.792
 5419POPC   C4A69954  40.678  25.652   7.227
 5419POPC   C1B69955  41.241  25.904   6.057
 5419POPC   C2B69956  41.361  25.865   6.492
 5419POPC   C3B69957  41.157  26.028   6.859
 5419POPC   C4B69958  41.132  26.191   7.270
 5420POPC   NC369959  36.556  20.324   5.632
 5420POPC   PO469960  36.922  19.776   5.384
 5420POPC   GL169961  36.975  19.910   5.813
 5420POPC   GL269962  37.016  20.273   5.884
 5420POPC   C1A69963  37.053  19.708   6.210
 5420POPC   D2A69964  37.077  19.824   6.630
 5420POPC   C3A69965  37.008  19.531   6.981
 5420POPC   C4A69966  37.185  19.706   7.344
 5420POPC   C1B69967  36.676  20.101   6.218
 5420POPC   C2B69968  36.635  20.067   6.669
 5420POPC   C3B69969  36.845  20.013   7.070
 5420POPC   C4B69970  36.472  20.080   7.275
 5421POPC   NC369971  30.081   0.319   5.101
 5421POPC   PO469972  30.019  44.776   5.509
 5421POPC   GL169973  30.013   0.158   5.805
 5421POPC   GL269974  30.301   0.342   5.828
 5421POPC   C1A69975  29.771   0.352   6.160
 5421POPC   D2A69976  29.566   0.154   6.530
 5421POPC   C3A69977  29.705   0.310   6.935
 5421POPC   C4A69978  29.557   0.577   7.272
 5421POPC   C1B69979  30.290   0.365   6.288
 5421POPC   C2B69980  30.108   0.532   6.681
 5421POPC   C3B69981  30.142   0.612   7.137
 5421POPC   C4B69982  30.328   0.529   7.581
 5422POPC   NC369983  39.046  26.839   5.376
 5422POPC   PO469984  39.708  26.855   5.464
 5422POPC   GL169985  39.567  26.623   5.819
 5422POPC   GL269986  39.178  26.625   5.818
 5422POPC   C1A69987  39.405  26.631   6.259
 5422POPC   D2A69988  39.588  26.581   6.648
 5422POPC   C3A69989  39.490  26.809   7.004
 5422POPC   C4A69990  39.144  26.648   7.207
 5422POPC   C1B69991  38.959  26.917   6.101
 5422POPC   C2B69992  38.908  27.001   6.516
 5422POPC   C3B69993  38.801  26.854   6.887
 5422POPC   C4B69994  38.664  26.772   7.319
 5423POPC   NC369995  12.490   4.465   5.367
 5423POPC   PO469996  12.996   4.266   5.278
 5423POPC   GL169997  12.920   4.323   5.761
 5423POPC   GL269998  12.669   4.553   5.878
 5423POPC   C1A69999  12.925   4.321   6.260
 5423POPC   D2A70000  12.748   4.194   6.689
 5423POPC   C3A70001  12.817   4.349   7.111
 5423POPC   C4A70002  12.605   4.367   7.513
 5423POPC   C1B70003  12.644   4.755   6.334
 5423POPC   C2B70004  12.485   4.650   6.777
 5423POPC   C3B70005  12.596   4.791   7.221
 5423POPC   C4B70006  12.995   4.709   7.469
 5424POPC   NC370007  27.236  41.456   5.353
 5424POPC   PO470008  27.796  41.754   5.529
 5424POPC   GL170009  27.429  41.620   5.782
 5424POPC   GL270010  27.678  41.466   5.957
 5424POPC   C1A70011  27.207  41.484   6.163
 5424POPC   D2A70012  27.433  41.641   6.509
 5424POPC   C3A70013  27.321  41.584   6.925
 5424POPC   C4A70014  27.231  41.761   7.314
 5424POPC   C1B70015  27.925  41.510   6.338
 5424POPC   C2B70016  27.823  41.285   6.727
 5424POPC   C3B70017  27.646  41.201   7.120
 5424POPC   C4B70018  27.807  41.277   7.536
 5425POPC   NC370019  20.705   5.139   5.278
 5425POPC   PO470020  20.367   4.646   5.549
 5425POPC   GL170021  20.509   4.899   5.865
 5425POPC   GL270022  20.587   5.228   5.767
 5425POPC   C1A70023  20.367   4.914   6.287
 5425POPC   D2A70024  20.622   4.968   6.645
 5425POPC   C3A70025  20.418   4.869   6.971
 5425POPC   C4A70026  20.206   5.103   7.251
 5425POPC   C1B70027  20.715   5.294   6.201
 5425POPC   C2B70028  20.855   5.397   6.631
 5425POPC   C3B70029  20.687   5.319   7.082
 5425POPC   C4B70030  20.645   5.404   7.552
 5426POPC   NC370031  33.031  27.349   5.510
 5426POPC   PO470032  32.707  27.969   5.363
 5426POPC   GL170033  32.787  27.761   5.743
 5426POPC   GL270034  33.139  27.835   5.848
 5426POPC   C1A70035  32.819  27.564   6.147
 5426POPC   D2A70036  33.011  27.684   6.522
 5426POPC   C3A70037  32.817  27.629   6.913
 5426POPC   C4A70038  32.940  27.446   7.276
 5426POPC   C1B70039  33.276  28.070   6.239
 5426POPC   C2B70040  33.379  27.983   6.688
 5426POPC   C3B70041  33.333  27.676   7.036
 5426POPC   C4B70042  33.314  27.742   7.509
 5427POPC   NC370043  29.970  11.864   5.492
 5427POPC   PO470044  29.963  12.457   5.686
 5427POPC   GL170045  30.011  12.104   5.962
 5427POPC   GL270046  30.265  11.838   5.910
 5427POPC   C1A70047  29.996  12.122   6.387
 5427POPC   D2A70048  29.650  12.103   6.647
 5427POPC   C3A70049  29.643  12.337   6.961
 5427POPC   C4A70050  29.768  12.258   7.351
 5427POPC   C1B70051  30.153  11.611   6.291
 5427POPC   C2B70052  29.970  11.704   6.684
 5427POPC   C3B70053  30.079  12.014   6.989
 5427POPC   C4B70054  30.164  11.968   7.425
 5428POPC   NC370055  29.797  27.044   5.578
 5428POPC   PO470056  30.284  26.501   5.517
 5428POPC   GL170057  29.987  26.647   5.888
 5428POPC   GL270058  29.967  27.031   6.041
 5428POPC   C1A70059  29.725  26.651   6.264
 5428POPC   D2A70060  29.906  26.923   6.563
 5428POPC   C3A70061  29.835  26.810   6.957
 5428POPC   C4A70062  29.805  27.095   7.253
 5428POPC   C1B70063  30.329  27.055   6.299
 5428POPC   C2B70064  30.433  26.893   6.696
 5428POPC   C3B70065  30.301  27.025   7.093
 5428POPC   C4B70066  30.371  27.183   7.500
 5429POPC   NC370067   1.445  17.740   5.444
 5429POPC   PO470068   1.210  17.095   5.538
 5429POPC   GL170069   1.326  17.389   5.831
 5429POPC   GL270070   1.021  17.604   5.837
 5429POPC   C1A70071   1.398  17.614   6.217
 5429POPC   D2A70072   1.457  17.861   6.577
 5429POPC   C3A70073   1.368  17.659   6.949
 5429POPC   C4A70074   1.088  17.715   7.295
 5429POPC   C1B70075   0.978  17.319   6.233
 5429POPC   C2B70076   1.174  17.259   6.659
 5429POPC   C3B70077   1.155  17.217   7.121
 5429POPC   C4B70078   1.241  17.174   7.590
 5430POPC   NC370079   2.325  32.746   5.197
 5430POPC   PO470080   1.705  33.033   5.184
 5430POPC   GL170081   1.743  33.052   5.688
 5430POPC   GL270082   2.065  33.253   5.748
 5430POPC   C1A70083   1.760  33.117   6.179
 5430POPC   D2A70084   1.639  32.937   6.628
 5430POPC   C3A70085   1.838  32.850   7.043
 5430POPC   C4A70086   2.108  33.163   7.215
 5430POPC   C1B70087   2.237  32.872   5.906
 5430POPC   C2B70088   2.305  32.817   6.352
 5430POPC   C3B70089   2.297  32.910   6.795
 5430POPC   C4B70090   2.505  32.846   7.196
 5431POPC   NC370091  20.140  19.261   5.602
 5431POPC   PO470092  20.602  19.071   5.250
 5431POPC   GL170093  20.556  18.995   5.726
 5431POPC   GL270094  20.226  18.851   5.871
 5431POPC   C1A70095  20.578  19.003   6.221
 5431POPC   D2A70096  20.617  19.195   6.664
 5431POPC   C3A70097  20.657  18.969   7.086
 5431POPC   C4A70098  20.822  19.094   7.523
 5431POPC   C1B70099  20.083  19.136   6.240
 5431POPC   C2B70100  20.116  19.111   6.682
 5431POPC   C3B70101  20.265  19.286   7.049
 5431POPC   C4B70102  20.313  19.138   7.463
 5432POPC   NC370103  44.635  34.060   5.364
 5432POPC   PO470104  44.893  33.399   5.370
 5432POPC   GL170105  44.734  33.565   5.782
 5432POPC   GL270106  44.835  33.931   5.818
 5432POPC   C1A70107  44.513  33.559   6.226
 5432POPC   D2A70108  44.277  33.457   6.636
 5432POPC   C3A70109  44.550  33.517   6.995
 5432POPC   C4A70110  44.544  33.722   7.398
 5432POPC   C1B70111  44.994  33.789   6.219
 5432POPC   C2B70112  44.940  33.646   6.642
 5432POPC   C3B70113   0.058  33.661   7.078
 5432POPC   C4B70114   0.036  33.794   7.520
 5433POPC   NC370115   3.894   5.570   5.488
 5433POPC   PO470116   4.312   6.085   5.327
 5433POPC   GL170117   4.281   5.839   5.698
 5433POPC   GL270118   3.993   6.036   5.764
 5433POPC   C1A70119   4.202   5.729   6.140
 5433POPC   D2A70120   4.497   5.704   6.496
 5433POPC   C3A70121   4.428   5.954   6.861
 5433POPC   C4A70122   4.514   5.963   7.294
 5433POPC   C1B70123   3.903   6.187   6.186
 5433POPC   C2B70124   3.988   5.986   6.572
 5433POPC   C3B70125   3.932   5.825   6.968
 5433POPC   C4B70126   3.992   5.957   7.381
 5434POPC   NC370127   7.016  11.858   5.360
 5434POPC   PO470128   7.607  11.905   5.609
 5434POPC   GL170129   7.494  12.197   5.898
 5434POPC   GL270130   7.163  12.251   5.834
 5434POPC   C1A70131   7.451  12.184   6.330
 5434POPC   D2A70132   7.364  12.039   6.735
 5434POPC   C3A70133   7.407  12.398   6.985
 5434POPC   C4A70134   7.766  12.374   7.218
 5434POPC   C1B70135   7.126  11.837   6.088
 5434POPC   C2B70136   7.133  11.626   6.516
 5434POPC   C3B70137   7.036  11.686   6.979
 5434POPC   C4B70138   7.229  12.021   7.265
 5435POPC   NC370139  37.140   1.669   5.462
 5435POPC   PO470140  36.782   2.257   5.573
 5435POPC   GL170141  37.033   2.062   5.883
 5435POPC   GL270142  36.880   1.786   5.890
 5435POPC   C1A70143  37.061   1.918   6.348
 5435POPC   D2A70144  36.945   2.029   6.788
 5435POPC   C3A70145  37.174   2.017   7.211
 5435POPC   C4A70146  37.337   1.986   7.671
 5435POPC   C1B70147  36.573   1.998   6.181
 5435POPC   C2B70148  36.363   1.950   6.604
 5435POPC   C3B70149  36.499   1.875   7.056
 5435POPC   C4B70150  36.717   2.039   7.448
 5436POPC   NC370151  37.391  23.906   5.018
 5436POPC   PO470152  37.476  23.331   5.435
 5436POPC   GL170153  37.725  23.499   5.824
 5436POPC   GL270154  37.962  23.764   5.765
 5436POPC   C1A70155  37.582  23.868   6.125
 5436POPC   D2A70156  37.587  24.060   6.486
 5436POPC   C3A70157  37.650  23.777   6.782
 5436POPC   C4A70158  37.549  23.847   7.190
 5436POPC   C1B70159  38.030  23.619   6.229
 5436POPC   C2B70160  38.160  23.676   6.675
 5436POPC   C3B70161  38.076  23.825   7.131
 5436POPC   C4B70162  37.870  23.913   7.568
 5437POPC   NC370163   7.626  25.469   5.405
 5437POPC   PO470164   7.306  24.852   5.269
 5437POPC   GL170165   7.273  24.958   5.733
 5437POPC   GL270166   7.215  25.321   5.767
 5437POPC   C1A70167   7.448  24.933   6.188
 5437POPC   D2A70168   7.357  25.009   6.647
 5437POPC   C3A70169   7.562  24.862   7.037
 5437POPC   C4A70170   7.569  25.153   7.390
 5437POPC   C1B70171   7.479  25.493   6.081
 5437POPC   C2B70172   7.364  25.601   6.489
 5437POPC   C3B70173   7.127  25.443   6.828
 5437POPC   C4B70174   7.251  25.526   7.242
 5438POPC   NC370175  38.258  17.741   5.139
 5438POPC   PO470176  38.772  17.588   5.545
 5438POPC   GL170177  38.631  17.453   5.857
 5438POPC   GL270178  38.301  17.482   5.761
 5438POPC   C1A70179  38.718  17.570   6.246
 5438POPC   D2A70180  38.549  17.426   6.591
 5438POPC   C3A70181  38.761  17.368   6.949
 5438POPC   C4A70182  38.617  17.566   7.296
 5438POPC   C1B70183  38.167  17.442   6.185
 5438POPC   C2B70184  38.060  17.594   6.596
 5438POPC   C3B70185  38.212  17.386   6.962
 5438POPC   C4B70186  38.095  17.274   7.326
 5439POPC   NC370187  13.065  35.733   5.490
 5439POPC   PO470188  12.653  36.020   5.015
 5439POPC   GL170189  12.805  36.158   5.528
 5439POPC   GL270190  13.138  36.257   5.680
 5439POPC   C1A70191  12.731  36.241   6.013
 5439POPC   D2A70192  12.757  36.006   6.431
 5439POPC   C3A70193  12.627  36.165   6.848
 5439POPC   C4A70194  12.569  36.479   7.180
 5439POPC   C1B70195  13.204  36.134   6.149
 5439POPC   C2B70196  13.219  36.134   6.647
 5439POPC   C3B70197  13.144  36.234   7.120
 5439POPC   C4B70198  13.218  36.011   7.523
 5440POPC   NC370199  43.863  21.740   5.474
 5440POPC   PO470200  43.956  22.398   5.459
 5440POPC   GL170201  43.871  22.165   5.802
 5440POPC   GL270202  43.641  22.404   5.953
 5440POPC   C1A70203  44.076  21.896   6.110
 5440POPC   D2A70204  44.230  21.812   6.521
 5440POPC   C3A70205  44.025  22.059   6.803
 5440POPC   C4A70206  44.095  22.158   7.203
 5440POPC   C1B70207  43.524  22.011   6.154
 5440POPC   C2B70208  43.703  21.752   6.491
 5440POPC   C3B70209  43.588  21.797   6.937
 5440POPC   C4B70210  43.581  22.198   7.188
 5441POPC   NC370211   5.056  36.666   5.414
 5441POPC   PO470212   5.327  37.316   5.383
 5441POPC   GL170213   5.180  37.035   5.760
 5441POPC   GL270214   5.263  36.647   5.884
 5441POPC   C1A70215   5.256  37.028   6.222
 5441POPC   D2A70216   5.194  36.730   6.580
 5441POPC   C3A70217   5.191  36.940   6.981
 5441POPC   C4A70218   4.946  37.306   7.008
 5441POPC   C1B70219   4.828  36.694   6.073
 5441POPC   C2B70220   4.628  36.585   6.487
 5441POPC   C3B70221   4.740  36.681   6.938
 5441POPC   C4B70222   4.967  36.658   7.361
 5442POPC   NC370223  27.565   1.361   5.461
 5442POPC   PO470224  27.945   0.859   5.452
 5442POPC   GL170225  27.674   0.889   5.832
 5442POPC   GL270226  27.304   0.786   5.831
 5442POPC   C1A70227  27.674   1.184   6.204
 5442POPC   D2A70228  27.372   1.243   6.581
 5442POPC   C3A70229  27.451   1.478   6.925
 5442POPC   C4A70230  27.656   1.292   7.223
 5442POPC   C1B70231  27.312   0.831   6.235
 5442POPC   C2B70232  27.609   0.799   6.552
 5442POPC   C3B70233  27.475   0.895   6.954
 5442POPC   C4B70234  27.350   0.880   7.352
 5443POPC   NC370235  19.939  21.524   5.384
 5443POPC   PO470236  19.362  21.283   5.449
 5443POPC   GL170237  19.654  21.341   5.802
 5443POPC   GL270238  19.925  21.114   5.728
 5443POPC   C1A70239  19.558  21.372   6.260
 5443POPC   D2A70240  19.711  21.521   6.669
 5443POPC   C3A70241  19.575  21.419   7.072
 5443POPC   C4A70242  19.709  21.146   7.399
 5443POPC   C1B70243  20.060  21.318   6.153
 5443POPC   C2B70244  20.209  21.468   6.594
 5443POPC   C3B70245  20.124  21.514   7.077
 5443POPC   C4B70246  19.848  21.635   7.460
 5444POPC   NC370247  19.306  30.059   5.457
 5444POPC   PO470248  18.669  29.732   5.489
 5444POPC   GL170249  18.933  29.979   5.805
 5444POPC   GL270250  19.244  29.741   5.860
 5444POPC   C1A70251  19.153  30.150   6.195
 5444POPC   D2A70252  19.393  29.986   6.568
 5444POPC   C3A70253  19.262  30.043   6.992
 5444POPC   C4A70254  18.893  30.218   7.144
 5444POPC   C1B70255  19.087  29.634   6.271
 5444POPC   C2B70256  18.897  29.815   6.647
 5444POPC   C3B70257  18.878  29.705   7.068
 5444POPC   C4B70258  19.282  29.587   7.225
 5445POPC   NC370259  21.771  33.827   5.545
 5445POPC   PO470260  21.113  34.145   5.312
 5445POPC   GL170261  21.208  33.926   5.786
 5445POPC   GL270262  21.566  33.920   5.975
 5445POPC   C1A70263  21.200  33.965   6.302
 5445POPC   D2A70264  21.491  34.053   6.637
 5445POPC   C3A70265  21.518  33.825   6.998
 5445POPC   C4A70266  21.208  33.697   7.259
 5445POPC   C1B70267  21.390  33.544   6.105
 5445POPC   C2B70268  21.437  33.524   6.534
 5445POPC   C3B70269  21.400  33.335   6.926
 5445POPC   C4B70270  21.656  33.404   7.261
 5446POPC   NC370271  17.891   3.208   5.331
 5446POPC   PO470272  18.412   2.897   5.455
 5446POPC   GL170273  18.591   2.929   5.912
 5446POPC   GL270274  18.661   2.600   6.099
 5446POPC   C1A70275  18.435   2.981   6.363
 5446POPC   D2A70276  18.268   2.704   6.718
 5446POPC   C3A70277  18.274   2.850   7.138
 5446POPC   C4A70278  18.115   3.226   7.353
 5446POPC   C1B70279  18.261   2.419   6.279
 5446POPC   C2B70280  18.083   2.211   6.672
 5446POPC   C3B70281  18.184   2.344   7.080
 5446POPC   C4B70282  18.311   2.461   7.455
 5447POPC   NC370283  28.741  10.441   5.446
 5447POPC   PO470284  28.180  10.177   5.591
 5447POPC   GL170285  28.359  10.505   5.866
 5447POPC   GL270286  28.697  10.686   5.876
 5447POPC   C1A70287  28.401  10.508   6.320
 5447POPC   D2A70288  28.143  10.312   6.669
 5447POPC   C3A70289  28.300  10.255   7.109
 5447POPC   C4A70290  28.140  10.408   7.483
 5447POPC   C1B70291  28.640  10.957   6.220
 5447POPC   C2B70292  28.704  10.828   6.609
 5447POPC   C3B70293  28.554  10.673   6.966
 5447POPC   C4B70294  28.446  10.861   7.331
 5448POPC   NC370295  37.195  13.016   5.396
 5448POPC   PO470296  36.521  12.834   5.439
 5448POPC   GL170297  36.872  12.947   5.824
 5448POPC   GL270298  37.223  12.755   5.817
 5448POPC   C1A70299  36.990  12.812   6.281
 5448POPC   D2A70300  36.834  12.617   6.682
 5448POPC   C3A70301  36.935  12.855   7.063
 5448POPC   C4A70302  36.645  13.085   7.364
 5448POPC   C1B70303  37.422  12.554   6.141
 5448POPC   C2B70304  37.311  12.472   6.557
 5448POPC   C3B70305  37.255  12.406   6.996
 5448POPC   C4B70306  37.440  12.679   7.322
 5449POPC   NC370307  44.838   2.884   5.392
 5449POPC   PO470308  44.191   2.687   5.341
 5449POPC   GL170309  44.403   2.874   5.749
 5449POPC   GL270310  44.792   2.854   5.887
 5449POPC   C1A70311  44.419   2.781   6.220
 5449POPC   D2A70312  44.235   2.962   6.584
 5449POPC   C3A70313  44.312   2.751   6.971
 5449POPC   C4A70314  44.388   2.970   7.326
 5449POPC   C1B70315  44.948   2.571   6.219
 5449POPC   C2B70316  44.804   2.487   6.641
 5449POPC   C3B70317  44.821   2.766   6.970
 5449POPC   C4B70318  44.872   2.749   7.378
 5450POPC   NC370319  42.889  44.798   5.664
 5450POPC   PO470320  43.311   0.324   5.467
 5450POPC   GL170321  43.376  44.944   5.780
 5450POPC   GL270322  43.327  44.537   5.784
 5450POPC   C1A70323  43.254  44.809   6.213
 5450POPC   D2A70324  43.369  44.675   6.601
 5450POPC   C3A70325  43.076  44.923   6.850
 5450POPC   C4A70326  43.082   0.039   7.281
 5450POPC   C1B70327  43.021  44.353   6.147
 5450POPC   C2B70328  42.907  44.461   6.606
 5450POPC   C3B70329  43.136  44.433   7.036
 5450POPC   C4B70330  43.126  44.355   7.508
 5451POPC   NC370331  41.101   7.216   5.512
 5451POPC   PO470332  40.700   7.660   5.199
 5451POPC   GL170333  40.648   7.466   5.644
 5451POPC   GL270334  40.646   7.097   5.775
 5451POPC   C1A70335  40.544   7.508   6.107
 5451POPC   D2A70336  40.571   7.705   6.530
 5451POPC   C3A70337  40.568   7.425   6.897
 5451POPC   C4A70338  40.786   7.468   7.302
 5451POPC   C1B70339  40.948   7.156   6.144
 5451POPC   C2B70340  40.983   7.282   6.567
 5451POPC   C3B70341  40.978   7.077   6.973
 5451POPC   C4B70342  40.606   6.975   7.183
 5452POPC   NC370343  43.704  11.632   5.276
 5452POPC   PO470344  43.989  11.099   5.489
 5452POPC   GL170345  43.962  11.402   5.782
 5452POPC   GL270346  44.258  11.224   5.917
 5452POPC   C1A70347  43.974  11.608   6.177
 5452POPC   D2A70348  44.029  11.727   6.591
 5452POPC   C3A70349  43.791  11.567   6.949
 5452POPC   C4A70350  44.030  11.480   7.282
 5452POPC   C1B70351  43.970  11.095   6.211
 5452POPC   C2B70352  43.883  11.210   6.613
 5452POPC   C3B70353  44.175  11.123   6.953
 5452POPC   C4B70354  44.107  10.945   7.357
 5453POPC   NC370355   0.394  10.388   5.552
 5453POPC   PO470356   0.639  10.979   5.456
 5453POPC   GL170357   0.483  10.807   5.843
 5453POPC   GL270358   0.148  10.779   5.834
 5453POPC   C1A70359   0.487  10.470   6.204
 5453POPC   D2A70360   0.683  10.429   6.626
 5453POPC   C3A70361   0.468  10.375   7.022
 5453POPC   C4A70362   0.610  10.130   7.369
 5453POPC   C1B70363   0.237  10.898   6.284
 5453POPC   C2B70364   0.295  10.832   6.760
 5453POPC   C3B70365   0.439  10.877   7.223
 5453POPC   C4B70366   0.209  11.019   7.618
 5454POPC   NC370367  13.022  10.542   5.205
 5454POPC   PO470368  12.502  10.709   5.568
 5454POPC   GL170369  12.683  10.584   5.895
 5454POPC   GL270370  13.040  10.567   5.797
 5454POPC   C1A70371  12.528  10.696   6.291
 5454POPC   D2A70372  12.598  10.434   6.567
 5454POPC   C3A70373  12.642  10.653   6.912
 5454POPC   C4A70374  12.557  10.800   7.281
 5454POPC   C1B70375  13.033  10.631   6.274
 5454POPC   C2B70376  13.068  10.281   6.583
 5454POPC   C3B70377  12.932  10.242   6.994
 5454POPC   C4B70378  13.113  10.635   7.154
 5455POPC   NC370379  39.026  24.294   5.470
 5455POPC   PO470380  39.736  24.189   5.450
 5455POPC   GL170381  39.530  24.331   5.890
 5455POPC   GL270382  39.277  24.575   5.841
 5455POPC   C1A70383  39.413  24.563   6.336
 5455POPC   D2A70384  39.116  24.803   6.664
 5455POPC   C3A70385  39.111  24.576   7.058
 5455POPC   C4A70386  39.411  24.226   7.007
 5455POPC   C1B70387  39.036  24.300   6.131
 5455POPC   C2B70388  39.013  24.287   6.562
 5455POPC   C3B70389  38.878  24.133   6.925
 5455POPC   C4B70390  39.034  24.123   7.322
 5456POPC   NC370391  36.888  14.720   5.507
 5456POPC   PO470392  37.128  14.191   5.149
 5456POPC   GL170393  37.142  14.286   5.647
 5456POPC   GL270394  36.883  14.229   5.933
 5456POPC   C1A70395  37.173  14.607   6.061
 5456POPC   D2A70396  36.779  14.673   6.318
 5456POPC   C3A70397  36.764  14.382   6.679
 5456POPC   C4A70398  36.754  14.554   7.094
 5456POPC   C1B70399  36.542  14.227   6.224
 5456POPC   C2B70400  36.344  14.042   6.582
 5456POPC   C3B70401  36.394  14.197   7.008
 5456POPC   C4B70402  36.459  14.208   7.474
 5457POPC   NC370403  11.934  29.443   5.452
 5457POPC   PO470404  12.385  28.901   5.602
 5457POPC   GL170405  12.089  28.834   5.913
 5457POPC   GL270406  11.865  29.113   5.842
 5457POPC   C1A70407  11.955  28.969   6.321
 5457POPC   D2A70408  12.139  29.275   6.589
 5457POPC   C3A70409  12.249  29.174   7.024
 5457POPC   C4A70410  11.952  29.101   7.368
 5457POPC   C1B70411  11.902  29.513   6.131
 5457POPC   C2B70412  11.748  29.622   6.557
 5457POPC   C3B70413  11.766  29.388   6.948
 5457POPC   C4B70414  11.631  29.490   7.347
 5458POPC   NC370415  17.203  28.626   5.257
 5458POPC   PO470416  17.351  28.022   5.468
 5458POPC   GL170417  17.630  28.152   5.818
 5458POPC   GL270418  17.814  28.441   5.710
 5458POPC   C1A70419  17.669  28.165   6.289
 5458POPC   D2A70420  17.453  28.158   6.692
 5458POPC   C3A70421  17.659  28.108   7.090
 5458POPC   C4A70422  17.494  28.242   7.509
 5458POPC   C1B70423  17.586  28.625   6.087
 5458POPC   C2B70424  17.553  28.663   6.546
 5458POPC   C3B70425  17.512  28.583   7.011
 5458POPC   C4B70426  17.707  28.707   7.425
 5459POPC   NC370427  39.655   9.308   5.399
 5459POPC   PO470428  40.356   9.074   5.316
 5459POPC   GL170429  40.196   9.056   5.753
 5459POPC   GL270430  39.846   9.122   5.831
 5459POPC   C1A70431  40.168   9.154   6.203
 5459POPC   D2A70432  40.086   8.955   6.594
 5459POPC   C3A70433  39.916   9.270   6.884
 5459POPC   C4A70434  39.895   9.454   7.296
 5459POPC   C1B70435  39.717   8.825   6.159
 5459POPC   C2B70436  39.704   8.598   6.551
 5459POPC   C3B70437  39.604   8.709   6.961
 5459POPC   C4B70438  39.620   9.023   7.277
 5460POPC   NC370439  42.875  41.594   5.327
 5460POPC   PO470440  43.375  42.028   5.393
 5460POPC   GL170441  43.268  41.753   5.698
 5460POPC   GL270442  42.914  41.796   5.819
 5460POPC   C1A70443  43.424  41.608   6.091
 5460POPC   D2A70444  43.250  41.735   6.503
 5460POPC   C3A70445  43.348  41.617   6.909
 5460POPC   C4A70446  43.222  41.682   7.330
 5460POPC   C1B70447  42.947  41.473   6.185
 5460POPC   C2B70448  43.050  41.245   6.588
 5460POPC   C3B70449  42.960  41.314   7.058
 5460POPC   C4B70450  42.667  41.328   7.418
 5461POPC   NC370451   3.488  26.337   5.567
 5461POPC   PO470452   3.855  25.810   5.466
 5461POPC   GL170453   3.519  25.818   5.764
 5461POPC   GL270454   3.354  25.483   5.780
 5461POPC   C1A70455   3.356  26.043   6.145
 5461POPC   D2A70456   3.538  26.342   6.431
 5461POPC   C3A70457   3.566  26.195   6.852
 5461POPC   C4A70458   3.510  26.265   7.288
 5461POPC   C1B70459   3.556  25.550   6.196
 5461POPC   C2B70460   3.573  25.793   6.545
 5461POPC   C3B70461   3.618  25.691   6.976
 5461POPC   C4B70462   3.436  25.769   7.361
 5462POPC   NC370463  44.136  14.704   5.387
 5462POPC   PO470464  44.782  14.452   5.466
 5462POPC   GL170465  44.501  14.617   5.809
 5462POPC   GL270466  44.315  14.313   5.792
 5462POPC   C1A70467  44.567  14.689   6.296
 5462POPC   D2A70468  44.860  14.456   6.591
 5462POPC   C3A70469  44.810  14.583   7.049
 5462POPC   C4A70470  44.468  14.657   7.346
 5462POPC   C1B70471  44.566  14.214   6.148
 5462POPC   C2B70472  44.432  14.095   6.531
 5462POPC   C3B70473  44.596  14.148   6.925
 5462POPC   C4B70474  44.455  14.157   7.310
 5463POPC   NC370475  40.083  21.017   5.624
 5463POPC   PO470476  39.707  21.545   5.451
 5463POPC   GL170477  39.864  21.458   5.886
 5463POPC   GL270478  40.225  21.443   5.875
 5463POPC   C1A70479  39.918  21.656   6.313
 5463POPC   D2A70480  39.745  21.603   6.744
 5463POPC   C3A70481  39.837  21.746   7.182
 5463POPC   C4A70482  39.797  21.652   7.643
 5463POPC   C1B70483  40.252  21.234   6.265
 5463POPC   C2B70484  40.348  21.126   6.695
 5463POPC   C3B70485  40.208  21.421   6.994
 5463POPC   C4B70486  40.190  21.432   7.423
 5464POPC   NC370487   2.654  16.579   5.395
 5464POPC   PO470488   2.707  17.225   5.569
 5464POPC   GL170489   2.573  16.875   5.841
 5464POPC   GL270490   2.865  16.672   5.858
 5464POPC   C1A70491   2.408  16.876   6.280
 5464POPC   D2A70492   2.501  16.964   6.734
 5464POPC   C3A70493   2.593  16.828   7.162
 5464POPC   C4A70494   2.575  16.705   7.592
 5464POPC   C1B70495   2.903  16.629   6.301
 5464POPC   C2B70496   2.983  16.938   6.588
 5464POPC   C3B70497   3.092  16.928   6.998
 5464POPC   C4B70498   3.043  16.760   7.414
 5465POPC   NC370499  44.322   6.704   5.426
 5465POPC   PO470500  44.745   6.208   5.392
 5465POPC   GL170501  44.827   6.491   5.768
 5465POPC   GL270502  44.701   6.827   5.793
 5465POPC   C1A70503  44.859   6.493   6.218
 5465POPC   D2A70504  44.761   6.668   6.619
 5465POPC   C3A70505   0.012   6.697   6.953
 5465POPC   C4A70506  44.696   6.561   7.205
 5465POPC   C1B70507  44.678   6.983   6.234
 5465POPC   C2B70508  44.491   7.117   6.605
 5465POPC   C3B70509  44.620   7.045   7.027
 5465POPC   C4B70510  44.395   7.165   7.387
 5466POPC   NC370511  29.133  38.070   5.119
 5466POPC   PO470512  29.205  38.631   5.530
 5466POPC   GL170513  28.866  38.652   5.834
 5466POPC   GL270514  28.852  38.383   6.084
 5466POPC   C1A70515  28.897  38.895   6.194
 5466POPC   D2A70516  29.081  38.714   6.575
 5466POPC   C3A70517  28.854  38.458   6.860
 5466POPC   C4A70518  28.986  38.603   7.218
 5466POPC   C1B70519  29.309  38.406   6.234
 5466POPC   C2B70520  29.525  38.460   6.587
 5466POPC   C3B70521  29.322  38.253   6.855
 5466POPC   C4B70522  29.125  38.129   7.180
 5467POPC   NC370523  24.698   7.633   5.352
 5467POPC   PO470524  24.575   6.909   5.325
 5467POPC   GL170525  24.379   7.254   5.690
 5467POPC   GL270526  24.538   7.572   5.828
 5467POPC   C1A70527  24.188   7.409   6.141
 5467POPC   D2A70528  24.300   7.234   6.554
 5467POPC   C3A70529  24.225   7.442   6.928
 5467POPC   C4A70530  24.281   7.191   7.268
 5467POPC   C1B70531  24.695   7.450   6.288
 5467POPC   C2B70532  24.748   7.394   6.800
 5467POPC   C3B70533  24.916   7.572   7.226
 5467POPC   C4B70534  24.853   7.781   7.695
 5468POPC   NC370535  30.363   1.633   5.434
 5468POPC   PO470536  30.231   2.209   5.006
 5468POPC   GL170537  29.938   1.996   5.414
 5468POPC   GL270538  29.795   2.238   5.678
 5468POPC   C1A70539  29.952   1.788   5.902
 5468POPC   D2A70540  30.163   1.816   6.330
 5468POPC   C3A70541  29.966   1.780   6.754
 5468POPC   C4A70542  30.157   1.895   7.160
 5468POPC   C1B70543  29.763   2.178   6.149
 5468POPC   C2B70544  29.976   2.257   6.534
 5468POPC   C3B70545  29.857   2.246   6.950
 5468POPC   C4B70546  29.578   1.982   7.184
 5469POPC   NC370547   5.920   3.115   5.506
 5469POPC   PO470548   5.289   2.682   5.504
 5469POPC   GL170549   5.563   2.597   5.857
 5469POPC   GL270550   5.922   2.609   5.776
 5469POPC   C1A70551   5.655   2.645   6.280
 5469POPC   D2A70552   5.388   2.871   6.582
 5469POPC   C3A70553   5.696   3.101   6.807
 5469POPC   C4A70554   5.868   2.733   6.970
 5469POPC   C1B70555   6.193   2.490   6.133
 5469POPC   C2B70556   6.364   2.536   6.577
 5469POPC   C3B70557   6.348   2.654   7.034
 5469POPC   C4B70558   6.274   3.071   7.163
 5470POPC   NC370559   7.156  31.306   5.083
 5470POPC   PO470560   6.636  31.436   5.479
 5470POPC   GL170561   6.600  31.671   5.825
 5470POPC   GL270562   6.307  31.451   5.916
 5470POPC   C1A70563   6.602  31.678   6.267
 5470POPC   D2A70564   6.636  31.290   6.524
 5470POPC   C3A70565   6.755  31.355   6.959
 5470POPC   C4A70566   6.925  31.098   7.292
 5470POPC   C1B70567   6.123  31.575   6.310
 5470POPC   C2B70568   6.279  31.587   6.748
 5470POPC   C3B70569   6.502  31.791   7.057
 5470POPC   C4B70570   6.670  31.636   7.443
 5471POPC   NC370571  32.213  13.215   5.202
 5471POPC   PO470572  32.263  12.628   5.432
 5471POPC   GL170573  32.421  12.863   5.768
 5471POPC   GL270574  32.333  13.228   5.775
 5471POPC   C1A70575  32.416  12.870   6.213
 5471POPC   D2A70576  32.364  13.019   6.648
 5471POPC   C3A70577  32.352  12.674   6.944
 5471POPC   C4A70578  31.995  12.573   7.179
 5471POPC   C1B70579  32.096  13.291   6.189
 5471POPC   C2B70580  31.890  13.396   6.587
 5471POPC   C3B70581  31.819  13.109   6.905
 5471POPC   C4B70582  32.152  13.081   7.188
 5472POPC   NC370583  31.167  18.635   5.670
 5472POPC   PO470584  30.666  18.310   5.397
 5472POPC   GL170585  30.853  18.205   5.752
 5472POPC   GL270586  30.712  18.495   5.908
 5472POPC   C1A70587  30.977  18.142   6.165
 5472POPC   D2A70588  30.945  18.477   6.441
 5472POPC   C3A70589  31.020  18.340   6.828
 5472POPC   C4A70590  30.997  18.390   7.260
 5472POPC   C1B70591  30.458  18.338   6.240
 5472POPC   C2B70592  30.560  18.132   6.617
 5472POPC   C3B70593  30.561  18.230   7.039
 5472POPC   C4B70594  30.568  18.175   7.476
 5473POPC   NC370595   0.141   6.463   5.362
 5473POPC   PO470596   0.077   7.146   5.293
 5473POPC   GL170597   0.199   6.898   5.679
 5473POPC   GL270598   0.543   6.813   5.797
 5473POPC   C1A70599   0.171   6.930   6.128
 5473POPC   D2A70600   0.162   7.014   6.559
 5473POPC   C3A70601   0.494   6.810   6.754
 5473POPC   C4A70602   0.472   6.821   7.166
 5473POPC   C1B70603   0.371   6.462   6.090
 5473POPC   C2B70604   0.241   6.406   6.557
 5473POPC   C3B70605   0.390   6.335   7.005
 5473POPC   C4B70606   0.678   6.417   7.404
 5474POPC   NC370607  25.071  11.177   5.315
 5474POPC   PO470608  25.466  11.707   5.464
 5474POPC   GL170609  25.290  11.571   5.854
 5474POPC   GL270610  24.980  11.427   5.790
 5474POPC   C1A70611  25.234  11.212   6.184
 5474POPC   D2A70612  25.333  11.031   6.593
 5474POPC   C3A70613  25.327  11.214   7.003
 5474POPC   C4A70614  24.967  11.312   7.262
 5474POPC   C1B70615  24.934  11.631   6.208
 5474POPC   C2B70616  25.184  11.532   6.586
 5474POPC   C3B70617  25.200  11.701   7.004
 5474POPC   C4B70618  25.310  11.660   7.436
 5475POPC   NC370619  41.334  38.766   5.335
 5475POPC   PO470620  41.638  38.161   5.304
 5475POPC   GL170621  41.524  38.455   5.711
 5475POPC   GL270622  41.751  38.717   5.854
 5475POPC   C1A70623  41.337  38.639   6.135
 5475POPC   D2A70624  41.366  38.696   6.610
 5475POPC   C3A70625  41.522  38.328   6.903
 5475POPC   C4A70626  41.690  37.901   7.034
 5475POPC   C1B70627  41.830  38.548   6.296
 5475POPC   C2B70628  41.863  38.712   6.738
 5475POPC   C3B70629  41.564  38.820   7.091
 5475POPC   C4B70630  41.613  38.635   7.514
 5476POPC   NC370631  33.829  27.137   5.151
 5476POPC   PO470632  34.073  26.502   5.311
 5476POPC   GL170633  33.842  26.695   5.677
 5476POPC   GL270634  33.849  27.073   5.716
 5476POPC   C1A70635  33.670  26.590   6.104
 5476POPC   D2A70636  33.669  26.421   6.539
 5476POPC   C3A70637  33.629  26.750   6.855
 5476POPC   C4A70638  33.725  26.810   7.299
 5476POPC   C1B70639  33.689  27.108   6.149
 5476POPC   C2B70640  33.516  27.147   6.566
 5476POPC   C3B70641  33.653  27.248   6.987
 5476POPC   C4B70642  33.405  27.250   7.351
 5477POPC   NC370643   0.365  33.378   5.399
 5477POPC   PO470644   0.652  34.006   5.221
 5477POPC   GL170645   0.353  33.977   5.617
 5477POPC   GL270646   0.273  33.642   5.804
 5477POPC   C1A70647   0.458  34.008   6.091
 5477POPC   D2A70648   0.421  33.833   6.524
 5477POPC   C3A70649   0.644  33.982   6.895
 5477POPC   C4A70650   0.428  34.112   7.268
 5477POPC   C1B70651   0.382  33.429   6.191
 5477POPC   C2B70652   0.262  33.221   6.596
 5477POPC   C3B70653   0.403  33.236   7.035
 5477POPC   C4B70654   0.531  33.610   7.276
 5478POPC   NC370655   5.730  42.693   5.312
 5478POPC   PO470656   5.596  42.066   5.469
 5478POPC   GL170657   5.764  42.330   5.784
 5478POPC   GL270658   6.062  42.502   5.657
 5478POPC   C1A70659   6.028  42.178   6.123
 5478POPC   D2A70660   6.086  42.106   6.564
 5478POPC   C3A70661   5.762  42.246   6.831
 5478POPC   C4A70662   5.732  42.372   7.260
 5478POPC   C1B70663   6.071  42.675   6.058
 5478POPC   C2B70664   5.988  42.622   6.475
 5478POPC   C3B70665   5.942  42.733   6.883
 5478POPC   C4B70666   5.554  42.787   7.064
 5479POPC   NC370667  12.569  41.227   5.427
 5479POPC   PO470668  13.191  41.544   5.388
 5479POPC   GL170669  12.850  41.567   5.708
 5479POPC   GL270670  12.814  41.243   5.878
 5479POPC   C1A70671  12.858  41.715   6.119
 5479POPC   D2A70672  12.872  41.507   6.506
 5479POPC   C3A70673  12.936  41.746   6.880
 5479POPC   C4A70674  13.134  41.519   7.236
 5479POPC   C1B70675  12.628  40.959   6.172
 5479POPC   C2B70676  12.603  41.036   6.609
 5479POPC   C3B70677  12.866  41.202   6.925
 5479POPC   C4B70678  12.725  41.198   7.358
 5480POPC   NC370679  25.558  25.217   5.174
 5480POPC   PO470680  25.004  25.394   5.548
 5480POPC   GL170681  25.312  25.353   5.856
 5480POPC   GL270682  25.581  25.157   5.682
 5480POPC   C1A70683  25.169  25.200   6.254
 5480POPC   D2A70684  25.083  24.964   6.634
 5480POPC   C3A70685  25.109  25.117   7.039
 5480POPC   C4A70686  25.263  24.792   7.313
 5480POPC   C1B70687  25.692  25.080   6.103
 5480POPC   C2B70688  25.572  25.107   6.527
 5480POPC   C3B70689  25.555  24.928   6.885
 5480POPC   C4B70690  25.617  25.192   7.222
 5481POPC   NC370691  16.728   6.913   5.340
 5481POPC   PO470692  16.335   6.560   5.446
 5481POPC   GL170693  16.518   6.621   5.853
 5481POPC   GL270694  16.715   6.912   5.866
 5481POPC   C1A70695  16.644   6.561   6.314
 5481POPC   D2A70696  16.630   6.523   6.789
 5481POPC   C3A70697  16.881   6.843   7.016
 5481POPC   C4A70698  17.198   6.707   7.333
 5481POPC   C1B70699  16.388   6.987   6.197
 5481POPC   C2B70700  16.462   6.976   6.652
 5481POPC   C3B70701  16.369   6.875   7.087
 5481POPC   C4B70702  16.441   6.889   7.528
 5482POPC   NC370703  44.993  27.186   5.472
 5482POPC   PO470704  44.545  26.607   5.354
 5482POPC   GL170705  44.783  26.762   5.708
 5482POPC   GL270706  44.588  27.070   5.780
 5482POPC   C1A70707  44.901  26.818   6.143
 5482POPC   D2A70708  44.747  27.013   6.536
 5482POPC   C3A70709  44.985  26.931   6.911
 5482POPC   C4A70710   0.089  26.529   7.116
 5482POPC   C1B70711  44.374  26.949   6.165
 5482POPC   C2B70712  44.262  26.863   6.614
 5482POPC   C3B70713  44.294  27.037   7.064
 5482POPC   C4B70714  44.367  26.940   7.508
 5483POPC   NC370715   6.041  25.598   5.465
 5483POPC   PO470716   5.612  25.061   5.492
 5483POPC   GL170717   5.716  25.302   5.866
 5483POPC   GL270718   6.036  25.161   5.939
 5483POPC   C1A70719   5.837  25.353   6.342
 5483POPC   D2A70720   6.077  25.286   6.701
 5483POPC   C3A70721   5.869  25.420   7.046
 5483POPC   C4A70722   5.817  25.177   7.396
 5483POPC   C1B70723   6.245  24.939   6.269
 5483POPC   C2B70724   6.354  24.845   6.706
 5483POPC   C3B70725   6.232  24.967   7.140
 5483POPC   C4B70726   6.183  24.920   7.609
 5484POPC   NC370727  39.412  22.024   5.496
 5484POPC   PO470728  38.795  22.329   5.227
 5484POPC   GL170729  39.099  22.417   5.648
 5484POPC   GL270730  38.992  22.203   5.857
 5484POPC   C1A70731  39.409  22.285   6.101
 5484POPC   D2A70732  39.581  22.050   6.503
 5484POPC   C3A70733  39.379  22.120   6.877
 5484POPC   C4A70734  39.171  22.492   6.986
 5484POPC   C1B70735  38.987  21.959   6.205
 5484POPC   C2B70736  38.949  22.134   6.566
 5484POPC   C3B70737  38.853  22.053   6.942
 5484POPC   C4B70738  39.021  22.082   7.274
 5485POPC   NC370739  17.685  39.748   5.345
 5485POPC   PO470740  17.247  40.184   5.465
 5485POPC   GL170741  17.319  39.892   5.831
 5485POPC   GL270742  17.646  39.905   5.836
 5485POPC   C1A70743  17.469  39.917   6.317
 5485POPC   D2A70744  17.518  39.913   6.780
 5485POPC   C3A70745  17.279  40.118   7.085
 5485POPC   C4A70746  17.152  40.459   7.311
 5485POPC   C1B70747  17.874  39.645   6.149
 5485POPC   C2B70748  17.749  39.478   6.567
 5485POPC   C3B70749  17.893  39.619   6.988
 5485POPC   C4B70750  17.654  39.855   7.305
 5486POPC   NC370751  25.724  19.147   5.084
 5486POPC   PO470752  26.276  19.083   5.289
 5486POPC   GL170753  26.271  19.001   5.783
 5486POPC   GL270754  26.043  19.252   5.883
 5486POPC   C1A70755  26.239  18.984   6.289
 5486POPC   D2A70756  26.141  19.191   6.722
 5486POPC   C3A70757  26.265  18.978   7.112
 5486POPC   C4A70758  26.111  18.568   7.289
 5486POPC   C1B70759  25.818  19.289   6.301
 5486POPC   C2B70760  25.629  19.128   6.699
 5486POPC   C3B70761  25.756  18.895   7.069
 5486POPC   C4B70762  25.625  18.789   7.479
 5487POPC   NC370763  27.531  14.639   5.442
 5487POPC   PO470764  27.782  14.012   5.516
 5487POPC   GL170765  27.597  14.324   5.876
 5487POPC   GL270766  27.658  14.712   5.918
 5487POPC   C1A70767  27.544  14.258   6.343
 5487POPC   D2A70768  27.809  14.065   6.685
 5487POPC   C3A70769  27.691  14.189   7.107
 5487POPC   C4A70770  27.325  14.470   7.139
 5487POPC   C1B70771  27.717  14.748   6.351
 5487POPC   C2B70772  27.718  14.597   6.781
 5487POPC   C3B70773  27.757  14.761   7.184
 5487POPC   C4B70774  28.055  14.771   7.545
 5488POPC   NC370775  31.550  38.643   5.383
 5488POPC   PO470776  31.650  39.343   5.457
 5488POPC   GL170777  31.409  39.091   5.738
 5488POPC   GL270778  31.407  39.368   5.968
 5488POPC   C1A70779  31.407  38.881   6.157
 5488POPC   D2A70780  31.578  38.954   6.564
 5488POPC   C3A70781  31.415  39.085   6.967
 5488POPC   C4A70782  31.575  39.032   7.420
 5488POPC   C1B70783  31.324  39.387   6.427
 5488POPC   C2B70784  30.967  39.469   6.712
 5488POPC   C3B70785  30.860  39.522   7.144
 5488POPC   C4B70786  31.150  39.295   7.350
 5489POPC   NC370787   7.261  38.947   5.291
 5489POPC   PO470788   7.604  38.301   5.365
 5489POPC   GL170789   7.521  38.412   5.788
 5489POPC   GL270790   7.593  38.776   5.759
 5489POPC   C1A70791   7.282  38.226   6.167
 5489POPC   D2A70792   7.025  38.159   6.518
 5489POPC   C3A70793   7.165  38.193   6.937
 5489POPC   C4A70794   7.334  38.356   7.319
 5489POPC   C1B70795   7.449  38.705   6.200
 5489POPC   C2B70796   7.418  38.524   6.628
 5489POPC   C3B70797   7.541  38.717   7.022
 5489POPC   C4B70798   7.772  38.817   7.411
 5490POPC   NC370799  39.988  25.592   5.199
 5490POPC   PO470800  39.825  26.128   5.609
 5490POPC   GL170801  39.999  25.823   5.754
 5490POPC   GL270802  40.298  25.937   5.866
 5490POPC   C1A70803  39.926  25.756   6.194
 5490POPC   D2A70804  39.772  25.701   6.618
 5490POPC   C3A70805  39.706  26.102   6.800
 5490POPC   C4A70806  39.926  26.009   7.149
 5490POPC   C1B70807  40.278  26.128   6.271
 5490POPC   C2B70808  40.218  26.000   6.686
 5490POPC   C3B70809  40.439  26.075   7.049
 5490POPC   C4B70810  40.279  26.307   7.352
 5491POPC   NC370811   0.948  14.580   5.325
 5491POPC   PO470812   1.485  14.081   5.457
 5491POPC   GL170813   1.253  14.393   5.757
 5491POPC   GL270814   1.003  14.688   5.833
 5491POPC   C1A70815   1.402  14.562   6.160
 5491POPC   D2A70816   1.470  14.377   6.570
 5491POPC   C3A70817   1.346  14.617   6.902
 5491POPC   C4A70818   1.084  14.596   7.257
 5491POPC   C1B70819   0.895  14.433   6.215
 5491POPC   C2B70820   0.949  14.369   6.640
 5491POPC   C3B70821   0.683  14.483   6.949
 5491POPC   C4B70822   0.651  14.308   7.310
 5492POPC   NC370823  13.923  10.851   5.512
 5492POPC   PO470824  13.271  10.933   5.264
 5492POPC   GL170825  13.443  10.907   5.721
 5492POPC   GL270826  13.576  10.557   5.786
 5492POPC   C1A70827  13.517  10.839   6.199
 5492POPC   D2A70828  13.470  10.598   6.576
 5492POPC   C3A70829  13.639  10.751   6.921
 5492POPC   C4A70830  13.572  10.812   7.325
 5492POPC   C1B70831  13.401  10.309   6.159
 5492POPC   C2B70832  13.535  10.086   6.570
 5492POPC   C3B70833  13.438  10.223   6.969
 5492POPC   C4B70834  13.711  10.347   7.254
 5493POPC   NC370835  44.940   9.764   5.532
 5493POPC   PO470836   0.610  10.007   5.691
 5493POPC   GL170837   0.287   9.892   5.938
 5493POPC   GL270838   0.157   9.561   5.918
 5493POPC   C1A70839   0.126   9.878   6.382
 5493POPC   D2A70840   0.243   9.902   6.838
 5493POPC   C3A70841   0.695   9.881   6.929
 5493POPC   C4A70842   0.852   9.672   7.275
 5493POPC   C1B70843   0.348   9.420   6.233
 5493POPC   C2B70844   0.542   9.522   6.598
 5493POPC   C3B70845   0.486   9.387   7.011
 5493POPC   C4B70846   0.264   9.206   7.344
 5494POPC   NC370847   2.460  36.358   5.294
 5494POPC   PO470848   2.381  35.681   5.525
 5494POPC   GL170849   2.179  36.067   5.703
 5494POPC   GL270850   1.800  36.112   5.706
 5494POPC   C1A70851   2.205  36.194   6.153
 5494POPC   D2A70852   2.444  36.025   6.538
 5494POPC   C3A70853   2.217  35.810   6.880
 5494POPC   C4A70854   2.045  35.976   7.261
 5494POPC   C1B70855   1.671  36.133   6.175
 5494POPC   C2B70856   1.854  36.131   6.594
 5494POPC   C3B70857   1.751  36.294   7.004
 5494POPC   C4B70858   1.871  36.458   7.367
 5495POPC   NC370859   6.111  21.469   5.308
 5495POPC   PO470860   5.646  20.961   5.461
 5495POPC   GL170861   5.787  21.315   5.685
 5495POPC   GL270862   5.533  21.542   5.828
 5495POPC   C1A70863   6.020  21.520   6.011
 5495POPC   D2A70864   5.871  21.669   6.411
 5495POPC   C3A70865   6.013  21.556   6.824
 5495POPC   C4A70866   5.825  21.545   7.210
 5495POPC   C1B70867   5.581  21.246   6.182
 5495POPC   C2B70868   5.634  21.249   6.629
 5495POPC   C3B70869   5.445  21.279   7.041
 5495POPC   C4B70870   5.492  21.353   7.537
 5496POPC   NC370871  23.876  25.598   5.215
 5496POPC   PO470872  23.675  26.206   5.285
 5496POPC   GL170873  23.703  26.001   5.678
 5496POPC   GL270874  23.582  26.273   5.850
 5496POPC   C1A70875  23.762  25.857   6.126
 5496POPC   D2A70876  24.065  25.909   6.488
 5496POPC   C3A70877  23.904  25.896   6.898
 5496POPC   C4A70878  23.695  26.122   7.226
 5496POPC   C1B70879  23.458  26.219   6.283
 5496POPC   C2B70880  23.553  26.208   6.716
 5496POPC   C3B70881  23.239  26.282   7.032
 5496POPC   C4B70882  23.217  26.361   7.465
 5497POPC   NC370883  41.995  34.002   5.398
 5497POPC   PO470884  41.495  33.500   5.338
 5497POPC   GL170885  41.602  33.532   5.752
 5497POPC   GL270886  41.413  33.810   5.838
 5497POPC   C1A70887  41.478  33.425   6.178
 5497POPC   D2A70888  41.329  33.560   6.571
 5497POPC   C3A70889  41.659  33.455   6.851
 5497POPC   C4A70890  41.673  33.711   7.190
 5497POPC   C1B70891  41.075  33.822   6.180
 5497POPC   C2B70892  41.086  34.017   6.600
 5497POPC   C3B70893  41.244  33.868   6.990
 5497POPC   C4B70894  41.191  33.798   7.434
 5498POPC   NC370895   7.829  42.109   5.444
 5498POPC   PO470896   8.467  42.505   5.510
 5498POPC   GL170897   8.379  42.336   5.860
 5498POPC   GL270898   8.237  42.027   5.763
 5498POPC   C1A70899   8.411  42.379   6.292
 5498POPC   D2A70900   8.145  42.498   6.633
 5498POPC   C3A70901   8.347  42.551   6.980
 5498POPC   C4A70902   8.150  42.316   7.217
 5498POPC   C1B70903   8.046  41.951   6.183
 5498POPC   C2B70904   8.060  41.979   6.656
 5498POPC   C3B70905   8.328  41.877   7.025
 5498POPC   C4B70906   8.376  41.924   7.511
 5499POPC   NC370907  41.706  25.717   5.061
 5499POPC   PO470908  41.648  25.091   5.349
 5499POPC   GL170909  41.495  25.377   5.655
 5499POPC   GL270910  41.180  25.260   5.669
 5499POPC   C1A70911  41.412  25.433   6.124
 5499POPC   D2A70912  41.694  25.321   6.468
 5499POPC   C3A70913  41.642  25.491   6.862
 5499POPC   C4A70914  41.625  25.315   7.281
 5499POPC   C1B70915  41.115  25.003   6.064
 5499POPC   C2B70916  41.343  24.946   6.472
 5499POPC   C3B70917  41.400  25.022   6.903
 5499POPC   C4B70918  41.251  24.883   7.302
 5500POPC   NC370919  27.623  28.342   5.451
 5500POPC   PO470920  27.725  27.621   5.392
 5500POPC   GL170921  27.592  27.441   5.727
 5500POPC   GL270922  27.637  27.796   5.866
 5500POPC   C1A70923  27.771  27.392   6.140
 5500POPC   D2A70924  27.703  27.604   6.509
 5500POPC   C3A70925  27.538  27.404   6.883
 5500POPC   C4A70926  27.761  27.345   7.252
 5500POPC   C1B70927  27.581  28.031   6.261
 5500POPC   C2B70928  27.422  27.988   6.705
 5500POPC   C3B70929  27.480  27.848   7.131
 5500POPC   C4B70930  27.224  27.921   7.512
 5501POPC   NC370931  33.629  44.399   5.414
 5501POPC   PO470932  33.873  44.998   5.386
 5501POPC   GL170933  33.846  44.738   5.776
 5501POPC   GL270934  33.490  44.731   5.829
 5501POPC   C1A70935  33.777  44.760   6.250
 5501POPC   D2A70936  33.817  44.562   6.669
 5501POPC   C3A70937  33.715  44.618   7.104
 5501POPC   C4A70938  33.585  44.972   7.324
 5501POPC   C1B70939  33.533  44.357   6.047
 5501POPC   C2B70940  33.482  44.238   6.461
 5501POPC   C3B70941  33.396  44.256   6.896
 5501POPC   C4B70942  33.505  44.109   7.305
 5502POPC   NC370943  30.370  11.006   5.486
 5502POPC   PO470944  31.068  11.157   5.367
 5502POPC   GL170945  30.769  11.346   5.710
 5502POPC   GL270946  30.659  11.070   5.903
 5502POPC   C1A70947  30.644  11.558   6.102
 5502POPC   D2A70948  30.682  11.522   6.565
 5502POPC   C3A70949  30.397  11.538   6.908
 5502POPC   C4A70950  30.526  11.626   7.309
 5502POPC   C1B70951  30.515  11.108   6.309
 5502POPC   C2B70952  30.792  11.019   6.667
 5502POPC   C3B70953  30.765  11.204   7.070
 5502POPC   C4B70954  30.375  11.100   7.255
 5503POPC   NC370955  33.608   0.398   5.421
 5503POPC   PO470956  34.267   0.489   5.675
 5503POPC   GL170957  33.831   0.569   5.843
 5503POPC   GL270958  33.664   0.224   5.892
 5503POPC   C1A70959  33.606   0.610   6.233
 5503POPC   D2A70960  33.813   0.660   6.662
 5503POPC   C3A70961  33.684   0.421   7.044
 5503POPC   C4A70962  33.898   0.353   7.469
 5503POPC   C1B70963  33.970   0.237   6.229
 5503POPC   C2B70964  33.857   0.115   6.635
 5503POPC   C3B70965  34.015   0.032   7.017
 5503POPC   C4B70966  34.286   0.036   7.324
 5504POPC   NC370967   4.659  22.085   5.528
 5504POPC   PO470968   4.241  22.498   5.334
 5504POPC   GL170969   4.303  22.316   5.783
 5504POPC   GL270970   4.618  22.436   5.950
 5504POPC   C1A70971   4.309  22.130   6.209
 5504POPC   D2A70972   3.996  22.199   6.538
 5504POPC   C3A70973   4.219  22.086   6.887
 5504POPC   C4A70974   4.272  22.162   7.294
 5504POPC   C1B70975   4.760  22.430   6.376
 5504POPC   C2B70976   4.649  22.424   6.802
 5504POPC   C3B70977   4.655  22.489   7.241
 5504POPC   C4B70978   4.610  22.285   7.650
 5505POPC   NC370979  41.060  20.937   5.633
 5505POPC   PO470980  40.894  20.267   5.255
 5505POPC   GL170981  40.706  20.237   5.821
 5505POPC   GL270982  40.339  20.116   5.862
 5505POPC   C1A70983  40.907  20.456   6.257
 5505POPC   D2A70984  41.117  20.623   6.656
 5505POPC   C3A70985  40.930  20.570   7.055
 5505POPC   C4A70986  40.808  20.804   7.437
 5505POPC   C1B70987  40.446  20.257   6.286
 5505POPC   C2B70988  40.568  20.562   6.642
 5505POPC   C3B70989  40.443  20.631   7.078
 5505POPC   C4B70990  40.408  20.516   7.521
 5506POPC   NC370991  18.688  20.389   5.318
 5506POPC   PO470992  19.087  19.830   5.258
 5506POPC   GL170993  18.881  19.761   5.658
 5506POPC   GL270994  18.772  20.094   5.748
 5506POPC   C1A70995  18.920  19.701   6.093
 5506POPC   D2A70996  19.034  19.807   6.551
 5506POPC   C3A70997  18.799  19.630   6.886
 5506POPC   C4A70998  18.901  19.448   7.270
 5506POPC   C1B70999  18.823  20.168   6.206
 5506POPC   C2B71000  18.709  20.274   6.624
 5506POPC   C3B71001  18.926  20.125   6.998
 5506POPC   C4B71002  19.257  19.763   7.070
 5507POPC   NC371003  36.402  15.753   5.142
 5507POPC   PO471004  36.227  15.156   5.434
 5507POPC   GL171005  36.099  15.218   5.839
 5507POPC   GL271006  35.986  15.562   5.810
 5507POPC   C1A71007  35.888  15.144   6.231
 5507POPC   D2A71008  35.978  14.989   6.645
 5507POPC   C3A71009  36.065  15.237   7.002
 5507POPC   C4A71010  36.112  15.142   7.452
 5507POPC   C1B71011  36.192  15.563   6.244
 5507POPC   C2B71012  36.522  15.642   6.552
 5507POPC   C3B71013  36.667  15.693   6.976
 5507POPC   C4B71014  36.414  15.504   7.278
 5508POPC   NC371015  15.640  10.613   5.337
 5508POPC   PO471016  16.219  10.983   5.483
 5508POPC   GL171017  15.887  10.803   5.766
 5508POPC   GL271018  15.976  10.505   5.865
 5508POPC   C1A71019  15.815  10.768   6.250
 5508POPC   D2A71020  15.925  10.552   6.645
 5508POPC   C3A71021  15.867  10.751   7.065
 5508POPC   C4A71022  16.019  10.567   7.462
 5508POPC   C1B71023  16.213  10.320   6.223
 5508POPC   C2B71024  16.430  10.411   6.630
 5508POPC   C3B71025  16.246  10.379   7.052
 5508POPC   C4B71026  16.330  10.180   7.477
 5509POPC   NC371027  28.209  31.513   5.385
 5509POPC   PO471028  27.511  31.497   5.428
 5509POPC   GL171029  27.701  31.470   5.809
 5509POPC   GL271030  27.926  31.710   5.769
 5509POPC   C1A71031  27.631  31.411   6.241
 5509POPC   D2A71032  27.862  31.301   6.581
 5509POPC   C3A71033  27.615  31.363   6.930
 5509POPC   C4A71034  27.301  31.231   7.204
 5509POPC   C1B71035  28.074  31.623   6.201
 5509POPC   C2B71036  28.192  31.709   6.611
 5509POPC   C3B71037  27.998  31.663   7.032
 5509POPC   C4B71038  27.692  31.567   7.393
 5510POPC   NC371039  28.328  15.213   5.447
 5510POPC   PO471040  28.787  14.760   5.681
 5510POPC   GL171041  28.458  14.966   5.882
 5510POPC   GL271042  28.164  14.835   5.929
 5510POPC   C1A71043  28.374  15.294   6.151
 5510POPC   D2A71044  28.563  15.299   6.559
 5510POPC   C3A71045  28.381  15.410   6.937
 5510POPC   C4A71046  28.380  15.283   7.382
 5510POPC   C1B71047  28.203  14.869   6.346
 5510POPC   C2B71048  28.055  14.992   6.695
 5510POPC   C3B71049  28.212  14.941   7.063
 5510POPC   C4B71050  28.524  14.749   7.296
 5511POPC   NC371051  24.849   2.518   5.328
 5511POPC   PO471052  24.539   3.171   5.289
 5511POPC   GL171053  24.480   2.980   5.728
 5511POPC   GL271054  24.531   2.640   5.713
 5511POPC   C1A71055  24.405   2.771   6.171
 5511POPC   D2A71056  24.674   2.805   6.555
 5511POPC   C3A71057  24.476   2.918   6.965
 5511POPC   C4A71058  24.175   2.846   7.299
 5511POPC   C1B71059  24.811   2.484   6.086
 5511POPC   C2B71060  24.719   2.269   6.494
 5511POPC   C3B71061  24.684   2.404   6.926
 5511POPC   C4B71062  24.983   2.387   7.259
 5512POPC   NC371063   5.255   4.933   5.436
 5512POPC   PO471064   4.745   5.370   5.459
 5512POPC   GL171065   4.933   5.094   5.815
 5512POPC   GL271066   5.335   5.093   5.903
 5512POPC   C1A71067   5.001   5.168   6.275
 5512POPC   D2A71068   5.043   4.960   6.682
 5512POPC   C3A71069   4.933   5.282   6.971
 5512POPC   C4A71070   4.760   5.503   7.322
 5512POPC   C1B71071   5.410   4.828   6.295
 5512POPC   C2B71072   5.577   4.891   6.736
 5512POPC   C3B71073   5.349   5.017   7.116
 5512POPC   C4B71074   5.362   4.976   7.590
 5513POPC   NC371075  31.129  11.606   5.469
 5513POPC   PO471076  31.683  11.250   5.674
 5513POPC   GL171077  31.361  11.366   5.894
 5513POPC   GL271078  31.177  11.077   5.871
 5513POPC   C1A71079  31.503  11.480   6.305
 5513POPC   D2A71080  31.834  11.336   6.571
 5513POPC   C3A71081  31.690  11.314   7.002
 5513POPC   C4A71082  31.571  11.227   7.444
 5513POPC   C1B71083  31.036  11.246   6.280
 5513POPC   C2B71084  31.168  11.445   6.711
 5513POPC   C3B71085  31.212  11.456   7.172
 5513POPC   C4B71086  31.032  11.258   7.543
 5514POPC   NC371087  42.079  37.103   5.486
 5514POPC   PO471088  42.474  36.630   5.221
 5514POPC   GL171089  42.499  36.706   5.692
 5514POPC   GL271090  42.482  37.051   5.796
 5514POPC   C1A71091  42.312  36.667   6.151
 5514POPC   D2A71092  42.484  36.595   6.575
 5514POPC   C3A71093  42.371  36.804   6.969
 5514POPC   C4A71094  42.314  36.745   7.436
 5514POPC   C1B71095  42.341  37.183   6.206
 5514POPC   C2B71096  42.575  37.112   6.585
 5514POPC   C3B71097  42.588  37.296   6.977
 5514POPC   C4B71098  42.276  37.225   7.257
 5515POPC   NC371099  40.399  43.693   5.418
 5515POPC   PO471100  40.952  44.177   5.338
 5515POPC   GL171101  40.774  44.033   5.737
 5515POPC   GL271102  41.023  43.850   5.926
 5515POPC   C1A71103  40.541  44.008   6.138
 5515POPC   D2A71104  40.426  43.804   6.540
 5515POPC   C3A71105  40.591  43.832   6.971
 5515POPC   C4A71106  40.900  43.899   7.318
 5515POPC   C1B71107  40.849  43.631   6.296
 5515POPC   C2B71108  40.845  43.467   6.695
 5515POPC   C3B71109  41.085  43.488   7.078
 5515POPC   C4B71110  41.027  43.390   7.537
 5516POPC   NC371111   9.665   5.523   5.420
 5516POPC   PO471112   9.613   6.171   5.607
 5516POPC   GL171113   9.760   5.883   5.896
 5516POPC   GL271114   9.942   5.584   5.850
 5516POPC   C1A71115   9.987   6.003   6.256
 5516POPC   D2A71116   9.994   6.091   6.695
 5516POPC   C3A71117   9.582   6.059   6.883
 5516POPC   C4A71118   9.579   5.680   7.158
 5516POPC   C1B71119   9.831   5.499   6.279
 5516POPC   C2B71120   9.872   5.492   6.733
 5516POPC   C3B71121  10.096   5.582   7.093
 5516POPC   C4B71122  10.225   5.447   7.499
 5517POPC   NC371123  21.635   0.631   5.491
 5517POPC   PO471124  21.382   0.010   5.430
 5517POPC   GL171125  21.659   0.173   5.741
 5517POPC   GL271126  21.404   0.418   5.889
 5517POPC   C1A71127  21.742   0.150   6.191
 5517POPC   D2A71128  21.486   0.361   6.506
 5517POPC   C3A71129  21.620   0.463   6.950
 5517POPC   C4A71130  21.496   0.274   7.360
 5517POPC   C1B71131  21.168   0.711   6.162
 5517POPC   C2B71132  21.172   0.752   6.601
 5517POPC   C3B71133  21.106   0.432   6.883
 5517POPC   C4B71134  21.020   0.459   7.266
 5518POPC   NC371135  37.274   7.395   5.148
 5518POPC   PO471136  37.835   7.260   5.483
 5518POPC   GL171137  37.703   7.256   5.846
 5518POPC   GL271138  37.505   7.558   5.786
 5518POPC   C1A71139  37.965   7.194   6.213
 5518POPC   D2A71140  37.826   7.303   6.623
 5518POPC   C3A71141  37.955   7.103   6.975
 5518POPC   C4A71142  37.758   7.293   7.292
 5518POPC   C1B71143  37.552   7.540   6.253
 5518POPC   C2B71144  37.435   7.653   6.675
 5518POPC   C3B71145  37.454   7.677   7.136
 5518POPC   C4B71146  37.261   7.524   7.527
 5519POPC   NC371147   8.601  28.227   5.402
 5519POPC   PO471148   9.156  28.626   5.181
 5519POPC   GL171149   9.062  28.414   5.608
 5519POPC   GL271150   8.752  28.441   5.825
 5519POPC   C1A71151   9.159  28.212   6.041
 5519POPC   D2A71152   8.999  28.257   6.473
 5519POPC   C3A71153   9.194  28.093   6.890
 5519POPC   C4A71154   9.072  28.299   7.300
 5519POPC   C1B71155   8.664  28.062   6.093
 5519POPC   C2B71156   8.604  27.932   6.540
 5519POPC   C3B71157   8.673  28.115   6.959
 5519POPC   C4B71158   8.597  28.148   7.421
 5520POPC   NC371159  30.502  27.669   5.400
 5520POPC   PO471160  31.189  27.713   5.382
 5520POPC   GL171161  30.873  27.651   5.758
 5520POPC   GL271162  30.524  27.814   5.867
 5520POPC   C1A71163  30.740  27.470   6.164
 5520POPC   D2A71164  30.649  27.343   6.555
 5520POPC   C3A71165  30.639  27.565   6.926
 5520POPC   C4A71166  30.700  27.505   7.331
 5520POPC   C1B71167  30.773  27.969   6.176
 5520POPC   C2B71168  30.648  27.939   6.580
 5520POPC   C3B71169  30.301  27.929   6.870
 5520POPC   C4B71170  30.441  27.930   7.290
 5521POPC   NC371171   6.277  11.855   5.542
 5521POPC   PO471172   6.738  12.361   5.388
 5521POPC   GL171173   6.657  12.305   5.834
 5521POPC   GL271174   6.692  12.004   5.829
 5521POPC   C1A71175   6.848  12.224   6.260
 5521POPC   D2A71176   7.052  12.411   6.580
 5521POPC   C3A71177   6.897  12.178   6.892
 5521POPC   C4A71178   6.703  12.149   7.266
 5521POPC   C1B71179   6.488  11.862   6.183
 5521POPC   C2B71180   6.631  11.733   6.564
 5521POPC   C3B71181   6.508  11.833   6.943
 5521POPC   C4B71182   6.495  11.697   7.363
 5522POPC   NC371183  21.215   5.852   5.295
 5522POPC   PO471184  21.821   5.603   5.475
 5522POPC   GL171185  21.483   5.778   5.740
 5522POPC   GL271186  21.254   5.502   5.714
 5522POPC   C1A71187  21.441   6.007   6.154
 5522POPC   D2A71188  21.538   5.890   6.599
 5522POPC   C3A71189  21.469   6.066   7.025
 5522POPC   C4A71190  21.594   5.731   7.322
 5522POPC   C1B71191  21.100   5.629   6.132
 5522POPC   C2B71192  21.035   5.854   6.527
 5522POPC   C3B71193  21.171   5.656   6.936
 5522POPC   C4B71194  21.104   5.570   7.369
 5523POPC   NC371195  42.137   4.087   5.635
 5523POPC   PO471196  42.529   4.548   5.334
 5523POPC   GL171197  42.539   4.432   5.791
 5523POPC   GL271198  42.583   4.062   5.893
 5523POPC   C1A71199  42.358   4.512   6.216
 5523POPC   D2A71200  42.333   4.372   6.666
 5523POPC   C3A71201  42.258   4.638   7.070
 5523POPC   C4A71202  42.177   4.594   7.518
 5523POPC   C1B71203  42.298   4.010   6.265
 5523POPC   C2B71204  42.185   3.851   6.676
 5523POPC   C3B71205  42.172   4.088   7.071
 5523POPC   C4B71206  41.833   4.262   7.303
 5524POPC   NC371207   5.620   1.459   5.420
 5524POPC   PO471208   6.241   1.144   5.464
 5524POPC   GL171209   5.996   1.269   5.800
 5524POPC   GL271210   5.782   0.960   5.813
 5524POPC   C1A71211   5.934   1.346   6.261
 5524POPC   D2A71212   5.917   1.180   6.720
 5524POPC   C3A71213   5.746   1.411   7.104
 5524POPC   C4A71214   5.975   1.496   7.503
 5524POPC   C1B71215   5.588   0.944   6.247
 5524POPC   C2B71216   5.531   0.758   6.681
 5524POPC   C3B71217   5.728   0.838   7.087
 5524POPC   C4B71218   6.109   1.057   7.226
 5525POPC   NC371219  12.301  40.493   5.523
 5525POPC   PO471220  12.087  41.106   5.411
 5525POPC   GL171221  12.000  40.830   5.750
 5525POPC   GL271222  11.743  41.043   5.805
 5525POPC   C1A71223  12.195  40.671   6.141
 5525POPC   D2A71224  12.014  40.730   6.546
 5525POPC   C3A71225  12.191  40.662   6.957
 5525POPC   C4A71226  11.879  40.730   7.279
 5525POPC   C1B71227  11.932  41.121   6.196
 5525POPC   C2B71228  11.752  41.179   6.577
 5525POPC   C3B71229  11.733  41.120   6.985
 5525POPC   C4B71230  12.158  41.151   7.101
 5526POPC   NC371231  41.442  10.761   5.475
 5526POPC   PO471232  42.078  10.609   5.365
 5526POPC   GL171233  41.883  10.703   5.789
 5526POPC   GL271234  41.604  10.485   5.880
 5526POPC   C1A71235  41.750  10.864   6.228
 5526POPC   D2A71236  41.793  11.022   6.679
 5526POPC   C3A71237  41.624  10.685   6.968
 5526POPC   C4A71238  41.642  10.411   7.284
 5526POPC   C1B71239  41.300  10.599   6.213
 5526POPC   C2B71240  41.425  10.403   6.568
 5526POPC   C3B71241  41.301  10.270   6.946
 5526POPC   C4B71242  41.112  10.550   7.183
 5527POPC   NC371243  31.959  42.565   5.464
 5527POPC   PO471244  32.360  41.971   5.632
 5527POPC   GL171245  32.182  42.308   5.851
 5527POPC   GL271246  31.874  42.211   5.840
 5527POPC   C1A71247  32.060  42.514   6.266
 5527POPC   D2A71248  31.942  42.569   6.726
 5527POPC   C3A71249  32.115  42.330   7.043
 5527POPC   C4A71250  32.508  42.088   6.988
 5527POPC   C1B71251  31.972  41.998   6.207
 5527POPC   C2B71252  31.905  42.050   6.618
 5527POPC   C3B71253  31.984  41.844   6.987
 5527POPC   C4B71254  31.878  41.952   7.404
 5528POPC   NC371255   5.614  28.832   5.402
 5528POPC   PO471256   4.920  28.879   5.373
 5528POPC   GL171257   5.020  28.961   5.818
 5528POPC   GL271258   4.843  29.291   5.862
 5528POPC   C1A71259   5.176  29.130   6.222
 5528POPC   D2A71260   5.073  29.308   6.610
 5528POPC   C3A71261   5.263  29.162   6.974
 5528POPC   C4A71262   4.869  29.103   7.104
 5528POPC   C1B71263   4.662  29.025   6.191
 5528POPC   C2B71264   4.620  28.972   6.628
 5528POPC   C3B71265   4.659  28.659   6.939
 5528POPC   C4B71266   4.770  28.662   7.372
 5529POPC   NC371267  37.924  25.361   5.398
 5529POPC   PO471268  37.318  24.989   5.476
 5529POPC   GL171269  37.604  25.189   5.793
 5529POPC   GL271270  37.564  25.546   5.732
 5529POPC   C1A71271  37.825  25.151   6.237
 5529POPC   D2A71272  38.073  25.190   6.632
 5529POPC   C3A71273  37.830  25.114   7.001
 5529POPC   C4A71274  37.664  25.269   7.357
 5529POPC   C1B71275  37.508  25.567   6.200
 5529POPC   C2B71276  37.625  25.464   6.664
 5529POPC   C3B71277  37.469  25.660   7.069
 5529POPC   C4B71278  37.371  25.620   7.531
 5530POPC   NC371279  18.716   1.675   5.489
 5530POPC   PO471280  18.913   2.293   5.735
 5530POPC   GL171281  19.037   1.890   5.937
 5530POPC   GL271282  19.406   1.761   5.939
 5530POPC   C1A71283  19.190   2.021   6.335
 5530POPC   D2A71284  18.978   1.905   6.686
 5530POPC   C3A71285  19.076   2.172   7.011
 5530POPC   C4A71286  19.134   2.149   7.440
 5530POPC   C1B71287  19.258   1.528   6.312
 5530POPC   C2B71288  19.311   1.545   6.757
 5530POPC   C3B71289  19.231   1.696   7.198
 5530POPC   C4B71290  19.315   1.757   7.689
 5531POPC   NC371291  42.322  10.944   5.608
 5531POPC   PO471292  42.482  11.519   5.272
 5531POPC   GL171293  42.540  11.479   5.752
 5531POPC   GL271294  42.562  11.178   5.980
 5531POPC   C1A71295  42.337  11.570   6.200
 5531POPC   D2A71296  42.084  11.471   6.611
 5531POPC   C3A71297  42.250  11.407   7.056
 5531POPC   C4A71298  42.076  11.467   7.490
 5531POPC   C1B71299  42.235  11.059   6.282
 5531POPC   C2B71300  42.308  10.933   6.696
 5531POPC   C3B71301  42.530  10.927   7.088
 5531POPC   C4B71302  42.323  11.025   7.476
 5532POPC   NC371303  26.432  41.985   5.626
 5532POPC   PO471304  26.787  41.542   5.297
 5532POPC   GL171305  26.829  41.510   5.760
 5532POPC   GL271306  26.499  41.480   5.864
 5532POPC   C1A71307  26.780  41.780   6.165
 5532POPC   D2A71308  26.878  41.688   6.573
 5532POPC   C3A71309  26.565  41.795   6.892
 5532POPC   C4A71310  26.724  41.831   7.311
 5532POPC   C1B71311  26.700  41.280   6.253
 5532POPC   C2B71312  26.603  41.256   6.716
 5532POPC   C3B71313  26.708  41.360   7.127
 5532POPC   C4B71314  26.628  41.395   7.576
 5533POPC   NC371315  19.244   8.553   5.597
 5533POPC   PO471316  18.799   8.991   5.612
 5533POPC   GL171317  18.886   9.213   5.934
 5533POPC   GL271318  19.226   9.051   5.953
 5533POPC   C1A71319  19.010   9.243   6.357
 5533POPC   D2A71320  18.960   8.964   6.681
 5533POPC   C3A71321  18.909   9.159   7.065
 5533POPC   C4A71322  19.075   9.158   7.484
 5533POPC   C1B71323  19.206   8.757   6.278
 5533POPC   C2B71324  19.439   8.735   6.664
 5533POPC   C3B71325  19.319   8.837   7.098
 5533POPC   C4B71326  19.531   8.943   7.472
 5534POPC   NC371327  13.577  29.703   5.368
 5534POPC   PO471328  14.150  29.740   5.728
 5534POPC   GL171329  13.775  29.676   5.889
 5534POPC   GL271330  13.677  29.977   5.794
 5534POPC   C1A71331  13.464  29.808   6.214
 5534POPC   D2A71332  13.395  29.678   6.619
 5534POPC   C3A71333  13.413  29.972   6.933
 5534POPC   C4A71334  13.564  29.751   7.267
 5534POPC   C1B71335  13.903  30.084   6.219
 5534POPC   C2B71336  13.860  29.942   6.662
 5534POPC   C3B71337  13.908  30.091   7.092
 5534POPC   C4B71338  14.010  29.900   7.496
 5535POPC   NC371339  23.859  44.065   5.381
 5535POPC   PO471340  23.421  43.527   5.438
 5535POPC   GL171341  23.713  43.705   5.765
 5535POPC   GL271342  23.812  43.433   5.987
 5535POPC   C1A71343  23.944  43.906   6.129
 5535POPC   D2A71344  23.971  43.792   6.581
 5535POPC   C3A71345  23.852  44.109   6.887
 5535POPC   C4A71346  23.998  44.256   7.272
 5535POPC   C1B71347  23.500  43.673   6.285
 5535POPC   C2B71348  23.428  43.797   6.741
 5535POPC   C3B71349  23.569  43.793   7.183
 5535POPC   C4B71350  23.619  43.580   7.578
 5536POPC   NC371351  27.997  19.057   5.261
 5536POPC   PO471352  28.532  19.323   5.545
 5536POPC   GL171353  28.550  19.243   5.929
 5536POPC   GL271354  28.546  18.932   5.908
 5536POPC   C1A71355  28.547  19.127   6.387
 5536POPC   D2A71356  28.349  18.737   6.542
 5536POPC   C3A71357  28.237  18.778   6.933
 5536POPC   C4A71358  28.232  19.016   7.298
 5536POPC   C1B71359  28.694  18.655   6.186
 5536POPC   C2B71360  28.908  18.804   6.559
 5536POPC   C3B71361  28.739  18.985   6.935
 5536POPC   C4B71362  28.652  18.747   7.303
 5537POPC   NC371363   8.337  21.207   5.383
 5537POPC   PO471364   7.956  21.745   5.378
 5537POPC   GL171365   8.188  21.573   5.743
 5537POPC   GL271366   8.561  21.585   5.723
 5537POPC   C1A71367   8.031  21.547   6.159
 5537POPC   D2A71368   7.954  21.799   6.512
 5537POPC   C3A71369   7.833  21.536   6.865
 5537POPC   C4A71370   7.997  21.463   7.251
 5537POPC   C1B71371   8.556  21.457   6.187
 5537POPC   C2B71372   8.301  21.415   6.598
 5537POPC   C3B71373   8.455  21.418   7.017
 5537POPC   C4B71374   8.525  21.166   7.409
 5538POPC   NC371375  25.502  42.270   5.396
 5538POPC   PO471376  24.819  42.302   5.333
 5538POPC   GL171377  25.109  42.455   5.735
 5538POPC   GL271378  25.436  42.269   5.877
 5538POPC   C1A71379  25.192  42.542   6.211
 5538POPC   D2A71380  24.963  42.314   6.525
 5538POPC   C3A71381  25.098  42.132   6.919
 5538POPC   C4A71382  25.119  42.487   7.132
 5538POPC   C1B71383  25.517  42.136   6.278
 5538POPC   C2B71384  25.501  42.308   6.684
 5538POPC   C3B71385  25.601  42.262   7.106
 5538POPC   C4B71386  25.545  42.045   7.539
 5539POPC   NC371387  17.264  21.528   5.315
 5539POPC   PO471388  17.521  20.991   5.601
 5539POPC   GL171389  17.596  21.272   5.886
 5539POPC   GL271390  17.521  21.590   5.760
 5539POPC   C1A71391  17.549  21.318   6.294
 5539POPC   D2A71392  17.685  21.569   6.615
 5539POPC   C3A71393  17.699  21.354   6.997
 5539POPC   C4A71394  17.569  21.239   7.399
 5539POPC   C1B71395  17.443  21.801   6.147
 5539POPC   C2B71396  17.368  21.979   6.557
 5539POPC   C3B71397  17.410  21.797   6.981
 5539POPC   C4B71398  17.261  21.647   7.352
 5540POPC   NC371399  16.501   9.040   5.252
 5540POPC   PO471400  17.169   9.099   5.129
 5540POPC   GL171401  16.908   9.133   5.582
 5540POPC   GL271402  16.599   9.047   5.749
 5540POPC   C1A71403  16.914   9.014   6.107
 5540POPC   D2A71404  16.825   9.172   6.508
 5540POPC   C3A71405  16.923   9.019   6.912
 5540POPC   C4A71406  16.835   9.370   7.200
 5540POPC   C1B71407  16.413   9.242   6.112
 5540POPC   C2B71408  16.320   9.278   6.561
 5540POPC   C3B71409  16.424   9.083   6.969
 5540POPC   C4B71410  16.542   9.015   7.422
 5541POPC   NC371411   1.888   1.654   4.917
 5541POPC   PO471412   2.007   2.118   5.359
 5541POPC   GL171413   1.941   1.977   5.770
 5541POPC   GL271414   1.659   1.772   5.760
 5541POPC   C1A71415   1.988   1.940   6.210
 5541POPC   D2A71416   2.127   2.185   6.555
 5541POPC   C3A71417   2.040   1.955   6.894
 5541POPC   C4A71418   2.102   1.644   7.166
 5541POPC   C1B71419   1.487   2.060   6.102
 5541POPC   C2B71420   1.614   2.121   6.521
 5541POPC   C3B71421   1.531   1.942   6.920
 5541POPC   C4B71422   1.673   1.857   7.317
 5542POPC   NC371423   0.091  26.273   5.601
 5542POPC   PO471424   0.681  25.972   5.345
 5542POPC   GL171425   0.459  25.928   5.733
 5542POPC   GL271426   0.191  25.674   5.674
 5542POPC   C1A71427   0.428  26.140   6.161
 5542POPC   D2A71428   0.664  26.141   6.545
 5542POPC   C3A71429   0.459  26.205   6.916
 5542POPC   C4A71430   0.505  26.315   7.326
 5542POPC   C1B71431   0.229  25.674   6.116
 5542POPC   C2B71432   0.183  25.575   6.552
 5542POPC   C3B71433   0.033  25.596   6.971
 5542POPC   C4B71434   0.310  25.823   7.224
 5543POPC   NC371435   2.477  37.108   5.480
 5543POPC   PO471436   2.883  36.542   5.449
 5543POPC   GL171437   2.868  36.853   5.812
 5543POPC   GL271438   2.605  37.071   5.973
 5543POPC   C1A71439   3.081  36.982   6.200
 5543POPC   D2A71440   3.114  36.848   6.644
 5543POPC   C3A71441   2.858  37.143   6.909
 5543POPC   C4A71442   2.883  37.206   7.358
 5543POPC   C1B71443   2.349  36.710   6.171
 5543POPC   C2B71444   2.208  36.499   6.576
 5543POPC   C3B71445   2.187  36.658   7.004
 5543POPC   C4B71446   2.599  36.793   7.175
 5544POPC   NC371447   1.485  42.390   5.348
 5544POPC   PO471448   0.830  42.362   5.379
 5544POPC   GL171449   1.152  42.346   5.745
 5544POPC   GL271450   1.453  42.077   5.742
 5544POPC   C1A71451   1.197  42.559   6.191
 5544POPC   D2A71452   1.401  42.703   6.615
 5544POPC   C3A71453   1.240  42.483   7.018
 5544POPC   C4A71454   1.137  42.224   7.402
 5544POPC   C1B71455   1.306  42.029   6.171
 5544POPC   C2B71456   1.304  42.196   6.589
 5544POPC   C3B71457   1.308  41.972   6.992
 5544POPC   C4B71458   1.661  42.000   7.279
 5545POPC   NC371459   3.313  43.826   5.339
 5545POPC   PO471460   3.512  44.480   5.430
 5545POPC   GL171461   3.692  44.084   5.657
 5545POPC   GL271462   3.559  43.771   5.770
 5545POPC   C1A71463   3.796  44.056   6.121
 5545POPC   D2A71464   3.515  43.910   6.471
 5545POPC   C3A71465   3.695  44.068   6.866
 5545POPC   C4A71466   4.051  44.171   7.150
 5545POPC   C1B71467   3.321  43.566   6.076
 5545POPC   C2B71468   3.340  43.390   6.487
 5545POPC   C3B71469   3.495  43.563   6.865
 5545POPC   C4B71470   3.512  43.778   7.251
 5546POPC   NC371471  25.867  12.298   5.292
 5546POPC   PO471472  26.317  11.914   5.508
 5546POPC   GL171473  25.960  12.090   5.760
 5546POPC   GL271474  25.750  11.830   5.878
 5546POPC   C1A71475  25.771  12.275   6.151
 5546POPC   D2A71476  25.855  12.533   6.519
 5546POPC   C3A71477  25.947  12.350   6.916
 5546POPC   C4A71478  26.198  12.355   7.271
 5546POPC   C1B71479  26.020  11.837   6.230
 5546POPC   C2B71480  25.925  11.913   6.654
 5546POPC   C3B71481  26.189  11.857   7.007
 5546POPC   C4B71482  26.220  11.852   7.437
 5547POPC   NC371483   4.148  10.382   5.465
 5547POPC   PO471484   4.738  10.667   5.525
 5547POPC   GL171485   4.450  10.593   5.879
 5547POPC   GL271486   4.283  10.273   5.934
 5547POPC   C1A71487   4.132  10.818   6.143
 5547POPC   D2A71488   3.960  11.067   6.523
 5547POPC   C3A71489   4.239  10.968   6.864
 5547POPC   C4A71490   4.212  10.791   7.294
 5547POPC   C1B71491   3.961  10.311   6.244
 5547POPC   C2B71492   4.016  10.565   6.582
 5547POPC   C3B71493   4.085  10.442   6.958
 5547POPC   C4B71494   3.794  10.287   7.217
 5548POPC   NC371495   6.215  31.669   5.440
 5548POPC   PO471496   5.509  31.542   5.376
 5548POPC   GL171497   5.773  31.575   5.794
 5548POPC   GL271498   5.842  31.263   5.831
 5548POPC   C1A71499   5.633  31.507   6.271
 5548POPC   D2A71500   5.790  31.723   6.675
 5548POPC   C3A71501   5.827  31.581   7.099
 5548POPC   C4A71502   5.627  31.778   7.492
 5548POPC   C1B71503   5.925  31.052   6.206
 5548POPC   C2B71504   5.909  31.190   6.631
 5548POPC   C3B71505   6.232  31.107   6.903
 5548POPC   C4B71506   6.285  31.351   7.271
 5549POPC   NC371507  11.803   7.894   5.138
 5549POPC   PO471508  12.242   8.252   5.460
 5549POPC   GL171509  12.110   8.080   5.882
 5549POPC   GL271510  11.834   8.243   5.871
 5549POPC   C1A71511  12.049   8.088   6.337
 5549POPC   D2A71512  12.275   8.235   6.721
 5549POPC   C3A71513  12.109   8.126   7.134
 5549POPC   C4A71514  12.165   8.378   7.515
 5549POPC   C1B71515  11.791   8.569   6.170
 5549POPC   C2B71516  11.848   8.686   6.581
 5549POPC   C3B71517  11.942   8.584   7.000
 5549POPC   C4B71518  11.701   8.465   7.352
 5550POPC   NC371519  15.156  29.967   5.338
 5550POPC   PO471520  15.273  29.430   5.604
 5550POPC   GL171521  15.430  29.776   5.839
 5550POPC   GL271522  15.288  30.124   5.810
 5550POPC   C1A71523  15.373  29.799   6.267
 5550POPC   D2A71524  15.142  29.614   6.625
 5550POPC   C3A71525  15.347  29.759   6.991
 5550POPC   C4A71526  15.514  30.178   7.028
 5550POPC   C1B71527  14.966  30.070   6.114
 5550POPC   C2B71528  14.826  30.095   6.541
 5550POPC   C3B71529  14.948  30.088   6.976
 5550POPC   C4B71530  14.892  30.144   7.401
 5551POPC   NC371531  24.060  13.818   5.520
 5551POPC   PO471532  23.569  13.377   5.342
 5551POPC   GL171533  23.487  13.690   5.731
 5551POPC   GL271534  23.506  14.084   5.689
 5551POPC   C1A71535  23.332  13.744   6.198
 5551POPC   D2A71536  23.295  13.934   6.633
 5551POPC   C3A71537  23.474  13.708   6.987
 5551POPC   C4A71538  23.779  13.366   6.956
 5551POPC   C1B71539  23.748  14.010   6.085
 5551POPC   C2B71540  23.788  13.865   6.506
 5551POPC   C3B71541  23.868  14.017   6.905
 5551POPC   C4B71542  23.969  13.748   7.249
 5552POPC   NC371543  14.310  33.656   5.352
 5552POPC   PO471544  14.955  33.623   5.322
 5552POPC   GL171545  14.665  33.657   5.719
 5552POPC   GL271546  14.472  33.992   5.724
 5552POPC   C1A71547  14.288  33.613   6.039
 5552POPC   D2A71548  14.251  33.768   6.493
 5552POPC   C3A71549  14.360  33.600   6.938
 5552POPC   C4A71550  14.073  33.619   7.263
 5552POPC   C1B71551  14.662  34.018   6.169
 5552POPC   C2B71552  14.576  34.207   6.591
 5552POPC   C3B71553  14.537  34.055   7.038
 5552POPC   C4B71554  14.716  34.087   7.470
 5553POPC   NC371555   7.709  10.440   5.330
 5553POPC   PO471556   7.189  10.785   5.446
 5553POPC   GL171557   7.506  10.679   5.768
 5553POPC   GL271558   7.590  10.321   5.809
 5553POPC   C1A71559   7.488  10.609   6.222
 5553POPC   D2A71560   7.445  10.734   6.639
 5553POPC   C3A71561   7.751  10.708   6.990
 5553POPC   C4A71562   7.399  10.754   7.280
 5553POPC   C1B71563   7.837  10.232   6.189
 5553POPC   C2B71564   7.620  10.234   6.583
 5553POPC   C3B71565   7.389  10.345   6.961
 5553POPC   C4B71566   7.688  10.247   7.258
 5554POPC   NC371567   6.176  23.992   5.464
 5554POPC   PO471568   5.713  23.452   5.483
 5554POPC   GL171569   5.840  23.753   5.824
 5554POPC   GL271570   5.615  23.596   6.032
 5554POPC   C1A71571   5.990  23.899   6.280
 5554POPC   D2A71572   6.007  24.022   6.757
 5554POPC   C3A71573   5.922  23.699   7.095
 5554POPC   C4A71574   6.001  23.268   6.967
 5554POPC   C1B71575   5.493  24.007   6.212
 5554POPC   C2B71576   5.488  23.953   6.675
 5554POPC   C3B71577   5.491  23.533   6.889
 5554POPC   C4B71578   5.514  23.351   7.294
 5555POPC   NC371579  20.790  22.511   5.291
 5555POPC   PO471580  20.711  23.185   5.316
 5555POPC   GL171581  20.563  22.947   5.666
 5555POPC   GL271582  20.207  22.886   5.627
 5555POPC   C1A71583  20.433  23.030   6.096
 5555POPC   D2A71584  20.565  22.932   6.504
 5555POPC   C3A71585  20.700  23.234   6.787
 5555POPC   C4A71586  20.663  23.021   7.198
 5555POPC   C1B71587  20.050  22.693   6.024
 5555POPC   C2B71588  20.087  22.756   6.457
 5555POPC   C3B71589  20.282  22.607   6.847
 5555POPC   C4B71590  20.220  22.747   7.276
 5556POPC   NC371591  22.378   1.059   5.520
 5556POPC   PO471592  21.833   1.439   5.361
 5556POPC   GL171593  22.075   1.385   5.779
 5556POPC   GL271594  21.962   1.084   5.863
 5556POPC   C1A71595  22.329   1.251   6.201
 5556POPC   D2A71596  22.340   1.462   6.676
 5556POPC   C3A71597  22.181   1.466   7.149
 5556POPC   C4A71598  22.382   1.454   7.583
 5556POPC   C1B71599  22.001   0.857   6.226
 5556POPC   C2B71600  22.002   1.050   6.607
 5556POPC   C3B71601  21.844   0.985   6.998
 5556POPC   C4B71602  22.066   0.629   7.135
 5557POPC   NC371603  19.887  35.711   5.333
 5557POPC   PO471604  19.863  36.350   5.295
 5557POPC   GL171605  19.711  36.075   5.680
 5557POPC   GL271606  19.446  35.807   5.753
 5557POPC   C1A71607  19.778  36.091   6.130
 5557POPC   D2A71608  19.946  36.332   6.491
 5557POPC   C3A71609  20.059  36.135   6.871
 5557POPC   C4A71610  19.979  36.312   7.275
 5557POPC   C1B71611  19.332  35.855   6.208
 5557POPC   C2B71612  19.565  35.986   6.612
 5557POPC   C3B71613  19.613  36.002   7.077
 5557POPC   C4B71614  19.442  35.716   7.380
 5558POPC   NC371615  11.857   1.763   5.443
 5558POPC   PO471616  11.897   2.372   5.452
 5558POPC   GL171617  11.901   2.132   5.833
 5558POPC   GL271618  12.197   1.905   5.810
 5558POPC   C1A71619  11.972   2.184   6.301
 5558POPC   D2A71620  11.889   2.130   6.776
 5558POPC   C3A71621  12.079   2.114   7.226
 5558POPC   C4A71622  11.949   1.988   7.668
 5558POPC   C1B71623  11.962   1.705   6.129
 5558POPC   C2B71624  11.990   1.628   6.544
 5558POPC   C3B71625  12.080   1.658   6.961
 5558POPC   C4B71626  12.298   1.649   7.326
 5559POPC   NC371627  27.918  34.700   5.240
 5559POPC   PO471628  27.350  34.844   5.591
 5559POPC   GL171629  27.666  34.591   5.736
 5559POPC   GL271630  27.386  34.392   5.871
 5559POPC   C1A71631  27.842  34.494   6.141
 5559POPC   D2A71632  27.796  34.639   6.587
 5559POPC   C3A71633  27.737  34.296   6.851
 5559POPC   C4A71634  27.769  34.158   7.289
 5559POPC   C1B71635  27.365  34.656   6.270
 5559POPC   C2B71636  27.307  34.628   6.728
 5559POPC   C3B71637  27.569  34.712   7.083
 5559POPC   C4B71638  27.504  34.552   7.497
 5560POPC   NC371639  31.149  26.391   5.141
 5560POPC   PO471640  31.559  25.916   5.149
 5560POPC   GL171641  31.475  25.924   5.630
 5560POPC   GL271642  31.300  26.242   5.708
 5560POPC   C1A71643  31.664  25.965   6.074
 5560POPC   D2A71644  31.516  26.140   6.485
 5560POPC   C3A71645  31.535  25.975   6.915
 5560POPC   C4A71646  31.713  25.975   7.328
 5560POPC   C1B71647  31.161  26.011   6.103
 5560POPC   C2B71648  31.001  26.059   6.534
 5560POPC   C3B71649  31.079  26.140   6.971
 5560POPC   C4B71650  31.226  26.102   7.392
 5561POPC   NC371651  26.491  36.604   5.155
 5561POPC   PO471652  26.999  36.734   5.617
 5561POPC   GL171653  26.906  36.861   5.971
 5561POPC   GL271654  27.084  36.601   6.113
 5561POPC   C1A71655  26.785  37.078   6.293
 5561POPC   D2A71656  26.793  36.949   6.683
 5561POPC   C3A71657  26.932  37.236   6.979
 5561POPC   C4A71658  26.745  37.138   7.359
 5561POPC   C1B71659  26.750  36.495   6.370
 5561POPC   C2B71660  26.777  36.437   6.797
 5561POPC   C3B71661  26.902  36.710   7.142
 5561POPC   C4B71662  26.789  36.690   7.595
 5562POPC   NC371663   4.930  33.446   5.520
 5562POPC   PO471664   5.364  33.882   5.238
 5562POPC   GL171665   5.359  33.808   5.771
 5562POPC   GL271666   4.976  33.759   5.991
 5562POPC   C1A71667   5.318  34.026   6.193
 5562POPC   D2A71668   5.015  34.102   6.531
 5562POPC   C3A71669   5.152  33.896   6.906
 5562POPC   C4A71670   4.950  33.830   7.296
 5562POPC   C1B71671   4.948  33.604   6.377
 5562POPC   C2B71672   5.148  33.437   6.704
 5562POPC   C3B71673   4.912  33.394   7.058
 5562POPC   C4B71674   5.123  33.344   7.427
 5563POPC   NC371675   9.877  26.606   5.272
 5563POPC   PO471676   9.915  27.250   5.493
 5563POPC   GL171677   9.760  26.918   5.793
 5563POPC   GL271678   9.452  26.704   5.827
 5563POPC   C1A71679   9.642  27.059   6.209
 5563POPC   D2A71680   9.997  27.163   6.462
 5563POPC   C3A71681   9.986  27.187   6.906
 5563POPC   C4A71682   9.689  27.032   7.212
 5563POPC   C1B71683   9.672  26.560   6.240
 5563POPC   C2B71684   9.797  26.718   6.689
 5563POPC   C3B71685   9.632  26.520   7.081
 5563POPC   C4B71686   9.502  26.638   7.512
 5564POPC   NC371687   4.630   8.670   5.553
 5564POPC   PO471688   4.097   9.059   5.478
 5564POPC   GL171689   4.142   8.964   5.930
 5564POPC   GL271690   4.502   9.018   5.918
 5564POPC   C1A71691   4.203   9.137   6.374
 5564POPC   D2A71692   4.136   9.369   6.782
 5564POPC   C3A71693   4.344   9.122   7.112
 5564POPC   C4A71694   4.230   8.710   7.233
 5564POPC   C1B71695   4.645   8.851   6.322
 5564POPC   C2B71696   4.482   8.793   6.751
 5564POPC   C3B71697   4.767   8.693   7.108
 5564POPC   C4B71698   5.205   8.540   7.107
 5565POPC   NC371699  32.926   6.793   5.010
 5565POPC   PO471700  33.311   6.444   5.427
 5565POPC   GL171701  33.248   6.466   5.887
 5565POPC   GL271702  33.103   6.785   5.922
 5565POPC   C1A71703  33.254   6.317   6.340
 5565POPC   D2A71704  32.938   6.367   6.653
 5565POPC   C3A71705  33.045   6.510   7.051
 5565POPC   C4A71706  33.113   6.272   7.396
 5565POPC   C1B71707  33.437   6.787   6.255
 5565POPC   C2B71708  33.408   6.681   6.699
 5565POPC   C3B71709  33.410   6.862   7.126
 5565POPC   C4B71710  33.189   6.784   7.479
 5566POPC   NC371711  22.483  14.757   5.619
 5566POPC   PO471712  22.132  14.195   5.309
 5566POPC   GL171713  22.193  14.269   5.804
 5566POPC   GL271714  22.193  14.596   5.980
 5566POPC   C1A71715  22.027  14.248   6.273
 5566POPC   D2A71716  22.171  14.507   6.637
 5566POPC   C3A71717  22.148  14.249   7.007
 5566POPC   C4A71718  21.845  14.184   7.356
 5566POPC   C1B71719  22.400  14.811   6.275
 5566POPC   C2B71720  22.677  14.729   6.628
 5566POPC   C3B71721  22.489  14.613   7.024
 5566POPC   C4B71722  22.120  14.675   7.326
 5567POPC   NC371723  42.714  32.760   5.033
 5567POPC   PO471724  42.914  33.246   5.526
 5567POPC   GL171725  43.168  33.145   5.840
 5567POPC   GL271726  42.907  32.978   5.973
 5567POPC   C1A71727  43.299  33.093   6.266
 5567POPC   D2A71728  43.023  32.958   6.583
 5567POPC   C3A71729  43.207  33.035   6.964
 5567POPC   C4A71730  43.426  33.196   7.271
 5567POPC   C1B71731  42.801  33.315   6.210
 5567POPC   C2B71732  42.826  33.436   6.627
 5567POPC   C3B71733  42.721  33.201   6.996
 5567POPC   C4B71734  42.833  32.851   7.290
 5568POPC   NC371735  32.706  17.019   5.492
 5568POPC   PO471736  33.159  17.602   5.494
 5568POPC   GL171737  33.193  17.512   5.902
 5568POPC   GL271738  32.925  17.284   5.888
 5568POPC   C1A71739  33.246  17.303   6.300
 5568POPC   D2A71740  33.139  17.493   6.691
 5568POPC   C3A71741  33.376  17.487   7.069
 5568POPC   C4A71742  33.253  17.239   7.420
 5568POPC   C1B71743  32.750  17.483   6.268
 5568POPC   C2B71744  32.653  17.325   6.675
 5568POPC   C3B71745  32.851  17.280   7.079
 5568POPC   C4B71746  32.752  17.395   7.489
 5569POPC   NC371747  40.837  41.283   5.426
 5569POPC   PO471748  40.995  41.933   5.318
 5569POPC   GL171749  41.025  41.761   5.762
 5569POPC   GL271750  40.716  41.527   5.868
 5569POPC   C1A71751  40.915  41.834   6.207
 5569POPC   D2A71752  40.752  41.558   6.481
 5569POPC   C3A71753  40.779  41.594   6.923
 5569POPC   C4A71754  40.885  41.745   7.332
 5569POPC   C1B71755  40.458  41.254   6.184
 5569POPC   C2B71756  40.473  41.142   6.623
 5569POPC   C3B71757  40.385  41.265   7.026
 5569POPC   C4B71758  40.658  41.293   7.346
 5570POPC   NC371759  43.898   4.428   5.304
 5570POPC   PO471760  43.865   3.841   5.317
 5570POPC   GL171761  44.067   4.058   5.704
 5570POPC   GL271762  43.947   4.410   5.815
 5570POPC   C1A71763  44.054   3.895   6.153
 5570POPC   D2A71764  43.848   3.865   6.565
 5570POPC   C3A71765  43.999   3.939   6.971
 5570POPC   C4A71766  43.707   3.942   7.319
 5570POPC   C1B71767  44.286   4.348   6.122
 5570POPC   C2B71768  44.254   4.250   6.562
 5570POPC   C3B71769  43.918   4.420   6.847
 5570POPC   C4B71770  43.939   4.391   7.281
 5571POPC   NC371771  36.498  17.517   5.526
 5571POPC   PO471772  37.123  17.393   5.316
 5571POPC   GL171773  36.988  17.545   5.752
 5571POPC   GL271774  36.796  17.235   5.838
 5571POPC   C1A71775  37.102  17.745   6.193
 5571POPC   D2A71776  37.272  17.972   6.575
 5571POPC   C3A71777  36.963  17.965   6.905
 5571POPC   C4A71778  36.796  17.567   7.116
 5571POPC   C1B71779  36.744  17.380   6.254
 5571POPC   C2B71780  36.627  17.292   6.678
 5571POPC   C3B71781  36.743  17.077   7.055
 5571POPC   C4B71782  36.946  17.153   7.480
 5572POPC   NC371783  26.165  15.573   5.450
 5572POPC   PO471784  25.774  16.163   5.479
 5572POPC   GL171785  26.003  15.949   5.788
 5572POPC   GL271786  26.340  15.990   5.819
 5572POPC   C1A71787  26.024  15.836   6.211
 5572POPC   D2A71788  25.789  15.770   6.566
 5572POPC   C3A71789  25.986  15.719   6.921
 5572POPC   C4A71790  25.768  15.853   7.246
 5572POPC   C1B71791  26.509  16.074   6.245
 5572POPC   C2B71792  26.433  16.019   6.696
 5572POPC   C3B71793  26.598  16.067   7.122
 5572POPC   C4B71794  26.517  16.267   7.517
 5573POPC   NC371795  35.183  20.887   5.383
 5573POPC   PO471796  35.567  20.381   5.176
 5573POPC   GL171797  35.484  20.500   5.619
 5573POPC   GL271798  35.134  20.466   5.700
 5573POPC   C1A71799  35.473  20.580   6.089
 5573POPC   D2A71800  35.582  20.758   6.511
 5573POPC   C3A71801  35.401  20.584   6.897
 5573POPC   C4A71802  35.572  20.278   7.198
 5573POPC   C1B71803  35.019  20.807   6.013
 5573POPC   C2B71804  35.054  20.797   6.473
 5573POPC   C3B71805  35.058  20.983   6.894
 5573POPC   C4B71806  35.034  20.816   7.336
 5574POPC   NC371807  27.359  28.465   4.909
 5574POPC   PO471808  27.636  28.809   5.452
 5574POPC   GL171809  27.809  28.618   5.841
 5574POPC   GL271810  27.876  28.245   5.878
 5574POPC   C1A71811  27.656  28.621   6.240
 5574POPC   D2A71812  27.733  28.624   6.665
 5574POPC   C3A71813  27.333  28.562   6.873
 5574POPC   C4A71814  27.263  28.490   7.295
 5574POPC   C1B71815  28.037  28.296   6.270
 5574POPC   C2B71816  27.906  28.149   6.652
 5574POPC   C3B71817  27.724  28.273   7.036
 5574POPC   C4B71818  27.651  28.192   7.458
 5575POPC   NC371819  33.143  31.671   5.501
 5575POPC   PO471820  32.697  31.153   5.596
 5575POPC   GL171821  32.802  31.301   5.993
 5575POPC   GL271822  33.147  31.319   5.915
 5575POPC   C1A71823  32.960  31.184   6.421
 5575POPC   D2A71824  32.880  31.052   6.868
 5575POPC   C3A71825  33.042  31.361   7.119
 5575POPC   C4A71826  32.957  31.803   7.137
 5575POPC   C1B71827  33.171  31.648   6.233
 5575POPC   C2B71828  33.239  31.645   6.694
 5575POPC   C3B71829  33.465  31.646   7.111
 5575POPC   C4B71830  33.431  31.392   7.481
 5576POPC   NC371831  44.458  17.486   4.970
 5576POPC   PO471832  43.838  17.580   5.243
 5576POPC   GL171833  43.773  17.530   5.728
 5576POPC   GL271834  43.579  17.819   5.912
 5576POPC   C1A71835  43.998  17.583   6.138
 5576POPC   D2A71836  43.930  17.759   6.541
 5576POPC   C3A71837  44.160  17.722   6.925
 5576POPC   C4A71838  44.267  17.366   7.131
 5576POPC   C1B71839  43.505  17.506   6.274
 5576POPC   C2B71840  43.569  17.457   6.712
 5576POPC   C3B71841  43.756  17.378   7.109
 5576POPC   C4B71842  43.908  17.666   7.410
 5577POPC   NC371843  10.965  30.912   5.447
 5577POPC   PO471844  11.563  30.667   5.387
 5577POPC   GL171845  11.434  30.565   5.814
 5577POPC   GL271846  11.129  30.742   5.918
 5577POPC   C1A71847  11.342  30.412   6.254
 5577POPC   D2A71848  11.335  30.557   6.687
 5577POPC   C3A71849  11.527  30.678   7.047
 5577POPC   C4A71850  11.199  30.589   7.269
 5577POPC   C1B71851  11.380  30.941   6.272
 5577POPC   C2B71852  11.431  31.067   6.715
 5577POPC   C3B71853  11.147  31.067   7.050
 5577POPC   C4B71854  11.135  31.063   7.494
 5578POPC   NC371855  43.046  35.648   5.564
 5578POPC   PO471856  43.172  34.990   5.364
 5578POPC   GL171857  43.160  35.205   5.769
 5578POPC   GL271858  43.437  35.453   5.832
 5578POPC   C1A71859  43.046  35.362   6.176
 5578POPC   D2A71860  43.291  35.560   6.485
 5578POPC   C3A71861  43.037  35.698   6.824
 5578POPC   C4A71862  42.935  35.523   7.233
 5578POPC   C1B71863  43.526  35.131   6.124
 5578POPC   C2B71864  43.627  35.130   6.557
 5578POPC   C3B71865  43.501  35.389   6.934
 5578POPC   C4B71866  43.425  35.346   7.390
 5579POPC   NC371867  29.031  11.845   5.332
 5579POPC   PO471868  29.668  12.157   5.293
 5579POPC   GL171869  29.534  12.114   5.719
 5579POPC   GL271870  29.152  12.114   5.775
 5579POPC   C1A71871  29.511  12.176   6.161
 5579POPC   D2A71872  29.182  12.001   6.431
 5579POPC   C3A71873  29.146  12.107   6.866
 5579POPC   C4A71874  29.262  12.198   7.264
 5579POPC   C1B71875  28.850  11.870   6.037
 5579POPC   C2B71876  28.749  11.725   6.451
 5579POPC   C3B71877  28.891  11.662   6.864
 5579POPC   C4B71878  28.779  11.872   7.228
 5580POPC   NC371879  29.566  12.589   5.465
 5580POPC   PO471880  28.924  12.364   5.346
 5580POPC   GL171881  28.968  12.597   5.721
 5580POPC   GL271882  29.175  12.896   5.729
 5580POPC   C1A71883  29.111  12.510   6.165
 5580POPC   D2A71884  29.316  12.493   6.568
 5580POPC   C3A71885  29.201  12.634   6.984
 5580POPC   C4A71886  29.491  12.687   7.328
 5580POPC   C1B71887  28.828  12.926   6.078
 5580POPC   C2B71888  28.871  12.883   6.562
 5580POPC   C3B71889  29.018  13.127   6.965
 5580POPC   C4B71890  29.415  13.210   7.237
 5581POPC   NC371891  14.443  43.478   5.396
 5581POPC   PO471892  14.460  44.181   5.535
 5581POPC   GL171893  14.494  43.857   5.821
 5581POPC   GL271894  14.159  43.777   5.735
 5581POPC   C1A71895  14.449  44.023   6.259
 5581POPC   D2A71896  14.343  44.225   6.688
 5581POPC   C3A71897  14.382  43.910   7.008
 5581POPC   C4A71898  14.528  43.611   7.306
 5581POPC   C1B71899  13.976  43.926   6.121
 5581POPC   C2B71900  14.059  43.836   6.553
 5581POPC   C3B71901  13.881  43.814   6.964
 5581POPC   C4B71902  14.029  43.733   7.371
 5582POPC   NC371903  43.343  40.322   5.277
 5582POPC   PO471904  43.233  39.725   5.472
 5582POPC   GL171905  43.306  39.809   5.902
 5582POPC   GL271906  43.526  40.102   5.872
 5582POPC   C1A71907  43.246  39.824   6.384
 5582POPC   D2A71908  42.929  39.941   6.736
 5582POPC   C3A71909  43.149  39.995   7.130
 5582POPC   C4A71910  43.367  39.732   7.433
 5582POPC   C1B71911  43.626  40.170   6.318
 5582POPC   C2B71912  43.512  40.179   6.781
 5582POPC   C3B71913  43.415  40.414   7.188
 5582POPC   C4B71914  43.373  40.236   7.619
 5583POPC   NC371915  32.587   2.809   5.167
 5583POPC   PO471916  32.041   2.513   5.312
 5583POPC   GL171917  32.263   2.786   5.599
 5583POPC   GL271918  32.455   2.509   5.705
 5583POPC   C1A71919  32.481   2.934   5.998
 5583POPC   D2A71920  32.604   2.967   6.445
 5583POPC   C3A71921  32.385   2.871   6.844
 5583POPC   C4A71922  32.422   2.733   7.261
 5583POPC   C1B71923  32.191   2.530   6.105
 5583POPC   C2B71924  32.279   2.444   6.556
 5583POPC   C3B71925  32.177   2.369   7.002
 5583POPC   C4B71926  32.050   2.451   7.439
 5584POPC   NC371927  28.788  33.177   5.568
 5584POPC   PO471928  28.296  32.838   5.219
 5584POPC   GL171929  28.309  32.972   5.676
 5584POPC   GL271930  28.092  33.224   5.705
 5584POPC   C1A71931  28.486  33.064   6.132
 5584POPC   D2A71932  28.798  32.992   6.476
 5584POPC   C3A71933  28.545  33.042   6.852
 5584POPC   C4A71934  28.537  32.913   7.283
 5584POPC   C1B71935  27.982  32.972   6.085
 5584POPC   C2B71936  27.966  33.018   6.554
 5584POPC   C3B71937  28.050  32.952   7.004
 5584POPC   C4B71938  28.124  33.144   7.415
 5585POPC   NC371939  44.128  24.318   5.476
 5585POPC   PO471940  43.670  24.760   5.318
 5585POPC   GL171941  43.737  24.645   5.719
 5585POPC   GL271942  43.596  24.319   5.644
 5585POPC   C1A71943  43.844  24.820   6.139
 5585POPC   D2A71944  43.823  24.907   6.608
 5585POPC   C3A71945  44.080  24.618   6.825
 5585POPC   C4A71946  43.977  24.396   7.183
 5585POPC   C1B71947  43.732  24.256   6.077
 5585POPC   C2B71948  43.774  24.404   6.497
 5585POPC   C3B71949  43.546  24.494   6.907
 5585POPC   C4B71950  43.486  24.209   7.278
 5586POPC   NC371951   1.993  12.398   5.713
 5586POPC   PO471952   2.163  11.936   5.213
 5586POPC   GL171953   2.008  11.892   5.655
 5586POPC   GL271954   2.252  11.978   5.912
 5586POPC   C1A71955   1.755  11.953   6.075
 5586POPC   D2A71956   1.755  11.934   6.548
 5586POPC   C3A71957   1.869  12.147   6.986
 5586POPC   C4A71958   1.968  12.204   7.456
 5586POPC   C1B71959   2.171  12.150   6.327
 5586POPC   C2B71960   2.289  12.271   6.737
 5586POPC   C3B71961   2.289  12.478   7.130
 5586POPC   C4B71962   2.338  12.581   7.562
 5587POPC   NC371963   4.217  22.961   5.332
 5587POPC   PO471964   4.743  23.294   5.670
 5587POPC   GL171965   4.562  22.950   5.857
 5587POPC   GL271966   4.246  22.821   5.802
 5587POPC   C1A71967   4.619  22.922   6.293
 5587POPC   D2A71968   4.703  22.941   6.725
 5587POPC   C3A71969   4.351  23.068   7.009
 5587POPC   C4A71970   4.380  23.093   7.469
 5587POPC   C1B71971   4.205  22.642   6.184
 5587POPC   C2B71972   4.142  22.831   6.549
 5587POPC   C3B71973   4.180  22.601   6.883
 5587POPC   C4B71974   4.184  22.664   7.286
 5588POPC   NC371975  33.095  35.999   5.343
 5588POPC   PO471976  32.810  36.550   5.450
 5588POPC   GL171977  32.986  36.278   5.831
 5588POPC   GL271978  32.927  35.903   5.840
 5588POPC   C1A71979  32.825  36.171   6.299
 5588POPC   D2A71980  32.895  36.177   6.808
 5588POPC   C3A71981  33.349  36.265   7.020
 5588POPC   C4A71982  33.414  36.443   7.507
 5588POPC   C1B71983  33.155  35.702   6.180
 5588POPC   C2B71984  33.298  35.566   6.624
 5588POPC   C3B71985  33.095  35.699   7.051
 5588POPC   C4B71986  32.662  35.858   7.223
 5589POPC   NC371987  29.725  36.662   5.569
 5589POPC   PO471988  30.395  36.628   5.498
 5589POPC   GL171989  30.119  36.677   5.870
 5589POPC   GL271990  30.044  37.044   5.893
 5589POPC   C1A71991  29.924  36.763   6.297
 5589POPC   D2A71992  29.742  36.740   6.710
 5589POPC   C3A71993  30.043  36.764   7.012
 5589POPC   C4A71994  30.019  37.171   7.140
 5589POPC   C1B71995  29.705  37.206   6.124
 5589POPC   C2B71996  29.500  37.149   6.518
 5589POPC   C3B71997  29.509  37.238   6.929
 5589POPC   C4B71998  29.593  37.382   7.316
 5590POPC   NC371999  13.859   9.900   5.416
 5590POPC   PO472000  13.214  10.055   5.312
 5590POPC   GL172001  13.530  10.042   5.759
 5590POPC   GL272002  13.723   9.688   5.883
 5590POPC   C1A72003  13.849  10.074   6.161
 5590POPC   D2A72004  13.978   9.804   6.545
 5590POPC   C3A72005  13.970   9.977   6.943
 5590POPC   C4A72006  13.662   9.841   7.231
 5590POPC   C1B72007  13.870   9.369   6.215
 5590POPC   C2B72008  14.041   9.291   6.661
 5590POPC   C3B72009  13.986   9.455   7.110
 5590POPC   C4B72010  13.992   9.607   7.560
 5591POPC   NC372011  11.257  10.281   5.244
 5591POPC   PO472012  11.585  10.869   5.411
 5591POPC   GL172013  11.483  10.488   5.689
 5591POPC   GL272014  11.221  10.635   5.922
 5591POPC   C1A72015  11.456  10.268   6.146
 5591POPC   D2A72016  11.252  10.549   6.493
 5591POPC   C3A72017  11.219  10.356   6.912
 5591POPC   C4A72018  11.412  10.086   7.234
 5591POPC   C1B72019  11.389  10.978   6.184
 5591POPC   C2B72020  11.371  11.146   6.584
 5591POPC   C3B72021  11.344  10.873   6.945
 5591POPC   C4B72022  11.309  10.623   7.345
 5592W        W72023  26.568  17.865   2.168
 5593W        W72024  37.362  25.428  11.078
 5594W        W72025  12.024  33.686   4.595
 5595W        W72026  28.332  36.936  13.840
 5596W        W72027  18.761   3.030  14.856
 5597W        W72028  19.281  41.903  14.501
 5598W        W72029  16.094  14.752  13.347
 5599W        W72030  44.574  42.348   3.431
 5600W        W72031   6.153   6.259  11.603
 5601W        W72032  41.621   0.130   2.818
 5602W        W72033  10.033  30.881  12.339
 5603W        W72034  30.293  12.548  12.385
 5604W        W72035  18.578  10.379   2.892
 5605W        W72036  16.136  15.868  13.028
 5606W        W72037  11.256  14.402  14.502
 5607W        W72038  32.961  35.464  13.443
 5608W        W72039  24.620  13.692   2.561
 5609W        W72040  39.569  34.930   2.659
 5610W        W72041   7.359  11.613   1.207
 5611W        W72042   4.469   6.478   4.183
 5612W        W72043  24.196  30.424  14.863
 5613W        W72044  44.974   5.355  14.817
 5614W        W72045  16.824  30.445  13.034
 5615W        W72046  36.437  15.113   1.249
 5616W        W72047  23.887  20.090   0.738
 5617W        W72048  42.750  42.306   0.250
 5618W        W72049   0.026  40.822  12.975
 5619W        W72050  13.359  14.117   4.604
 5620W        W72051  31.072  29.384   0.365
 5621W        W72052  23.112  41.566   1.929
 5622W        W72053  19.150  35.749   3.746
 5623W        W72054  22.022  24.729   1.361
 5624W        W72055   5.863  29.927  11.904
 5625W        W72056   1.522  18.819   3.481
 5626W        W72057  37.797  35.459   4.433
 5627W        W72058   7.805  41.524  14.359
 5628W        W72059  17.341  22.900  13.391
 5629W        W72060  17.245  16.685  10.264
 5630W        W72061  40.429  18.307   3.175
 5631W        W72062  41.260  27.279  13.380
 5632W        W72063  38.464  11.673  14.053
 5633W        W72064   5.785  23.560  12.188
 5634W        W72065  43.435   6.315   2.835
 5635W        W72066   6.441   0.673   1.826
 5636W        W72067  29.471  39.543  14.555
 5637W        W72068  20.355  31.602  14.376
 5638W        W72069   2.386  27.578  10.503
 5639W        W72070  20.258   2.862   3.349
 5640W        W72071  27.308   7.373   1.945
 5641W        W72072  26.951   2.300   1.768
 5642W        W72073  36.891  14.614   3.151
 5643W        W72074  21.151  25.555   2.372
 5644W        W72075   7.204  13.397   0.465
 5645W        W72076  40.404  13.377  14.035
 5646W        W72077  23.440  17.702   1.846
 5647W        W72078   1.795  35.991   4.259
 5648W        W72079  14.173  33.482   0.219
 5649W        W72080  18.292   8.719  14.142
 5650W        W72081  19.003  22.263  10.678
 5651W        W72082   9.270   9.116   4.644
 5652W        W72083  24.181  21.505  10.640
 5653W        W72084  13.181   6.756   1.665
 5654W        W72085  21.172  41.579   4.290
 5655W        W72086   0.968  12.585   0.303
 5656W        W72087  43.710  28.542  14.369
 5657W        W72088  32.178   9.427   3.675
 5658W        W72089  29.078   8.993  13.009
 5659W        W72090  13.164  17.212   5.180
 5660W        W72091  40.653  39.461   3.581
 5661W        W72092   0.380  20.329  12.027
 5662W        W72093   7.905   6.914   4.313
 5663W        W72094   0.558  29.591   0.669
 5664W        W72095   0.747  16.794   0.299
 5665W        W72096  41.865  25.907  12.965
 5666W        W72097  11.119   3.269   3.278
 5667W        W72098  35.596  12.175  12.076
 5668W        W72099   2.279  41.466  12.709
 5669W        W72100   2.144  19.173  11.199
 5670W        W72101  16.559  32.190  14.421
 5671W        W72102  42.944  43.268  13.495
 5672W        W72103  30.512  37.808   4.404
 5673W        W72104  15.939  29.488  12.978
 5674W        W72105  18.144  18.632  13.647
 5675W        W72106  13.642  36.319  12.358
 5676W        W72107   4.292   1.475  12.941
 5677W        W72108  33.908   3.755   1.817
 5678W        W72109  30.854  24.806  12.911
 5679W        W72110   6.278   2.916  11.247
 5680W        W72111  31.403  34.964  10.747
 5681W        W72112   2.204   3.035   3.232
 5682W        W72113  15.775  43.969  12.390
 5683W        W72114  30.170  29.499  13.932
 5684W        W72115  34.819  41.181   4.493
 5685W        W72116  21.225  12.199  11.422
 5686W        W72117  35.112   2.359   1.149
 5687W        W72118   1.523  28.100  14.033
 5688W        W72119  23.279  17.752  11.128
 5689W        W72120  29.106   1.231  12.053
 5690W        W72121  12.238  11.093  13.385
 5691W        W72122  18.979   4.413  12.063
 5692W        W72123  31.592  34.950  12.135
 5693W        W72124  29.054  33.386  12.039
 5694W        W72125  28.886  23.362   1.333
 5695W        W72126  17.755   4.498   1.632
 5696W        W72127  38.354  18.988  12.462
 5697W        W72128  19.836  32.999   1.730
 5698W        W72129  19.086  14.642   3.846
 5699W        W72130  13.671  42.950  14.191
 5700W        W72131   9.192   1.509  14.139
 5701W        W72132  37.999   1.364  13.036
 5702W        W72133  33.314  35.881   4.760
 5703W        W72134  31.070   3.127   1.117
 5704W        W72135  29.012  26.037  13.262
 5705W        W72136  42.435  17.098   2.600
 5706W        W72137   9.283  11.833   0.319
 5707W        W72138  13.007  14.747  12.895
 5708W        W72139   9.988   7.370  12.960
 5709W        W72140  43.952  33.822  11.963
 5710W        W72141  38.838  23.628  13.539
 5711W        W72142  37.930  26.723  10.961
 5712W        W72143  38.306  21.813  13.349
 5713W        W72144  21.149  34.136  12.365
 5714W        W72145  37.552  35.825   5.142
 5715W        W72146   1.844  40.653   2.697
 5716W        W72147  21.811  13.820   4.656
 5717W        W72148  34.315  30.012   2.938
 5718W        W72149  24.963  43.717   2.835
 5719W        W72150  10.235  26.536  14.009
 5720W        W72151  35.562  19.308  13.864
 5721W        W72152  41.679  18.495   4.898
 5722W        W72153  22.662  33.347  14.825
 5723W        W72154  22.330  43.873   4.440
 5724W        W72155  38.077  32.388  11.178
 5725W        W72156   2.724  19.198  12.539
 5726W        W72157  40.505  16.848  13.767
 5727W        W72158   1.650  24.691  12.931
 5728W        W72159  15.970   3.029  14.067
 5729W        W72160   3.431  17.141  11.414
 5730W        W72161  22.736  33.064   3.112
 5731W        W72162   6.019   8.797  12.596
 5732W        W72163   2.726  24.097   0.277
 5733W        W72164   5.215  18.699   0.173
 5734W        W72165  38.484  37.785   4.381
 5735W        W72166   6.253  25.982  10.549
 5736W        W72167  36.055  10.076   3.507
 5737W        W72168  26.700  36.964  11.450
 5738W        W72169  40.123  36.963  10.853
 5739W        W72170   2.051   3.300   1.436
 5740W        W72171  10.167  12.639   2.869
 5741W        W72172  12.336  14.240   0.373
 5742W        W72173  32.434  37.111  12.497
 5743W        W72174   1.105  24.978   2.334
 5744W        W72175   4.823  26.468  12.575
 5745W        W72176  12.235  42.884   3.253
 5746W        W72177  10.803  22.584   1.330
 5747W        W72178  37.063  39.266   0.780
 5748W        W72179  43.276  44.279   2.418
 5749W        W72180   0.417   9.854   4.301
 5750W        W72181   8.377   8.183   0.972
 5751W        W72182  17.625  26.373   1.340
 5752W        W72183  35.936  42.354   1.312
 5753W        W72184  18.218  43.802  11.330
 5754W        W72185  32.381  26.096   4.333
 5755W        W72186  39.938  27.471   1.161
 5756W        W72187   8.393  21.108   2.356
 5757W        W72188  21.928  30.473   3.689
 5758W        W72189  42.969   6.519  11.127
 5759W        W72190  41.195  34.962   4.093
 5760W        W72191  11.750  26.935   4.622
 5761W        W72192  32.006   5.273   9.587
 5762W        W72193  37.192  42.419  12.110
 5763W        W72194  37.681  12.669  13.473
 5764W        W72195   7.509  42.727   1.927
 5765W        W72196  10.799  16.609  14.717
 5766W        W72197  18.039   0.839  14.362
 5767W        W72198  44.584  44.708  11.122
 5768W        W72199  44.824  21.259  11.586
 5769W        W72200  10.094  29.116   2.245
 5770W        W72201  31.557   1.434  13.434
 5771W        W72202  42.856  44.028   5.116
 5772W        W72203  24.348  42.326   5.136
 5773W        W72204  15.548  28.655  10.653
 5774W        W72205  36.815   2.802   0.393
 5775W        W72206  17.570   9.665  13.961
 5776W        W72207  26.501  26.275   3.584
 5777W        W72208  11.281   3.633   3.610
 5778W        W72209   9.429  32.966   1.226
 5779W        W72210  44.167  21.821   0.557
 5780W        W72211   3.549  21.051  12.436
 5781W        W72212  25.714  30.715  13.913
 5782W        W72213  41.376  27.210   0.738
 5783W        W72214  17.666   3.804  10.977
 5784W        W72215  44.772  38.518  14.779
 5785W        W72216  10.727  38.323   0.830
 5786W        W72217  17.903  10.133   2.341
 5787W        W72218  35.422  25.008  12.461
 5788W        W72219  44.014   8.762   4.143
 5789W        W72220  24.522  34.039  11.990
 5790W        W72221  40.416  17.780  11.037
 5791W        W72222  33.050  30.501   1.336
 5792W        W72223  15.038   3.319  11.249
 5793W        W72224  43.840  37.017  12.890
 5794W        W72225  31.121  35.796  14.947
 5795W        W72226  44.498   4.482  13.833
 5796W        W72227   6.506  40.992   0.436
 5797W        W72228  22.167  43.667  14.689
 5798W        W72229   8.165  44.422   3.430
 5799W        W72230  11.656  38.005  14.335
 5800W        W72231  40.134  16.665  11.987
 5801W        W72232  10.233  30.114  14.630
 5802W        W72233   6.156   8.159   3.745
 5803W        W72234   8.425  42.819  11.573
 5804W        W72235  26.092  24.248   4.642
 5805W        W72236  44.328  23.644  13.066
 5806W        W72237   0.909   4.275  14.257
 5807W        W72238  24.190  11.545   2.951
 5808W        W72239   7.457  37.918   2.461
 5809W        W72240  27.878   8.936  12.373
 5810W        W72241   1.190   3.931   2.962
 5811W        W72242  11.086   2.892  14.111
 5812W        W72243  28.181   9.682   2.099
 5813W        W72244  31.395  14.244   1.940
 5814W        W72245   3.445  27.732  10.629
 5815W        W72246  15.444  20.198  13.250
 5816W        W72247  36.864  14.322  10.983
 5817W        W72248   9.584  20.708  12.990
 5818W        W72249  32.125  44.402  14.367
 5819W        W72250   6.403   8.371   4.153
 5820W        W72251  22.470   9.494  12.106
 5821W        W72252  38.268  19.560   2.249
 5822W        W72253  22.755  12.774  13.892
 5823W        W72254  12.953  31.127  11.052
 5824W        W72255  11.115  40.462   3.799
 5825W        W72256   4.491  31.413   4.231
 5826W        W72257  26.015   2.389  14.040
 5827W        W72258   2.359  42.829  14.496
 5828W        W72259  19.957  28.872  10.627
 5829W        W72260  12.830  12.814  12.835
 5830W        W72261  32.849  41.547   1.911
 5831W        W72262  17.066  34.657  14.365
 5832W        W72263   8.796  20.247   4.193
 5833W        W72264  35.097  12.169  11.137
 5834W        W72265  27.643  32.709   0.772
 5835W        W72266  24.052  43.246   3.920
 5836W        W72267   4.080   9.407   2.821
 5837W        W72268  22.134  39.093   0.716
 5838W        W72269  10.925  35.815   1.982
 5839W        W72270  40.546  31.306   5.061
 5840W        W72271  20.505   8.545  10.594
 5841W        W72272  13.036   3.647   9.880
 5842W        W72273  31.379  27.022  11.235
 5843W        W72274  17.223   6.339   1.165
 5844W        W72275   6.412   7.773   4.870
 5845W        W72276  31.033  41.790  10.839
 5846W        W72277  14.216  27.743   5.101
 5847W        W72278  12.775  11.606  12.047
 5848W        W72279  38.928  35.936   2.105
 5849W        W72280  27.524   1.157  11.453
 5850W        W72281  18.775  20.132   0.896
 5851W        W72282  29.373   6.648  13.037
 5852W        W72283  31.504   5.304   5.450
 5853W        W72284  23.012  23.601   4.597
 5854W        W72285  31.600  29.101  13.954
 5855W        W72286   5.547  43.382  12.577
 5856W        W72287   1.852  42.318   2.218
 5857W        W72288   7.135  35.122   3.797
 5858W        W72289  36.360  39.268  12.027
 5859W        W72290   0.553   3.701  10.690
 5860W        W72291  21.541  42.090  11.799
 5861W        W72292  31.064  44.865  13.357
 5862W        W72293  30.147  27.580  12.946
 5863W        W72294  33.795  18.596   1.322
 5864W        W72295  32.237  16.145  12.433
 5865W        W72296  29.133  13.175   1.259
 5866W        W72297  33.544   1.211   1.122
 5867W        W72298  34.415  17.075  10.695
 5868W        W72299   8.149   4.964  10.687
 5869W        W72300  43.175   0.454  14.904
 5870W        W72301   3.552  28.774   4.025
 5871W        W72302  32.353  10.480   1.262
 5872W        W72303  16.778  35.144  14.603
 5873W        W72304  36.281  42.033  10.577
 5874W        W72305  26.076  14.249   4.121
 5875W        W72306  42.829   0.360  10.619
 5876W        W72307  19.704   0.043   4.064
 5877W        W72308  14.637   2.351   4.168
 5878W        W72309  35.980  36.808  13.538
 5879W        W72310  44.888  20.738  11.624
 5880W        W72311  36.351  34.916  13.528
 5881W        W72312  11.506  15.065   0.620
 5882W        W72313   7.354  14.277   5.059
 5883W        W72314  16.837  43.639  11.291
 5884W        W72315  44.116  38.440  13.949
 5885W        W72316  14.126  13.289  14.829
 5886W        W72317  27.784  30.202  11.763
 5887W        W72318  40.315   1.933  11.776
 5888W        W72319  29.421  19.760   4.579
 5889W        W72320  19.683  15.769   4.496
 5890W        W72321  25.829  13.156   1.834
 5891W        W72322  17.766  12.140  11.809
 5892W        W72323  19.553  42.328  14.379
 5893W        W72324  25.034  39.945  12.499
 5894W        W72325   5.043  42.364  12.126
 5895W        W72326   7.906  28.245  11.514
 5896W        W72327   0.784  25.961   3.663
 5897W        W72328  28.478  27.690   1.314
 5898W        W72329  26.244  11.756   2.823
 5899W        W72330  14.741  21.297  12.658
 5900W        W72331  18.108   3.976   0.841
 5901W        W72332   8.329  20.598   1.371
 5902W        W72333  42.077  17.981  12.894
 5903W        W72334   6.592   5.315  12.103
 5904W        W72335  40.338  20.212   1.381
 5905W        W72336  18.578  18.319  12.473
 5906W        W72337  39.548  23.942  13.974
 5907W        W72338  17.075  31.688  11.255
 5908W        W72339  41.072  21.718   1.790
 5909W        W72340  36.247  22.159  11.173
 5910W        W72341  18.330   0.384  11.001
 5911W        W72342   0.697  18.385  11.155
 5912W        W72343  19.285  22.101  11.070
 5913W        W72344  25.686  39.442  13.621
 5914W        W72345  33.653  30.065   4.470
 5915W        W72346  44.456  30.961   3.036
 5916W        W72347  35.391  29.924  10.310
 5917W        W72348   6.425  28.972   1.771
 5918W        W72349   4.057  30.435   4.983
 5919W        W72350  15.987  29.106  12.472
 5920W        W72351  17.509   4.313  12.573
 5921W        W72352  16.536  29.245  13.039
 5922W        W72353  35.023  39.514   2.733
 5923W        W72354  15.071  42.832  14.904
 5924W        W72355  26.615  40.122   3.529
 5925W        W72356  15.942   2.846  10.212
 5926W        W72357  22.810  38.682   3.666
 5927W        W72358  34.032  13.853  13.405
 5928W        W72359  27.164  44.387  14.902
 5929W        W72360  11.778  12.616  13.960
 5930W        W72361  22.037  19.192   2.127
 5931W        W72362   2.807  21.756  12.567
 5932W        W72363  27.442   4.939   1.680
 5933W        W72364   6.490  16.220  10.935
 5934W        W72365  10.638   3.791   0.282
 5935W        W72366   8.414  10.940   3.705
 5936W        W72367  24.275  28.105  14.344
 5937W        W72368  30.582  24.337  12.615
 5938W        W72369   0.746   7.922   0.780
 5939W        W72370  27.376  39.277  14.465
 5940W        W72371   2.488  14.155  13.338
 5941W        W72372  23.552  33.138  11.074
 5942W        W72373  33.631  32.341   0.395
 5943W        W72374  17.625   0.524   4.733
 5944W        W72375  12.158  10.714   4.033
 5945W        W72376  11.276  24.577  13.048
 5946W        W72377  34.495  33.654  12.555
 5947W        W72378   7.373  20.380   1.086
 5948W        W72379  43.345  18.219  11.107
 5949W        W72380  27.004  32.916   2.651
 5950W        W72381  29.559  42.940  12.420
 5951W        W72382  11.868  12.682  11.300
 5952W        W72383   3.685   2.265   2.830
 5953W        W72384   0.912   5.613  14.391
 5954W        W72385  20.658  10.651   1.850
 5955W        W72386  32.623  26.483  13.909
 5956W        W72387  25.747  10.363  11.621
 5957W        W72388  34.433  29.987   0.522
 5958W        W72389  29.904  18.799  11.271
 5959W        W72390  11.783   0.057  12.069
 5960W        W72391  39.697  42.832   3.520
 5961W        W72392   9.979  22.147  11.315
 5962W        W72393  23.461  38.885  12.676
 5963W        W72394  37.240  16.237  14.186
 5964W        W72395  36.911   3.198   1.439
 5965W        W72396  41.275   0.833   4.580
 5966W        W72397   8.500  21.707  10.321
 5967W        W72398   5.950  15.080  13.202
 5968W        W72399  31.509   2.747  13.840
 5969W        W72400   4.823   4.750   1.614
 5970W        W72401  31.527  27.929   0.406
 5971W        W72402  43.873  41.404  12.799
 5972W        W72403   3.034  16.745  10.431
 5973W        W72404  35.675  35.100   4.577
 5974W        W72405  29.303   6.643  11.001
 5975W        W72406  41.009  28.105  11.572
 5976W        W72407  19.511  40.301  14.876
 5977W        W72408  42.357  41.095  14.104
 5978W        W72409  27.310  12.719   0.342
 5979W        W72410  12.019  37.163  13.452
 5980W        W72411  37.049  18.309  12.874
 5981W        W72412  39.913   0.967   3.896
 5982W        W72413   3.200  10.257   4.648
 5983W        W72414   3.690  18.577   4.250
 5984W        W72415  34.624  23.985   3.733
 5985W        W72416  25.022  31.538   1.332
 5986W        W72417  16.954  40.326  11.878
 5987W        W72418  12.643  21.997   4.018
 5988W        W72419   3.383  43.479  11.691
 5989W        W72420  36.960  12.700  12.073
 5990W        W72421  21.979  30.828  10.253
 5991W        W72422  10.685  23.451  13.359
 5992W        W72423   8.086  21.633   3.590
 5993W        W72424  12.405  38.008   2.263
 5994W        W72425  37.301   9.810  13.332
 5995W        W72426  41.447  40.684  14.611
 5996W        W72427  14.692  44.466  10.331
 5997W        W72428  26.456  44.682  11.717
 5998W        W72429   7.569  28.916   3.189
 5999W        W72430   6.771  10.159  14.484
 6000W        W72431  31.276  39.235  13.720
 6001W        W72432  35.841  40.374   0.000
 6002W        W72433  13.840  30.961  10.931
 6003W        W72434  28.969   3.786   5.560
 6004W        W72435  25.579  28.986   4.603
 6005W        W72436  40.507  13.259   1.550
 6006W        W72437  35.542  15.678  11.628
 6007W        W72438  33.094  26.129   2.106
 6008W        W72439  44.523  18.721   1.392
 6009W        W72440  41.091  22.203   2.580
 6010W        W72441  38.194  15.778   0.876
 6011W        W72442  31.737  31.569  13.216
 6012W        W72443  28.075   2.645   3.729
 6013W        W72444  30.092  40.295  11.261
 6014W        W72445  15.395  37.053  11.116
 6015W        W72446  13.401  22.280   0.757
 6016W        W72447  25.438  38.581   4.325
 6017W        W72448  14.781   1.441   3.515
 6018W        W72449  39.410  29.159  10.407
 6019W        W72450  40.319  41.325   1.843
 6020W        W72451  43.915  40.507  12.557
 6021W        W72452  21.596  30.950   3.137
 6022W        W72453  14.705  31.122   0.080
 6023W        W72454   1.695  42.844   4.481
 6024W        W72455  19.044  16.158   3.229
 6025W        W72456  21.633  25.790  10.824
 6026W        W72457   1.302  22.565   0.439
 6027W        W72458  33.101  12.760  14.473
 6028W        W72459   6.644  20.523  13.006
 6029W        W72460  28.519  28.627  11.950
 6030W        W72461  35.972  26.034  14.872
 6031W        W72462  23.054  40.265   0.810
 6032W        W72463  15.014  42.129  14.373
 6033W        W72464  40.799  37.589   3.254
 6034W        W72465  30.757  15.705  12.479
 6035W        W72466  33.296  37.777   3.482
 6036W        W72467  17.513  28.529   3.918
 6037W        W72468  30.872  25.172   2.873
 6038W        W72469  30.025   7.418   2.261
 6039W        W72470  12.656  18.291  14.504
 6040W        W72471  33.087  38.638   0.467
 6041W        W72472  20.264  22.308   1.251
 6042W        W72473   2.922  38.964   1.797
 6043W        W72474  44.070  32.077  10.080
 6044W        W72475  26.420  30.159  13.376
 6045W        W72476  10.419  44.866   1.943
 6046W        W72477  33.388   5.453   2.912
 6047W        W72478   7.772  12.570   5.120
 6048W        W72479   2.042  10.092  13.309
 6049W        W72480   4.249  12.640  12.434
 6050W        W72481  13.231  19.770   2.645
 6051W        W72482  30.805   1.474  13.973
 6052W        W72483  39.765  25.719   4.219
 6053W        W72484  22.555   3.841   2.142
 6054W        W72485  41.880   5.790  14.173
 6055W        W72486   4.712  16.453   0.014
 6056W        W72487  44.601  16.717  14.831
 6057W        W72488  26.323   5.771  13.369
 6058W        W72489  21.338  20.853   0.606
 6059W        W72490   2.911  23.096   0.908
 6060W        W72491  30.384   1.796   4.613
 6061W        W72492   6.912  42.970   2.733
 6062W        W72493  42.356  19.715   1.058
 6063W        W72494  44.617  19.231  10.713
 6064W        W72495  29.026  27.178  12.754
 6065W        W72496   5.155  39.829  11.214
 6066W        W72497  18.197   6.284  10.717
 6067W        W72498  40.814  29.361  14.068
 6068W        W72499   6.735  36.049   4.722
 6069W        W72500   1.944  36.247   1.272
 6070W        W72501   8.800   6.995   2.901
 6071W        W72502  38.297  37.507   2.643
 6072W        W72503  17.529   3.823  12.699
 6073W        W72504  15.072  39.403  14.440
 6074W        W72505  11.420  41.835   4.110
 6075W        W72506  29.314  40.522  14.895
 6076W        W72507  36.421   5.671  12.427
 6077W        W72508  20.270  12.819  14.950
 6078W        W72509  12.268  29.406  11.638
 6079W        W72510  37.882  23.187   3.332
 6080W        W72511   1.403  24.462  10.721
 6081W        W72512  10.641  29.690   2.788
 6082W        W72513   2.438  44.585  14.364
 6083W        W72514   0.465  26.170  12.234
 6084W        W72515  22.975  24.720  12.653
 6085W        W72516   5.714  35.134   1.418
 6086W        W72517  40.275  23.827  14.519
 6087W        W72518  14.800  15.081   1.846
 6088W        W72519  14.593   8.509   2.274
 6089W        W72520  27.568  32.563  12.625
 6090W        W72521   1.279   5.873   4.505
 6091W        W72522   4.322  16.349   3.626
 6092W        W72523  10.016   9.619  10.700
 6093W        W72524  21.894  29.971   2.826
 6094W        W72525  34.829  42.983  12.843
 6095W        W72526  31.994  16.080   3.776
 6096W        W72527  40.869  11.383   0.362
 6097W        W72528  12.116  27.952  12.135
 6098W        W72529   2.016  34.055   4.164
 6099W        W72530  21.760   6.374   1.778
 6100W        W72531  33.495  33.103   3.229
 6101W        W72532  28.868  42.903   2.270
 6102W        W72533   6.929  21.703  11.607
 6103W        W72534  41.335   5.973   3.640
 6104W        W72535  44.026   0.871   3.872
 6105W        W72536  29.414   6.183  10.739
 6106W        W72537  39.437   4.409   0.371
 6107W        W72538   1.347  39.322   3.076
 6108W        W72539   8.922  26.657   0.879
 6109W        W72540  40.988  16.638  13.849
 6110W        W72541  35.912  23.182  13.515
 6111W        W72542  25.615  14.497   3.586
 6112W        W72543  22.572   4.875   4.181
 6113W        W72544   1.731  43.686   1.223
 6114W        W72545  24.799  18.150  14.437
 6115W        W72546   9.440   1.841   3.129
 6116W        W72547   8.186  23.949  12.028
 6117W        W72548  10.307   4.805  13.608
 6118W        W72549  43.264  28.046   1.852
 6119W        W72550  16.070  33.544   4.011
 6120W        W72551  19.012  34.379  13.959
 6121W        W72552  39.759  35.910  13.173
 6122W        W72553  42.306  43.545  13.419
 6123W        W72554  41.280  14.109  14.961
 6124W        W72555  16.054  42.865   4.646
 6125W        W72556   3.167   8.464  13.983
 6126W        W72557   0.197  39.168  12.361
 6127W        W72558  35.906  35.685  14.694
 6128W        W72559  34.187   2.178   0.969
 6129W        W72560  25.143  18.770  13.545
 6130W        W72561  10.266  37.918  11.757
 6131W        W72562  44.363  41.468   4.572
 6132W        W72563  28.492  10.912  12.386
 6133W        W72564  18.012  43.573   4.722
 6134W        W72565  15.641   9.792   0.906
 6135W        W72566   5.839  34.828   4.232
 6136W        W72567   2.803  29.606  13.478
 6137W        W72568  32.138  15.834   0.771
 6138W        W72569  28.069  13.589  11.458
 6139W        W72570  12.302  24.152  10.978
 6140W        W72571  34.590  22.561  14.487
 6141W        W72572   2.768  34.325  14.004
 6142W        W72573   3.971  21.852   3.215
 6143W        W72574  40.858  15.447  13.238
 6144W        W72575  15.109  41.043   3.879
 6145W        W72576  26.041  36.602   0.025
 6146W        W72577  33.957   5.726  11.714
 6147W        W72578   2.835  11.807   4.740
 6148W        W72579  42.324  34.474   0.451
 6149W        W72580  28.986   8.184  11.580
 6150W        W72581   8.808  33.567  14.217
 6151W        W72582  26.429   9.739  11.708
 6152W        W72583  14.167   9.621   0.748
 6153W        W72584  22.870  11.472   0.351
 6154W        W72585   1.306  14.504  14.349
 6155W        W72586  24.934  31.552   2.289
 6156W        W72587  31.057  41.826  11.734
 6157W        W72588  37.623  28.321  13.486
 6158W        W72589  31.036   4.977   5.320
 6159W        W72590  26.981  15.727   4.366
 6160W        W72591  11.585  44.028  12.119
 6161W        W72592  31.596  42.346   1.895
 6162W        W72593  12.824  31.865  13.435
 6163W        W72594  27.548  17.342  10.511
 6164W        W72595  14.100  44.875   0.448
 6165W        W72596  23.452  29.155   4.531
 6166W        W72597  27.404  33.174   0.747
 6167W        W72598  37.922  35.966   2.664
 6168W        W72599  42.938  41.908   2.186
 6169W        W72600  37.458  30.356  12.961
 6170W        W72601  38.523   8.667  10.975
 6171W        W72602   5.893   2.887   0.759
 6172W        W72603  40.342   3.535   1.408
 6173W        W72604  34.816   3.137  14.869
 6174W        W72605   8.912  29.007  12.055
 6175W        W72606  42.237  22.609  12.956
 6176W        W72607  23.936  13.809   3.745
 6177W        W72608  43.087   7.937   2.278
 6178W        W72609  27.109  12.660   1.630
 6179W        W72610  24.701  22.530  13.878
 6180W        W72611   1.377  21.548  14.251
 6181W        W72612  13.755  32.646   2.555
 6182W        W72613  32.878   0.758  13.923
 6183W        W72614  21.469  35.857   3.235
 6184W        W72615  36.313   8.180  12.399
 6185W        W72616  27.127  34.823   3.384
 6186W        W72617  38.469  23.990  13.140
 6187W        W72618  21.048  44.334  11.198
 6188W        W72619  44.414  19.530  10.341
 6189W        W72620  11.610   2.123   4.609
 6190W        W72621  42.324  30.618  13.400
 6191W        W72622  16.509   2.451  13.787
 6192W        W72623   0.381  37.351  14.983
 6193W        W72624  34.022  35.468   1.501
 6194W        W72625   6.963  31.423   4.584
 6195W        W72626  37.786  20.439  13.930
 6196W        W72627  42.439  37.179   4.427
 6197W        W72628   6.362  39.435   1.695
 6198W        W72629  39.986   5.003   2.622
 6199W        W72630  10.835   1.762  14.817
 6200W        W72631  35.240  31.043  12.133
 6201W        W72632  11.175   7.320   3.181
 6202W        W72633   0.202  34.452   3.867
 6203W        W72634   2.770  13.073   3.228
 6204W        W72635  30.401  18.722   1.429
 6205W        W72636  28.398   6.376   3.510
 6206W        W72637  29.412  10.636   2.776
 6207W        W72638  29.725  29.000  10.514
 6208W        W72639  43.889  23.929  13.819
 6209W        W72640  33.087  34.060   4.863
 6210W        W72641  40.289   0.467  14.638
 6211W        W72642  24.473  11.138   1.891
 6212W        W72643  42.562  40.631   3.601
 6213W        W72644  36.846   7.996  11.073
 6214W        W72645  42.436  27.448  14.831
 6215W        W72646  23.090  28.047  11.248
 6216W        W72647  10.205  34.489   1.069
 6217W        W72648  43.835   4.878   0.694
 6218W        W72649  35.101  18.432   1.839
 6219W        W72650  19.507  34.045   3.075
 6220W        W72651   2.159  11.330  11.123
 6221W        W72652  41.572  23.736   1.700
 6222W        W72653   6.037   3.317   5.040
 6223W        W72654  29.947  14.627  12.009
 6224W        W72655  25.968   8.247   2.348
 6225W        W72656   4.796  26.696   1.158
 6226W        W72657   1.745   4.797   4.857
 6227W        W72658   9.181   6.696   3.092
 6228W        W72659  15.835  29.280   5.163
 6229W        W72660  14.311   3.752  13.452
 6230W        W72661  21.029  42.466  12.519
 6231W        W72662  25.079  37.299   0.899
 6232W        W72663   8.114  42.817  13.299
 6233W        W72664  40.452  41.542  10.228
 6234W        W72665  17.886  26.496  11.568
 6235W        W72666  17.048  25.977  13.020
 6236W        W72667   5.831  31.908  11.641
 6237W        W72668  21.067  27.967  13.263
 6238W        W72669  39.463   1.900  11.860
 6239W        W72670  22.273  10.172  14.380
 6240W        W72671  25.682  21.209   1.896
 6241W        W72672  30.589  37.838   3.877
 6242W        W72673  38.006   9.656   2.289
 6243W        W72674   5.870  42.990   4.306
 6244W        W72675  42.595  27.492  13.417
 6245W        W72676  30.144  21.599  14.076
 6246W        W72677  10.254  40.009   0.722
 6247W        W72678   9.488  29.563   3.818
 6248W        W72679  23.503  43.351  12.896
 6249W        W72680  40.401  38.657   0.406
 6250W        W72681  35.018  20.103  14.928
 6251W        W72682  43.530  23.558  14.411
 6252W        W72683  35.470  23.396   1.770
 6253W        W72684  14.887  41.378   1.049
 6254W        W72685  29.035  38.552   3.832
 6255W        W72686  16.587  17.048  14.725
 6256W        W72687  43.284  44.983  13.073
 6257W        W72688   4.455   8.012  12.959
 6258W        W72689   5.409   6.818   3.211
 6259W        W72690   4.947  10.866   2.958
 6260W        W72691  21.689  32.968  10.661
 6261W        W72692  20.153  42.003   3.792
 6262W        W72693   6.934  15.421   5.325
 6263W        W72694  33.432  10.757   4.405
 6264W        W72695  43.373  26.897  13.349
 6265W        W72696  27.633  21.090  12.294
 6266W        W72697   0.671  39.877  12.048
 6267W        W72698  26.465  31.706   3.187
 6268W        W72699  19.071  41.447  13.026
 6269W        W72700   3.738   7.534   1.023
 6270W        W72701  21.135  41.943   1.366
 6271W        W72702  23.431  10.687  11.691
 6272W        W72703  33.075  31.162   1.823
 6273W        W72704  25.477  20.757   1.683
 6274W        W72705  44.457   4.471  12.944
 6275W        W72706  31.953  28.591  14.259
 6276W        W72707  11.287  38.050  12.882
 6277W        W72708  44.508   3.773  12.560
 6278W        W72709  14.807  23.545  14.313
 6279W        W72710   0.673   6.453   2.301
 6280W        W72711  21.862  20.175  11.740
 6281W        W72712  37.812  10.070  14.742
 6282W        W72713   3.272  27.234   1.972
 6283W        W72714  25.390  23.741   2.314
 6284W        W72715  29.682  23.057   4.157
 6285W        W72716  43.287  35.368   4.822
 6286W        W72717   8.626  30.026   1.332
 6287W        W72718  31.367  20.030   1.354
 6288W        W72719   2.682  33.037   0.725
 6289W        W72720  41.890   0.811  10.777
 6290W        W72721   0.143  35.677   2.075
 6291W        W72722  43.957   7.401   4.637
 6292W        W72723  21.855  34.318  11.579
 6293W        W72724  17.759  40.594   1.781
 6294W        W72725   2.411   1.939   4.679
 6295W        W72726  21.981  44.406   0.147
 6296W        W72727  42.734  33.441  14.060
 6297W        W72728  30.727  28.981  10.644
 6298W        W72729  44.275  28.104  12.906
 6299W        W72730  11.902  26.974   0.954
 6300W        W72731  20.054  37.171  12.117
 6301W        W72732   9.519  31.055  12.431
 6302W        W72733   5.768  30.728   4.209
 6303W        W72734  36.788  40.395  11.508
 6304W        W72735  22.712  34.933  10.648
 6305W        W72736  41.982  31.452   1.702
 6306W        W72737  17.781  33.079  14.026
 6307W        W72738   7.215  10.797  11.932
 6308W        W72739  33.084  10.204   2.570
 6309W        W72740  13.126  14.744  14.465
 6310W        W72741  14.668  22.357   1.261
 6311W        W72742  36.971   9.903   3.549
 6312W        W72743  10.613  44.762  11.724
 6313W        W72744  44.335  21.257   2.954
 6314W        W72745  43.350  37.760   0.743
 6315W        W72746  43.665  40.361  12.129
 6316W        W72747  36.484   5.829  10.769
 6317W        W72748  18.596  34.472   3.760
 6318W        W72749  10.708  35.207   2.759
 6319W        W72750  10.311   4.990   1.362
 6320W        W72751  21.100  22.977  14.007
 6321W        W72752  26.981   7.490  14.963
 6322W        W72753  32.524  44.456  11.210
 6323W        W72754   5.770  11.147  11.642
 6324W        W72755  16.482  32.583   0.994
 6325W        W72756   9.093  42.911  13.388
 6326W        W72757  40.007  40.123   4.989
 6327W        W72758  37.575  41.703   0.440
 6328W        W72759   8.809  23.263   4.493
 6329W        W72760   8.168  35.441  13.427
 6330W        W72761  28.526   6.837   2.776
 6331W        W72762  12.246   4.123   2.654
 6332W        W72763   0.809  42.799  13.953
 6333W        W72764   0.127  10.836   4.122
 6334W        W72765  15.947  37.384   4.931
 6335W        W72766   9.713  36.788   0.489
 6336W        W72767  16.215  34.620   0.323
 6337W        W72768  30.607  37.955  11.973
 6338W        W72769   4.628  12.956   4.481
 6339W        W72770  29.120   6.453  13.927
 6340W        W72771  38.080  14.813  13.462
 6341W        W72772  12.751  17.506  14.965
 6342W        W72773  13.652  41.120  12.414
 6343W        W72774   9.319  23.520   1.858
 6344W        W72775   6.865  34.710   0.833
 6345W        W72776   1.444  23.168  11.574
 6346W        W72777  31.197  42.903   4.875
 6347W        W72778  11.653  20.598  13.031
 6348W        W72779  19.975   3.783   2.599
 6349W        W72780   9.132  20.752  13.974
 6350W        W72781  16.179  15.125   1.387
 6351W        W72782   2.376  22.083  12.553
 6352W        W72783   7.333  29.583   2.085
 6353W        W72784  13.559  10.625   3.312
 6354W        W72785  37.944  36.373   3.017
 6355W        W72786   0.197   1.401   3.975
 6356W        W72787  14.561  42.719  14.836
 6357W        W72788   3.733  15.969   0.772
 6358W        W72789   9.250  26.065  13.621
 6359W        W72790  42.995   8.250  12.787
 6360W        W72791  40.827   6.907  13.055
 6361W        W72792  37.488  42.787   4.238
 6362W        W72793   6.460  22.566  10.970
 6363W        W72794   0.804   6.974   4.109
 6364W        W72795  14.143  21.027   0.430
 6365W        W72796  11.858  36.275  13.503
 6366W        W72797  28.097  22.507  12.007
 6367W        W72798  24.109  13.677   4.206
 6368W        W72799  18.646  28.852  11.211
 6369W        W72800   1.630  11.142   0.290
 6370W        W72801  29.428  29.908  12.541
 6371W        W72802  43.039   0.080   3.205
 6372W        W72803  27.591   5.495  12.594
 6373W        W72804  16.584   1.164   2.942
 6374W        W72805  31.136  40.427   0.434
 6375W        W72806  12.727  26.252   1.451
 6376W        W72807   1.335   5.047  10.759
 6377W        W72808   5.604  44.465   2.704
 6378W        W72809  21.996  22.166  12.047
 6379W        W72810  25.844  10.760   4.104
 6380W        W72811  28.456   3.817  10.064
 6381W        W72812  43.374  42.189   2.238
 6382W        W72813  29.811  12.523  12.127
 6383W        W72814  23.444  20.252   1.574
 6384W        W72815  27.186  21.370  10.511
 6385W        W72816  39.884  14.583  10.704
 6386W        W72817  31.467  31.464  12.654
 6387W        W72818  39.009  18.735   3.668
 6388W        W72819  31.889  29.555  13.504
 6389W        W72820   2.542  28.199   1.356
 6390W        W72821  41.947  44.136  14.717
 6391W        W72822  12.556  10.745   3.239
 6392W        W72823  10.410  18.073   0.393
 6393W        W72824  38.820  39.465  11.489
 6394W        W72825  34.405   8.744   5.068
 6395W        W72826  22.039  13.596  11.153
 6396W        W72827   0.455   7.890  12.484
 6397W        W72828  23.648   8.336  14.738
 6398W        W72829  12.611  10.441   0.595
 6399W        W72830  17.458   9.718   3.778
 6400W        W72831  11.936  21.031  13.022
 6401W        W72832   6.541   3.349  11.487
 6402W        W72833   7.990  39.358  14.830
 6403W        W72834  36.466  23.715  14.018
 6404W        W72835   2.959  31.636  10.693
 6405W        W72836  34.559   2.958   0.996
 6406W        W72837  25.600  43.668   4.551
 6407W        W72838   1.898  25.563  13.033
 6408W        W72839  22.562  44.371   0.825
 6409W        W72840  34.445  11.355  11.510
 6410W        W72841  39.122  36.878   2.665
 6411W        W72842  16.051  40.278  13.295
 6412W        W72843  39.451  22.570  13.943
 6413W        W72844  28.779  32.163  14.453
 6414W        W72845   0.911  26.787  10.745
 6415W        W72846  12.722  24.227   0.264
 6416W        W72847  32.190  17.658   1.324
 6417W        W72848  18.159  14.692  12.592
 6418W        W72849  41.978   1.774   0.425
 6419W        W72850   8.325   6.949  11.668
 6420W        W72851  23.948  12.608   3.079
 6421W        W72852   1.201   5.744  14.959
 6422W        W72853  10.665  25.490  12.369
 6423W        W72854   0.294   4.828   3.882
 6424W        W72855  18.043  17.143  10.171
 6425W        W72856  38.637  28.045  12.431
 6426W        W72857  34.035  10.920  13.524
 6427W        W72858  40.675  17.764   4.771
 6428W        W72859  18.544   9.568   4.538
 6429W        W72860  21.911   2.114  12.872
 6430W        W72861   8.405  37.480  12.058
 6431W        W72862  30.545  31.140   4.162
 6432W        W72863   8.440  36.941   1.176
 6433W        W72864  27.240  43.551  14.453
 6434W        W72865  24.636  12.780  14.143
 6435W        W72866  26.752   2.748  11.975
 6436W        W72867  18.253  12.947   2.860
 6437W        W72868  44.255  19.566   1.402
 6438W        W72869   7.728   9.716  11.172
 6439W        W72870  28.487  23.180   3.141
 6440W        W72871  43.420  27.663  13.851
 6441W        W72872  16.122  30.398  13.384
 6442W        W72873  44.087  42.973  12.167
 6443W        W72874  21.172  43.043  11.827
 6444W        W72875  42.355  39.841  11.196
 6445W        W72876  37.488  24.713   4.470
 6446W        W72877  32.008  18.680   1.460
 6447W        W72878   4.403  42.802   1.767
 6448W        W72879   9.959  12.173   1.759
 6449W        W72880  38.211  30.434   0.808
 6450W        W72881  24.348  21.635  11.083
 6451W        W72882  32.582  36.369  14.920
 6452W        W72883   5.337  15.656   1.249
 6453W        W72884  29.212  22.225   3.848
 6454W        W72885   5.090  12.630  13.970
 6455W        W72886  17.075   7.354   1.363
 6456W        W72887  25.091  29.120   1.267
 6457W        W72888  39.941  24.277   4.634
 6458W        W72889   8.607  21.711  13.930
 6459W        W72890  22.733  42.455  13.474
 6460W        W72891  20.835   9.057  12.068
 6461W        W72892  41.581   0.963   5.149
 6462W        W72893  26.273  15.617  12.518
 6463W        W72894   7.909  37.591   0.130
 6464W        W72895  44.748  27.898   3.691
 6465W        W72896  24.025   7.521  12.940
 6466W        W72897  23.480  10.218   0.441
 6467W        W72898   3.737  11.821   2.791
 6468W        W72899   8.230  22.350   3.671
 6469W        W72900   9.262  10.550  10.978
 6470W        W72901  35.372  10.781   1.803
 6471W        W72902   1.802  42.193   4.914
 6472W        W72903   3.670  26.545  13.323
 6473W        W72904  41.761  27.037   4.522
 6474W        W72905  37.092  30.838  12.569
 6475W        W72906  40.791   0.749   1.260
 6476W        W72907  33.591   0.890   4.680
 6477W        W72908  13.691  28.288  12.010
 6478W        W72909  11.363  28.583  12.473
 6479W        W72910  33.879  43.476  11.607
 6480W        W72911   7.234  19.733  14.505
 6481W        W72912  13.303   2.243   0.379
 6482W        W72913  23.293  15.159  14.962
 6483W        W72914   0.085   5.454   2.172
 6484W        W72915   1.994  17.653   1.081
 6485W        W72916  28.743  18.664   2.726
 6486W        W72917  11.565  35.001   2.549
 6487W        W72918  25.619  44.258   3.190
 6488W        W72919  32.529   2.284   3.456
 6489W        W72920  39.021  29.616  11.809
 6490W        W72921  37.539  17.144   4.032
 6491W        W72922   1.627  33.746  13.872
 6492W        W72923   8.202  20.158  11.380
 6493W        W72924  41.594  38.436   1.786
 6494W        W72925   0.866  27.209  11.608
 6495W        W72926  13.388  12.322  11.206
 6496W        W72927  19.203  39.064   0.372
 6497W        W72928  27.439  20.579   3.607
 6498W        W72929  13.950  16.838  13.467
 6499W        W72930  15.167  11.086  14.804
 6500W        W72931   7.148  33.966  13.993
 6501W        W72932   3.199  17.844  11.112
 6502W        W72933   9.179  11.355   2.820
 6503W        W72934  41.184   2.936   1.667
 6504W        W72935  36.873  43.036   1.750
 6505W        W72936  27.927   5.249   3.786
 6506W        W72937  15.738   8.171  12.521
 6507W        W72938   4.222  24.808   4.765
 6508W        W72939   8.968  44.453  12.489
 6509W        W72940  11.682  22.541   3.222
 6510W        W72941   8.115  20.968   2.828
 6511W        W72942  42.254   9.426   1.375
 6512W        W72943   6.906  33.099   3.399
 6513W        W72944  32.411  27.071  11.956
 6514W        W72945  31.369  41.265   4.151
 6515W        W72946   1.020  37.037  11.030
 6516W        W72947  22.581  35.355   1.905
 6517W        W72948  17.310  29.300  11.557
 6518W        W72949  15.908  34.212  13.501
 6519W        W72950  28.205  38.972  14.871
 6520W        W72951  37.513   3.913   1.141
 6521W        W72952  31.857   5.776   1.232
 6522W        W72953  12.043   2.219   3.699
 6523W        W72954   2.875  16.168   1.858
 6524W        W72955  33.021  31.744  12.553
 6525W        W72956  27.161  22.100   2.814
 6526W        W72957  38.024  32.965   4.365
 6527W        W72958  23.443   1.369   0.569
 6528W        W72959  12.301  29.492   2.697
 6529W        W72960  16.141   7.518  12.084
 6530W        W72961  43.413  16.768  12.661
 6531W        W72962  41.301  22.813   3.234
 6532W        W72963  21.142  10.673  14.861
 6533W        W72964  26.230  35.088  13.419
 6534W        W72965  24.152   2.559   2.749
 6535W        W72966  12.245  14.737   0.316
 6536W        W72967   4.726  16.248   9.861
 6537W        W72968  10.086  23.717   3.837
 6538W        W72969  36.626  28.135  14.756
 6539W        W72970  17.030  19.787   4.604
 6540W        W72971  20.544  19.419  10.219
 6541W        W72972  35.299  40.947  10.707
 6542W        W72973  33.849  17.492  13.003
 6543W        W72974  14.835  44.452  13.004
 6544W        W72975  43.842  19.764  10.663
 6545W        W72976  11.278  32.796  10.943
 6546W        W72977  20.559  21.251  14.132
 6547W        W72978   7.651  18.303   3.726
 6548W        W72979   1.553  36.905  11.051
 6549W        W72980  14.773   5.329   1.860
 6550W        W72981  36.231  21.740   0.757
 6551W        W72982   4.775   0.720  13.917
 6552W        W72983  25.390  38.182  14.479
 6553W        W72984  13.048  19.737  12.247
 6554W        W72985   5.078  35.029  14.116
 6555W        W72986  12.626   6.957   2.846
 6556W        W72987   0.989  29.668   0.369
 6557W        W72988  21.097  32.790   2.229
 6558W        W72989  24.066  29.476  12.026
 6559W        W72990   5.348  34.399  11.213
 6560W        W72991  10.330  25.210  13.579
 6561W        W72992  38.446   2.071  14.271
 6562W        W72993  37.838   6.946   3.148
 6563W        W72994  14.441   7.166   4.982
 6564W        W72995  38.599  44.326  12.416
 6565W        W72996  11.597  34.954   0.435
 6566W        W72997  43.146  25.161  13.733
 6567W        W72998  22.127  39.651   1.580
 6568W        W72999  27.582  43.765  12.034
 6569W        W73000  15.849  22.187   3.710
 6570W        W73001  16.117  26.589  11.632
 6571W        W73002  14.168   0.339   1.782
 6572W        W73003  23.670  28.892   4.126
 6573W        W73004  18.837   5.306  10.126
 6574W        W73005   5.427  20.020  13.387
 6575W        W73006  11.190  37.748  14.724
 6576W        W73007   5.502   0.292   1.226
 6577W        W73008  35.867  23.222   0.820
 6578W        W73009   2.822  26.108   1.107
 6579W        W73010   2.933  17.446  10.308
 6580W        W73011   5.396  39.934   0.204
 6581W        W73012  37.969  23.637   2.143
 6582W        W73013   4.745   9.895  14.458
 6583W        W73014  23.695  31.618   0.939
 6584W        W73015  19.711  43.226   1.291
 6585W        W73016  38.700  44.266   3.157
 6586W        W73017  43.860  44.345   0.427
 6587W        W73018  31.686  29.038  13.354
 6588W        W73019  11.562   0.498  13.916
 6589W        W73020  42.035  37.951   2.789
 6590W        W73021  14.614  35.365  13.372
 6591W        W73022  32.627  25.501   3.229
 6592W        W73023  40.674  11.555   2.206
 6593W        W73024   0.801  21.518   2.442
 6594W        W73025  37.329   6.204  12.495
 6595W        W73026   0.833   4.332   3.317
 6596W        W73027  24.624  38.400  11.902
 6597W        W73028  42.456   5.512  12.991
 6598W        W73029  28.895   8.224   3.302
 6599W        W73030  43.792   9.743   0.013
 6600W        W73031  18.270   9.138   3.908
 6601W        W73032  39.416  10.575   1.755
 6602W        W73033  33.981  17.854   0.971
 6603W        W73034   6.671  24.561   2.651
 6604W        W73035  16.734  16.118  10.667
 6605W        W73036  16.374  36.317   4.118
 6606W        W73037  32.925   6.896  13.919
 6607W        W73038  25.115   2.326   0.174
 6608W        W73039  16.236  26.239  11.023
 6609W        W73040  34.831   5.690   0.834
 6610W        W73041  13.377  32.439  13.795
 6611W        W73042   5.427  34.557   0.776
 6612W        W73043  10.855   8.454  14.417
 6613W        W73044  42.226  30.077  11.082
 6614W        W73045  16.305  42.708  11.892
 6615W        W73046  24.582   0.250   1.769
 6616W        W73047  37.749  11.119   3.327
 6617W        W73048  17.898   3.645   2.575
 6618W        W73049  37.142  42.423  14.574
 6619W        W73050   4.557   8.328   0.421
 6620W        W73051  32.832   9.363   1.888
 6621W        W73052   0.546  12.204   4.116
 6622W        W73053  15.672  32.024   1.634
 6623W        W73054  20.932  28.806  12.097
 6624W        W73055  18.566  20.750  12.639
 6625W        W73056  42.959   6.356   3.702
 6626W        W73057  44.328   8.765   1.116
 6627W        W73058   9.929  29.151   0.842
 6628W        W73059  42.796   8.286   3.794
 6629W        W73060  16.308  35.240   3.754
 6630W        W73061  35.794  13.844   4.071
 6631W        W73062  32.464   5.013  12.550
 6632W        W73063   3.941  23.923  11.439
 6633W        W73064  42.362  31.817   1.630
 6634W        W73065  20.338  20.179   3.682
 6635W        W73066  16.589  34.891  11.819
 6636W        W73067  30.537  38.440  11.708
 6637W        W73068  38.418  18.320   2.674
 6638W        W73069  30.984  11.194   1.189
 6639W        W73070  39.926  31.919  12.153
 6640W        W73071  37.106   9.013  14.324
 6641W        W73072  39.424  28.423  14.357
 6642W        W73073  16.572   1.472  13.810
 6643W        W73074  17.331   3.508  14.042
 6644W        W73075  21.514  16.990  12.581
 6645W        W73076  31.820  32.576   1.705
 6646W        W73077  37.239  29.986   3.619
 6647W        W73078  26.132  10.678  13.477
 6648W        W73079  39.749   2.300   3.311
 6649W        W73080  41.090  25.141   3.013
 6650W        W73081   0.978  43.504   3.266
 6651W        W73082  22.512  22.694   2.059
 6652W        W73083  44.539  18.367   4.657
 6653W        W73084  33.555   0.252   2.670
 6654W        W73085  43.530  38.389  13.130
 6655W        W73086  21.985  11.153  10.707
 6656W        W73087  34.519  29.500   0.770
 6657W        W73088  36.437   3.836  11.103
 6658W        W73089  43.986  37.809  12.546
 6659W        W73090   7.410   0.396  12.376
 6660W        W73091  12.107   6.035   2.057
 6661W        W73092  35.758  32.822   2.661
 6662W        W73093   4.715  32.447   3.242
 6663W        W73094  24.830   1.531  14.985
 6664W        W73095   2.339   8.791  11.599
 6665W        W73096   0.915  41.540   4.143
 6666W        W73097  11.649  16.230  13.126
 6667W        W73098  44.026  42.300   3.299
 6668W        W73099  22.194  32.976  10.843
 6669W        W73100  43.318  37.130   3.421
 6670W        W73101   1.224  33.061  13.618
 6671W        W73102  11.821   6.757  13.840
 6672W        W73103  28.640   5.849  13.114
 6673W        W73104  38.814   1.282  14.533
 6674W        W73105  21.583  36.439  10.223
 6675W        W73106  24.282  18.637   0.201
 6676W        W73107  13.241   6.650   1.185
 6677W        W73108  15.659  14.647   0.428
 6678W        W73109  37.084   6.905   1.517
 6679W        W73110  23.199  23.633  10.832
 6680W        W73111  32.283   4.288   0.416
 6681W        W73112  12.775  15.057  14.157
 6682W        W73113  19.687  17.959   2.762
 6683W        W73114  14.023  14.721   3.151
 6684W        W73115   1.738  24.058  10.747
 6685W        W73116  12.743  20.226  14.840
 6686W        W73117   5.937  13.476   2.807
 6687W        W73118  28.218  27.118  10.846
 6688W        W73119  11.177  32.819  12.427
 6689W        W73120  22.627  14.128   0.528
 6690W        W73121  26.947  44.827  11.013
 6691W        W73122  12.268   0.480  13.331
 6692W        W73123  24.020   0.877   1.170
 6693W        W73124  13.444  33.101   3.461
 6694W        W73125  14.236   4.637  11.456
 6695W        W73126   9.838  38.184  14.996
 6696W        W73127   5.214  11.661   2.213
 6697W        W73128  21.033  19.893   1.932
 6698W        W73129  26.641   9.800  14.018
 6699W        W73130  40.967  43.848  13.502
 6700W        W73131  34.415  23.514   2.765
 6701W        W73132  12.635  19.514  13.564
 6702W        W73133   9.530  12.345   0.066
 6703W        W73134  39.943  22.599   4.182
 6704W        W73135   5.941   9.375   1.277
 6705W        W73136   1.894  39.060   4.652
 6706W        W73137  33.950  29.446  12.268
 6707W        W73138  33.825  27.638  10.582
 6708W        W73139  26.043  14.714   3.324
 6709W        W73140  37.646  22.489  12.354
 6710W        W73141   7.858  33.255   4.391
 6711W        W73142  26.951  29.141   5.183
 6712W        W73143  40.087  37.109  11.844
 6713W        W73144  20.474  31.289  12.052
 6714W        W73145  37.498  28.172   4.488
 6715W        W73146   5.736  11.417  14.017
 6716W        W73147  43.393  12.241  13.529
 6717W        W73148   1.277   1.361   4.897
 6718W        W73149  42.000  31.254   3.090
 6719W        W73150  32.213  17.787  13.268
 6720W        W73151  23.022  44.577   5.102
 6721W        W73152  41.396  15.070   0.677
 6722W        W73153  17.565  25.543  14.682
 6723W        W73154  38.485  44.539  10.335
 6724W        W73155  19.102  43.489   4.706
 6725W        W73156  39.918   1.666  13.967
 6726W        W73157   1.461  10.925   2.360
 6727W        W73158  29.949  21.664  14.540
 6728W        W73159   8.717  34.409  14.346
 6729W        W73160  19.706   7.081  12.531
 6730W        W73161  29.018   4.854   3.857
 6731W        W73162  13.108  42.197  10.998
 6732W        W73163  27.680  29.493  12.464
 6733W        W73164  34.636  44.924   2.370
 6734W        W73165  16.056   3.460   1.613
 6735W        W73166  40.932  43.857   1.198
 6736W        W73167  23.946  27.019  11.380
 6737W        W73168  24.738   5.404   2.282
 6738W        W73169  36.897   4.868   3.152
 6739W        W73170  33.459  16.626   4.562
 6740W        W73171  27.977  44.294  13.115
 6741W        W73172  41.825  44.502  11.436
 6742W        W73173  36.537  37.421  11.731
 6743W        W73174   9.434  25.284  13.768
 6744W        W73175  21.136   4.171   4.509
 6745W        W73176   6.913   0.954  12.092
 6746W        W73177   4.156  44.355  13.412
 6747W        W73178  44.908  42.833  10.319
 6748W        W73179   5.819   7.645  13.551
 6749W        W73180   3.717  23.989   2.236
 6750W        W73181   5.075  24.182  10.582
 6751W        W73182   2.438  21.572   3.594
 6752W        W73183   9.661  16.847   0.493
 6753W        W73184  27.037  13.375  14.868
 6754W        W73185  27.160  43.377   4.500
 6755W        W73186  31.447  39.633  13.328
 6756W        W73187  35.439  33.471  11.113
 6757W        W73188  25.725  16.328   0.796
 6758W        W73189  11.440  42.524   4.633
 6759W        W73190  34.969  24.006   0.447
 6760W        W73191   8.103  39.817   2.707
 6761W        W73192  30.563  37.394   1.350
 6762W        W73193   8.725  41.833   1.391
 6763W        W73194  43.589  44.395  13.955
 6764W        W73195  26.294  29.955   4.260
 6765W        W73196  44.395  24.406  11.014
 6766W        W73197   2.305   9.854   2.397
 6767W        W73198  35.559   0.362  11.738
 6768W        W73199  10.145  18.360  13.631
 6769W        W73200   0.342  38.922   1.304
 6770W        W73201  41.979  28.521   3.608
 6771W        W73202  38.048   6.548  10.750
 6772W        W73203  11.870  15.610  11.916
 6773W        W73204   3.916  16.387  14.397
 6774W        W73205  34.485  39.782  14.532
 6775W        W73206  21.003  36.537   4.996
 6776W        W73207  10.695  43.568   1.328
 6777W        W73208  43.390  29.598   4.305
 6778W        W73209  42.804   9.179  14.296
 6779W        W73210   2.773  30.109   0.094
 6780W        W73211  42.764  30.713   4.110
 6781W        W73212  42.116  43.269  13.912
 6782W        W73213  23.691  14.531  11.486
 6783W        W73214  27.053  44.539  14.051
 6784W        W73215   2.509  18.224  14.886
 6785W        W73216   4.449   5.892  13.966
 6786W        W73217   5.520  37.232  12.940
 6787W        W73218  29.441   3.758   4.618
 6788W        W73219   9.942  14.484   3.171
 6789W        W73220  23.947  44.936  14.496
 6790W        W73221  25.639   8.378  14.506
 6791W        W73222  23.580   0.478   2.842
 6792W        W73223  32.500  18.175   2.704
 6793W        W73224  41.030  10.140  10.767
 6794W        W73225  43.980  34.855  11.874
 6795W        W73226   2.929  25.734  13.539
 6796W        W73227  10.424  21.528  12.273
 6797W        W73228   7.928  10.903   1.817
 6798W        W73229  14.873  27.057   0.292
 6799W        W73230  28.970  41.275  14.325
 6800W        W73231  42.333   0.939  12.122
 6801W        W73232   9.393  41.927   2.417
 6802W        W73233  43.958   6.448   2.774
 6803W        W73234  11.825  19.757   4.543
 6804W        W73235  37.130  27.468   4.069
 6805W        W73236  20.599  30.116   1.830
 6806W        W73237  12.655  37.117   0.296
 6807W        W73238   0.157   6.393  11.621
 6808W        W73239   9.938  39.626   0.518
 6809W        W73240  14.438  10.377   3.270
 6810W        W73241   9.346  28.754  11.154
 6811W        W73242  28.690  27.127   1.984
 6812W        W73243   4.150  38.051  12.226
 6813W        W73244  14.201   5.186  12.928
 6814W        W73245  42.551  15.748   4.649
 6815W        W73246  26.669   6.976   5.043
 6816W        W73247  31.957  43.877  13.063
 6817W        W73248  16.942  17.305  13.437
 6818W        W73249   6.226  22.604  11.798
 6819W        W73250  21.978   8.937   1.932
 6820W        W73251  14.141   5.286  13.755
 6821W        W73252  41.391  25.655  12.982
 6822W        W73253  14.287  40.063   3.383
 6823W        W73254  12.561   0.568  14.100
 6824W        W73255  37.462  20.208   0.372
 6825W        W73256  42.966  35.122   1.415
 6826W        W73257   1.255   3.978  13.468
 6827W        W73258  16.154  26.023   4.565
 6828W        W73259  14.442   0.368  13.991
 6829W        W73260  28.717   9.673   4.589
 6830W        W73261  33.236  24.277  12.984
 6831W        W73262  33.592  39.258  11.478
 6832W        W73263  13.145  14.697   2.882
 6833W        W73264   0.757  11.656   4.217
 6834W        W73265  32.152   5.057   0.850
 6835W        W73266  14.658  29.602  12.491
 6836W        W73267  15.544   1.490  11.515
 6837W        W73268  14.331  10.377  12.162
 6838W        W73269  40.241   9.712  13.487
 6839W        W73270   2.223   2.286   0.459
 6840W        W73271   3.457  40.039  13.388
 6841W        W73272   9.286  19.117   9.680
 6842W        W73273  26.049   9.006  14.802
 6843W        W73274  15.536  20.442   4.057
 6844W        W73275  17.753  41.047   4.673
 6845W        W73276  20.003  33.940   2.873
 6846W        W73277   5.939  36.415   3.448
 6847W        W73278  27.250  25.737   2.371
 6848W        W73279  43.488  12.594  12.424
 6849W        W73280  11.159   3.786   0.212
 6850W        W73281   3.611  44.306  13.462
 6851W        W73282  11.544  26.780   3.126
 6852W        W73283  20.262  24.399   1.217
 6853W        W73284  11.171  42.794   3.176
 6854W        W73285  24.289   6.003   1.307
 6855W        W73286   0.978  30.886   1.424
 6856W        W73287  21.346  11.404  10.448
 6857W        W73288  10.877  17.117  14.875
 6858W        W73289  32.642   9.443  12.577
 6859W        W73290  36.340  18.340  10.375
 6860W        W73291  15.207  15.687   3.156
 6861W        W73292  34.828  35.840   1.463
 6862W        W73293  24.921   0.991   1.475
 6863W        W73294  30.895  23.975   4.114
 6864W        W73295  18.509   5.659   3.690
 6865W        W73296  13.737  20.021   3.721
 6866W        W73297  11.772  30.364  14.992
 6867W        W73298  28.827   9.868   1.978
 6868W        W73299  18.528  18.520  11.750
 6869W        W73300   8.598   1.331   0.382
 6870W        W73301  38.159  26.145   0.423
 6871W        W73302  31.414  37.326  13.416
 6872W        W73303   3.977  27.664  13.080
 6873W        W73304  14.071  31.406   4.086
 6874W        W73305  34.124  32.926  13.375
 6875W        W73306   2.904  21.268   1.631
 6876W        W73307  20.030   7.936  11.557
 6877W        W73308  31.252   9.330   3.687
 6878W        W73309  39.845  32.704   4.107
 6879W        W73310  24.488  39.879   3.596
 6880W        W73311   2.310  44.962   4.392
 6881W        W73312  32.411  24.956  13.991
 6882W        W73313  18.342  39.292  11.885
 6883W        W73314   2.431  39.614  10.825
 6884W        W73315  42.289  27.404   2.637
 6885W        W73316  40.983  42.707   3.658
 6886W        W73317  14.407   3.283   2.867
 6887W        W73318  21.822   0.558   1.707
 6888W        W73319  15.622  13.391  13.809
 6889W        W73320   1.743  22.464  13.807
 6890W        W73321  38.927  30.013   1.027
 6891W        W73322  38.737  21.125   3.180
 6892W        W73323  24.490   1.652   0.375
 6893W        W73324  40.822  29.521  10.217
 6894W        W73325  37.423  11.157  14.962
 6895W        W73326   7.247  18.184  13.225
 6896W        W73327  35.617  33.519  14.971
 6897W        W73328   3.432  14.209   2.756
 6898W        W73329  32.833   5.431  13.863
 6899W        W73330   0.564  12.854  10.588
 6900W        W73331  37.570  39.482   0.768
 6901W        W73332  12.151   0.445  11.086
 6902W        W73333  18.533  33.614   1.830
 6903W        W73334  13.857  39.202   2.217
 6904W        W73335  39.985   4.456  10.631
 6905W        W73336  40.427  12.163   1.661
 6906W        W73337  41.953   6.595   2.706
 6907W        W73338  31.026  13.924   2.136
 6908W        W73339  10.238   0.858  12.397
 6909W        W73340  41.904  17.009   0.836
 6910W        W73341  17.730   5.263   4.853
 6911W        W73342  15.750   5.648  14.497
 6912W        W73343   1.984   4.245   1.410
 6913W        W73344  37.467  41.289   3.199
 6914W        W73345  18.369   3.813   3.573
 6915W        W73346   9.107  30.954   1.019
 6916W        W73347  12.313  43.224  14.112
 6917W        W73348  39.567  38.308   1.872
 6918W        W73349  25.932   2.383   3.790
 6919W        W73350  19.031  39.976  12.728
 6920W        W73351  20.315  18.740  11.980
 6921W        W73352  23.772  23.531   3.937
 6922W        W73353  21.991  28.084  11.727
 6923W        W73354  29.617  29.600   0.609
 6924W        W73355   4.290  10.708   4.157
 6925W        W73356  19.548  18.519  13.929
 6926W        W73357  24.443  34.061  12.825
 6927W        W73358  13.289  23.670   0.576
 6928W        W73359  17.783  16.836   0.699
 6929W        W73360   5.756  20.516  10.700
 6930W        W73361  14.719  44.744   4.887
 6931W        W73362   9.654  14.654  10.715
 6932W        W73363   0.052   2.372   2.696
 6933W        W73364  22.682  38.308  13.816
 6934W        W73365  23.920  24.152   1.250
 6935W        W73366  36.810  40.399   1.173
 6936W        W73367  26.191  28.820   1.448
 6937W        W73368  33.675  19.193   4.549
 6938W        W73369  12.768  19.105  11.604
 6939W        W73370  38.783  13.491   1.970
 6940W        W73371  27.626  31.957   4.087
 6941W        W73372  25.979  11.402  14.970
 6942W        W73373  29.176  14.265  12.297
 6943W        W73374  29.963  13.443   2.740
 6944W        W73375   6.218  35.393   2.205
 6945W        W73376  16.524  34.865  14.977
 6946W        W73377  13.882  33.909  11.177
 6947W        W73378  42.501  36.811   3.330
 6948W        W73379   3.200  10.076  12.570
 6949W        W73380  16.301   6.650  10.669
 6950W        W73381  29.002  37.945   0.371
 6951W        W73382   1.436  28.960  14.451
 6952W        W73383  27.586  16.259   0.488
 6953W        W73384  29.374  15.438   3.286
 6954W        W73385  13.764  27.930   0.891
 6955W        W73386  14.652  33.105  12.430
 6956W        W73387   2.749  31.114   1.174
 6957W        W73388  25.684  11.623   0.415
 6958W        W73389  29.990  16.621   2.748
 6959W        W73390  12.316  36.129   3.832
 6960W        W73391  31.977  25.863  12.557
 6961W        W73392  15.602  29.072  12.823
 6962W        W73393  32.629  14.710  13.003
 6963W        W73394  29.822  36.358   2.725
 6964W        W73395   1.984   6.833  14.690
 6965W        W73396   3.123   7.174  10.987
 6966W        W73397   1.867  37.812   4.045
 6967W        W73398   7.695   4.233   1.895
 6968W        W73399  26.837   0.964   2.172
 6969W        W73400   7.243  23.595  13.974
 6970W        W73401  30.549  40.837   4.263
 6971W        W73402   9.101   8.137  12.476
 6972W        W73403  14.857  20.460  12.435
 6973W        W73404  44.785   9.898   0.692
 6974W        W73405  29.025  40.785  12.368
 6975W        W73406   9.152  23.178   2.243
 6976W        W73407  16.798  29.034  14.589
 6977W        W73408  24.298  10.902  11.921
 6978W        W73409  29.111  34.450  12.974
 6979W        W73410   7.633  27.627   3.667
 6980W        W73411   6.464  36.635  13.485
 6981W        W73412  28.747  10.385  13.113
 6982W        W73413  19.249  39.846  11.003
 6983W        W73414  38.925  13.918  11.642
 6984W        W73415  40.948  33.356   3.064
 6985W        W73416  23.871   0.330  12.931
 6986W        W73417  26.013  35.417   3.341
 6987W        W73418  34.162   8.863  12.128
 6988W        W73419  41.504  33.214  10.387
 6989W        W73420   1.732  22.776   3.311
 6990W        W73421   7.281  43.873  13.091
 6991W        W73422  15.366  38.904   1.665
 6992W        W73423  19.155  18.095   2.098
 6993W        W73424   1.029  26.092  14.323
 6994W        W73425  13.389  20.783  11.370
 6995W        W73426  16.280  12.598   2.717
 6996W        W73427  30.310  18.451   0.778
 6997W        W73428  23.996  34.357  14.324
 6998W        W73429  35.818   8.346   4.764
 6999W        W73430   7.486  25.053   4.077
 7000W        W73431  41.970   1.790   3.370
 7001W        W73432  23.601   4.930   3.449
 7002W        W73433  32.397  28.108  11.931
 7003W        W73434  44.442  29.399  10.970
 7004W        W73435  34.873  37.102   4.085
 7005W        W73436  40.293  43.014   1.441
 7006W        W73437   9.790  20.153  14.204
 7007W        W73438   0.406  26.590   3.876
 7008W        W73439  18.031  27.693  14.416
 7009W        W73440  26.750  16.733  14.788
 7010W        W73441  44.251  31.387   0.325
 7011W        W73442  39.943  29.568   3.870
 7012W        W73443  13.416  19.147   1.436
 7013W        W73444  25.343   1.862   4.236
 7014W        W73445   7.365  33.063  13.596
 7015W        W73446   6.540  28.422   0.760
 7016W        W73447  19.765   2.054   1.171
 7017W        W73448  21.700  14.089  11.514
 7018W        W73449   9.872   2.089  12.027
 7019W        W73450  31.599   2.836  12.071
 7020W        W73451  39.562  17.039  11.605
 7021W        W73452  32.877  38.762   0.964
 7022W        W73453  11.395  37.834   3.780
 7023W        W73454  22.115   7.667   0.860
 7024W        W73455  27.364  23.286  11.154
 7025W        W73456  14.299  23.230  10.682
 7026W        W73457  17.324  30.830  11.052
 7027W        W73458   0.927  31.573   2.745
 7028W        W73459   3.095  35.784  10.746
 7029W        W73460  12.038  34.588   0.492
 7030W        W73461  11.663  41.515  11.666
 7031W        W73462  34.600  26.511  14.651
 7032W        W73463  18.259  39.363  12.457
 7033W        W73464  28.279  40.877  10.812
 7034W        W73465  44.773  21.848  13.825
 7035W        W73466  27.338  37.629   5.177
 7036W        W73467  43.837  14.652  14.558
 7037W        W73468   5.855  10.223   4.605
 7038W        W73469  33.097  12.247   4.881
 7039W        W73470  43.316   9.277  11.157
 7040W        W73471  36.578  36.988  11.449
 7041W        W73472  42.748  36.610  13.475
 7042W        W73473  33.135   0.937  11.961
 7043W        W73474   8.745  25.138  13.181
 7044W        W73475  30.640  38.065  10.621
 7045W        W73476  29.659  12.404   1.119
 7046W        W73477   4.428  12.086  11.680
 7047W        W73478  12.917  32.661  13.696
 7048W        W73479   3.770  30.971  12.834
 7049W        W73480  17.297  21.665   1.912
 7050W        W73481  24.143  37.796  11.947
 7051W        W73482  19.776  40.759   3.709
 7052W        W73483  20.037  23.104  10.966
 7053W        W73484  32.786  42.329   0.171
 7054W        W73485  13.539   5.525   0.517
 7055W        W73486  38.899  37.576  11.133
 7056W        W73487  27.205  11.197  12.975
 7057W        W73488  31.950  25.986   4.671
 7058W        W73489  32.603  20.103   3.424
 7059W        W73490  22.064  28.902   4.572
 7060W        W73491  31.487  24.438  10.661
 7061W        W73492  24.822  15.520   4.048
 7062W        W73493  25.683  14.992   3.822
 7063W        W73494  21.108   2.621  11.236
 7064W        W73495  28.997   4.122  12.515
 7065W        W73496  10.888   1.308  12.171
 7066W        W73497  12.265   4.303  10.864
 7067W        W73498  41.095  40.800  13.848
 7068W        W73499  24.436  10.426   3.586
 7069W        W73500   8.954  15.725  13.442
 7070W        W73501  12.189  12.846   1.373
 7071W        W73502   4.335  17.759   0.719
 7072W        W73503   6.575  13.641   5.118
 7073W        W73504  27.618  37.999   3.399
 7074W        W73505  17.586   9.829   4.672
 7075W        W73506  30.568  44.213   2.107
 7076W        W73507   5.334   0.012   4.589
 7077W        W73508  10.210  44.829  11.370
 7078W        W73509  16.745  25.052   1.118
 7079W        W73510   0.794   8.056  12.130
 7080W        W73511  38.994  41.376   1.658
 7081W        W73512   8.098   2.667   1.395
 7082W        W73513   3.730   2.557   1.366
 7083W        W73514  40.613   7.714   0.832
 7084W        W73515  21.592  11.659   3.054
 7085W        W73516  39.110  35.644  10.966
 7086W        W73517   8.899  24.462  11.844
 7087W        W73518  19.215   8.694   1.141
 7088W        W73519  30.148  15.789  11.436
 7089W        W73520   9.718  31.485  12.037
 7090W        W73521  13.239  42.454   2.804
 7091W        W73522  16.836  22.050   0.892
 7092W        W73523   4.166  36.391  11.664
 7093W        W73524  18.863  17.090   3.663
 7094W        W73525  11.439   2.571  11.217
 7095W        W73526   9.929  29.573   3.537
 7096W        W73527  13.787  36.840   2.144
 7097W        W73528  25.170  32.042   3.095
 7098W        W73529  17.129   8.642  10.582
 7099W        W73530   4.262  26.619   4.243
 7100W        W73531  26.115  15.615   4.370
 7101W        W73532  30.701  19.351  11.033
 7102W        W73533  33.110  36.236  11.190
 7103W        W73534  44.300  24.190  10.554
 7104W        W73535  27.232  37.423   2.617
 7105W        W73536  20.714  16.741  11.271
 7106W        W73537   9.567   3.940   3.714
 7107W        W73538  44.923  37.660  14.594
 7108W        W73539  33.135  35.347  10.494
 7109W        W73540   2.892  18.076   3.931
 7110W        W73541  17.693  36.120  14.791
 7111W        W73542  42.778  25.031   4.031
 7112W        W73543   6.750  32.000   3.688
 7113W        W73544   8.203  34.789   0.923
 7114W        W73545   2.333   2.753   0.262
 7115W        W73546  21.878  20.654  12.587
 7116W        W73547  17.876  33.503   1.025
 7117W        W73548  43.275  16.290  13.922
 7118W        W73549  44.508  33.350   1.300
 7119W        W73550  21.665  44.802   0.855
 7120W        W73551   5.737  34.533   3.805
 7121W        W73552   9.203  27.415  11.329
 7122W        W73553  42.317  23.960   0.695
 7123W        W73554  20.795  15.720   2.585
 7124W        W73555  10.897  32.848   2.808
 7125W        W73556  30.963  29.674   1.229
 7126W        W73557  19.506  18.154   0.238
 7127W        W73558   0.875   6.126   0.082
 7128W        W73559  40.264  34.104  11.472
 7129W        W73560  23.431  12.506   3.231
 7130W        W73561  19.499  11.350  14.884
 7131W        W73562  19.443   5.048   5.256
 7132W        W73563  19.195  41.756   3.621
 7133W        W73564  35.868  12.397  13.437
 7134W        W73565  37.036   8.708   0.416
 7135W        W73566   0.932  33.872   1.114
 7136W        W73567  16.233   7.925   4.880
 7137W        W73568  31.509  37.199   3.500
 7138W        W73569  40.555  17.669  13.302
 7139W        W73570  28.631  12.679  14.875
 7140W        W73571   7.255   6.368  11.808
 7141W        W73572   9.278  30.659  11.605
 7142W        W73573   0.901   5.172   1.288
 7143W        W73574  43.389   4.562   1.459
 7144W        W73575  39.311   0.530  12.265
 7145W        W73576   0.675  15.068  12.549
 7146W        W73577  27.643  12.388   2.653
 7147W        W73578   2.717  23.195  12.852
 7148W        W73579  43.039   1.449  13.777
 7149W        W73580  17.723   1.171  13.353
 7150W        W73581  34.773  38.424  14.545
 7151W        W73582  34.068  40.602   2.257
 7152W        W73583   8.575   7.972  12.619
 7153W        W73584   2.359  39.544   3.171
 7154W        W73585  16.091  17.237   3.205
 7155W        W73586  17.175  20.261   1.785
 7156W        W73587  39.851  33.476   3.607
 7157W        W73588  29.086  20.516   1.921
 7158W        W73589  25.541  39.977   1.344
 7159W        W73590  16.578   7.888   3.099
 7160W        W73591  10.212  36.972   4.006
 7161W        W73592  40.361  12.375  13.823
 7162W        W73593  28.968  32.094   4.086
 7163W        W73594  43.793   5.707  12.108
 7164W        W73595  37.952  32.493  13.304
 7165W        W73596  40.737  12.304  11.119
 7166W        W73597  44.008  11.910   2.818
 7167W        W73598  32.211  43.562  11.119
 7168W        W73599  43.469   3.833   4.910
 7169W        W73600  43.021  17.359  11.076
 7170W        W73601   4.788  35.343  12.719
 7171W        W73602  16.934   2.415   0.395
 7172W        W73603  13.175  28.779  13.796
 7173W        W73604  15.619   2.351  13.551
 7174W        W73605   8.805  42.995   4.057
 7175W        W73606   6.821  34.552  11.941
 7176W        W73607   8.738  29.538   3.328
 7177W        W73608  35.499  10.612  11.591
 7178W        W73609   0.658  37.388   4.170
 7179W        W73610  12.890  41.865   2.718
 7180W        W73611  39.396  31.229   1.269
 7181W        W73612  33.466  37.636  14.357
 7182W        W73613  28.614  20.572   2.180
 7183W        W73614   7.464  39.470  10.952
 7184W        W73615   9.632  31.900  11.342
 7185W        W73616  33.535  18.746   2.754
 7186W        W73617  42.191  24.682   1.261
 7187W        W73618   9.420  38.080   3.695
 7188W        W73619   9.360  41.218   2.632
 7189W        W73620  15.754   6.160  13.598
 7190W        W73621  14.084  39.942  12.060
 7191W        W73622  32.744  35.315   0.392
 7192W        W73623  32.568  12.922  14.358
 7193W        W73624  36.048   1.993  14.457
 7194W        W73625  40.830   0.802  14.490
 7195W        W73626  38.171  13.088   4.141
 7196W        W73627  42.295  38.369  12.419
 7197W        W73628  13.212  25.844  11.691
 7198W        W73629  25.014  36.492  11.143
 7199W        W73630  24.358  35.218  10.687
 7200W        W73631  39.829  43.164  11.601
 7201W        W73632  41.784   6.897  12.043
 7202W        W73633   1.957  29.390  12.455
 7203W        W73634   6.096  12.736   4.280
 7204W        W73635  32.857  26.143   1.628
 7205W        W73636   5.548  25.225  11.782
 7206W        W73637  27.890  43.537  12.377
 7207W        W73638  18.194  25.021   4.597
 7208W        W73639  29.918  26.456  10.264
 7209W        W73640   9.593   6.521  13.874
 7210W        W73641  14.728  35.111   0.009
 7211W        W73642  15.096  25.930   1.967
 7212W        W73643  20.025  10.714  14.415
 7213W        W73644  31.315   7.084   5.126
 7214W        W73645   5.030  34.920   0.802
 7215W        W73646  23.772  38.224   0.431
 7216W        W73647   1.728  10.597  12.789
 7217W        W73648   5.807  33.214   3.578
 7218W        W73649  27.954  25.525   2.866
 7219W        W73650  23.620  16.994   4.134
 7220W        W73651   0.483  19.464  11.820
 7221W        W73652   9.316  35.534  11.659
 7222W        W73653  24.986  38.026  11.808
 7223W        W73654  17.506  12.553  11.593
 7224W        W73655  30.046  27.958   0.973
 7225W        W73656  33.459  23.365   4.254
 7226W        W73657  33.200  27.722  11.264
 7227W        W73658   0.488   0.251  12.786
 7228W        W73659   1.714   9.184   0.881
 7229W        W73660  34.401  39.012   1.524
 7230W        W73661  33.894  34.609   3.790
 7231W        W73662  24.078  41.832  14.733
 7232W        W73663  24.897   7.191  13.792
 7233W        W73664   9.501  14.467  11.681
 7234W        W73665   4.930   5.177  11.042
 7235W        W73666   3.405  15.285   4.590
 7236W        W73667  32.923   9.930  12.494
 7237W        W73668  32.412  10.261   3.325
 7238W        W73669   4.657  21.614  10.570
 7239W        W73670  16.527  20.699   2.696
 7240W        W73671  31.378  26.934  12.887
 7241W        W73672   7.184  41.254   3.335
 7242W        W73673  39.910   7.752  13.334
 7243W        W73674  39.795  24.288   3.786
 7244W        W73675  33.979  10.323  12.034
 7245W        W73676  37.059  14.472   3.605
 7246W        W73677   5.527  43.497  13.483
 7247W        W73678  27.402  22.375  13.986
 7248W        W73679  20.552  41.501   3.194
 7249W        W73680  34.845  17.030   2.859
 7250W        W73681  26.753   3.780   0.721
 7251W        W73682  28.356   9.927   1.678
 7252W        W73683  44.855  35.800   3.732
 7253W        W73684  39.362  37.689  14.584
 7254W        W73685  16.973  42.132  13.508
 7255W        W73686  32.697  36.577   4.335
 7256W        W73687  41.032   3.857  13.897
 7257W        W73688  40.957  43.335   3.826
 7258W        W73689  30.059  43.979   3.186
 7259W        W73690  11.679  10.149  14.847
 7260W        W73691   8.750  32.856  10.700
 7261W        W73692  33.460  41.514   0.787
 7262W        W73693  33.147   0.895   3.342
 7263W        W73694  40.981  15.120  13.862
 7264W        W73695  13.673  30.431  11.492
 7265W        W73696  25.966  35.623  12.846
 7266W        W73697   9.679  33.393   2.801
 7267W        W73698  14.315   5.872   1.355
 7268W        W73699  28.140   8.826  13.296
 7269W        W73700  39.655   2.182  13.082
 7270W        W73701  37.336  43.509  12.689
 7271W        W73702  38.843   5.329  11.660
 7272W        W73703  14.595  35.610  14.981
 7273W        W73704  21.157  23.281   1.406
 7274W        W73705   6.616  44.801   2.250
 7275W        W73706  40.434  26.075  10.815
 7276W        W73707  40.491  19.755   2.324
 7277W        W73708  32.104  24.613   1.339
 7278W        W73709   2.649   8.210   1.861
 7279W        W73710  28.031   2.276   4.117
 7280W        W73711   3.336  43.013  11.433
 7281W        W73712  35.319  12.792   2.246
 7282W        W73713  14.381  32.491  13.905
 7283W        W73714  40.313  10.448   2.739
 7284W        W73715  18.181  38.226   3.825
 7285W        W73716  30.114   2.233  14.087
 7286W        W73717   5.933  34.038  13.004
 7287W        W73718  18.256   5.831  13.886
 7288W        W73719  24.234  14.046   5.093
 7289W        W73720  15.267   5.784   1.466
 7290W        W73721  12.413   0.067   4.491
 7291W        W73722  21.614  25.650   4.618
 7292W        W73723  19.126  26.648   4.050
 7293W        W73724   9.278  11.746   3.377
 7294W        W73725  37.954  18.081   2.670
 7295W        W73726  18.896  19.467  14.826
 7296W        W73727   6.409  17.022   2.687
 7297W        W73728  30.619  35.758  12.525
 7298W        W73729  13.035  40.239   4.866
 7299W        W73730  36.556  37.039   5.347
 7300W        W73731  19.290  38.543   0.339
 7301W        W73732  39.406   1.168  12.302
 7302W        W73733  37.749  29.012   1.456
 7303W        W73734  11.840  34.480  13.390
 7304W        W73735  23.653  40.765  13.365
 7305W        W73736  21.393  13.157  10.647
 7306W        W73737  35.454  43.573   2.388
 7307W        W73738   1.431  30.198  13.626
 7308W        W73739  40.778  21.718  13.894
 7309W        W73740   3.199   7.168   3.867
 7310W        W73741  31.848  22.660   3.243
 7311W        W73742  22.824   3.095  11.148
 7312W        W73743  31.521  25.824   4.378
 7313W        W73744   3.178  22.056  14.465
 7314W        W73745  16.032  13.114  14.055
 7315W        W73746  34.460   0.853  10.428
 7316W        W73747  43.091  39.310  11.393
 7317W        W73748   6.675   0.735  12.492
 7318W        W73749  14.579  25.451  14.275
 7319W        W73750  32.952   9.765  11.664
 7320W        W73751  16.224  39.903  11.474
 7321W        W73752  13.848   7.816   4.637
 7322W        W73753   0.617  38.827  12.514
 7323W        W73754  28.232   3.210  11.884
 7324W        W73755  33.330   4.389   3.722
 7325W        W73756   9.209  16.106  12.545
 7326W        W73757  23.577   9.494   4.746
 7327W        W73758  28.890  42.333  12.796
 7328W        W73759   6.491   7.258  14.649
 7329W        W73760   2.605   2.459   4.083
 7330W        W73761   7.167  24.771   2.647
 7331W        W73762  31.131   7.930   3.190
 7332W        W73763  41.731  15.899  13.866
 7333W        W73764  40.438  14.615   1.171
 7334W        W73765  29.718   9.956   4.535
 7335W        W73766  30.358  31.185   1.843
 7336W        W73767  34.070  16.151   1.400
 7337W        W73768   2.130  19.762  12.339
 7338W        W73769  23.640  31.701  13.910
 7339W        W73770  13.153  11.883   3.177
 7340W        W73771  32.238  35.137   0.332
 7341W        W73772  10.867  18.794   0.897
 7342W        W73773  21.051   2.510  13.899
 7343W        W73774  14.680   2.432  10.674
 7344W        W73775  41.076  31.396   2.755
 7345W        W73776  43.020  29.163   2.733
 7346W        W73777  20.808  44.340   1.070
 7347W        W73778   7.928   8.477   0.344
 7348W        W73779  20.324   8.962  12.238
 7349W        W73780  28.116  41.874  12.321
 7350W        W73781   2.980  23.270  12.411
 7351W        W73782  18.792  44.142  13.417
 7352W        W73783  30.683  40.229  11.667
 7353W        W73784  23.628  43.943   4.717
 7354W        W73785  31.072  35.331   1.641
 7355W        W73786  22.659  36.054  11.448
 7356W        W73787  27.725  16.738  12.848
 7357W        W73788  40.247  44.877   0.785
 7358W        W73789  26.695   4.517  13.321
 7359W        W73790   3.088  17.539   1.877
 7360W        W73791   3.698  41.481   2.815
 7361W        W73792   4.425  39.131  13.652
 7362W        W73793  26.592  29.885  10.188
 7363W        W73794  37.048   1.107  14.821
 7364W        W73795   1.197   1.465  11.683
 7365W        W73796  19.445  36.387   2.337
 7366W        W73797  22.308   8.792   2.367
 7367W        W73798  38.772  31.905  11.471
 7368W        W73799  36.365  10.081  11.488
 7369W        W73800  42.844  15.425   2.524
 7370W        W73801  35.138  12.222  14.189
 7371W        W73802  33.819  10.867   4.729
 7372W        W73803   4.519   5.922   4.151
 7373W        W73804  22.132  32.778   4.284
 7374W        W73805  15.099   2.157  10.735
 7375W        W73806  30.001  11.947  11.133
 7376W        W73807  14.747  24.006   1.022
 7377W        W73808  29.675   0.819  10.369
 7378W        W73809  31.012  44.815   2.349
 7379W        W73810   4.506  32.155   2.862
 7380W        W73811   7.227  39.765   1.850
 7381W        W73812  41.213  24.155  14.337
 7382W        W73813  42.702  22.864   3.343
 7383W        W73814  12.677  23.872   2.362
 7384W        W73815  15.490  18.336  12.809
 7385W        W73816  19.586   3.704   1.803
 7386W        W73817  29.856   2.815  12.395
 7387W        W73818  13.184  20.277   0.953
 7388W        W73819   8.146  19.240   3.596
 7389W        W73820   1.935  17.193  13.947
 7390W        W73821  14.705  44.725  12.540
 7391W        W73822  14.826  25.146  12.983
 7392W        W73823  16.887  27.039   2.678
 7393W        W73824  29.325  20.388  13.492
 7394W        W73825   2.801  28.142  11.222
 7395W        W73826  37.093   2.737  14.388
 7396W        W73827  19.810  33.491   1.444
 7397W        W73828   4.428  10.843  12.366
 7398W        W73829  36.956  27.471  12.513
 7399W        W73830  32.576  22.482   3.755
 7400W        W73831  22.186  31.475   0.325
 7401W        W73832  35.011  12.779  12.516
 7402W        W73833  12.363  14.278   3.202
 7403W        W73834   0.194  14.193   0.031
 7404W        W73835  21.575  17.337   1.980
 7405W        W73836   8.941  30.558  13.142
 7406W        W73837   4.960  22.024  10.660
 7407W        W73838  32.094  41.100   3.345
 7408W        W73839  10.043   0.094  12.204
 7409W        W73840  28.942  12.190   3.441
 7410W        W73841  37.620   6.353   1.910
 7411W        W73842  28.517  12.958   4.359
 7412W        W73843  22.521  33.848  11.116
 7413W        W73844  38.498  43.639   4.804
 7414W        W73845  21.007  15.405  10.327
 7415W        W73846  12.293   0.028  11.419
 7416W        W73847  40.860   2.865  13.449
 7417W        W73848  34.122   2.679   0.987
 7418W        W73849   8.902   1.420   1.800
 7419W        W73850  40.033  34.056   2.648
 7420W        W73851  31.842  30.892   0.510
 7421W        W73852   0.342  16.339  10.764
 7422W        W73853   6.888  37.861  11.539
 7423W        W73854  30.001  14.765   3.103
 7424W        W73855   4.232  12.936  10.739
 7425W        W73856  19.532  30.157  14.865
 7426W        W73857  14.566  35.683   1.820
 7427W        W73858  17.637   5.398   0.454
 7428W        W73859   0.329   4.031   0.797
 7429W        W73860  43.382   4.892   0.982
 7430W        W73861   6.107   6.462   4.150
 7431W        W73862  33.500  24.451   1.886
 7432W        W73863  13.535  43.943   2.761
 7433W        W73864  25.949  27.654   0.007
 7434W        W73865   7.815  35.405  13.931
 7435W        W73866  32.218  35.748  11.363
 7436W        W73867  14.821  26.917   1.818
 7437W        W73868  29.770  39.096   3.629
 7438W        W73869  23.695  41.303  13.615
 7439W        W73870   6.254  22.698   1.353
 7440W        W73871   8.932   5.865  14.357
 7441W        W73872  10.621  11.998   5.215
 7442W        W73873   7.378  25.573   1.517
 7443W        W73874   7.703  14.809   4.639
 7444W        W73875  26.676  20.148   3.642
 7445W        W73876  42.676  34.453   2.403
 7446W        W73877   2.749  27.148   2.031
 7447W        W73878  26.870  22.982  10.544
 7448W        W73879  36.642   0.748  14.877
 7449W        W73880  35.592  33.174  12.520
 7450W        W73881  33.262   4.495   2.677
 7451W        W73882   8.263   3.741  11.127
 7452W        W73883  27.296  43.292   3.267
 7453W        W73884  22.421  16.589  10.570
 7454W        W73885  42.207  41.406  10.506
 7455W        W73886   5.208  44.544  10.747
 7456W        W73887  21.519   4.276   0.945
 7457W        W73888  25.032  31.287  14.417
 7458W        W73889  15.829  36.576  13.356
 7459W        W73890  19.704  34.395  11.186
 7460W        W73891  31.535   6.347  14.858
 7461W        W73892  21.059  18.809  11.245
 7462W        W73893  16.616   9.020  11.371
 7463W        W73894  26.564  36.862   2.625
 7464W        W73895  29.347   5.852  11.163
 7465W        W73896  36.017   1.817  10.735
 7466W        W73897  31.517   0.399   2.434
 7467W        W73898  26.440  27.258   1.864
 7468W        W73899   8.052   6.232  11.168
 7469W        W73900  42.371  40.833   0.968
 7470W        W73901  27.437  18.192   0.693
 7471W        W73902  44.942  44.870  14.279
 7472W        W73903  38.778  25.027  10.912
 7473W        W73904  41.787  23.599  12.842
 7474W        W73905  17.618  21.554  13.493
 7475W        W73906  38.446  10.149   4.767
 7476W        W73907  14.607  40.102  14.972
 7477W        W73908   3.427  38.448   2.248
 7478W        W73909   6.760  13.804  10.752
 7479W        W73910  33.942   8.780  12.595
 7480W        W73911  39.018  29.517  12.777
 7481W        W73912  31.937  15.973   1.933
 7482W        W73913  12.293  14.409   3.704
 7483W        W73914  17.251  14.534   1.763
 7484W        W73915   0.473  31.134   1.483
 7485W        W73916  26.018  26.972   1.701
 7486W        W73917  35.315   1.549  14.184
 7487W        W73918   1.451  23.974  12.099
 7488W        W73919  11.455  24.749   1.806
 7489W        W73920   0.718  43.779  12.482
 7490W        W73921  40.688   6.411   3.056
 7491W        W73922   6.770   8.365  12.414
 7492W        W73923  14.410  26.355  11.164
 7493W        W73924  38.206  21.999   1.905
 7494W        W73925  32.841  35.105   2.918
 7495W        W73926  23.095   1.970  13.460
 7496W        W73927   5.195  13.304   4.361
 7497W        W73928  20.542  18.699   4.232
 7498W        W73929   5.815  39.845   1.876
 7499W        W73930  38.361  35.996  10.129
 7500W        W73931  40.888  44.253  13.876
 7501W        W73932   8.204  38.375   2.206
 7502W        W73933   0.282   2.590  11.390
 7503W        W73934  23.708  22.096   0.921
 7504W        W73935  28.575  26.962  14.444
 7505W        W73936  30.104  36.324   0.320
 7506W        W73937  35.457  42.091  14.884
 7507W        W73938  20.134   8.001  11.068
 7508W        W73939  38.370  35.968  10.775
 7509W        W73940  18.193  37.858   3.147
 7510W        W73941   3.722  29.571  14.307
 7511W        W73942  25.217  10.085   4.037
 7512W        W73943  28.401  16.597   3.256
 7513W        W73944  38.392  38.848  12.950
 7514W        W73945  26.120  43.441  10.660
 7515W        W73946  25.381  29.611  14.634
 7516W        W73947   6.835  36.463   1.455
 7517W        W73948  39.808  44.885   2.798
 7518W        W73949  22.818  38.061   4.378
 7519W        W73950  43.909  40.344   0.975
 7520W        W73951  19.783  22.959  12.125
 7521W        W73952  44.320  31.482  10.742
 7522W        W73953  30.667  44.470  11.594
 7523W        W73954  22.521  19.976   2.479
 7524W        W73955  40.252  23.311  14.430
 7525W        W73956  19.070  33.478   2.794
 7526W        W73957  32.582  44.576   1.318
 7527W        W73958   0.290  22.239  14.823
 7528W        W73959  34.856  17.569   0.811
 7529W        W73960  44.743  10.297  13.390
 7530W        W73961  11.447  25.466  13.963
 7531W        W73962  12.903  10.783   2.079
 7532W        W73963  33.033   7.361  13.653
 7533W        W73964  37.059  36.863   3.729
 7534W        W73965  42.780  14.112   0.883
 7535W        W73966  33.912  15.425  11.525
 7536W        W73967   1.285  20.787  12.117
 7537W        W73968  37.520  32.775  13.442
 7538W        W73969  14.056  13.754   2.115
 7539W        W73970  20.790  16.148   1.855
 7540W        W73971  28.888  19.640   4.603
 7541W        W73972   5.124  32.195  12.006
 7542W        W73973  42.493  10.316   9.932
 7543W        W73974  42.998  26.885   1.897
 7544W        W73975   1.725  15.241   0.293
 7545W        W73976  34.262  26.109  14.794
 7546W        W73977  20.777  32.779  11.461
 7547W        W73978  23.523   4.425   3.534
 7548W        W73979   2.255  20.650   0.263
 7549W        W73980   5.906  20.692   1.890
 7550W        W73981  32.528  23.124  14.553
 7551W        W73982  10.121  20.876  12.590
 7552W        W73983  20.189   9.611   0.059
 7553W        W73984  35.419  19.713   1.611
 7554W        W73985  31.596   1.320   0.851
 7555W        W73986  44.451  28.416   3.907
 7556W        W73987  20.973   3.375  12.106
 7557W        W73988   6.763  42.048  14.591
 7558W        W73989   2.955  33.847  12.102
 7559W        W73990   4.258  13.229  14.051
 7560W        W73991  36.087  16.704   4.413
 7561W        W73992  34.793  19.743   5.034
 7562W        W73993  20.801   0.277   1.908
 7563W        W73994  33.924  40.051  13.054
 7564W        W73995   6.484  40.395   3.936
 7565W        W73996  41.525  13.113  12.719
 7566W        W73997   8.921  25.614  12.947
 7567W        W73998  11.705  29.113   3.585
 7568W        W73999  31.434  15.791  11.597
 7569W        W74000  42.955  29.799   0.464
 7570W        W74001  32.932  23.103   1.091
 7571W        W74002  18.782  29.977   1.391
 7572W        W74003  26.494  17.567   3.685
 7573W        W74004  18.138   9.055  11.862
 7574W        W74005   0.356  28.642   3.632
 7575W        W74006   2.926  16.677  14.545
 7576W        W74007  44.250  34.037  14.792
 7577W        W74008  28.298  22.133  13.174
 7578W        W74009   5.738   8.953  10.997
 7579W        W74010  42.070   1.846   3.882
 7580W        W74011  19.766  41.841  12.065
 7581W        W74012   7.153  13.240   4.097
 7582W        W74013  38.652  30.990  14.693
 7583W        W74014  38.372   7.325  14.842
 7584W        W74015  27.925  30.625   4.056
 7585W        W74016  28.815  26.005  10.578
 7586W        W74017  21.149   1.635   4.269
 7587W        W74018  23.019  35.366   0.514
 7588W        W74019   8.964  26.600  12.241
 7589W        W74020  43.249  21.563  12.340
 7590W        W74021   6.665  35.679  11.122
 7591W        W74022  30.000  17.336   4.212
 7592W        W74023  38.426  12.699   4.351
 7593W        W74024  38.152  32.978   1.792
 7594W        W74025  15.420  33.954  13.950
 7595W        W74026  22.548  44.465  12.849
 7596W        W74027  33.557   9.216   0.298
 7597W        W74028  24.511   2.825  12.293
 7598W        W74029  44.856  32.936  13.474
 7599W        W74030   6.233  27.657  10.836
 7600W        W74031  18.081  31.238  14.225
 7601W        W74032  24.705  41.037   4.438
 7602W        W74033  18.261  18.012   2.078
 7603W        W74034  35.610  29.525  11.108
 7604W        W74035  12.209  24.542  10.278
 7605W        W74036  22.748  42.312   4.558
 7606W        W74037  28.130  28.565  10.697
 7607W        W74038  16.248  41.001  13.633
 7608W        W74039  36.088  35.432  11.818
 7609W        W74040  39.233  18.410   4.435
 7610W        W74041   9.809  30.232  14.890
 7611W        W74042  37.187  39.041   4.282
 7612W        W74043   2.746   2.065  13.189
 7613W        W74044  21.100  21.730   0.175
 7614W        W74045  11.903   1.586  13.132
 7615W        W74046  13.446  42.389  12.032
 7616W        W74047  37.358  41.613   5.339
 7617W        W74048  12.267  17.311  12.619
 7618W        W74049  19.622  33.726  14.514
 7619W        W74050  34.075  33.862  13.384
 7620W        W74051  24.194  31.641   4.585
 7621W        W74052  17.585  12.163  12.816
 7622W        W74053  30.573  11.313   3.389
 7623W        W74054  10.539   7.997  14.416
 7624W        W74055  16.301   4.490  11.268
 7625W        W74056  24.618   1.233  13.635
 7626W        W74057  24.902  16.169  13.425
 7627W        W74058  21.945  38.939  12.487
 7628W        W74059   1.762  44.420   0.782
 7629W        W74060  15.705  23.851  14.965
 7630W        W74061  28.852  11.100   3.295
 7631W        W74062  12.255  29.530  10.774
 7632W        W74063  16.654  22.949   2.148
 7633W        W74064  21.913  12.047   0.443
 7634W        W74065  34.326  25.966   4.796
 7635W        W74066  18.020  39.909   2.759
 7636W        W74067  35.570  37.903  14.944
 7637W        W74068   7.344  15.270  11.494
 7638W        W74069  23.653  43.470   3.227
 7639W        W74070  43.786  10.148   1.449
 7640W        W74071   1.880  33.927  10.807
 7641W        W74072  19.301   6.768  12.947
 7642W        W74073  27.380  33.391  12.692
 7643W        W74074   9.106  42.840   1.373
 7644W        W74075  29.850  41.384  10.607
 7645W        W74076   9.818  44.698   0.460
 7646W        W74077  24.550  22.637   3.573
 7647W        W74078  29.382  39.477  13.005
 7648W        W74079  18.741   4.481  10.745
 7649W        W74080  15.153   7.407  13.490
 7650W        W74081   3.466  32.935  14.540
 7651W        W74082   6.805  21.571  10.728
 7652W        W74083  21.202  23.290   3.903
 7653W        W74084  21.558  40.812  13.450
 7654W        W74085  23.291   9.187  14.805
 7655W        W74086  44.473   2.196  11.981
 7656W        W74087  35.331   3.212  14.783
 7657W        W74088  42.089   8.646   1.200
 7658W        W74089  21.991  37.985  10.337
 7659W        W74090  19.720  42.126  11.658
 7660W        W74091  38.031   1.984  11.669
 7661W        W74092  19.198  12.950   3.777
 7662W        W74093  30.078   3.503  13.621
 7663W        W74094  36.045  41.733  13.820
 7664W        W74095  38.452   3.309   3.323
 7665W        W74096  32.355  34.448   3.734
 7666W        W74097  19.073  13.123  14.528
 7667W        W74098  18.964  10.677   2.715
 7668W        W74099   0.705  21.083   1.250
 7669W        W74100   6.655   1.768   3.319
 7670W        W74101   4.700  33.989   3.833
 7671W        W74102  30.576   3.593   3.789
 7672W        W74103  33.579  40.010   4.288
 7673W        W74104  42.482  29.392   4.309
 7674W        W74105  42.955  18.474   0.784
 7675W        W74106  41.978  24.926  12.105
 7676W        W74107  36.925  26.242   2.292
 7677W        W74108  27.133  35.042  10.807
 7678W        W74109  27.907   4.966   1.175
 7679W        W74110  36.600  32.465  14.846
 7680W        W74111  31.158  13.759  14.079
 7681W        W74112  37.614  22.632  11.079
 7682W        W74113  40.044  20.569   3.320
 7683W        W74114  25.456  39.221  12.652
 7684W        W74115   3.786  35.087   0.355
 7685W        W74116  15.307  35.470   2.139
 7686W        W74117  31.647  13.748  13.945
 7687W        W74118  39.595  38.376   0.097
 7688W        W74119  30.658  20.502   4.303
 7689W        W74120  33.158   7.969   0.725
 7690W        W74121  36.249  25.663   3.235
 7691W        W74122  23.750  33.910   1.778
 7692W        W74123  37.505  19.035   2.759
 7693W        W74124  12.667  29.529   3.653
 7694W        W74125  11.806   7.826   1.181
 7695W        W74126   0.804   6.390  12.665
 7696W        W74127  41.691  39.484  10.702
 7697W        W74128   9.406  37.911  11.507
 7698W        W74129  20.400  30.409  13.896
 7699W        W74130  37.999  25.439   3.693
 7700W        W74131  10.780  15.169  14.479
 7701W        W74132  30.661  34.541  13.945
 7702W        W74133   1.077  25.245  11.641
 7703W        W74134  26.115  15.810   0.629
 7704W        W74135  28.951  25.925   0.340
 7705W        W74136  15.373   9.939  12.603
 7706W        W74137  12.680  24.687  13.952
 7707W        W74138  43.982   9.291  14.739
 7708W        W74139  35.472  29.037  14.963
 7709W        W74140  15.144   0.295  10.595
 7710W        W74141  15.553  39.406   2.791
 7711W        W74142   0.552  10.177  12.057
 7712W        W74143  10.291   8.519   1.919
 7713W        W74144   7.755  40.780  13.795
 7714W        W74145  15.261  39.660   3.744
 7715W        W74146  19.699  38.449  13.383
 7716W        W74147  13.886  34.960  12.130
 7717W        W74148  37.478  43.298   1.272
 7718W        W74149  29.679  10.545  14.833
 7719W        W74150  24.011  23.489   3.171
 7720W        W74151  19.281  41.036  11.097
 7721W        W74152   4.503  22.650   3.147
 7722W        W74153  43.746  43.521   3.610
 7723W        W74154  11.408  28.651   0.097
 7724W        W74155  35.444   4.757   4.406
 7725W        W74156  19.580  33.195   3.038
 7726W        W74157  10.830  25.105  13.693
 7727W        W74158  17.904   6.590   3.121
 7728W        W74159  34.514  28.727  14.949
 7729W        W74160   5.216  25.957   2.170
 7730W        W74161  32.601  21.577   4.605
 7731W        W74162  36.486  35.648  11.477
 7732W        W74163  25.032  14.567   0.124
 7733W        W74164  38.903  36.997   2.223
 7734W        W74165   2.418   0.425  12.405
 7735W        W74166  37.506  12.142  14.052
 7736W        W74167  36.940  43.540  11.567
 7737W        W74168  43.388   8.609   2.705
 7738W        W74169  42.827  37.678   1.743
 7739W        W74170  16.946  28.207   2.300
 7740W        W74171  36.974   9.225  10.683
 7741W        W74172   7.913  14.763   4.121
 7742W        W74173  23.155   4.237   4.511
 7743W        W74174  17.105  27.743   0.864
 7744W        W74175   3.863  35.631  11.159
 7745W        W74176   4.173  35.609   4.048
 7746W        W74177   4.034  33.826   1.502
 7747W        W74178  25.085  28.072   1.361
 7748W        W74179  44.328   5.213  12.578
 7749W        W74180   6.828  36.633  14.916
 7750W        W74181  24.714  28.540  14.293
 7751W        W74182  29.177  20.319  14.013
 7752W        W74183  12.317  17.446   2.203
 7753W        W74184   1.034  31.014   3.399
 7754W        W74185   0.828  11.640  13.970
 7755W        W74186  34.533  41.472   2.624
 7756W        W74187  41.803  11.756  12.150
 7757W        W74188   0.273  33.967   3.667
 7758W        W74189  24.604  33.474  10.237
 7759W        W74190   9.416   1.439   1.738
 7760W        W74191  28.126  32.779  11.138
 7761W        W74192  29.761  11.749  11.600
 7762W        W74193  27.954  12.291  12.464
 7763W        W74194  12.695   4.464   1.833
 7764W        W74195  12.753  40.914  11.555
 7765W        W74196   7.280  31.617   1.911
 7766W        W74197  15.840  39.315   3.205
 7767W        W74198  19.311   5.631  14.910
 7768W        W74199  43.263  31.441  12.335
 7769W        W74200  16.644   3.387  12.528
 7770W        W74201  18.315  31.122  11.088
 7771W        W74202  36.306  22.779  14.479
 7772W        W74203   7.876  42.302  11.962
 7773W        W74204   6.369  24.769  14.053
 7774W        W74205  43.877  33.982   4.715
 7775W        W74206  16.896  16.147   1.784
 7776W        W74207  41.953  13.658   0.874
 7777W        W74208  19.171  39.432   1.514
 7778W        W74209  28.890   3.935   2.842
 7779W        W74210  14.315  13.080  13.585
 7780W        W74211   9.194  27.248  10.841
 7781W        W74212  41.368   7.202  12.089
 7782W        W74213   3.134  40.844  14.852
 7783W        W74214  41.407  44.896   0.981
 7784W        W74215  31.341  18.228   2.081
 7785W        W74216   8.961   6.784   1.484
 7786W        W74217  27.207  16.523   1.345
 7787W        W74218  25.654  44.932   3.287
 7788W        W74219  43.581  35.970   4.418
 7789W        W74220  16.374  22.952   2.937
 7790W        W74221   6.381  15.135  11.500
 7791W        W74222  11.263  28.650  10.719
 7792W        W74223  40.272  21.962  12.034
 7793W        W74224  27.890  25.130   5.042
 7794W        W74225  13.555  32.559   0.460
 7795W        W74226  33.898  36.429  14.724
 7796W        W74227   5.869  32.950  11.581
 7797W        W74228   4.838  39.020  11.020
 7798W        W74229   2.937  28.064   2.782
 7799W        W74230  17.164  28.796  11.603
 7800W        W74231  17.026  32.570   0.277
 7801W        W74232  24.003  19.978   4.073
 7802W        W74233  25.107  40.380   3.791
 7803W        W74234  14.643  40.426  10.662
 7804W        W74235  26.610  36.006  11.130
 7805W        W74236  43.777   4.300  13.939
 7806W        W74237   9.233  20.091   2.438
 7807W        W74238   4.644   2.742   0.550
 7808W        W74239  41.970  40.310  13.915
 7809W        W74240  32.927   0.842   3.828
 7810W        W74241  17.148   9.537   3.382
 7811W        W74242  27.585   9.663   2.209
 7812W        W74243   2.854  17.703  12.769
 7813W        W74244  36.203  23.038   0.446
 7814W        W74245  39.279  10.250  11.111
 7815W        W74246  16.144   9.125  14.598
 7816W        W74247  20.550  32.432   0.002
 7817W        W74248  24.531  32.543   4.526
 7818W        W74249  43.179  15.371   3.903
 7819W        W74250  39.547   1.278   4.048
 7820W        W74251  19.355  25.537   2.824
 7821W        W74252  20.509  38.026  14.359
 7822W        W74253  32.394  24.469  11.588
 7823W        W74254  43.595  38.086  10.580
 7824W        W74255  10.925   1.687  11.810
 7825W        W74256  22.011  29.622  13.961
 7826W        W74257  19.819   1.833   2.833
 7827W        W74258  42.261  38.978   0.985
 7828W        W74259   1.359  34.998   1.336
 7829W        W74260  38.305   0.435  14.897
 7830W        W74261  13.800  22.985   4.896
 7831W        W74262   5.183  24.521   2.691
 7832W        W74263   8.398  23.477   4.251
 7833W        W74264   6.776   1.542  14.122
 7834W        W74265   2.971  20.050   0.225
 7835W        W74266  19.535  22.218   0.696
 7836W        W74267  24.268  16.878   2.225
 7837W        W74268  17.811  36.205   4.154
 7838W        W74269  19.161  17.850  13.576
 7839W        W74270  18.136  14.701   0.409
 7840W        W74271  23.562  28.116  11.535
 7841W        W74272   2.645  16.010   4.743
 7842W        W74273  17.724  15.617  11.873
 7843W        W74274  17.397  33.026   0.344
 7844W        W74275  36.573  20.060   4.330
 7845W        W74276  23.102  25.436  12.177
 7846W        W74277  20.165  20.170   3.189
 7847W        W74278  31.465  12.373   2.812
 7848W        W74279  20.809  15.874  11.063
 7849W        W74280   0.040  12.531   0.030
 7850W        W74281   0.492  11.903   1.094
 7851W        W74282  24.062   1.977   0.299
 7852W        W74283  40.907   7.901  12.179
 7853W        W74284  33.350  25.420  13.960
 7854W        W74285   2.168   7.973  12.951
 7855W        W74286  30.381  41.819   4.473
 7856W        W74287  19.475   3.351  13.878
 7857W        W74288  32.509  18.701  14.695
 7858W        W74289  31.604   7.236  12.371
 7859W        W74290  37.273  38.563  13.384
 7860W        W74291  14.703  42.227  14.803
 7861W        W74292  39.160   7.696   4.028
 7862W        W74293  34.521  29.160  12.880
 7863W        W74294  16.219  29.225   2.790
 7864W        W74295  26.765  41.503  11.189
 7865W        W74296  22.288  26.940  13.607
 7866W        W74297  20.105  43.972   2.130
 7867W        W74298  38.266  28.549  11.778
 7868W        W74299   0.312  43.585   1.503
 7869W        W74300  17.683  15.244   3.578
 7870W        W74301   4.023  37.633  13.434
 7871W        W74302  12.151  17.047  13.529
 7872W        W74303  16.075  36.341  12.065
 7873W        W74304  42.585   8.336  11.633
 7874W        W74305  11.092   1.174   2.739
 7875W        W74306  38.316   0.334  12.447
 7876W        W74307  35.038  24.562  14.773
 7877W        W74308  19.219  27.499   1.377
 7878W        W74309  25.806  44.031   1.801
 7879W        W74310  38.355  35.380   2.041
 7880W        W74311  22.266  27.003   2.856
 7881W        W74312   4.020  33.182  12.372
 7882W        W74313  11.258  13.302  14.583
 7883W        W74314   8.954   3.537   0.490
 7884W        W74315  35.803   3.265  10.805
 7885W        W74316  22.676   3.359   4.209
 7886W        W74317  27.479   6.872   2.081
 7887W        W74318  17.180  35.470  14.545
 7888W        W74319  31.416   3.325  12.054
 7889W        W74320   9.088  20.585   2.114
 7890W        W74321  43.694   0.147   1.141
 7891W        W74322  41.502  21.588   1.496
 7892W        W74323  27.247  20.198  11.210
 7893W        W74324  17.068  33.566   1.414
 7894W        W74325  24.381  42.538  13.432
 7895W        W74326   6.841   3.660   4.763
 7896W        W74327   5.151  16.135   2.342
 7897W        W74328   5.753   8.887  10.479
 7898W        W74329  26.636  18.525   9.879
 7899W        W74330  32.080  35.819   0.791
 7900W        W74331  11.430  12.570  12.207
 7901W        W74332  32.373   1.032  10.616
 7902W        W74333  26.506  17.391  13.979
 7903W        W74334  31.190  17.421   4.255
 7904W        W74335  33.582  24.644   2.964
 7905W        W74336  26.404   7.235  10.256
 7906W        W74337  13.148  16.280   2.563
 7907W        W74338  13.311   8.145   1.755
 7908W        W74339  41.048   7.904  14.049
 7909W        W74340  17.843  17.857  11.975
 7910W        W74341   9.211  21.136   0.304
 7911W        W74342   2.930  44.443  13.291
 7912W        W74343  27.413   9.342  13.415
 7913W        W74344  29.654   6.113   3.358
 7914W        W74345  14.606  31.562   3.310
 7915W        W74346  24.028  30.123   4.387
 7916W        W74347   4.541   9.710   3.619
 7917W        W74348  18.770  38.409  11.959
 7918W        W74349  16.334  33.798  11.134
 7919W        W74350  27.435  11.316  12.534
 7920W        W74351  36.236  29.848   3.616
 7921W        W74352  21.205  44.329  12.648
 7922W        W74353  34.631  23.032  10.714
 7923W        W74354  17.963  34.968  12.042
 7924W        W74355  41.962  10.624  14.956
 7925W        W74356  28.769  36.489   1.833
 7926W        W74357  43.260  43.691  14.981
 7927W        W74358  17.403  36.242   4.568
 7928W        W74359  44.709  40.064   3.388
 7929W        W74360  11.756  35.960  11.183
 7930W        W74361  24.481   3.611   0.378
 7931W        W74362  28.089  19.207   3.930
 7932W        W74363  15.776  38.241   3.898
 7933W        W74364  31.928  26.083  10.391
 7934W        W74365  44.877  33.123  14.380
 7935W        W74366   9.834  21.253  11.840
 7936W        W74367  29.648  22.988   3.356
 7937W        W74368  14.585  19.331  14.511
 7938W        W74369  32.018   0.697   4.262
 7939W        W74370  28.947  38.396   3.292
 7940W        W74371   5.814  35.173  11.445
 7941W        W74372  12.554   2.832  12.526
 7942W        W74373   3.591  42.774  10.083
 7943W        W74374   3.293   2.425  14.080
 7944W        W74375   9.087  20.234  13.879
 7945W        W74376  36.512  13.846  12.395
 7946W        W74377   1.408  32.433  12.933
 7947W        W74378  27.675   4.283  10.798
 7948W        W74379  22.213  40.024  12.522
 7949W        W74380  19.146  15.699   2.100
 7950W        W74381  26.794  24.043  11.608
 7951W        W74382  10.361  17.009   1.158
 7952W        W74383  44.113  19.300  10.694
 7953W        W74384  31.874  26.985   0.726
 7954W        W74385  19.484  16.821  12.998
 7955W        W74386  38.236  21.466  10.608
 7956W        W74387  13.509  19.151  10.813
 7957W        W74388  16.626   2.555   4.838
 7958W        W74389  17.818   2.544  12.036
 7959W        W74390  41.718  24.998   3.825
 7960W        W74391  31.884  29.479  14.442
 7961W        W74392  19.654  41.840   1.349
 7962W        W74393  37.470   0.194   1.427
 7963W        W74394   8.451  22.194  13.637
 7964W        W74395  11.206  35.762   4.592
 7965W        W74396  10.307  32.636   2.862
 7966W        W74397  25.077  12.699  14.442
 7967W        W74398  38.997   7.261  13.709
 7968W        W74399  40.363  34.782   2.318
 7969W        W74400  22.550  25.100  14.242
 7970W        W74401  16.151  44.774   3.844
 7971W        W74402  44.824   3.489  11.458
 7972W        W74403  35.068  29.609   4.043
 7973W        W74404  41.404  10.724   3.409
 7974W        W74405  44.905   2.893   3.364
 7975W        W74406  37.400  10.444   0.432
 7976W        W74407  19.082  32.147  11.185
 7977W        W74408  33.349  42.390  11.611
 7978W        W74409  28.047  23.561   2.632
 7979W        W74410  30.874   4.377   0.960
 7980W        W74411  27.389  23.449  12.029
 7981W        W74412  24.574  42.327   2.364
 7982W        W74413  28.561  31.954  13.006
 7983W        W74414  31.819   8.383  10.722
 7984W        W74415  16.527  42.641   4.595
 7985W        W74416  12.635   4.849  10.442
 7986W        W74417  21.023  20.511   0.840
 7987W        W74418   7.367  22.721  14.291
 7988W        W74419  37.366  38.874  14.021
 7989W        W74420  35.145   0.260  11.247
 7990W        W74421  14.111  12.440   2.633
 7991W        W74422  23.901  13.793   2.380
 7992W        W74423  14.156  24.389   3.632
 7993W        W74424   0.905  14.606  13.271
 7994W        W74425  40.624  25.007  13.890
 7995W        W74426  43.316   8.229   4.736
 7996W        W74427   7.131  15.256   4.042
 7997W        W74428  23.114  22.604  10.416
 7998W        W74429  19.802   0.551   0.435
 7999W        W74430  24.772  43.432   2.409
 8000W        W74431  22.036  23.098   4.031
 8001W        W74432  35.933   0.011  14.850
 8002W        W74433  21.591  42.577  14.358
 8003W        W74434  34.496  40.925   0.399
 8004W        W74435  33.876  35.530   3.653
 8005W        W74436  19.478  23.591   1.886
 8006W        W74437  17.209  25.179   4.068
 8007W        W74438  21.840  22.663   2.703
 8008W        W74439  19.282  34.653  12.816
 8009W        W74440  23.688  36.704  10.919
 8010W        W74441   6.141  42.442  11.843
 8011W        W74442   8.356  15.807   0.955
 8012W        W74443  15.572  42.622  12.408
 8013W        W74444  16.287  42.234   1.924
 8014W        W74445  21.471  20.664   4.215
 8015W        W74446   5.367   0.464   4.866
 8016W        W74447  20.502  17.913   1.862
 8017W        W74448  38.734  17.501   2.852
 8018W        W74449  44.348  41.792  12.710
 8019W        W74450   8.322  10.773  10.626
 8020W        W74451  18.683  11.089   4.662
 8021W        W74452  27.912   9.456  12.519
 8022W        W74453  18.532  39.982  12.564
 8023W        W74454  25.964  37.566  10.573
 8024W        W74455  42.883  39.865   3.116
 8025W        W74456  20.688   0.741   0.543
 8026W        W74457  42.020  34.536  12.413
 8027W        W74458  31.295  37.903   4.887
 8028W        W74459  16.722  12.086   4.746
 8029W        W74460  14.880  36.250  13.359
 8030W        W74461  35.394  22.571   1.310
 8031W        W74462  32.599   8.355   3.660
 8032W        W74463  32.561  28.997   3.775
 8033W        W74464  18.612  42.968  11.113
 8034W        W74465  28.453  14.580   1.857
 8035W        W74466  37.537   0.816   0.792
 8036W        W74467  29.940   8.118  11.605
 8037W        W74468  27.866  34.854  12.680
 8038W        W74469   4.931   6.326   2.163
 8039W        W74470  36.638  14.132   3.704
 8040W        W74471  34.171   9.226  12.521
 8041W        W74472  42.502  29.637   0.305
 8042W        W74473  34.966  28.688   4.506
 8043W        W74474  34.679  34.667  12.755
 8044W        W74475  21.282  44.748   2.665
 8045W        W74476  31.634   5.433  12.455
 8046W        W74477  36.360   6.827  11.629
 8047W        W74478  30.509  37.219  10.472
 8048W        W74479   3.657  26.508   4.877
 8049W        W74480  22.588  15.326  11.072
 8050W        W74481  23.347   4.914   1.290
 8051W        W74482  31.834   9.863   4.361
 8052W        W74483  27.051  32.989  13.890
 8053W        W74484  32.102  24.117  13.845
 8054W        W74485   0.996  30.654  14.793
 8055W        W74486  25.604  40.468  14.469
 8056W        W74487  26.688  44.658   1.099
 8057W        W74488  41.226   1.384  10.504
 8058W        W74489  17.799  16.436  14.466
 8059W        W74490  30.444  41.320   4.350
 8060W        W74491  10.618   8.844   2.177
 8061W        W74492   5.733  39.394   2.800
 8062W        W74493  22.513  10.232   3.808
 8063W        W74494  22.063  43.800   2.950
 8064W        W74495  15.972  28.093  11.454
 8065W        W74496  20.104  23.959  13.850
 8066W        W74497   0.684  38.476   4.283
 8067W        W74498  35.736  33.513  12.890
 8068W        W74499  26.484  25.180   1.405
 8069W        W74500  27.878  31.640  13.768
 8070W        W74501  39.596  36.511   4.492
 8071W        W74502  11.846  38.612  11.577
 8072W        W74503   5.156  27.543   1.182
 8073W        W74504   5.745  32.394   3.144
 8074W        W74505  31.039  44.918   4.293
 8075W        W74506   5.031  37.311  13.349
 8076W        W74507  23.068  35.311  11.552
 8077W        W74508  20.533  12.650   0.529
 8078W        W74509  44.030  37.439   1.915
 8079W        W74510  14.683  21.321   1.234
 8080W        W74511  19.987   1.788  12.495
 8081W        W74512  32.926  16.525  11.196
 8082W        W74513   0.597  40.913   2.943
 8083W        W74514  21.483  30.114  12.554
 8084W        W74515  40.603  14.753   3.637
 8085W        W74516  24.243   2.652  11.412
 8086W        W74517  39.346  38.258  11.475
 8087W        W74518  28.272  20.820  12.417
 8088W        W74519   9.448   2.947   1.293
 8089W        W74520  12.605  23.024  12.565
 8090W        W74521  34.969   3.508  10.334
 8091W        W74522  26.993  36.058   2.816
 8092W        W74523  23.698  13.593  11.362
 8093W        W74524   5.593  34.035  14.934
 8094W        W74525  14.656  41.339   2.817
 8095W        W74526  37.331  39.333   1.206
 8096W        W74527  36.439  15.324  11.693
 8097W        W74528  38.945  31.218  13.517
 8098W        W74529  24.229   1.679   3.591
 8099W        W74530  27.036  26.709   1.258
 8100W        W74531  29.224   2.655  14.604
 8101W        W74532   3.825   5.476   1.316
 8102W        W74533  17.577  11.641   4.316
 8103W        W74534   5.509   1.342  12.663
 8104W        W74535  27.999   3.281   2.219
 8105W        W74536  17.524   2.994  12.075
 8106W        W74537  14.040  20.124  14.994
 8107W        W74538  44.330  43.264  12.538
 8108W        W74539  22.565  24.141   0.292
 8109W        W74540  34.337  11.568  11.973
 8110W        W74541  33.557  34.810   0.493
 8111W        W74542  26.231  41.953   2.643
 8112W        W74543  33.531  38.925   3.929
 8113W        W74544  22.086  41.814  14.306
 8114W        W74545   1.535   5.747  13.479
 8115W        W74546  39.267  43.316   4.652
 8116W        W74547   0.549  10.736  10.381
 8117W        W74548  31.406  15.565   0.301
 8118W        W74549  41.501  32.193   1.100
 8119W        W74550   6.308  26.967   4.111
 8120W        W74551  17.635  11.732  13.091
 8121W        W74552  14.242  30.809   4.628
 8122W        W74553   0.829  20.412  14.978
 8123W        W74554  18.798  33.370   1.452
 8124W        W74555  36.446  37.501   3.916
 8125W        W74556   1.314  22.470  14.119
 8126W        W74557  29.917  13.189   3.711
 8127W        W74558   6.264   3.495   4.194
 8128W        W74559  14.321  38.623   2.169
 8129W        W74560  16.094   1.226  12.593
 8130W        W74561  40.316  37.568   1.390
 8131W        W74562   0.536  19.750  13.938
 8132W        W74563  21.531  18.295   2.756
 8133W        W74564  44.748  21.544   3.147
 8134W        W74565  10.688  30.318  14.450
 8135W        W74566  43.275  21.989  11.619
 8136W        W74567  34.513  32.478  10.918
 8137W        W74568  30.275  14.272   4.217
 8138W        W74569  20.992  23.024   2.928
 8139W        W74570  13.313  33.742  10.345
 8140W        W74571  37.630  25.632  10.660
 8141W        W74572  38.982  28.856   0.035
 8142W        W74573  17.970   4.842   0.871
 8143W        W74574  42.411  13.722   4.385
 8144W        W74575  21.750  25.473   3.637
 8145W        W74576  34.636  11.263   0.578
 8146W        W74577  14.970   5.870   2.741
 8147W        W74578  41.577  26.565  12.881
 8148W        W74579   1.272  43.327   2.864
 8149W        W74580  16.413  26.111   0.303
 8150W        W74581  39.463  13.898  13.377
 8151W        W74582  35.378  10.924  14.042
 8152W        W74583   1.735  27.664   0.365
 8153W        W74584  17.797  12.788  14.364
 8154W        W74585  14.848   2.259   2.222
 8155W        W74586  25.746  25.546  12.011
 8156W        W74587   5.119   7.541  12.010
 8157W        W74588  24.733  36.966   1.439
 8158W        W74589  13.563  13.654   1.345
 8159W        W74590  35.945  28.202   1.463
 8160W        W74591  37.501  21.188   0.760
 8161W        W74592  16.863  23.527   3.668
 8162W        W74593  17.695  11.279  12.835
 8163W        W74594  44.186  30.643  10.540
 8164W        W74595  17.758  39.507   3.657
 8165W        W74596  41.993  43.944   1.351
 8166W        W74597   6.151   2.468  12.955
 8167W        W74598  24.622   4.712  12.067
 8168W        W74599  39.970   6.425   1.426
 8169W        W74600  25.902   1.941  12.371
 8170W        W74601  16.156   5.968   4.168
 8171W        W74602  37.506  27.484   2.391
 8172W        W74603   0.669   2.300   3.857
 8173W        W74604  17.470  43.425   2.753
 8174W        W74605  34.474  39.197  10.613
 8175W        W74606   6.206  16.811  14.993
 8176W        W74607  16.714   6.181  14.223
 8177W        W74608  38.272   6.180   2.307
 8178W        W74609  37.580  26.080   4.098
 8179W        W74610  32.723  20.019   1.875
 8180W        W74611  16.679  18.217   2.116
 8181W        W74612  10.472  14.725   4.192
 8182W        W74613  13.676  39.625  12.445
 8183W        W74614  24.728  42.769   2.607
 8184W        W74615  15.220  42.316  14.858
 8185W        W74616  43.807  36.890  11.962
 8186W        W74617  44.996   1.414   1.583
 8187W        W74618   7.154  17.357  12.029
 8188W        W74619  26.695   3.504  14.357
 8189W        W74620  10.108  40.799  10.217
 8190W        W74621  35.950  14.667   1.730
 8191W        W74622  44.198  29.638  12.379
 8192W        W74623  34.075  31.044  14.056
 8193W        W74624  35.581  19.004  13.457
 8194W        W74625  26.059  43.888   3.847
 8195W        W74626   4.947  36.322   2.146
 8196W        W74627   8.269  23.038  11.524
 8197W        W74628  37.915   3.320  14.619
 8198W        W74629  28.599  33.255   2.158
 8199W        W74630  15.220  11.618   9.875
 8200W        W74631  34.077  18.228   2.241
 8201W        W74632  22.972  40.242  11.979
 8202W        W74633  17.776  14.148  14.250
 8203W        W74634  15.627  23.223  13.648
 8204W        W74635  16.641  18.190  12.156
 8205W        W74636  10.209  16.224  14.530
 8206W        W74637  26.065  26.500  13.804
 8207W        W74638  35.310  35.153   3.287
 8208W        W74639  11.780  16.355  14.122
 8209W        W74640  11.817  14.320  13.510
 8210W        W74641   4.787   6.925  10.623
 8211W        W74642  19.048  42.941  13.430
 8212W        W74643  43.577  28.664   4.495
 8213W        W74644  30.460  25.069   1.837
 8214W        W74645   3.975  26.016  14.212
 8215W        W74646   3.399   6.723  13.482
 8216W        W74647   5.193  41.901   2.129
 8217W        W74648   1.892  15.804  14.533
 8218W        W74649  26.222   7.687  14.351
 8219W        W74650  29.698  18.053   1.394
 8220W        W74651  44.783  35.768  13.800
 8221W        W74652   9.844  30.093   2.771
 8222W        W74653  33.920  35.488  13.511
 8223W        W74654  24.618  23.061  11.718
 8224W        W74655  33.083  10.403   0.753
 8225W        W74656   5.169  31.851   4.466
 8226W        W74657   8.793   8.865   0.709
 8227W        W74658   6.744  23.373   1.680
 8228W        W74659  15.503  21.234   3.722
 8229W        W74660  20.555  12.518  10.726
 8230W        W74661  11.119  11.668  14.768
 8231W        W74662  38.633  25.743  10.277
 8232W        W74663   3.832  26.532   1.884
 8233W        W74664  11.646  33.203   3.736
 8234W        W74665  30.860  27.759  11.186
 8235W        W74666   6.323   6.900   4.339
 8236W        W74667  43.236  15.624   1.694
 8237W        W74668  27.541  37.498   2.204
 8238W        W74669   5.810  32.200   1.395
 8239W        W74670  33.397   8.702   3.059
 8240W        W74671  12.305  26.243   1.764
 8241W        W74672   0.445  13.082   4.135
 8242W        W74673  17.942  24.491  14.488
 8243W        W74674  24.212  11.255  10.766
 8244W        W74675  15.023  31.820  14.327
 8245W        W74676  16.836  32.857   2.906
 8246W        W74677  43.725  12.645  13.593
 8247W        W74678  38.076  25.644   4.557
 8248W        W74679   3.693  38.470   4.208
 8249W        W74680  20.614  12.161   4.229
 8250W        W74681  26.251  40.421  14.550
 8251W        W74682  11.014  12.254  12.126
 8252W        W74683  14.046  18.551  10.712
 8253W        W74684  26.775  19.218  11.621
 8254W        W74685   9.755  42.266   2.237
 8255W        W74686  27.513  25.108   2.325
 8256W        W74687  39.566   3.986   4.701
 8257W        W74688  37.212  21.023  14.388
 8258W        W74689  11.675  32.041   2.011
 8259W        W74690  31.475  31.656   3.657
 8260W        W74691  32.852  35.934  10.841
 8261W        W74692  44.673  29.905   1.782
 8262W        W74693  24.058  25.684   3.084
 8263W        W74694  19.562  22.167   2.723
 8264W        W74695   5.236   4.741  11.193
 8265W        W74696  14.830  17.544   0.959
 8266W        W74697  21.629   4.229  14.481
 8267W        W74698  20.583  18.944   1.955
 8268W        W74699  31.373   6.787  13.524
 8269W        W74700  19.613  21.234   1.017
 8270W        W74701  27.977  44.981   3.289
 8271W        W74702  13.336  25.103   4.029
 8272W        W74703  25.900   9.846   1.665
 8273W        W74704  12.366  10.905   2.070
 8274W        W74705  34.674  25.739  11.687
 8275W        W74706  13.648  10.114  12.696
 8276W        W74707  29.169  17.011  14.889
 8277W        W74708  29.307  13.752   1.359
 8278W        W74709  43.917  10.795   4.860
 8279W        W74710  38.818   9.638  13.379
 8280W        W74711  27.669  15.769  13.838
 8281W        W74712  28.987  38.409   4.358
 8282W        W74713  43.658  33.088   1.278
 8283W        W74714   3.459  15.098   5.072
 8284W        W74715  20.571  20.806  14.465
 8285W        W74716   4.314  13.020  14.905
 8286W        W74717  36.708   1.502   4.329
 8287W        W74718   5.233   7.042  11.210
 8288W        W74719  44.062  12.630  14.632
 8289W        W74720  43.259  31.406   3.320
 8290W        W74721  22.007  17.725   3.085
 8291W        W74722  38.975  36.412  14.414
 8292W        W74723   5.457  12.779  13.121
 8293W        W74724  43.717   4.357  12.527
 8294W        W74725  20.173  14.151  11.180
 8295W        W74726  25.531   3.338   3.952
 8296W        W74727   6.246  43.177   1.475
 8297W        W74728  11.895  25.503  10.878
 8298W        W74729  39.157  30.426  12.215
 8299W        W74730   4.421  42.516  11.393
 8300W        W74731  20.741  44.937  13.464
 8301W        W74732  18.954   3.909   4.108
 8302W        W74733  40.191  29.140  11.287
 8303W        W74734  38.302  36.346   0.720
 8304W        W74735  44.937  17.555   3.721
 8305W        W74736  44.659  29.666  12.162
 8306W        W74737  12.367  32.975  14.251
 8307W        W74738  20.998  21.310  14.910
 8308W        W74739  21.819  18.111   1.562
 8309W        W74740   1.334   3.701  13.885
 8310W        W74741  27.044  25.444  14.467
 8311W        W74742  40.707  41.361   0.999
 8312W        W74743  29.941   8.854  10.830
 8313W        W74744  33.546  28.596  13.554
 8314W        W74745  28.328  29.149   1.424
 8315W        W74746  15.817  14.174   2.608
 8316W        W74747  26.550   7.660   3.164
 8317W        W74748  15.045  41.812  14.807
 8318W        W74749  11.381   8.620   4.235
 8319W        W74750  33.574  31.037   3.130
 8320W        W74751  31.964   2.522   1.793
 8321W        W74752  44.845  36.191  12.577
 8322W        W74753   5.397  31.917   2.405
 8323W        W74754  20.088  30.512  14.281
 8324W        W74755   4.729  30.871   1.762
 8325W        W74756   9.536  18.817   3.905
 8326W        W74757  17.336  38.057  10.648
 8327W        W74758  30.107  12.364  14.788
 8328W        W74759  26.790   2.823   0.737
 8329W        W74760  20.683  41.527   4.076
 8330W        W74761  34.504   9.627   1.218
 8331W        W74762  38.021  42.501   2.254
 8332W        W74763   9.638  20.786  11.210
 8333W        W74764   4.970  43.394  11.138
 8334W        W74765  30.557  11.274  12.091
 8335W        W74766  42.819  20.566  14.037
 8336W        W74767  24.548  41.757  13.535
 8337W        W74768  23.338   4.801  14.565
 8338W        W74769  37.648  31.497   3.208
 8339W        W74770   9.457  38.389  12.917
 8340W        W74771  21.327  13.692   4.532
 8341W        W74772  10.032  26.936   0.930
 8342W        W74773  17.215  19.582  12.921
 8343W        W74774  42.522   9.431   4.578
 8344W        W74775  33.016   3.937  12.815
 8345W        W74776  23.835  20.308   1.239
 8346W        W74777  16.448  37.263  13.097
 8347W        W74778   9.663   9.567  12.171
 8348W        W74779   5.909  35.660  11.558
 8349W        W74780  34.340  43.971  14.218
 8350W        W74781  19.627  29.608  13.361
 8351W        W74782  44.768  27.644   0.371
 8352W        W74783  20.400  33.809  13.833
 8353W        W74784  27.772  40.090  13.838
 8354W        W74785  39.492  35.292  11.174
 8355W        W74786  32.462   0.532  13.659
 8356W        W74787  31.720  27.448   0.506
 8357W        W74788   5.913  22.680   0.455
 8358W        W74789  30.630   4.725  13.839
 8359W        W74790  12.422   7.139  10.832
 8360W        W74791  35.516  22.360   2.612
 8361W        W74792  40.671  25.867  11.764
 8362W        W74793  36.034  32.165  10.022
 8363W        W74794  12.732  40.891   4.443
 8364W        W74795  22.879  33.934   0.845
 8365W        W74796  29.621  11.744   5.006
 8366W        W74797   3.627  40.847  12.374
 8367W        W74798  27.666  13.348   0.401
 8368W        W74799  33.405   3.342  12.956
 8369W        W74800  35.134  40.639  13.012
 8370W        W74801  22.256  15.244  13.909
 8371W        W74802  24.782  32.911  14.341
 8372W        W74803  43.028   2.571  14.245
 8373W        W74804  30.967  15.576   1.358
 8374W        W74805  41.099   3.643   4.916
 8375W        W74806   5.004  42.476   1.261
 8376W        W74807  34.860  13.626   0.361
 8377W        W74808  35.530  43.547   0.592
 8378W        W74809  10.303  26.122  11.998
 8379W        W74810  34.272  19.670  14.511
 8380W        W74811  35.030  38.544   0.500
 8381W        W74812   5.512   7.620  11.611
 8382W        W74813  21.712  38.910   2.724
 8383W        W74814   9.336  16.289  13.955
 8384W        W74815  22.226   1.104  11.969
 8385W        W74816  32.459  40.313  13.041
 8386W        W74817  31.436  41.007  13.898
 8387W        W74818  20.959  21.570  11.576
 8388W        W74819  40.114  40.027   2.219
 8389W        W74820  14.223  20.074  14.024
 8390W        W74821  11.555   0.905   2.877
 8391W        W74822  30.715  13.738  10.452
 8392W        W74823  30.643   2.381  14.876
 8393W        W74824  24.231   5.604  13.375
 8394W        W74825  19.746   1.824  14.803
 8395W        W74826  23.714   3.935   4.187
 8396W        W74827   3.489  28.175  13.929
 8397W        W74828   1.361  37.776   2.725
 8398W        W74829  40.268   9.215  14.312
 8399W        W74830  10.935  23.514   3.745
 8400W        W74831  41.633  12.679  11.978
 8401W        W74832  21.489   9.583   4.936
 8402W        W74833  22.081  40.641   1.206
 8403W        W74834  16.216   6.642   0.245
 8404W        W74835   2.561  36.350   2.973
 8405W        W74836  29.176  43.261   2.488
 8406W        W74837  24.709  25.132   1.677
 8407W        W74838  30.552  37.090   2.751
 8408W        W74839  31.934  43.364  13.292
 8409W        W74840  10.288  31.025  14.483
 8410W        W74841  11.029  41.099   2.366
 8411W        W74842   4.306  29.186  12.798
 8412W        W74843  24.513  43.971   3.586
 8413W        W74844   6.687  43.057  11.910
 8414W        W74845  38.516  32.400  14.163
 8415W        W74846  40.072  20.644   4.130
 8416W        W74847  37.960  21.250  10.219
 8417W        W74848  18.607  42.386   1.866
 8418W        W74849  37.716  37.353  10.477
 8419W        W74850  23.044  28.685   1.845
 8420W        W74851  25.535  31.112   0.692
 8421W        W74852  39.344  44.348   4.467
 8422W        W74853  35.036   7.906  13.916
 8423W        W74854  44.862   0.920   2.869
 8424W        W74855  27.426  26.279   3.267
 8425W        W74856  18.144   3.205   2.697
 8426W        W74857  20.269   8.175  14.644
 8427W        W74858  16.240   8.379  14.544
 8428W        W74859   5.000   3.806   1.834
 8429W        W74860  20.915  18.892  12.512
 8430W        W74861  40.695  17.879   3.172
 8431W        W74862  36.986  39.889   1.914
 8432W        W74863  17.893  11.927  14.056
 8433W        W74864  30.104  10.612  13.936
 8434W        W74865  21.478  18.701   1.800
 8435W        W74866   3.527  30.498  13.914
 8436W        W74867  29.066  14.691  10.653
 8437W        W74868  42.941   4.283  11.893
 8438W        W74869  37.148  26.225   1.342
 8439W        W74870  33.305  24.722   5.075
 8440W        W74871  34.570   8.048  11.858
 8441W        W74872   7.760  21.965  14.328
 8442W        W74873  33.936  10.904  10.713
 8443W        W74874  18.392  31.359   3.250
 8444W        W74875   8.275  31.909  12.947
 8445W        W74876  27.731   3.947  12.618
 8446W        W74877  39.680  14.106  10.648
 8447W        W74878  40.837  28.972  14.468
 8448W        W74879  18.403  43.427  12.637
 8449W        W74880  29.648   0.683   3.647
 8450W        W74881  27.514  23.798   3.277
 8451W        W74882  42.938  26.103  10.673
 8452W        W74883  30.494  20.430   1.866
 8453W        W74884  22.916  35.343  12.506
 8454W        W74885   8.006   8.256  11.010
 8455W        W74886  25.739  30.956   0.237
 8456W        W74887  39.459  25.993   4.565
 8457W        W74888   3.469   6.935  11.736
 8458W        W74889  35.111  38.835   2.265
 8459W        W74890  32.209  10.244   2.578
 8460W        W74891   2.291  32.076  14.773
 8461W        W74892  23.152  42.999  12.483
 8462W        W74893  37.574  13.739   3.727
 8463W        W74894  22.809  32.014   3.318
 8464W        W74895  15.111  20.142   4.089
 8465W        W74896  19.055  15.252  11.514
 8466W        W74897  10.860  28.464  12.499
 8467W        W74898  40.065   7.329   2.989
 8468W        W74899  28.376  36.129   2.725
 8469W        W74900  22.731  27.052  13.348
 8470W        W74901  19.119  21.662  12.367
 8471W        W74902   9.028   1.234  12.621
 8472W        W74903   6.978  19.590  14.952
 8473W        W74904   2.872  13.277   1.372
 8474W        W74905   7.954  43.926  11.149
 8475W        W74906   9.813   2.592  13.588
 8476W        W74907  25.460  11.731   0.965
 8477W        W74908  18.252  33.238   0.755
 8478W        W74909  18.269  30.255  14.468
 8479W        W74910  10.574  36.101   0.325
 8480W        W74911  22.467  31.972   2.928
 8481W        W74912  36.314  15.698   0.525
 8482W        W74913   2.709  16.156   0.728
 8483W        W74914  27.626  19.380  11.414
 8484W        W74915  41.543  44.217  13.430
 8485W        W74916  13.836  14.287   2.424
 8486W        W74917   3.254  21.489   3.628
 8487W        W74918  22.122  44.310  12.594
 8488W        W74919  41.846  16.311   4.322
 8489W        W74920   3.485  36.237  12.243
 8490W        W74921  12.691  42.400   2.880
 8491W        W74922  21.078  23.154  12.262
 8492W        W74923  39.378   0.396   1.463
 8493W        W74924  37.410  41.214   0.536
 8494W        W74925  33.010  41.247  11.340
 8495W        W74926  14.600  36.790   1.343
 8496W        W74927  30.408  35.304  14.031
 8497W        W74928  14.556  41.934  14.336
 8498W        W74929  34.026  19.240   4.182
 8499W        W74930  23.465  27.581   0.290
 8500W        W74931  39.471  16.253   4.847
 8501W        W74932  44.697  32.998  12.575
 8502W        W74933  17.214  15.316   1.334
 8503W        W74934  12.282  42.710  11.151
 8504W        W74935  20.738  43.262   0.861
 8505W        W74936  27.695  21.414  10.664
 8506W        W74937  33.341  40.761   2.684
 8507W        W74938  30.440  38.796   2.131
 8508W        W74939  40.571  27.013   3.053
 8509W        W74940  14.185  27.357  13.505
 8510W        W74941  34.632  19.210   4.970
 8511W        W74942  41.501  36.263   3.977
 8512W        W74943  12.921  38.401  11.671
 8513W        W74944  41.889  41.804  10.608
 8514W        W74945  14.687  28.405  14.232
 8515W        W74946  36.231  42.769   1.211
 8516W        W74947  36.497   5.442  11.957
 8517W        W74948  31.459  18.754  13.620
 8518W        W74949  18.377  23.766   3.768
 8519W        W74950  39.424  36.327   4.046
 8520W        W74951  13.131  30.144  14.002
 8521W        W74952   5.774   4.733  10.461
 8522W        W74953  30.978  13.111  11.986
 8523W        W74954  23.957   5.177  13.438
 8524W        W74955  34.393   9.344  12.089
 8525W        W74956  24.185  17.904   1.373
 8526W        W74957   3.875  13.496  13.214
 8527W        W74958  38.923  13.588  12.037
 8528W        W74959  15.439  20.669  14.169
 8529W        W74960  16.672  19.643  12.197
 8530W        W74961  29.622  42.013   1.442
 8531W        W74962  36.403   2.448  11.167
 8532W        W74963  27.000   0.338  11.799
 8533W        W74964  12.718  42.156   0.842
 8534W        W74965  10.141  42.077  12.664
 8535W        W74966  21.088  24.174  13.960
 8536W        W74967  19.948  14.017   3.200
 8537W        W74968  16.655  39.963   3.208
 8538W        W74969  11.756  27.908   2.626
 8539W        W74970  37.414  38.982   1.670
 8540W        W74971  39.614  17.830  14.528
 8541W        W74972  21.654   5.957   4.533
 8542W        W74973  36.595  43.838  13.437
 8543W        W74974  16.564  15.965   4.363
 8544W        W74975  10.045  15.602   3.175
 8545W        W74976  16.808   0.421   0.943
 8546W        W74977  31.367  32.322  10.886
 8547W        W74978  12.452  22.836   1.701
 8548W        W74979  34.672   2.952   0.464
 8549W        W74980  18.474  41.890   4.288
 8550W        W74981   3.472  32.179   4.122
 8551W        W74982  39.982  18.366   1.488
 8552W        W74983  14.112  42.761  14.332
 8553W        W74984  28.990   3.889  13.984
 8554W        W74985  15.003  33.248  11.082
 8555W        W74986  36.920   8.172   2.789
 8556W        W74987  42.626  41.853   0.551
 8557W        W74988  14.233  27.609  13.050
 8558W        W74989  29.582  43.733   3.702
 8559W        W74990  19.781  13.600  12.539
 8560W        W74991  17.212  15.952  12.077
 8561W        W74992   6.406   4.354  14.988
 8562W        W74993  29.715  23.624   4.585
 8563W        W74994  23.090  17.526   3.558
 8564W        W74995  23.689  34.854   1.286
 8565W        W74996  15.236  22.651  12.012
 8566W        W74997  14.572   6.190   1.710
 8567W        W74998   1.251   8.963   3.303
 8568W        W74999  24.895   5.413   0.815
 8569W        W75000  33.914  43.864  13.287
 8570W        W75001  18.667  44.319  13.909
 8571W        W75002  36.449  29.985  14.221
 8572W        W75003  18.684  39.009   3.609
 8573W        W75004  18.982  43.290   1.638
 8574W        W75005  21.518  26.236  11.103
 8575W        W75006  19.367   8.164  14.359
 8576W        W75007  21.366  17.179  11.588
 8577W        W75008  40.385  29.682  14.850
 8578W        W75009  21.103  26.141   2.602
 8579W        W75010  25.181  33.026   0.664
 8580W        W75011  34.379  18.222   1.824
 8581W        W75012  28.915  35.118   3.771
 8582W        W75013  37.548  42.195  12.428
 8583W        W75014  25.217  40.899   0.705
 8584W        W75015  23.800  33.877  10.685
 8585W        W75016  34.295  38.601  11.110
 8586W        W75017  31.501   0.778   1.433
 8587W        W75018  38.007   2.693  12.521
 8588W        W75019  20.917   3.744   4.840
 8589W        W75020  43.375  17.842   1.285
 8590W        W75021  14.085  17.108  11.059
 8591W        W75022  11.247  32.462   2.677
 8592W        W75023  43.859  14.230   0.972
 8593W        W75024   2.713  10.352   4.496
 8594W        W75025  16.662  34.943   4.373
 8595W        W75026   7.069  26.680   0.353
 8596W        W75027  13.849  21.533   2.785
 8597W        W75028  19.377  32.558  14.297
 8598W        W75029   5.932   9.830  14.825
 8599W        W75030  22.058  10.153  11.655
 8600W        W75031  15.265   5.443   1.051
 8601W        W75032  37.572  19.007   0.825
 8602W        W75033  27.027  34.912   1.704
 8603W        W75034  16.522  34.916   0.958
 8604W        W75035  28.204  18.172   2.350
 8605W        W75036  29.988   2.935  11.032
 8606W        W75037  10.484  20.559   3.313
 8607W        W75038  17.245  13.455   5.135
 8608W        W75039   3.480  14.604  10.698
 8609W        W75040  20.884   2.866   2.570
 8610W        W75041  42.432  16.749   3.816
 8611W        W75042  15.229  15.577  10.628
 8612W        W75043  42.773  40.876  13.785
 8613W        W75044  20.817   7.961   3.723
 8614W        W75045  41.295  29.585  14.962
 8615W        W75046   6.839  42.005   1.570
 8616W        W75047   4.037   8.154  10.935
 8617W        W75048  29.234   1.290   2.158
 8618W        W75049   2.316   1.377  13.739
 8619W        W75050  41.211   1.821  11.272
 8620W        W75051  44.772  18.281  13.429
 8621W        W75052  16.164  29.991  11.491
 8622W        W75053  15.543   5.568  10.302
 8623W        W75054  23.189  33.149   2.275
 8624W        W75055  23.796  41.479   4.213
 8625W        W75056  13.724  22.807   0.228
 8626W        W75057  23.719  38.510   2.714
 8627W        W75058  17.483  14.820   3.801
 8628W        W75059   2.431  44.954  11.102
 8629W        W75060  43.457  42.320   0.034
 8630W        W75061   8.034  36.307   1.922
 8631W        W75062  41.542  11.642  12.914
 8632W        W75063  12.448  38.499   0.267
 8633W        W75064  41.820  29.058  13.559
 8634W        W75065  41.480  36.889   2.298
 8635W        W75066  17.848  17.275   2.728
 8636W        W75067   7.368  40.290  13.498
 8637W        W75068  31.985  37.866   0.567
 8638W        W75069  43.155  28.413   1.341
 8639W        W75070  20.004  38.573   4.008
 8640W        W75071  27.838  34.569  10.967
 8641W        W75072  28.041  30.208   3.670
 8642W        W75073  41.140  16.759  14.479
 8643W        W75074   1.429  35.083  14.072
 8644W        W75075  34.940  16.041  13.747
 8645W        W75076  29.163   9.732  11.150
 8646W        W75077   2.870  23.806   3.281
 8647W        W75078  39.850  23.100  10.887
 8648W        W75079  29.357  29.188   0.786
 8649W        W75080   2.972  14.321  11.536
 8650W        W75081  31.408   6.460   2.742
 8651W        W75082  29.101   5.714  13.449
 8652W        W75083  17.361  41.802  13.489
 8653W        W75084   4.910  44.182  13.001
 8654W        W75085  26.519  18.112   0.704
 8655W        W75086  19.436  19.301   4.760
 8656W        W75087   3.626  34.638  11.281
 8657W        W75088  19.230  19.990  10.531
 8658W        W75089   4.267  28.521   2.810
 8659W        W75090  13.962  34.480  11.924
 8660W        W75091   0.945  43.693  11.494
 8661W        W75092  41.403  43.783   4.536
 8662W        W75093  30.747  15.692  11.298
 8663W        W75094  17.664   6.478   1.417
 8664W        W75095  42.962  16.966  10.066
 8665W        W75096  20.155   0.270   3.310
 8666W        W75097   5.602   4.818   2.341
 8667W        W75098   5.138   6.360   3.168
 8668W        W75099  41.467  13.901   5.014
 8669W        W75100  38.437  39.416  11.141
 8670W        W75101  30.627  19.688  12.902
 8671W        W75102  23.585   1.672   1.560
 8672W        W75103  30.499   9.923  14.018
 8673W        W75104  35.019   5.468   0.309
 8674W        W75105  20.103   1.796  11.991
 8675W        W75106  39.262  14.715   4.115
 8676W        W75107  41.398  13.779  12.801
 8677W        W75108   4.446  34.030  12.102
 8678W        W75109  20.419  36.501  10.299
 8679W        W75110  29.187  18.536  13.494
 8680W        W75111  40.278  17.632  13.972
 8681W        W75112  20.166  21.641   3.398
 8682W        W75113  36.032  10.799  12.908
 8683W        W75114  18.827  20.924  14.047
 8684W        W75115  23.070  30.859  12.958
 8685W        W75116  41.376  43.778  10.874
 8686W        W75117  30.321  17.690  13.015
 8687W        W75118   6.336  16.026  12.469
 8688W        W75119   3.068  12.974   4.971
 8689W        W75120  20.072  44.079  14.660
 8690W        W75121  14.069  42.289  13.558
 8691W        W75122  38.462  30.088  10.040
 8692W        W75123  17.861  28.082  13.109
 8693W        W75124  41.122  40.853   1.701
 8694W        W75125  39.799  14.703  14.421
 8695W        W75126  27.759  15.396  10.826
 8696W        W75127  10.793  41.091   3.212
 8697W        W75128  19.070  24.236  11.760
 8698W        W75129  38.832   0.253  12.418
 8699W        W75130   3.869  20.966  13.641
 8700W        W75131   0.066   9.689  11.090
 8701W        W75132  35.782  25.528   4.067
 8702W        W75133  12.597   6.842   2.345
 8703W        W75134  26.994  36.539   2.617
 8704W        W75135  25.049  38.549   9.941
 8705W        W75136  16.443   0.425  12.195
 8706W        W75137  11.690  27.747  14.354
 8707W        W75138  36.455  30.487   1.967
 8708W        W75139  23.459  16.231   3.687
 8709W        W75140   1.727  31.471   1.860
 8710W        W75141  15.873   0.197  11.065
 8711W        W75142  13.388   1.499  14.318
 8712W        W75143   4.895  10.182   1.668
 8713W        W75144  14.174  16.000  10.970
 8714W        W75145   4.636  12.188  10.944
 8715W        W75146  11.910  32.912   4.092
 8716W        W75147  42.168  33.599   4.562
 8717W        W75148  40.881   6.875  12.029
 8718W        W75149  10.077   8.158   2.771
 8719W        W75150   9.617   7.739  14.662
 8720W        W75151  23.909  13.171  10.737
 8721W        W75152   2.140   4.173   0.115
 8722W        W75153  27.646  12.094   4.575
 8723W        W75154  13.630  29.702   0.161
 8724W        W75155  41.610  40.290   2.237
 8725W        W75156  37.343  29.437  12.787
 8726W        W75157  17.989   9.143  13.993
 8727W        W75158  12.800  24.662  14.961
 8728W        W75159  14.340  11.367   0.880
 8729W        W75160  44.421  29.868  11.253
 8730W        W75161  32.853  22.559   1.073
 8731W        W75162  33.942  20.212  13.248
 8732W        W75163  33.146  33.053   3.779
 8733W        W75164  32.417   8.859  11.592
 8734W        W75165  13.150  18.702   1.404
 8735W        W75166   2.977  25.640  14.487
 8736W        W75167  39.499  19.982  11.316
 8737W        W75168  30.281   4.874   0.742
 8738W        W75169  44.255  21.673   1.486
 8739W        W75170   7.772  36.833  11.169
 8740W        W75171  40.471  37.575   2.775
 8741W        W75172  28.954  44.328   4.479
 8742W        W75173  24.483   6.819  10.956
 8743W        W75174   4.173  22.167  11.136
 8744W        W75175  10.723   2.172   4.080
 8745W        W75176  25.151  35.498   1.728
 8746W        W75177  42.603   5.959   2.249
 8747W        W75178  17.855  30.536   4.186
 8748W        W75179  28.564  10.888  11.206
 8749W        W75180  35.269  13.131   3.557
 8750W        W75181  24.446  39.936  13.383
 8751W        W75182  38.966  18.135  13.922
 8752W        W75183  40.909  11.620   4.535
 8753W        W75184  32.550  23.973  12.484
 8754W        W75185   0.092  22.260   2.678
 8755W        W75186  12.599   1.749  14.364
 8756W        W75187  44.321  28.508  14.290
 8757W        W75188  21.237  37.070   1.749
 8758W        W75189   5.709  33.885  11.714
 8759W        W75190  27.536  40.836  13.011
 8760W        W75191  15.788  38.531  11.312
 8761W        W75192  26.135  12.565  11.141
 8762W        W75193  37.084  41.199   5.180
 8763W        W75194   1.690  24.378   3.695
 8764W        W75195  22.685   5.672   0.393
 8765W        W75196   8.841  11.729  13.578
 8766W        W75197  30.301  13.285  14.960
 8767W        W75198   3.327  17.221   1.391
 8768W        W75199  23.751  39.659   1.866
 8769W        W75200  42.395   6.869  13.382
 8770W        W75201  33.270   9.095   1.802
 8771W        W75202  18.716   7.779  13.947
 8772W        W75203   8.908  10.806   1.476
 8773W        W75204  25.193  20.077   0.156
 8774W        W75205   9.728   3.131   3.417
 8775W        W75206  43.558   6.283   0.851
 8776W        W75207  40.853  28.882   0.022
 8777W        W75208   5.633  29.299   0.283
 8778W        W75209  30.958  36.095  11.681
 8779W        W75210  19.763   9.306   0.036
 8780W        W75211  22.377   1.319  11.525
 8781W        W75212  40.482  28.690   1.351
 8782W        W75213   2.158  32.875  13.597
 8783W        W75214  36.635  42.727  10.160
 8784W        W75215  36.548   0.983  12.598
 8785W        W75216  20.700   1.993   3.416
 8786W        W75217  42.520  28.596   1.395
 8787W        W75218   3.274  14.388  11.117
 8788W        W75219  36.717  13.490  11.700
 8789W        W75220  10.745   0.721  11.574
 8790W        W75221  11.807  39.820  10.642
 8791W        W75222  32.000   8.475   0.524
 8792W        W75223  17.566  10.429  14.363
 8793W        W75224   1.483   7.648   3.165
 8794W        W75225  24.457  44.206   3.121
 8795W        W75226   5.440   5.326   2.433
 8796W        W75227  22.075  20.805  13.531
 8797W        W75228   0.855  33.543   5.297
 8798W        W75229  20.723  21.672   1.679
 8799W        W75230  23.255  29.823   0.519
 8800W        W75231  20.354  11.242   2.555
 8801W        W75232  39.578  41.080   1.410
 8802W        W75233  14.199   0.540   4.872
 8803W        W75234  13.383  42.451  12.884
 8804W        W75235  42.663   4.250  10.669
 8805W        W75236  14.399  40.477   3.672
 8806W        W75237  32.663  40.018  11.580
 8807W        W75238   6.238   3.661  11.739
 8808W        W75239   3.755  20.245  11.678
 8809W        W75240   9.203  16.808  12.958
 8810W        W75241  15.313  39.413   3.281
 8811W        W75242  26.110  44.966  14.836
 8812W        W75243  34.450  38.366  10.239
 8813W        W75244  10.880  17.928   0.583
 8814W        W75245  21.921   0.392  12.448
 8815W        W75246  36.740  14.890  12.467
 8816W        W75247  13.622  19.247   3.284
 8817W        W75248  30.931  38.327  14.911
 8818W        W75249  17.499  16.285  14.947
 8819W        W75250  23.205  42.761   0.387
 8820W        W75251  34.149  22.278  13.161
 8821W        W75252  41.026  29.998  13.501
 8822W        W75253  16.751  24.918  14.508
 8823W        W75254  15.536  15.660   3.595
 8824W        W75255   3.161   6.677  10.884
 8825W        W75256  10.675  13.310   3.214
 8826W        W75257   7.218  38.420  13.090
 8827W        W75258  42.581  29.612   3.762
 8828W        W75259   4.773  30.951  11.578
 8829W        W75260   5.482  11.739  10.969
 8830W        W75261   3.682  15.249  10.271
 8831W        W75262   9.321  20.375  14.313
 8832W        W75263  43.894  41.031   2.091
 8833W        W75264  43.987   4.470  11.189
 8834W        W75265  16.226  13.071   0.041
 8835W        W75266  22.573  35.075  11.558
 8836W        W75267  24.700  16.371   4.367
 8837W        W75268  39.980   3.214   3.117
 8838W        W75269  16.815  42.777  11.549
 8839W        W75270  17.819   8.870  10.739
 8840W        W75271   0.420  16.855  14.282
 8841W        W75272   7.888  31.000  11.195
 8842W        W75273  15.329  26.531   4.654
 8843W        W75274  33.450  35.312  14.796
 8844W        W75275  24.773   4.955   3.957
 8845W        W75276  32.347   2.433   4.920
 8846W        W75277   7.280  42.041   3.682
 8847W        W75278  42.070   4.034   1.947
 8848W        W75279  19.646   4.515   2.258
 8849W        W75280  15.963   0.151  13.851
 8850W        W75281  15.874  36.578   3.244
 8851W        W75282  30.469  24.826  12.412
 8852W        W75283   5.009  30.004  14.363
 8853W        W75284  14.347  28.982  11.989
 8854W        W75285   2.981   9.788   4.723
 8855W        W75286  20.711  41.033   2.287
 8856W        W75287  39.410  39.877  14.877
 8857W        W75288  16.458  23.733  11.148
 8858W        W75289  20.686  18.775  11.594
 8859W        W75290  24.455   0.007  14.518
 8860W        W75291  11.594   9.871   1.933
 8861W        W75292  16.727   5.468  13.797
 8862W        W75293  25.677   0.267   3.689
 8863W        W75294  38.426   0.753   1.156
 8864W        W75295  38.303  41.980  14.017
 8865W        W75296  26.107   7.840   2.914
 8866W        W75297  21.294  26.744  11.931
 8867W        W75298  36.941   6.455  11.564
 8868W        W75299  38.316  26.082  12.470
 8869W        W75300   4.814  42.580   5.113
 8870W        W75301   6.334  25.694   0.623
 8871W        W75302  25.563  16.281   1.291
 8872W        W75303  21.530  43.783  11.938
 8873W        W75304   9.220  20.019   1.919
 8874W        W75305  33.330  18.216   3.813
 8875W        W75306   1.556  43.320  10.991
 8876W        W75307  24.990  35.393   0.274
 8877W        W75308  40.459  19.375   0.747
 8878W        W75309  10.779  16.037   0.300
 8879W        W75310  36.875  32.544   5.461
 8880W        W75311  25.123  32.822   4.707
 8881W        W75312  14.634  17.435   2.757
 8882W        W75313  30.726  14.725   4.241
 8883W        W75314  42.914  13.634  11.686
 8884W        W75315   7.225   9.678  11.021
 8885W        W75316   4.003   0.927  13.027
 8886W        W75317  36.527  36.356  13.906
 8887W        W75318   3.482  14.215   0.076
 8888W        W75319  17.706  17.673   3.848
 8889W        W75320  29.760  39.792  12.762
 8890W        W75321  14.836  39.247   0.774
 8891W        W75322  11.633  14.637   0.922
 8892W        W75323  44.824   2.121  14.935
 8893W        W75324   0.723   8.821   2.324
 8894W        W75325   5.956  39.860   3.275
 8895W        W75326   1.779  20.365  14.478
 8896W        W75327  40.524  23.334   0.227
 8897W        W75328   7.890   6.706  14.390
 8898W        W75329   1.083  21.161  10.677
 8899W        W75330  21.112  41.792  11.190
 8900W        W75331   1.923  25.966   1.260
 8901W        W75332  13.955  31.310   0.768
 8902W        W75333   5.757  44.765   4.816
 8903W        W75334  34.226  42.474   4.576
 8904W        W75335   7.168  35.836   4.531
 8905W        W75336  30.689  32.031   3.639
 8906W        W75337  21.739  33.086   3.421
 8907W        W75338  20.157  28.709   2.381
 8908W        W75339  33.445  40.105   0.053
 8909W        W75340  16.029  39.428  11.753
 8910W        W75341  12.585  24.136   0.924
 8911W        W75342   5.465  10.999  14.466
 8912W        W75343  42.540   1.519   0.327
 8913W        W75344  14.326   6.338   2.165
 8914W        W75345  25.088   7.661   4.279
 8915W        W75346   7.451  42.007   0.893
 8916W        W75347  11.356  14.549   3.855
 8917W        W75348  42.467  17.176   4.129
 8918W        W75349   9.240  26.068   1.562
 8919W        W75350   6.905  38.431   2.722
 8920W        W75351  28.626  30.065  14.882
 8921W        W75352  21.605  23.124   1.158
 8922W        W75353   6.171  12.782   2.192
 8923W        W75354   1.072  16.138  11.132
 8924W        W75355  35.434  23.452   4.739
 8925W        W75356  28.800  40.644   0.040
 8926W        W75357  25.281  31.120   1.146
 8927W        W75358  15.196  24.170  12.888
 8928W        W75359   9.638  37.063   4.436
 8929W        W75360  39.467   4.424  12.487
 8930W        W75361  10.169  21.050   1.744
 8931W        W75362   8.996   6.113   2.467
 8932W        W75363  32.435  18.555   0.707
 8933W        W75364  28.890  39.945   0.427
 8934W        W75365  29.668   6.419  14.330
 8935W        W75366  44.952  11.628   0.014
 8936W        W75367  31.443  10.522  11.109
 8937W        W75368  15.246   6.417   4.132
 8938W        W75369  24.738  41.885  11.477
 8939W        W75370  17.963  17.283  14.350
 8940W        W75371  34.375  38.435  12.037
 8941W        W75372  30.476  18.782  14.046
 8942W        W75373  42.932  39.581   1.734
 8943W        W75374  25.213  22.824  12.552
 8944W        W75375  24.307  16.650   1.767
 8945W        W75376  24.962  26.959  11.093
 8946W        W75377  27.500   9.138   2.161
 8947W        W75378  17.496  42.967   4.285
 8948W        W75379  26.239  22.959   3.201
 8949W        W75380  35.931  12.213   3.437
 8950W        W75381   2.302  28.620  11.877
 8951W        W75382  17.322   6.172   3.317
 8952W        W75383  18.024  24.632  11.140
 8953W        W75384  15.103  38.960   3.142
 8954W        W75385  35.403  40.907  12.612
 8955W        W75386   1.057  19.794   1.795
 8956W        W75387  35.887  10.745  10.862
 8957W        W75388   4.487  39.480  14.488
 8958W        W75389  28.170  29.250  11.263
 8959W        W75390  41.895  13.115  10.534
 8960W        W75391   6.382  31.467   1.278
 8961W        W75392  18.395  37.558   2.213
 8962W        W75393  28.800   1.971  12.361
 8963W        W75394  14.381   8.868  11.414
 8964W        W75395  35.392  16.241  13.521
 8965W        W75396  36.426   8.775  12.049
 8966W        W75397  33.011  27.076  10.638
 8967W        W75398  12.564   6.164   1.830
 8968W        W75399   6.833  28.264   1.169
 8969W        W75400  25.193   7.695   5.119
 8970W        W75401  32.020   5.969  14.288
 8971W        W75402  32.015  16.884  12.973
 8972W        W75403  22.725  42.799  13.865
 8973W        W75404  27.061  42.172   4.211
 8974W        W75405  20.500  31.751  10.037
 8975W        W75406  17.405  15.781  10.273
 8976W        W75407   7.960  10.968   0.372
 8977W        W75408  23.192  29.422   3.671
 8978W        W75409  17.206  23.221  14.874
 8979W        W75410  27.147  29.575   4.543
 8980W        W75411  16.847  36.923  14.300
 8981W        W75412  43.924  25.907  11.851
 8982W        W75413  39.045  21.238   0.875
 8983W        W75414  17.048   3.010   2.695
 8984W        W75415  26.077  12.651  11.646
 8985W        W75416  23.762  11.653  11.563
 8986W        W75417  26.589  41.613   0.305
 8987W        W75418  21.621  43.626   9.730
 8988W        W75419  39.080  10.294  10.337
 8989W        W75420   2.149  44.028   3.668
 8990W        W75421  22.186  36.551   4.098
 8991W        W75422  35.892  20.814   3.338
 8992W        W75423   0.200  29.279  13.972
 8993W        W75424  11.401   7.282   2.728
 8994W        W75425  43.355   8.322   1.523
 8995W        W75426  13.333  12.566   4.556
 8996W        W75427   1.810  43.492  13.296
 8997W        W75428   3.446  18.092   4.224
 8998W        W75429  41.543  20.952  11.514
 8999W        W75430  41.391  20.938   2.237
 9000W        W75431  13.516  19.691  12.011
 9001W        W75432  43.311   7.846   1.746
 9002W        W75433   5.763  28.458   2.748
 9003W        W75434   2.299  41.792  14.405
 9004W        W75435  27.453  29.310  12.019
 9005W        W75436  34.528  42.297  13.060
 9006W        W75437  10.887  41.450  13.610
 9007W        W75438   5.960  32.646   2.713
 9008W        W75439  14.754  32.994   2.801
 9009W        W75440  31.131  10.797   1.477
 9010W        W75441  13.868  43.924  14.010
 9011W        W75442  43.431  14.694  12.866
 9012W        W75443  17.726  38.022  13.313
 9013W        W75444  14.493   4.257  13.364
 9014W        W75445   0.828  27.724   2.649
 9015W        W75446   2.068   2.306  14.585
 9016W        W75447  23.755  18.700   2.820
 9017W        W75448  30.313  13.761   3.584
 9018W        W75449   2.759  30.032   4.599
 9019W        W75450  27.673  19.136   4.822
 9020W        W75451  29.526  20.278  12.459
 9021W        W75452  18.378   2.814   3.608
 9022W        W75453  40.101  11.089  11.458
 9023W        W75454  25.141  39.911   0.730
 9024W        W75455   4.833   9.699  12.182
 9025W        W75456   9.842   6.765  11.217
 9026W        W75457  29.798  38.090   3.178
 9027W        W75458   5.764  36.873  14.963
 9028W        W75459  21.194  30.258   3.318
 9029W        W75460   7.229  12.373   2.917
 9030W        W75461  22.076  12.390   3.693
 9031W        W75462  23.708  27.118   0.439
 9032W        W75463  28.824  26.046   2.736
 9033W        W75464  34.917  30.126   0.358
 9034W        W75465  43.725  39.865  11.922
 9035W        W75466   9.778  44.533   0.964
 9036W        W75467  43.835  12.374   3.705
 9037W        W75468  38.759   4.978  12.123
 9038W        W75469  19.027   9.179   1.272
 9039W        W75470   6.267   2.226   3.779
 9040W        W75471  42.604  16.687   3.297
 9041W        W75472  36.087   6.238  13.270
 9042W        W75473  44.037   5.148   3.328
 9043W        W75474  25.374  11.326  12.452
 9044W        W75475   2.179   0.664  10.662
 9045W        W75476  28.377  37.666  13.463
 9046W        W75477  32.301  41.105  12.567
 9047W        W75478  29.484  42.743  11.491
 9048W        W75479  16.000  24.738   2.444
 9049W        W75480  12.801  11.351   0.913
 9050W        W75481  28.184  21.451   0.202
 9051W        W75482  21.839  26.638  11.146
 9052W        W75483   4.428   2.761  11.406
 9053W        W75484  43.535  13.024  11.502
 9054W        W75485   5.014  10.265   3.735
 9055W        W75486  30.704  44.512  14.276
 9056W        W75487  17.836  33.633  14.848
 9057W        W75488  15.305  38.587  14.452
 9058W        W75489   3.167  42.267   3.699
 9059W        W75490   1.982   1.818   0.492
 9060W        W75491  26.478  44.637   1.938
 9061W        W75492  10.336  20.587   2.505
 9062W        W75493  32.405  27.009   0.762
 9063W        W75494  22.613   6.889  13.110
 9064W        W75495  39.333  24.511   3.854
 9065W        W75496   1.311  11.110  11.490
 9066W        W75497  16.720   9.187  13.821
 9067W        W75498  38.502   9.188   1.433
 9068W        W75499  36.454   0.815  12.086
 9069W        W75500  35.080  44.952   4.818
 9070W        W75501  27.066  39.492   1.354
 9071W        W75502   4.844  25.994  11.781
 9072W        W75503  35.376  42.839  14.802
 9073W        W75504  16.792  34.523  11.481
 9074W        W75505  35.039  32.458   0.513
 9075W        W75506  11.455   9.125   2.779
 9076W        W75507  23.952  16.632  11.620
 9077W        W75508  41.229   8.613  10.684
 9078W        W75509  20.140  37.896   2.320
 9079W        W75510  26.577  35.530  10.910
 9080W        W75511   0.745   4.068  13.343
 9081W        W75512  29.972  13.201  10.712
 9082W        W75513  19.833  31.607  10.702
 9083W        W75514  25.467   1.875   1.245
 9084W        W75515  10.124  17.214  11.440
 9085W        W75516  10.584  39.384   1.797
 9086W        W75517  33.624   3.940  12.089
 9087W        W75518  14.588  34.023   0.906
 9088W        W75519  37.344  44.832   1.059
 9089W        W75520  20.140  30.596  13.493
 9090W        W75521  28.445  27.961  10.721
 9091W        W75522  38.133  36.874  11.596
 9092W        W75523  17.606  13.241  11.917
 9093W        W75524  30.641  23.472   2.830
 9094W        W75525  35.433  10.798  11.104
 9095W        W75526  34.965   9.172  14.334
 9096W        W75527  26.687  30.791  14.727
 9097W        W75528  39.399  10.827  13.416
 9098W        W75529   9.775   4.646  12.529
 9099W        W75530  11.778  41.925  13.916
 9100W        W75531  34.446  41.100   1.761
 9101W        W75532  33.949  22.640  12.641
 9102W        W75533  28.356   4.546  11.538
 9103W        W75534   8.749  41.279   2.229
 9104W        W75535  11.619  20.193  10.858
 9105W        W75536   3.722  21.045   0.405
 9106W        W75537  32.007  36.565  12.504
 9107W        W75538  43.874   2.303   3.956
 9108W        W75539  10.968  13.778   4.253
 9109W        W75540  28.703  34.815   2.206
 9110W        W75541   2.171   2.707   3.649
 9111W        W75542  12.686  30.629  11.511
 9112W        W75543  28.362  33.977  12.942
 9113W        W75544  16.298  25.211   0.220
 9114W        W75545  22.692  40.234  13.483
 9115W        W75546  41.358   6.303  14.309
 9116W        W75547  19.074  12.387   4.558
 9117W        W75548  29.406  10.234   2.253
 9118W        W75549  21.254  26.718  14.950
 9119W        W75550  35.660   8.241   2.287
 9120W        W75551  44.355  19.290  11.146
 9121W        W75552  31.899  27.255  11.949
 9122W        W75553  13.857  42.977  11.613
 9123W        W75554  18.859   0.274   0.596
 9124W        W75555  30.907   7.343   3.731
 9125W        W75556  26.204  42.378   3.345
 9126W        W75557  20.036  38.051  11.747
 9127W        W75558  44.445  19.836  14.510
 9128W        W75559  39.774   7.376   3.472
 9129W        W75560  13.234  38.501   1.253
 9130W        W75561  26.472  22.460  14.944
 9131W        W75562  18.046  37.958  11.506
 9132W        W75563  21.256  36.555   1.908
 9133W        W75564  11.691  35.877  10.161
 9134W        W75565  15.701  15.349  12.569
 9135W        W75566  40.770   6.171  13.950
 9136W        W75567   3.918  30.422  11.654
 9137W        W75568  42.037   7.860  14.922
 9138W        W75569  36.897  22.983  11.306
 9139W        W75570  14.378  42.951   2.462
 9140W        W75571   1.397   0.437   4.285
 9141W        W75572  20.183  27.461   1.853
 9142W        W75573  11.206  34.845  11.055
 9143W        W75574  42.017  14.176  14.312
 9144W        W75575  14.155   8.869   3.149
 9145W        W75576  20.964  11.741  13.571
 9146W        W75577  22.579  34.555   2.644
 9147W        W75578  26.369  39.625  12.453
 9148W        W75579  12.981   0.587  12.791
 9149W        W75580   9.384   8.584  13.993
 9150W        W75581   7.707   2.952  12.316
 9151W        W75582   4.714  44.128  14.266
 9152W        W75583  27.491  38.966  11.941
 9153W        W75584  43.167   6.306  14.457
 9154W        W75585  44.862  32.614  14.450
 9155W        W75586  10.217  17.185   1.640
 9156W        W75587  26.215  10.078   3.822
 9157W        W75588  35.991  27.382  12.635
 9158W        W75589   7.847  28.189  10.800
 9159W        W75590  18.581   1.589  13.950
 9160W        W75591  30.596   8.472  11.562
 9161W        W75592  15.521   6.322  10.736
 9162W        W75593  28.020  36.993   4.242
 9163W        W75594   6.273  23.871  12.938
 9164W        W75595   0.878  43.510  14.401
 9165W        W75596  23.131  35.333   3.248
 9166W        W75597  43.344  38.398   1.251
 9167W        W75598  18.021  41.397   0.738
 9168W        W75599   9.374  13.955  14.090
 9169W        W75600  20.978  16.876   3.248
 9170W        W75601  27.998  16.050   0.228
 9171W        W75602  14.619  21.914  10.688
 9172W        W75603  33.056  22.414  11.996
 9173W        W75604   2.776  43.877  13.992
 9174W        W75605   1.282  37.934   3.226
 9175W        W75606   0.781   4.248  11.977
 9176W        W75607  11.827   3.309   0.179
 9177W        W75608  44.098  41.709   1.036
 9178W        W75609  31.929  24.047   3.039
 9179W        W75610  20.495  39.604  12.147
 9180W        W75611  12.604  10.824   3.767
 9181W        W75612  33.497  24.258   4.386
 9182W        W75613  11.133   9.552   2.247
 9183W        W75614  14.839  29.125   3.545
 9184W        W75615   5.952  14.605   5.035
 9185W        W75616  31.914  30.741   2.771
 9186W        W75617  23.247  29.043  14.769
 9187W        W75618  35.135   4.643   1.449
 9188W        W75619  23.963  41.965   4.075
 9189W        W75620  25.249  14.664  12.171
 9190W        W75621  34.745  16.095  11.702
 9191W        W75622  12.380  37.497   3.794
 9192W        W75623  35.344  14.399  12.064
 9193W        W75624  42.951  31.728   0.044
 9194W        W75625  43.973  11.839   0.820
 9195W        W75626  22.546  44.499   3.321
 9196W        W75627   2.741  42.241   4.031
 9197W        W75628  44.797  42.274  12.030
 9198W        W75629  17.676  37.264  10.705
 9199W        W75630   9.937  10.534   0.305
 9200W        W75631   2.155  13.642   1.699
 9201W        W75632  16.841  35.209   0.187
 9202W        W75633   4.857   5.007   5.081
 9203W        W75634  24.696  22.362  13.002
 9204W        W75635  28.406  20.183  10.741
 9205W        W75636   9.639  18.584  11.218
 9206W        W75637  24.266  16.268  11.822
 9207W        W75638  29.670  21.765   1.342
 9208W        W75639  36.002  38.678   0.543
 9209W        W75640  18.196   5.565  12.325
 9210W        W75641  12.447  30.007   2.689
 9211W        W75642   5.485  17.030   1.669
 9212W        W75643   0.033  36.744  13.919
 9213W        W75644  38.510  34.961   1.724
 9214W        W75645   8.239  22.495   3.164
 9215W        W75646  26.794  14.923  13.079
 9216W        W75647  24.344   8.815  12.366
 9217W        W75648  40.563   7.569   0.189
 9218W        W75649   3.915  10.320  10.622
 9219W        W75650   6.410   3.317   1.693
 9220W        W75651  36.456  20.260  11.630
 9221W        W75652  44.621  35.107  14.143
 9222W        W75653  31.061  23.758   2.705
 9223W        W75654  36.329  40.745  12.630
 9224W        W75655   7.790   0.372  12.021
 9225W        W75656  35.406   9.685   4.645
 9226W        W75657  22.302   3.475  11.730
 9227W        W75658   6.490  44.305   2.395
 9228W        W75659  16.559   3.251  13.441
 9229W        W75660  11.690  16.152  10.722
 9230W        W75661  24.979  33.008  11.502
 9231W        W75662  12.220   4.741   1.766
 9232W        W75663   3.465  37.477   3.521
 9233W        W75664  39.273  27.776   0.867
 9234W        W75665  15.675   5.820  10.788
 9235W        W75666  30.055  44.385   2.225
 9236W        W75667   0.075   3.792   0.400
 9237W        W75668  11.628   7.237  13.863
 9238W        W75669  42.593  44.209   0.642
 9239W        W75670  28.663  37.458   4.129
 9240W        W75671  42.302  34.517  11.433
 9241W        W75672  44.376  38.776  10.954
 9242W        W75673  34.894   8.134   0.305
 9243W        W75674  40.417  25.113  10.899
 9244W        W75675  41.493  24.005   4.349
 9245W        W75676  18.955  15.521   4.036
 9246W        W75677  12.274  32.086  11.675
 9247W        W75678  34.913  24.214  14.417
 9248W        W75679  37.521  35.667  13.317
 9249W        W75680   5.062   8.162   1.070
 9250W        W75681  24.108  44.878   1.445
 9251W        W75682   7.878  13.691  12.524
 9252W        W75683  16.363  37.537   2.176
 9253W        W75684   0.995  20.741   1.807
 9254W        W75685  39.894  10.267  13.872
 9255W        W75686  21.468  11.154  10.893
 9256W        W75687  22.459  11.564   3.600
 9257W        W75688   2.837  18.163  14.044
 9258W        W75689  40.031  35.286   0.479
 9259W        W75690   8.188  23.121  12.566
 9260W        W75691   6.066  13.797  14.518
 9261W        W75692  44.302  21.987  12.228
 9262W        W75693  22.787  18.443  12.456
 9263W        W75694  27.516  14.245  14.419
 9264W        W75695  35.791  38.927  12.555
 9265W        W75696  25.863  30.071   1.862
 9266W        W75697   0.706  34.922  13.402
 9267W        W75698  20.201  42.923   2.507
 9268W        W75699   0.793  23.531  14.898
 9269W        W75700  39.702   4.119   1.921
 9270W        W75701  14.643   1.390   4.515
 9271W        W75702  11.960   1.527   3.650
 9272W        W75703  31.583  33.839   2.919
 9273W        W75704  43.735  41.307  11.956
 9274W        W75705   7.420  38.438   1.702
 9275W        W75706   1.459   1.772  10.989
 9276W        W75707  38.424  34.687  13.065
 9277W        W75708  19.127   2.892   0.277
 9278W        W75709  32.853  29.614   4.406
 9279W        W75710  43.811   3.734  14.253
 9280W        W75711  13.288  16.185  13.486
 9281W        W75712  39.401  35.082  13.351
 9282W        W75713  16.691  36.121  12.125
 9283W        W75714  40.891  35.120   3.225
 9284W        W75715  29.163  12.772   2.676
 9285W        W75716  29.323   9.471   5.137
 9286W        W75717  38.128  33.403   2.349
 9287W        W75718   4.953   8.032   2.095
 9288W        W75719  30.334   7.847  13.534
 9289W        W75720  20.703  27.683  14.195
 9290W        W75721  27.228  15.705   1.982
 9291W        W75722  13.244  10.039   1.269
 9292W        W75723   9.795  24.992  14.775
 9293W        W75724  11.130  36.541  13.839
 9294W        W75725   4.615  14.217   5.036
 9295W        W75726  12.563  38.549   2.294
 9296W        W75727  30.966  13.258  13.293
 9297W        W75728  36.136   8.630  11.575
 9298W        W75729  43.220  22.764   3.245
 9299W        W75730  39.578  15.023   2.221
 9300W        W75731   0.922  28.718  11.617
 9301W        W75732  17.756  34.528  11.851
 9302W        W75733  14.580   7.294  13.410
 9303W        W75734  23.127  21.101   2.247
 9304W        W75735  22.759  24.886  11.534
 9305W        W75736   1.186  36.852   1.239
 9306W        W75737  36.425  35.506   2.696
 9307W        W75738  19.349  26.457   1.753
 9308W        W75739   8.431  15.539  10.764
 9309W        W75740  22.200  21.039  11.570
 9310W        W75741   5.370  32.418   1.603
 9311W        W75742  10.233  15.137   1.914
 9312W        W75743  44.718  40.961   4.678
 9313W        W75744  11.559  29.981   1.338
 9314W        W75745  11.655  26.584   5.007
 9315W        W75746  19.818  31.484   4.083
 9316W        W75747  33.146  27.561  14.441
 9317W        W75748  12.544   1.662   4.478
 9318W        W75749  43.957  37.855   3.243
 9319W        W75750  42.478  14.410  13.080
 9320W        W75751  13.287   5.164  11.209
 9321W        W75752  36.748  34.011  13.598
 9322W        W75753  23.233   4.395   1.324
 9323W        W75754  24.453  11.621  11.938
 9324W        W75755  20.948  20.441  13.071
 9325W        W75756  18.032  26.460   1.691
 9326W        W75757  22.359  15.107   4.052
 9327W        W75758  29.372   0.891   2.462
 9328W        W75759   0.206  17.830  10.717
 9329W        W75760   7.142  31.402   2.856
 9330W        W75761  38.348  14.090  10.551
 9331W        W75762  30.411  13.252   3.732
 9332W        W75763  33.437  24.213   4.912
 9333W        W75764  31.972  24.745  10.770
 9334W        W75765  41.299   5.409   1.170
 9335W        W75766  18.152  19.151  11.009
 9336W        W75767  13.406  10.855   2.385
 9337W        W75768  32.397  29.399  14.418
 9338W        W75769  43.119   8.144   2.799
 9339W        W75770  14.225  16.666  14.879
 9340W        W75771  37.273   1.300  11.502
 9341W        W75772  26.943   9.995   0.031
 9342W        W75773   5.508   5.437   0.501
 9343W        W75774   7.261   5.279   4.631
 9344W        W75775  40.725   7.622  12.603
 9345W        W75776  26.057   4.794   4.624
 9346W        W75777  43.067  18.541  11.382
 9347W        W75778  27.564  20.215  14.709
 9348W        W75779  23.716  34.188  11.546
 9349W        W75780  27.291  14.884   3.095
 9350W        W75781  31.944  43.813  13.577
 9351W        W75782  42.285  17.365  11.668
 9352W        W75783   3.904  23.601   2.655
 9353W        W75784  40.261  10.331   3.584
 9354W        W75785   4.836  16.241  14.529
 9355W        W75786  30.198  37.608   0.997
 9356W        W75787   8.456  15.250   2.915
 9357W        W75788  12.810   7.463  12.732
 9358W        W75789  18.034   6.973   2.793
 9359W        W75790  26.621  38.899   2.431
 9360W        W75791  33.931  25.997   4.411
 9361W        W75792  23.436  30.467  12.892
 9362W        W75793  44.792  19.519   0.392
 9363W        W75794   7.128  41.762   0.559
 9364W        W75795  29.017   4.100   2.000
 9365W        W75796  24.295  38.407  11.518
 9366W        W75797  41.626  36.372   5.321
 9367W        W75798  32.340  22.246   0.053
 9368W        W75799  24.186  11.814   0.016
 9369W        W75800  12.968  14.573  14.946
 9370W        W75801  28.420   5.427  12.873
 9371W        W75802  32.475  33.298   1.421
 9372W        W75803  16.298  20.542   0.322
 9373W        W75804   5.612  33.550  14.297
 9374W        W75805  36.406  26.042  11.159
 9375W        W75806  36.037  14.289   3.033
 9376W        W75807   5.882  38.676   1.193
 9377W        W75808  42.869  43.772  13.439
 9378W        W75809  27.107  15.402  13.204
 9379W        W75810  34.094  27.272  11.329
 9380W        W75811  27.164  22.785   2.697
 9381W        W75812  29.927  43.855   1.437
 9382W        W75813  23.620  10.686  14.625
 9383W        W75814   1.527  40.499   4.884
 9384W        W75815  39.245  16.968  10.294
 9385W        W75816  13.368  27.637   3.066
 9386W        W75817  28.956   4.900  14.085
 9387W        W75818  32.455  34.324  14.726
 9388W        W75819  28.461  31.065  11.154
 9389W        W75820  14.627  31.317   1.965
 9390W        W75821  24.053   3.297  14.596
 9391W        W75822  33.158  34.176   2.404
 9392W        W75823  10.273  29.152  14.303
 9393W        W75824  27.774   3.574  13.895
 9394W        W75825   3.953  32.479  11.542
 9395W        W75826   8.469  28.550  10.741
 9396W        W75827  22.777  26.311   0.078
 9397W        W75828  33.406  16.229   4.175
 9398W        W75829  20.607  23.022   2.199
 9399W        W75830  35.795  40.143   2.395
 9400W        W75831  35.112  42.923   3.146
 9401W        W75832   5.651   2.461  12.876
 9402W        W75833  32.677   0.437   0.783
 9403W        W75834  20.794   9.146   1.884
 9404W        W75835  10.211  36.817  10.832
 9405W        W75836   6.792   3.949  12.968
 9406W        W75837  23.469  18.741  13.829
 9407W        W75838  24.945  20.067  14.705
 9408W        W75839  12.611  12.976  10.771
 9409W        W75840   7.333  40.970   3.852
 9410W        W75841  32.398  22.257  14.544
 9411W        W75842  32.089  13.866   2.268
 9412W        W75843  11.283  24.110   1.382
 9413W        W75844  28.540  34.124  12.483
 9414W        W75845  26.983   8.915   4.445
 9415W        W75846  11.199  40.820  12.083
 9416W        W75847  24.468  32.976   3.570
 9417W        W75848  31.865  20.050  12.950
 9418W        W75849  42.757  34.761   4.149
 9419W        W75850  39.255  28.657   0.450
 9420W        W75851  26.910   9.440  11.082
 9421W        W75852   4.788  35.664   3.082
 9422W        W75853  21.675   5.801   5.021
 9423W        W75854  20.246  34.994   4.401
 9424W        W75855  33.914   5.673   3.606
 9425W        W75856  32.877   1.906   0.817
 9426W        W75857  11.584   2.446   3.740
 9427W        W75858  18.536  24.237   3.781
 9428W        W75859  14.953   0.399  13.924
 9429W        W75860   4.370  24.947   1.928
 9430W        W75861  30.560  26.627  10.466
 9431W        W75862  15.679   8.122  14.614
 9432W        W75863  11.056  15.434  12.854
 9433W        W75864  16.707  25.028   0.583
 9434W        W75865  35.288  30.790  12.662
 9435W        W75866   7.813  41.848   1.410
 9436W        W75867  31.421  40.367   0.015
 9437W        W75868   2.277  30.199  14.440
 9438W        W75869  15.083  26.504  12.554
 9439W        W75870  39.355  31.517   2.089
 9440W        W75871   4.730  29.061   0.501
 9441W        W75872   5.656  43.351   2.583
 9442W        W75873  15.338  30.992   1.235
 9443W        W75874  19.379   9.279   4.757
 9444W        W75875  38.879  27.564   3.576
 9445W        W75876  22.656   9.348  13.778
 9446W        W75877  34.424  41.406  14.389
 9447W        W75878  26.552  13.812   3.735
 9448W        W75879  12.800  38.744   1.061
 9449W        W75880  18.779   6.931  11.092
 9450W        W75881   7.486  23.722  12.363
 9451W        W75882   2.867  17.663   0.417
 9452W        W75883  38.430  44.038   1.836
 9453W        W75884  21.239  16.102  13.027
 9454W        W75885  39.447  20.236  13.539
 9455W        W75886  26.156  18.160   2.342
 9456W        W75887  15.265  34.611  12.918
 9457W        W75888  30.862  24.207  14.797
 9458W        W75889  14.882  18.743   1.225
 9459W        W75890  19.930  25.691   0.261
 9460W        W75891  19.258  43.906  13.418
 9461W        W75892  44.853   4.020   1.768
 9462W        W75893  41.993  41.234   0.737
 9463W        W75894  25.725  17.342  11.174
 9464W        W75895  35.370  36.030   2.874
 9465W        W75896  11.711  44.814  12.531
 9466W        W75897   2.805  29.311   3.729
 9467W        W75898   4.771  21.228   4.083
 9468W        W75899  37.142  17.223  13.777
 9469W        W75900  41.350   8.918  11.891
 9470W        W75901  27.971  27.060  13.537
 9471W        W75902  18.622  30.958  11.552
 9472W        W75903  23.448   4.687  10.987
 9473W        W75904  20.258   1.296  11.680
 9474W        W75905  44.430  22.213   4.206
 9475W        W75906   1.400   2.813  14.223
 9476W        W75907  18.744  35.334   0.376
 9477W        W75908  25.968  31.644   3.132
 9478W        W75909  39.526  18.971   1.670
 9479W        W75910  36.630   6.679   1.357
 9480W        W75911  14.716  22.186  10.237
 9481W        W75912  17.118  44.004   1.835
 9482W        W75913   3.749  29.432  13.807
 9483W        W75914  28.625  10.258  10.499
 9484W        W75915  16.115  17.295  11.159
 9485W        W75916  40.410   8.087   0.200
 9486W        W75917   9.522  32.527   3.626
 9487W        W75918  22.691  40.120  11.550
 9488W        W75919  32.425  13.929  14.327
 9489W        W75920   9.103  44.253   3.652
 9490W        W75921  34.102   7.865   0.681
 9491W        W75922  41.884   9.649   1.036
 9492W        W75923  10.807  41.880  10.433
 9493W        W75924  34.954  26.537   3.606
 9494W        W75925   1.978  20.170   3.578
 9495W        W75926  34.313  31.977  14.472
 9496W        W75927   9.637  12.362   1.405
 9497W        W75928   6.937  26.362  11.971
 9498W        W75929   2.472  39.326   3.623
 9499W        W75930  33.397  31.437   0.196
 9500W        W75931  37.569   4.422   0.293
 9501W        W75932  10.354  39.495  14.792
 9502W        W75933  33.066  17.794   2.554
 9503W        W75934   0.595  10.666   4.227
 9504W        W75935  26.160  26.317  10.896
 9505W        W75936  18.326  29.468   0.650
 9506W        W75937  11.352  43.979  14.426
 9507W        W75938   4.469  14.695  12.745
 9508W        W75939  34.919  14.076  12.024
 9509W        W75940   0.774  27.036  12.106
 9510W        W75941  42.477  19.554   4.067
 9511W        W75942   1.935  21.442   3.676
 9512W        W75943  31.587  35.601   0.826
 9513W        W75944  24.532  38.265   4.118
 9514W        W75945  43.857  16.137   0.441
 9515W        W75946  25.444  28.117   0.532
 9516W        W75947  18.880  10.749   1.732
 9517W        W75948  36.415   3.323  13.646
 9518W        W75949  16.141  12.550  14.921
 9519W        W75950  29.967  25.187   3.814
 9520W        W75951  41.463   2.777  12.684
 9521W        W75952  17.273   3.154  11.213
 9522W        W75953  38.473  36.912  12.076
 9523W        W75954  25.269  40.790  13.995
 9524W        W75955   8.850  32.741   5.080
 9525W        W75956  25.192  35.128  13.400
 9526W        W75957  41.543   7.981   1.900
 9527W        W75958  33.126  20.665  13.991
 9528W        W75959  26.040  12.001   3.211
 9529W        W75960  23.571  31.347  14.276
 9530W        W75961  43.691  26.468   4.606
 9531W        W75962  14.673   6.761  13.482
 9532W        W75963  25.903  43.967  14.901
 9533W        W75964  29.139  20.204   3.466
 9534W        W75965  39.025  44.513  10.031
 9535W        W75966  13.471  13.437   2.673
 9536W        W75967  16.335  10.297   3.588
 9537W        W75968   6.148  22.807   3.218
 9538W        W75969  34.055  20.466   3.366
 9539W        W75970  21.929  28.119   1.176
 9540W        W75971  24.911  23.665  11.143
 9541W        W75972  34.640   2.040   0.413
 9542W        W75973  12.721  23.594   1.881
 9543W        W75974  36.671  28.460  14.334
 9544W        W75975  15.964   5.546   5.490
 9545W        W75976  13.791  44.011  11.641
 9546W        W75977  28.641   1.778  10.611
 9547W        W75978  16.369  12.202   4.375
 9548W        W75979  33.933  15.531  10.695
 9549W        W75980  40.936  33.856   2.934
 9550W        W75981  13.748  26.746   3.750
 9551W        W75982  34.677   7.207   1.111
 9552W        W75983  39.676  13.156  10.755
 9553W        W75984  26.211  16.981  12.620
 9554W        W75985   2.236  15.794   4.517
 9555W        W75986  24.176  38.027   0.132
 9556W        W75987  33.418  39.605   0.255
 9557W        W75988   4.883  35.317   3.848
 9558W        W75989   3.393   7.650  12.533
 9559W        W75990  38.490  21.166   4.790
 9560W        W75991  42.760   9.774  12.200
 9561W        W75992  12.139   5.049   0.291
 9562W        W75993  17.122   8.197  13.532
 9563W        W75994  22.524  20.103  12.494
 9564W        W75995  15.372  24.524   2.575
 9565W        W75996  30.157  26.703   2.268
 9566W        W75997  42.669  16.062   0.850
 9567W        W75998  28.224  36.595   3.269
 9568W        W75999  37.514  25.439  11.975
 9569W        W76000  33.606  10.354   1.865
 9570W        W76001   8.992  33.928   0.447
 9571W        W76002   2.374  38.586   0.462
 9572W        W76003   6.986  17.880   4.192
 9573W        W76004   9.299  43.537  11.703
 9574W        W76005   2.973  16.275  13.513
 9575W        W76006  36.945  21.312  10.797
 9576W        W76007   2.531  12.239   2.217
 9577W        W76008  16.871  37.602  13.110
 9578W        W76009  13.508   2.853   0.474
 9579W        W76010  30.732  41.208  11.996
 9580W        W76011   4.793  38.093   3.205
 9581W        W76012  19.080  20.524  11.852
 9582W        W76013   8.725  29.459  13.021
 9583W        W76014  21.622  31.210  12.572
 9584W        W76015  21.063  21.228   3.546
 9585W        W76016  37.769  15.176  13.684
 9586W        W76017   4.777  41.267  11.680
 9587W        W76018  39.903  34.527  13.303
 9588W        W76019  36.540  26.403  10.815
 9589W        W76020   7.774   7.852   2.447
 9590W        W76021  42.778  27.966   2.139
 9591W        W76022  28.525   1.165  13.466
 9592W        W76023   3.219  39.771  11.140
 9593W        W76024  25.876  31.932   4.386
 9594W        W76025   4.370  17.222   2.100
 9595W        W76026   4.864  15.195  11.543
 9596W        W76027  20.754  28.820   3.192
 9597W        W76028   2.043  41.346   2.119
 9598W        W76029   6.217  41.301   0.127
 9599W        W76030  34.861   6.830   4.128
 9600W        W76031  43.427  24.536   4.909
 9601W        W76032  13.359  42.270  13.767
 9602W        W76033  16.229   2.297  14.780
 9603W        W76034   5.590  15.221  13.542
 9604W        W76035  26.758   9.886  13.009
 9605W        W76036  34.654  38.325  12.991
 9606W        W76037  24.108  26.209  12.017
 9607W        W76038  39.531   0.828  14.023
 9608W        W76039  35.076  36.866  14.325
 9609W        W76040   9.845  38.226  13.682
 9610W        W76041  20.039  42.968  13.947
 9611W        W76042   0.449  26.871   3.452
 9612W        W76043  19.631  34.384  13.115
 9613W        W76044  16.859  35.928   1.922
 9614W        W76045  28.051  11.304   1.469
 9615W        W76046   8.663  44.518   3.524
 9616W        W76047  19.110   7.701  11.620
 9617W        W76048   3.383  43.946  10.395
 9618W        W76049  18.405  10.142   2.453
 9619W        W76050  41.236  22.157  13.924
 9620W        W76051  44.907  13.998   3.589
 9621W        W76052  16.673   2.316  10.680
 9622W        W76053  11.812  29.667  14.465
 9623W        W76054  23.021  30.632   3.046
 9624W        W76055  20.339  16.922   3.407
 9625W        W76056  31.383  29.485   0.946
 9626W        W76057  33.599  26.339   3.448
 9627W        W76058  29.320  36.464   2.713
 9628W        W76059  16.543  29.994  14.781
 9629W        W76060  17.426  31.055  13.575
 9630W        W76061  12.100  43.702  13.961
 9631W        W76062  36.345  33.945  12.902
 9632W        W76063  43.262  31.393  14.420
 9633W        W76064  28.140  31.115   1.828
 9634W        W76065   9.674  37.854   4.087
 9635W        W76066  23.961  32.659  14.809
 9636W        W76067  24.158  28.100   4.218
 9637W        W76068   8.907  20.329  12.033
 9638W        W76069  35.145  13.616  12.920
 9639W        W76070  21.088  37.589   2.891
 9640W        W76071  15.624  14.743   1.904
 9641W        W76072  15.459  38.214  11.582
 9642W        W76073  20.218  33.213   4.533
 9643W        W76074  40.367  26.005  13.069
 9644W        W76075  30.987   3.652  13.649
 9645W        W76076  43.219  43.007   1.754
 9646W        W76077  10.292  15.552  13.240
 9647W        W76078  30.974  14.929   2.136
 9648W        W76079  43.739   8.963   1.985
 9649W        W76080  12.437  16.710  14.352
 9650W        W76081  16.634  33.170   3.262
 9651W        W76082  21.266  38.590   1.937
 9652W        W76083   9.341  44.445   4.165
 9653W        W76084  15.878   9.961  14.470
 9654W        W76085  40.982  42.831   4.629
 9655W        W76086  20.118   4.483   0.938
 9656W        W76087  12.385  43.588  14.930
 9657W        W76088  40.770  20.682   3.423
 9658W        W76089  25.251  42.776  13.117
 9659W        W76090  22.004  13.116  11.638
 9660W        W76091  34.176  12.541  13.266
 9661W        W76092  15.727  32.854   2.311
 9662W        W76093   9.404   4.697  13.832
 9663W        W76094  41.343   1.442  11.560
 9664W        W76095  11.120   7.238  13.838
 9665W        W76096  27.977  18.286   0.778
 9666W        W76097  33.028  25.987  12.650
 9667W        W76098  32.390   8.151   1.827
 9668W        W76099  11.614  40.579   1.903
 9669W        W76100  27.147   3.739   3.886
 9670W        W76101  28.225  39.874  13.929
 9671W        W76102  29.853  42.439   4.920
 9672W        W76103  23.681  43.212   0.774
 9673W        W76104  30.108  11.817  14.946
 9674W        W76105  21.963  40.187   3.242
 9675W        W76106  29.924  14.625   3.605
 9676W        W76107  10.909   3.364  13.956
 9677W        W76108   2.440  15.076  10.665
 9678W        W76109  22.731  44.422  14.436
 9679W        W76110  41.960  17.702  11.956
 9680W        W76111  22.219  12.630   4.131
 9681W        W76112  40.318  42.172   2.188
 9682W        W76113  13.407  26.667  14.524
 9683W        W76114  24.501  10.709  13.324
 9684W        W76115  24.298   8.674   1.823
 9685W        W76116  36.780   6.105  11.159
 9686W        W76117  36.257  42.157  12.493
 9687W        W76118  24.921  36.468   3.593
 9688W        W76119  40.626  38.109  14.477
 9689W        W76120   1.449  32.639  12.432
 9690W        W76121  27.029  19.504   5.302
 9691W        W76122  11.915  10.616   9.813
 9692W        W76123   5.345  43.816  11.836
 9693W        W76124  44.311  23.459   4.533
 9694W        W76125  29.646  37.588   4.170
 9695W        W76126  23.215  24.070   4.500
 9696W        W76127  23.285  31.641   2.277
 9697W        W76128  28.624  18.243  10.648
 9698W        W76129   6.938   6.966  11.605
 9699W        W76130  40.071  37.030   3.737
 9700W        W76131  35.067  37.588   4.527
 9701W        W76132  27.890  12.052  11.574
 9702W        W76133   5.668  11.116   3.615
 9703W        W76134  10.885  18.485  14.358
 9704W        W76135   1.845  27.633  14.485
 9705W        W76136  25.296  35.179   1.349
 9706W        W76137   1.891  39.273   0.413
 9707W        W76138   9.736  21.186   0.369
 9708W        W76139   6.463  22.963  12.085
 9709W        W76140  37.653   4.728  10.467
 9710W        W76141  37.218  33.354   3.739
 9711W        W76142  20.730  43.619  12.410
 9712W        W76143  10.239  16.682   4.555
 9713W        W76144   7.444  11.546  11.060
 9714W        W76145  10.942   6.197   2.631
 9715W        W76146  16.838  39.539   3.590
 9716W        W76147  25.168  34.528   4.518
 9717W        W76148  21.458  22.115   4.090
 9718W        W76149  42.259  33.859  12.080
 9719W        W76150  22.096  32.826   1.265
 9720W        W76151  31.475   8.215   1.917
 9721W        W76152  26.772  30.820   3.325
 9722W        W76153  42.310   1.461  12.114
 9723W        W76154   8.336   4.481   1.225
 9724W        W76155  24.667   7.290   0.835
 9725W        W76156  30.227  15.716  12.429
 9726W        W76157  24.017  26.466  10.728
 9727W        W76158  33.653   8.678   0.467
 9728W        W76159  21.947  27.534   0.924
 9729W        W76160  28.098   8.770  13.815
 9730W        W76161  30.225  11.623   3.172
 9731W        W76162  41.760   2.262  14.781
 9732W        W76163  11.529  31.729  14.409
 9733W        W76164  18.154   9.397  13.568
 9734W        W76165  27.612  38.477   3.598
 9735W        W76166  30.244  24.605  12.025
 9736W        W76167  36.301  40.701  11.631
 9737W        W76168  23.725  23.230  14.914
 9738W        W76169   1.353  30.960   3.793
 9739W        W76170  13.384  23.993  14.724
 9740W        W76171  34.335  35.819  11.236
 9741W        W76172  12.532  44.399   4.205
 9742W        W76173   1.265  29.978   2.724
 9743W        W76174  35.690  17.611  10.710
 9744W        W76175  30.004   4.309  12.750
 9745W        W76176  14.899  25.122  10.729
 9746W        W76177  22.921  34.627   2.246
 9747W        W76178  40.458  27.136  11.105
 9748W        W76179  37.819   0.032  13.854
 9749W        W76180  38.053  26.554  14.270
 9750W        W76181  27.169  27.652   4.087
 9751W        W76182  24.746  23.434  12.484
 9752W        W76183  15.657  43.242   0.658
 9753W        W76184  31.282   5.296   4.158
 9754W        W76185  33.382  37.038  12.833
 9755W        W76186   4.214   3.431  10.818
 9756W        W76187   7.207  33.085  14.122
 9757W        W76188   7.166  17.734  14.029
 9758W        W76189  41.906   8.364   0.790
 9759W        W76190   1.419  24.396   0.518
 9760W        W76191   8.270  29.490  11.856
 9761W        W76192  36.712  23.465  11.166
 9762W        W76193  23.744  41.686   3.494
 9763W        W76194   3.161  14.183  10.654
 9764W        W76195  33.122   1.529  14.998
 9765W        W76196  24.981  35.791  14.446
 9766W        W76197  25.507  19.263   0.309
 9767W        W76198  34.185  15.152  13.427
 9768W        W76199  27.650   8.173  13.888
 9769W        W76200  14.613  23.971  14.066
 9770W        W76201  41.211   1.928  11.776
 9771W        W76202  21.840  35.971  11.784
 9772W        W76203  10.746  15.745   1.511
 9773W        W76204  34.200   7.788   0.181
 9774W        W76205  15.088  42.392   4.185
 9775W        W76206  23.303  43.069  13.782
 9776W        W76207  14.112   3.346   3.749
 9777W        W76208   2.727  31.183  12.646
 9778W        W76209  35.614  16.329   2.753
 9779W        W76210  41.982  44.813   2.628
 9780W        W76211  39.311  41.198   3.256
 9781W        W76212  39.783  34.465   0.451
 9782W        W76213  19.411  13.160  12.109
 9783W        W76214  31.658  29.184   2.879
 9784W        W76215   5.376   1.234   3.164
 9785W        W76216   5.497   6.557  12.919
 9786W        W76217  33.315  13.793   2.258
 9787W        W76218  41.347  41.316  10.886
 9788W        W76219  38.535  25.886  14.940
 9789W        W76220  25.522  17.989  11.599
 9790W        W76221  41.316  20.108   1.181
 9791W        W76222  22.190   0.938   4.294
 9792W        W76223   5.054  41.618   3.593
 9793W        W76224  14.699  26.086   9.930
 9794W        W76225  33.502  20.483   2.169
 9795W        W76226  23.029  40.374   1.676
 9796W        W76227  10.845  20.386   0.365
 9797W        W76228  10.613  43.044   1.366
 9798W        W76229   0.462  38.575   0.368
 9799W        W76230  27.228  18.515  12.481
 9800W        W76231   1.104  39.434  11.211
 9801W        W76232  18.803   4.923   2.009
 9802W        W76233  26.960  30.630  14.277
 9803W        W76234  30.521  30.569  13.995
 9804W        W76235  14.095  41.001   2.350
 9805W        W76236  31.158  30.634  14.786
 9806W        W76237  36.207  10.363   2.639
 9807W        W76238  32.495  40.901   3.606
 9808W        W76239  41.889  20.855  14.477
 9809W        W76240  34.875  27.453   3.054
 9810W        W76241   5.152  30.989   4.791
 9811W        W76242  17.683  38.710   2.092
 9812W        W76243   2.878  22.189   0.104
 9813W        W76244  20.803  19.627   3.196
 9814W        W76245   7.652  13.727   0.950
 9815W        W76246  20.113  33.445   1.864
 9816W        W76247   4.690  32.628  13.675
 9817W        W76248  19.610  15.488  13.452
 9818W        W76249  29.038  32.601  12.580
 9819W        W76250  22.774   8.809   3.900
 9820W        W76251  13.362   5.685  11.229
 9821W        W76252  22.253  13.394   0.956
 9822W        W76253  24.975  10.478  14.696
 9823W        W76254   5.535  40.864   4.730
 9824W        W76255  25.648   4.747  14.410
 9825W        W76256   5.973  24.145   4.520
 9826W        W76257  34.142  27.066   3.765
 9827W        W76258  16.247  37.953   3.187
 9828W        W76259   4.275  39.585   1.944
 9829W        W76260   3.155  11.387  11.220
 9830W        W76261  41.057  18.103  12.581
 9831W        W76262  16.609  13.054  10.165
 9832W        W76263   0.068  39.437   4.096
 9833W        W76264  39.100  17.134   2.837
 9834W        W76265  21.436   3.698   4.862
 9835W        W76266  43.440  22.359   3.515
 9836W        W76267  28.211  14.204   1.385
 9837W        W76268   6.269  27.725   3.758
 9838W        W76269  39.962  23.757  10.878
 9839W        W76270  11.050  43.520  11.551
 9840W        W76271  23.913  31.505  13.510
 9841W        W76272   0.356   5.938  10.511
 9842W        W76273  18.525  20.328   3.722
 9843W        W76274  43.282  12.787  13.350
 9844W        W76275   4.238  24.541   1.173
 9845W        W76276  28.609  16.798  12.281
 9846W        W76277  10.779  43.347  10.696
 9847W        W76278   5.396  41.525  11.119
 9848W        W76279  38.005  40.970  11.145
 9849W        W76280  41.604  42.441  12.080
 9850W        W76281  44.244  24.976  13.369
 9851W        W76282   4.120  35.889  10.780
 9852W        W76283  32.040   8.711   2.979
 9853W        W76284  44.605  24.962   2.763
 9854W        W76285   6.508  43.727   1.729
 9855W        W76286  25.976  39.930  11.771
 9856W        W76287  31.165  24.630  12.542
 9857W        W76288  14.147   1.005  10.850
 9858W        W76289   4.349  15.743   1.361
 9859W        W76290  34.078   0.233   1.713
 9860W        W76291  42.708   8.988   9.997
 9861W        W76292  34.008  30.103  11.556
 9862W        W76293  38.413   3.762   4.521
 9863W        W76294  29.579  42.774   0.315
 9864W        W76295   6.458  21.718   4.518
 9865W        W76296   5.553  31.216  12.059
 9866W        W76297  42.530  11.875  14.013
 9867W        W76298  33.021  21.034  12.816
 9868W        W76299  26.871  33.987   1.356
 9869W        W76300   6.118  19.207   1.751
 9870W        W76301  40.899  20.113   2.640
 9871W        W76302  24.944  28.445   0.914
 9872W        W76303  17.756  21.529  14.836
 9873W        W76304  30.975  40.036  12.031
 9874W        W76305  35.145   9.905  14.835
 9875W        W76306  13.756  22.846   1.410
 9876W        W76307   2.761  35.684  11.131
 9877W        W76308  28.635  28.973   0.377
 9878W        W76309  43.549  33.122  13.752
 9879W        W76310   8.644   4.848  14.940
 9880W        W76311  31.123  21.648  14.176
 9881W        W76312   0.873  13.424   1.697
 9882W        W76313  14.509   0.557  14.531
 9883W        W76314  18.300   7.835  11.244
 9884W        W76315  29.233  18.269   4.421
 9885W        W76316  29.310  40.098   0.849
 9886W        W76317  36.391  22.520  14.009
 9887W        W76318  11.204  44.422   1.928
 9888W        W76319   2.959  36.943   2.487
 9889W        W76320   0.063  32.297  13.760
 9890W        W76321  21.180  32.858  14.880
 9891W        W76322   5.661  38.942  13.423
 9892W        W76323  13.135  28.081   2.848
 9893W        W76324  30.908  36.089   4.407
 9894W        W76325   4.473   7.153   3.806
 9895W        W76326  23.634  18.288  14.013
 9896W        W76327  22.066  39.838   3.624
 9897W        W76328   3.413   1.340   1.373
 9898W        W76329  20.465  13.777   0.256
 9899W        W76330   4.954  12.344   1.151
 9900W        W76331  37.401  27.592  13.857
 9901W        W76332  18.716  31.201  13.089
 9902W        W76333  27.173  30.453   4.489
 9903W        W76334  34.299  29.476  10.701
 9904W        W76335  34.672   3.936   1.450
 9905W        W76336  38.569  29.649  14.026
 9906W        W76337  42.308  15.954  13.958
 9907W        W76338  35.038  13.368  13.477
 9908W        W76339  12.769  36.598  12.829
 9909W        W76340  38.328  16.065   4.248
 9910W        W76341  36.935  35.911   0.381
 9911W        W76342   8.721  33.101   0.958
 9912W        W76343  37.832  30.945  13.770
 9913W        W76344  23.384  19.655  11.606
 9914W        W76345  17.318   6.643  10.720
 9915W        W76346  24.893  20.236   2.180
 9916W        W76347  29.953  16.286   1.327
 9917W        W76348   7.843  40.427  13.382
 9918W        W76349  10.915  33.904  11.958
 9919W        W76350  36.425  29.575   4.093
 9920W        W76351  12.304   0.424   3.231
 9921W        W76352   0.283  41.579   0.342
 9922W        W76353  34.407   3.011  13.822
 9923W        W76354  18.957  15.209   2.058
 9924W        W76355  16.775  15.799  11.532
 9925W        W76356  36.396  10.692   3.887
 9926W        W76357  27.649  18.327  12.230
 9927W        W76358  39.327  38.837   3.879
 9928W        W76359  39.984  20.988  12.449
 9929W        W76360  22.840  27.559  10.061
 9930W        W76361  16.562  28.613   0.440
 9931W        W76362  30.544  31.833  12.059
 9932W        W76363  38.940   2.100  12.461
 9933W        W76364   5.214   9.684   0.151
 9934W        W76365  16.774  37.157  10.540
 9935W        W76366  13.966  30.321   4.168
 9936W        W76367   7.464  11.119  14.339
 9937W        W76368   7.996   2.786   0.253
 9938W        W76369   9.021  44.669   1.014
 9939W        W76370   3.961   2.343   0.896
 9940W        W76371   4.935   7.405   1.292
 9941W        W76372  33.929  30.548  14.889
 9942W        W76373  14.340   9.141   1.311
 9943W        W76374  29.716   2.122  10.721
 9944W        W76375  30.190  21.604   0.464
 9945W        W76376  18.700   5.416   1.808
 9946W        W76377   2.002  10.598  13.257
 9947W        W76378  36.051   3.569   1.475
 9948W        W76379  12.582  30.955  12.407
 9949W        W76380  18.500  33.166   3.204
 9950W        W76381  44.487  40.404   2.639
 9951W        W76382  12.802  29.639   2.729
 9952W        W76383  23.030  32.916  13.967
 9953W        W76384  15.141   7.908  13.265
 9954W        W76385   2.750   5.818   1.874
 9955W        W76386  32.993  21.315  10.327
 9956W        W76387   8.497  28.673   2.388
 9957W        W76388  39.843  30.121  11.809
 9958W        W76389  38.937  32.788   1.679
 9959W        W76390  22.888  28.576  13.025
 9960W        W76391  19.185  37.272  13.596
 9961W        W76392  20.396  37.038   1.778
 9962W        W76393  33.339  44.980   4.382
 9963W        W76394  37.366  42.991  12.869
 9964W        W76395  33.582  21.811   0.521
 9965W        W76396  37.120  26.194  12.959
 9966W        W76397  34.594  32.046  13.307
 9967W        W76398  39.763  42.347   3.312
 9968W        W76399  44.755  31.543  13.489
 9969W        W76400  34.467  12.286  11.956
 9970W        W76401  18.085  25.362  13.901
 9971W        W76402  21.021   7.253  13.507
 9972W        W76403  40.355  18.797   3.102
 9973W        W76404  24.241  14.630  14.398
 9974W        W76405   7.009  21.600  14.925
 9975W        W76406  17.344  33.366  13.966
 9976W        W76407  33.347  31.705  14.303
 9977W        W76408   2.484  38.061   3.201
 9978W        W76409  10.087  19.189  13.250
 9979W        W76410  37.907  35.413   0.754
 9980W        W76411  12.576  44.987   3.179
 9981W        W76412  35.126  36.584   0.978
 9982W        W76413   6.902   2.757   1.671
 9983W        W76414   8.072  40.807  11.217
 9984W        W76415  19.003  20.788  11.396
 9985W        W76416  25.086  28.350   2.341
 9986W        W76417   5.804   8.707  12.120
 9987W        W76418  14.254  40.566  13.261
 9988W        W76419   3.504  26.977   5.048
 9989W        W76420  44.707   5.272   4.485
 9990W        W76421  37.284  40.532  11.632
 9991W        W76422   2.857  19.176  13.955
 9992W        W76423   8.381  40.580   3.115
 9993W        W76424  29.033  22.650   3.481
 9994W        W76425  22.068  35.416   4.900
 9995W        W76426  12.309  40.440   2.673
 9996W        W76427  25.580  32.499  11.109
 9997W        W76428  15.582  33.096   1.343
 9998W        W76429   7.956  11.651   0.986
 9999W        W76430   8.033   2.343  14.966
10000W        W76431  25.453  18.560  10.529
10001W        W76432  16.544  13.138   4.475
10002W        W76433  37.793  23.735  13.861
10003W        W76434  28.097  35.303  12.679
10004W        W76435  43.338  44.006  12.011
10005W        W76436  10.126  15.174  11.096
10006W        W76437   1.303  31.330   2.168
10007W        W76438  17.132  40.012  11.472
10008W        W76439  25.587  36.821  13.937
10009W        W76440  15.167  31.357  13.395
10010W        W76441  40.443  39.125  11.642
10011W        W76442  34.965  33.012   3.831
10012W        W76443  41.509  34.919   3.683
10013W        W76444  37.053  20.161   3.391
10014W        W76445  25.215  29.968  14.291
10015W        W76446   2.229  27.402   3.702
10016W        W76447  30.783  11.958   4.051
10017W        W76448  40.871  13.773   0.765
10018W        W76449  40.206  34.573  10.926
10019W        W76450   2.945  40.973   2.854
10020W        W76451  10.701  41.928  12.842
10021W        W76452  42.103  25.617  14.620
10022W        W76453  15.733  19.792   1.368
10023W        W76454  14.909  40.911   2.592
10024W        W76455  31.733   6.334   3.691
10025W        W76456   4.270  17.336   3.571
10026W        W76457  11.390  27.505   4.700
10027W        W76458  25.734  30.084  11.955
10028W        W76459  19.034  44.921   2.213
10029W        W76460   6.483   0.844   1.338
10030W        W76461   6.711   8.443  10.658
10031W        W76462  24.524  11.818  12.849
10032W        W76463  12.560  36.844   4.612
10033W        W76464  39.435  36.866  13.424
10034W        W76465  37.627   5.394   4.573
10035W        W76466  30.649  11.949  13.679
10036W        W76467  29.524  25.449   0.692
10037W        W76468  25.581  24.810  12.450
10038W        W76469   3.139  41.349  10.978
10039W        W76470  37.249  33.440  10.517
10040W        W76471   5.263  22.558   9.825
10041W        W76472   8.158   0.894  12.643
10042W        W76473  35.179  17.560  12.920
10043W        W76474  44.356  39.782  13.807
10044W        W76475  39.788  23.262   1.172
10045W        W76476  34.606  30.938   0.776
10046W        W76477  16.708  28.198  10.748
10047W        W76478  11.729   7.325   2.318
10048W        W76479  10.110   7.615  14.532
10049W        W76480  19.814  25.312  12.372
10050W        W76481   9.247  12.789  13.870
10051W        W76482  43.966  43.516  14.906
10052W        W76483  12.217   5.321   4.518
10053W        W76484  13.823  26.062  14.479
10054W        W76485   3.672   9.974   2.327
10055W        W76486  20.314  20.189   9.835
10056W        W76487  37.943   9.082   0.348
10057W        W76488  34.404  37.058   1.264
10058W        W76489  33.612  41.523   3.127
10059W        W76490   6.647  36.142  14.941
10060W        W76491  42.761   6.463   2.280
10061W        W76492  42.063  40.055   2.405
10062W        W76493  37.439  37.361   0.760
10063W        W76494  30.928  29.501  12.585
10064W        W76495  14.695  39.882   3.088
10065W        W76496  11.633  32.325  11.653
10066W        W76497  23.066  39.784  13.963
10067W        W76498  22.641  30.591   0.529
10068W        W76499  22.679  22.671   3.354
10069W        W76500  15.737  40.904  14.295
10070W        W76501  20.130  41.144   3.319
10071W        W76502   3.882  30.582   2.316
10072W        W76503  38.793  11.258   3.283
10073W        W76504  42.060  14.351   4.496
10074W        W76505  40.837  42.215  13.870
10075W        W76506  26.812  28.090   1.232
10076W        W76507   1.840  32.570  13.300
10077W        W76508  18.095  18.968  11.850
10078W        W76509  13.588   5.074   3.171
10079W        W76510  31.040   3.691   2.553
10080W        W76511   7.114  13.865   3.296
10081W        W76512  25.578  38.870   4.726
10082W        W76513  16.356   2.659  12.452
10083W        W76514  44.198  15.214   3.049
10084W        W76515  32.169  29.894  14.375
10085W        W76516   0.948  19.626   3.966
10086W        W76517  21.197   3.235  13.561
10087W        W76518  13.731  37.349   0.198
10088W        W76519  17.919  27.693  12.769
10089W        W76520  39.569  34.174  13.527
10090W        W76521  42.274   8.740  12.912
10091W        W76522  12.352  34.320   2.487
10092W        W76523  29.156   7.517  12.943
10093W        W76524  21.700  15.272  12.890
10094W        W76525  27.479  28.045  13.412
10095W        W76526  10.573  18.662   2.527
10096W        W76527  40.493  18.113  11.457
10097W        W76528  29.202   6.694   5.636
10098W        W76529   5.765  30.244   2.568
10099W        W76530  24.616  44.263   4.003
10100W        W76531  21.038  38.071  14.398
10101W        W76532  35.597  35.420  12.017
10102W        W76533  29.956  35.534   2.201
10103W        W76534  15.014  16.061  13.856
10104W        W76535   8.349   4.664  11.051
10105W        W76536  24.389   1.893   4.491
10106W        W76537  36.506   5.772  14.730
10107W        W76538  37.966  10.255  10.707
10108W        W76539   1.085  21.053   3.728
10109W        W76540  29.166   7.498   5.380
10110W        W76541  10.470   3.877  12.421
10111W        W76542  14.338  30.169   1.328
10112W        W76543  37.818  38.062   2.114
10113W        W76544  32.179  26.718  14.084
10114W        W76545   4.282  32.089  11.683
10115W        W76546  39.732  44.942  13.294
10116W        W76547   0.157  27.643   1.940
10117W        W76548   3.071  29.918   1.362
10118W        W76549  24.086  26.171   4.386
10119W        W76550  24.653  18.002  11.231
10120W        W76551  22.703   0.038  13.455
10121W        W76552   1.872   1.991  10.757
10122W        W76553  22.650  20.847  11.453
10123W        W76554  17.848  19.570  14.084
10124W        W76555  34.042  23.258  14.019
10125W        W76556  35.870  38.056   0.994
10126W        W76557  36.831  24.972   2.887
10127W        W76558   5.991   3.965   4.227
10128W        W76559  10.359  22.716  14.421
10129W        W76560  24.488  27.664   2.610
10130W        W76561  28.149   1.766  12.938
10131W        W76562  11.697   2.541  13.554
10132W        W76563  38.355  21.301   0.253
10133W        W76564   9.374  29.155   0.924
10134W        W76565  36.031   7.224  11.564
10135W        W76566  26.143  25.905   3.459
10136W        W76567  29.960  36.400  13.450
10137W        W76568   5.317   3.578   9.928
10138W        W76569   0.204  28.220  13.500
10139W        W76570  36.257  26.322   3.630
10140W        W76571   9.949  21.054  13.046
10141W        W76572  18.277   6.153  14.820
10142W        W76573  34.510  27.463   0.193
10143W        W76574  35.112   7.436   4.112
10144W        W76575  25.659  24.069   1.550
10145W        W76576   6.911  24.394   3.764
10146W        W76577  30.019   6.818  13.455
10147W        W76578  27.668  13.984   1.715
10148W        W76579  16.884   4.833  11.165
10149W        W76580   6.409  34.464  14.000
10150W        W76581   8.238  32.564  12.649
10151W        W76582  18.389  38.355  11.627
10152W        W76583   8.273   2.161   0.394
10153W        W76584  40.557   5.722   1.402
10154W        W76585   4.218  30.187   1.667
10155W        W76586   8.895  28.615  14.835
10156W        W76587  35.162  35.443  14.056
10157W        W76588  26.148  38.230  11.991
10158W        W76589  33.305  37.685   2.551
10159W        W76590  36.361  16.941   2.352
10160W        W76591  31.972  17.868  11.500
10161W        W76592  35.653  12.528   4.237
10162W        W76593   4.014   9.232  14.136
10163W        W76594  11.302  42.280   1.309
10164W        W76595  31.378  26.279   4.206
10165W        W76596  20.037   3.723   2.093
10166W        W76597  15.584  39.382  13.536
10167W        W76598  21.106  25.187  11.526
10168W        W76599  28.362  12.224  14.866
10169W        W76600  21.419   9.311   1.113
10170W        W76601  30.705   5.189  10.003
10171W        W76602   7.273  13.365   3.215
10172W        W76603  27.697  17.062   3.425
10173W        W76604  44.098  35.920   3.863
10174W        W76605  29.827  30.880  13.301
10175W        W76606  19.473   9.275  11.707
10176W        W76607  23.609  22.747  10.568
10177W        W76608   9.355  27.650   4.207
10178W        W76609  15.626  18.471   0.006
10179W        W76610  40.356  24.207   1.796
10180W        W76611  41.471  42.230  10.725
10181W        W76612  13.331  29.738   1.374
10182W        W76613  21.303   2.967   1.032
10183W        W76614  22.987  15.702  11.990
10184W        W76615  14.675  32.912  13.105
10185W        W76616  19.024  21.491   2.749
10186W        W76617  13.779   8.205  13.836
10187W        W76618  27.140  37.094   0.827
10188W        W76619  14.857   2.857  10.981
10189W        W76620  14.155   1.476  11.045
10190W        W76621  30.746  17.601  13.377
10191W        W76622  40.886  30.509  12.428
10192W        W76623   0.493  44.443   1.821
10193W        W76624  15.073  34.077  10.628
10194W        W76625   6.122   8.735  14.287
10195W        W76626  15.709  30.551   3.241
10196W        W76627  35.405  19.422  12.693
10197W        W76628   6.137  44.476   0.228
10198W        W76629  24.096  12.411   0.850
10199W        W76630  41.515   3.383  12.359
10200W        W76631  23.412  20.539  14.042
10201W        W76632  15.790  25.510   2.882
10202W        W76633  11.972  26.749  14.302
10203W        W76634  26.096  29.486   4.056
10204W        W76635   0.915  37.382  14.976
10205W        W76636  10.148  32.439  14.009
10206W        W76637  14.827  12.694  14.878
10207W        W76638  27.485   6.703  14.840
10208W        W76639  28.500  32.223  12.561
10209W        W76640  24.209  11.586   1.828
10210W        W76641   0.742  24.429   3.634
10211W        W76642   4.825   2.467  11.565
10212W        W76643   7.632  30.453   0.337
10213W        W76644  16.284   5.481   4.180
10214W        W76645  37.816  21.678  13.461
10215W        W76646  22.648  13.867   2.655
10216W        W76647  14.279  14.770  14.570
10217W        W76648  42.065  25.008  12.944
10218W        W76649   3.880  33.980   4.602
10219W        W76650   5.277  26.449  14.500
10220W        W76651  27.182  20.472   4.507
10221W        W76652  43.875   9.311  11.442
10222W        W76653  14.086  11.644   3.133
10223W        W76654  15.797  27.065   3.292
10224W        W76655  43.203  39.395  10.558
10225W        W76656  31.815  16.621   1.281
10226W        W76657  22.572  11.176  14.828
10227W        W76658  37.041  22.664  10.445
10228W        W76659  38.213   7.896  12.165
10229W        W76660  32.176  30.582  11.077
10230W        W76661  25.204  41.338  12.105
10231W        W76662  12.846  38.310  14.015
10232W        W76663  35.875  44.806   1.742
10233W        W76664  42.991  39.324  11.884
10234W        W76665  31.577   3.473  14.890
10235W        W76666  15.839  28.472  14.934
10236W        W76667  29.809  25.040   0.465
10237W        W76668  14.897   6.498  11.461
10238W        W76669  29.832  28.293   2.806
10239W        W76670  18.078  42.506  11.712
10240W        W76671  20.477  38.183   9.986
10241W        W76672  31.643  37.629  14.828
10242W        W76673  36.029  36.529  11.138
10243W        W76674  22.815  22.529   2.433
10244W        W76675  23.630  31.933  10.815
10245W        W76676   2.873  16.750  13.283
10246W        W76677   1.448  31.125  14.034
10247W        W76678  30.925  38.330  13.979
10248W        W76679  25.732  17.460   0.749
10249W        W76680  37.033  42.513   0.498
10250W        W76681  27.883  26.050  13.340
10251W        W76682  39.461   0.065   3.134
10252W        W76683  29.370   0.254  12.133
10253W        W76684  42.399   4.786  14.399
10254W        W76685  40.411   8.081   3.828
10255W        W76686  34.388   5.460   4.157
10256W        W76687  30.433  14.416  12.045
10257W        W76688  39.494  34.065   0.276
10258W        W76689  20.691  20.831   3.794
10259W        W76690  20.782  17.666   3.675
10260W        W76691   1.952  30.682   1.489
10261W        W76692   6.150  41.460  14.286
10262W        W76693  21.532  24.184   2.371
10263W        W76694  15.482  14.358  13.958
10264W        W76695  17.552  29.056  12.889
10265W        W76696   9.882  25.435   0.858
10266W        W76697  36.984  10.364   1.261
10267W        W76698  19.631  24.603   3.352
10268W        W76699  16.589  13.837   0.439
10269W        W76700   2.692  43.445  14.846
10270W        W76701  23.791   5.239   1.853
10271W        W76702  43.436  17.666  12.970
10272W        W76703  42.933  39.848  10.158
10273W        W76704   2.962  44.724  14.642
10274W        W76705  40.021  12.342   2.284
10275W        W76706   8.950  39.822   2.355
10276W        W76707  29.666   2.159  14.829
10277W        W76708   8.968  40.315   4.930
10278W        W76709  37.857  27.117   0.089
10279W        W76710  29.511  39.405  12.522
10280W        W76711  12.569  15.685   2.170
10281W        W76712  26.895  32.637  12.090
10282W        W76713  36.476  29.799  11.672
10283W        W76714  32.427  38.620  14.093
10284W        W76715   5.701   2.458  13.953
10285W        W76716  24.575  31.424   3.666
10286W        W76717  15.216   5.228  12.933
10287W        W76718  28.662  17.797  13.851
10288W        W76719   6.922  27.193  10.546
10289W        W76720  25.205   3.196  10.358
10290W        W76721  30.850  25.458  10.703
10291W        W76722  38.899  24.123  12.359
10292W        W76723  20.641   9.431  13.166
10293W        W76724   2.334  36.313   0.894
10294W        W76725  21.754  37.960   9.834
10295W        W76726   6.778  40.119  10.725
10296W        W76727  32.446  18.665   0.208
10297W        W76728  13.620  41.004  14.273
10298W        W76729  35.959  16.792   0.547
10299W        W76730   3.911  27.512   3.747
10300W        W76731  38.384   3.744   3.041
10301W        W76732  14.418  13.578  13.445
10302W        W76733  20.662   9.371   3.618
10303W        W76734  15.354   0.833   4.540
10304W        W76735  30.849   9.760  12.887
10305W        W76736  15.120  42.846  10.702
10306W        W76737  20.598  28.506   0.558
10307W        W76738  12.434  39.074  11.175
10308W        W76739  44.247  24.620  14.196
10309W        W76740  13.353  18.284   2.633
10310W        W76741  17.108  24.229   1.175
10311W        W76742  26.777   6.484  13.954
10312W        W76743  43.050  38.342   2.272
10313W        W76744   7.287  19.216   3.127
10314W        W76745  36.139  28.734  13.000
10315W        W76746  10.943   5.742   2.365
10316W        W76747   8.746  37.363  11.090
10317W        W76748  42.881  21.661   2.736
10318W        W76749  34.824  30.750  14.525
10319W        W76750  43.299  35.431  13.009
10320W        W76751  33.622  31.668   4.599
10321W        W76752   6.984  12.533   0.210
10322W        W76753  28.466  29.696  10.651
10323W        W76754  21.581  22.989   2.327
10324W        W76755  39.250  22.328  14.772
10325W        W76756  34.329  35.499  12.684
10326W        W76757  25.670  35.815  14.899
10327W        W76758   2.672  25.708  13.990
10328W        W76759  32.175  41.819  13.050
10329W        W76760  24.144  18.924   1.351
10330W        W76761  27.695   2.091   4.826
10331W        W76762  10.595  38.881   1.907
10332W        W76763  32.019   6.330  14.675
10333W        W76764  16.612  12.437  13.840
10334W        W76765  13.713  29.571  11.623
10335W        W76766  19.013  40.891  12.472
10336W        W76767  11.718  35.472   0.481
10337W        W76768   8.685  40.769   2.233
10338W        W76769  28.442  34.080   1.176
10339W        W76770  29.149   0.794   4.599
10340W        W76771  22.583  21.300  14.344
10341W        W76772  29.129  11.775   0.006
10342W        W76773  10.741   8.206  13.954
10343W        W76774  39.846  20.110   0.795
10344W        W76775  38.123  29.473   4.491
10345W        W76776  30.073  38.292  13.122
10346W        W76777  40.363  31.889   1.857
10347W        W76778  43.310  36.074  13.126
10348W        W76779  26.678   2.486   2.247
10349W        W76780   8.189  15.748   2.708
10350W        W76781  20.375  13.567   4.483
10351W        W76782  35.989  25.056  13.895
10352W        W76783  36.016  12.166   4.789
10353W        W76784  27.979  44.143  14.463
10354W        W76785  24.207  27.367  10.547
10355W        W76786  29.712  31.597   2.935
10356W        W76787  25.661  34.426  11.448
10357W        W76788  38.379  30.248  11.885
10358W        W76789   6.999  17.143  11.174
10359W        W76790  29.195  19.579   4.150
10360W        W76791  34.447  42.374  11.716
10361W        W76792  14.565   8.230   3.736
10362W        W76793  22.526   0.233   4.549
10363W        W76794  11.429  26.296   3.268
10364W        W76795  14.134  11.901   2.652
10365W        W76796   0.538  41.762   0.768
10366W        W76797  20.168  41.013  13.528
10367W        W76798  34.902  11.213  10.610
10368W        W76799   7.697   5.705  14.961
10369W        W76800  25.775  34.979   2.221
10370W        W76801   4.295   4.875  12.001
10371W        W76802  14.074  42.284  11.191
10372W        W76803  38.478  10.700  10.599
10373W        W76804  33.931  18.534   3.326
10374W        W76805   9.052  40.374   1.309
10375W        W76806  33.491  20.723  12.624
10376W        W76807  36.613  27.732  12.040
10377W        W76808  21.461   5.181  14.287
10378W        W76809  36.500   7.308  14.711
10379W        W76810  12.880  28.475  14.843
10380W        W76811   1.413  36.670  14.450
10381W        W76812  36.885  27.615  13.896
10382W        W76813  44.765   1.912   2.855
10383W        W76814  31.547   7.334   0.824
10384W        W76815  17.164   2.173  10.347
10385W        W76816  24.733  18.367   1.750
10386W        W76817   1.849  43.994  14.534
10387W        W76818   0.285  19.264  12.810
10388W        W76819  15.343  44.504  13.871
10389W        W76820  28.836  18.263   3.925
10390W        W76821  22.475  33.054   2.111
10391W        W76822   7.205  35.875   2.165
10392W        W76823  40.590   8.737  14.866
10393W        W76824  38.513   5.196   1.940
10394W        W76825  28.894   6.956   1.129
10395W        W76826   2.960   0.162   1.870
10396W        W76827  30.866  16.269   0.441
10397W        W76828  35.109  24.430  12.039
10398W        W76829   3.284   0.847   2.813
10399W        W76830  31.162  16.079   0.024
10400W        W76831  27.455  28.019   4.646
10401W        W76832  15.337  40.762  10.785
10402W        W76833  24.140  20.070  12.569
10403W        W76834   3.158  14.562   0.909
10404W        W76835  19.766   0.824  11.048
10405W        W76836  43.677  34.839   3.103
10406W        W76837  37.640  35.076   3.195
10407W        W76838  31.814  10.839   4.745
10408W        W76839   4.895  30.688  13.597
10409W        W76840   1.472  16.571   0.021
10410W        W76841  36.599  22.522  14.863
10411W        W76842   0.285  37.934   1.813
10412W        W76843   0.437   1.263   3.025
10413W        W76844   6.242  14.271  13.379
10414W        W76845  17.089  42.515  10.692
10415W        W76846  36.826  42.214   4.214
10416W        W76847   9.427  24.589  14.330
10417W        W76848  27.539  10.457   4.470
10418W        W76849  14.869   7.284  11.205
10419W        W76850  32.712  32.612  11.693
10420W        W76851  41.768   6.693   2.207
10421W        W76852  19.201  44.390  13.187
10422W        W76853   6.162  17.073   0.459
10423W        W76854  28.201  23.319   3.851
10424W        W76855  32.486  10.644   1.773
10425W        W76856  43.751  35.227  10.658
10426W        W76857  35.058  33.309  11.649
10427W        W76858   5.697  11.669   4.741
10428W        W76859  17.716  43.825  14.080
10429W        W76860   1.949  13.337  10.786
10430W        W76861   6.436  41.433   1.125
10431W        W76862  15.842  15.189   1.801
10432W        W76863  25.930  23.966   3.317
10433W        W76864   6.025  11.685   4.314
10434W        W76865  28.294  24.291   1.769
10435W        W76866  26.614  25.092   0.555
10436W        W76867  37.894   4.441   3.584
10437W        W76868   3.283  21.530   2.745
10438W        W76869   9.239   0.534   2.052
10439W        W76870  29.140  23.084  13.346
10440W        W76871  39.038  25.932  11.580
10441W        W76872  35.695   7.885  14.601
10442W        W76873  10.276  20.085   2.661
10443W        W76874   7.428  31.254  11.129
10444W        W76875  23.494  19.287  14.355
10445W        W76876  22.625  30.616  13.825
10446W        W76877  34.659  28.259  11.241
10447W        W76878  24.082  42.670  10.675
10448W        W76879   2.739  23.800  14.840
10449W        W76880  37.563  26.606   4.526
10450W        W76881  21.176  10.201   3.940
10451W        W76882   0.516   9.973  10.347
10452W        W76883  20.772   3.022   3.351
10453W        W76884   3.478  34.972   2.293
10454W        W76885  37.428  16.745  13.830
10455W        W76886  10.891  16.484   2.804
10456W        W76887  40.563  39.474   9.576
10457W        W76888  18.817  25.619  13.021
10458W        W76889  32.986   2.763   1.072
10459W        W76890  11.226  23.614  10.693
10460W        W76891   1.118  15.967   2.729
10461W        W76892  21.554   1.959  11.162
10462W        W76893  26.967   8.292   0.369
10463W        W76894  36.929  44.071  11.550
10464W        W76895  31.081  33.373  13.570
10465W        W76896  40.741  22.170  12.127
10466W        W76897  17.754  31.523  14.511
10467W        W76898   3.462  42.366   2.403
10468W        W76899  26.605  29.826   3.267
10469W        W76900  39.626  23.356  12.426
10470W        W76901  41.664  31.087   3.863
10471W        W76902  44.818  12.255   2.855
10472W        W76903  29.206  15.727   4.570
10473W        W76904   3.929  37.828   0.349
10474W        W76905   8.428  33.412  13.618
10475W        W76906  17.033  33.996   1.907
10476W        W76907  16.504  12.533  10.183
10477W        W76908  23.029  16.218   4.031
10478W        W76909   9.336   7.664  10.489
10479W        W76910  41.669  27.544  14.342
10480W        W76911  39.209  14.026  10.419
10481W        W76912  14.152  22.101  12.381
10482W        W76913  23.327   5.829  10.582
10483W        W76914  14.380   4.800   3.675
10484W        W76915   7.282   0.138   2.833
10485W        W76916  29.757   5.372   2.373
10486W        W76917  33.076   1.528   2.709
10487W        W76918  13.730   8.038   2.594
10488W        W76919  42.250  44.085  14.291
10489W        W76920  41.090  30.623  11.956
10490W        W76921   4.347  33.322   2.158
10491W        W76922  43.141  21.961   0.820
10492W        W76923  21.495  19.315  14.576
10493W        W76924  10.690   1.384   0.988
10494W        W76925  38.820  21.149  13.091
10495W        W76926  40.379  29.058  14.036
10496W        W76927  26.529  15.842   4.590
10497W        W76928  12.666  31.174  11.471
10498W        W76929  34.975   5.479  12.395
10499W        W76930  23.023  20.772  11.804
10500W        W76931  44.821  36.435  12.036
10501W        W76932  28.464  26.776  12.157
10502W        W76933  29.594  23.440  10.966
10503W        W76934  22.675  36.919  11.988
10504W        W76935  38.887  16.226  12.253
10505W        W76936  42.123  36.916   4.133
10506W        W76937  39.711  32.882  14.527
10507W        W76938  28.350  28.122   4.633
10508W        W76939   0.090  44.759   0.705
10509W        W76940  30.726  29.338   2.782
10510W        W76941  15.247  14.682  12.379
10511W        W76942  26.546  11.423  11.570
10512W        W76943  28.722  31.563   4.529
10513W        W76944  24.157  39.815  12.063
10514W        W76945  40.893   9.326  14.086
10515W        W76946  33.826  42.060  12.470
10516W        W76947  13.665   0.695  14.357
10517W        W76948  12.362  41.813  12.138
10518W        W76949   3.474  22.788  10.922
10519W        W76950  11.378  33.086   2.819
10520W        W76951  15.804  42.796  11.172
10521W        W76952  42.774  16.389  11.093
10522W        W76953  23.438  25.931  13.032
10523W        W76954  42.375  41.954   3.704
10524W        W76955  23.124  42.478  12.532
10525W        W76956   0.046   5.455  11.670
10526W        W76957   6.398  27.072   0.769
10527W        W76958   1.834  42.966   0.414
10528W        W76959  32.572  12.588   1.012
10529W        W76960   7.193   8.323   0.824
10530W        W76961   6.101  37.504  14.437
10531W        W76962  40.507  29.326   0.742
10532W        W76963  24.020  33.367  11.394
10533W        W76964   3.575   3.690   1.840
10534W        W76965   5.168  26.918   0.292
10535W        W76966  30.093  42.496   1.716
10536W        W76967   4.758   0.783   2.720
10537W        W76968  22.541  37.410  11.089
10538W        W76969  21.709  36.496   9.714
10539W        W76970  24.201  22.447  12.030
10540W        W76971  39.911   9.217   0.923
10541W        W76972  18.865  32.381   4.643
10542W        W76973  23.454   6.257  11.551
10543W        W76974  28.961   5.849   0.956
10544W        W76975  24.878  38.874  14.941
10545W        W76976  23.642  20.809  14.419
10546W        W76977  40.049   2.258   0.442
10547W        W76978  22.829  12.539  12.002
10548W        W76979  14.402   9.038  12.414
10549W        W76980  23.579  26.048   1.270
10550W        W76981  34.012  23.758   1.855
10551W        W76982  44.314  29.245   4.563
10552W        W76983  40.515  34.389  13.312
10553W        W76984  44.720  34.372   4.091
10554W        W76985  42.894   1.373   1.691
10555W        W76986  13.579  39.925  12.013
10556W        W76987  32.385  34.381  12.031
10557W        W76988  31.398  30.619   2.816
10558W        W76989   1.439   3.198  13.853
10559W        W76990  27.589  18.665   1.930
10560W        W76991  43.399  26.677   3.591
10561W        W76992   7.939  28.819  12.345
10562W        W76993  44.326  15.292  13.716
10563W        W76994  11.200  42.689  13.803
10564W        W76995  19.105  11.944   1.155
10565W        W76996  26.574  33.902  13.801
10566W        W76997  31.856   1.381  12.961
10567W        W76998  34.851  24.856  10.304
10568W        W76999  23.366  40.985  12.961
10569W        W77000  28.092  23.211   0.360
10570W        W77001   9.698  41.478   0.167
10571W        W77002  18.352  27.408   1.369
10572W        W77003  37.552  16.564  13.346
10573W        W77004  26.629   8.175   3.190
10574W        W77005  29.871  38.123   1.481
10575W        W77006   7.796  39.083   1.172
10576W        W77007   7.117  14.381   0.192
10577W        W77008  24.986   0.476  11.222
10578W        W77009  31.024  16.673  12.568
10579W        W77010  21.563  25.954  11.597
10580W        W77011   6.317  21.008   2.415
10581W        W77012  27.084  35.090  13.038
10582W        W77013   9.508  16.436   5.052
10583W        W77014  41.019  24.149   4.656
10584W        W77015  35.119  26.051  13.942
10585W        W77016  38.079   8.141   3.227
10586W        W77017  28.362  28.544  12.821
10587W        W77018   1.084  10.435  13.083
10588W        W77019  35.032  11.793   1.398
10589W        W77020  14.153  22.105   3.114
10590W        W77021   3.002  18.520   1.418
10591W        W77022  41.096  11.275  14.509
10592W        W77023  36.967  25.430   0.714
10593W        W77024  17.994  17.745   0.858
10594W        W77025  12.420  30.886   2.944
10595W        W77026  37.323  40.399   1.169
10596W        W77027  43.800  33.969  11.475
10597W        W77028  18.314   5.626  14.852
10598W        W77029  18.828  26.451   3.112
10599W        W77030  25.930  30.099  13.105
10600W        W77031  35.507   4.314   4.643
10601W        W77032   2.960  15.039  14.975
10602W        W77033   1.518   5.811  12.136
10603W        W77034   6.945  31.689  10.816
10604W        W77035  12.062  23.427   0.715
10605W        W77036  15.742   4.044   3.257
10606W        W77037  23.638   6.767   2.802
10607W        W77038   0.241   8.500  13.311
10608W        W77039  17.217  23.494   0.381
10609W        W77040  20.562  10.583   0.992
10610W        W77041  24.700  27.165   2.644
10611W        W77042   3.333   3.093  10.832
10612W        W77043  21.452  38.818  14.993
10613W        W77044  23.755  12.856   0.667
10614W        W77045  28.973   0.538  11.627
10615W        W77046  11.699   7.751  11.186
10616W        W77047  18.283  33.741   0.817
10617W        W77048  40.244   8.858  10.721
10618W        W77049   4.650  28.565   0.298
10619W        W77050   2.412  37.842  10.801
10620W        W77051  40.987  28.074   0.947
10621W        W77052  26.704  20.591  10.416
10622W        W77053  33.585  33.597  10.792
10623W        W77054  43.056   5.785  13.964
10624W        W77055  40.384  23.062  13.983
10625W        W77056  27.509  32.068  11.236
10626W        W77057  17.191  19.577   1.299
10627W        W77058  28.979  39.277  14.542
10628W        W77059  33.353  20.065   3.489
10629W        W77060  33.735  17.402  10.153
10630W        W77061  31.097  24.945   3.275
10631W        W77062   2.813  10.919   1.803
10632W        W77063  44.604   2.176  10.289
10633W        W77064   0.947  21.914  13.430
10634W        W77065  44.814  24.259   4.682
10635W        W77066   4.335  38.411  13.136
10636W        W77067  19.033  33.049  14.376
10637W        W77068  28.100  44.475   0.868
10638W        W77069  31.075   9.636   0.931
10639W        W77070  26.409  33.061   1.383
10640W        W77071  11.881  43.990  11.212
10641W        W77072  13.472  15.827  11.912
10642W        W77073   4.728   3.005   1.464
10643W        W77074  27.009   2.360   0.481
10644W        W77075  42.110   1.458   2.172
10645W        W77076   6.343  14.139  12.796
10646W        W77077  19.098   8.301   1.474
10647W        W77078  15.295  43.017   0.338
10648W        W77079   9.918  44.463   3.926
10649W        W77080  31.496  27.872   4.983
10650W        W77081  19.568  26.625   4.980
10651W        W77082  36.357  22.889  13.604
10652W        W77083  43.514  41.271   0.842
10653W        W77084  21.190  11.129   2.739
10654W        W77085  13.061  23.531  12.956
10655W        W77086  14.764   6.962   2.231
10656W        W77087   7.400  28.027  11.164
10657W        W77088   8.684  39.439   4.713
10658W        W77089  25.974  40.809  11.206
10659W        W77090  30.133  10.184  14.901
10660W        W77091  26.144   8.387  11.044
10661W        W77092  29.058  12.248  12.585
10662W        W77093  22.767   1.844   3.671
10663W        W77094   8.177  18.202   3.769
10664W        W77095  38.050  32.680  14.971
10665W        W77096   4.340  41.995  11.485
10666W        W77097   7.713   0.987  14.962
10667W        W77098  20.513  25.976   3.723
10668W        W77099   3.956  38.488  11.986
10669W        W77100   0.722   1.439   4.110
10670W        W77101  16.114   0.051   3.390
10671W        W77102  18.626  44.863  11.654
10672W        W77103  38.590  41.468  11.763
10673W        W77104  29.205  23.532  14.928
10674W        W77105   7.494   8.269  11.037
10675W        W77106  21.562   8.653  11.564
10676W        W77107  39.238   5.678  12.494
10677W        W77108   1.441  36.384   1.251
10678W        W77109  41.484  14.216   0.432
10679W        W77110  31.226  25.498   4.088
10680W        W77111   0.287   2.988   0.755
10681W        W77112  42.096  41.923   2.814
10682W        W77113  22.545  18.225  13.840
10683W        W77114   7.847  24.977   1.845
10684W        W77115  28.012  31.334  12.326
10685W        W77116   7.959  18.173   4.705
10686W        W77117   2.487  18.096  12.591
10687W        W77118  43.001  20.336   0.473
10688W        W77119  12.564  26.390   4.556
10689W        W77120  26.259  20.628  12.450
10690W        W77121   1.288  14.243  11.678
10691W        W77122  18.487  16.614  13.075
10692W        W77123  24.746   0.982   2.312
10693W        W77124  33.680  26.774   0.870
10694W        W77125  30.244   3.739   0.883
10695W        W77126  13.294  36.056  10.763
10696W        W77127  41.168  37.147   5.103
10697W        W77128   0.066  43.793  11.938
10698W        W77129  33.812  19.809   0.855
10699W        W77130   0.797   7.218  11.270
10700W        W77131  29.115  22.152   3.339
10701W        W77132  31.109  39.496   0.466
10702W        W77133  38.844  12.437  12.983
10703W        W77134   6.395   4.794  14.242
10704W        W77135  40.737  10.827  14.419
10705W        W77136  17.047   2.407   5.120
10706W        W77137  20.210  32.816  13.874
10707W        W77138  27.960  43.056   2.560
10708W        W77139  23.516  42.404  12.967
10709W        W77140  34.522  29.681  13.761
10710W        W77141  11.903  37.937  10.485
10711W        W77142  19.063  35.310   2.096
10712W        W77143   8.709  12.630   0.947
10713W        W77144   5.432  24.057  11.529
10714W        W77145   5.731  24.459  12.482
10715W        W77146   0.739  36.551   0.001
10716W        W77147  14.385   1.173   4.106
10717W        W77148  31.144  16.797  11.516
10718W        W77149  23.308  36.765  13.990
10719W        W77150   0.008  30.255  13.059
10720W        W77151  23.277  31.043  11.579
10721W        W77152  10.805  31.952   0.384
10722W        W77153  20.076  27.679  11.070
10723W        W77154  13.766   1.631  12.365
10724W        W77155   2.964  24.474   1.389
10725W        W77156  28.142  12.742  12.363
10726W        W77157  43.381  26.357  10.635
10727W        W77158   4.709  28.622   2.529
10728W        W77159  41.835   3.558  13.643
10729W        W77160  19.374  41.321   0.324
10730W        W77161  18.002  12.235   2.831
10731W        W77162  34.457  44.286   2.856
10732W        W77163  29.872   0.249   3.768
10733W        W77164  28.442  22.097   2.378
10734W        W77165   4.758  18.670  14.930
10735W        W77166  41.787   7.406  13.557
10736W        W77167  12.267   2.514  12.882
10737W        W77168  15.284  28.734   3.246
10738W        W77169  29.211  29.133  10.464
10739W        W77170   7.790  41.579   4.589
10740W        W77171  42.546  22.596  13.927
10741W        W77172  39.869  44.948  11.654
10742W        W77173  33.231   9.265   4.499
10743W        W77174  42.797  12.817  13.520
10744W        W77175  44.579  41.828  11.285
10745W        W77176  10.472   2.225   0.774
10746W        W77177  32.150  33.162   0.295
10747W        W77178  43.965  31.072  10.759
10748W        W77179  31.062   5.378  10.655
10749W        W77180  41.606  35.152  14.887
10750W        W77181  18.432  28.402  11.284
10751W        W77182  17.580  26.993  14.794
10752W        W77183   6.325  10.875   0.307
10753W        W77184  18.635  24.059  10.552
10754W        W77185  23.865  25.111   5.052
10755W        W77186  13.150   4.349   3.101
10756W        W77187  23.457  43.956  10.705
10757W        W77188  34.791  27.899   0.206
10758W        W77189  28.375  40.006   1.211
10759W        W77190  36.669  34.567  10.227
10760W        W77191   2.160  10.355   0.279
10761W        W77192  12.470  22.211  12.961
10762W        W77193  21.098  24.456   2.415
10763W        W77194  28.547   4.816   4.955
10764W        W77195  37.649   1.402   0.509
10765W        W77196  22.884  18.766   2.138
10766W        W77197  23.151  44.730   2.681
10767W        W77198   6.721   2.302   2.470
10768W        W77199  39.947  37.319   1.661
10769W        W77200   0.926  32.552   4.323
10770W        W77201  26.164  44.815   0.330
10771W        W77202  17.693  28.918   3.596
10772W        W77203  19.212  27.135   3.863
10773W        W77204  22.861   5.129  10.396
10774W        W77205   3.850   9.736   1.896
10775W        W77206   6.405  39.907   2.191
10776W        W77207   7.453  42.046  11.822
10777W        W77208  32.879  23.478   2.759
10778W        W77209  27.701  15.870   4.895
10779W        W77210  36.953  23.670  13.869
10780W        W77211  43.495  35.821  14.986
10781W        W77212  17.727  12.762   5.059
10782W        W77213  37.530  31.615  12.101
10783W        W77214   1.744  26.090  13.797
10784W        W77215  12.751  11.065  11.846
10785W        W77216  27.343  15.478   4.105
10786W        W77217  42.513  32.113   3.472
10787W        W77218  31.671   0.464  13.375
10788W        W77219  44.344  30.170  13.555
10789W        W77220  14.080  43.003  10.946
10790W        W77221  23.302  29.961  13.894
10791W        W77222  15.108  37.489   1.872
10792W        W77223   3.164   3.338  13.942
10793W        W77224  36.240   7.865   0.979
10794W        W77225  14.852  34.467  11.950
10795W        W77226  30.447  11.230  11.568
10796W        W77227  20.265  28.457  13.273
10797W        W77228  25.441  39.998   1.847
10798W        W77229   0.528   2.900  13.921
10799W        W77230   6.754  21.077   2.725
10800W        W77231   6.611  44.862  14.852
10801W        W77232  38.003   6.328   4.207
10802W        W77233  21.316  39.261   2.570
10803W        W77234   4.950  14.132   0.551
10804W        W77235  26.091  12.946  14.800
10805W        W77236  30.539   8.116  13.939
10806W        W77237  33.114   9.489  14.480
10807W        W77238  17.072  42.882  12.432
10808W        W77239  21.635   8.403  13.783
10809W        W77240  17.856   2.798  12.488
10810W        W77241   4.446  12.221   4.033
10811W        W77242  12.708  27.225   4.087
10812W        W77243   8.878  14.180  10.599
10813W        W77244   0.458   2.698   2.623
10814W        W77245  23.424  24.600  14.080
10815W        W77246   0.788  25.762   4.132
10816W        W77247   5.258  37.817  11.135
10817W        W77248   5.793  10.211   1.031
10818W        W77249  36.645  26.629  14.945
10819W        W77250  24.950  32.775  13.387
10820W        W77251  13.784  37.807   0.840
10821W        W77252  30.901  18.550   4.979
10822W        W77253   0.912  28.884  14.525
10823W        W77254  26.567   4.693   1.208
10824W        W77255  34.787  13.596   1.826
10825W        W77256  42.174   4.365  10.827
10826W        W77257  27.382  13.821   1.291
10827W        W77258  11.262  35.683  10.413
10828W        W77259   3.956  29.155  14.505
10829W        W77260   6.279  33.402  12.170
10830W        W77261  34.156  23.010   2.620
10831W        W77262   5.586   5.297  12.256
10832W        W77263  34.624   5.253  14.415
10833W        W77264  17.681   7.484   0.945
10834W        W77265   4.328   5.380   2.635
10835W        W77266  26.233  12.247   2.294
10836W        W77267   8.828   1.564  12.200
10837W        W77268   2.260  21.090  14.452
10838W        W77269  17.570  16.514   3.320
10839W        W77270  35.126   3.315  13.013
10840W        W77271  28.419  10.657   2.599
10841W        W77272  12.637   5.786  10.726
10842W        W77273   4.394  43.907  12.807
10843W        W77274  34.778  12.501   4.061
10844W        W77275  26.789   3.803  13.878
10845W        W77276  39.384   7.293   1.852
10846W        W77277  27.180   1.027  12.528
10847W        W77278   4.918  32.902   3.082
10848W        W77279   8.750   6.186  14.720
10849W        W77280  40.236   5.266  11.286
10850W        W77281  14.651  32.177  14.225
10851W        W77282  44.519   0.911   2.222
10852W        W77283  44.388   8.801  12.014
10853W        W77284   4.249   7.762   4.438
10854W        W77285  33.871  20.523  11.762
10855W        W77286  41.048  32.112  14.709
10856W        W77287  27.516  44.911  13.452
10857W        W77288   7.413  38.927   1.539
10858W        W77289  12.205  30.297   3.763
10859W        W77290  24.436  22.698  14.325
10860W        W77291  16.990   0.315   2.351
10861W        W77292  42.593   4.314  14.337
10862W        W77293   4.149  20.942   2.762
10863W        W77294  42.843  24.514   3.360
10864W        W77295  42.788  35.357  13.046
10865W        W77296  34.080   3.749  10.830
10866W        W77297   7.719  35.944  12.401
10867W        W77298  21.614  34.183  14.807
10868W        W77299  16.428   2.326   0.287
10869W        W77300  19.101  28.114  14.725
10870W        W77301  15.495  39.922   2.703
10871W        W77302   0.261  21.692   4.408
10872W        W77303  30.607  22.755  11.676
10873W        W77304  39.687  18.671  12.656
10874W        W77305  31.451   2.179  10.854
10875W        W77306  19.156  41.966  10.613
10876W        W77307  33.038   1.908  13.495
10877W        W77308  11.671   0.229  10.223
10878W        W77309  42.806  14.609   4.083
10879W        W77310   3.248  40.927  11.985
10880W        W77311  30.485  37.311   4.559
10881W        W77312  33.334   7.423   1.794
10882W        W77313  12.275  38.823   2.853
10883W        W77314   5.331  38.055  13.296
10884W        W77315   4.910  40.490   2.859
10885W        W77316  19.047  38.861   2.228
10886W        W77317   0.727  33.971   1.922
10887W        W77318   5.751  41.445  13.399
10888W        W77319  12.482  31.387  14.738
10889W        W77320  10.335  18.461   3.887
10890W        W77321  42.971   9.139  10.740
10891W        W77322   5.243   7.292  14.923
10892W        W77323  25.531   6.082  10.130
10893W        W77324  18.209   6.248   4.590
10894W        W77325  44.363   7.936  13.275
10895W        W77326  30.015  25.799  14.973
10896W        W77327   2.960  14.216   3.711
10897W        W77328  26.900  22.089  11.053
10898W        W77329  21.037  23.474   2.583
10899W        W77330  36.418   8.217  14.454
10900W        W77331  13.811  31.920   1.797
10901W        W77332  34.331  21.920   3.854
10902W        W77333  25.026  34.192   1.231
10903W        W77334  20.069  39.096   2.532
10904W        W77335  20.803   0.477  13.543
10905W        W77336  37.960   6.755  12.992
10906W        W77337  39.504  25.494  12.814
10907W        W77338  44.989   8.510   0.752
10908W        W77339  39.667  28.969  11.262
10909W        W77340   7.327  23.254  14.377
10910W        W77341  16.601  19.533   0.793
10911W        W77342   0.436  35.907  12.630
10912W        W77343  37.851  38.350   3.268
10913W        W77344  31.492  12.611   3.276
10914W        W77345  28.622   9.431   9.919
10915W        W77346  23.234  21.386  12.989
10916W        W77347  13.771   1.794   4.131
10917W        W77348  33.289  17.980   3.360
10918W        W77349  34.559  10.807  13.546
10919W        W77350  25.319  24.111  10.881
10920W        W77351   2.581  21.060   3.571
10921W        W77352  25.595  18.495   0.924
10922W        W77353   9.755  18.771   0.511
10923W        W77354   8.265   6.065  10.720
10924W        W77355  38.002  38.979  14.878
10925W        W77356  12.676  28.774   2.185
10926W        W77357  43.039  25.330   3.692
10927W        W77358  32.618  41.287  13.019
10928W        W77359  34.107  33.313  12.542
10929W        W77360  22.077   2.737   4.044
10930W        W77361   1.814  22.251   2.469
10931W        W77362  18.855  16.922  13.428
10932W        W77363  14.213  31.132  13.346
10933W        W77364  12.755   1.901   1.746
10934W        W77365   6.293  21.523   2.622
10935W        W77366  36.970  15.352   2.060
10936W        W77367  13.099  15.359   4.844
10937W        W77368  22.254  12.682  12.432
10938W        W77369  27.670  30.008   2.364
10939W        W77370  37.861  23.034  11.322
10940W        W77371   5.026  27.920   3.190
10941W        W77372  13.597  11.781   1.397
10942W        W77373  44.298  35.677  11.661
10943W        W77374  18.057   4.280   4.517
10944W        W77375   0.739  13.704   0.827
10945W        W77376   4.723   8.838   1.210
10946W        W77377  27.323  44.199   2.316
10947W        W77378  15.838  16.572  11.157
10948W        W77379  24.168  23.292  11.603
10949W        W77380  24.549  10.694  14.502
10950W        W77381  43.379  18.910  13.056
10951W        W77382   1.441  31.521   2.727
10952W        W77383  44.117  17.312  11.912
10953W        W77384  24.541  43.880  14.650
10954W        W77385  19.076   3.778   1.634
10955W        W77386  38.422  35.365   4.961
10956W        W77387   1.370  26.209  13.466
10957W        W77388  14.698  43.424  13.515
10958W        W77389  21.720   7.335   2.467
10959W        W77390   0.411  14.447   3.276
10960W        W77391  41.161  35.365  14.262
10961W        W77392  33.261  42.722  12.370
10962W        W77393   0.985  38.449  11.617
10963W        W77394  20.983   8.409   1.427
10964W        W77395  21.681  44.088  14.468
10965W        W77396   3.574  28.140   5.117
10966W        W77397  22.220  37.362  14.553
10967W        W77398  17.568  39.201   0.544
10968W        W77399  10.646   6.424   2.279
10969W        W77400  16.800  27.669   2.265
10970W        W77401  28.007  42.052  11.295
10971W        W77402  37.269  40.811  10.326
10972W        W77403  17.147   0.481   4.534
10973W        W77404  21.741  39.402   2.342
10974W        W77405  10.738   0.856   0.912
10975W        W77406  19.244  17.100   2.810
10976W        W77407  15.873  10.680   1.903
10977W        W77408  31.935  15.081  14.791
10978W        W77409  15.535  28.407  13.971
10979W        W77410  23.916   4.179  14.915
10980W        W77411  18.101   4.011   1.681
10981W        W77412   7.004  32.621   2.424
10982W        W77413  13.355  16.574   2.912
10983W        W77414  12.103  14.214  12.992
10984W        W77415  29.069  21.535   2.677
10985W        W77416  39.153  38.297   0.969
10986W        W77417  11.675   2.260   2.266
10987W        W77418   9.386   5.805   1.760
10988W        W77419  18.624  31.571  14.048
10989W        W77420  43.019  15.873  12.339
10990W        W77421  27.951  16.276   1.441
10991W        W77422  17.763  33.002   0.884
10992W        W77423  27.399  30.754   0.691
10993W        W77424  36.434   1.349   2.352
10994W        W77425  43.924  44.672  13.323
10995W        W77426  16.192  33.077  11.566
10996W        W77427   5.643   0.065  14.775
10997W        W77428  15.135  20.028   3.607
10998W        W77429  43.110   3.340  10.763
10999W        W77430  41.103   4.329   1.720
11000W        W77431  17.737  35.456   4.849
11001W        W77432  20.528   2.192  13.605
11002W        W77433  44.373   7.349  13.284
11003W        W77434  30.037  23.860   1.783
11004W        W77435  25.233  12.390   3.203
11005W        W77436  12.818  19.193  12.886
11006W        W77437  11.443  14.266   0.213
11007W        W77438  24.606  24.367   3.899
11008W        W77439  23.226   5.323  11.621
11009W        W77440  11.590   5.288  13.970
11010W        W77441  15.288  39.847  14.317
11011W        W77442  10.735  25.515  14.508
11012W        W77443  42.857  13.590   3.320
11013W        W77444  23.020  18.278  14.835
11014W        W77445  15.864  40.076   0.304
11015W        W77446  17.231   8.183   3.304
11016W        W77447  39.535  10.755  11.892
11017W        W77448   7.303  12.777  14.307
11018W        W77449  31.599  21.994  14.987
11019W        W77450   0.950  19.502  12.636
11020W        W77451  10.306  36.018  12.477
11021W        W77452  44.017   1.257  13.885
11022W        W77453  10.581  26.203  12.877
11023W        W77454  39.949  39.172   0.848
11024W        W77455  27.463  12.167   3.219
11025W        W77456  37.616  36.443  10.350
11026W        W77457   5.779   9.225   2.457
11027W        W77458  17.918  32.930  11.709
11028W        W77459  25.197  17.797  11.955
11029W        W77460  25.367   0.245   1.228
11030W        W77461  33.898  35.987  13.407
11031W        W77462  39.712  11.554   1.815
11032W        W77463  33.344  31.369  14.700
11033W        W77464  24.398  34.004   3.684
11034W        W77465  10.365  18.806  13.491
11035W        W77466  36.958  29.145  11.705
11036W        W77467   9.881  16.568  10.218
11037W        W77468  34.515   0.902  11.465
11038W        W77469  19.350  35.335  12.973
11039W        W77470  18.291  34.975  14.757
11040W        W77471  25.206  34.317   4.048
11041W        W77472  13.575  16.023  11.444
11042W        W77473  42.168  36.785   4.653
11043W        W77474   4.186  32.849   1.865
11044W        W77475  11.157  15.364  13.778
11045W        W77476  32.657  25.839  14.319
11046W        W77477  10.927  17.067   2.701
11047W        W77478  10.942  14.138   3.283
11048W        W77479   8.964  27.961  12.931
11049W        W77480  18.820   9.315   0.771
11050W        W77481  41.262   4.319  14.034
11051W        W77482  22.786   2.267   1.123
11052W        W77483  36.036   3.829   3.768
11053W        W77484   8.339   3.647  14.069
11054W        W77485  13.372  37.315  11.103
11055W        W77486  19.046  26.453  12.670
11056W        W77487  30.260  24.061   4.953
11057W        W77488  16.148  18.617  11.505
11058W        W77489  35.926   3.874   1.893
11059W        W77490  26.029   6.299  11.022
11060W        W77491  18.255  32.492  13.720
11061W        W77492   1.877  40.430   3.220
11062W        W77493  39.464   0.924   4.514
11063W        W77494   5.428  35.249   2.156
11064W        W77495  34.326  26.532   0.080
11065W        W77496  21.840   2.756   2.258
11066W        W77497   5.784  25.008  13.114
11067W        W77498  32.089   5.335   0.425
11068W        W77499  42.863   8.638   2.819
11069W        W77500  34.559  24.594  14.406
11070W        W77501  26.554  43.082   2.667
11071W        W77502  42.499  29.710  14.503
11072W        W77503  42.057  41.879  11.094
11073W        W77504  36.354  29.465   9.798
11074W        W77505  22.241   5.739   1.304
11075W        W77506  36.004  23.455  13.956
11076W        W77507   5.406  38.929   3.265
11077W        W77508  36.614  26.485  13.398
11078W        W77509  14.172  33.350   2.821
11079W        W77510  30.175  16.303  14.096
11080W        W77511   0.715   7.998  10.781
11081W        W77512  25.740  11.657   2.812
11082W        W77513  28.478  20.704  10.797
11083W        W77514  17.945  29.249  11.607
11084W        W77515  34.865  14.213   0.818
11085W        W77516  34.467  34.571  12.286
11086W        W77517  41.823   9.326   2.013
11087W        W77518  36.975  10.894   1.328
11088W        W77519  31.419  35.059  13.826
11089W        W77520  22.777  26.275  11.143
11090W        W77521  27.198  20.883  10.675
11091W        W77522  28.659  36.621   4.686
11092W        W77523   0.424  33.987  12.901
11093W        W77524  36.770  41.835  12.506
11094W        W77525  14.568  30.115  10.328
11095W        W77526  33.186  40.493   0.341
11096W        W77527  16.071  20.983   2.725
11097W        W77528  36.618  11.215   2.644
11098W        W77529  35.320   7.709   1.246
11099W        W77530  34.597   0.313  12.005
11100W        W77531  33.133   6.760   1.894
11101W        W77532  38.613   6.709  13.940
11102W        W77533  14.281  15.039   1.730
11103W        W77534  12.166  20.718  12.141
11104W        W77535  44.349  12.764  13.943
11105W        W77536  41.278  19.585  14.291
11106W        W77537   8.205  10.335   3.831
11107W        W77538   3.585   0.434  14.376
11108W        W77539  38.000  43.467  11.548
11109W        W77540   3.945  25.613   4.991
11110W        W77541  27.524  26.965   0.354
11111W        W77542  35.780   2.169   2.176
11112W        W77543   4.836  22.289   0.335
11113W        W77544  26.432  26.916   2.842
11114W        W77545  25.054  14.765   2.425
11115W        W77546  29.957  43.382   4.388
11116W        W77547  28.219  26.122   3.408
11117W        W77548  40.521  31.016   3.106
11118W        W77549  16.959  24.654   0.296
11119W        W77550  40.455  12.625  13.382
11120W        W77551  42.554   0.788  11.675
11121W        W77552   1.638  31.511  12.023
11122W        W77553  36.864   1.961   4.554
11123W        W77554  20.756   3.972   0.458
11124W        W77555  17.096  38.313   2.295
11125W        W77556  19.156  18.858  13.522
11126W        W77557  43.385  30.448  11.125
11127W        W77558  41.966  27.609   1.373
11128W        W77559   0.175  37.690  14.081
11129W        W77560  13.981  14.761   4.187
11130W        W77561  20.958  43.377  10.814
11131W        W77562   4.172  11.780  12.023
11132W        W77563   3.620  31.649   2.225
11133W        W77564  13.596  34.857   4.204
11134W        W77565  30.608  23.745   2.385
11135W        W77566  41.234  16.233   2.425
11136W        W77567  31.547  16.839  13.876
11137W        W77568  40.808  44.694  11.761
11138W        W77569  22.381  18.681   2.021
11139W        W77570  14.187   5.781  14.481
11140W        W77571   7.358   0.851   2.215
11141W        W77572   8.684  29.626  14.767
11142W        W77573   6.774   6.340  12.605
11143W        W77574  38.860  27.474   0.729
11144W        W77575  15.251   4.481   4.588
11145W        W77576  26.709  33.094   1.831
11146W        W77577   4.623  39.401  11.748
11147W        W77578  11.243   2.320   1.426
11148W        W77579  42.966  21.667   3.683
11149W        W77580  29.580   6.858   2.815
11150W        W77581  17.194  10.279   1.717
11151W        W77582  42.308  19.401   2.339
11152W        W77583  16.814  20.271   2.645
11153W        W77584  30.482  27.647   4.851
11154W        W77585   8.036   9.810  13.015
11155W        W77586  27.429  24.402  13.138
11156W        W77587   8.857  34.987   1.420
11157W        W77588   5.867  28.748  12.661
11158W        W77589  36.138   8.574  12.976
11159W        W77590   4.250  35.248  11.186
11160W        W77591  24.058  35.259   1.239
11161W        W77592  14.835  39.677   1.132
11162W        W77593  30.214  33.005  10.723
11163W        W77594   0.234  13.541   4.389
11164W        W77595  40.482  22.897   2.352
11165W        W77596  39.369  11.752  12.875
11166W        W77597  40.480   8.828  11.159
11167W        W77598  28.432  32.922   3.129
11168W        W77599  23.173  20.226  13.696
11169W        W77600  14.810  11.728  13.067
11170W        W77601   8.809  17.644  11.716
11171W        W77602  38.495   2.343   4.731
11172W        W77603  35.769  42.496  14.918
11173W        W77604   7.149  28.980  14.497
11174W        W77605  41.305  23.688   4.735
11175W        W77606  12.421  29.512   3.201
11176W        W77607   0.787  42.306   1.275
11177W        W77608   5.360  13.184  12.841
11178W        W77609  13.367  28.157   0.654
11179W        W77610   2.568   3.950   1.722
11180W        W77611  21.039  25.455  12.023
11181W        W77612  34.513  34.007   2.921
11182W        W77613   7.692  36.926   4.355
11183W        W77614  10.809  36.044  10.695
11184W        W77615   5.637  40.436   3.702
11185W        W77616  31.180  14.360  11.521
11186W        W77617   3.472   9.207  11.113
11187W        W77618  40.388  19.421  13.048
11188W        W77619  43.474  19.309  11.390
11189W        W77620  41.912  21.077   0.420
11190W        W77621  33.322  38.147   0.448
11191W        W77622  24.608   9.936  13.878
11192W        W77623  17.761  13.534   2.254
11193W        W77624  37.022  32.082   0.967
11194W        W77625  16.111  44.534   1.031
11195W        W77626  14.588   9.431   4.094
11196W        W77627  28.974  15.327   0.348
11197W        W77628  17.677  18.608  13.924
11198W        W77629  25.202   2.869  13.921
11199W        W77630  25.619  15.728  13.610
11200W        W77631  29.600  15.157  11.502
11201W        W77632  19.293  12.659   4.173
11202W        W77633  27.510  28.802  11.918
11203W        W77634  35.047  30.479   1.460
11204W        W77635  23.123  21.260  10.238
11205W        W77636  38.633  37.663   2.280
11206W        W77637  41.251  29.911   3.673
11207W        W77638   0.624   3.207  13.509
11208W        W77639  22.457  11.824   2.312
11209W        W77640  18.025  16.298   3.656
11210W        W77641  21.128   1.014   3.748
11211W        W77642  30.966  25.629   2.301
11212W        W77643  10.379  38.924   3.818
11213W        W77644  42.989  20.139  14.981
11214W        W77645  10.887  19.271   4.366
11215W        W77646  28.895  14.878  12.006
11216W        W77647  17.523  15.753   4.887
11217W        W77648   4.942  32.107  10.036
11218W        W77649  20.973  35.390  14.486
11219W        W77650  28.437  29.010  13.314
11220W        W77651  33.489  13.498   3.373
11221W        W77652  10.964  40.811   4.194
11222W        W77653  16.639  13.525  12.077
11223W        W77654  13.162   0.438   2.144
11224W        W77655  35.496  41.358   2.879
11225W        W77656  42.797  34.418  11.517
11226W        W77657  17.913  10.091  10.567
11227W        W77658  36.803  20.634  11.866
11228W        W77659   1.301  10.133  11.700
11229W        W77660  41.573  16.578  13.049
11230W        W77661  34.843  26.995   2.186
11231W        W77662  28.101  17.312  10.685
11232W        W77663  32.055  19.473   3.707
11233W        W77664  22.180   1.822   4.598
11234W        W77665  38.431  32.707  13.338
11235W        W77666  20.263  26.118  12.750
11236W        W77667  18.849   4.655   2.765
11237W        W77668  21.785  13.538   1.678
11238W        W77669  19.525  31.617  12.186
11239W        W77670  12.357  41.289  12.970
11240W        W77671  24.285   0.223  11.687
11241W        W77672  40.329  29.667   3.107
11242W        W77673   3.367  15.055   2.672
11243W        W77674  30.912  23.036   1.807
11244W        W77675  35.336   4.428   1.870
11245W        W77676  43.025  43.007   1.238
11246W        W77677  19.554  25.225  13.537
11247W        W77678  18.194  19.534  11.925
11248W        W77679  35.907  34.053  13.696
11249W        W77680  26.280  29.978  11.132
11250W        W77681  24.483  35.042   4.637
11251W        W77682  38.893  26.283  11.932
11252W        W77683  32.909  13.426  11.136
11253W        W77684   4.675  10.971  12.816
11254W        W77685  24.700  39.402   2.824
11255W        W77686   0.728  44.344  10.340
11256W        W77687  38.085  14.184   0.617
11257W        W77688  22.988   0.869  10.734
11258W        W77689  10.883  11.518   0.789
11259W        W77690   6.439   4.292  14.044
11260W        W77691  26.987  26.168  11.072
11261W        W77692  26.924  17.833  14.284
11262W        W77693  37.477  34.470  12.633
11263W        W77694   0.462  37.669   4.591
11264W        W77695  39.303  36.482   3.537
11265W        W77696  21.128  41.572  13.857
11266W        W77697  14.630  23.139   4.487
11267W        W77698  43.989   1.662  10.984
11268W        W77699  35.634  22.779  10.809
11269W        W77700  31.561  21.990   3.717
11270W        W77701   6.487  15.056   1.764
11271W        W77702  21.708   0.880  13.134
11272W        W77703  27.275  14.978  13.491
11273W        W77704  12.154  12.236   4.587
11274W        W77705  32.142  25.618   4.260
11275W        W77706  15.810  44.789   0.107
11276W        W77707  14.967  43.821   2.893
11277W        W77708  33.526  23.789   4.603
11278W        W77709  31.093  28.176  10.392
11279W        W77710  30.605   4.113   1.899
11280W        W77711  39.582  12.353   1.931
11281W        W77712  25.842  36.825   0.454
11282W        W77713  27.921  34.486   3.113
11283W        W77714  43.912  39.577  12.620
11284W        W77715   1.218  39.896  12.098
11285W        W77716  22.388  40.190   0.435
11286W        W77717  13.496  42.301   1.121
11287W        W77718  36.210   4.933   4.960
11288W        W77719  29.036  23.313  13.810
11289W        W77720  28.195  15.890   5.063
11290W        W77721  16.657   1.223   2.445
11291W        W77722  21.772  13.401  12.902
11292W        W77723  37.905  39.490  12.309
11293W        W77724  38.433  24.820   0.874
11294W        W77725  38.924  31.789   1.978
11295W        W77726  33.185  35.929   3.165
11296W        W77727  32.977   1.226  14.245
11297W        W77728  37.366   7.658   3.022
11298W        W77729   6.246  11.104  14.855
11299W        W77730   3.813  38.850   1.656
11300W        W77731   3.865  25.129   3.149
11301W        W77732  44.860  26.736  13.916
11302W        W77733  20.862   7.723   2.849
11303W        W77734  24.402  33.477  13.360
11304W        W77735  37.516   1.240   1.083
11305W        W77736  32.380   8.750   1.451
11306W        W77737   0.507  42.884   3.792
11307W        W77738  38.035   9.176  11.592
11308W        W77739  41.068  23.823  14.895
11309W        W77740  17.916   2.417   0.730
11310W        W77741  19.949  40.376   1.182
11311W        W77742   5.944  41.760  12.009
11312W        W77743   8.193   6.096   1.394
11313W        W77744  28.583  12.894   0.771
11314W        W77745  20.294   0.509  14.754
11315W        W77746   6.861   7.902   0.239
11316W        W77747  39.938  15.366  12.159
11317W        W77748  12.583  16.055   1.735
11318W        W77749  40.389  32.777   4.149
11319W        W77750   5.369   6.058  12.998
11320W        W77751  25.482  34.293   1.481
11321W        W77752  38.373   4.225   4.302
11322W        W77753  33.629  29.704   2.400
11323W        W77754  23.505  28.894   4.994
11324W        W77755  26.393  16.957   1.914
11325W        W77756  41.341  30.549   3.248
11326W        W77757   7.695  39.557   1.800
11327W        W77758   1.100  34.632   3.182
11328W        W77759  16.618   2.185  13.348
11329W        W77760  18.266   6.901   3.314
11330W        W77761  30.210  30.093  12.720
11331W        W77762  26.692  44.164   0.923
11332W        W77763   4.270  17.257  10.731
11333W        W77764  12.190   7.003   3.113
11334W        W77765  20.805  33.900   1.711
11335W        W77766  11.718  22.660   2.358
11336W        W77767  11.739  29.678   0.849
11337W        W77768  18.519  10.204  11.960
11338W        W77769  19.267  16.415  11.222
11339W        W77770  23.673   3.506  12.884
11340W        W77771  17.400   7.204  10.041
11341W        W77772  38.009  43.837   1.632
11342W        W77773  18.137   3.990  11.063
11343W        W77774   8.920  27.457  14.303
11344W        W77775  36.527   4.906  12.855
11345W        W77776  36.681  19.527   1.699
11346W        W77777  34.353  28.727   9.951
11347W        W77778   5.802  26.071   3.375
11348W        W77779  14.170   0.899  12.829
11349W        W77780  21.069  15.023   5.511
11350W        W77781  37.381   5.034   3.331
11351W        W77782  30.417  42.786  11.085
11352W        W77783   1.950  29.891  11.574
11353W        W77784  21.562   0.385   4.661
11354W        W77785  33.080   3.910   0.025
11355W        W77786  35.858  10.677   1.679
11356W        W77787  14.096  18.380  12.901
11357W        W77788  44.171  26.431   4.399
11358W        W77789  27.231  41.506  12.012
11359W        W77790  31.798  11.579  11.734
11360W        W77791  40.059  34.367   0.011
11361W        W77792  37.090   2.359   0.415
11362W        W77793  37.150   1.877   2.270
11363W        W77794  44.030  25.759  10.605
11364W        W77795  10.612  14.268  12.940
11365W        W77796   1.027  23.473   3.635
11366W        W77797  20.752  20.678   2.411
11367W        W77798   3.833  34.332   0.826
11368W        W77799   9.899  16.102   3.730
11369W        W77800  12.400   4.859   0.933
11370W        W77801  40.860  21.193   3.650
11371W        W77802  36.500  14.068   2.231
11372W        W77803  39.081  16.671  12.995
11373W        W77804  10.531  11.767   1.152
11374W        W77805  37.425  37.497   1.820
11375W        W77806  35.081  14.095   0.315
11376W        W77807  24.978  10.866   2.308
11377W        W77808  21.619  12.373   2.392
11378W        W77809  10.823  27.475  11.404
11379W        W77810   8.183  37.142   3.616
11380W        W77811  16.546  12.210   0.392
11381W        W77812  36.279  21.447  13.414
11382W        W77813  27.133   2.288   3.121
11383W        W77814  34.929  24.384   3.870
11384W        W77815  13.025  27.266   3.056
11385W        W77816  13.240  14.686   0.916
11386W        W77817  25.101   3.375  13.568
11387W        W77818  27.567  16.819  14.780
11388W        W77819  20.460   4.277  14.519
11389W        W77820  23.143  35.002   0.865
11390W        W77821   7.122  25.178   1.328
11391W        W77822  37.624   4.324  11.407
11392W        W77823   5.761  30.946   3.741
11393W        W77824  13.066  41.366  11.586
11394W        W77825  13.609  18.149   4.307
11395W        W77826  40.085  29.448  12.865
11396W        W77827   0.220  31.905   0.827
11397W        W77828  16.118   8.682   0.906
11398W        W77829  13.728  18.505   4.662
11399W        W77830  26.564  38.933   3.785
11400W        W77831  44.752  12.973   0.758
11401W        W77832  13.621   1.954   0.768
11402W        W77833  27.391   7.618  11.962
11403W        W77834  18.581  38.320  13.836
11404W        W77835  17.772  17.520  10.653
11405W        W77836  10.884  26.739  12.040
11406W        W77837  39.803  30.505   5.379
11407W        W77838  30.925  22.262  12.938
11408W        W77839  13.844  41.499   0.932
11409W        W77840  40.187  30.430  12.090
11410W        W77841  10.146  27.996   3.102
11411W        W77842  38.633  40.154   0.118
11412W        W77843  12.540  18.339  12.011
11413W        W77844  40.663  15.510   2.650
11414W        W77845   4.056  15.781   3.622
11415W        W77846  38.932  12.713   0.809
11416W        W77847  20.057   6.194   4.053
11417W        W77848  28.182  26.200   4.118
11418W        W77849   5.397  20.509  12.473
11419W        W77850  13.810  12.232  10.754
11420W        W77851  26.900  24.127  14.951
11421W        W77852  12.726  41.768   1.194
11422W        W77853  35.260  38.386   4.237
11423W        W77854  40.187  32.940  10.329
11424W        W77855   9.693   3.203  11.088
11425W        W77856  43.717  20.046   1.014
11426W        W77857  14.993  15.644   1.829
11427W        W77858  37.228   7.253   0.265
11428W        W77859  32.676  38.726   1.991
11429W        W77860  41.744  24.531  13.739
11430W        W77861  15.174  23.265  14.880
11431W        W77862  19.202  33.889  13.907
11432W        W77863  29.938   5.683   0.640
11433W        W77864   0.824  31.526   2.255
11434W        W77865  31.416  23.682   0.532
11435W        W77866  24.674  41.593   4.476
11436W        W77867   9.520   1.183  11.907
11437W        W77868  12.143  26.001   0.468
11438W        W77869  29.345   8.991  12.537
11439W        W77870  41.928  34.938   1.311
11440W        W77871  26.947   8.363   4.483
11441W        W77872   3.178  23.985   4.655
11442W        W77873  24.687  39.320   1.234
11443W        W77874  18.686  30.523  12.568
11444W        W77875  35.083  13.364   2.219
11445W        W77876  41.946  26.137   1.356
11446W        W77877  38.503  18.582   3.601
11447W        W77878  34.161  37.450   0.977
11448W        W77879  40.033  25.631  13.538
11449W        W77880   7.011  17.165   3.592
11450W        W77881  23.932  23.464  13.246
11451W        W77882  25.516  25.325  13.303
11452W        W77883  39.086  32.627  11.038
11453W        W77884  15.329   9.090  13.781
11454W        W77885  29.339  31.062  13.077
11455W        W77886  13.106  10.268  10.699
11456W        W77887  41.310  33.946  11.750
11457W        W77888  31.166   6.716  14.473
11458W        W77889   4.668  24.713   1.428
11459W        W77890  39.954  10.826  12.167
11460W        W77891  11.323  34.819   1.439
11461W        W77892  40.766   2.197   0.955
11462W        W77893   2.496  44.185   1.237
11463W        W77894  29.127   1.549   4.163
11464W        W77895   0.827  25.214   0.422
11465W        W77896  17.630  34.187  14.921
11466W        W77897  13.669  28.803   3.388
11467W        W77898  42.642  21.261  12.879
11468W        W77899  30.411  19.194   0.211
11469W        W77900  17.846   1.339   1.002
11470W        W77901   3.669  42.407   2.905
11471W        W77902  26.687   1.216  14.007
11472W        W77903  43.257  39.242   0.972
11473W        W77904  28.094  30.084  10.692
11474W        W77905  35.384   6.804  13.522
11475W        W77906  34.611  12.835  10.774
11476W        W77907  44.428  12.041   3.111
11477W        W77908  12.637  25.610  13.244
11478W        W77909  32.575  24.740   4.570
11479W        W77910   5.202  13.968  14.642
11480W        W77911   6.521  20.327   4.084
11481W        W77912   1.066  26.734  11.607
11482W        W77913   2.767   9.862   3.324
11483W        W77914  24.485  41.410   1.890
11484W        W77915   9.463  26.633  13.426
11485W        W77916   8.404  15.708   1.486
11486W        W77917   7.422   1.941   3.439
11487W        W77918  22.501  41.653  14.650
11488W        W77919  27.492   2.725   2.921
11489W        W77920   0.768  31.486  12.892
11490W        W77921  33.283  15.731   4.040
11491W        W77922  11.788  22.141  11.157
11492W        W77923  33.800  31.180   0.392
11493W        W77924  40.207  21.477   1.881
11494W        W77925  40.208  14.873  13.808
11495W        W77926  19.865  20.552  13.963
11496W        W77927  27.928   0.008   4.292
11497W        W77928  33.117  31.424   4.603
11498W        W77929  41.108  25.744  11.532
11499W        W77930   4.473  27.495   2.503
11500W        W77931  15.194  39.000   3.668
11501W        W77932  17.742  23.549  10.182
11502W        W77933  23.229  11.048  10.900
11503W        W77934  22.522  17.769  11.649
11504W        W77935   3.023   0.400  12.939
11505W        W77936  31.646  33.675  10.955
11506W        W77937  30.264  30.833  12.945
11507W        W77938  30.507  33.081  12.490
11508W        W77939  21.117  28.887  13.553
11509W        W77940   0.384  15.910  12.454
11510W        W77941  16.480  26.838  14.219
11511W        W77942  15.171  42.672   1.291
11512W        W77943  12.357  17.885   3.300
11513W        W77944  40.348  21.150   1.473
11514W        W77945  34.966  24.745   4.815
11515W        W77946   5.045   0.842   5.052
11516W        W77947   3.378  38.320  14.719
11517W        W77948  41.526  38.812  10.949
11518W        W77949  15.570   4.834  12.954
11519W        W77950  31.272  34.759   0.426
11520W        W77951  37.813  23.833  14.881
11521W        W77952  29.054  17.513  14.937
11522W        W77953  34.540  17.612   4.427
11523W        W77954  14.720   4.386   3.618
11524W        W77955  14.153   0.812  14.235
11525W        W77956   5.333  29.615   1.881
11526W        W77957  41.956   4.801   0.681
11527W        W77958  22.711   4.209   2.852
11528W        W77959  14.282  27.759   1.546
11529W        W77960  19.127  39.367   5.523
11530W        W77961   9.892   6.108  13.853
11531W        W77962  36.531  32.293  10.860
11532W        W77963  25.086   1.049  14.952
11533W        W77964   5.676  35.103   3.824
11534W        W77965  20.663  13.217   1.916
11535W        W77966  15.247   2.647   3.141
11536W        W77967  10.839   5.427   3.400
11537W        W77968  25.097  42.866   1.716
11538W        W77969  11.752   4.505   3.706
11539W        W77970  32.063  38.110  10.693
11540W        W77971  11.824  33.436   0.237
11541W        W77972  11.945  14.778   4.514
11542W        W77973  31.126  31.908  12.097
11543W        W77974   4.781  40.929  13.336
11544W        W77975  18.055  23.692  12.447
11545W        W77976  25.750   3.753  13.920
11546W        W77977  42.442   2.087  10.483
11547W        W77978  30.148  38.920   4.628
11548W        W77979  41.712  40.946  11.096
11549W        W77980  41.864  10.163   0.972
11550W        W77981  42.340  44.651  10.901
11551W        W77982  42.320  36.316  11.171
11552W        W77983  21.787  32.503   4.003
11553W        W77984  18.206  16.655   0.969
11554W        W77985  32.389  40.589  12.612
11555W        W77986   7.739  22.053   4.344
11556W        W77987  22.146  19.537   1.156
11557W        W77988  17.130   0.012  12.546
11558W        W77989  22.510  30.863  12.004
11559W        W77990  11.117  33.603   4.301
11560W        W77991  17.198  24.210   4.088
11561W        W77992  12.570  30.511   2.642
11562W        W77993  17.514  40.461  13.568
11563W        W77994  42.947   8.433   0.855
11564W        W77995  33.550  30.006  14.909
11565W        W77996  14.700  29.128   4.076
11566W        W77997  37.601  10.542  10.495
11567W        W77998  35.942  40.407   3.165
11568W        W77999  27.700  27.161  13.043
11569W        W78000  24.485  30.027  14.647
11570W        W78001  31.863  13.796   3.113
11571W        W78002  18.141  30.334  11.292
11572W        W78003  13.221   9.234  13.052
11573W        W78004  39.469  10.857  12.903
11574W        W78005  32.434  31.562   0.713
11575W        W78006  42.891  19.621   0.929
11576W        W78007   1.299  34.662  14.887
11577W        W78008  33.625  43.769   0.864
11578W        W78009  29.944  30.722   3.617
11579W        W78010  33.858  24.177   2.177
11580W        W78011   2.370  11.593  12.222
11581W        W78012  39.062  14.014   3.675
11582W        W78013  23.701   8.502   2.899
11583W        W78014  27.446  11.677   4.335
11584W        W78015   6.656  23.151   4.055
11585W        W78016  17.423  35.850   5.012
11586W        W78017   5.639  39.398   3.314
11587W        W78018  13.288  38.529  13.828
11588W        W78019  13.872  25.445  13.798
11589W        W78020  41.300  37.496  12.055
11590W        W78021  38.777  15.314  13.916
11591W        W78022   0.035  26.012   0.272
11592W        W78023  27.827   2.892   1.855
11593W        W78024  15.212  32.556   3.674
11594W        W78025  34.727  24.683  13.895
11595W        W78026  41.059  17.665   2.856
11596W        W78027  34.032  43.050  12.576
11597W        W78028   0.661  23.625  11.797
11598W        W78029  20.912  23.417   2.092
11599W        W78030   3.032  26.971  14.395
11600W        W78031  25.754  39.387   2.721
11601W        W78032  27.552  40.574   2.768
11602W        W78033  43.033  23.098  11.053
11603W        W78034   8.736  35.476   0.672
11604W        W78035   1.972  10.822   2.400
11605W        W78036  34.562  14.701  10.724
11606W        W78037  42.559  25.118  12.885
11607W        W78038  24.393  25.045  11.294
11608W        W78039  22.156   6.677  11.106
11609W        W78040  31.688  42.059   0.509
11610W        W78041  27.763  35.120   1.170
11611W        W78042  16.912  21.260  13.448
11612W        W78043  25.393   4.314   3.624
11613W        W78044   7.280   8.334  11.512
11614W        W78045  34.778  18.037   3.146
11615W        W78046  32.125  27.502   3.424
11616W        W78047   5.434  25.607   3.308
11617W        W78048  29.435  38.980  11.474
11618W        W78049  10.829  25.963  13.270
11619W        W78050  34.836  39.008   3.936
11620W        W78051  30.253  39.807  14.904
11621W        W78052  37.939   6.803   3.648
11622W        W78053  26.472  31.500   3.666
11623W        W78054  37.822  41.414   2.334
11624W        W78055  16.019   2.393  10.447
11625W        W78056   4.896   5.716  11.078
11626W        W78057  20.082  37.840  14.616
11627W        W78058  26.691  41.539  12.918
11628W        W78059  38.975  40.128  12.955
11629W        W78060  40.950  17.181  11.263
11630W        W78061  34.164  11.254  11.062
11631W        W78062   6.470  10.699   1.716
11632W        W78063   2.445  13.583  11.505
11633W        W78064  44.054  11.789  14.448
11634W        W78065  27.975   2.442  14.002
11635W        W78066  26.490   0.047  12.514
11636W        W78067  22.687  27.506  12.412
11637W        W78068  21.916  35.438  14.035
11638W        W78069  23.087  39.124   3.523
11639W        W78070  33.583  12.780   0.909
11640W        W78071  27.475  31.388   0.494
11641W        W78072  18.469  37.004   2.517
11642W        W78073  10.443  44.499  10.942
11643W        W78074  43.899  28.704   4.084
11644W        W78075  16.337   8.750  14.902
11645W        W78076   7.514   6.434  11.226
11646W        W78077  11.270  31.628   3.281
11647W        W78078  30.762  43.061  11.436
11648W        W78079  20.053   6.437   3.603
11649W        W78080  39.241  40.691   3.108
11650W        W78081  20.690  28.545   1.386
11651W        W78082  12.852  17.552   4.540
11652W        W78083  36.517  33.382   0.084
11653W        W78084  35.051  13.784  12.438
11654W        W78085  15.587   1.697   0.700
11655W        W78086  40.533  31.029   2.220
11656W        W78087   4.794   7.548   2.303
11657W        W78088  44.120  14.551  12.795
11658W        W78089  44.758  44.985   2.676
11659W        W78090  10.412  36.242  10.993
11660W        W78091  33.546   6.644  12.049
11661W        W78092  33.939   2.638   0.096
11662W        W78093   4.780  32.455  14.696
11663W        W78094   5.934  15.580   1.291
11664W        W78095  18.589  27.795   0.362
11665W        W78096  26.592   8.171  11.191
11666W        W78097  43.030  15.644   5.299
11667W        W78098  26.122  18.113  12.074
11668W        W78099  41.944  35.115   1.845
11669W        W78100  23.636  27.436   4.550
11670W        W78101   1.887  14.575  14.067
11671W        W78102   4.714  23.127   2.929
11672W        W78103  42.433   0.269   2.220
11673W        W78104  11.917  32.447   1.760
11674W        W78105  21.736   4.278  13.004
11675W        W78106  14.594  11.365   2.900
11676W        W78107  14.903  44.521  12.052
11677W        W78108  39.466  21.170   4.549
11678W        W78109  44.778  17.801  13.577
11679W        W78110  35.361   2.767   1.434
11680W        W78111  35.910  24.482  14.061
11681W        W78112  37.347  19.819   4.681
11682W        W78113   6.610   3.333  10.490
11683W        W78114  20.483  17.377  10.141
11684W        W78115  21.842   4.383   0.435
11685W        W78116   3.217  27.024   0.580
11686W        W78117  21.732   0.772   2.162
11687W        W78118   1.955  25.130  12.221
11688W        W78119  22.481   6.193   1.174
11689W        W78120  34.593  25.703   3.921
11690W        W78121  11.495   2.080   0.841
11691W        W78122   5.094  11.352  14.368
11692W        W78123  25.061  14.445  14.032
11693W        W78124  44.788  24.773   4.926
11694W        W78125  37.863  25.009   4.051
11695W        W78126   3.205  19.074   3.079
11696W        W78127  18.237  11.137   4.974
11697W        W78128  12.653  36.171  13.146
11698W        W78129  22.244  33.035  11.340
11699W        W78130  24.480   5.865   2.141
11700W        W78131  35.994  35.906  10.708
11701W        W78132  25.111  31.451   0.790
11702W        W78133  19.577  22.147  11.498
11703W        W78134  24.076  31.653   0.545
11704W        W78135  24.785  14.502   4.168
11705W        W78136  21.686  36.640  14.040
11706W        W78137  15.584  34.545   1.874
11707W        W78138  24.107  20.298  11.704
11708W        W78139  18.063   4.433  13.942
11709W        W78140  23.595  43.254  12.403
11710W        W78141   7.121  36.930  12.144
11711W        W78142   7.330  16.632  14.260
11712W        W78143   9.544  33.382   3.306
11713W        W78144   9.747  21.503  12.916
11714W        W78145  12.858   9.372   1.255
11715W        W78146  22.357  40.307   5.405
11716W        W78147  30.146  41.552   2.098
11717W        W78148  35.502   4.665  13.530
11718W        W78149  15.464  35.586   0.317
11719W        W78150  32.348  12.237  14.774
11720W        W78151  37.647  15.318  12.645
11721W        W78152  27.134  21.884   4.391
11722W        W78153   9.744   4.693  10.304
11723W        W78154   6.427  17.037   1.282
11724W        W78155   3.453  10.055   1.789
11725W        W78156  12.724  18.877  11.140
11726W        W78157  16.957  24.271  12.688
11727W        W78158  19.590  10.695  13.016
11728W        W78159  32.413  39.035   3.653
11729W        W78160  32.630   5.522  11.734
11730W        W78161  38.638   0.302   2.678
11731W        W78162  43.976  28.158   2.613
11732W        W78163  26.078  22.038  12.176
11733W        W78164  21.818  35.418   2.356
11734W        W78165  19.657  38.800  11.978
11735W        W78166  37.103   3.133  12.974
11736W        W78167  26.097  22.092  11.667
11737W        W78168  31.102  27.549   2.792
11738W        W78169  34.463   3.449  11.521
11739W        W78170  25.569  23.162   2.256
11740W        W78171  15.906  42.101   5.069
11741W        W78172  41.752   0.481  13.546
11742W        W78173  12.399  37.935  10.657
11743W        W78174   3.217   2.256  13.029
11744W        W78175  12.321  25.068  12.004
11745W        W78176  44.936  20.576  14.683
11746W        W78177  19.571   9.757  14.281
11747W        W78178   7.888  42.216   0.652
11748W        W78179  26.259   9.276  11.886
11749W        W78180   1.073  14.942  12.913
11750W        W78181   9.297  15.076  12.443
11751W        W78182   3.448  19.566  12.148
11752W        W78183  43.297  23.587  14.920
11753W        W78184   2.315  29.924  14.896
11754W        W78185  15.203  17.129   1.718
11755W        W78186   9.632  12.141   3.414
11756W        W78187  43.773  10.217  10.792
11757W        W78188   6.088   3.187   1.294
11758W        W78189  33.635  35.387  10.594
11759W        W78190  20.974  36.116  13.904
11760W        W78191  17.329  15.848   1.292
11761W        W78192  30.882  39.507  14.454
11762W        W78193  43.268  19.267  14.457
11763W        W78194  30.460  32.486   1.445
11764W        W78195  40.598  34.349  11.176
11765W        W78196  34.636  34.921   3.696
11766W        W78197  22.273  22.039  11.632
11767W        W78198   3.409  28.276   2.663
11768W        W78199  38.398   8.651  10.449
11769W        W78200   5.996   2.419   1.880
11770W        W78201  39.011  42.121  10.447
11771W        W78202  28.473  27.208   3.705
11772W        W78203  43.887  30.384   3.214
11773W        W78204   8.339  43.593  12.028
11774W        W78205  34.144  22.157   2.639
11775W        W78206  25.828   1.637  13.146
11776W        W78207  10.851  29.206   0.958
11777W        W78208  38.107   0.427  14.025
11778W        W78209  23.772  37.286  13.519
11779W        W78210  25.648  35.483   4.610
11780W        W78211  39.264  15.199  14.041
11781W        W78212  31.115  10.800  14.388
11782W        W78213  18.234   7.007  12.174
11783W        W78214  28.167  31.835  13.351
11784W        W78215  39.317  17.392   0.886
11785W        W78216  40.239   4.229  11.483
11786W        W78217  23.486  31.609  11.204
11787W        W78218  22.581  34.601   0.515
11788W        W78219  13.674  35.593  13.730
11789W        W78220  40.745   2.983   2.672
11790W        W78221  30.176  11.796  13.932
11791W        W78222  19.540   4.223   1.828
11792W        W78223  31.705   9.932   4.864
11793W        W78224  13.506  23.227   0.445
11794W        W78225  11.115   1.634  10.909
11795W        W78226  43.683   6.011   3.636
11796W        W78227  26.582  39.433   2.324
11797W        W78228  35.959  28.212  12.130
11798W        W78229  28.083   3.974  13.027
11799W        W78230  21.707  27.281   1.846
11800W        W78231   5.725  13.269   1.671
11801W        W78232  38.131  34.561   5.540
11802W        W78233   3.862  13.079   0.762
11803W        W78234  44.499   2.063  12.657
11804W        W78235  15.755   7.179  14.312
11805W        W78236   7.176  42.800   1.502
11806W        W78237  17.020  32.357   2.655
11807W        W78238   9.413  43.049  14.835
11808W        W78239  17.475   1.985   4.662
11809W        W78240  10.228  42.488   3.060
11810W        W78241  41.141  11.823   1.289
11811W        W78242  14.325  20.215  11.171
11812W        W78243  37.985  18.468   3.595
11813W        W78244   8.137  34.399   3.789
11814W        W78245  11.128  16.285  14.956
11815W        W78246  21.129   8.835  14.497
11816W        W78247  42.735   8.618   4.741
11817W        W78248  12.667  35.092   0.898
11818W        W78249   1.374  34.241   0.815
11819W        W78250  36.945  13.261   1.877
11820W        W78251   5.958  37.481   0.346
11821W        W78252  11.411   5.767  13.829
11822W        W78253   9.711  12.425  13.735
11823W        W78254   0.663  26.383   2.237
11824W        W78255  36.012  25.670  10.750
11825W        W78256  43.056  27.036   3.295
11826W        W78257  35.473  35.006   2.806
11827W        W78258  41.827   6.182  14.503
11828W        W78259   0.504  44.863  11.016
11829W        W78260   9.175  13.219  12.620
11830W        W78261  26.022  21.169  11.192
11831W        W78262  23.010  11.279   2.777
11832W        W78263  11.336  41.965   0.894
11833W        W78264  28.500   2.923   0.429
11834W        W78265   1.991  23.524   2.849
11835W        W78266  22.587  43.667   4.053
11836W        W78267  21.853  27.271   9.570
11837W        W78268  37.784  12.268  13.104
11838W        W78269   1.069  42.796   5.088
11839W        W78270  18.013  39.063   0.299
11840W        W78271   7.206   0.771   3.117
11841W        W78272  31.170  33.041   4.401
11842W        W78273   0.787   5.934  12.923
11843W        W78274   1.196  23.984  10.740
11844W        W78275  34.774  27.633  11.635
11845W        W78276   2.273   5.712   2.669
11846W        W78277  29.007  25.216   4.658
11847W        W78278  30.997   2.768   4.170
11848W        W78279  12.284  38.807   0.972
11849W        W78280  10.920  37.738   3.601
11850W        W78281  34.938   6.361   0.006
11851W        W78282   9.769  14.922  12.426
11852W        W78283   2.761   9.346  12.086
11853W        W78284  17.596  36.953   1.613
11854W        W78285   4.973   8.056   0.561
11855W        W78286  28.682   4.142   9.736
11856W        W78287  13.349   2.372  10.890
11857W        W78288  41.476  29.504   0.991
11858W        W78289  12.106   1.022  12.196
11859W        W78290  24.526  11.747  14.203
11860W        W78291  43.883  32.896  14.352
11861W        W78292  24.220  41.017   0.836
11862W        W78293  40.448   5.788  13.001
11863W        W78294  22.675  33.843  13.116
11864W        W78295  15.220   6.296  12.628
11865W        W78296  12.857  22.759  14.804
11866W        W78297   1.789  36.348  12.896
11867W        W78298  25.133  35.288  14.391
11868W        W78299   9.995  33.585   4.887
11869W        W78300  44.235  31.464   1.806
11870W        W78301  41.758  18.848   1.918
11871W        W78302  37.836  20.989  12.880
11872W        W78303  31.670  10.155   0.419
11873W        W78304   0.520  43.888   2.619
11874W        W78305   7.397  43.412  13.301
11875W        W78306  11.309  27.631   2.645
11876W        W78307  10.583  24.672   2.953
11877W        W78308  11.132  16.540   1.428
11878W        W78309  25.617  23.459  13.037
11879W        W78310   6.240   5.146  10.796
11880W        W78311  37.058  23.709  12.961
11881W        W78312  40.661   1.642   1.767
11882W        W78313   5.956  39.517   3.688
11883W        W78314   9.847  15.621   3.896
11884W        W78315  14.161  29.002  13.383
11885W        W78316  16.115  18.232   0.765
11886W        W78317  12.185  44.554  14.988
11887W        W78318  13.634  40.864   1.597
11888W        W78319   6.654  12.184  13.750
11889W        W78320  44.384  42.509  10.962
11890W        W78321  24.617  17.603   1.252
11891W        W78322  21.957  35.510   0.801
11892W        W78323  27.073  19.660   0.266
11893W        W78324  44.149  36.267   2.770
11894W        W78325  35.783  11.527  14.459
11895W        W78326  33.071  23.688  12.507
11896W        W78327  35.556  43.255  14.573
11897W        W78328  44.576  39.389  12.112
11898W        W78329   4.482   8.221   2.251
11899W        W78330   2.090  20.202   0.468
11900W        W78331  26.270  31.210   3.282
11901W        W78332  42.967  13.260   0.269
11902W        W78333   2.887  27.694   3.790
11903W        W78334  28.593  34.091   2.648
11904W        W78335  21.801  38.842   4.090
11905W        W78336  29.632  43.158  13.851
11906W        W78337   7.336  28.856   3.960
11907W        W78338   1.194  21.625  13.784
11908W        W78339  14.406  41.924  13.470
11909W        W78340   2.292   0.938  10.167
11910W        W78341  30.953   3.042   4.618
11911W        W78342  10.634  20.864   4.163
11912W        W78343   3.589  43.412  14.713
11913W        W78344  40.109  15.522  10.558
11914W        W78345   9.841  19.343  12.821
11915W        W78346  32.670   3.859  12.010
11916W        W78347  34.137  40.056   2.990
11917W        W78348  22.548  31.065  10.644
11918W        W78349  39.208  17.585   1.880
11919W        W78350   6.089   1.541  11.243
11920W        W78351  19.521  23.409   2.384
11921W        W78352  36.919  24.648  10.995
11922W        W78353  29.079  24.731   3.975
11923W        W78354  18.216  16.708   0.405
11924W        W78355  42.989   0.017  11.172
11925W        W78356  41.959  21.412   1.380
11926W        W78357  34.688   6.151   2.606
11927W        W78358  13.804  22.367   2.286
11928W        W78359  29.151  27.076   0.834
11929W        W78360  30.626  43.289   1.663
11930W        W78361  34.093   2.798   3.246
11931W        W78362  18.155   8.021  13.612
11932W        W78363  14.993  20.037  13.454
11933W        W78364  10.478  44.376  13.850
11934W        W78365  37.790  44.052   0.656
11935W        W78366  27.419   6.943  14.394
11936W        W78367   7.515  23.989   1.890
11937W        W78368  37.291  17.104   1.354
11938W        W78369  16.127  42.096   2.423
11939W        W78370  29.586   5.717  12.874
11940W        W78371  11.607  44.917  10.737
11941W        W78372  41.329  30.112  14.865
11942W        W78373  25.417  24.543   2.768
11943W        W78374   2.291  38.865   1.039
11944W        W78375  11.576  43.440  14.532
11945W        W78376  32.419  41.703   1.584
11946W        W78377  19.672  42.515  12.511
11947W        W78378  15.274  10.557   0.621
11948W        W78379   3.440  23.081  13.063
11949W        W78380  43.579  41.039  14.998
11950W        W78381  11.621  41.821   4.772
11951W        W78382  32.554  41.289  12.119
11952W        W78383  10.061   1.405  14.173
11953W        W78384  40.898   9.354   1.360
11954W        W78385  27.611  35.136  13.112
11955W        W78386  29.062  20.532  12.587
11956W        W78387  19.314  39.404   3.079
11957W        W78388   3.962  18.674  11.176
11958W        W78389  26.194  44.032   2.729
11959W        W78390  36.294  16.473  10.736
11960W        W78391  31.424  40.974   0.746
11961W        W78392  32.151  15.584  12.128
11962W        W78393  19.943  36.480   3.866
11963W        W78394   3.440  19.243  10.767
11964W        W78395  22.976  24.958   0.870
11965W        W78396  11.899  19.759  10.781
11966W        W78397  22.950   1.370   0.407
11967W        W78398  27.916  37.444   0.900
11968W        W78399  32.914  25.731  13.879
11969W        W78400  39.066  42.338  13.800
11970W        W78401  34.142  31.571   0.409
11971W        W78402  10.264  27.905  13.400
11972W        W78403  39.589  16.405   1.283
11973W        W78404  13.066  40.563   0.502
11974W        W78405  32.371  20.932   0.187
11975W        W78406  26.971  20.327  13.395
11976W        W78407  19.069  14.539   1.341
11977W        W78408  27.945  21.387  11.942
11978W        W78409   3.013  17.297  14.065
11979W        W78410  30.135   2.422  11.174
11980W        W78411  36.846  10.777   1.885
11981W        W78412  19.547   8.914   4.401
11982W        W78413  24.258  28.506   0.438
11983W        W78414  25.604  11.835  13.569
11984W        W78415  19.115  12.216  14.328
11985W        W78416  36.607  22.553  11.156
11986W        W78417  14.106  24.220   0.422
11987W        W78418   4.726  31.515   4.694
11988W        W78419  22.551  44.010  11.146
11989W        W78420   5.754  27.396   3.605
11990W        W78421  44.023   2.945   3.239
11991W        W78422  20.445   0.472   4.730
11992W        W78423   6.233  24.127  13.383
11993W        W78424  37.838  18.062   4.014
11994W        W78425  24.736  40.318   5.062
11995W        W78426   5.507  23.552   2.818
11996W        W78427   7.796   6.322  13.424
11997W        W78428   6.930  18.034   3.166
11998W        W78429  31.983   5.319  10.092
11999W        W78430  32.318   7.702   0.310
12000W        W78431  27.282   5.983  13.114
12001W        W78432  35.378  30.543  12.197
12002W        W78433  38.716   4.385  13.332
12003W        W78434   8.206   4.869  11.494
12004W        W78435   1.937  25.817   2.889
12005W        W78436  16.715   0.696   3.727
12006W        W78437   0.062   2.803  11.910
12007W        W78438  28.856  21.774   0.717
12008W        W78439  21.569  23.249   0.119
12009W        W78440  43.646  23.020  12.826
12010W        W78441  20.124  36.600   2.876
12011W        W78442  42.090  43.607  14.309
12012W        W78443  20.490  20.012  11.067
12013W        W78444   7.189   3.533   0.770
12014W        W78445  17.135  15.162   2.374
12015W        W78446  21.244  34.909  14.302
12016W        W78447  22.741  21.057   0.907
12017W        W78448  31.798   1.396  11.124
12018W        W78449  22.933  44.207   1.805
12019W        W78450  11.233  11.098   3.330
12020W        W78451  11.545  29.886   4.937
12021W        W78452  43.842  42.312  13.300
12022W        W78453  11.258  36.906  13.296
12023W        W78454  30.465  30.714   2.855
12024W        W78455  29.282  44.116  12.469
12025W        W78456   1.972  35.180  12.138
12026W        W78457  19.724  13.131  10.427
12027W        W78458  38.826   4.921   3.959
12028W        W78459  41.727  39.799   1.443
12029W        W78460  18.135   1.053   1.320
12030W        W78461  33.063  31.305   0.945
12031W        W78462  28.158  28.604  13.440
12032W        W78463  34.980  12.222  13.264
12033W        W78464  20.519  44.899   3.640
12034W        W78465  14.827   9.045  13.913
12035W        W78466   8.102   1.164   0.528
12036W        W78467  13.993   6.695  13.834
12037W        W78468  25.078  27.556   1.163
12038W        W78469   7.644  14.488  11.211
12039W        W78470  38.532   0.786   2.450
12040W        W78471   0.068  33.320  10.680
12041W        W78472  43.057   8.457   2.357
12042W        W78473  37.482  22.448  10.628
12043W        W78474  26.509  42.904  13.876
12044W        W78475  28.933  27.444   2.501
12045W        W78476  36.944  23.023  12.488
12046W        W78477  14.741  36.376  11.603
12047W        W78478  25.136  14.125  14.444
12048W        W78479  30.090  31.952  10.072
12049W        W78480  24.180  34.512  12.827
12050W        W78481  11.314  26.726   3.570
12051W        W78482  38.306  30.442  12.616
12052W        W78483  35.584  26.948  13.039
12053W        W78484  10.197  27.245   0.470
12054W        W78485  10.787  35.945  12.686
12055W        W78486  42.349  14.320  10.649
12056W        W78487  16.647  41.876  13.868
12057W        W78488  24.072  22.511  10.518
12058W        W78489   2.837  15.096  11.956
12059W        W78490  17.145  30.344   2.746
12060W        W78491  38.498   3.235   1.326
12061W        W78492  44.316  28.570  10.687
12062W        W78493   1.125  29.519   4.825
12063W        W78494   7.156  34.931   1.813
12064W        W78495  27.086  35.130   5.133
12065W        W78496  35.376  27.023   4.418
12066W        W78497  28.346  31.798   0.697
12067W        W78498  41.871  13.295  14.767
12068W        W78499  32.912  24.027   1.218
12069W        W78500  20.718   0.865  12.958
12070W        W78501  38.976  35.222  11.190
12071W        W78502  38.083   5.483  14.216
12072W        W78503  24.510  14.783   0.764
12073W        W78504  38.313  13.565   4.217
12074W        W78505  10.742   5.938   1.934
12075W        W78506  27.442  31.930  14.894
12076W        W78507  20.533  42.959   1.322
12077W        W78508  38.416  41.873  12.103
12078W        W78509  24.756  24.215   1.609
12079W        W78510  16.041  28.458  14.070
12080W        W78511   0.567   5.559   4.193
12081W        W78512  44.563  36.134   3.997
12082W        W78513  16.587  42.268   4.257
12083W        W78514  22.654   9.628   0.517
12084W        W78515  41.562  19.520   4.225
12085W        W78516  30.483   5.792   2.194
12086W        W78517   0.460   1.262  11.098
12087W        W78518  24.617  13.952  11.675
12088W        W78519  33.905  11.858   1.042
12089W        W78520   8.720  24.017   0.688
12090W        W78521  17.074  23.078   1.873
12091W        W78522  38.991  14.808  11.050
12092W        W78523   6.130  33.579   3.721
12093W        W78524  42.335  35.418  12.847
12094W        W78525  22.943   8.684   4.921
12095W        W78526  24.984  15.678   4.790
12096W        W78527  18.767  10.841  13.585
12097W        W78528  14.901  20.577   0.759
12098W        W78529   3.407  44.845   3.816
12099W        W78530   6.924  24.144  10.680
12100W        W78531  15.516  14.473  14.955
12101W        W78532   9.253  31.316   2.336
12102W        W78533  24.596  13.720  10.840
12103W        W78534  32.964  22.990   2.613
12104W        W78535  29.383  34.180   2.258
12105W        W78536  14.609   2.347  13.838
12106W        W78537  42.997  36.433  14.553
12107W        W78538  12.623   5.302  13.874
12108W        W78539  37.965  33.851   3.779
12109W        W78540  19.568  41.368   1.664
12110W        W78541  17.403   3.061  12.577
12111W        W78542  14.155  18.081   0.921
12112W        W78543  19.177  37.835   2.189
12113W        W78544  30.987  43.921  13.448
12114W        W78545  31.033   3.630   1.223
12115W        W78546  22.585  11.374   3.125
12116W        W78547   6.136   5.763  13.336
12117W        W78548  33.156  10.890   3.071
12118W        W78549   4.218  14.336  11.119
12119W        W78550  40.921   7.902   2.186
12120W        W78551   1.876  39.958   2.394
12121W        W78552  37.967   2.996  11.603
12122W        W78553  29.795  44.912   1.416
12123W        W78554   6.778   7.687   2.663
12124W        W78555   2.346   7.843   4.874
12125W        W78556  33.422  28.024  12.921
12126W        W78557  18.789  21.428  14.032
12127W        W78558  37.324  35.529   0.445
12128W        W78559  21.743  11.207  13.331
12129W        W78560  25.201   5.959   4.363
12130W        W78561  14.734   7.947   4.102
12131W        W78562   8.849  21.873  13.472
12132W        W78563  13.835   0.005  10.746
12133W        W78564  25.074  31.170   2.588
12134W        W78565   6.057  22.530  11.322
12135W        W78566  12.790  16.633   4.621
12136W        W78567  21.097  18.641   2.608
12137W        W78568  39.229   0.825   1.801
12138W        W78569  29.945   9.757   2.807
12139W        W78570   7.720  22.917   1.564
12140W        W78571  31.958  26.448   1.367
12141W        W78572  13.987  22.086  14.478
12142W        W78573   4.595  23.584   3.714
12143W        W78574  13.529   1.848  12.925
12144W        W78575   1.960  32.982  14.226
12145W        W78576  38.864   8.532   4.054
12146W        W78577  16.296  32.023  13.994
12147W        W78578  38.957   4.964   4.447
12148W        W78579   8.679  35.602  12.518
12149W        W78580   1.445  11.159  12.412
12150W        W78581  43.818  43.062   2.815
12151W        W78582  44.741   0.498   2.546
12152W        W78583  14.457  43.775   3.035
12153W        W78584  41.457  11.949   0.813
12154W        W78585  10.045  43.906   3.792
12155W        W78586  19.734  21.755   0.035
12156W        W78587   0.236  23.620   2.617
12157W        W78588  20.644   6.748  10.779
12158W        W78589   5.005  18.194  13.871
12159W        W78590  30.520  29.870   1.447
12160W        W78591  33.128  27.640  13.532
12161W        W78592  20.799  42.538  13.855
12162W        W78593  23.134  18.317   3.243
12163W        W78594  43.498   9.849   1.776
12164W        W78595  17.299  23.404   4.469
12165W        W78596  31.961  43.731   2.453
12166W        W78597   3.349  44.870   4.630
12167W        W78598   7.164   5.217   3.613
12168W        W78599  25.303  11.389  11.954
12169W        W78600  32.997   0.662  12.484
12170W        W78601  22.010  29.638  14.949
12171W        W78602  18.504   6.728   3.788
12172W        W78603  31.556  15.759  14.855
12173W        W78604  14.800  10.715   3.108
12174W        W78605   9.654  22.111   2.757
12175W        W78606  44.990   9.905   1.740
12176W        W78607   8.811  34.895  14.339
12177W        W78608   4.804  18.018   2.418
12178W        W78609  24.241  43.512   2.343
12179W        W78610   1.667  41.456   3.034
12180W        W78611   5.045  17.135   4.484
12181W        W78612   6.669   0.224   1.958
12182W        W78613  39.430  16.218   4.320
12183W        W78614  20.624   6.456  14.502
12184W        W78615  22.229  16.690   1.792
12185W        W78616  41.022  20.092  13.892
12186W        W78617  30.764  21.110  10.763
12187W        W78618  39.446   2.773   1.148
12188W        W78619  13.367  43.375   3.708
12189W        W78620  14.072  42.765  13.382
12190W        W78621  11.087   2.364   3.358
12191W        W78622  31.553  41.177   3.352
12192W        W78623   5.739  12.945  10.928
12193W        W78624   0.495  37.071   1.760
12194W        W78625  35.882  24.255  12.980
12195W        W78626  43.555   2.756   1.404
12196W        W78627  22.238  28.593   0.216
12197W        W78628  15.662  30.389   4.619
12198W        W78629  35.394  10.385   2.869
12199W        W78630  22.574  22.233   1.819
12200W        W78631  31.157   9.365   0.351
12201W        W78632  19.216  41.146  13.892
12202W        W78633  13.756  40.509  14.302
12203W        W78634  39.202  10.281  14.491
12204W        W78635  18.168   0.318  13.877
12205W        W78636  20.664  25.168   1.673
12206W        W78637  25.671  32.088  13.392
12207W        W78638  11.272   4.231  13.969
12208W        W78639  30.972  13.786  14.546
12209W        W78640  31.890  15.606   1.188
12210W        W78641  29.653  15.788  10.213
12211W        W78642  31.524  26.435   1.856
12212W        W78643  26.964  21.014   1.249
12213W        W78644   6.676   4.761  12.504
12214W        W78645  32.600  44.886  14.993
12215W        W78646  17.149   8.800   2.156
12216W        W78647   7.688  36.788  14.033
12217W        W78648   0.432  24.015  11.093
12218W        W78649  35.594  39.403  12.733
12219W        W78650  25.665  18.525  14.789
12220W        W78651  22.400  34.827  12.001
12221W        W78652  44.261  22.109  11.709
12222W        W78653   4.264  43.871  10.380
12223W        W78654  30.611  12.350   2.697
12224W        W78655  22.334  22.623   2.572
12225W        W78656  21.743  10.908   1.298
12226W        W78657   6.984  23.525   4.156
12227W        W78658  39.421  42.858  11.617
12228W        W78659  33.487  15.658  10.955
12229W        W78660  29.642  10.696   2.301
12230W        W78661  27.244  19.043   5.116
12231W        W78662  17.712  26.572  14.422
12232W        W78663  41.704  19.484  11.420
12233W        W78664  11.668  17.183  11.524
12234W        W78665  28.530  13.784  11.514
12235W        W78666  40.466  18.875   0.753
12236W        W78667  34.376   2.912   0.018
12237W        W78668  20.527  24.036  14.800
12238W        W78669  17.141  20.673   2.744
12239W        W78670  18.622  12.078  10.676
12240W        W78671   3.998   1.922  12.464
12241W        W78672  40.102  33.387   0.318
12242W        W78673   7.958  38.014  11.628
12243W        W78674  16.515  29.441   3.502
12244W        W78675   4.858  15.682  10.739
12245W        W78676  37.164  41.842   1.300
12246W        W78677  34.097  21.756  13.126
12247W        W78678  15.393  18.661   1.379
12248W        W78679  32.085  14.291  12.611
12249W        W78680   4.299  13.580   3.925
12250W        W78681  33.418  23.913   2.197
12251W        W78682  14.803   7.398  12.531
12252W        W78683  33.101   8.808   1.391
12253W        W78684  27.078  29.164   1.031
12254W        W78685  41.566  37.875   1.377
12255W        W78686   0.421  42.837   0.938
12256W        W78687   4.185   2.386   3.209
12257W        W78688   5.208  39.997   1.705
12258W        W78689  17.633  32.428  11.020
12259W        W78690  14.401  27.087   4.189
12260W        W78691  24.113  44.644  10.669
12261W        W78692  43.810  41.513  14.748
12262W        W78693   6.269  19.235   3.610
12263W        W78694  31.461  17.179   4.628
12264W        W78695  25.329  22.248   2.908
12265W        W78696  25.740  18.202  12.554
12266W        W78697  17.282  25.478   4.633
12267W        W78698  27.913   1.782  13.391
12268W        W78699  33.505  21.699   1.068
12269W        W78700   6.214  14.367   2.465
12270W        W78701  23.199  37.279  13.969
12271W        W78702   6.880  11.387   2.360
12272W        W78703  26.484   3.311  14.822
12273W        W78704  20.249  10.644  13.938
12274W        W78705  15.896  44.310   0.294
12275W        W78706   9.715   8.612   3.649
12276W        W78707   6.465  22.163   1.191
12277W        W78708  15.328  39.034  14.674
12278W        W78709  38.914  27.739  12.091
12279W        W78710  27.142   0.212   0.398
12280W        W78711  18.171  27.176  13.550
12281W        W78712   5.233   9.289   1.817
12282W        W78713  26.107  21.979  13.879
12283W        W78714   7.693  16.795  12.906
12284W        W78715  21.140  25.254   1.477
12285W        W78716  30.637  31.606   1.770
12286W        W78717  36.911   1.362   0.372
12287W        W78718   8.086  17.186  10.264
12288W        W78719  23.714   4.969   0.916
12289W        W78720   5.888  29.752   0.219
12290W        W78721  33.045  18.082  13.901
12291W        W78722  17.411  32.521  11.486
12292W        W78723  18.713  18.723   3.121
12293W        W78724  38.995  20.225   0.333
12294W        W78725  11.313  15.871  13.710
12295W        W78726  20.169  25.047   2.820
12296W        W78727  39.388   3.093  11.462
12297W        W78728   8.289  27.181  12.160
12298W        W78729  18.101  40.544   3.121
12299W        W78730  38.032  29.990  11.580
12300W        W78731  16.668  25.542  10.709
12301W        W78732  13.592   1.505  11.892
12302W        W78733  17.428  39.094   2.333
12303W        W78734  13.236  30.132  13.453
12304W        W78735  14.420  25.955  13.538
12305W        W78736  38.548  21.423  11.938
12306W        W78737  34.032  10.038  11.590
12307W        W78738  12.357  26.134   3.081
12308W        W78739  16.751  40.328   1.820
12309W        W78740  10.858  27.627  14.948
12310W        W78741  31.098  20.741  11.060
12311W        W78742  35.919  15.111   3.575
12312W        W78743  21.011  35.081  13.833
12313W        W78744  26.488  15.331  13.936
12314W        W78745  31.407  25.278   0.857
12315W        W78746  27.078  29.480  10.287
12316W        W78747  37.083  43.579   0.386
12317W        W78748   0.576  24.441  12.357
12318W        W78749  31.550  13.663   0.396
12319W        W78750  13.714  26.750  12.874
12320W        W78751  13.595  36.977  14.315
12321W        W78752  24.440  34.561  14.535
12322W        W78753  11.405  44.269  11.235
12323W        W78754  30.631  13.165   3.203
12324W        W78755   1.609  38.165  10.687
12325W        W78756  36.665  18.065  13.852
12326W        W78757  33.267  22.029  10.365
12327W        W78758  35.872   9.938  12.631
12328W        W78759  36.735   6.840   1.888
12329W        W78760  35.061  25.483   2.748
12330W        W78761  44.093   6.717  12.371
12331W        W78762  36.600  41.038  10.667
12332W        W78763  16.115  13.974   0.290
12333W        W78764  37.712  37.718   4.213
12334W        W78765  40.875   1.757   4.207
12335W        W78766  39.371   3.896  11.981
12336W        W78767   9.662  14.070  13.126
12337W        W78768  30.434   6.947  12.160
12338W        W78769  37.582  16.849  12.384
12339W        W78770   8.169   1.644   0.380
12340W        W78771  43.541   0.457  12.797
12341W        W78772   5.978  42.419  13.170
12342W        W78773  38.556  21.353   0.729
12343W        W78774   8.337  37.411   0.368
12344W        W78775  28.578  31.060   4.614
12345W        W78776  29.269  23.078  12.381
12346W        W78777  33.493   0.774   2.676
12347W        W78778   9.103   2.166   2.812
12348W        W78779  29.639  14.531   2.495
12349W        W78780   8.852  34.091   1.780
12350W        W78781  31.452   1.776   4.170
12351W        W78782   4.254  41.055   3.220
12352W        W78783  33.039  29.636   0.148
12353W        W78784  32.678  17.846   4.646
12354W        W78785  27.668  22.445  14.412
12355W        W78786  38.865   7.290   4.562
12356W        W78787  18.881   1.845   2.714
12357W        W78788  15.719  12.775   3.082
12358W        W78789  27.975  16.762   4.640
12359W        W78790   9.052  30.178  11.549
12360W        W78791  25.485  16.857   4.550
12361W        W78792  18.277   2.987  11.121
12362W        W78793  38.611  16.377   4.577
12363W        W78794  20.196  16.103  10.844
12364W        W78795  12.322   2.936  11.150
12365W        W78796  23.548  37.563   3.531
12366W        W78797  32.468  14.383   4.575
12367W        W78798  23.112  24.755   4.324
12368W        W78799  33.893  17.603  14.354
12369W        W78800  36.817  40.828   0.727
12370W        W78801  17.800  43.271   1.349
12371W        W78802  19.498  27.020  10.757
12372W        W78803  31.022   1.986   2.450
12373W        W78804  36.943  32.560   0.213
12374W        W78805  18.172  38.796  12.520
12375W        W78806  18.769  40.780  12.002
12376W        W78807  17.353   2.801   3.700
12377W        W78808  24.204   7.182   0.650
12378W        W78809  36.057  42.920   4.202
12379W        W78810  25.946  41.744  10.799
12380W        W78811  38.893   5.877  12.902
12381W        W78812  41.729  10.199  14.764
12382W        W78813  33.503  24.595   0.408
12383W        W78814   5.995   1.241  12.499
12384W        W78815  18.574  10.426  14.082
12385W        W78816  16.259  15.849  10.740
12386W        W78817  35.894  43.971   4.540
12387W        W78818  33.352  38.307   2.823
12388W        W78819  33.993  42.729  12.115
12389W        W78820  37.442  22.315   0.271
12390W        W78821  28.941  27.423   3.613
12391W        W78822   1.868  26.551   1.856
12392W        W78823  32.081  13.634   0.332
12393W        W78824  22.684  26.723  12.001
12394W        W78825  26.645  30.923  10.696
12395W        W78826  15.317  43.329  13.352
12396W        W78827  41.280  39.362   2.532
12397W        W78828   7.835  44.719   2.069
12398W        W78829  24.503  24.678   0.035
12399W        W78830  44.533  40.506   2.127
12400W        W78831  35.199  25.412  11.027
12401W        W78832   0.428  30.578  13.051
12402W        W78833   1.015  10.673  14.838
12403W        W78834  28.194  21.461   1.495
12404W        W78835  12.658   7.201   4.874
12405W        W78836  34.065  22.307   1.677
12406W        W78837  15.607  22.161  11.291
12407W        W78838  18.992  29.509   1.192
12408W        W78839   2.954  40.791   4.702
12409W        W78840  21.459  38.826   0.800
12410W        W78841  36.034   6.433  13.750
12411W        W78842  40.002  30.598   2.813
12412W        W78843   0.444  31.031  11.955
12413W        W78844  31.432  26.726   3.593
12414W        W78845  26.901   1.816   4.474
12415W        W78846  16.062  39.746   1.868
12416W        W78847  30.547  31.848  12.949
12417W        W78848   8.594  38.332  10.504
12418W        W78849  16.569  22.173   1.810
12419W        W78850  12.317  12.113   2.595
12420W        W78851  20.557  34.916   3.429
12421W        W78852  26.773  22.022   4.049
12422W        W78853  20.534  11.967   1.297
12423W        W78854  22.844  43.566   4.954
12424W        W78855  29.462  13.095  10.787
12425W        W78856  44.331  18.323   3.191
12426W        W78857   1.044  34.881   5.001
12427W        W78858   2.674  20.665  11.069
12428W        W78859  34.892  42.410  13.531
12429W        W78860  43.548   6.848   3.644
12430W        W78861  33.003  20.239  10.700
12431W        W78862  29.046  41.308   4.187
12432W        W78863   8.787  44.987  11.140
12433W        W78864   9.613  35.263   0.251
12434W        W78865  28.898  33.672  12.442
12435W        W78866  38.254  17.342   2.886
12436W        W78867  13.238  12.750  13.775
12437W        W78868   0.385  21.207   2.223
12438W        W78869   9.113  33.019   4.691
12439W        W78870  37.021  11.934   1.329
12440W        W78871  14.309  32.149   1.824
12441W        W78872  25.500   5.535   4.317
12442W        W78873  15.858  17.238  11.645
12443W        W78874  40.771  10.564  12.874
12444W        W78875  37.406  31.092  12.221
12445W        W78876  41.067  14.689  12.121
12446W        W78877  20.594   6.274  11.058
12447W        W78878   9.882  43.086  14.570
12448W        W78879   7.084  26.092  13.983
12449W        W78880  20.934  16.680   5.020
12450W        W78881  33.558  30.422  13.676
12451W        W78882  43.125  23.075  12.902
12452W        W78883   3.697   6.583   9.938
12453W        W78884  17.298   8.629  14.910
12454W        W78885  25.316  12.683  10.566
12455W        W78886  21.627  18.984   0.556
12456W        W78887   3.199  20.168  13.864
12457W        W78888  20.154   7.100  10.964
12458W        W78889   7.022  29.954   3.707
12459W        W78890  23.700  24.296   0.797
12460W        W78891  26.982  42.755   1.255
12461W        W78892  40.499  36.546   0.336
12462W        W78893  31.622  35.823  12.644
12463W        W78894  36.092   2.664   3.150
12464W        W78895  43.424  39.618  11.598
12465W        W78896  29.690  44.797   0.594
12466W        W78897  19.324  12.370  12.922
12467W        W78898  30.151   6.152   0.614
12468W        W78899  21.441  41.467   0.437
12469W        W78900  31.573   3.431   4.685
12470W        W78901  43.750  16.525   3.713
12471W        W78902  11.187  32.033   2.969
12472W        W78903  34.251  30.891  10.625
12473W        W78904  38.213  42.062  12.967
12474W        W78905  18.112  35.428  10.938
12475W        W78906  41.308   6.153   1.830
12476W        W78907   3.958  13.690   3.127
12477W        W78908  32.145  12.710  14.905
12478W        W78909   9.697  40.290  13.345
12479W        W78910  24.006  22.175  12.401
12480W        W78911  42.327   3.299  12.477
12481W        W78912  12.945  23.466   1.409
12482W        W78913  25.117  16.999   4.216
12483W        W78914  16.306  21.284  10.432
12484W        W78915  32.927  30.181  12.634
12485W        W78916  28.064  25.434   4.597
12486W        W78917  18.995  19.573   3.166
12487W        W78918   0.871  41.430  14.505
12488W        W78919  10.450  33.892   1.892
12489W        W78920  22.974   6.975   3.637
12490W        W78921  41.424  23.831  12.553
12491W        W78922  13.672  24.611   3.583
12492W        W78923  36.561  10.602   1.440
12493W        W78924  37.858  36.049  11.007
12494W        W78925   0.812  10.705  11.190
12495W        W78926  13.696  10.363   3.778
12496W        W78927  12.110  27.891   0.929
12497W        W78928  19.832  32.620   1.297
12498W        W78929  24.201   7.168  12.478
12499W        W78930  30.441  28.973  14.971
12500W        W78931  21.097  27.725  11.040
12501W        W78932  19.714  30.645  10.632
12502W        W78933  32.336  35.593  14.489
12503W        W78934  32.942  26.217   3.537
12504W        W78935  26.056  29.915   0.929
12505W        W78936  34.527   7.554  11.705
12506W        W78937   8.809  21.806   4.177
12507W        W78938  26.972  16.225  12.620
12508W        W78939  29.604  43.280  10.634
12509W        W78940  15.338   3.902   3.563
12510W        W78941  43.053  18.784   5.046
12511W        W78942  11.779   1.319  13.539
12512W        W78943   7.684  11.133  14.829
12513W        W78944   1.932  42.214  14.021
12514W        W78945  34.628  24.509  12.137
12515W        W78946   6.404  39.962   4.748
12516W        W78947  19.762  37.749  12.039
12517W        W78948  15.392  11.092   0.717
12518W        W78949  16.365  12.959  12.367
12519W        W78950   0.566   6.913  14.721
12520W        W78951   6.929  33.664  10.647
12521W        W78952  11.827  14.727   9.967
12522W        W78953  28.867  17.816   2.198
12523W        W78954   0.292  27.683   0.343
12524W        W78955  14.642   8.840  10.556
12525W        W78956   1.407  18.906  10.849
12526W        W78957   4.941  18.503   4.446
12527W        W78958  38.112  36.746   4.435
12528W        W78959  29.871  11.786  13.361
12529W        W78960  26.201  26.708   1.266
12530W        W78961   5.524  31.504   1.631
12531W        W78962  36.801  32.055  12.549
12532W        W78963  26.576  29.404  11.032
12533W        W78964  29.546  41.373   0.231
12534W        W78965   2.450  36.815   0.852
12535W        W78966  25.026  31.167   3.581
12536W        W78967  42.329  42.592   5.037
12537W        W78968  16.979  44.303   3.698
12538W        W78969   7.236  40.928  12.556
12539W        W78970   8.419  41.355   3.826
12540W        W78971  27.174   3.395   0.524
12541W        W78972  43.042  25.485   3.212
12542W        W78973  38.277  17.183  12.050
12543W        W78974  26.252  15.307  12.077
12544W        W78975  42.770  22.772   2.842
12545W        W78976  21.920  15.269   2.771
12546W        W78977  12.851  10.494  10.308
12547W        W78978  27.711  16.776   4.153
12548W        W78979  21.582  35.851   0.781
12549W        W78980  33.448  28.892  11.447
12550W        W78981  25.710  15.992  11.589
12551W        W78982   8.828  38.858   0.415
12552W        W78983  36.540  43.417  13.747
12553W        W78984  37.852  17.555   4.225
12554W        W78985   2.818  41.433   3.114
12555W        W78986  40.354  10.263   4.088
12556W        W78987  30.633  30.025   0.952
12557W        W78988  11.915  20.688   1.763
12558W        W78989  30.621  22.062  11.997
12559W        W78990   1.500  24.848  12.388
12560W        W78991  39.023  13.714   1.556
12561W        W78992   8.092   0.726  13.948
12562W        W78993   2.010  38.796  12.827
12563W        W78994   0.203  24.064  12.396
12564W        W78995  28.842  23.009   4.543
12565W        W78996  37.217  34.389   0.980
12566W        W78997   7.373  11.801   4.262
12567W        W78998  10.211  24.625   0.462
12568W        W78999  38.671  16.083  10.695
12569W        W79000  10.435   9.085  11.912
12570W        W79001  34.470  33.421   0.340
12571W        W79002  26.132  14.070   0.962
12572W        W79003   5.725  26.970  14.028
12573W        W79004  26.114  10.769   4.540
12574W        W79005   3.535  27.449  12.176
12575W        W79006   5.701   8.906   1.248
12576W        W79007  25.727   5.381  11.566
12577W        W79008  14.673  35.807   3.031
12578W        W79009   2.030  37.955  11.137
12579W        W79010   8.172  34.875   1.837
12580W        W79011  40.897  18.611  14.957
12581W        W79012  38.443   7.356   0.664
12582W        W79013   1.720  44.925   3.724
12583W        W79014  31.110  22.176  14.839
12584W        W79015  43.796  39.051  14.677
12585W        W79016   5.270   6.307   4.808
12586W        W79017   7.699  26.637   2.938
12587W        W79018  38.985  17.499  12.096
12588W        W79019  21.269  26.233  11.925
12589W        W79020   6.922  35.046   2.271
12590W        W79021   1.532  28.492  12.508
12591W        W79022  10.193   6.777  11.964
12592W        W79023   2.234   4.364   0.934
12593W        W79024   8.191   9.799  14.426
12594W        W79025  36.008  34.840  12.575
12595W        W79026   5.813  25.598  14.261
12596W        W79027   8.249   8.074   0.443
12597W        W79028  31.264  32.068  13.107
12598W        W79029  21.584  13.322  12.145
12599W        W79030  23.341  38.827  12.163
12600W        W79031  12.898  25.697  14.889
12601W        W79032  10.402  23.259   1.628
12602W        W79033  12.645   9.262  12.099
12603W        W79034  34.967  38.921   4.429
12604W        W79035   9.966  12.510  14.189
12605W        W79036  34.340  34.100  14.341
12606W        W79037   7.143  33.527   1.922
12607W        W79038  26.192  13.441  14.750
12608W        W79039  19.067  18.714  14.013
12609W        W79040  32.345  36.380  12.966
12610W        W79041   9.163  35.616  13.416
12611W        W79042  35.896  42.699   0.816
12612W        W79043  10.897   5.895   0.909
12613W        W79044  35.005   6.940  12.807
12614W        W79045   1.319  22.190   1.729
12615W        W79046  41.086  27.996  12.455
12616W        W79047  43.352  44.385   1.887
12617W        W79048   1.771  41.122  11.100
12618W        W79049  32.404  34.406  13.808
12619W        W79050  21.444  34.449   4.324
12620W        W79051  32.667  33.443  13.778
12621W        W79052  25.569  30.957  12.913
12622W        W79053  23.680  11.745  12.420
12623W        W79054  14.581   5.350   0.336
12624W        W79055  36.981  44.064   2.726
12625W        W79056  42.853  29.073   2.257
12626W        W79057  11.567  20.314  11.360
12627W        W79058  25.982  24.083  14.276
12628W        W79059  30.012  35.040   0.518
12629W        W79060  44.075   7.664  14.045
12630W        W79061  25.171  23.729  13.007
12631W        W79062  22.132   4.189   4.624
12632W        W79063  16.529  11.657   2.679
12633W        W79064   5.029  12.243  10.100
12634W        W79065   3.259  28.009  14.677
12635W        W79066  40.364  27.949  13.082
12636W        W79067  20.566  20.042  11.974
12637W        W79068  44.260  26.493   0.860
12638W        W79069  39.052  42.399   2.918
12639W        W79070  39.027  32.372   1.338
12640W        W79071  35.423  22.391  12.567
12641W        W79072  13.057  10.844  14.307
12642W        W79073  30.658  43.027   2.784
12643W        W79074  17.667  29.170  14.296
12644W        W79075  17.945  39.034  14.757
12645W        W79076   9.139  20.808  12.097
12646W        W79077  21.149  19.144   0.404
12647W        W79078  28.522  30.110   1.297
12648W        W79079  23.433  43.336   2.756
12649W        W79080  35.176  35.006   4.663
12650W        W79081   8.297   5.483  10.686
12651W        W79082  30.343   2.721   4.931
12652W        W79083  23.042  15.124  11.248
12653W        W79084   9.413  22.742  14.527
12654W        W79085   5.946  17.803   3.193
12655W        W79086  43.179  16.158   0.848
12656W        W79087  26.085  23.177   1.180
12657W        W79088  23.123   6.378   4.484
12658W        W79089  38.053   3.486   1.374
12659W        W79090  23.018  43.494  13.905
12660W        W79091   7.034  24.707   4.213
12661W        W79092  25.251  20.393   2.818
12662W        W79093   6.244  17.498  14.166
12663W        W79094  42.418  26.521  14.229
12664W        W79095  19.881  30.289  13.814
12665W        W79096  23.014  34.066  11.100
12666W        W79097   6.558  19.712   2.886
12667W        W79098  23.421  19.275   1.619
12668W        W79099   6.787   3.050   2.871
12669W        W79100  15.362  14.300   1.885
12670W        W79101  24.723  10.684   2.735
12671W        W79102   5.383  34.523  14.884
12672W        W79103   2.251   9.896   3.235
12673W        W79104  39.518  33.647  13.407
12674W        W79105   0.822  26.515   1.742
12675W        W79106  40.798  43.434  12.454
12676W        W79107  38.512  16.545   3.112
12677W        W79108  40.502  21.245  13.408
12678W        W79109  33.280  34.171  13.679
12679W        W79110  13.180   3.317  11.239
12680W        W79111   8.189  31.571  11.579
12681W        W79112  29.348   4.852   1.751
12682W        W79113   2.023  39.923  10.513
12683W        W79114  34.497   3.508   1.683
12684W        W79115  13.914  38.565   0.426
12685W        W79116  15.431  14.622  12.848
12686W        W79117  22.887  11.232  11.247
12687W        W79118  22.560  23.498  13.747
12688W        W79119  37.049  32.987   0.739
12689W        W79120  15.563  20.938   4.139
12690W        W79121  15.599  36.856  10.674
12691W        W79122  37.641  17.222  13.795
12692W        W79123  43.069  44.817   1.875
12693W        W79124  23.258   8.876   2.543
12694W        W79125  12.404  16.602   1.840
12695W        W79126  21.718   5.718   2.245
12696W        W79127   2.000  41.625  12.124
12697W        W79128   8.219   2.983  12.224
12698W        W79129  37.887  16.516   1.419
12699W        W79130   1.280  16.283  10.533
12700W        W79131  20.509  13.660   1.209
12701W        W79132  30.865  23.197   0.245
12702W        W79133  25.430  13.542  13.120
12703W        W79134  27.258  15.193  11.497
12704W        W79135  10.859   5.932   3.288
12705W        W79136  30.177  15.399  12.026
12706W        W79137  43.257  36.741  14.907
12707W        W79138  28.975   6.712  13.382
12708W        W79139  38.111  35.551  12.008
12709W        W79140  28.199  12.997   5.125
12710W        W79141  19.938  15.597  12.056
12711W        W79142  24.616  14.199   2.751
12712W        W79143  10.421  23.057  13.166
12713W        W79144  14.588  38.777  11.623
12714W        W79145  16.834  13.206  12.425
12715W        W79146  24.990  42.332  13.069
12716W        W79147  19.247   4.464   1.384
12717W        W79148  29.478  29.817  13.478
12718W        W79149  17.700  11.221   4.955
12719W        W79150  24.777  29.962   0.519
12720W        W79151  10.902  17.702  13.482
12721W        W79152  11.113  20.674  13.047
12722W        W79153   8.741  26.948  12.945
12723W        W79154  15.172  40.269  14.594
12724W        W79155  33.433  35.466  13.893
12725W        W79156  20.513  19.973   2.839
12726W        W79157  39.412   2.569  11.454
12727W        W79158   5.846  42.551   0.215
12728W        W79159  13.608  37.913  13.873
12729W        W79160  13.537   3.667  13.142
12730W        W79161  26.778  39.307  11.548
12731W        W79162  41.224  41.906   1.770
12732W        W79163  27.788   7.599   1.887
12733W        W79164  14.796  33.924   0.434
12734W        W79165  27.600   9.926  13.036
12735W        W79166  14.776  17.847  14.030
12736W        W79167  12.715  15.588  12.523
12737W        W79168  16.398  40.448  14.920
12738W        W79169  23.982   0.433  11.319
12739W        W79170   3.447  32.522   1.215
12740W        W79171  36.466   1.260   1.341
12741W        W79172  28.260  10.452  13.830
12742W        W79173  33.409  35.405   4.579
12743W        W79174  25.126   3.310   2.494
12744W        W79175   9.343   1.884  14.460
12745W        W79176  41.634   0.413  14.507
12746W        W79177   9.908  30.669   1.355
12747W        W79178  34.385  35.841  13.447
12748W        W79179  43.271  19.871   4.048
12749W        W79180  42.812  31.694   4.138
12750W        W79181  40.455  19.591   1.439
12751W        W79182  39.904  35.169  13.503
12752W        W79183  42.351  31.659  11.656
12753W        W79184  43.387   4.444   0.240
12754W        W79185   4.666  28.825  11.649
12755W        W79186  17.095   7.680  13.442
12756W        W79187  30.155  15.981  14.906
12757W        W79188  13.098  38.737   9.703
12758W        W79189  17.811   1.938  10.487
12759W        W79190  18.887  34.802   2.298
12760W        W79191  31.462  10.245   2.269
12761W        W79192  23.661  43.914  14.662
12762W        W79193  39.424  27.004   1.911
12763W        W79194  43.604   7.810  14.336
12764W        W79195  25.591  42.487  13.902
12765W        W79196  21.802  10.351  11.256
12766W        W79197  42.592  32.745  12.362
12767W        W79198  31.403  18.581   4.731
12768W        W79199   0.220  19.665  11.386
12769W        W79200  42.211   5.795   3.772
12770W        W79201  33.556  10.106  11.855
12771W        W79202   6.623  41.113  12.132
12772W        W79203  33.118  42.766  10.620
12773W        W79204   7.274  33.004  10.844
12774W        W79205  33.967  31.813  11.217
12775W        W79206  20.433   5.244   4.642
12776W        W79207  24.809  40.580   4.191
12777W        W79208   0.263   4.597  12.084
12778W        W79209  19.191  22.334   2.396
12779W        W79210   0.748  16.624  11.456
12780W        W79211  12.260  19.752  12.761
12781W        W79212   7.444  34.680  12.956
12782W        W79213  41.555  39.395   2.107
12783W        W79214  13.165  41.404   2.706
12784W        W79215  40.809  34.185   1.893
12785W        W79216  16.788  20.331   0.388
12786W        W79217  42.887   8.747  12.945
12787W        W79218  36.825  29.304   1.429
12788W        W79219   0.745  24.919  12.507
12789W        W79220   2.513  21.341   3.127
12790W        W79221   9.708   7.096   0.862
12791W        W79222  18.989  31.381  10.821
12792W        W79223  26.801  23.508   2.525
12793W        W79224  43.907  18.828   0.735
12794W        W79225   4.605  20.051  11.533
12795W        W79226  10.017  23.462   9.877
12796W        W79227  13.266  28.013  14.288
12797W        W79228  13.845  16.653  12.978
12798W        W79229   9.670  16.282   0.340
12799W        W79230  31.641  20.581   0.349
12800W        W79231  29.476  35.871   3.296
12801W        W79232  15.039   7.257   3.719
12802W        W79233  22.662  11.269   4.021
12803W        W79234   6.420  22.184   4.033
12804W        W79235  21.540  17.523  14.234
12805W        W79236  15.319  12.398  14.305
12806W        W79237  26.733  33.322   2.464
12807W        W79238  35.444  17.555   4.038
12808W        W79239   4.342  22.156  14.428
12809W        W79240  39.845  17.614   4.649
12810W        W79241  36.221  35.921  12.044
12811W        W79242  23.527  25.807   4.917
12812W        W79243  11.220  42.512  10.531
12813W        W79244   5.667   4.736   0.360
12814W        W79245  29.615  20.316   3.744
12815W        W79246  14.648  30.554   3.145
12816W        W79247  13.224  41.341  12.612
12817W        W79248  16.078  41.031   1.558
12818W        W79249  30.748   6.430  14.372
12819W        W79250   6.569  20.683  14.058
12820W        W79251   5.100  32.111   3.390
12821W        W79252   1.162  38.584   4.151
12822W        W79253  37.489  14.216  13.604
12823W        W79254  11.779  36.528  12.048
12824W        W79255  37.042  41.388  13.806
12825W        W79256  18.574  35.997  11.262
12826W        W79257  41.681  13.537   1.330
12827W        W79258   6.851   1.171  11.634
12828W        W79259  32.455  14.586   4.100
12829W        W79260   7.647  43.782   3.642
12830W        W79261  31.119  35.294   4.629
12831W        W79262  25.798  19.024  13.021
12832W        W79263   1.281  34.005  13.093
12833W        W79264  23.339   7.175  13.530
12834W        W79265   9.112  38.893  14.035
12835W        W79266   6.570   4.823  10.478
12836W        W79267  10.840  24.233   4.581
12837W        W79268   1.063  31.988   3.532
12838W        W79269  16.314  11.663  14.686
12839W        W79270  21.717  37.037   4.576
12840W        W79271   2.790  12.195   4.312
12841W        W79272   6.497  41.525   4.951
12842W        W79273  22.103  30.217   3.241
12843W        W79274  31.114   8.794  13.004
12844W        W79275  34.421  43.783  13.135
12845W        W79276   8.571  17.040  14.524
12846W        W79277  10.159  27.392  13.327
12847W        W79278  33.840  12.603  11.049
12848W        W79279  17.631  21.788   2.285
12849W        W79280   7.313  31.536  14.871
12850W        W79281  41.101  10.395   0.543
12851W        W79282   1.262   7.189  12.936
12852W        W79283  20.709  13.836   3.673
12853W        W79284   6.958  12.334  12.533
12854W        W79285  17.116  44.237   0.961
12855W        W79286  10.111  20.503   2.966
12856W        W79287  24.257  21.978  14.859
12857W        W79288  40.823   2.771   4.162
12858W        W79289   0.482   2.288  13.514
12859W        W79290   1.516  15.653  11.689
12860W        W79291  15.727  26.961   1.862
12861W        W79292  12.699  19.190  10.726
12862W        W79293   8.773  30.629   0.777
12863W        W79294  42.879  42.816   3.600
12864W        W79295   8.451  21.679   1.742
12865W        W79296   9.306   8.705   3.313
12866W        W79297  42.962  11.328   2.366
12867W        W79298  19.660  42.276   2.174
12868W        W79299  20.328  38.122   1.011
12869W        W79300  28.573  21.769  12.714
12870W        W79301  10.430   3.420  13.784
12871W        W79302   4.240  16.309   4.514
12872W        W79303  37.614  36.927  11.570
12873W        W79304  11.788  24.000   4.526
12874W        W79305  22.993  35.847   3.292
12875W        W79306   0.262  33.791  12.437
12876W        W79307  36.449  40.292   4.363
12877W        W79308  41.058   7.710  10.543
12878W        W79309  40.538  17.335   4.394
12879W        W79310  17.125  28.305  11.478
12880W        W79311  29.508  42.258  14.118
12881W        W79312  18.799  16.753  11.142
12882W        W79313  16.774  20.324  13.745
12883W        W79314  31.353  23.075  11.066
12884W        W79315  24.039  38.493   1.858
12885W        W79316  28.427  20.244  14.383
12886W        W79317   5.580  35.838  14.880
12887W        W79318  17.416  37.862  10.149
12888W        W79319  43.255  42.620  12.948
12889W        W79320  14.661   9.408  14.966
12890W        W79321  20.053  33.589  14.282
12891W        W79322   9.979  30.398  13.026
12892W        W79323  24.737  21.004   0.104
12893W        W79324  30.627  25.561   1.818
12894W        W79325  22.454  42.592   1.325
12895W        W79326  10.257  15.722   9.999
12896W        W79327  13.313   4.177   1.864
12897W        W79328   6.653  13.113   4.205
12898W        W79329   7.449   6.960   2.133
12899W        W79330   1.739  16.018  10.537
12900W        W79331   8.643  26.727  11.451
12901W        W79332  10.057  43.603  11.374
12902W        W79333   8.476  18.547  12.561
12903W        W79334  39.978  15.077  10.809
12904W        W79335  25.169  18.457   4.159
12905W        W79336  12.428  34.672   1.301
12906W        W79337  18.178  15.371   3.382
12907W        W79338  32.349  32.660   5.114
12908W        W79339  17.879   0.223  13.459
12909W        W79340   5.970  34.061   3.632
12910W        W79341   8.868   4.497   3.726
12911W        W79342  25.237   8.800  14.434
12912W        W79343  13.219  31.525   3.175
12913W        W79344  37.923  19.647   0.069
12914W        W79345  23.336  20.323   3.486
12915W        W79346   5.408  13.729   1.158
12916W        W79347   0.568  20.488   2.719
12917W        W79348  17.118  18.294  11.495
12918W        W79349  19.440  26.129   0.868
12919W        W79350  14.044   2.110   3.213
12920W        W79351   2.832  11.886  10.538
12921W        W79352  35.997  20.579   2.895
12922W        W79353  38.755   7.415  10.959
12923W        W79354  36.590  38.080  12.887
12924W        W79355   7.673  33.752   4.296
12925W        W79356  22.154  43.010   3.768
12926W        W79357   7.062  19.620   2.876
12927W        W79358  36.860   4.669  12.073
12928W        W79359   3.036  40.085   0.206
12929W        W79360  13.857  38.258  13.563
12930W        W79361  43.253  44.651  10.915
12931W        W79362  22.035  22.722   3.655
12932W        W79363  39.301   5.906  10.859
12933W        W79364  42.256  20.203   2.748
12934W        W79365  13.395  32.026   0.584
12935W        W79366  42.551  33.418  12.204
12936W        W79367  38.473  32.432  14.769
12937W        W79368  12.305  43.975   3.270
12938W        W79369  36.917  19.512   2.174
12939W        W79370  10.833   0.932  12.529
12940W        W79371  13.268  12.400   2.276
12941W        W79372   7.052   8.876   4.460
12942W        W79373   9.330  17.572   2.450
12943W        W79374  24.664  31.495  11.726
12944W        W79375   8.980   3.479   2.843
12945W        W79376  40.804  19.869  14.309
12946W        W79377  37.600  22.984  11.854
12947W        W79378  22.691  30.425  12.214
12948W        W79379  23.564  27.485   1.732
12949W        W79380   2.844   1.477   0.058
12950W        W79381   4.991  13.857   4.931
12951W        W79382   8.357  21.716  13.467
12952W        W79383  20.813  36.813   3.543
12953W        W79384  40.453  38.821  13.922
12954W        W79385  12.673   7.433   4.408
12955W        W79386  28.854  13.556   0.965
12956W        W79387  19.241   1.705  13.080
12957W        W79388  41.013   5.764  11.184
12958W        W79389  28.578  12.562   1.734
12959W        W79390   8.951  31.069  11.559
12960W        W79391  37.517  41.795  10.281
12961W        W79392  12.523  36.953   2.659
12962W        W79393  10.239  44.854  13.924
12963W        W79394  22.443  19.348  11.623
12964W        W79395  44.712  11.846   4.110
12965W        W79396  11.108  44.477  14.404
12966W        W79397  27.155   0.684  11.083
12967W        W79398  25.506  10.842   1.016
12968W        W79399  20.739  15.386  12.002
12969W        W79400  22.106  21.566  11.518
12970W        W79401  18.135   7.264   3.679
12971W        W79402  11.262   5.260   4.070
12972W        W79403  27.944   4.323  12.356
12973W        W79404   5.876   8.730   2.313
12974W        W79405  30.889  10.650  13.087
12975W        W79406  16.072  13.077  11.967
12976W        W79407  24.977   3.042  12.617
12977W        W79408  38.309  24.749   3.256
12978W        W79409  42.457  37.518  13.924
12979W        W79410  21.254   7.284   2.699
12980W        W79411  41.939  10.004  11.624
12981W        W79412  31.642  36.615   0.731
12982W        W79413  35.428  13.770   2.292
12983W        W79414  10.393   3.298  12.887
12984W        W79415  26.446   0.275  10.119
12985W        W79416  43.802  39.304  10.622
12986W        W79417  32.354  35.574  12.592
12987W        W79418  15.743   0.913  13.913
12988W        W79419   1.844  11.348   3.033
12989W        W79420  23.988  27.805  10.750
12990W        W79421  38.442  37.304  11.338
12991W        W79422  41.949  18.686  13.512
12992W        W79423  23.358   3.498  13.441
12993W        W79424  39.328  39.169   1.710
12994W        W79425  15.020   1.795   5.393
12995W        W79426  20.145  29.857   1.721
12996W        W79427  24.141  24.288  11.625
12997W        W79428  13.810  17.087  14.983
12998W        W79429   0.378  31.827  14.563
12999W        W79430  13.031  23.026  12.878
13000W        W79431   9.710  29.416  10.743
13001W        W79432  25.504  27.999  11.626
13002W        W79433  37.646  14.305  14.094
13003W        W79434  34.796  28.223   3.616
13004W        W79435  10.505  24.701  13.555
13005W        W79436  16.330   7.839  13.837
13006W        W79437   8.787   1.614  13.442
13007W        W79438   8.249  25.461  12.526
13008W        W79439  39.330  24.832   4.258
13009W        W79440  40.743  18.251  11.889
13010W        W79441  16.138  42.499   2.793
13011W        W79442  11.161  30.375  14.293
13012W        W79443   4.968  10.422  10.849
13013W        W79444  17.674  19.324  11.193
13014W        W79445  43.278  44.000  13.152
13015W        W79446  14.225  14.661  11.982
13016W        W79447  35.552   0.308  14.144
13017W        W79448  30.714  35.386  11.202
13018W        W79449  32.374  21.088   1.315
13019W        W79450   8.648   3.744  12.916
13020W        W79451  28.636  13.295   2.189
13021W        W79452  16.564   4.369   0.266
13022W        W79453  19.011   1.247  13.235
13023W        W79454  24.976  25.172  13.379
13024W        W79455  43.011   7.541  11.102
13025W        W79456  28.987  26.064  14.283
13026W        W79457   5.581  26.557   4.129
13027W        W79458  36.600  20.132  12.184
13028W        W79459  25.107  43.533   2.001
13029W        W79460  33.510  33.357   1.036
13030W        W79461  40.551  32.839  13.222
13031W        W79462  27.214  19.264  12.050
13032W        W79463  32.310  32.884   9.866
13033W        W79464  41.496  33.157   3.102
13034W        W79465  29.977  14.812  14.123
13035W        W79466  26.528  14.413   4.380
13036W        W79467   8.407  17.789   2.886
13037W        W79468   3.782  33.484   4.417
13038W        W79469  34.984  12.242   4.683
13039W        W79470  20.549  34.415   3.266
13040W        W79471  39.227  17.798  11.264
13041W        W79472   7.424  44.892  11.420
13042W        W79473  18.255  42.415   4.598
13043W        W79474  38.117  23.446  10.417
13044W        W79475  15.017  18.679   3.237
13045W        W79476  10.608  32.425  10.616
13046W        W79477   3.394  32.325  13.096
13047W        W79478  30.627  21.614  10.783
13048W        W79479  18.121   2.039   2.007
13049W        W79480  39.663  37.040  10.603
13050W        W79481   1.813   2.527  11.631
13051W        W79482   8.920  34.411   4.456
13052W        W79483  31.431  30.169  14.853
13053W        W79484  42.929  11.640  11.499
13054W        W79485  20.252   8.231   3.266
13055W        W79486  39.686  18.694   4.486
13056W        W79487  44.519   6.595  14.880
13057W        W79488  18.590  38.904  10.246
13058W        W79489  33.295  39.424  13.408
13059W        W79490   2.310  31.467   1.950
13060W        W79491  18.758   9.620   1.208
13061W        W79492  22.912  31.818   2.695
13062W        W79493   2.869  29.644   0.981
13063W        W79494  11.054  24.655  12.109
13064W        W79495  30.642  28.878   1.317
13065W        W79496   3.210  39.014  11.381
13066W        W79497  38.952  12.865  14.814
13067W        W79498  24.709   6.427  14.923
13068W        W79499  42.203   0.371  12.474
13069W        W79500   9.644   8.694   4.637
13070W        W79501  19.980  17.163   3.725
13071W        W79502  42.381  25.225  11.991
13072W        W79503  41.814  34.401   1.314
13073W        W79504   0.822  39.681   2.207
13074W        W79505   7.745  25.542  14.669
13075W        W79506  31.973   3.418   1.222
13076W        W79507   1.014   3.332   1.170
13077W        W79508   0.441  34.955   0.264
13078W        W79509   9.276  27.112   0.188
13079W        W79510   8.691  12.684  14.884
13080W        W79511   6.663  12.300  12.046
13081W        W79512  31.558  17.362  12.175
13082W        W79513  14.986  21.187   3.606
13083W        W79514   6.653  39.708   4.378
13084W        W79515  24.048  16.553  13.185
13085W        W79516  21.624   4.517   2.725
13086W        W79517  25.318  27.571   4.055
13087W        W79518  24.396   4.378   3.830
13088W        W79519  38.075  34.099   1.261
13089W        W79520  32.454  32.649  14.505
13090W        W79521   7.830  41.022   2.632
13091W        W79522  15.712  21.681   2.758
13092W        W79523  39.056  31.651   4.310
13093W        W79524  23.014   3.730  14.985
13094W        W79525  29.868   7.457   2.751
13095W        W79526  30.549  38.302   1.962
13096W        W79527   9.806  26.820  12.479
13097W        W79528   7.222  26.269  10.614
13098W        W79529  38.608   4.682   0.295
13099W        W79530  26.578  32.879  11.138
13100W        W79531  42.979  43.715  11.682
13101W        W79532  43.802  28.671  10.976
13102W        W79533   8.868  28.222   3.737
13103W        W79534  12.784   7.946  13.455
13104W        W79535  22.442  19.665  13.587
13105W        W79536  29.666  42.267   0.153
13106W        W79537  41.536  26.144  14.110
13107W        W79538  38.273  16.268  11.520
13108W        W79539  40.808  41.281  12.877
13109W        W79540  28.873  37.451  13.456
13110W        W79541  16.496  11.745   3.558
13111W        W79542   4.368  27.149   1.531
13112W        W79543  30.843  43.412  12.683
13113W        W79544  17.491   2.323  13.822
13114W        W79545   7.653  24.030  11.964
13115W        W79546  10.614  11.694  14.858
13116W        W79547  37.583  10.193   0.847
13117W        W79548  41.683  31.201   4.347
13118W        W79549   0.759  12.843   3.759
13119W        W79550  34.963  30.936   0.033
13120W        W79551  42.984  23.044   4.118
13121W        W79552  22.645   4.188   4.715
13122W        W79553  34.252  18.093  11.131
13123W        W79554  40.869  44.070   0.330
13124W        W79555   5.630  28.987   4.538
13125W        W79556   8.793   5.437   4.565
13126W        W79557  41.861  30.056   4.102
13127W        W79558  16.168  29.938  12.758
13128W        W79559  10.324  22.232  13.666
13129W        W79560  31.997  25.624  12.125
13130W        W79561  32.584  17.446  13.460
13131W        W79562  30.129  24.212  10.662
13132W        W79563  10.321  38.531  12.535
13133W        W79564   8.827   8.720  13.097
13134W        W79565  26.367  22.129   2.709
13135W        W79566  36.490  28.149   4.152
13136W        W79567   7.712   1.207  12.017
13137W        W79568  42.933  36.771   0.884
13138W        W79569   2.693  23.268  11.114
13139W        W79570  42.345   1.850  13.459
13140W        W79571  23.221  16.858   5.167
13141W        W79572  17.236   6.485   4.567
13142W        W79573   4.172  12.186  12.656
13143W        W79574   0.730  12.668   0.757
13144W        W79575  40.221  19.133  10.477
13145W        W79576  24.578  12.847   3.798
13146W        W79577  36.249   5.252   2.118
13147W        W79578  23.775  38.955  11.915
13148W        W79579  43.552  40.118  11.406
13149W        W79580  17.567   4.053  14.607
13150W        W79581  24.969  14.889   0.536
13151W        W79582  15.118  14.459  11.562
13152W        W79583  23.212  14.349  11.900
13153W        W79584   1.356  42.856   4.086
13154W        W79585  18.911  18.858  11.663
13155W        W79586  36.671  31.559  12.426
13156W        W79587   5.742   3.501   4.259
13157W        W79588  28.973  20.666  11.052
13158W        W79589  11.785  21.530   1.796
13159W        W79590  39.415  38.833   3.362
13160W        W79591   7.177  15.177  14.698
13161W        W79592  30.107  26.976   3.248
13162W        W79593   4.345   0.112  10.773
13163W        W79594  38.102   3.286  11.171
13164W        W79595  12.499  16.975   3.329
13165W        W79596   1.454  38.561   1.898
13166W        W79597  36.242  43.847   1.826
13167W        W79598  35.382  18.248  11.785
13168W        W79599  11.175  15.708   3.879
13169W        W79600   2.360  30.675  10.050
13170W        W79601  18.634  16.147  12.932
13171W        W79602  32.171   6.026   2.165
13172W        W79603  19.117  44.274   2.930
13173W        W79604  40.781  17.740   1.205
13174W        W79605  19.503  22.130  10.448
13175W        W79606  31.629   6.280  14.338
13176W        W79607  24.622   4.716   4.603
13177W        W79608  19.832  29.161  13.532
13178W        W79609  14.758  42.233   2.699
13179W        W79610  10.355   2.183   2.758
13180W        W79611  33.651  35.649  14.373
13181W        W79612  42.745  42.566   1.355
13182W        W79613  20.575   8.259  11.018
13183W        W79614  35.315  40.367   0.830
13184W        W79615  38.635  33.125  11.104
13185W        W79616  10.762  29.365  13.495
13186W        W79617  31.337  11.138   0.363
13187W        W79618  16.082  38.908  12.885
13188W        W79619  42.663  42.288   0.873
13189W        W79620   5.608   5.768  12.074
13190W        W79621  27.030  31.859  13.602
13191W        W79622  15.676  44.519  11.523
13192W        W79623  16.454  14.736  11.496
13193W        W79624  36.906  27.951   0.747
13194W        W79625  41.836   5.244   4.913
13195W        W79626  11.141  32.123  11.671
13196W        W79627  24.754  26.101  12.602
13197W        W79628   6.188  27.235  11.623
13198W        W79629   8.696  18.873  12.911
13199W        W79630  14.752   1.847   4.196
13200W        W79631  38.651   3.321  12.412
13201W        W79632  18.354   0.785  13.961
13202W        W79633  24.192  41.764   4.499
13203W        W79634  11.215  19.030   3.231
13204W        W79635  13.699  14.851   0.736
13205W        W79636  39.414  37.268   2.438
13206W        W79637  31.226   1.498   3.758
13207W        W79638  16.699  34.029  13.239
13208W        W79639  43.221  33.439   2.712
13209W        W79640  40.265  27.459  11.454
13210W        W79641  10.669  15.267   0.337
13211W        W79642  39.023  11.444   4.612
13212W        W79643  24.358  39.968   4.077
13213W        W79644  40.798  34.918  11.181
13214W        W79645  35.578  25.624   0.634
13215W        W79646   3.216  11.123  12.602
13216W        W79647  19.699  17.717   4.515
13217W        W79648  18.102   0.656  11.649
13218W        W79649  21.165  20.663  14.523
13219W        W79650  40.341  22.045   1.384
13220W        W79651  10.593  12.192  13.581
13221W        W79652   9.887  39.790   2.161
13222W        W79653  25.281  42.349   2.840
13223W        W79654  22.222  39.194  10.361
13224W        W79655  41.112  22.155   2.074
13225W        W79656  14.301   7.894   0.375
13226W        W79657  12.630  21.642   0.774
13227W        W79658  32.943  33.239   4.240
13228W        W79659  37.487  38.525  14.806
13229W        W79660  20.264  25.504  14.866
13230W        W79661   0.906  29.854   2.340
13231W        W79662  31.188   4.401  14.020
13232W        W79663  30.507  10.231  10.702
13233W        W79664   5.061   8.976   4.465
13234W        W79665  19.769  42.546  11.368
13235W        W79666  35.011  38.351  12.557
13236W        W79667  34.936  38.423  12.009
13237W        W79668  13.790  27.386  11.593
13238W        W79669   6.957  11.214  11.711
13239W        W79670  23.975  26.394   2.303
13240W        W79671  23.588   3.256   4.582
13241W        W79672  26.546  19.721   2.876
13242W        W79673   7.938  40.923  13.325
13243W        W79674  11.020  28.370  13.440
13244W        W79675  40.217  11.750   2.416
13245W        W79676   4.844  43.309   0.861
13246W        W79677  36.781  30.911  12.997
13247W        W79678  11.845  29.145   4.498
13248W        W79679  43.922  30.644   0.368
13249W        W79680  23.549   8.702  11.919
13250W        W79681   5.380  35.528   3.922
13251W        W79682  35.055   7.819  11.162
13252W        W79683  18.327  30.685  14.861
13253W        W79684  12.400  36.620   4.153
13254W        W79685  42.302  37.042   2.434
13255W        W79686  28.404  14.676  14.989
13256W        W79687   7.206  14.693   0.993
13257W        W79688  42.812  30.609  14.948
13258W        W79689  16.460  15.182  12.058
13259W        W79690   2.978  25.192  14.252
13260W        W79691   9.848   6.303   0.220
13261W        W79692  36.649   1.556   4.838
13262W        W79693  29.284  38.381  14.185
13263W        W79694  31.544   8.230  13.356
13264W        W79695  18.313  41.281   0.302
13265W        W79696  42.231  15.718   1.747
13266W        W79697  21.109  33.787   4.442
13267W        W79698   6.303   7.720  14.293
13268W        W79699  39.993  22.066   0.288
13269W        W79700  33.289  24.363   1.407
13270W        W79701  14.688   3.930   0.983
13271W        W79702  18.795  24.185   2.331
13272W        W79703   8.116  16.625  14.665
13273W        W79704  29.839  36.023   2.311
13274W        W79705  14.849   8.887  12.993
13275W        W79706  44.213   5.334  11.458
13276W        W79707  31.542  39.546   0.743
13277W        W79708  11.449  18.068   2.226
13278W        W79709  19.042  39.203  11.548
13279W        W79710  26.160   3.341   1.249
13280W        W79711  10.823  18.274  12.965
13281W        W79712  33.523   1.296   2.541
13282W        W79713  36.905  27.238   1.931
13283W        W79714  18.821   0.930  10.798
13284W        W79715  19.048   9.346  13.742
13285W        W79716   4.438  34.992  11.611
13286W        W79717  12.593  40.848  13.101
13287W        W79718  35.952   6.277   4.481
13288W        W79719   3.671   1.780  13.441
13289W        W79720  42.255  18.733   3.106
13290W        W79721   2.394   5.363  13.564
13291W        W79722  23.023   8.828  12.133
13292W        W79723  40.321  42.482  12.501
13293W        W79724   1.504  41.900   1.271
13294W        W79725  25.608   2.593   3.450
13295W        W79726   0.396  16.905   0.664
13296W        W79727  25.785  11.767  11.391
13297W        W79728  13.197  25.370  14.454
13298W        W79729  18.884  31.973  13.826
13299W        W79730  38.507  20.755  14.352
13300W        W79731  43.206   1.076   3.184
13301W        W79732   3.042  12.613   3.224
13302W        W79733  32.071   2.849  11.859
13303W        W79734  15.088  27.528   4.606
13304W        W79735  21.438  34.435   4.834
13305W        W79736  31.483  40.204  14.057
13306W        W79737  12.664  17.846  11.993
13307W        W79738  40.955   0.829   2.210
13308W        W79739  34.919  17.307  14.921
13309W        W79740  15.200  25.886   2.949
13310W        W79741  10.401  42.065   1.687
13311W        W79742  27.643  28.618   1.158
13312W        W79743   3.106  32.895  11.553
13313W        W79744   8.728  24.899   1.686
13314W        W79745   5.030  43.311  12.672
13315W        W79746   7.934   4.430  11.584
13316W        W79747  27.050  42.269   2.510
13317W        W79748  11.893   7.870   0.255
13318W        W79749  40.259  14.009  10.693
13319W        W79750  16.671  19.422   4.686
13320W        W79751  43.815  22.088   0.253
13321W        W79752  15.157  41.565   3.105
13322W        W79753  41.532  26.105   0.558
13323W        W79754  42.013  40.282   4.184
13324W        W79755  42.779  31.592  14.529
13325W        W79756  28.641  19.977  14.831
13326W        W79757  22.126  38.902   3.652
13327W        W79758  36.836  34.676   3.697
13328W        W79759  43.872  32.152   0.142
13329W        W79760  25.067  16.498   2.874
13330W        W79761  42.824  44.574   3.218
13331W        W79762  37.101  22.686   0.889
13332W        W79763  40.276   2.362   0.899
13333W        W79764  34.621   4.016   2.412
13334W        W79765  30.998  31.607  12.888
13335W        W79766  23.215  11.373   2.260
13336W        W79767  35.979  37.421   4.173
13337W        W79768   5.503   0.340  12.569
13338W        W79769  29.507  29.435   3.089
13339W        W79770   3.958  16.472  10.745
13340W        W79771  29.061  35.640  12.589
13341W        W79772  42.316  39.387  13.158
13342W        W79773  20.045  41.207   0.220
13343W        W79774  30.630   6.294  12.655
13344W        W79775  30.583  19.187  13.760
13345W        W79776  18.086   1.193  11.593
13346W        W79777  27.049  35.108   4.592
13347W        W79778  17.594  29.254   4.987
13348W        W79779  40.889  13.675   4.210
13349W        W79780  39.644  24.161  10.825
13350W        W79781  23.573  21.641   4.618
13351W        W79782   2.376   1.237   3.736
13352W        W79783  31.416   5.884   0.075
13353W        W79784  28.994   6.369   1.759
13354W        W79785  23.990   8.642  11.112
13355W        W79786  32.418  22.702  14.820
13356W        W79787  16.729  22.026  14.461
13357W        W79788  10.851  39.827   1.837
13358W        W79789  43.734  15.544   1.510
13359W        W79790  22.584  32.361  11.980
13360W        W79791  16.080  43.101  13.632
13361W        W79792  36.408  31.553   3.339
13362W        W79793  20.806  26.671  12.889
13363W        W79794  11.639  41.542   3.187
13364W        W79795  24.963  20.837  10.820
13365W        W79796  16.561  37.428   2.641
13366W        W79797  26.420   7.505   2.668
13367W        W79798  18.595  18.320   5.197
13368W        W79799  24.707   6.174   1.801
13369W        W79800  44.258  37.973  13.531
13370W        W79801  26.369  10.251  12.554
13371W        W79802  23.581  12.149  14.247
13372W        W79803  29.537   5.375   0.466
13373W        W79804  18.014  38.178   0.408
13374W        W79805  23.597  11.549   0.846
13375W        W79806   9.628  11.852  14.931
13376W        W79807   6.688  26.469  12.420
13377W        W79808  24.080  35.983  13.269
13378W        W79809  24.666  17.843   4.086
13379W        W79810  39.463  19.727   1.932
13380W        W79811   1.807   4.476   3.542
13381W        W79812  34.334   6.917   4.231
13382W        W79813  44.759  17.977  11.168
13383W        W79814  22.582   4.820   5.011
13384W        W79815  14.025   9.570   3.651
13385W        W79816  17.522  12.856   1.284
13386W        W79817  32.045  40.372  13.384
13387W        W79818  35.945  36.406   2.889
13388W        W79819  44.391  12.094  13.459
13389W        W79820   8.063  38.040  13.814
13390W        W79821  21.195  43.304   3.303
13391W        W79822  11.372  21.053  10.667
13392W        W79823  32.445  43.249   1.737
13393W        W79824  42.805  36.971  13.043
13394W        W79825  17.315  38.419  11.580
13395W        W79826  41.680  34.474   3.200
13396W        W79827  39.181  41.473   0.846
13397W        W79828  31.458  11.764   4.237
13398W        W79829  44.303   9.706   2.204
13399W        W79830   3.296  31.935   4.556
13400W        W79831   4.260  18.482   1.613
13401W        W79832   9.973   3.365  11.509
13402W        W79833   8.616  40.257   0.496
13403W        W79834  12.411  39.864   4.140
13404W        W79835  40.381  20.512   3.725
13405W        W79836  37.571   0.521   4.424
13406W        W79837  43.981  27.880  12.056
13407W        W79838  21.655   8.917  11.088
13408W        W79839  21.022   5.384  10.868
13409W        W79840  36.934  18.339   0.200
13410W        W79841   4.985   6.725  13.978
13411W        W79842   6.749  31.515   0.402
13412W        W79843  16.844  44.251   2.769
13413W        W79844   1.296   5.803   3.504
13414W        W79845  38.111  29.235  14.503
13415W        W79846  34.972  25.877   4.230
13416W        W79847  16.314   3.367   0.381
13417W        W79848  34.359  40.202   0.136
13418W        W79849  35.823   4.369   1.777
13419W        W79850  35.658  10.354  11.154
13420W        W79851  38.079   4.136   3.207
13421W        W79852  28.218  41.823  10.435
13422W        W79853  44.075  43.083  10.362
13423W        W79854  13.567  26.567   2.351
13424W        W79855  24.697   7.422  13.332
13425W        W79856  13.832   3.674  13.560
13426W        W79857  18.044  36.903   0.660
13427W        W79858  20.162  22.553   0.805
13428W        W79859  37.085  37.012  11.539
13429W        W79860  39.523   4.497  13.077
13430W        W79861   1.474   1.807   0.395
13431W        W79862  15.692  41.600   3.644
13432W        W79863   3.414   5.264  12.405
13433W        W79864  21.774  34.873   3.200
13434W        W79865  20.520  16.861  10.285
13435W        W79866  20.715  20.802  13.905
13436W        W79867  13.828   9.877  11.058
13437W        W79868  27.164   8.802   1.271
13438W        W79869  35.492  38.587   0.272
13439W        W79870   7.333  16.342  12.920
13440W        W79871  44.718   5.275  11.303
13441W        W79872  12.684  31.440   4.411
13442W        W79873  13.159   0.812   1.458
13443W        W79874   6.183  14.680   3.746
13444W        W79875   5.593   7.351  12.139
13445W        W79876  20.044  19.739  11.075
13446W        W79877  41.348  30.999  11.075
13447W        W79878  29.663  10.156   1.776
13448W        W79879  17.607   7.621   3.278
13449W        W79880  27.110   0.638   5.092
13450W        W79881  42.928  26.741   2.762
13451W        W79882   2.895  20.549   1.116
13452W        W79883   5.140  38.885  13.391
13453W        W79884  34.827   7.867   4.175
13454W        W79885  19.757   6.431   0.785
13455W        W79886  27.318  14.609   2.650
13456W        W79887  32.154  32.560  13.331
13457W        W79888   7.234  10.135   2.741
13458W        W79889  15.141  31.858  13.419
13459W        W79890   5.788  42.442   0.756
13460W        W79891  42.267  14.738   1.695
13461W        W79892   5.353  43.903   2.609
13462W        W79893  38.910  28.332   1.856
13463W        W79894  31.064  12.907   2.441
13464W        W79895  27.631  14.696   2.213
13465W        W79896   7.716  10.582  11.050
13466W        W79897  33.200  16.992   0.336
13467W        W79898   8.672  41.258  14.008
13468W        W79899   2.827  40.405  10.721
13469W        W79900   0.308  28.932   2.330
13470W        W79901  29.568  34.107   4.546
13471W        W79902  29.616  26.153  14.959
13472W        W79903  34.958  23.136   9.954
13473W        W79904  36.363  31.065   3.115
13474W        W79905  34.662   2.594  14.750
13475W        W79906  36.982   6.170   1.169
13476W        W79907  30.935   1.698   0.051
13477W        W79908  10.850   4.530  14.000
13478W        W79909  28.546  40.966  12.277
13479W        W79910  21.336  35.099  10.707
13480W        W79911  26.237  11.381   1.271
13481W        W79912  34.492  21.026   1.469
13482W        W79913   0.519   3.481   4.290
13483W        W79914   0.697  42.014   4.089
13484W        W79915  10.200  31.713  10.564
13485W        W79916   0.212  21.651  10.803
13486W        W79917   4.182  19.168  11.244
13487W        W79918   2.545  22.627  10.672
13488W        W79919  34.977  11.580   1.881
13489W        W79920  33.486  41.410  12.009
13490W        W79921  12.709   9.247   3.593
13491W        W79922  10.497  23.429   3.997
13492W        W79923  15.253   7.229  14.917
13493W        W79924  40.716  32.804  14.318
13494W        W79925  12.771  39.390   2.669
13495W        W79926   0.402   7.491   2.326
13496W        W79927  14.917  21.005  14.774
13497W        W79928  40.615  16.378  10.022
13498W        W79929  19.153  12.312   2.400
13499W        W79930  14.085   3.699   2.739
13500W        W79931   5.752  40.071  14.870
13501W        W79932   3.732   0.244   0.893
13502W        W79933  38.182  42.863  13.336
13503W        W79934   4.566  43.464  10.245
13504W        W79935  41.769  37.135   1.908
13505W        W79936  18.121  16.376   2.185
13506W        W79937  27.678  35.267  12.375
13507W        W79938  17.084  15.065  14.244
13508W        W79939   0.494   5.224   4.621
13509W        W79940  36.935  23.289  14.265
13510W        W79941  26.039  39.464   0.933
13511W        W79942  13.289  38.720  14.921
13512W        W79943  19.477  25.663   0.553
13513W        W79944  22.494  26.464  12.444
13514W        W79945   6.684  41.458   3.328
13515W        W79946  12.674  13.180   1.226
13516W        W79947  21.092  17.478  13.385
13517W        W79948  13.168  21.231  11.467
13518W        W79949  12.309  10.132  13.521
13519W        W79950  22.433  36.907  11.146
13520W        W79951  36.706  43.727  12.054
13521W        W79952   7.731  32.412   1.916
13522W        W79953  23.431  16.056  13.853
13523W        W79954  16.228  34.527  10.638
13524W        W79955  25.288  15.238   4.082
13525W        W79956   4.759   7.760  10.525
13526W        W79957  40.863  33.373   5.213
13527W        W79958  41.306  33.624  10.996
13528W        W79959   8.561   8.838  14.486
13529W        W79960   1.660  42.019  12.181
13530W        W79961  44.490   1.284  13.010
13531W        W79962   9.413  42.009  10.856
13532W        W79963  26.605   5.831   2.205
13533W        W79964  29.918   8.818   2.837
13534W        W79965  34.735   2.176  13.893
13535W        W79966  21.389  41.973  10.799
13536W        W79967  18.917   2.075  14.948
13537W        W79968  12.792  10.648   2.583
13538W        W79969   8.827   9.943   4.474
13539W        W79970  20.750  11.652  13.098
13540W        W79971  36.106  21.260   1.238
13541W        W79972   7.748  36.463  12.473
13542W        W79973  39.953  31.849   0.487
13543W        W79974  22.741  43.924  14.295
13544W        W79975  42.394  35.451  13.820
13545W        W79976   5.849  14.590   9.879
13546W        W79977  18.981  19.974  14.812
13547W        W79978   8.811   6.415  12.489
13548W        W79979  42.509  31.069  12.483
13549W        W79980  15.677   9.816   2.870
13550W        W79981   2.946  35.976   1.399
13551W        W79982  16.874   6.445   3.293
13552W        W79983  18.755  43.717   0.005
13553W        W79984  41.827  30.006  13.083
13554W        W79985   8.670  23.017   2.034
13555W        W79986   5.059  36.613  14.474
13556W        W79987  34.892  41.884   3.868
13557W        W79988   2.984  33.796   2.742
13558W        W79989  29.519   5.117  13.706
13559W        W79990  13.190   3.905   2.301
13560W        W79991  36.420  17.544  13.547
13561W        W79992   3.486  22.485  14.340
13562W        W79993   3.991  29.587   3.370
13563W        W79994   4.008  35.812   2.504
13564W        W79995  26.712  21.616  12.638
13565W        W79996  10.717  42.539   3.221
13566W        W79997  40.282  22.982  10.634
13567W        W79998  12.565  19.358  11.193
13568W        W79999  44.756   9.949   2.191
13569W        W80000  34.669   8.927  11.360
13570W        W80001  28.239  42.812  10.735
13571W        W80002  28.352  32.167   4.960
13572W        W80003  40.203  40.285   4.111
13573W        W80004  29.585  24.997  13.003
13574W        W80005  44.441  36.746   0.375
13575W        W80006  16.739  18.085  11.116
13576W        W80007  17.257  25.723  10.610
13577W        W80008  30.706  14.962  11.653
13578W        W80009  35.083  11.848   3.289
13579W        W80010  33.974  15.305  12.494
13580W        W80011  35.071  41.139  12.955
13581W        W80012  28.376  23.754  11.114
13582W        W80013  33.079  28.441   1.513
13583W        W80014  43.179  23.144  14.260
13584W        W80015  12.309  19.921  11.433
13585W        W80016   5.676   6.177   3.637
13586W        W80017  34.105  14.661  11.304
13587W        W80018  12.545  43.501  12.616
13588W        W80019  22.718  39.737  10.755
13589W        W80020  27.937   5.115  12.018
13590W        W80021  29.339   7.042   5.184
13591W        W80022  39.450  27.905  11.053
13592W        W80023  32.873  32.094   1.861
13593W        W80024  37.996   4.019  11.633
13594W        W80025  38.861  34.012  11.909
13595W        W80026  11.513  37.448   1.353
13596W        W80027  34.149  28.156  11.181
13597W        W80028  14.052   2.321   3.725
13598W        W80029  31.550   5.707  14.130
13599W        W80030  22.357  17.362   2.298
13600W        W80031  17.435  27.130  13.356
13601W        W80032  40.360   2.133  13.624
13602W        W80033   9.264  42.871   2.359
13603W        W80034   6.134  24.574   0.907
13604W        W80035   4.673  19.222  11.153
13605W        W80036  21.165  36.043   4.990
13606W        W80037  26.318  26.492  14.278
13607W        W80038  25.782  29.035  14.887
13608W        W80039  37.012  13.268   2.404
13609W        W80040  17.222  40.075   0.159
13610W        W80041   5.833  39.643   2.341
13611W        W80042  19.564  39.631  12.261
13612W        W80043   8.887  11.364  13.126
13613W        W80044  28.980  31.493   4.091
13614W        W80045  27.605  41.715   4.786
13615W        W80046  31.848  13.385  11.129
13616W        W80047   5.872  29.030  14.904
13617W        W80048  12.050  37.959  14.709
13618W        W80049  23.962  33.324  12.485
13619W        W80050   1.918   8.086  13.420
13620W        W80051  43.318  34.776   0.302
13621W        W80052  29.311   4.853   2.704
13622W        W80053   1.221  17.581   4.195
13623W        W80054   6.953  22.269  12.473
13624W        W80055  43.637   3.369   0.413
13625W        W80056   4.240   2.322   4.214
13626W        W80057  37.585  14.318   4.501
13627W        W80058  42.928  32.023   2.903
13628W        W80059   9.465   6.959  14.794
13629W        W80060  31.591  30.704  12.646
13630W        W80061  25.060  37.924   0.921
13631W        W80062  37.431  38.336  12.951
13632W        W80063   4.458  33.637   5.094
13633W        W80064   5.714  37.483  11.660
13634W        W80065  38.348  44.453   2.819
13635W        W80066   5.882  38.994   4.593
13636W        W80067   4.768   3.964   3.721
13637W        W80068  18.643   3.034  11.949
13638W        W80069   1.505   7.529  11.669
13639W        W80070  25.610  15.198  14.013
13640W        W80071  39.743  38.875   1.750
13641W        W80072  37.970  17.385   0.343
13642W        W80073  12.506  32.321  13.636
13643W        W80074  42.615  22.074   4.122
13644W        W80075  38.101  25.233  14.544
13645W        W80076  40.772   0.962   0.413
13646W        W80077  12.277  29.654   4.455
13647W        W80078   5.965  39.034  11.591
13648W        W80079  37.123  20.633   0.295
13649W        W80080  40.385  16.174  11.222
13650W        W80081   8.289   7.460  11.487
13651W        W80082  13.880  43.695   4.582
13652W        W80083  11.415  23.293   1.692
13653W        W80084  32.688  12.664   3.225
13654W        W80085  10.259   7.685   2.312
13655W        W80086  20.955  12.769   3.434
13656W        W80087  19.303  20.001  12.822
13657W        W80088  41.616  39.940   3.323
13658W        W80089  30.701  22.210   3.508
13659W        W80090   1.884  16.981   0.062
13660W        W80091   5.954  26.758  13.027
13661W        W80092   9.326  18.292   2.645
13662W        W80093  40.395  35.649   0.382
13663W        W80094  33.975  32.358  14.535
13664W        W80095  20.701  21.780  14.823
13665W        W80096  37.973  22.122   4.740
13666W        W80097  18.227  31.203   0.245
13667W        W80098  11.691   3.309   3.668
13668W        W80099  14.212  31.705  14.404
13669W        W80100  21.365  17.313  11.105
13670W        W80101  15.126  14.837  11.924
13671W        W80102  30.870   8.922   3.127
13672W        W80103  42.806  23.764   4.551
13673W        W80104  16.542  35.504   2.085
13674W        W80105  42.246   0.418  11.480
13675W        W80106  11.864   9.382   0.381
13676W        W80107  29.808  31.291  12.044
13677W        W80108   6.111   5.920   2.766
13678W        W80109   4.341  31.170   2.802
13679W        W80110  32.644   5.192  11.247
13680W        W80111  13.655  10.891   2.875
13681W        W80112  33.178  43.573   3.201
13682W        W80113   2.381  29.991  11.836
13683W        W80114  27.158  27.992  12.944
13684W        W80115  40.298  22.563  13.025
13685W        W80116  37.561  28.935  13.555
13686W        W80117  44.330  41.386  10.127
13687W        W80118  37.439   7.350  10.004
13688W        W80119  43.738  29.979   4.953
13689W        W80120   1.909  10.562   1.465
13690W        W80121  44.032  31.505   1.300
13691W        W80122  39.629  27.242   1.507
13692W        W80123  44.456   3.473  12.102
13693W        W80124  18.604  25.561   5.166
13694W        W80125  17.066   2.800  11.984
13695W        W80126  30.565  29.734   4.123
13696W        W80127  41.007  25.580  12.041
13697W        W80128  28.425  35.038  14.905
13698W        W80129  41.880  44.907   1.225
13699W        W80130   6.153  16.631  13.006
13700W        W80131   8.221  32.533   4.721
13701W        W80132  16.742   3.111   4.185
13702W        W80133  43.754  13.383   4.557
13703W        W80134  17.231  43.892  13.292
13704W        W80135  33.592  41.991   0.339
13705W        W80136  40.602  28.029   3.186
13706W        W80137  29.453  23.639  14.456
13707W        W80138  33.106  36.789   4.614
13708W        W80139  27.312   2.898   1.718
13709W        W80140  43.911  37.270  11.632
13710W        W80141   2.479  20.251   0.013
13711W        W80142  12.260  13.919  11.998
13712W        W80143   4.077  19.515  11.590
13713W        W80144  33.858  16.782  11.163
13714W        W80145  15.246  22.714   2.814
13715W        W80146  38.422  17.059   0.682
13716W        W80147  13.162  40.922   1.330
13717W        W80148  37.543  19.523   0.921
13718W        W80149  15.795  13.746  13.472
13719W        W80150  26.224  10.828  11.172
13720W        W80151   3.815   9.347   1.246
13721W        W80152   8.721  37.532  12.583
13722W        W80153  11.732  34.351   3.114
13723W        W80154  26.529  42.850  11.689
13724W        W80155  23.919  25.545   4.681
13725W        W80156   0.245  31.192   0.275
13726W        W80157  18.298  28.486   0.883
13727W        W80158  24.519  26.728   0.155
13728W        W80159  24.861  36.822   0.937
13729W        W80160  40.615  35.562   3.249
13730W        W80161   7.941  43.929   0.537
13731W        W80162  20.084   8.272  10.445
13732W        W80163  29.204  37.072  14.994
13733W        W80164   2.881  28.430  10.788
13734W        W80165  31.732   7.755   3.595
13735W        W80166   4.300  38.380  12.615
13736W        W80167  39.463  24.654   3.383
13737W        W80168  11.327  36.667  11.254
13738W        W80169  37.891  41.971  13.376
13739W        W80170   8.818  28.716   1.958
13740W        W80171  32.775  31.872   4.604
13741W        W80172   1.861  37.293   0.248
13742W        W80173  15.603  36.297   2.769
13743W        W80174  29.721   0.367   0.198
13744W        W80175  10.976   6.700   1.235
13745W        W80176  10.138  22.288   3.250
13746W        W80177  10.836  23.211  12.913
13747W        W80178  40.858  32.589   4.036
13748W        W80179   5.832  41.777   1.333
13749W        W80180  23.425  12.264   1.308
13750W        W80181   4.818  44.020   2.406
13751W        W80182   9.730  23.746   3.104
13752W        W80183  21.423  38.931  13.601
13753W        W80184  33.505   3.371   1.158
13754W        W80185  44.354  23.779   1.279
13755W        W80186  37.390   3.318   2.203
13756W        W80187  44.540  35.725   1.388
13757W        W80188  17.540  37.306   2.848
13758W        W80189   7.436  34.064  14.422
13759W        W80190  18.392  22.699  11.197
13760W        W80191   8.946  44.893   3.740
13761W        W80192  15.991  30.685  11.055
13762W        W80193  33.942  20.760  12.980
13763W        W80194  39.054   4.707  13.540
13764W        W80195   7.487  33.876   1.956
13765W        W80196   6.299  29.929   1.895
13766W        W80197  38.060   5.268  13.758
13767W        W80198  32.978  20.019   4.351
13768W        W80199   3.696   0.200  10.775
13769W        W80200  40.815  43.780  12.042
13770W        W80201  18.196   6.098   0.704
13771W        W80202  36.529  21.144  11.080
13772W        W80203  44.667  34.667   0.607
13773W        W80204  40.168  33.346  11.965
13774W        W80205  29.081  36.109  10.979
13775W        W80206  37.458  33.562   3.235
13776W        W80207   6.124   2.673   1.193
13777W        W80208  17.800  43.415   4.279
13778W        W80209  22.258  16.181   0.821
13779W        W80210  19.445  40.246   1.316
13780W        W80211  36.441  42.327  13.328
13781W        W80212   6.411  14.667   3.264
13782W        W80213   7.166   3.253   3.146
13783W        W80214  23.351  19.034  13.412
13784W        W80215  35.128  38.398   1.597
13785W        W80216  39.794  43.789   4.570
13786W        W80217   4.690   8.806  14.486
13787W        W80218  36.214  22.627   4.747
13788W        W80219  37.835  20.910   2.599
13789W        W80220   4.410  28.141   0.840
13790W        W80221  18.092  22.359   1.779
13791W        W80222  13.568  24.559   0.354
13792W        W80223  18.609  27.716   0.907
13793W        W80224  24.759   3.830   4.069
13794W        W80225   6.878  13.094  13.055
13795W        W80226   5.822  30.670   2.276
13796W        W80227  15.896  40.398  11.039
13797W        W80228  34.845  32.451   2.665
13798W        W80229  22.240  25.044   4.130
13799W        W80230  22.076   0.341   0.009
13800W        W80231  25.560   5.734  13.912
13801W        W80232   1.562  19.812  11.042
13802W        W80233  10.070  26.068  10.642
13803W        W80234   7.733  39.619   0.208
13804W        W80235  28.689   0.916  12.081
13805W        W80236  13.817  44.484   1.646
13806W        W80237  10.417  35.014  13.829
13807W        W80238   6.795  44.992   1.279
13808W        W80239   0.431  32.675  11.540
13809W        W80240  18.536  16.209   3.106
13810W        W80241  32.052  13.086  14.433
13811W        W80242   4.254   2.463  10.649
13812W        W80243   9.848   6.029   1.774
13813W        W80244  44.504  38.839  13.089
13814W        W80245  23.578  12.561   3.725
13815W        W80246  26.139   4.431   4.200
13816W        W80247  17.347   6.698   3.222
13817W        W80248  36.193   3.146  13.198
13818W        W80249  19.060  28.514   1.520
13819W        W80250  28.581  19.166  14.400
13820W        W80251  39.561  20.484   4.102
13821W        W80252   6.178   6.965  11.124
13822W        W80253   9.392   7.594  13.790
13823W        W80254   6.735   8.775   3.056
13824W        W80255   4.221  23.157   1.414
13825W        W80256  34.949  30.657   3.939
13826W        W80257  40.289  39.417   1.703
13827W        W80258  35.533  24.647   4.059
13828W        W80259  39.385  10.310   4.275
13829W        W80260  18.495  17.558   2.394
13830W        W80261  27.121  18.611   1.683
13831W        W80262  39.241  13.894  13.867
13832W        W80263  16.455  23.451  10.688
13833W        W80264  28.415  17.286   2.711
13834W        W80265  10.108  26.185  13.069
13835W        W80266  29.622  12.928   0.960
13836W        W80267  26.625   7.805  11.588
13837W        W80268  13.191   1.328  10.630
13838W        W80269  31.129   1.899  14.360
13839W        W80270   1.634  38.470  14.790
13840W        W80271   4.354  12.798  13.301
13841W        W80272  36.470  32.119   3.605
13842W        W80273   3.430  35.950   1.158
13843W        W80274  35.900  33.515   1.954
13844W        W80275  37.292  42.415   0.067
13845W        W80276  38.800  23.456   0.939
13846W        W80277  15.823  11.629  12.995
13847W        W80278  22.731  31.931  14.973
13848W        W80279  22.013  12.906  12.928
13849W        W80280  35.941  20.076   1.848
13850W        W80281   4.588  10.341  12.494
13851W        W80282  22.155  32.247   4.270
13852W        W80283  42.006  13.301  12.818
13853W        W80284  19.002  17.338   4.085
13854W        W80285   3.646   3.233  13.820
13855W        W80286   9.651   2.824   1.757
13856W        W80287  29.703  31.427   1.386
13857W        W80288  15.725  27.072   2.767
13858W        W80289   0.785  43.235   0.989
13859W        W80290  23.273  40.086  10.304
13860W        W80291  15.244  42.036  11.758
13861W        W80292   3.736  12.645  12.517
13862W        W80293  22.299  30.524   2.304
13863W        W80294  44.485  44.307   2.753
13864W        W80295  18.947  36.842   2.330
13865W        W80296  28.521  10.413   0.745
13866W        W80297  19.103  12.632   0.405
13867W        W80298  32.128  32.137  13.024
13868W        W80299   1.533  11.189  13.436
13869W        W80300   2.426  16.173   1.168
13870W        W80301  32.596  32.949  13.977
13871W        W80302  33.090  28.520  12.601
13872W        W80303  21.590  40.272   1.498
13873W        W80304  27.510   6.166   3.233
13874W        W80305  28.746  28.146   0.923
13875W        W80306   4.827  30.842   3.562
13876W        W80307  30.075  13.089  13.481
13877W        W80308   1.753  27.100  12.174
13878W        W80309  28.884  22.798  13.736
13879W        W80310  40.822  37.639  14.391
13880W        W80311   6.204  29.064   0.458
13881W        W80312  22.695   6.655   1.289
13882W        W80313  17.138  35.576   0.402
13883W        W80314  29.471  15.660   5.113
13884W        W80315  41.826   8.186   3.776
13885W        W80316  17.155  44.194  14.646
13886W        W80317  12.802   4.423   0.257
13887W        W80318   0.009  14.055   2.744
13888W        W80319  18.828  33.917   2.134
13889W        W80320  25.448   0.780   3.671
13890W        W80321   5.912  42.769   1.713
13891W        W80322  34.320  14.490   3.243
13892W        W80323  44.063   6.228   0.753
13893W        W80324  18.288  25.942   3.312
13894W        W80325  10.996  37.581   1.365
13895W        W80326  43.692  24.186   1.895
13896W        W80327  29.219  38.153  13.052
13897W        W80328  31.988  32.370  14.375
13898W        W80329  39.606   2.845   3.693
13899W        W80330  31.378  21.676   3.242
13900W        W80331  12.712   6.921   9.927
13901W        W80332  44.768  34.370   2.639
13902W        W80333  40.354  15.931  12.813
13903W        W80334  24.178  13.681   1.385
13904W        W80335  33.075  41.963   0.434
13905W        W80336  16.251  25.728  12.093
13906W        W80337   1.325  40.217  13.232
13907W        W80338  12.359   9.625   0.338
13908W        W80339  39.455  25.020   2.993
13909W        W80340  13.919  42.539  12.932
13910W        W80341  42.197   0.453  13.257
13911W        W80342  13.308  37.510  14.933
13912W        W80343  39.154  14.776  11.972
13913W        W80344  20.246  35.585  12.986
13914W        W80345  30.601  30.866   3.316
13915W        W80346  20.630  39.324   0.807
13916W        W80347  20.588  33.001  12.484
13917W        W80348  43.837  14.143  12.505
13918W        W80349  32.404   3.939  12.471
13919W        W80350  32.956  41.766   2.364
13920W        W80351  35.989   0.046   0.753
13921W        W80352  42.563   6.769  10.955
13922W        W80353  30.512  23.544  10.750
13923W        W80354  41.383  34.051  11.259
13924W        W80355  24.756  43.496  13.744
13925W        W80356   5.420  13.110  14.530
13926W        W80357   4.409  24.598  14.664
13927W        W80358  17.930  24.594   5.362
13928W        W80359  28.082  10.620   3.013
13929W        W80360  32.501   5.759  13.614
13930W        W80361  39.789  23.509   0.593
13931W        W80362  17.755  38.120  10.975
13932W        W80363  11.582  34.032  11.110
13933W        W80364  22.116  34.572   2.369
13934W        W80365  33.713   4.325  12.415
13935W        W80366  31.444  11.607   2.395
13936W        W80367  18.742  17.188  13.888
13937W        W80368  25.690   3.225   9.980
13938W        W80369   2.427  13.857  12.921
13939W        W80370  39.270  28.721  13.093
13940W        W80371  11.519  33.520   4.594
13941W        W80372   5.690   2.341  11.382
13942W        W80373  14.143   4.148   0.869
13943W        W80374   8.835  25.115   3.462
13944W        W80375  11.664  18.215   4.621
13945W        W80376  30.600   2.283  14.356
13946W        W80377  35.866  33.529  13.809
13947W        W80378  26.105  36.775  10.654
13948W        W80379  38.177   9.378  13.110
13949W        W80380   4.796   9.909   2.110
13950W        W80381  18.220   6.921   1.460
13951W        W80382  29.526   6.320   2.854
13952W        W80383  29.897  36.587  11.402
13953W        W80384  12.969   5.863   1.680
13954W        W80385  30.931  13.429   2.330
13955W        W80386  38.377  29.519  13.552
13956W        W80387  34.152  28.569  12.490
13957W        W80388  19.268  34.085   4.831
13958W        W80389  29.861  25.401  11.671
13959W        W80390  44.442  42.590   4.408
13960W        W80391  35.688  35.081   0.302
13961W        W80392  40.426  17.478  10.626
13962W        W80393  33.295  34.858  10.412
13963W        W80394  38.847  43.600   4.392
13964W        W80395  23.513  40.770  14.412
13965W        W80396  37.881  26.656  13.807
13966W        W80397  35.068  31.049  13.086
13967W        W80398   7.477  11.180  12.146
13968W        W80399  40.972  43.896   4.815
13969W        W80400  13.091  30.087   4.930
13970W        W80401  11.667   6.397  10.268
13971W        W80402  35.142  27.181   3.578
13972W        W80403  17.152  25.793   3.270
13973W        W80404   8.709  28.467  11.190
13974W        W80405  39.087  13.363   4.517
13975W        W80406  36.509  28.515   1.402
13976W        W80407  15.958   6.221   1.795
13977W        W80408   1.294  31.952   4.002
13978W        W80409  10.033   4.261  10.272
13979W        W80410   6.220  32.650  14.708
13980W        W80411  40.288  14.363  13.786
13981W        W80412  40.296  36.562   4.563
13982W        W80413  24.755  11.943   3.752
13983W        W80414  40.856  38.401  13.558
13984W        W80415  26.102  22.564  13.417
13985W        W80416  11.802  23.908  10.123
13986W        W80417  19.535  21.896   4.448
13987W        W80418  16.694  39.857  14.046
13988W        W80419  10.785  12.028   0.766
13989W        W80420  24.994  11.353  14.056
13990W        W80421  35.960  10.654  10.359
13991W        W80422  23.704  29.509   0.374
13992W        W80423  28.808  22.546   4.302
13993W        W80424  40.858  27.128  14.273
13994W        W80425  11.620   3.389  12.084
13995W        W80426  31.567  39.409  14.709
13996W        W80427  33.142  24.039  11.178
13997W        W80428  27.910   7.624  11.976
13998W        W80429  42.337  19.611  13.780
13999W        W80430   0.814  23.004   3.712
14000W        W80431   9.755  34.491   4.101
14001W        W80432  38.808   4.763   3.159
14002W        W80433  14.241   9.821  11.407
14003W        W80434  14.617  25.726  12.416
14004W        W80435  18.700  22.219  13.482
14005W        W80436  33.609  11.275   2.619
14006W        W80437  43.481   0.798   2.235
14007W        W80438  40.856  11.571  13.113
14008W        W80439  23.483   7.286   1.671
14009W        W80440  21.321  41.636  12.913
14010W        W80441  41.982   8.248   2.176
14011W        W80442  21.035   6.264  11.881
14012W        W80443  11.150  40.252  11.108
14013W        W80444  25.170  26.225  14.309
14014W        W80445  21.643  19.375   0.952
14015W        W80446  29.566  44.999   4.768
14016W        W80447  20.513   5.673  12.841
14017W        W80448  22.017   1.359   1.304
14018W        W80449  13.831   0.304   0.341
14019W        W80450  26.171  17.619  11.080
14020W        W80451  21.888  40.105  10.740
14021W        W80452   7.882  26.004  10.731
14022W        W80453  17.603   3.492   2.191
14023W        W80454   0.797  30.673   3.111
14024W        W80455  41.538   1.607  14.467
14025W        W80456  10.501  30.604  12.302
14026W        W80457  13.530  11.499  12.842
14027W        W80458  36.904   2.087  11.173
14028W        W80459   9.312  24.213  12.544
14029W        W80460   9.287  33.491  13.965
14030W        W80461  16.245  13.515  11.728
14031W        W80462  36.961   6.794  10.577
14032W        W80463  42.770  35.069  12.595
14033W        W80464  35.436  10.912   3.408
14034W        W80465  33.885  27.056   4.214
14035W        W80466  21.490  33.486   2.040
14036W        W80467  25.719  41.177   3.653
14037W        W80468  41.571  31.649  14.833
14038W        W80469  23.222  14.300  11.393
14039W        W80470  22.887  40.037   0.356
14040W        W80471  37.532   9.146  11.505
14041W        W80472  12.532   7.692   1.751
14042W        W80473  38.816   1.634  12.672
14043W        W80474  34.411  34.995   4.174
14044W        W80475  39.612  32.651   0.677
14045W        W80476   8.346   4.330   4.440
14046W        W80477  34.911  36.863  11.708
14047W        W80478  22.692   1.034   4.179
14048W        W80479  22.547   1.300  11.036
14049W        W80480  35.495  35.005   1.913
14050W        W80481  28.896  38.742  10.923
14051W        W80482  33.805  40.946  11.696
14052W        W80483   0.757  42.757  12.542
14053W        W80484   5.456  38.116   0.621
14054W        W80485  36.969   1.077   2.765
14055W        W80486   4.349  19.317   4.479
14056W        W80487  26.972  36.522  13.102
14057W        W80488  35.613  25.003   2.333
14058W        W80489  37.467  29.734   2.271
14059W        W80490  29.138  33.143  10.662
14060W        W80491  38.845  25.094  10.404
14061W        W80492  16.183  18.715  10.623
14062W        W80493  42.243  36.695  13.531
14063W        W80494  40.396   3.810   3.272
14064W        W80495   8.950  28.709  10.823
14065W        W80496   5.319  41.794  14.520
14066W        W80497   7.238   0.746  14.317
14067W        W80498  33.116  12.631  11.585
14068W        W80499  37.959  23.724  12.054
14069W        W80500   0.470   0.669  14.475
14070W        W80501  20.520  20.381   4.196
14071W        W80502  25.166  32.899   0.158
14072W        W80503  29.297  21.932  11.069
14073W        W80504  27.032  31.357  13.533
14074W        W80505  29.867  24.291  11.949
14075W        W80506   8.776  26.225  13.795
14076W        W80507   4.785  44.373   4.143
14077W        W80508  15.169  20.986  11.108
14078W        W80509  23.961  12.035   1.782
14079W        W80510  41.397  17.799  13.982
14080W        W80511   8.777  41.597   0.915
14081W        W80512  24.486   3.450  11.575
14082W        W80513  21.112  36.008   0.750
14083W        W80514  31.036  31.473  12.376
14084W        W80515  19.292   6.637   4.190
14085W        W80516   1.727   0.753   3.106
14086W        W80517  36.729  20.945  14.596
14087W        W80518  31.871  34.015   1.372
14088W        W80519  36.034  16.281  11.157
14089W        W80520  24.061  22.989  10.700
14090W        W80521   4.289   1.899   0.446
14091W        W80522   2.714  17.178  14.500
14092W        W80523  18.045  18.193  14.549
14093W        W80524  22.473  10.809  13.354
14094W        W80525   0.365  26.684  13.454
14095W        W80526  21.121  30.017   5.062
14096W        W80527  15.026  29.921  10.482
14097W        W80528  37.995  17.314  13.088
14098W        W80529  20.144  36.566   1.816
14099W        W80530  44.958   1.399  11.216
14100W        W80531   1.015  39.547   3.445
14101W        W80532  25.682  20.838  11.012
14102W        W80533  40.892   3.694   2.284
14103W        W80534   8.881   3.346  13.951
14104W        W80535  19.761  36.894  14.780
14105W        W80536  32.382  38.465   1.660
14106W        W80537  26.639   4.574   3.056
14107W        W80538   8.904  19.826   3.227
14108W        W80539  43.810   5.284  12.446
14109W        W80540   7.927  21.589   1.752
14110W        W80541  43.980  21.327   4.175
14111W        W80542  35.617  22.344  10.546
14112W        W80543  43.227   7.999  14.043
14113W        W80544  42.362  31.112   4.027
14114W        W80545  20.191  21.049  11.532
14115W        W80546   1.713  11.247   4.467
14116W        W80547  23.840   9.407   2.180
14117W        W80548   8.626  37.640   4.569
14118W        W80549  27.419  29.651  11.615
14119W        W80550  44.797  17.741   4.680
14120W        W80551  44.725   3.799  14.262
14121W        W80552  36.813  35.142   4.105
14122W        W80553  43.771  40.368   0.451
14123W        W80554  43.426  42.296  10.868
14124W        W80555  26.687  22.653  14.131
14125W        W80556  30.523  31.525  11.594
14126W        W80557  31.250  16.294  11.554
14127W        W80558  38.549  40.972  12.010
14128W        W80559  36.141  11.272  11.106
14129W        W80560  36.670  27.570   3.021
14130W        W80561  10.574  21.552   0.944
14131W        W80562  29.479  30.699   1.790
14132W        W80563  15.266  32.874   0.026
14133W        W80564  14.886  15.920   2.772
14134W        W80565  13.678  28.587  11.123
14135W        W80566  11.600  18.742  11.698
14136W        W80567  42.123  29.539   3.511
14137W        W80568  18.992  23.127  13.074
14138W        W80569  14.336  30.442  13.010
14139W        W80570   5.879  36.594   1.496
14140W        W80571  44.475  33.115   2.754
14141W        W80572   4.843  33.768  11.182
14142W        W80573  27.569  16.879   2.698
14143W        W80574  35.484   1.434   4.371
14144W        W80575  21.326  36.428  10.665
14145W        W80576  12.729   9.744  11.417
14146W        W80577  28.847  17.254  14.537
14147W        W80578  42.898   5.199   0.477
14148W        W80579  37.947  18.661   0.909
14149W        W80580  35.512  44.826   0.807
14150W        W80581  20.660  18.195  12.526
14151W        W80582  31.751   9.980   2.616
14152W        W80583   0.885  41.950   3.592
14153W        W80584  35.942  44.298  12.992
14154W        W80585   4.693  24.827  14.304
14155W        W80586  23.700  33.752   0.736
14156W        W80587  21.469  15.577  11.601
14157W        W80588  11.504  41.502  12.551
14158W        W80589  34.459  22.508  12.500
14159W        W80590  38.610  38.243  13.895
14160W        W80591  30.003  43.511  13.952
14161W        W80592  26.961   3.405   4.818
14162W        W80593   5.170  15.254  10.643
14163W        W80594  13.758  34.053   1.162
14164W        W80595  11.111  44.942   4.100
14165W        W80596  21.844  12.878  12.071
14166W        W80597  28.463   0.980   0.261
14167W        W80598  22.542  36.101   0.755
14168W        W80599  24.018  35.052   2.834
14169W        W80600   2.790  44.908  10.707
14170W        W80601   0.385  11.450   0.250
14171W        W80602  29.155  38.313  10.685
14172W        W80603   4.601  15.203   4.259
14173W        W80604  26.588  41.980   4.520
14174W        W80605  43.821  43.389  12.486
14175W        W80606  36.030   3.725  10.809
14176W        W80607  44.048  28.831   3.301
14177W        W80608  13.125  34.022   0.902
14178W        W80609  41.649   4.309  10.791
14179W        W80610   6.630  31.654  10.421
14180W        W80611  39.659  40.843   2.223
14181W        W80612  41.291  13.715   1.676
14182W        W80613  44.230  38.434   3.844
14183W        W80614  12.672  35.420   4.630
14184W        W80615  16.743  11.742   4.031
14185W        W80616  33.710   4.224   3.387
14186W        W80617  20.673  39.535   3.705
14187W        W80618  44.369  21.178  10.722
14188W        W80619  29.832  33.076   0.963
14189W        W80620   6.350  22.169  14.398
14190W        W80621   9.303  30.544  13.584
14191W        W80622  12.146  38.412   1.957
14192W        W80623   2.990  16.662   2.617
14193W        W80624  15.200  41.924   4.351
14194W        W80625  42.752  36.579   0.005
14195W        W80626  31.553  18.258  12.115
14196W        W80627  32.879  34.508   4.646
14197W        W80628   2.100  32.177   4.399
14198W        W80629  44.818  11.864  12.545
14199W        W80630  28.068   7.878   1.559
14200W        W80631  33.848  25.538   2.075
14201W        W80632  19.217  19.485  14.393
14202W        W80633  40.107  30.919  12.116
14203W        W80634  31.946  20.028  14.383
14204W        W80635  22.262   5.748  12.511
14205W        W80636   1.375   3.233   0.346
14206W        W80637  42.063   0.932  14.449
14207W        W80638   8.227  13.706   3.258
14208W        W80639  32.149   5.461  12.460
14209W        W80640  34.043   4.255  11.487
14210W        W80641  13.400   4.516  11.968
14211W        W80642  41.364  19.974   2.406
14212W        W80643  17.233  22.885   4.644
14213W        W80644   8.399   2.277   1.618
14214W        W80645  17.256  41.973   0.466
14215W        W80646  41.591  28.028  13.067
14216W        W80647  30.823  20.986  12.864
14217W        W80648  17.591  25.044  12.785
14218W        W80649   3.907  23.959  12.785
14219W        W80650  35.858  43.073  13.345
14220W        W80651  35.460  31.957   3.867
14221W        W80652  24.917  34.094  13.053
14222W        W80653  15.821  39.567  13.988
14223W        W80654  11.329  34.031  14.985
14224W        W80655  17.721   1.755   0.176
14225W        W80656  23.246   1.400   3.311
14226W        W80657  14.576  12.799  12.557
14227W        W80658  18.931  36.097  12.443
14228W        W80659   2.776  21.740  14.317
14229W        W80660  44.583  28.157  10.818
14230W        W80661  41.439  21.530  14.744
14231W        W80662   1.689  32.829  13.784
14232W        W80663  25.872  32.047  12.901
14233W        W80664   3.351  26.693  10.582
14234W        W80665   2.004   5.790  11.933
14235W        W80666  29.180  13.167   0.208
14236W        W80667   7.753  42.819   2.400
14237W        W80668  27.468  27.471  11.128
14238W        W80669  24.728  17.318   1.893
14239W        W80670  16.010  25.515  13.109
14240W        W80671   2.711   5.114  11.242
14241W        W80672  34.867   2.930  11.170
14242W        W80673  18.520   7.679   1.072
14243W        W80674  24.136  16.162  14.384
14244W        W80675  16.346   6.204   4.566
14245W        W80676  36.891  44.908  14.240
14246W        W80677  19.079  36.498   1.106
14247W        W80678  41.219   0.107  11.834
14248W        W80679  40.866   8.123   1.672
14249W        W80680  32.582  33.977   4.674
14250W        W80681  29.153  44.941  14.240
14251W        W80682  23.112  29.877  13.401
14252W        W80683  38.759  32.451   0.912
14253W        W80684  25.623   7.423  12.476
14254W        W80685  34.298  43.987  10.669
14255W        W80686   3.769  39.700  11.605
14256W        W80687  38.320   4.931  14.046
14257W        W80688  16.540  26.253   3.694
14258W        W80689  35.476  41.476  11.734
14259W        W80690  13.464  35.216  10.758
14260W        W80691   3.230  23.447   3.313
14261W        W80692  39.706  23.335  14.803
14262W        W80693  10.715  18.591  14.851
14263W        W80694  20.534   2.793  11.454
14264W        W80695  21.823  39.533  10.359
14265W        W80696   8.075  36.554   1.105
14266W        W80697   6.717  40.455   0.042
14267W        W80698  31.993  24.608   1.869
14268W        W80699   3.472  39.381  13.882
14269W        W80700   8.283  23.213   3.835
14270W        W80701  24.109  17.200   4.815
14271W        W80702  39.930  41.433  12.306
14272W        W80703  42.391   6.212   1.428
14273W        W80704  41.903  11.698   0.788
14274W        W80705  36.116  35.435   1.264
14275W        W80706  42.494   3.013  13.860
14276W        W80707  16.902  22.036   4.586
14277W        W80708  31.769  42.474  11.126
14278W        W80709   0.723  26.681  14.270
14279W        W80710   4.897  42.324  14.339
14280W        W80711  19.195   5.234   1.880
14281W        W80712  24.998  11.182   1.894
14282W        W80713  44.309  40.887   3.420
14283W        W80714   3.223  17.050   4.154
14284W        W80715  33.368  15.176  13.088
14285W        W80716  39.857   4.737  12.060
14286W        W80717   8.206  31.329  12.055
14287W        W80718  33.893  22.953   1.311
14288W        W80719  26.232  18.331  13.945
14289W        W80720  35.515  35.654  14.355
14290W        W80721  10.615  19.220  13.295
14291W        W80722  17.166   5.101  12.737
14292W        W80723  24.380  26.858  11.631
14293W        W80724  44.274   3.330  12.557
14294W        W80725  34.459  38.508   1.589
14295W        W80726  44.402  14.981  12.779
14296W        W80727   0.679  18.409   5.285
14297W        W80728  12.216  26.181  10.699
14298W        W80729  34.500  17.126  13.624
14299W        W80730  37.757  39.661   3.638
14300W        W80731  30.027  17.426   2.836
14301W        W80732  35.410  40.845   1.901
14302W        W80733   7.844  31.566   0.709
14303W        W80734   6.364  34.383   1.494
14304W        W80735  20.714  34.683   2.208
14305W        W80736  18.675  40.544  10.675
14306W        W80737  33.911  26.551  12.527
14307W        W80738  19.007  27.058  10.994
14308W        W80739  40.595  32.123   3.709
14309W        W80740  34.531   5.231   0.260
14310W        W80741  15.881  33.640   3.038
14311W        W80742  42.288   5.315   4.670
14312W        W80743  40.594  43.544   0.231
14313W        W80744  15.887  32.104   0.337
14314W        W80745  33.314  30.920   0.388
14315W        W80746  18.247  14.216  13.330
14316W        W80747  19.931  22.778   1.253
14317W        W80748  15.113  38.492  11.932
14318W        W80749  10.695   2.633  14.902
14319W        W80750  21.055  41.316  12.390
14320W        W80751   1.890  35.078   4.624
14321W        W80752  30.123  39.646   1.867
14322W        W80753   6.719  25.702   0.255
14323W        W80754   2.331  19.816   3.667
14324W        W80755  26.641  24.037   0.410
14325W        W80756  44.504  43.968  13.940
14326W        W80757  31.960   3.867   0.429
14327W        W80758  27.270  10.542   0.158
14328W        W80759  11.805  43.807  11.683
14329W        W80760  33.555   4.477  11.385
14330W        W80761  38.668  43.174  10.040
14331W        W80762  10.118   9.566   4.901
14332W        W80763  44.244  14.611  12.319
14333W        W80764   8.463  26.149   2.745
14334W        W80765  30.483  12.569  12.889
14335W        W80766  38.904  17.704   1.268
14336W        W80767  17.278  39.141  10.461
14337W        W80768   1.960  40.476   1.329
14338W        W80769  38.848  19.140   4.812
14339W        W80770  23.695   3.612   3.204
14340W        W80771  25.169  25.131   0.782
14341W        W80772  43.502   3.823   2.359
14342W        W80773  25.570   8.759  14.845
14343W        W80774   9.242  43.943  13.869
14344W        W80775   4.440  23.161   3.369
14345W        W80776   6.162  29.172  12.624
14346W        W80777   9.616  18.237   0.717
14347W        W80778  44.656  24.704   4.444
14348W        W80779  29.367  13.706   3.233
14349W        W80780  15.148  37.490  11.891
14350W        W80781  31.910  44.801   2.405
14351W        W80782  38.428  42.172   3.684
14352W        W80783  42.552   5.340   0.833
14353W        W80784  23.214  20.881   1.076
14354W        W80785  13.032  24.690  13.063
14355W        W80786   2.610  12.783   5.172
14356W        W80787   9.063   1.811  10.602
14357W        W80788  42.625  23.420   4.207
14358W        W80789  33.611  20.996   2.173
14359W        W80790   2.013   2.284   1.858
14360W        W80791  27.196  39.513   0.835
14361W        W80792  16.150  24.131   1.241
14362W        W80793  10.651   8.432   3.551
14363W        W80794  38.462  14.151  11.548
14364W        W80795  15.172  25.249   0.750
14365W        W80796  15.124   4.963  14.524
14366W        W80797  31.525  35.342  10.425
14367W        W80798   0.323  12.695   2.618
14368W        W80799  23.484  32.694  14.121
14369W        W80800  38.596  39.047  13.394
14370W        W80801  19.907  38.980  12.419
14371W        W80802  41.427  20.585  14.342
14372W        W80803  28.896  37.013   3.974
14373W        W80804  24.211  41.526   0.935
14374W        W80805   6.761  30.655  14.384
14375W        W80806  27.598   1.065  12.835
14376W        W80807  20.249  44.933   0.312
14377W        W80808  24.429  34.945  12.038
14378W        W80809  11.574  34.440   0.269
14379W        W80810  32.079  17.177   2.114
14380W        W80811  39.713  15.069  11.698
14381W        W80812  19.868  36.872   4.530
14382W        W80813   0.989  36.208   1.425
14383W        W80814  15.677  12.169   4.958
14384W        W80815   4.206  19.795  10.624
14385W        W80816  15.826  11.221  12.570
14386W        W80817  37.816  34.291  10.182
14387W        W80818  39.280   7.677   0.730
14388W        W80819  30.718  21.521   0.435
14389W        W80820  24.233   2.789   0.888
14390W        W80821  29.485   7.597   3.944
14391W        W80822  17.054   9.529  14.025
14392W        W80823  31.475  40.876   3.802
14393W        W80824   3.166  36.750   3.631
14394W        W80825  37.518  20.244   3.589
14395W        W80826  25.433  32.138   4.183
14396W        W80827   6.586  43.058  10.658
14397W        W80828  11.091  20.218   2.055
14398W        W80829   1.284   1.793  12.408
14399W        W80830   2.088  25.173   0.332
14400W        W80831   3.725  44.890  11.180
14401W        W80832   3.345  12.598   3.648
14402W        W80833  38.057  36.116  11.998
14403W        W80834  37.776   8.054   0.243
14404W        W80835  30.331  42.001  14.348
14405W        W80836  27.248  37.857  14.232
14406W        W80837  25.118  44.838  10.419
14407W        W80838  34.075  16.272  14.487
14408W        W80839  39.375  21.194   0.316
14409W        W80840   5.491   6.763  13.911
14410W        W80841   9.866  36.171  12.879
14411W        W80842  14.169  39.536  13.451
14412W        W80843  44.693  40.519   4.960
14413W        W80844  13.265  43.723   4.120
14414W        W80845  34.858  21.518   4.517
14415W        W80846  35.859  29.621  12.979
14416W        W80847  20.431  40.473  10.372
14417W        W80848  32.630  14.372   0.216
14418W        W80849  15.314   0.282   3.825
14419W        W80850  19.121  31.913   4.507
14420W        W80851  17.536   2.655   1.038
14421W        W80852  11.178  28.978   3.118
14422W        W80853  22.550  27.883  13.568
14423W        W80854   5.432  24.639   4.007
14424W        W80855  42.293  21.781   4.838
14425W        W80856  19.322   8.464  11.485
14426W        W80857  41.785  26.254  11.173
14427W        W80858  19.914  21.740  12.612
14428W        W80859  43.087   4.209  14.329
14429W        W80860  31.754  13.699  14.909
14430W        W80861  16.188  22.940   3.741
14431W        W80862   6.990   3.837   4.264
14432W        W80863  13.030   7.820   3.089
14433W        W80864   2.897  32.029  11.015
14434W        W80865  13.797  18.485   3.691
14435W        W80866  26.832  41.175   4.325
14436W        W80867   7.759  13.537   5.423
14437W        W80868  13.353  43.246  12.447
14438W        W80869  25.444  20.489  10.711
14439W        W80870  33.091  10.293   0.219
14440W        W80871  35.935  31.878   2.653
14441W        W80872  22.143  11.236   1.189
14442W        W80873  43.845   1.749  13.854
14443W        W80874  42.889  22.076  13.255
14444W        W80875   8.389   1.737   2.321
14445W        W80876  10.931  11.846  12.420
14446W        W80877  15.721   3.785  11.996
14447W        W80878  26.097  22.722  12.861
14448W        W80879  17.286  28.583  12.062
14449W        W80880  10.414  14.288   1.246
14450W        W80881  28.127   4.141   5.099
14451W        W80882  29.236   1.018  13.333
14452W        W80883  42.341  21.413  13.297
14453W        W80884  44.781  34.545  11.515
14454W        W80885   4.737  43.855  11.154
14455W        W80886  15.839   7.165  12.307
14456W        W80887  23.711   1.131  13.577
14457W        W80888  32.779  43.486  13.620
14458W        W80889  42.793   8.312  14.796
14459W        W80890  22.469   7.151   9.920
14460W        W80891  32.556  28.536  13.017
14461W        W80892   7.993  41.798  11.960
14462W        W80893  28.881  37.999   2.280
14463W        W80894  41.710  28.841   1.702
14464W        W80895  41.371   7.194   4.194
14465W        W80896   3.214  15.945  12.864
14466W        W80897  23.181  20.002   0.124
14467W        W80898   5.850  13.065  12.931
14468W        W80899  23.196  29.108   4.077
14469W        W80900  25.042   6.903   4.726
14470W        W80901  10.726  41.515  11.233
14471W        W80902   7.207  16.831  12.040
14472W        W80903  34.696  15.655  13.465
14473W        W80904  24.146  35.499  13.058
14474W        W80905   2.444  38.954  12.494
14475W        W80906  30.006   1.028  14.418
14476W        W80907   6.607  13.743   3.293
14477W        W80908   5.534  27.225  13.572
14478W        W80909  32.002  19.675  13.577
14479W        W80910   7.178  34.075   1.537
14480W        W80911   8.899  25.615   3.688
14481W        W80912  38.368  27.796  12.870
14482W        W80913  41.397  17.685  12.645
14483W        W80914   9.434  41.506  13.508
14484W        W80915  20.532  17.750  14.952
14485W        W80916  40.416   5.435  12.041
14486W        W80917  14.408   6.151  12.096
14487W        W80918  19.572  16.266   3.242
14488W        W80919   5.631   2.904   1.203
14489W        W80920  14.636  44.745   2.723
14490W        W80921  42.032  21.346   5.003
14491W        W80922  13.734  40.270  14.787
14492W        W80923   7.723  26.754  13.427
14493W        W80924  10.275  24.829   4.261
14494W        W80925  31.200  21.176   3.306
14495W        W80926   8.699  29.670  13.900
14496W        W80927  13.379  15.436  13.129
14497W        W80928  24.614  21.753   0.207
14498W        W80929  38.494  28.207  11.481
14499W        W80930  32.250   6.741   1.201
14500W        W80931  17.374   3.289  13.041
14501W        W80932  20.333  44.099   3.770
14502W        W80933  27.472  24.930  13.297
14503W        W80934  20.637  19.537  12.010
14504W        W80935  11.798  28.076   1.635
14505W        W80936  13.617  32.179   1.414
14506W        W80937  34.892  33.114   0.238
14507W        W80938   1.045  27.151   1.349
14508W        W80939   0.924  25.204   2.763
14509W        W80940  14.481  13.827   1.472
14510W        W80941  21.661  30.441  11.951
14511W        W80942  34.828  37.418   2.155
14512W        W80943  33.372  11.526  10.830
14513W        W80944  42.259   1.715   0.864
14514W        W80945  13.163   9.799   3.733
14515W        W80946  25.568  34.659   0.512
14516W        W80947  39.914   5.192   0.801
14517W        W80948   7.269  12.558   0.668
14518W        W80949  28.456  39.115   0.312
14519W        W80950  43.349  11.717  13.908
14520W        W80951  22.965  39.016  13.438
14521W        W80952   7.370   6.481   0.263
14522W        W80953  22.113   3.875  13.517
14523W        W80954  44.927  25.887   3.852
14524W        W80955  10.840  36.524  11.105
14525W        W80956   5.536  13.816  10.458
14526W        W80957  37.307  17.030  11.851
14527W        W80958  43.771   2.256   2.245
14528W        W80959  15.085  28.263  12.000
14529W        W80960  19.155   4.116   2.499
14530W        W80961  13.149  19.351  10.518
14531W        W80962  41.621   4.295   1.898
14532W        W80963  30.864  26.037  12.920
14533W        W80964  10.718  43.360   0.863
14534W        W80965  28.013  23.142   3.413
14535W        W80966  27.942  14.465   1.831
14536W        W80967   7.678  29.478  14.017
14537W        W80968   3.475  18.609  13.356
14538W        W80969  12.634  18.795  14.611
14539W        W80970  24.817   0.992  12.706
14540W        W80971  16.622  26.612  13.207
14541W        W80972   7.302  37.064  11.247
14542W        W80973  10.764   2.927   4.571
14543W        W80974  18.263  36.456  12.988
14544W        W80975  16.194   7.739  11.625
14545W        W80976  24.182  20.929  14.883
14546W        W80977  23.487  13.186  12.527
14547W        W80978  39.544  41.557  10.683
14548W        W80979  38.875  15.572  13.438
14549W        W80980  42.729   7.119   2.634
14550W        W80981   8.183  42.964   2.162
14551W        W80982  38.166   6.969  13.874
14552W        W80983  31.476  43.162   3.631
14553W        W80984  33.607  25.228  12.755
14554W        W80985  28.998  22.497  14.449
14555W        W80986   0.091   5.381   0.887
14556W        W80987  17.074  20.792  12.484
14557W        W80988  42.901  14.014  12.528
14558W        W80989  20.259   1.727  10.627
14559W        W80990  39.552  39.901  12.154
14560W        W80991  44.182   4.022  12.988
14561W        W80992  44.997  10.314   1.332
14562W        W80993  10.247  31.550  11.899
14563W        W80994   6.686  22.749   4.895
14564W        W80995   4.704  21.728   4.278
14565W        W80996  35.459  10.369   1.461
14566W        W80997  13.536  26.487   0.164
14567W        W80998   6.904   6.598  14.930
14568W        W80999  39.286  14.003  14.736
14569W        W81000  19.160  15.777  14.022
14570W        W81001  25.265  41.805   0.765
14571W        W81002   0.933  16.352  13.054
14572W        W81003  11.133  32.741  14.245
14573W        W81004  30.238  30.524  13.485
14574W        W81005  25.489  35.674  14.434
14575W        W81006  37.832  18.817  13.972
14576W        W81007   6.713  18.402   1.595
14577W        W81008  19.899  35.232  13.062
14578W        W81009  39.955  38.738  13.776
14579W        W81010  36.918  22.606   1.400
14580W        W81011   0.937  21.544   1.149
14581W        W81012   3.765  28.015  14.939
14582W        W81013   7.662   1.972   1.000
14583W        W81014  37.060  17.785  14.472
14584W        W81015  10.313  43.899   3.335
14585W        W81016  44.237  17.675   0.507
14586W        W81017   1.873  32.927  10.917
14587W        W81018   7.516  24.229  11.487
14588W        W81019  39.032  40.685   0.983
14589W        W81020   9.342  18.653   0.860
14590W        W81021  39.052  34.471  14.418
14591W        W81022  33.633  39.836  10.917
14592W        W81023  30.693  10.666   2.326
14593W        W81024  17.507  20.496   1.295
14594W        W81025   5.909  29.185   4.141
14595W        W81026  32.156  25.698  14.311
14596W        W81027   3.100  21.724   1.781
14597W        W81028  43.961  22.808  13.254
14598W        W81029  37.156  13.730  11.527
14599W        W81030  43.859  43.091   4.523
14600W        W81031  39.957  30.827  13.442
14601W        W81032  18.785  28.564  14.744
14602W        W81033  28.007  11.458  10.421
14603W        W81034  26.885   9.989  11.090
14604W        W81035   0.311   9.412   0.465
14605W        W81036  15.557   4.774  11.343
14606W        W81037  11.227  33.493   1.740
14607W        W81038  26.591   3.234  12.031
14608W        W81039   5.403   9.327   1.325
14609W        W81040  40.992   9.628  10.772
14610W        W81041  11.392  12.511   2.912
14611W        W81042   7.875  25.508   1.737
14612W        W81043  28.637  15.191   4.382
14613W        W81044  30.582  20.600   4.819
14614W        W81045   3.876   2.913   4.542
14615W        W81046  39.120  37.747  10.704
14616W        W81047  43.476   2.946  13.859
14617W        W81048   7.624  37.094   0.413
14618W        W81049  29.708  44.924  12.315
14619W        W81050  33.976  32.050   3.801
14620W        W81051  15.127   1.332   1.815
14621W        W81052  14.359  18.371   0.539
14622W        W81053   2.430  39.803   1.802
14623W        W81054   9.480  29.780  11.194
14624W        W81055  44.003  24.325   4.103
14625W        W81056  20.522  16.770  13.902
14626W        W81057  42.582  16.542  11.966
14627W        W81058  31.576  19.985   2.226
14628W        W81059  41.873  13.338   3.615
14629W        W81060   9.215  17.394  11.568
14630W        W81061  35.041   5.207  12.839
14631W        W81062  15.214   3.425   0.483
14632W        W81063   6.402  22.533  12.792
14633W        W81064  27.699   6.964  13.059
14634W        W81065  16.999  29.488  11.094
14635W        W81066  26.154   2.868  14.159
14636W        W81067  12.490  37.105  12.155
14637W        W81068  20.339  33.884  12.084
14638W        W81069   9.585  10.547   3.688
14639W        W81070  37.087  41.074   2.879
14640W        W81071  44.539  31.512   1.190
14641W        W81072  35.567  34.759  10.991
14642W        W81073   3.804  41.616   3.743
14643W        W81074  21.050  28.232  14.896
14644W        W81075  25.797  31.062  10.590
14645W        W81076   3.732  23.492   2.158
14646W        W81077  32.126   4.207  14.935
14647W        W81078  39.145  33.724  12.205
14648W        W81079  12.802  16.610   2.161
14649W        W81080  25.422  37.425  11.204
14650W        W81081   3.943  25.268  13.823
14651W        W81082  24.978  22.082   1.475
14652W        W81083  15.230  24.025  13.399
14653W        W81084  27.827  35.524   1.634
14654W        W81085  29.361   1.901  13.498
14655W        W81086  30.893  18.989  13.000
14656W        W81087  10.301  40.767  13.086
14657W        W81088  42.885  31.323   3.692
14658W        W81089  33.714  44.253  13.592
14659W        W81090  11.937   2.774   1.465
14660W        W81091  20.415  37.374   5.054
14661W        W81092  41.784  42.919   3.884
14662W        W81093  21.983  36.520  12.965
14663W        W81094  29.836   6.444  13.149
14664W        W81095  34.500  44.869   4.230
14665W        W81096  37.056  43.004  12.444
14666W        W81097   2.675  18.516  12.296
14667W        W81098   6.924  44.074  11.112
14668W        W81099   8.744  24.821  12.201
14669W        W81100   4.766  22.079  12.823
14670W        W81101   6.939   1.839   3.727
14671W        W81102  14.077   3.971   3.184
14672W        W81103  26.544  13.405   0.648
14673W        W81104  18.578  22.970  11.944
14674W        W81105   0.852  31.065   3.885
14675W        W81106  24.908  40.405  10.548
14676W        W81107  23.910   5.888  11.316
14677W        W81108  22.628   0.307   2.291
14678W        W81109  22.498  43.034   3.009
14679W        W81110  32.549  11.752  10.539
14680W        W81111  16.905   5.759   2.664
14681W        W81112   3.499   6.660   1.203
14682W        W81113  33.157  35.091   2.487
14683W        W81114   1.041   7.291  13.890
14684W        W81115   2.074  25.204   2.276
14685W        W81116  17.311   9.645   0.785
14686W        W81117  30.147  13.169   2.356
14687W        W81118   5.447  31.584   0.673
14688W        W81119   7.887  32.481   1.413
14689W        W81120  29.049   3.161  11.702
14690W        W81121  29.929  27.658   2.336
14691W        W81122  39.273  37.443   4.475
14692W        W81123  11.345  13.630  12.935
14693W        W81124   9.267  16.016   3.178
14694W        W81125   1.815   6.365  14.749
14695W        W81126  32.473  15.759   4.078
14696W        W81127  36.232  36.979  13.103
14697W        W81128  28.802   7.720   5.101
14698W        W81129  18.678  19.012  11.026
14699W        W81130   7.284  43.404   3.639
14700W        W81131  22.181   8.878   0.308
14701W        W81132  33.309  30.234  10.236
14702W        W81133  32.705   7.879   2.256
14703W        W81134   1.655  16.385   2.348
14704W        W81135  44.751  21.840   1.746
14705W        W81136  36.071   2.007   0.434
14706W        W81137  41.732   3.689  11.981
14707W        W81138  14.137  19.506   4.201
14708W        W81139  10.236   0.681  11.633
14709W        W81140  27.051   5.428  14.816
14710W        W81141  12.076  44.917   3.215
14711W        W81142   4.615   2.793  13.736
14712W        W81143  21.980  31.913  11.480
14713W        W81144  40.314  25.453   2.178
14714W        W81145  26.300  22.987   0.253
14715W        W81146  19.649   5.374   1.660
14716W        W81147  38.700  43.474  12.678
14717W        W81148  25.269   3.898   1.781
14718W        W81149   3.446  30.268   3.095
14719W        W81150   5.078  34.958  12.385
14720W        W81151  31.629  10.259  11.555
14721W        W81152  15.683  30.676  13.877
14722W        W81153   8.624  32.339   4.398
14723W        W81154  19.757  32.132  10.600
14724W        W81155  30.552   2.198  12.925
14725W        W81156   7.757  23.779   3.669
14726W        W81157  34.037  39.475  11.631
14727W        W81158  30.326  30.246  11.101
14728W        W81159   9.712   2.122   3.546
14729W        W81160   4.268  15.760  11.630
14730W        W81161  21.803  21.468   2.197
14731W        W81162  20.120  33.572   0.314
14732W        W81163  34.034  27.212  10.825
14733W        W81164  35.391  41.680  12.212
14734W        W81165  11.982   3.782  14.900
14735W        W81166  35.794  43.716   3.662
14736W        W81167  31.669   3.978   0.006
14737W        W81168  30.646  36.002   0.701
14738W        W81169  17.581  13.520  10.681
14739W        W81170  18.866  29.538   1.723
14740W        W81171  42.903  43.193  11.507
14741W        W81172  43.903  37.293  12.461
14742W        W81173  35.014  16.778   4.587
14743W        W81174  39.149   4.792   0.585
14744W        W81175   0.859   5.911   1.748
14745W        W81176  39.766  21.276   2.136
14746W        W81177  44.024   0.443  11.188
14747W        W81178  10.875  18.693   2.941
14748W        W81179  14.085  42.972   2.882
14749W        W81180  26.453   5.672  10.422
14750W        W81181  18.183  37.562  14.119
14751W        W81182  24.604  13.582   4.266
14752W        W81183  22.284   7.437  12.607
14753W        W81184  18.127   3.044   4.004
14754W        W81185  42.438   5.195  12.059
14755W        W81186  27.441  13.745  13.793
14756W        W81187  31.513  30.513   0.670
14757W        W81188  43.333  19.176   1.166
14758W        W81189  31.677   1.138  13.843
14759W        W81190   7.163  19.891  11.539
14760W        W81191  27.204  25.839   1.519
14761W        W81192  38.901   0.388  11.420
14762W        W81193   8.854  41.081  14.911
14763W        W81194  26.307   6.593   3.867
14764W        W81195  32.323  28.507   1.900
14765W        W81196  24.179  13.423   0.823
14766W        W81197  31.471   1.048   3.625
14767W        W81198  10.132  33.076   3.187
14768W        W81199  11.837  13.370   4.591
14769W        W81200  26.557  15.565  14.396
14770W        W81201  18.062  42.692   4.189
14771W        W81202   0.485  34.717   2.282
14772W        W81203  31.095  20.977   2.822
14773W        W81204  44.222  19.759  12.479
14774W        W81205  20.147  14.217  14.850
14775W        W81206  44.010  40.470  13.493
14776W        W81207  40.643  10.320  13.705
14777W        W81208   2.174   5.758   4.614
14778W        W81209  13.979   0.412  12.989
14779W        W81210  42.412  15.645   2.758
14780W        W81211  38.634  37.812  11.523
14781W        W81212   6.947  30.302   4.398
14782W        W81213   3.061  13.269  13.544
14783W        W81214  18.835  42.816   3.638
14784W        W81215   3.412  42.132   1.949
14785W        W81216  39.004  34.190  13.996
14786W        W81217  40.096   6.903   0.394
14787W        W81218  27.883  18.222   2.775
14788W        W81219  17.242  27.332  11.682
14789W        W81220  23.226  23.147  12.020
14790W        W81221  26.495   7.823   1.076
14791W        W81222  33.062  41.748  14.005
14792W        W81223  30.328  28.758  12.378
14793W        W81224  26.573  31.356  13.831
14794W        W81225  38.475  30.739  11.762
14795W        W81226  30.310  15.475  14.232
14796W        W81227   6.123  16.388   2.308
14797W        W81228   4.414  20.302   0.504
14798W        W81229  11.966  13.852   4.688
14799W        W81230  22.749   5.702  14.410
14800W        W81231  38.387  22.481  14.687
14801W        W81232  11.954  44.475   3.745
14802W        W81233   2.741   5.587   4.060
14803W        W81234  21.789   9.753   0.897
14804W        W81235  23.071  12.237  14.210
14805W        W81236  38.691  26.676  14.737
14806W        W81237  14.070   8.754   1.608
14807W        W81238  21.493  43.852   2.234
14808W        W81239   2.754  28.564   4.556
14809W        W81240  25.232  36.974   1.287
14810W        W81241  35.484  21.811   2.626
14811W        W81242  36.251  26.627   4.059
14812W        W81243  38.620  19.393   1.832
14813W        W81244   7.316  14.739   1.868
14814W        W81245  20.093  13.753  12.022
14815W        W81246  32.524  22.675   0.323
14816W        W81247   1.900  30.987   1.929
14817W        W81248  25.291  23.271  12.297
14818W        W81249   6.201  15.274  14.242
14819W        W81250  17.783  31.849  13.895
14820W        W81251  30.413  43.823  14.985
14821W        W81252  13.746  27.746  12.863
14822W        W81253  12.861   3.407   0.847
14823W        W81254  31.317  16.235   3.653
14824W        W81255  41.175   9.102  12.327
14825W        W81256  41.133  29.434  12.747
14826W        W81257  20.235  33.863   2.386
14827W        W81258  31.985  30.394  12.519
14828W        W81259  26.197  14.608   4.806
14829W        W81260  44.822  21.537  13.431
14830W        W81261  17.989  39.031   5.278
14831W        W81262  18.471  24.001   3.316
14832W        W81263  34.613  36.151  13.851
14833W        W81264   8.359   5.143   1.705
14834W        W81265  34.826  12.915   2.229
14835W        W81266   0.246  34.800  11.516
14836W        W81267  33.322  16.809  12.529
14837W        W81268  40.984  38.998   4.383
14838W        W81269  42.881  26.515   0.951
14839W        W81270   2.097  26.775  13.605
14840W        W81271  13.753  31.186  12.514
14841W        W81272   1.613   3.680   4.144
14842W        W81273   0.407  11.118   4.469
14843W        W81274   4.772   8.916  12.980
14844W        W81275  41.352  30.307  12.550
14845W        W81276   2.668  14.243   3.291
14846W        W81277  43.375   2.665  11.995
14847W        W81278  17.934  24.361   2.494
14848W        W81279  25.617  44.892   1.920
14849W        W81280  35.140  31.835   1.316
14850W        W81281  25.500   3.909   1.311
14851W        W81282  41.454  35.562  11.160
14852W        W81283  10.882  17.686   3.500
14853W        W81284  37.094  12.173  12.527
14854W        W81285  44.419  44.489   4.224
14855W        W81286  20.201  19.603  14.179
14856W        W81287   6.809  30.214   0.715
14857W        W81288  36.176  37.845  14.367
14858W        W81289  19.093   8.281   4.633
14859W        W81290  16.206   2.420   1.243
14860W        W81291   3.813  20.132   1.751
14861W        W81292  16.099  31.630   0.248
14862W        W81293  16.753  24.901  13.990
14863W        W81294   6.345  41.537  11.740
14864W        W81295  30.887   3.353  11.910
14865W        W81296  26.825  30.098   4.328
14866W        W81297  42.837  26.448  13.949
14867W        W81298  12.415  30.439  12.480
14868W        W81299  14.221  16.402  11.831
14869W        W81300  13.184   7.528   4.336
14870W        W81301   8.277  37.559  12.956
14871W        W81302   1.879  13.036   0.295
14872W        W81303  33.530  19.556  11.341
14873W        W81304  36.037   6.793  13.113
14874W        W81305  22.220  13.584  11.657
14875W        W81306  28.039   6.631  12.853
14876W        W81307   5.906  32.951   4.700
14877W        W81308   6.628  30.670  13.457
14878W        W81309  26.083  31.847   2.653
14879W        W81310   5.358   5.824   2.359
14880W        W81311  34.467  30.146   2.465
14881W        W81312   0.562  14.303  11.159
14882W        W81313  17.768  15.660   4.415
14883W        W81314  16.217  13.145  10.808
14884W        W81315  39.917  29.656   3.371
14885W        W81316  41.313  42.983  14.391
14886W        W81317  19.195   5.239  14.598
14887W        W81318   1.059   3.983   1.909
14888W        W81319  38.492   3.561  13.394
14889W        W81320  44.795  21.266  12.993
14890W        W81321   2.359  40.053   2.239
14891W        W81322  29.353  42.970  13.453
14892W        W81323  26.562   4.266   2.065
14893W        W81324   7.275  34.915   0.035
14894W        W81325  17.193   5.304  13.609
14895W        W81326  19.730  35.007   0.066
14896W        W81327   1.172   1.883  13.426
14897W        W81328  26.955  13.161  13.452
14898W        W81329  18.399  22.145   1.438
14899W        W81330   8.790  29.846  13.401
14900W        W81331  11.537  15.652  10.618
14901W        W81332  16.752  40.003  12.227
14902W        W81333  20.013  25.557  14.405
14903W        W81334   1.887  10.795   3.758
14904W        W81335   2.100  33.782  13.641
14905W        W81336  36.034  11.676   4.575
14906W        W81337  31.110   2.219  13.454
14907W        W81338  20.683  22.175  13.604
14908W        W81339  28.110  24.456   0.871
14909W        W81340  37.641  19.122   1.869
14910W        W81341  42.277  26.552  12.509
14911W        W81342  33.610  38.648   2.540
14912W        W81343  31.332  41.424   4.641
14913W        W81344  10.164  18.070  12.741
14914W        W81345  25.406  18.811   2.381
14915W        W81346   5.507   2.161  10.951
14916W        W81347  17.211  13.207  12.820
14917W        W81348  38.471  19.056  14.527
14918W        W81349  28.067   9.059   4.991
14919W        W81350  19.869  37.040   1.648
14920W        W81351  15.719  34.106   3.210
14921W        W81352   9.098  10.852  14.761
14922W        W81353  29.052  41.681   3.829
14923W        W81354  32.474  22.595  10.917
14924W        W81355  10.735   5.458  11.994
14925W        W81356  28.305  24.993   4.145
14926W        W81357  31.879  10.767  12.191
14927W        W81358  24.284   6.269   0.745
14928W        W81359  34.403  38.334   2.632
14929W        W81360  24.160  40.734  14.115
14930W        W81361  43.807  41.384  13.328
14931W        W81362  40.079  32.767  12.434
14932W        W81363  17.748  18.043   4.267
14933W        W81364   9.212  10.856  12.749
14934W        W81365  36.862  12.842   1.238
14935W        W81366  15.324  17.069  10.719
14936W        W81367  12.393   6.154  13.913
14937W        W81368  24.877   9.455   2.309
14938W        W81369  44.272   1.474  13.476
14939W        W81370  19.246  21.037   2.001
14940W        W81371   4.921  21.018   2.324
14941W        W81372  24.378   1.790  14.903
14942W        W81373  34.766   4.274   3.561
14943W        W81374  17.557  42.944   0.981
14944W        W81375   3.455  19.085   0.944
14945W        W81376  12.944  39.469  13.514
14946W        W81377  16.788   4.218   1.813
14947W        W81378   4.801  15.678  14.052
14948W        W81379  19.792  12.651  14.673
14949W        W81380  16.139  18.049  10.878
14950W        W81381  19.753  18.352   0.879
14951W        W81382  34.591  34.880   5.106
14952W        W81383   1.480  17.841  13.019
14953W        W81384  34.449  43.167  13.186
14954W        W81385  36.924  40.876  13.884
14955W        W81386  40.269  43.795  12.012
14956W        W81387  26.151  10.779  12.612
14957W        W81388   7.943   6.681  11.417
14958W        W81389   8.856   4.913   0.396
14959W        W81390  22.612  22.757   0.727
14960W        W81391  35.185  27.013   3.085
14961W        W81392  24.005  29.554  14.710
14962W        W81393  14.186  27.958  11.063
14963W        W81394   4.050  38.510   2.890
14964W        W81395  32.551  43.546  10.745
14965W        W81396  17.038   7.729   4.112
14966W        W81397  14.651  29.581   3.758
14967W        W81398  36.865   7.481  12.273
14968W        W81399   2.081  32.528  12.437
14969W        W81400   9.050  25.394  11.854
14970W        W81401  19.543  14.049  13.203
14971W        W81402  13.825  43.808   3.228
14972W        W81403   4.979  20.247   1.420
14973W        W81404  38.000  13.273   2.290
14974W        W81405  15.236  19.633   2.832
14975W        W81406   5.506  17.543   3.111
14976W        W81407  43.431  40.223  10.885
14977W        W81408  21.997  26.089  14.836
14978W        W81409  20.153  21.003  14.871
14979W        W81410   7.676   6.894  11.029
14980W        W81411  17.053  13.674  13.077
14981W        W81412  17.848   8.319  11.625
14982W        W81413  19.065  26.396   4.872
14983W        W81414  27.126  37.317   1.280
14984W        W81415  10.096   8.660   4.891
14985W        W81416  42.459  27.001  13.385
14986W        W81417  31.418   9.780  11.593
14987W        W81418   8.686   9.445   3.437
14988W        W81419  35.744  15.365  11.270
14989W        W81420  24.555  41.996  10.136
14990W        W81421  27.040   6.446  14.857
14991W        W81422  27.609   0.731  12.419
14992W        W81423  43.734  12.769   1.758
14993W        W81424  39.452  42.431   2.612
14994W        W81425  11.648   3.222  12.551
14995W        W81426   7.219   7.573   1.250
14996W        W81427  35.627  42.972   3.133
14997W        W81428   8.554  32.420   0.007
14998W        W81429  19.702  38.652  14.529
14999W        W81430  21.904   0.050   1.355
15000W        W81431   4.420  28.354  13.273
15001W        W81432  23.526  25.633   3.903
15002W        W81433  26.909  14.048  10.852
15003W        W81434  28.498  10.788  12.890
15004W        W81435   6.806  33.079  12.838
15005W        W81436  29.457  27.195   0.412
15006W        W81437  36.757   7.940  12.527
15007W        W81438  27.260  25.065  12.458
15008W        W81439   6.806   3.393  14.437
15009W        W81440  14.164  37.048   0.233
15010W        W81441  32.303  30.882   4.653
15011W        W81442  21.012  15.825  11.538
15012W        W81443  15.135  26.964   1.345
15013W        W81444  23.316  30.150   3.050
15014W        W81445  15.272  13.854  13.330
15015W        W81446  16.685  38.439  14.290
15016W        W81447   0.490  11.154  12.528
15017W        W81448  34.577  31.132  14.237
15018W        W81449   6.199  26.179  13.717
15019W        W81450   7.995  18.706   4.545
15020W        W81451   8.345  43.978  14.480
15021W        W81452   5.791  12.183  14.880
15022W        W81453  32.335   2.139  12.983
15023W        W81454  34.553   4.645   4.319
15024W        W81455  18.817  18.274   0.884
15025W        W81456   5.730  10.125  14.441
15026W        W81457  25.713  15.740  12.423
15027W        W81458  24.509  23.195  10.187
15028W        W81459  11.094  37.881  14.233
15029W        W81460  14.740   5.436   5.022
15030W        W81461  13.548  15.276   4.599
15031W        W81462  31.633  35.353   2.885
15032W        W81463  34.908  33.950  10.222
15033W        W81464  31.180   0.681  11.188
15034W        W81465  11.685   2.346  10.465
15035W        W81466  42.517  17.019   1.708
15036W        W81467  13.823   1.169  12.556
15037W        W81468   0.781  31.794   4.074
15038W        W81469  10.234  11.731   3.373
15039W        W81470   8.815   0.373  12.963
15040W        W81471  19.299   6.129  13.093
15041W        W81472  24.311   9.778   2.734
15042W        W81473  39.537   9.194  12.437
15043W        W81474   4.876  39.033  10.510
15044W        W81475   4.043  11.198   0.766
15045W        W81476  28.487  43.746   2.673
15046W        W81477  27.612  22.605  13.586
15047W        W81478   7.634  28.911   1.378
15048W        W81479  44.594   4.336  14.319
15049W        W81480  17.003  11.690  10.110
15050W        W81481  17.957   6.207   0.245
15051W        W81482  44.006   2.875  10.491
15052W        W81483  42.836   7.745  12.842
15053W        W81484  24.169  37.011  12.450
15054W        W81485   0.253  11.606  12.637
15055W        W81486  28.490   3.481   2.464
15056W        W81487  12.964  28.617   3.131
15057W        W81488  14.544   3.384  12.859
15058W        W81489   1.297  23.490   1.321
15059W        W81490  35.229  34.849   0.423
15060W        W81491  25.717  17.013  10.627
15061W        W81492  15.097   4.265  14.812
15062W        W81493  27.719  35.303   2.850
15063W        W81494  35.835  13.677   1.387
15064W        W81495  14.606   4.263   0.135
15065W        W81496  18.286   0.875  12.619
15066W        W81497  41.845  26.179   2.288
15067W        W81498  43.957  44.228  12.530
15068W        W81499  17.185  32.114  11.694
15069W        W81500  11.212  15.293   0.260
15070W        W81501  41.866  25.194  11.062
15071W        W81502  37.054  33.929   1.206
15072W        W81503  21.501  13.120  11.640
15073W        W81504  12.547  37.588  10.019
15074W        W81505  19.370  44.482   1.002
15075W        W81506   6.641  40.599  12.028
15076W        W81507   7.646   6.269  14.390
15077W        W81508  25.953  35.132  12.984
15078W        W81509   2.041  35.757   1.413
15079W        W81510   2.967  39.737  12.455
15080W        W81511  36.884  20.527   0.872
15081W        W81512  17.651   5.354   3.869
15082W        W81513  19.114   6.223   4.466
15083W        W81514   5.445  18.575   3.124
15084W        W81515  24.925   5.987  14.734
15085W        W81516   3.800   3.945  13.098
15086W        W81517   0.122  24.507  14.037
15087W        W81518  21.710  37.019   3.714
15088W        W81519  42.500   4.226  13.424
15089W        W81520   7.538  44.561  11.055
15090W        W81521  11.263   4.679  11.649
15091W        W81522  34.699   7.843  14.470
15092W        W81523   6.450  26.142   0.414
15093W        W81524  18.178   5.378   1.911
15094W        W81525  24.039   4.052   3.129
15095W        W81526  30.558  25.623  12.986
15096W        W81527  39.459  30.573  12.607
15097W        W81528  29.114   3.932   4.199
15098W        W81529  15.081  24.198   2.233
15099W        W81530   7.676  36.992  14.898
15100W        W81531  32.071   5.916   4.017
15101W        W81532  11.334  10.424   1.291
15102W        W81533  42.030   9.972   1.438
15103W        W81534   0.186   3.938   4.228
15104W        W81535  27.565  11.189   3.338
15105W        W81536  23.538   4.459  11.446
15106W        W81537  44.425   7.654   2.078
15107W        W81538  28.640  16.137  12.988
15108W        W81539  39.920  19.563  10.505
15109W        W81540  19.513  32.450  12.411
15110W        W81541  22.581   9.448   2.860
15111W        W81542   4.716  38.051   2.333
15112W        W81543  26.114   7.536  12.534
15113W        W81544  29.626   8.766  12.157
15114W        W81545  35.327  25.996  14.880
15115W        W81546  32.134   1.619  10.446
15116W        W81547  10.795  15.672  14.397
15117W        W81548   9.786   8.732  10.419
15118W        W81549  41.467  42.222   2.184
15119W        W81550   1.937  41.818   4.064
15120W        W81551   5.652  32.740   2.314
15121W        W81552  40.449  13.545  10.792
15122W        W81553  24.709  24.606  11.194
15123W        W81554   1.944  34.571   4.517
15124W        W81555  42.447   3.988   1.588
15125W        W81556   1.391  36.430   3.195
15126W        W81557   3.163  29.677   3.741
15127W        W81558  39.879   9.207   4.553
15128W        W81559   5.122  16.649  13.603
15129W        W81560  33.691  15.153   3.269
15130W        W81561   6.193   3.398   2.158
15131W        W81562  27.182   6.025   0.734
15132W        W81563  34.408   5.475  11.677
15133W        W81564  13.729  26.885  11.586
15134W        W81565  17.130  32.403   1.200
15135W        W81566   8.917  15.578   1.318
15136W        W81567  25.239  42.836   2.619
15137W        W81568  29.434  21.478  12.071
15138W        W81569  18.958  13.688  12.807
15139W        W81570   1.504  33.824   2.810
15140W        W81571  44.732  44.805  12.916
15141W        W81572  23.339  11.931   0.590
15142W        W81573  22.955  37.373  11.968
15143W        W81574  20.896  38.077  12.997
15144W        W81575  12.260  30.498   4.799
15145W        W81576  28.410  43.553  11.102
15146W        W81577  13.418  35.632  10.452
15147W        W81578  15.739   9.226  12.895
15148W        W81579  17.041  40.814   3.266
15149W        W81580  13.751   7.412  12.340
15150W        W81581  44.433  12.399   2.205
15151W        W81582  24.627  19.153   1.288
15152W        W81583   4.773  12.735  14.835
15153W        W81584  28.432   1.528   3.679
15154W        W81585  18.764  39.164  14.210
15155W        W81586  41.550  35.613   2.959
15156W        W81587  31.391  44.490  13.070
15157W        W81588  37.055  18.573  11.012
15158W        W81589  18.992  32.634  11.177
15159W        W81590  23.544  24.213   2.193
15160W        W81591  36.670  43.080  11.528
15161W        W81592   3.836  34.827  10.824
15162W        W81593  13.055  33.438  14.982
15163W        W81594  13.770   1.386  13.027
15164W        W81595  26.456   7.415   3.615
15165W        W81596  34.820  43.021   1.689
15166W        W81597  30.801  40.274   1.513
15167W        W81598  42.481  39.636  14.129
15168W        W81599  40.586  14.841  11.971
15169W        W81600  27.036  43.418  10.635
15170W        W81601  21.663  33.663  14.803
15171W        W81602  22.159  14.319   3.868
15172W        W81603  26.793   6.736  11.054
15173W        W81604  40.873  29.743  11.919
15174W        W81605  20.470  33.125  11.686
15175W        W81606  42.255  38.823   4.156
15176W        W81607   3.163   5.318  11.092
15177W        W81608  25.248  20.581  11.191
15178W        W81609   0.508  44.350  10.800
15179W        W81610  16.594  22.547  12.453
15180W        W81611   0.242  20.329  10.765
15181W        W81612  30.481  42.280  12.011
15182W        W81613   3.268  23.209   3.820
15183W        W81614  40.802  29.902  13.972
15184W        W81615   2.322  39.109   4.068
15185W        W81616  15.532  26.132  13.367
15186W        W81617   5.501  10.206  13.787
15187W        W81618  35.321  20.642   2.174
15188W        W81619  40.558  10.343  10.753
15189W        W81620  12.038   2.954  13.770
15190W        W81621   9.269  24.984   3.246
15191W        W81622   9.668   7.265  10.378
15192W        W81623  23.507  19.581   2.822
15193W        W81624  31.189  39.018   0.677
15194W        W81625  40.516  19.024   2.653
15195W        W81626   6.164  13.263  12.051
15196W        W81627  41.576   9.901  11.965
15197W        W81628   4.775  43.904   4.803
15198W        W81629  16.849  28.089   4.588
15199W        W81630  44.413  42.695  12.552
15200W        W81631   1.603  29.422  14.264
15201W        W81632   6.634  21.145  12.439
15202W        W81633   4.833  11.792  11.495
15203W        W81634  32.065  29.314  10.344
15204W        W81635  34.200  30.405   0.293
15205W        W81636   4.359   6.714   0.315
15206W        W81637  17.313  29.443  12.466
15207W        W81638  21.075  38.888   3.385
15208W        W81639  13.311  28.671  14.640
15209W        W81640  33.428   5.614   3.374
15210W        W81641  23.559  41.796   1.620
15211W        W81642  27.129  28.853   2.015
15212W        W81643  36.222  43.816  14.435
15213W        W81644  29.447  25.113  11.947
15214W        W81645  42.853  33.066   2.813
15215W        W81646  28.431   3.449   1.071
15216W        W81647  18.845  42.025   3.374
15217W        W81648  25.056  24.314  11.718
15218W        W81649  19.724  15.733  12.935
15219W        W81650  23.118  12.873  11.287
15220W        W81651  42.015  16.628   1.939
15221W        W81652  20.082   4.858   1.378
15222W        W81653  30.487  34.177  11.410
15223W        W81654  25.700  38.454  10.661
15224W        W81655  18.613  12.066   0.801
15225W        W81656  26.088   6.443   1.977
15226W        W81657   0.483   8.383  11.059
15227W        W81658  31.828  31.054   1.432
15228W        W81659  11.694  21.123  10.258
15229W        W81660  44.835  23.922   1.452
15230W        W81661  42.588  39.258  10.662
15231W        W81662  42.373  43.844  12.069
15232W        W81663  17.614   2.124   1.958
15233W        W81664  28.537  44.945   0.430
15234W        W81665  15.948  18.065  14.371
15235W        W81666  12.611  12.635   1.139
15236W        W81667   1.850  34.157   3.059
15237W        W81668  23.005  23.174   0.568
15238W        W81669   0.364   8.498   4.493
15239W        W81670   8.319  33.891  10.649
15240W        W81671  33.001  16.071  11.969
15241W        W81672  36.893  42.279  13.629
15242W        W81673  43.327  24.542  12.890
15243W        W81674   0.451  21.741  11.947
15244W        W81675  29.422  23.066  14.904
15245W        W81676  31.864  10.169  11.126
15246W        W81677  12.506  42.437   3.364
15247W        W81678  26.260  26.489   4.282
15248W        W81679  41.293  44.308  14.285
15249W        W81680  38.058  12.591  14.981
15250W        W81681  37.145   8.126   1.060
15251W        W81682  40.006   2.476   1.348
15252W        W81683  24.755   8.697   0.900
15253W        W81684  10.062  23.742   2.276
15254W        W81685  42.350  33.440  10.763
15255W        W81686  42.744  23.500  14.950
15256W        W81687  38.544   6.384   2.705
15257W        W81688  12.687  17.023  12.419
15258W        W81689  34.143   3.263   1.957
15259W        W81690  27.195   3.630  11.099
15260W        W81691  10.223  35.345   0.748
15261W        W81692   8.388  31.870  14.323
15262W        W81693  17.005   6.612   0.754
15263W        W81694  30.565  30.159  13.689
15264W        W81695  31.416  27.415  12.068
15265W        W81696  34.799  26.528  12.960
15266W        W81697   5.426   9.873   0.825
15267W        W81698  33.607   4.749   1.297
15268W        W81699   2.153  11.238   0.344
15269W        W81700  41.913  13.813   4.569
15270W        W81701  36.515  24.673  14.928
15271W        W81702  23.837   4.713  14.860
15272W        W81703  15.749  12.059   2.275
15273W        W81704   0.007  32.077  12.037
15274W        W81705  14.054   2.219  14.515
15275W        W81706  19.781   9.122  13.064
15276W        W81707   1.892  34.516  13.521
15277W        W81708   7.733  35.452  11.646
15278W        W81709  26.113  12.569  12.532
15279W        W81710   0.687   4.541  11.162
15280W        W81711  20.993  37.802  10.272
15281W        W81712  40.846  12.956   3.708
15282W        W81713  43.780   0.914   1.806
15283W        W81714   9.063  35.906  14.746
15284W        W81715  41.585   3.914  13.952
15285W        W81716  23.638  28.760   1.232
15286W        W81717  23.863  21.501  11.139
15287W        W81718   3.981   3.734  11.245
15288W        W81719  39.135  38.310   5.371
15289W        W81720  43.377  21.307  14.067
15290W        W81721  35.526   4.200   3.197
15291W        W81722  22.494  14.087   3.098
15292W        W81723   6.970  28.676   0.841
15293W        W81724  43.280  34.462  14.378
15294W        W81725  39.908  40.468  13.372
15295W        W81726  19.608  13.720   0.859
15296W        W81727  30.166   4.425   3.615
15297W        W81728  15.579   1.738  11.985
15298W        W81729  33.113  27.626  11.763
15299W        W81730  11.929  16.822   4.198
15300W        W81731  10.914   2.330  12.949
15301W        W81732  38.249   1.873   4.785
15302W        W81733   7.716  24.017   4.625
15303W        W81734  24.162  31.151   0.416
15304W        W81735  24.800  38.347   5.000
15305W        W81736  10.890  17.576  14.363
15306W        W81737  30.852  12.568   0.271
15307W        W81738  19.084   5.446   1.418
15308W        W81739  43.760  20.043  12.552
15309W        W81740  43.261   5.721  13.379
15310W        W81741  29.382  24.084   1.432
15311W        W81742  25.285   8.842   5.073
15312W        W81743  15.622   7.430  10.033
15313W        W81744  33.051  28.589  11.434
15314W        W81745   0.517  17.840  14.452
15315W        W81746  20.500  19.226   3.330
15316W        W81747  33.946  11.843  14.023
15317W        W81748  10.089  43.834   2.876
15318W        W81749  32.075  36.353   0.810
15319W        W81750  23.825  10.552  13.997
15320W        W81751   7.488  23.744  14.551
15321W        W81752  38.541   4.754   1.679
15322W        W81753   8.664  32.862  12.940
15323W        W81754   8.944  14.130   0.788
15324W        W81755  27.446  37.464  14.535
15325W        W81756   6.693   7.141   4.760
15326W        W81757  23.521  17.750  14.625
15327W        W81758  23.724  28.147   5.473
15328W        W81759  19.336  25.832   4.106
15329W        W81760  41.928  11.815   3.667
15330W        W81761  43.994  20.776   4.180
15331W        W81762  15.088  33.289   3.172
15332W        W81763  10.134  25.249   2.567
15333W        W81764  18.480  39.617   9.740
15334W        W81765  14.637  12.878  13.979
15335W        W81766  28.707  16.052  14.993
15336W        W81767  30.320  29.542  14.422
15337W        W81768  11.309   8.150   2.316
15338W        W81769  20.616   8.332  12.976
15339W        W81770  37.605  41.289   0.038
15340W        W81771  41.718  24.516   2.751
15341W        W81772  12.512  25.027   4.991
15342W        W81773  12.505   1.710   2.143
15343W        W81774   6.228  40.970   1.990
15344W        W81775  26.738   5.381  11.672
15345W        W81776  28.691  40.062  14.094
15346W        W81777  38.107  29.777   5.349
15347W        W81778  44.308  39.228  14.863
15348W        W81779   8.884   5.316  10.518
15349W        W81780  23.915  44.327  11.527
15350W        W81781   4.196  27.133  11.028
15351W        W81782  31.862   8.268   1.014
15352W        W81783   3.754  36.987  13.146
15353W        W81784  41.884  13.035  11.048
15354W        W81785  19.476  36.702  12.841
15355W        W81786   2.772  30.038  13.163
15356W        W81787  35.398  23.113  11.199
15357W        W81788  28.721  34.203  14.318
15358W        W81789  39.776   5.331   4.028
15359W        W81790  36.566  32.054   0.186
15360W        W81791  27.070  30.671  12.877
15361W        W81792  43.489  36.180  14.604
15362W        W81793  32.899  20.750   0.314
15363W        W81794  34.860  26.778   1.234
15364W        W81795  34.276  17.296  14.523
15365W        W81796   4.292  34.983   0.413
15366W        W81797  15.674  30.108  12.650
15367W        W81798  39.538  12.780   4.953
15368W        W81799  27.388   2.290   2.682
15369W        W81800  20.769  12.425   1.427
15370W        W81801  25.494  24.050   3.003
15371W        W81802  18.362  44.914  13.607
15372W        W81803  44.440  10.336   4.675
15373W        W81804   9.699  19.606   2.765
15374W        W81805   7.248  36.749  11.667
15375W        W81806  19.315  33.356  14.721
15376W        W81807  30.347  22.204   2.592
15377W        W81808   5.557  36.001  11.721
15378W        W81809  10.973  34.311  14.011
15379W        W81810  23.998  36.111   1.896
15380W        W81811  39.017  44.481  13.098
15381W        W81812  21.237  13.143   3.153
15382W        W81813  18.543  23.008  12.851
15383W        W81814  43.436  33.049   2.224
15384W        W81815   8.476  22.962  14.945
15385W        W81816   5.573  37.032   4.565
15386W        W81817  14.051  16.465  13.792
15387W        W81818  22.461   1.972   2.267
15388W        W81819  22.596  33.745  10.229
15389W        W81820   4.429  22.062  10.694
15390W        W81821  38.404  44.093  12.862
15391W        W81822  20.756   6.692  12.183
15392W        W81823  37.756  31.307   2.728
15393W        W81824  20.517  32.632  11.017
15394W        W81825   3.188  36.392  11.553
15395W        W81826   5.433  21.656   0.720
15396W        W81827  24.231  14.822  12.037
15397W        W81828  39.957  10.624  11.638
15398W        W81829  35.948  23.169  12.488
15399W        W81830  19.910   4.835  13.119
15400W        W81831  20.923  27.373   0.755
15401W        W81832  21.059  28.303  11.968
15402W        W81833  39.615  28.826  13.479
15403W        W81834  23.154  10.803  13.066
15404W        W81835  29.531  29.899  14.674
15405W        W81836   7.935   3.895   2.218
15406W        W81837  14.156  41.496  13.618
15407W        W81838   5.326  38.670  14.053
15408W        W81839  16.667  18.104  11.636
15409W        W81840  43.909  23.334  13.191
15410W        W81841   7.601  25.419  13.954
15411W        W81842  39.686  39.959  10.754
15412W        W81843  15.049  42.848  12.202
15413W        W81844  10.203   9.125   3.802
15414W        W81845   6.537  42.290  11.511
15415W        W81846  16.243  24.961  13.837
15416W        W81847  25.565   5.977   1.325
15417W        W81848   4.731  27.891  11.919
15418W        W81849  12.229   0.383   2.216
15419W        W81850  39.031  16.167   3.996
15420W        W81851  12.040  36.389  12.482
15421W        W81852   4.171  41.987   3.795
15422W        W81853  10.709  27.033   3.153
15423W        W81854   3.080  29.963   4.206
15424W        W81855  10.982  23.636  11.147
15425W        W81856  24.715  11.394  10.783
15426W        W81857  29.392  20.373  11.184
15427W        W81858   1.978   3.104  11.580
15428W        W81859  44.204  15.760  10.127
15429W        W81860  19.036   0.538   3.469
15430W        W81861  40.447  37.376   0.909
15431W        W81862  42.766  37.785  11.669
15432W        W81863  29.461  31.175   2.788
15433W        W81864   2.884   8.411  12.063
15434W        W81865   1.848   8.650   2.697
15435W        W81866  33.544  26.459  12.943
15436W        W81867  31.364  19.873  14.413
15437W        W81868  10.495  31.114  12.414
15438W        W81869  26.068  12.549   0.734
15439W        W81870  38.749  35.536   4.112
15440W        W81871  42.838  35.975   1.409
15441W        W81872  35.994  19.197   0.195
15442W        W81873  26.787  32.462   2.480
15443W        W81874   6.268   4.180  10.487
15444W        W81875  23.756  41.016  11.171
15445W        W81876  38.032  23.547   3.749
15446W        W81877   5.437  23.001   0.216
15447W        W81878  12.427  38.849   1.879
15448W        W81879  35.460  23.418  13.334
15449W        W81880   2.264  40.134  13.555
15450W        W81881  41.808  26.163  14.603
15451W        W81882  26.625  19.280  14.568
15452W        W81883  35.448  44.182  12.101
15453W        W81884  40.849  38.613   0.902
15454W        W81885  32.828  40.822  14.002
15455W        W81886  35.037  13.851   4.708
15456W        W81887  12.337  37.045   1.604
15457W        W81888  42.296  34.120   1.818
15458W        W81889  21.558  20.996  14.258
15459W        W81890  14.740   8.160   4.577
15460W        W81891   9.752   4.280   4.471
15461W        W81892  43.516   3.423  11.556
15462W        W81893  34.420   3.977   1.893
15463W        W81894  26.975  19.200   0.525
15464W        W81895  41.624  11.313  10.856
15465W        W81896  31.107  14.251  14.349
15466W        W81897  44.738  24.990  12.529
15467W        W81898  44.503  34.978   4.579
15468W        W81899   0.465  41.909   1.258
15469W        W81900   4.455  41.308  10.714
15470W        W81901   7.767   3.810   1.166
15471W        W81902  12.819  31.935   4.281
15472W        W81903  10.258   9.725   2.316
15473W        W81904  14.168  37.547  10.882
15474W        W81905  26.570   7.162   4.582
15475W        W81906   4.375   5.504  12.547
15476W        W81907  30.985  14.375   4.593
15477W        W81908  16.829  38.321   0.234
15478W        W81909  29.460   2.823   0.422
15479W        W81910  30.648  25.790   0.898
15480W        W81911  41.433   6.648   0.938
15481W        W81912  18.671  44.697   1.264
15482W        W81913  26.360   9.430  13.763
15483W        W81914  23.432  15.218   2.608
15484W        W81915  28.966  17.308  12.436
15485W        W81916  22.695   0.325   0.471
15486W        W81917  40.560  18.023  10.611
15487W        W81918  11.125  11.531   2.045
15488W        W81919   0.484  36.468  14.030
15489W        W81920   0.272  12.659  12.095
15490W        W81921  21.904  14.364   1.962
15491W        W81922   3.314  36.543   4.078
15492W        W81923   4.723   8.442  11.675
15493W        W81924  27.187  14.430  14.855
15494W        W81925  22.951  42.707   3.696
15495W        W81926  39.038  21.642  12.650
15496W        W81927  12.242  15.091   1.826
15497W        W81928  39.519  25.950   2.770
15498W        W81929  29.383   6.107  11.957
15499W        W81930  26.542  42.887   4.093
15500W        W81931  38.121  21.684   0.502
15501W        W81932   4.199  15.000   3.995
15502W        W81933  34.165  20.522   3.930
15503W        W81934   0.424  11.635  14.785
15504W        W81935  40.417  19.937  13.126
15505W        W81936   2.243  17.329  12.976
15506W        W81937   5.134  33.390  14.235
15507W        W81938  40.386  24.740   1.802
15508W        W81939  42.569  42.752   3.200
15509W        W81940  37.648  24.276  11.661
15510W        W81941  12.166  29.397  14.937
15511W        W81942  13.393  19.194   2.318
15512W        W81943  27.995   7.776  10.499
15513W        W81944   0.875  37.171  12.380
15514W        W81945   9.940  31.653   1.891
15515W        W81946  39.951  39.363   0.354
15516W        W81947   2.716  29.657   2.362
15517W        W81948  28.810  26.470  13.406
15518W        W81949  42.999  14.358   1.286
15519W        W81950  11.003  42.502   4.353
15520W        W81951  37.945  28.998   3.309
15521W        W81952   4.785   1.359  14.831
15522W        W81953  23.562  27.316  12.601
15523W        W81954  39.042  16.230  12.745
15524W        W81955   0.808   6.214  10.446
15525W        W81956   6.972  10.121  10.926
15526W        W81957   2.647  13.305   2.396
15527W        W81958  24.969  38.181  10.962
15528W        W81959   3.977  26.755   1.375
15529W        W81960  13.213  33.597   3.688
15530W        W81961   8.769   0.607   0.793
15531W        W81962  22.435  21.024   0.172
15532W        W81963  22.038   6.851  13.834
15533W        W81964  38.117   0.520   4.475
15534W        W81965  42.835   1.931  10.863
15535W        W81966   1.988  20.151  11.104
15536W        W81967  23.125   4.753   3.583
15537W        W81968  16.956  18.355  14.452
15538W        W81969  21.785   8.150  11.556
15539W        W81970   1.859  34.945   0.338
15540W        W81971  29.686   3.348   0.744
15541W        W81972  14.108   5.438   4.658
15542W        W81973  24.028   4.787  13.815
15543W        W81974  44.863  44.229   4.291
15544W        W81975   2.361  12.712  11.523
15545W        W81976  18.491  13.814  12.988
15546W        W81977  22.540  17.650  14.520
15547W        W81978   3.114  40.964   1.419
15548W        W81979  16.166  32.560   2.704
15549W        W81980  34.957  16.116  10.705
15550W        W81981  37.603   9.142  12.424
15551W        W81982  12.580  26.525   3.631
15552W        W81983  28.970  23.137  14.669
15553W        W81984  36.359  26.030  12.502
15554W        W81985  17.137  44.746  13.534
15555W        W81986  34.844  29.553  12.099
15556W        W81987  29.115  29.384  11.183
15557W        W81988  39.008  19.501  11.583
15558W        W81989   1.140   3.103  13.452
15559W        W81990  44.924  28.462   1.011
15560W        W81991  43.761  26.031  13.848
15561W        W81992  39.062   0.205  11.951
15562W        W81993  20.571  16.086  11.626
15563W        W81994  29.101   5.679  11.586
15564W        W81995   1.890  13.595   4.162
15565W        W81996  25.868  24.241   0.063
15566W        W81997  42.254  25.840   4.081
15567W        W81998  16.506  12.679  11.500
15568W        W81999  22.748   2.762   0.753
15569W        W82000   0.812   4.826   0.750
15570W        W82001  36.766  22.299   0.986
15571W        W82002   1.301  14.052   3.854
15572W        W82003  25.669   6.249   0.881
15573W        W82004  41.002  22.671   1.217
15574W        W82005  24.593   6.742  13.952
15575W        W82006  28.926  36.541  11.642
15576W        W82007  23.116   8.227   1.401
15577W        W82008  22.739  23.525  10.105
15578W        W82009  42.767  17.219   3.256
15579W        W82010   2.995   9.257  14.476
15580W        W82011  32.619  24.988   2.162
15581W        W82012  15.849  16.610  12.639
15582W        W82013   6.156   1.107  10.796
15583W        W82014  12.615  34.476  12.554
15584W        W82015  21.506  10.247  12.595
15585W        W82016  14.746  26.451   0.829
15586W        W82017  21.281   4.961   1.939
15587W        W82018  31.416   0.205  12.990
15588W        W82019  31.054   8.342  13.231
15589W        W82020   6.901   8.340   3.290
15590W        W82021  22.545   5.426  12.186
15591W        W82022  15.674  21.942   4.143
15592W        W82023   2.425   9.373  13.576
15593W        W82024  15.267  42.382  13.979
15594W        W82025  44.881  12.480   1.910
15595W        W82026   5.808  20.879  13.439
15596W        W82027  11.620  12.301   4.542
15597W        W82028  28.287  44.684   4.098
15598W        W82029   3.889  27.478  11.798
15599W        W82030  40.769  34.622  12.050
15600W        W82031  39.874   7.389   0.396
15601W        W82032  35.558  41.191  12.188
15602W        W82033  27.038   9.813   4.088
15603W        W82034  28.978  35.875   1.373
15604W        W82035  36.496   4.851  13.673
15605W        W82036  39.885  20.066   3.312
15606W        W82037  11.146   9.871   2.697
15607W        W82038  33.983  14.276  13.036
15608W        W82039   8.739  28.656   2.846
15609W        W82040  13.510  12.283  13.798
15610W        W82041  39.686  41.893  14.380
15611W        W82042  16.818  19.146  12.219
15612W        W82043  41.294  24.694   0.505
15613W        W82044   8.079  31.589   3.963
15614W        W82045  37.532  22.744  12.807
15615W        W82046  13.569  39.981   1.284
15616W        W82047  33.970  11.646   2.878
15617W        W82048  43.370  28.671  10.646
15618W        W82049   9.701  25.560   2.582
15619W        W82050  26.007  12.439  14.854
15620W        W82051   8.595  43.493   0.237
15621W        W82052  43.768   1.865   1.908
15622W        W82053  24.438  31.454  13.444
15623W        W82054  27.995  38.415  10.477
15624W        W82055  17.771   7.192   4.236
15625W        W82056  27.514  26.549   2.405
15626W        W82057   0.059  41.303   1.907
15627W        W82058  34.384   0.111  11.142
15628W        W82059  15.512  28.101  12.827
15629W        W82060   4.272   7.818  13.424
15630W        W82061  16.796   5.628   4.900
15631W        W82062  19.282  37.023   1.229
15632W        W82063   8.344  13.307   0.417
15633W        W82064   6.365  39.146   2.773
15634W        W82065  27.952  29.484   1.139
15635W        W82066  41.321   1.441   0.773
15636W        W82067  14.599  44.212   2.762
15637W        W82068   2.742  32.101   0.803
15638W        W82069  30.668  42.293   3.274
15639W        W82070  21.449  17.759   1.707
15640W        W82071  10.699  26.749   1.748
15641W        W82072  41.331  34.078   2.672
15642W        W82073  15.720  18.773  14.546
15643W        W82074  28.886  34.591  10.688
15644W        W82075  37.589  10.345  12.102
15645W        W82076  25.000  39.423  12.435
15646W        W82077  40.426   9.374   2.646
15647W        W82078  34.181  28.204  13.936
15648W        W82079  42.164  42.818  14.803
15649W        W82080  21.143   3.588  13.101
15650W        W82081  44.153  30.613   2.783
15651W        W82082  36.547   0.445   2.319
15652W        W82083  24.726  29.143   2.101
15653W        W82084  42.206  38.640   3.287
15654W        W82085  15.154  36.081  10.683
15655W        W82086  25.610  27.189   4.724
15656W        W82087  25.836  18.904   5.522
15657W        W82088  18.547  29.652   4.193
15658W        W82089   6.033  17.820  11.979
15659W        W82090   7.641  25.528   4.249
15660W        W82091  41.174  39.582  10.692
15661W        W82092  24.130  28.947   9.775
15662W        W82093  26.592  11.172  11.138
15663W        W82094  32.674  36.869   0.035
15664W        W82095  39.835  32.477   3.639
15665W        W82096  13.294  33.346  10.705
15666W        W82097   7.326  33.383  10.452
15667W        W82098  26.243  16.795  14.873
15668W        W82099   3.767  26.192  13.772
15669W        W82100  19.478  36.110  10.808
15670W        W82101  35.964   7.073  10.699
15671W        W82102  16.802  23.361  11.204
15672W        W82103  43.469  40.983   2.851
15673W        W82104  41.456   8.692   1.897
15674W        W82105  11.642  18.206  13.363
15675W        W82106  19.874  41.422  13.359
15676W        W82107  22.061  44.728   1.942
15677W        W82108  13.690  30.639   1.235
15678W        W82109  14.290  37.970   0.755
15679W        W82110  32.041   5.735   1.686
15680W        W82111  24.226  27.236   2.824
15681W        W82112  31.353  43.858  11.122
15682W        W82113  33.038   3.511  13.706
15683W        W82114   6.876  22.792  14.210
15684W        W82115  29.158   0.504  12.536
15685W        W82116  25.807  44.522  12.843
15686W        W82117  10.378  26.624  11.848
15687W        W82118  38.584  19.131  13.981
15688W        W82119  36.156  13.178  11.861
15689W        W82120   0.849  20.911  12.382
15690W        W82121  19.690  40.422   2.299
15691W        W82122   6.145   2.718   3.119
15692W        W82123  11.142  32.736   0.461
15693W        W82124   4.709   7.375  13.901
15694W        W82125   6.738  16.580   1.424
15695W        W82126   8.670  27.628   0.760
15696W        W82127   9.900  20.558   1.674
15697W        W82128  40.492  43.550   2.675
15698W        W82129  28.859  44.339  10.829
15699W        W82130  38.530  25.177   0.478
15700W        W82131  15.076  44.558   2.510
15701W        W82132  10.205  32.349   2.441
15702W        W82133  15.947  10.268   4.396
15703W        W82134  10.089  43.962  10.642
15704W        W82135  34.535  22.212  12.082
15705W        W82136  12.570   9.930  13.955
15706W        W82137  23.084  28.983  13.281
15707W        W82138  26.634   4.705  12.845
15708W        W82139   8.734  40.393  14.270
15709W        W82140  18.352   5.171   9.848
15710W        W82141  40.459  17.730   2.337
15711W        W82142  32.245  39.403   2.913
15712W        W82143   9.596  21.731   1.221
15713W        W82144  36.262  30.478   0.905
15714W        W82145  15.577  23.309   2.000
15715W        W82146  27.740  28.094   2.682
15716W        W82147  31.131   7.399  13.440
15717W        W82148   6.281  30.458   2.149
15718W        W82149  20.483  26.494   3.743
15719W        W82150   6.451   2.800   0.310
15720W        W82151  42.974  11.135  10.618
15721W        W82152  17.405  41.983  11.119
15722W        W82153  28.360  42.923   2.268
15723W        W82154  14.546  27.686  12.219
15724W        W82155  36.032  22.702   1.958
15725W        W82156  30.872  20.125   1.193
15726W        W82157  10.404  18.308   9.843
15727W        W82158  17.512   5.193   2.397
15728W        W82159   4.273  11.885   3.634
15729W        W82160  41.505   1.443   1.728
15730W        W82161  16.273  14.657  13.811
15731W        W82162  17.717  20.600   0.296
15732W        W82163   3.544   5.681  14.964
15733W        W82164   2.368  14.248   2.858
15734W        W82165   4.445  28.297   3.704
15735W        W82166  42.993   3.634  13.950
15736W        W82167  35.352  14.432  13.568
15737W        W82168  41.827   1.878  10.744
15738W        W82169  14.859  10.530  10.457
15739W        W82170  35.431   0.837   0.490
15740W        W82171  14.133  15.704  14.908
15741W        W82172  11.796   8.429   4.020
15742W        W82173  23.570   9.838  12.424
15743W        W82174  15.662  37.098   2.574
15744W        W82175   0.035   8.130  11.167
15745W        W82176  19.702  35.851   3.143
15746W        W82177  34.044  30.068   4.811
15747W        W82178   2.874  10.127  14.613
15748W        W82179  33.953  14.131   3.432
15749W        W82180  22.148   1.073  13.825
15750W        W82181  32.955   3.318   0.264
15751W        W82182  16.127   8.802  13.709
15752W        W82183  41.975  14.348  10.063
15753W        W82184  35.124   2.979   2.255
15754W        W82185  16.182  33.907   3.413
15755W        W82186  21.719  41.545  10.096
15756W        W82187  38.217  38.380  13.088
15757W        W82188  23.145   6.303  10.709
15758W        W82189  41.491  44.964   4.019
15759W        W82190   5.485  32.386   2.650
15760W        W82191  23.774  39.038   0.869
15761W        W82192  42.441  27.815  13.033
15762W        W82193   2.232  29.127  11.697
15763W        W82194  33.916  10.819   1.663
15764W        W82195  26.390   2.238   5.005
15765W        W82196  23.442  31.440  12.533
15766W        W82197  10.517  43.356   4.065
15767W        W82198  10.439  23.476   2.082
15768W        W82199  27.754  14.689   2.944
15769W        W82200  44.778  34.180   0.361
15770W        W82201  38.493   0.386  10.066
15771W        W82202   6.301  39.908  12.457
15772W        W82203  12.732   9.278  14.224
15773W        W82204  39.674  41.976   2.766
15774W        W82205  24.125  34.955   4.274
15775W        W82206  33.463   4.770  12.495
15776W        W82207  20.788  23.084  13.302
15777W        W82208   9.122  22.781  14.066
15778W        W82209  28.170  29.335  12.433
15779W        W82210   7.588  15.552  14.915
15780W        W82211  17.515  23.219  14.441
15781W        W82212  14.372  26.409  13.323
15782W        W82213  21.618   9.962   1.333
15783W        W82214  18.243  37.452  13.605
15784W        W82215  42.399  25.029   0.276
15785W        W82216  24.512  31.451  11.229
15786W        W82217  16.509  27.049  14.726
15787W        W82218  29.871  43.457  13.032
15788W        W82219  14.762  44.988   1.727
15789W        W82220   2.639   5.249  12.370
15790W        W82221  16.686  32.554   1.455
15791W        W82222  19.606   2.585   4.230
15792W        W82223  42.412  39.581   1.313
15793W        W82224  31.474  34.461   1.385
15794W        W82225  15.740  16.324  10.721
15795W        W82226  16.191  34.083   0.263
15796W        W82227   2.797  10.861   2.819
15797W        W82228   6.631  36.818   4.194
15798W        W82229  40.862  21.025   1.448
15799W        W82230  10.485  16.825   2.805
15800W        W82231  24.761  29.146   3.537
15801W        W82232   3.432  29.033  13.754
15802W        W82233  13.084  18.232  13.551
15803W        W82234  28.491  43.470  11.957
15804W        W82235  33.791   6.152  13.466
15805W        W82236  28.173   8.313   1.219
15806W        W82237  32.131   2.349  12.049
15807W        W82238   5.200  39.583  12.944
15808W        W82239  22.066  42.321  14.290
15809W        W82240  11.360   6.646   3.939
15810W        W82241  43.214  11.525   1.249
15811W        W82242   8.390   6.642  12.692
15812W        W82243  44.772   2.169   4.321
15813W        W82244  37.632  44.767  14.769
15814W        W82245  35.017  25.930   0.324
15815W        W82246  28.154  32.701   0.811
15816W        W82247  10.063  17.663   0.363
15817W        W82248  38.083  20.175  13.169
15818W        W82249  37.220   4.441  13.475
15819W        W82250  34.563   3.394   4.123
15820W        W82251  34.615   8.908  11.888
15821W        W82252  40.343  12.721   0.808
15822W        W82253  13.823   7.894   1.288
15823W        W82254  13.121   9.245   3.898
15824W        W82255   2.726  30.141   1.020
15825W        W82256   8.447   8.911   0.018
15826W        W82257  24.587  25.561   2.347
15827W        W82258  39.285  14.786   3.228
15828W        W82259  17.598  29.952  13.108
15829W        W82260  26.060   9.288  12.801
15830W        W82261  32.567  11.727   3.240
15831W        W82262   7.993   5.327   4.103
15832W        W82263  44.641  12.672  14.374
15833W        W82264  43.293  16.180   2.408
15834W        W82265   6.671  35.467   0.528
15835W        W82266  15.690  44.500  14.286
15836W        W82267   6.899  33.441  11.552
15837W        W82268  40.024  18.953  12.323
15838W        W82269  28.811   9.354   5.004
15839W        W82270  44.525  11.282  10.328
15840W        W82271  16.675  29.478  11.968
15841W        W82272  12.875   3.895   0.296
15842W        W82273  25.577  34.868  10.704
15843W        W82274  32.580  11.838   2.272
15844W        W82275  41.992  38.119  13.610
15845W        W82276   1.551  29.423  11.156
15846W        W82277   4.188   1.740  13.435
15847W        W82278  17.372  19.772   0.854
15848W        W82279   8.215  24.446  12.497
15849W        W82280  42.390  38.072  11.903
15850W        W82281  41.422  38.183  11.483
15851W        W82282  37.848  15.681  14.322
15852W        W82283  38.800  22.190  14.506
15853W        W82284  44.134   1.476  12.029
15854W        W82285  27.250  39.214  14.976
15855W        W82286   9.918   0.860   4.445
15856W        W82287   6.422  11.501   3.355
15857W        W82288  40.799  29.229   1.749
15858W        W82289  29.590   5.639  13.812
15859W        W82290  25.007   6.447  13.852
15860W        W82291  41.284  27.617  12.078
15861W        W82292   6.650  18.530   4.960
15862W        W82293  27.601  21.102  12.795
15863W        W82294  39.998   6.390   0.520
15864W        W82295   7.678  15.592   2.548
15865W        W82296   5.428  30.016  10.889
15866W        W82297  44.677  22.960   3.721
15867W        W82298  39.334   1.970  14.241
15868W        W82299  13.300   1.392  12.814
15869W        W82300  14.885  18.683  11.146
15870W        W82301  29.162  12.559  13.387
15871W        W82302  31.833  17.386  11.219
15872W        W82303  43.430  38.934  10.700
15873W        W82304   0.843  44.054   1.686
15874W        W82305   9.754  26.651   1.281
15875W        W82306  36.420   5.783  13.724
15876W        W82307  12.918  39.978   3.959
15877W        W82308  26.182  40.062   2.254
15878W        W82309   7.269  21.175  12.022
15879W        W82310  24.403   0.595   1.390
15880W        W82311  23.182  43.898   1.445
15881W        W82312   0.565  41.348   1.868
15882W        W82313  42.369  12.886  10.563
15883W        W82314   5.644  15.194   3.319
15884W        W82315  41.234  32.364   0.503
15885W        W82316  34.399  15.285   0.258
15886W        W82317  28.729  20.072  13.992
15887W        W82318  18.287  16.391   4.955
15888W        W82319  39.549  20.233   0.361
15889W        W82320  42.517  16.732  14.605
15890W        W82321  42.992   2.843   2.278
15891W        W82322  41.788  13.173   0.798
15892W        W82323  30.851   8.715  12.553
15893W        W82324   6.820  15.613   0.901
15894W        W82325  19.126  37.061   3.306
15895W        W82326  42.749   4.744  12.014
15896W        W82327  13.126  11.060  11.217
15897W        W82328  19.078  19.689   4.134
15898W        W82329  28.083  31.615   1.716
15899W        W82330  35.814  20.583  12.054
15900W        W82331  18.535   0.782  14.477
15901W        W82332  40.667  19.216   2.189
15902W        W82333  11.824  12.577  14.473
15903W        W82334  43.059  23.148   3.605
15904W        W82335  16.102  14.893   0.442
15905W        W82336  24.019  38.952   3.578
15906W        W82337  11.217  29.587  10.711
15907W        W82338  11.049   3.361   4.561
15908W        W82339  27.664  32.093   3.583
15909W        W82340  10.759  35.940  12.190
15910W        W82341  26.967  18.185   2.964
15911W        W82342  13.928   2.811  11.014
15912W        W82343  17.283  12.767   2.839
15913W        W82344  19.785  15.829  10.789
15914W        W82345  21.491  18.681   5.144
15915W        W82346  19.501  43.844   0.929
15916W        W82347  21.830  27.642   3.221
15917W        W82348   4.882   9.455  11.734
15918W        W82349   6.292   7.725  13.276
15919W        W82350   4.775  16.616  13.200
15920W        W82351  19.756  19.651   1.949
15921W        W82352   4.464   2.559   1.803
15922W        W82353  18.593  16.290   4.548
15923W        W82354   2.409  43.111  11.458
15924W        W82355  16.592  14.923   3.534
15925W        W82356  14.543  35.319   3.254
15926W        W82357  38.603   8.769   4.940
15927W        W82358  29.110  25.565  13.402
15928W        W82359  30.102  20.301  14.706
15929W        W82360  13.764  15.171   1.862
15930W        W82361   8.385   9.365   0.268
15931W        W82362   6.457  15.564   3.751
15932W        W82363  40.219  18.671   4.642
15933W        W82364  10.418  36.336   0.851
15934W        W82365  24.946  17.058  12.940
15935W        W82366  27.311  40.683   2.338
15936W        W82367  21.852  25.532   2.672
15937W        W82368  30.400  31.614   3.525
15938W        W82369  34.537  20.198   0.189
15939W        W82370  38.646  11.780   4.538
15940W        W82371   9.055   2.369  12.366
15941W        W82372  15.805  34.848  10.670
15942W        W82373  12.782  28.627   3.668
15943W        W82374  23.944  13.446   2.841
15944W        W82375   4.730  37.843  11.013
15945W        W82376  27.363  28.913  10.198
15946W        W82377  28.463   0.384  14.273
15947W        W82378   2.367   1.455  11.073
15948W        W82379  44.509  10.196   1.169
15949W        W82380  37.020  25.499   4.497
15950W        W82381   7.632  16.218  12.519
15951W        W82382  30.601  42.527  12.500
15952W        W82383   2.390  40.257  14.433
15953W        W82384  36.609  34.436   2.287
15954W        W82385   8.829  10.587  14.402
15955W        W82386  37.794  30.334  12.517
15956W        W82387   2.769   0.014   3.599
15957W        W82388   8.786  19.832  13.265
15958W        W82389  14.977  12.791   2.234
15959W        W82390   0.525  10.797   1.640
15960W        W82391  32.992  18.626   1.109
15961W        W82392   9.687  26.850   4.199
15962W        W82393  13.615  14.777  11.132
15963W        W82394  34.545   8.316  12.676
15964W        W82395  26.153   4.930   0.999
15965W        W82396  16.526  14.580  14.743
15966W        W82397   0.644  13.626   4.078
15967W        W82398  38.930   0.357   1.804
15968W        W82399  18.473   4.032   4.038
15969W        W82400   4.353  21.492  11.585
15970W        W82401   3.920  16.334  12.441
15971W        W82402  22.075   2.819   1.284
15972W        W82403  34.048  19.533   1.629
15973W        W82404   2.303   1.041  14.555
15974W        W82405  43.867  26.268   1.831
15975W        W82406  12.338   7.340  11.623
15976W        W82407  16.727  38.351   1.174
15977W        W82408  29.792  26.686   1.439
15978W        W82409   5.720  16.718   2.170
15979W        W82410  39.479  36.037   0.236
15980W        W82411  33.480  30.455   0.170
15981W        W82412  35.727   0.022   3.087
15982W        W82413  21.982   7.805   1.799
15983W        W82414  28.326  30.237   1.775
15984W        W82415  43.338  42.700   2.147
15985W        W82416  31.942  18.029  14.861
15986W        W82417  36.144  39.923   3.310
15987W        W82418  24.486  32.496   5.035
15988W        W82419  30.960  13.319  10.771
15989W        W82420  28.402   2.767   1.922
15990W        W82421   4.794  36.995  10.761
15991W        W82422  44.705  22.502   4.826
15992W        W82423   4.495  25.699  11.521
15993W        W82424  36.971  31.765  12.964
15994W        W82425  13.591  23.621   2.784
15995W        W82426  28.612  23.170  12.423
15996W        W82427  25.348  27.107  11.429
15997W        W82428  20.354  33.343   3.779
15998W        W82429  15.022  35.030  13.966
15999W        W82430  32.932  22.120  10.755
16000W        W82431  12.935   2.995   3.219
16001W        W82432  15.142  22.622   1.192
16002W        W82433  36.314  35.988  14.682
16003W        W82434  22.220  11.673  11.475
16004W        W82435   1.790  30.245   4.588
16005W        W82436   9.805   8.787  12.816
16006W        W82437  27.658   0.318   2.646
16007W        W82438  16.223  44.312  10.614
16008W        W82439  23.712   4.590   3.076
16009W        W82440  27.529  37.963  12.104
16010W        W82441  24.093   5.663   3.920
16011W        W82442  35.010  42.280  11.685
16012W        W82443  33.623  14.382   3.926
16013W        W82444  39.321  43.836  11.227
16014W        W82445  39.511  37.338  14.957
16015W        W82446  41.621  38.884  12.068
16016W        W82447  29.962  10.833  13.059
16017W        W82448   1.805  41.441  10.712
16018W        W82449  42.339   8.767   0.312
16019W        W82450  24.684  27.437   3.704
16020W        W82451   6.816  26.024   1.734
16021W        W82452  28.953  23.681   0.374
16022W        W82453  31.142  21.471   1.128
16023W        W82454  21.041  23.154  11.750
16024W        W82455  43.013  21.010   3.360
16025W        W82456  33.069   4.902  11.233
16026W        W82457  16.120  21.108  12.350
16027W        W82458   9.199  25.988   4.634
16028W        W82459  30.331  20.102  12.801
16029W        W82460   6.342   5.663   1.391
16030W        W82461  25.500  34.898  13.069
16031W        W82462  27.562   8.223  12.521
16032W        W82463  41.347  21.534   2.980
16033W        W82464   3.668  42.408  14.846
16034W        W82465   4.832  36.051  11.271
16035W        W82466  14.645  24.753  11.660
16036W        W82467   3.308   2.836  13.752
16037W        W82468  33.427  12.763   3.883
16038W        W82469  28.377  41.480   4.572
16039W        W82470  43.028   0.511   0.439
16040W        W82471   5.377  41.836   0.438
16041W        W82472  32.966   9.109  12.867
16042W        W82473  42.412  43.209   4.656
16043W        W82474  42.954  25.844   3.637
16044W        W82475  23.084  27.664   1.844
16045W        W82476  13.144  19.228   1.871
16046W        W82477  39.656  30.999   2.742
16047W        W82478  23.933  40.979   4.037
16048W        W82479  33.400  33.303  13.062
16049W        W82480  10.336  33.994   0.778
16050W        W82481  15.480  19.952  13.723
16051W        W82482   1.626  18.218   0.613
16052W        W82483  28.233  42.674   4.003
16053W        W82484  24.169  22.505  14.726
16054W        W82485  19.850  37.317  11.475
16055W        W82486  31.935   9.438   1.777
16056W        W82487  40.782  23.651   4.657
16057W        W82488  27.126  22.497   1.843
16058W        W82489  26.478   5.367  11.231
16059W        W82490  33.077  11.274   2.732
16060W        W82491   6.183   3.484   0.801
16061W        W82492  11.580  24.217   4.106
16062W        W82493  30.030  44.044  13.878
16063W        W82494   5.475  10.759  12.424
16064W        W82495  34.357  37.076  12.586
16065W        W82496  17.866  23.096   0.804
16066W        W82497  41.569   8.282  12.575
16067W        W82498  40.702  19.663  11.534
16068W        W82499  33.109   2.397  13.333
16069W        W82500  16.983   1.945   4.854
16070W        W82501   5.695  12.250   1.682
16071W        W82502   6.283  30.187  13.950
16072W        W82503   0.773  13.851  13.305
16073W        W82504  27.415  31.559   3.450
16074W        W82505  36.317  32.623   4.156
16075W        W82506  15.410  34.907   3.755
16076W        W82507  18.616  21.018  13.093
16077W        W82508  26.115  41.130   1.008
16078W        W82509   3.762  44.337   3.051
16079W        W82510  10.641  33.000   3.270
16080W        W82511  41.064   1.408   0.319
16081W        W82512  11.823  42.514  13.182
16082W        W82513  28.366  27.120   4.211
16083W        W82514  37.818  25.069   2.518
16084W        W82515  25.066  37.805   5.010
16085W        W82516  13.583   9.937  13.172
16086W        W82517  31.542   8.134   4.415
16087W        W82518  27.020  44.335  10.112
16088W        W82519  24.357  22.804   2.019
16089W        W82520   9.218  19.005  11.716
16090W        W82521  41.880  35.630  12.938
16091W        W82522   5.117  11.851   2.744
16092W        W82523   2.005  42.279  11.061
16093W        W82524   7.118  18.714  12.002
16094W        W82525  24.584   7.887   0.517
16095W        W82526  40.702  29.818   0.782
16096W        W82527  26.445  15.768   1.148
16097W        W82528  39.426  18.055   3.690
16098W        W82529  37.191  30.999   9.830
16099W        W82530   7.542  18.463   4.573
16100W        W82531  13.468  22.056  14.342
16101W        W82532   7.958  35.161   2.246
16102W        W82533  29.650  22.205   0.055
16103W        W82534   3.428  32.790  12.914
16104W        W82535  26.453  17.618  14.437
16105W        W82536  23.804  27.474   3.077
16106W        W82537  23.237  35.862   0.411
16107W        W82538  31.638  34.576  10.980
16108W        W82539  28.984  12.050  14.172
16109W        W82540  23.609  24.274   3.244
16110W        W82541  23.119  14.238   0.748
16111W        W82542  44.051  42.978   1.245
16112W        W82543   4.870  33.444  14.919
16113W        W82544   2.328   0.285   3.567
16114W        W82545  44.758  27.968  10.324
16115W        W82546  14.145   8.792   2.139
16116W        W82547  18.439  17.229  12.523
16117W        W82548   7.510  38.921  11.807
16118W        W82549  10.098   9.531   1.636
16119W        W82550  27.471  24.852   4.169
16120W        W82551  17.288  29.060   0.232
16121W        W82552  10.353   8.298   0.332
16122W        W82553  30.215  10.222   0.750
16123W        W82554  36.638  11.239  11.127
16124W        W82555  38.887  35.996   2.615
16125W        W82556  23.142  24.484  14.978
16126W        W82557  17.614  15.328   2.162
16127W        W82558  15.622   1.988   4.157
16128W        W82559  22.097  31.240   4.222
16129W        W82560  17.041  13.980   3.220
16130W        W82561  14.836  32.868   3.357
16131W        W82562  32.840  15.957   4.969
16132W        W82563  43.031  43.994   2.006
16133W        W82564  31.609  43.469  12.205
16134W        W82565  35.900  10.233  10.702
16135W        W82566   1.863  41.152  11.946
16136W        W82567  33.948  43.700  11.098
16137W        W82568  20.642  17.283   0.442
16138W        W82569  16.288  25.205  11.215
16139W        W82570  33.505  17.553  13.375
16140W        W82571   7.806   0.212   0.357
16141W        W82572  11.224  20.720   0.568
16142W        W82573  37.477  33.286  10.941
16143W        W82574  28.270  11.709   5.007
16144W        W82575   9.664  41.319   4.583
16145W        W82576   0.461   4.509   3.006
16146W        W82577  32.290   4.516  12.493
16147W        W82578  23.305   0.711  14.387
16148W        W82579   3.304  37.161   0.372
16149W        W82580  32.825  36.098  12.125
16150W        W82581  10.681  17.785   2.564
16151W        W82582  42.704  10.986   0.186
16152W        W82583  35.557  26.042  12.898
16153W        W82584  13.406   0.844   1.919
16154W        W82585  23.793  36.430  13.256
16155W        W82586   1.801  15.086  13.944
16156W        W82587  26.328  26.210   2.054
16157W        W82588  44.335  15.156  12.023
16158W        W82589  28.797  10.302  14.596
16159W        W82590   1.586  29.931  11.222
16160W        W82591  31.978   8.899   0.197
16161W        W82592  37.441  27.971   1.586
16162W        W82593  18.478  20.822  11.097
16163W        W82594  12.104  37.202  14.347
16164W        W82595  11.366  17.270  14.906
16165W        W82596   6.814  25.708  14.252
16166W        W82597  24.028  22.523   2.825
16167W        W82598  35.568  38.956   3.164
16168W        W82599  29.190   2.234  11.988
16169W        W82600  25.655  32.233   1.994
16170W        W82601  38.468  25.981   1.761
16171W        W82602  34.926  24.276  13.515
16172W        W82603  14.872  10.019  10.343
16173W        W82604  29.663  28.277   0.716
16174W        W82605  30.405  43.246  14.798
16175W        W82606  40.279  23.374   1.350
16176W        W82607  35.917  36.452   4.810
16177W        W82608  38.290  11.302   0.322
16178W        W82609  31.845  13.436   0.774
16179W        W82610  14.271  11.641   4.020
16180W        W82611  12.806  16.130  14.351
16181W        W82612   8.351  10.343  14.417
16182W        W82613  23.735   0.259  12.429
16183W        W82614  34.642  40.586   3.724
16184W        W82615  32.790  44.944  14.457
16185W        W82616  22.796  13.834  12.454
16186W        W82617  38.420   0.305   3.201
16187W        W82618   1.861  33.420   4.859
16188W        W82619  19.710   2.437   2.340
16189W        W82620  34.233  10.324   0.035
16190W        W82621   2.951  37.784   4.109
16191W        W82622  27.027  20.430  10.788
16192W        W82623   3.338  33.603   3.795
16193W        W82624   3.481   9.816  12.213
16194W        W82625  24.918   1.856  12.691
16195W        W82626  14.410   5.909   3.968
16196W        W82627  31.645  17.767  13.342
16197W        W82628   0.755   4.652   3.731
16198W        W82629   4.841  23.773   4.144
16199W        W82630   2.839  15.044   2.737
16200W        W82631  43.419  32.143  11.688
16201W        W82632  27.763  22.096  13.055
16202W        W82633  20.645  24.201   2.367
16203W        W82634  20.371   4.809  12.881
16204W        W82635  21.623   9.794   2.198
16205W        W82636  36.096  14.255   2.531
16206W        W82637   0.420  43.249  14.501
16207W        W82638  25.379  21.267  14.430
16208W        W82639  32.682  13.287  13.237
16209W        W82640   4.482   4.877   3.219
16210W        W82641  15.787  13.288   1.382
16211W        W82642  19.825  34.519   0.259
16212W        W82643  17.767  13.141   1.913
16213W        W82644  17.191  31.613  12.720
16214W        W82645   8.222  40.586   1.321
16215W        W82646  31.197  18.438   0.370
16216W        W82647   4.007  24.853  12.984
16217W        W82648  22.223   7.318   2.719
16218W        W82649  44.319  33.748   0.976
16219W        W82650  13.799  21.650   9.867
16220W        W82651  38.793   4.687  13.988
16221W        W82652   7.687  17.535  13.948
16222W        W82653  16.017  16.100  11.110
16223W        W82654  13.189   8.905   0.448
16224W        W82655   6.183   9.955  12.049
16225W        W82656  24.475  18.906   2.279
16226W        W82657  14.377  35.050   3.786
16227W        W82658  28.388  24.758  11.087
16228W        W82659  38.266  23.530  13.853
16229W        W82660  32.000  37.888   3.740
16230W        W82661  28.175  29.466  13.349
16231W        W82662  13.441  42.405   4.542
16232W        W82663  22.377  23.630   2.274
16233W        W82664  39.504  13.243  14.523
16234W        W82665   2.207  35.551  12.980
16235W        W82666  31.910  30.053  13.397
16236W        W82667  20.133  36.892  11.696
16237W        W82668  26.298  25.189  11.612
16238W        W82669  12.825  27.519  10.960
16239W        W82670  26.118  27.936  12.859
16240W        W82671  41.736  29.877   2.732
16241W        W82672  18.884  29.067  12.559
16242W        W82673  29.458   7.890   4.550
16243W        W82674  33.821  17.312   3.836
16244W        W82675  18.142  39.427   1.567
16245W        W82676   3.771  10.702   3.392
16246W        W82677  44.221  34.881  13.435
16247W        W82678  26.472   4.881  10.690
16248W        W82679  25.946  30.564   2.587
16249W        W82680  31.404  34.618   4.578
16250W        W82681   8.799  28.985  13.390
16251W        W82682  29.743  24.465   0.838
16252W        W82683  34.228  20.792  10.976
16253W        W82684   2.502  21.151  12.760
16254W        W82685  39.523   1.324  13.954
16255W        W82686  43.362  29.516  14.179
16256W        W82687  30.743   7.393  10.837
16257W        W82688   2.858   9.147   4.301
16258W        W82689  41.574  28.550   0.405
16259W        W82690  24.191  17.671   5.030
16260W        W82691  43.855  10.838   0.911
16261W        W82692  40.842  16.176  12.099
16262W        W82693  28.410  26.466   9.916
16263W        W82694   7.841   3.669   4.319
16264W        W82695  35.630  19.733   4.113
16265W        W82696  10.375  15.891  14.173
16266W        W82697   4.639  39.232   4.156
16267W        W82698  20.480  40.135   9.963
16268W        W82699  40.374  21.819  11.253
16269W        W82700  36.518   1.191  11.125
16270W        W82701  42.627   9.048  13.828
16271W        W82702  26.126   4.654   2.876
16272W        W82703  14.090  27.714   2.720
16273W        W82704  23.930  20.606   4.205
16274W        W82705  24.892  27.482  11.208
16275W        W82706  10.691  33.420   1.735
16276W        W82707  12.343   5.223  13.438
16277W        W82708  27.838   6.697  12.035
16278W        W82709  30.581  10.935   4.982
16279W        W82710  25.978  23.964   4.071
16280W        W82711   7.679  30.551   2.698
16281W        W82712  25.082  12.347   0.262
16282W        W82713  41.936  30.917  13.162
16283W        W82714   5.707  34.628   2.849
16284W        W82715  33.553   4.642   4.181
16285W        W82716  13.339  39.673   3.740
16286W        W82717  10.246  10.858  12.841
16287W        W82718  40.980  18.321  13.587
16288W        W82719  30.298  29.015   3.367
16289W        W82720  25.930   9.658   1.187
16290W        W82721  27.422  25.841  13.283
16291W        W82722  34.595  38.892   4.763
16292W        W82723   1.550  23.429   3.651
16293W        W82724  44.668  10.626  10.824
16294W        W82725   8.640  20.508  13.926
16295W        W82726   2.787  36.219  11.143
16296W        W82727  18.329  23.598   5.224
16297W        W82728  38.651  11.311   1.830
16298W        W82729  38.875  13.693  13.572
16299W        W82730  18.002  35.393  13.950
16300W        W82731  14.144  35.525  13.536
16301W        W82732  13.370  37.203   5.257
16302W        W82733   7.712   6.540  13.904
16303W        W82734  10.584  32.093   3.157
16304W        W82735  41.352  13.119   3.674
16305W        W82736  12.811  11.682   4.628
16306W        W82737  23.440   5.413   3.597
16307W        W82738  10.632  34.877   1.729
16308W        W82739  19.815  18.880  11.902
16309W        W82740  31.281   4.380   0.604
16310W        W82741  29.946  34.066   4.194
16311W        W82742  41.228  15.368  12.576
16312W        W82743   7.693  16.986  12.019
16313W        W82744   1.918  33.075   1.180
16314W        W82745  11.779   9.398  12.560
16315W        W82746  29.123  40.906   2.558
16316W        W82747   2.661  31.771   5.191
16317W        W82748   9.842   4.165  13.022
16318W        W82749  39.104  31.056  11.041
16319W        W82750   1.163   4.715  14.423
16320W        W82751   6.653   5.994   1.877
16321W        W82752   7.701  12.256   0.698
16322W        W82753  43.506  26.905   4.849
16323W        W82754  10.860  14.009  12.581
16324W        W82755  37.951  38.026   0.333
16325W        W82756  43.978  30.456   1.876
16326W        W82757   0.484  31.146   2.106
16327W        W82758  15.063  15.325   1.417
16328W        W82759  39.629   1.881   3.583
16329W        W82760   9.918  41.788  13.485
16330W        W82761  13.805  29.611   2.779
16331W        W82762   9.850   0.729  13.868
16332W        W82763  22.104   7.134   0.844
16333W        W82764  24.889  12.400   1.260
16334W        W82765  12.064   6.932   2.218
16335W        W82766  39.219   2.915  13.809
16336W        W82767  10.779  11.008   0.786
16337W        W82768  18.728   9.712  11.509
16338W        W82769  43.049   6.298   0.906
16339W        W82770  15.198  23.018   2.254
16340W        W82771  17.054  44.257  13.617
16341W        W82772  42.520  14.017   0.014
16342W        W82773  33.453  15.311   4.817
16343W        W82774   2.257   3.829  13.862
16344W        W82775  12.876  29.542  10.409
16345W        W82776   2.141  29.558  12.002
16346W        W82777  32.223  37.875  11.530
16347W        W82778  37.373  31.708   4.858
16348W        W82779  20.634  27.441   2.285
16349W        W82780  28.392  27.142  14.975
16350W        W82781  21.586  42.536  13.181
16351W        W82782  42.290  23.097  12.145
16352W        W82783  44.244  13.287   3.744
16353W        W82784   8.048  44.426  11.115
16354W        W82785  21.500   0.798  14.539
16355W        W82786  33.366  13.272   0.012
16356W        W82787   1.413  31.380   1.252
16357W        W82788  25.322  18.267  13.599
16358W        W82789  34.896  13.988  14.105
16359W        W82790   3.061  28.190  14.233
16360W        W82791  13.011   8.890  13.962
16361W        W82792  32.182  26.458   5.209
16362W        W82793   1.351   0.415  11.781
16363W        W82794  28.019  22.051   4.499
16364W        W82795   5.752  23.969  13.914
16365W        W82796  21.065   5.935  13.892
16366W        W82797  18.833  31.938  10.754
16367W        W82798  13.411  18.607   0.937
16368W        W82799  34.156   0.643  11.166
16369W        W82800   0.259   7.162   1.918
16370W        W82801  11.295  39.762  13.938
16371W        W82802   9.905  26.701  14.364
16372W        W82803  12.335  11.503  12.486
16373W        W82804  16.801  10.367  12.978
16374W        W82805  42.681  18.778   4.636
16375W        W82806  38.782  38.770   3.954
16376W        W82807  25.221  27.040   0.444
16377W        W82808  42.942   5.236   2.412
16378W        W82809  35.632   7.884   1.885
16379W        W82810  36.155   1.243  13.092
16380W        W82811  22.352  44.879   1.519
16381W        W82812  14.095  12.215  12.953
16382W        W82813   3.924  22.739   0.262
16383W        W82814  40.743   5.780   0.550
16384W        W82815  43.399  31.836   0.791
16385W        W82816  13.513   9.401   3.606
16386W        W82817   2.048  10.208  12.815
16387W        W82818  20.323  11.504   3.281
16388W        W82819  30.348   4.589   4.915
16389W        W82820  43.478  28.704  13.920
16390W        W82821  20.216  25.589  12.552
16391W        W82822   4.195  35.023   1.827
16392W        W82823  18.937  19.670   2.176
16393W        W82824  37.787  44.931   0.244
16394W        W82825  18.178   6.270   2.162
16395W        W82826  10.792  39.892  14.998
16396W        W82827   2.438  22.343  13.015
16397W        W82828  31.532  41.668  11.953
16398W        W82829   6.249  32.537  12.461
16399W        W82830  11.911  32.945  13.948
16400W        W82831   0.852  42.195   0.766
16401W        W82832   9.374  10.638   4.550
16402W        W82833  33.993   9.588   3.823
16403W        W82834   1.886  26.547  14.038
16404W        W82835  40.252  15.442  14.800
16405W        W82836  26.122  15.619   3.818
16406W        W82837   2.166  37.790  12.856
16407W        W82838  38.092  19.209  14.203
16408W        W82839  28.232  34.322   1.591
16409W        W82840  18.778  34.403  14.417
16410W        W82841   2.961  22.777  10.970
16411W        W82842  41.247   2.778   0.220
16412W        W82843  30.517  36.893   1.484
16413W        W82844  34.236  41.828  11.111
16414W        W82845   9.707  40.523   0.012
16415W        W82846  28.043  12.812  14.899
16416W        W82847  26.356  29.841   2.019
16417W        W82848   6.640  32.442  11.126
16418W        W82849  31.353  21.944  12.951
16419W        W82850  20.593  42.510   0.258
16420W        W82851  37.639  40.780   0.336
16421W        W82852  22.963  36.857  11.199
16422W        W82853   3.953  23.306   4.371
16423W        W82854  12.797   6.944  14.992
16424W        W82855  29.023   0.952   3.136
16425W        W82856  20.273   4.754  10.902
16426W        W82857  28.574  43.257   0.742
16427W        W82858   4.716  27.542   1.593
16428W        W82859   9.074   8.652   4.645
16429W        W82860   6.058  33.075   2.329
16430W        W82861   1.975  29.420  13.333
16431W        W82862   3.958  18.106   4.121
16432W        W82863  22.269  41.414   4.222
16433W        W82864  37.091  44.150   0.026
16434W        W82865  44.392  14.251  10.948
16435W        W82866  44.082  42.722   0.794
16436W        W82867  38.489   8.654   3.719
16437W        W82868  23.319  14.343   2.849
16438W        W82869   2.598   6.359   4.575
16439W        W82870  29.857  25.074  11.253
16440W        W82871  37.337  37.349   4.098
16441W        W82872  31.955  26.949   2.643
16442W        W82873  29.893  21.413   3.026
16443W        W82874  26.362  26.914  12.552
16444W        W82875   1.090   8.165   2.839
16445W        W82876  38.509  24.429   3.609
16446W        W82877  44.534  23.820   3.416
16447W        W82878  40.507  31.614   3.650
16448W        W82879  37.073  17.491  11.620
16449W        W82880  20.738  41.411  11.110
16450W        W82881   2.978  21.270  12.567
16451W        W82882  16.575  41.408   1.704
16452W        W82883  34.927  31.507  14.078
16453W        W82884  30.430  34.701   3.650
16454W        W82885  28.705  25.304   2.524
16455W        W82886  17.175  27.879  13.797
16456W        W82887  22.539  42.570  14.290
16457W        W82888  42.866  34.605   0.502
16458W        W82889  27.350  38.560   4.025
16459W        W82890  43.005  33.369   2.245
16460W        W82891  29.100  21.794  12.913
16461W        W82892  37.391  39.387   0.288
16462W        W82893  31.635  15.300   2.235
16463W        W82894  29.998  25.002  12.636
16464W        W82895  19.275   4.130  12.502
16465W        W82896  29.189  12.243   3.908
16466W        W82897  35.901  20.198  12.891
16467W        W82898  21.000   4.231  12.382
16468W        W82899  16.213  14.477   0.165
16469W        W82900  44.266  12.983  14.946
16470W        W82901  39.486  27.737  12.106
16471W        W82902  26.581   9.076  13.466
16472W        W82903  29.121  13.883  11.944
16473W        W82904  42.107  33.399   1.376
16474W        W82905  19.712  24.480   0.835
16475W        W82906   0.967   3.220  10.276
16476W        W82907  15.778  35.332   3.763
16477W        W82908   3.852  25.647   2.955
16478W        W82909  20.261  27.150   1.257
16479W        W82910  11.893  15.618   3.178
16480W        W82911  10.119  10.738  14.424
16481W        W82912  25.597   5.467  11.043
16482W        W82913   2.226  30.430  10.540
16483W        W82914  40.496   8.683   1.418
16484W        W82915  34.373   0.448  10.736
16485W        W82916  39.776  31.416   3.408
16486W        W82917  42.817  21.898  10.963
16487W        W82918  30.462  20.933   1.750
16488W        W82919   0.821  16.055   0.490
16489W        W82920   5.403  29.045   0.686
16490W        W82921  29.379  43.505   0.780
16491W        W82922  20.844  33.016  10.954
16492W        W82923  35.385  21.054   3.086
16493W        W82924  42.724   6.610  14.428
16494W        W82925  42.556  14.200   4.298
16495W        W82926  37.423   5.141  11.883
16496W        W82927   5.014   7.504  11.500
16497W        W82928  16.134  25.798   2.636
16498W        W82929  25.906  39.404   0.438
16499W        W82930   0.757  27.602  13.224
16500W        W82931   2.941   0.699   1.990
16501W        W82932   9.564  22.495   4.907
16502W        W82933  35.239   9.111   4.946
16503W        W82934  17.978  33.575  12.941
16504W        W82935  36.712   2.977  10.939
16505W        W82936  44.287  25.832  11.080
16506W        W82937  31.809  23.454  13.877
16507W        W82938  39.358  42.078   1.448
16508W        W82939  17.746  23.906   2.345
16509W        W82940   7.320  22.161  12.107
16510W        W82941  24.990   2.710  12.179
16511W        W82942  14.582  37.419  10.580
16512W        W82943  15.038  19.692   0.441
16513W        W82944   1.464  25.006  11.899
16514W        W82945  43.794   2.679   3.613
16515W        W82946   6.356   6.427   4.601
16516W        W82947  25.664  34.489   4.214
16517W        W82948  14.103  39.548  14.520
16518W        W82949  12.643  26.846  10.929
16519W        W82950  41.899  31.536   2.223
16520W        W82951   7.477   7.686   3.442
16521W        W82952   9.651  24.403   2.336
16522W        W82953  30.879  42.551  13.020
16523W        W82954  44.266  34.162  13.073
16524W        W82955  20.547  32.847  14.361
16525W        W82956  35.887  38.319   5.678
16526W        W82957  40.540  39.389   4.867
16527W        W82958  18.046   9.354   2.967
16528W        W82959   3.972   8.862  13.755
16529W        W82960   9.821  18.531   2.774
16530W        W82961   3.269  28.641  14.051
16531W        W82962   9.434   1.519   3.554
16532W        W82963  37.617  33.268  11.815
16533W        W82964   8.889  29.100   1.300
16534W        W82965   7.201  29.670  11.497
16535W        W82966  18.203  38.457  12.086
16536W        W82967  44.426   4.402   3.702
16537W        W82968  38.332  28.899   0.274
16538W        W82969  13.199  15.898   3.261
16539W        W82970  32.347   6.417   1.888
16540W        W82971  16.600  36.583   1.926
16541W        W82972  25.080  25.050  10.710
16542W        W82973   7.289   8.953  13.417
16543W        W82974  37.649  36.157   3.380
16544W        W82975  36.461  44.021  11.735
16545W        W82976  16.519   1.739  12.480
16546W        W82977  40.309  41.369  13.044
16547W        W82978  19.898  11.282   2.854
16548W        W82979  15.819  21.132   4.544
16549W        W82980   5.388  27.736   3.489
16550W        W82981  27.460  13.289  13.495
16551W        W82982  44.681  44.415  14.136
16552W        W82983  26.219  26.565  13.301
16553W        W82984  40.615   7.850  10.803
16554W        W82985   1.441  34.864  12.645
16555W        W82986  28.975   5.499   1.379
16556W        W82987  14.499   5.810   2.917
16557W        W82988  39.321  37.389   1.025
16558W        W82989   7.211  12.274  10.576
16559W        W82990  27.505   9.384   1.710
16560W        W82991  27.190  10.716  10.736
16561W        W82992   2.043  15.778  14.042
16562W        W82993  33.462  11.611  11.988
16563W        W82994  30.009  34.546   1.891
16564W        W82995   6.621  23.537  14.842
16565W        W82996  22.125  20.168  14.476
16566W        W82997  19.961  20.653  12.346
16567W        W82998  27.094  40.535   3.551
16568W        W82999   6.523  22.371  11.455
16569W        W83000  24.525  40.598   3.326
16570W        W83001  15.592  24.727  10.898
16571W        W83002  19.251  15.706   3.097
16572W        W83003  42.967  38.587  14.409
16573W        W83004  37.140  14.362  13.977
16574W        W83005   1.216  22.159  12.069
16575W        W83006  10.612  30.951  10.739
16576W        W83007  43.303   8.897  14.230
16577W        W83008  34.974   4.233  11.593
16578W        W83009  14.397   5.668   3.498
16579W        W83010  35.457  14.006  11.180
16580W        W83011   7.478  26.180   2.882
16581W        W83012  31.538   2.408   1.504
16582W        W83013  42.762   0.779  13.052
16583W        W83014   4.470  41.127   0.251
16584W        W83015  36.377  28.998   5.492
16585W        W83016  10.291  38.805  12.979
16586W        W83017   7.273  22.778   2.303
16587W        W83018  38.399   1.245   2.186
16588W        W83019   7.899  24.148  11.135
16589W        W83020  17.430  43.997   0.045
16590W        W83021  38.919  36.657  13.956
16591W        W83022  20.278   2.509  14.449
16592W        W83023   4.928  42.749   1.767
16593W        W83024  23.048  27.189   1.020
16594W        W83025   6.166   9.936   2.160
16595W        W83026   4.166  25.760  13.013
16596W        W83027   3.185  26.369  11.420
16597W        W83028  17.672   6.349  12.456
16598W        W83029   3.588  35.121  14.835
16599W        W83030   4.384  23.645  11.633
16600W        W83031  12.989  33.123   3.711
16601W        W83032   5.710   4.951   1.319
16602W        W83033   9.219  44.943   4.179
16603W        W83034  15.558  15.505   1.014
16604W        W83035   2.256   0.402  14.232
16605W        W83036  43.409  10.867   4.620
16606W        W83037  39.231   5.833   4.604
16607W        W83038  16.137   5.793  11.660
16608W        W83039   3.743   6.464   3.721
16609W        W83040  20.170  32.553   0.346
16610W        W83041  12.285  16.664   0.908
16611W        W83042   5.407  43.838  12.350
16612W        W83043  24.453  16.721   0.891
16613W        W83044  17.531  13.691  14.390
16614W        W83045  22.737  16.022   2.139
16615W        W83046  37.223  16.751   2.216
16616W        W83047  18.343  34.226   0.663
16617W        W83048  30.061  25.423   3.364
16618W        W83049  23.150  14.017  10.403
16619W        W83050  33.475   5.411   0.788
16620W        W83051  13.059  13.562  11.107
16621W        W83052  44.641  19.922  11.255
16622W        W83053   6.645  17.529   1.363
16623W        W83054   8.749   8.600   3.993
16624W        W83055   4.267  26.700   2.839
16625W        W83056  17.579  42.948  14.576
16626W        W83057  18.297  33.418   4.127
16627W        W83058  39.454  12.345  11.541
16628W        W83059  29.702  15.672   1.689
16629W        W83060  19.329   5.750   4.067
16630W        W83061  26.178  27.398   3.191
16631W        W83062  12.151   1.908  12.046
16632W        W83063  37.540  28.638   3.365
16633W        W83064  38.726   4.412  14.863
16634W        W83065   2.732  36.684   0.206
16635W        W83066  10.987  21.237   4.196
16636W        W83067  21.788  43.302   5.449
16637W        W83068  41.017  10.396  13.340
16638W        W83069  32.467  26.217   4.821
16639W        W83070   0.339   2.260  10.966
16640W        W83071   3.590  36.337   0.360
16641W        W83072  43.106  20.651  11.966
16642W        W83073  17.758  19.491   2.693
16643W        W83074  32.128  20.922  13.055
16644W        W83075  12.692  17.149  10.657
16645W        W83076  24.989  10.229   2.747
16646W        W83077  17.822  14.227  12.058
16647W        W83078  18.333  22.685  14.475
16648W        W83079  23.497  25.722   4.418
16649W        W83080  35.757   5.755   0.854
16650W        W83081  27.718  11.511  12.100
16651W        W83082  19.278  29.835   0.176
16652W        W83083  41.981  39.297   1.262
16653W        W83084   5.980  37.312  13.143
16654W        W83085  30.924   5.828   2.478
16655W        W83086   9.931  44.965  14.385
16656W        W83087  28.061  41.567  11.439
16657W        W83088   2.615  30.148  14.057
16658W        W83089  29.697  30.371  12.608
16659W        W83090  39.880  30.207  14.240
16660W        W83091  23.668  13.738  10.797
16661W        W83092   7.854  17.558  13.452
16662W        W83093   0.535  14.683   2.680
16663W        W83094  31.133  20.077   3.257
16664W        W83095  43.892  17.730   4.150
16665W        W83096  31.512   1.876   2.359
16666W        W83097  20.350  19.220   1.082
16667W        W83098  18.740   9.048   3.708
16668W        W83099  28.170  11.130   2.739
16669W        W83100   7.423  28.622   4.433
16670W        W83101  32.446  12.593  13.961
16671W        W83102  37.016   7.529   4.220
16672W        W83103  42.201  19.209   4.868
16673W        W83104  12.829  31.178   2.056
16674W        W83105  44.574   4.755   4.641
16675W        W83106  30.422   1.140   3.770
16676W        W83107   4.879  11.591   0.980
16677W        W83108   1.707   6.845   4.321
16678W        W83109   7.061   1.883  11.659
16679W        W83110   7.418  28.209  11.675
16680W        W83111  25.431  14.847  14.892
16681W        W83112  44.010  33.562  14.918
16682W        W83113  21.061   0.595  14.010
16683W        W83114  25.933  32.908  12.355
16684W        W83115  39.552  41.483   3.762
16685W        W83116  39.432  10.192   2.568
16686W        W83117  32.638  31.410  14.723
16687W        W83118  16.306   6.491  14.322
16688W        W83119  40.670  13.752  14.340
16689W        W83120  36.492   4.637  12.417
16690W        W83121  27.574  40.574   3.767
16691W        W83122  30.760   8.922   2.360
16692W        W83123  29.437   2.265   0.284
16693W        W83124  28.037  15.393  13.950
16694W        W83125  28.926  16.714   3.306
16695W        W83126  13.072  13.817   2.289
16696W        W83127  34.090  40.377  13.474
16697W        W83128  22.999  36.336   3.061
16698W        W83129  31.877   2.433  12.970
16699W        W83130  10.288  12.134   0.843
16700W        W83131  36.325  15.248  14.842
16701W        W83132   6.970  44.323  11.887
16702W        W83133  10.721  16.332  13.031
16703W        W83134  40.037   2.921   4.768
16704W        W83135  39.019  44.430   4.075
16705W        W83136  19.755   9.947  14.909
16706W        W83137   1.995  24.942   4.427
16707W        W83138  42.040  20.679  10.711
16708W        W83139  39.662   7.866   0.361
16709W        W83140  24.430  27.155   0.863
16710W        W83141   2.601   5.758  14.897
16711W        W83142   6.191  10.482  11.960
16712W        W83143  24.525  17.995   5.761
16713W        W83144  23.545  38.884   1.317
16714W        W83145   1.030  32.883   3.896
16715W        W83146  15.650  20.150  12.500
16716W        W83147  15.943  31.204   0.004
16717W        W83148  26.267  38.236   4.672
16718W        W83149   5.857  31.695  14.647
16719W        W83150  30.998  25.472  14.825
16720W        W83151  18.037  29.585   0.250
16721W        W83152  29.972  16.891  11.606
16722W        W83153   3.894  14.096   1.775
16723W        W83154  18.567   7.124   2.901
16724W        W83155  30.298  24.954   4.167
16725W        W83156   7.911  35.559  14.875
16726W        W83157   7.843  14.786   1.111
16727W        W83158   7.252  19.748   5.039
16728W        W83159   4.397  17.588  14.389
16729W        W83160  16.820   2.427  11.670
16730W        W83161  18.682   8.858   4.196
16731W        W83162  21.673  40.340   0.991
16732W        W83163  20.458   0.397   3.739
16733W        W83164  25.434  31.523  12.233
16734W        W83165  25.999  34.375   1.403
16735W        W83166  23.954  28.395   3.171
16736W        W83167   2.793  19.635  13.159
16737W        W83168  23.976  10.547  12.820
16738W        W83169  10.931  44.596   2.317
16739W        W83170  39.046  43.265   0.916
16740W        W83171  37.118   1.957   1.239
16741W        W83172   1.833  33.096   0.190
16742W        W83173  26.100  23.735   4.538
16743W        W83174   7.241  38.821   4.797
16744W        W83175   2.308  37.221   4.530
16745W        W83176  39.939  17.264   1.260
16746W        W83177  29.975  22.759   3.789
16747W        W83178   4.340  30.384   2.470
16748W        W83179  19.721  19.776  13.555
16749W        W83180  14.855   8.200   1.957
16750W        W83181  15.166  16.034   4.526
16751W        W83182   5.318  28.402   0.317
16752W        W83183   3.600  30.542  11.244
16753W        W83184   3.921  19.022  10.803
16754W        W83185  15.777  36.973  14.992
16755W        W83186  31.067  33.574   2.005
16756W        W83187  13.824   2.485   2.298
16757W        W83188  16.022  17.774   3.139
16758W        W83189  18.535  26.386   1.519
16759W        W83190   6.682  10.186   2.836
16760W        W83191  15.281  36.863   2.290
16761W        W83192  27.209  13.937  11.241
16762W        W83193  31.368  34.539   2.345
16763W        W83194   6.066  42.473  12.350
16764W        W83195  38.007  40.292   2.818
16765W        W83196  37.492   1.279  13.137
16766W        W83197  23.530   3.015   3.786
16767W        W83198  18.557  25.525  12.562
16768W        W83199  29.456  33.424   0.922
16769W        W83200  42.867  31.969   5.013
16770W        W83201  43.320  19.193  10.905
16771W        W83202  24.290   1.138   2.061
16772W        W83203  19.812  34.907  11.360
16773W        W83204   6.707  32.469  13.397
16774W        W83205   2.927  12.185   1.329
16775W        W83206  44.842  33.587   1.634
16776W        W83207  20.505   5.280   3.637
16777W        W83208   0.180  43.965  10.931
16778W        W83209  16.281   8.309   3.144
16779W        W83210  10.049   2.164  12.687
16780W        W83211  30.980  16.954  14.961
16781W        W83212  25.229  44.948   0.506
16782W        W83213  34.458  44.196  14.851
16783W        W83214  33.498   9.690   3.653
16784W        W83215  29.956  43.492   3.356
16785W        W83216  12.008  23.110   2.362
16786W        W83217  17.191  24.547   1.832
16787W        W83218  36.076  41.722  14.335
16788W        W83219  36.069   3.721  11.566
16789W        W83220  10.210  28.444   1.709
16790W        W83221  24.160  23.279   4.176
16791W        W83222  24.140  26.952  10.884
16792W        W83223  17.685   0.732   0.239
16793W        W83224  20.145  24.762  13.386
16794W        W83225   8.293  14.759   2.868
16795W        W83226  33.177  35.418  14.354
16796W        W83227  41.272  35.135   1.838
16797W        W83228  31.908  17.795   0.678
16798W        W83229   6.579  18.369  10.333
16799W        W83230  30.684  42.010  12.392
16800W        W83231  13.535   2.232   3.275
16801W        W83232   4.258  41.468   2.902
16802W        W83233  28.565  37.516  12.482
16803W        W83234  19.196  40.615  10.746
16804W        W83235  26.401   1.735  13.260
16805W        W83236  44.812  42.102   2.184
16806W        W83237  39.968  14.352  13.356
16807W        W83238  26.153  17.865   1.844
16808W        W83239  23.938  27.688  13.523
16809W        W83240  32.889  21.118   1.215
16810W        W83241   6.889  32.362   2.883
16811W        W83242  17.387   3.703   3.280
16812W        W83243  42.593  43.014  12.519
16813W        W83244  39.364  32.332   0.352
16814W        W83245  37.465   4.368  13.972
16815W        W83246   1.770  19.040  12.569
16816W        W83247  27.442  33.351  10.577
16817W        W83248  44.169   7.432   3.938
16818W        W83249   4.781  17.139   1.294
16819W        W83250  14.615  27.392  13.878
16820W        W83251  35.390  24.528   4.586
16821W        W83252  11.485  17.600   1.994
16822W        W83253   7.412  33.507   0.904
16823W        W83254   1.087  29.178  12.493
16824W        W83255  30.047  40.995   4.052
16825W        W83256  36.467   5.281  13.970
16826W        W83257  40.959   0.697   4.131
16827W        W83258  19.183   3.454   4.133
16828W        W83259  35.155  27.273   1.882
16829W        W83260   9.840  43.258  11.065
16830W        W83261  23.707  22.542   5.077
16831W        W83262  28.055   1.739   1.251
16832W        W83263  11.720  32.860  11.677
16833W        W83264  39.638  13.214  11.543
16834W        W83265  26.099  39.896   0.419
16835W        W83266  11.982  29.857   2.852
16836W        W83267  39.109  26.771  10.641
16837W        W83268  19.961  16.591   0.862
16838W        W83269  26.276  20.412   1.404
16839W        W83270  25.646  38.783   2.227
16840W        W83271  20.162  34.977  14.330
16841W        W83272   3.365  15.164  10.675
16842W        W83273  27.455  13.601  12.937
16843W        W83274  31.783  12.703   0.259
16844W        W83275   7.739  42.738  12.941
16845W        W83276  21.624  29.608  11.047
16846W        W83277  19.194   7.752   4.890
16847W        W83278  11.343   0.799   1.541
16848W        W83279  22.105  19.406   1.654
16849W        W83280  13.588  12.968   2.896
16850W        W83281  34.678   0.513  11.146
16851W        W83282  21.593  31.716  11.143
16852W        W83283  44.288  39.183   0.407
16853W        W83284  31.884  18.733  13.914
16854W        W83285  22.244  44.839  12.568
16855W        W83286  20.471  33.648   2.966
16856W        W83287   2.739  11.456  11.524
16857W        W83288   4.696  35.097   1.819
16858W        W83289  22.969   5.400  13.453
16859W        W83290  17.494  36.401  12.072
16860W        W83291   7.688  12.671   2.952
16861W        W83292   7.697   2.791  13.361
16862W        W83293   8.656   1.486  14.847
16863W        W83294  18.548   6.476  11.262
16864W        W83295  42.436  26.478  13.338
16865W        W83296  44.856  28.974  13.038
16866W        W83297  11.348  23.592   1.278
16867W        W83298  34.322  32.955  14.762
16868W        W83299  36.093   2.943   3.569
16869W        W83300  21.116  37.827   2.380
16870W        W83301  12.366  18.595   4.658
16871W        W83302   3.731  42.446   4.237
16872W        W83303  25.983  19.681  12.227
16873W        W83304  14.334  32.899  11.611
16874W        W83305  44.560  28.992  11.696
16875W        W83306  44.329  18.998   9.915
16876W        W83307  40.400  24.671  11.188
16877W        W83308   1.025  37.015   0.776
16878W        W83309   4.210  14.645   0.115
16879W        W83310  23.227  43.740  14.366
16880W        W83311  36.615  13.313  11.230
16881W        W83312  42.655  15.237   4.614
16882W        W83313  44.061   2.280   1.749
16883W        W83314  36.129  23.961   4.616
16884W        W83315  19.932  22.663  10.706
16885W        W83316   0.181  40.940   1.508
16886W        W83317  39.566   3.820  14.252
16887W        W83318  20.188  21.443   1.637
16888W        W83319   2.701  37.642  11.214
16889W        W83320   6.460  25.481  14.767
16890W        W83321  19.588  18.975  14.744
16891W        W83322  23.922  13.144  11.463
16892W        W83323  33.439   0.958  12.391
16893W        W83324   1.474  43.141   4.902
16894W        W83325  30.347   6.657   2.327
16895W        W83326   4.465  19.657  14.061
16896W        W83327  21.764  34.962  13.106
16897W        W83328  20.228  19.536  11.522
16898W        W83329  25.491   9.303  10.754
16899W        W83330  19.654  29.825   2.367
16900W        W83331  21.009  19.312   3.529
16901W        W83332   7.319  41.371   4.666
16902W        W83333   8.789  22.324   1.233
16903W        W83334   5.988  24.762   2.270
16904W        W83335  38.919  41.612  12.990
16905W        W83336  35.818   8.227  13.801
16906W        W83337   4.830  25.478   4.426
16907W        W83338  28.451  15.374   0.750
16908W        W83339  14.634  36.888  12.940
16909W        W83340   7.955  21.224   3.254
16910W        W83341   2.635  14.087  10.630
16911W        W83342  29.719  29.926   3.306
16912W        W83343  25.096  25.484   1.664
16913W        W83344  23.112  13.362   3.744
16914W        W83345  22.720   0.813   3.727
16915W        W83346  19.676  37.565  14.454
16916W        W83347  41.834  38.449   4.549
16917W        W83348  24.714  37.475  11.674
16918W        W83349  16.434   4.654  11.912
16919W        W83350  22.539  13.594  13.396
16920W        W83351  41.851  11.075   4.685
16921W        W83352  39.289  34.829  11.196
16922W        W83353   2.856   9.622   0.308
16923W        W83354  20.499  16.610   2.105
16924W        W83355  18.781  24.221   2.847
16925W        W83356  37.854  36.530   2.517
16926W        W83357  42.256  30.384   4.121
16927W        W83358  41.378  24.303   3.113
16928W        W83359  12.063  27.209   2.687
16929W        W83360  32.702   6.555  11.582
16930W        W83361  22.290   5.466  11.555
16931W        W83362   6.150   4.056  14.418
16932W        W83363  31.015  36.859  12.250
16933W        W83364  38.023  39.451  13.461
16934W        W83365  13.867  26.299   2.791
16935W        W83366  28.356  12.779   0.310
16936W        W83367  14.105   8.768  10.437
16937W        W83368  20.957   5.153  14.485
16938W        W83369  43.986   8.469  11.200
16939W        W83370  24.942  24.740   4.173
16940W        W83371  25.672   4.938   0.759
16941W        W83372  24.960  24.160  11.234
16942W        W83373  36.365   8.988   4.303
16943W        W83374  31.884  10.330   4.600
16944W        W83375  32.485  13.294   2.385
16945W        W83376  27.309   3.989  14.784
16946W        W83377  43.422   5.427   4.161
16947W        W83378  38.324  15.147   3.323
16948W        W83379  44.144   1.613   3.720
16949W        W83380  33.915  25.574  12.131
16950W        W83381   5.556  31.900   3.293
16951W        W83382  33.491  32.192  14.397
16952W        W83383  39.893  18.334  10.782
16953W        W83384  41.568  41.052  14.972
16954W        W83385  21.087  19.654  12.987
16955W        W83386  14.279   4.434  14.186
16956W        W83387  29.082  38.869   3.083
16957W        W83388  22.924  11.217  10.525
16958W        W83389  17.876  16.082   2.697
16959W        W83390  27.684  17.643   4.126
16960W        W83391  43.107  31.329   1.508
16961W        W83392  36.162  15.571   3.896
16962W        W83393  33.906  35.467   1.002
16963W        W83394  32.869   3.818  11.167
16964W        W83395   5.118   3.174   4.531
16965W        W83396   0.814   8.748  14.388
16966W        W83397   3.669  40.027   4.090
16967W        W83398  23.599  31.500   0.442
16968W        W83399  30.606  41.527   0.321
16969W        W83400  31.668  14.132   0.226
16970W        W83401  32.601  21.700   2.571
16971W        W83402  17.131  31.994   3.373
16972W        W83403  33.406  23.511   0.940
16973W        W83404  44.573  28.115  11.457
16974W        W83405  28.598  27.949   4.182
16975W        W83406  10.577  41.520   4.683
16976W        W83407   4.505  12.497   0.937
16977W        W83408  16.751   2.928  11.563
16978W        W83409  24.175  10.643   2.726
16979W        W83410   9.080  37.626   1.086
16980W        W83411   6.687  28.391  12.172
16981W        W83412   4.749  13.422   1.888
16982W        W83413  29.101  20.562   0.412
16983W        W83414  35.509   7.124  13.927
16984W        W83415   9.786  23.087   4.760
16985W        W83416  28.529  20.090   4.122
16986W        W83417   8.667   3.095   0.259
16987W        W83418  25.960   3.764   4.623
16988W        W83419   3.060   6.770  11.420
16989W        W83420  14.117  34.142  13.927
16990W        W83421  17.130   9.049   3.211
16991W        W83422  34.173  14.771  13.815
16992W        W83423  23.217  30.396  12.200
16993W        W83424  10.016  33.805  13.556
16994W        W83425  27.590  20.076  12.978
16995W        W83426   2.449   4.398   1.927
16996W        W83427  20.752   8.156   1.847
16997W        W83428  11.784   9.759   3.858
16998W        W83429  44.997  42.615   2.220
16999W        W83430  18.981  19.174   4.022
17000W        W83431   0.134  20.678  11.168
17001W        W83432  17.790  25.261  11.066
17002W        W83433  29.223   1.030  12.528
17003W        W83434  17.139  21.726   2.873
17004W        W83435  15.727  35.952  13.041
17005W        W83436  14.289  43.339   3.928
17006W        W83437  35.987  14.247   0.260
17007W        W83438  32.887   8.236   1.053
17008W        W83439  26.544  41.647  14.373
17009W        W83440   8.946  11.692   0.707
17010W        W83441   9.798  41.513  14.668
17011W        W83442  16.753  44.256  10.642
17012W        W83443  32.458  36.599   3.553
17013W        W83444  38.813   4.202  13.810
17014W        W83445  42.941  40.388  11.661
17015W        W83446   4.638  37.548   4.620
17016W        W83447  23.498  10.337  12.468
17017W        W83448  21.625  25.477   1.140
17018W        W83449  27.927   9.850  11.722
17019W        W83450  34.697   1.271  10.599
17020W        W83451  19.352  42.439  11.054
17021W        W83452  11.112  33.441   0.759
17022W        W83453  15.904   2.925   1.875
17023W        W83454  44.563   3.875   0.420
17024W        W83455  43.818   5.803   0.959
17025W        W83456  19.951  30.985   1.002
17026W        W83457   4.804  32.370   0.850
17027W        W83458   6.453  20.167   1.250
17028W        W83459  13.389  44.418   0.805
17029W        W83460   0.544  38.082   0.398
17030W        W83461  16.323   8.563  11.884
17031W        W83462  26.256   0.450   1.480
17032W        W83463   3.520   0.901   4.115
17033W        W83464   2.989  34.013   1.400
17034W        W83465   1.894  42.571   3.254
17035W        W83466  17.549  44.719   2.286
17036W        W83467  25.769  29.645   2.347
17037W        W83468  40.711  40.033  14.636
17038W        W83469   6.100   3.287  10.634
17039W        W83470  38.216  13.588  12.779
17040W        W83471  26.426  44.935   0.746
17041W        W83472  29.929  14.226  10.639
17042W        W83473   4.817  10.651   4.000
17043W        W83474  34.444  43.419   0.492
17044W        W83475  12.860   9.192  14.717
17045W        W83476  26.975  23.616   4.145
17046W        W83477  43.229  42.967  10.590
17047W        W83478  37.221   7.729   1.997
17048W        W83479  40.935  37.509  10.448
17049W        W83480  14.218  13.844  13.058
17050W        W83481   9.235  37.689   1.606
17051W        W83482  18.084  25.718  12.582
17052W        W83483   2.463  44.571   3.582
17053W        W83484   4.243  41.083   2.137
17054W        W83485  16.272  43.326  10.698
17055W        W83486   4.638  16.738  13.723
17056W        W83487  34.349   8.276   4.736
17057W        W83488  20.718  44.296  12.873
17058W        W83489   1.228  15.317  10.440
17059W        W83490  36.750  36.947   3.316
17060W        W83491  21.131  22.778   3.800
17061W        W83492  15.511  44.089  11.352
17062W        W83493  17.730  25.073   5.465
17063W        W83494  33.229  17.740  12.946
17064W        W83495  37.660  41.832   1.453
17065W        W83496  38.987  44.026  14.002
17066W        W83497   8.152  10.638   3.367
17067W        W83498  33.488  10.644  13.752
17068W        W83499  26.830  28.374  13.910
17069W        W83500  29.600  10.037  14.953
17070W        W83501  27.098  33.133   9.940
17071W        W83502  41.825  38.013  10.652
17072W        W83503  25.362  10.418  12.565
17073W        W83504  13.483   1.773   4.570
17074W        W83505  16.610  11.585  12.575
17075W        W83506  26.178  32.586  14.945
17076W        W83507  42.776  34.648   1.373
17077W        W83508  13.659  11.401   2.890
17078W        W83509  41.734  32.692  13.191
17079W        W83510  18.772  22.868   0.774
17080W        W83511  18.641  43.026   3.212
17081W        W83512  40.863  19.283  11.905
17082W        W83513  10.845  15.542  14.918
17083W        W83514  44.304   4.905  11.173
17084W        W83515  22.314  22.194  10.794
17085W        W83516  43.315  42.246   4.642
17086W        W83517  33.441  23.561   1.821
17087W        W83518  35.160  26.285  11.515
17088W        W83519  11.707  40.925   3.248
17089W        W83520  10.320  38.972   3.246
17090W        W83521   4.178  17.017   5.076
17091W        W83522  17.484  12.300   4.977
17092W        W83523   2.811   6.817   1.932
17093W        W83524  44.388  35.815   2.554
17094W        W83525  20.309   3.783  10.582
17095W        W83526  11.131  29.571   2.860
17096W        W83527  20.722  37.888   3.161
17097W        W83528   2.842  24.137  13.309
17098W        W83529   9.534  32.445  12.110
17099W        W83530   3.572  36.545   4.542
17100W        W83531  13.171  17.643  14.057
17101W        W83532   3.331   3.939  12.433
17102W        W83533  24.713  37.635  13.391
17103W        W83534  26.833  17.137  12.376
17104W        W83535  15.347  15.207   3.745
17105W        W83536   3.489  35.602  13.492
17106W        W83537   4.107  19.982  11.426
17107W        W83538  27.834   3.287   4.124
17108W        W83539   5.602   2.255   4.739
17109W        W83540  27.988   7.896  11.069
17110W        W83541   0.692  27.093   0.951
17111W        W83542  44.530  33.497  14.655
17112W        W83543  23.151  39.921   9.802
17113W        W83544   4.584  44.758   0.533
17114W        W83545  44.917   6.599   3.921
17115W        W83546  20.329   6.611   0.343
17116W        W83547  13.830  17.746   2.198
17117W        W83548   8.216   4.030   1.013
17118W        W83549   9.068   7.739  12.803
17119W        W83550  12.721   3.843   2.593
17120W        W83551   9.654  43.805   1.360
17121W        W83552  21.281   8.833   1.300
17122W        W83553   2.234   5.923   3.127
17123W        W83554   4.608   9.978   1.257
17124W        W83555   3.101  36.219  14.005
17125W        W83556   0.253  18.291   0.776
17126W        W83557   2.848  12.160  13.994
17127W        W83558  20.550  43.738   0.878
17128W        W83559  16.679  39.898  11.734
17129W        W83560  16.816  22.773  14.121
17130W        W83561  42.119  11.757  11.180
17131W        W83562  24.115  29.576   0.671
17132W        W83563  28.011   5.220  13.394
17133W        W83564  27.487  23.006   3.685
17134W        W83565  20.588  31.131  12.544
17135W        W83566  14.590  31.448   3.826
17136W        W83567  28.631   2.294   1.726
17137W        W83568  29.249   9.203   0.312
17138W        W83569   7.706   6.362  12.065
17139W        W83570   5.466  22.763  12.114
17140W        W83571  28.657  28.524  13.241
17141W        W83572  21.288  10.332  11.338
17142W        W83573  21.549   6.354   9.897
17143W        W83574  26.631  13.195   3.107
17144W        W83575   5.107   3.480  11.581
17145W        W83576  31.074  41.266  12.765
17146W        W83577  36.999  18.065   1.209
17147W        W83578  37.215  41.280   4.057
17148W        W83579   9.645  33.620   0.976
17149W        W83580  22.409  26.647   3.642
17150W        W83581  42.732  11.883   0.368
17151W        W83582  43.217  33.522  13.879
17152W        W83583  32.173  18.356  14.495
17153W        W83584  36.420  34.018  11.576
17154W        W83585  12.219  42.764   1.193
17155W        W83586  32.019  16.547  12.175
17156W        W83587  25.259  15.340  13.665
17157W        W83588   0.011  14.791   3.231
17158W        W83589   9.745   1.266   2.278
17159W        W83590   3.920  10.283   1.681
17160W        W83591  41.609  19.290   1.708
17161W        W83592  37.031  43.448   2.658
17162W        W83593  20.571  28.475  12.012
17163W        W83594   7.148  39.045   3.826
17164W        W83595  36.688  44.409  12.582
17165W        W83596  36.873  11.697   1.814
17166W        W83597  30.932  14.591   1.314
17167W        W83598  12.073  31.156   1.222
17168W        W83599  29.879  42.132   0.741
17169W        W83600  12.648   1.025   0.529
17170W        W83601  33.881  24.160   4.014
17171W        W83602  12.391   3.013  10.197
17172W        W83603  18.269   1.502   0.722
17173W        W83604  37.930  12.438   4.485
17174W        W83605   8.946  38.097  11.591
17175W        W83606  25.099   0.422   4.346
17176W        W83607   9.575  11.065   3.736
17177W        W83608  32.058   5.393  10.590
17178W        W83609  14.720  35.348   2.746
17179W        W83610  26.381  23.587   1.318
17180W        W83611  44.044  16.447   0.832
17181W        W83612   7.424   1.672  14.468
17182W        W83613  21.064  18.666   4.138
17183W        W83614  44.446  27.967  13.898
17184W        W83615   1.658   3.801   2.774
17185W        W83616  23.763   8.550   4.742
17186W        W83617   7.030   0.680  11.675
17187W        W83618  21.740  14.332  12.006
17188W        W83619  17.672  25.059  13.817
17189W        W83620   4.883  25.944  12.738
17190W        W83621   5.215  30.817   0.324
17191W        W83622  24.061   5.216   4.191
17192W        W83623  30.098  37.210   1.312
17193W        W83624   0.918  34.668   2.667
17194W        W83625   3.852  34.931   2.799
17195W        W83626  19.466  17.081  13.436
17196W        W83627  27.209   3.930  12.520
17197W        W83628   7.150  19.597  10.328
17198W        W83629   4.514   0.845   0.290
17199W        W83630  37.611  44.264  14.966
17200W        W83631  29.176  26.651  11.628
17201W        W83632  13.365  22.780  12.535
17202W        W83633  32.891  23.016  11.179
17203W        W83634   5.336  33.078   3.753
17204W        W83635  32.865  19.504  12.364
17205W        W83636  42.951  16.903  12.043
17206W        W83637  44.767  14.731  10.913
17207W        W83638   7.304  15.212   2.150
17208W        W83639  25.844  31.112   4.926
17209W        W83640  18.375  33.511  13.931
17210W        W83641  41.625   6.397   4.554
17211W        W83642  30.921  38.638   2.033
17212W        W83643   6.657   2.441  12.907
17213W        W83644  39.793  12.034  11.271
17214W        W83645  36.786  14.956  13.468
17215W        W83646   9.425  25.500  12.972
17216W        W83647  13.719   1.193  11.121
17217W        W83648  21.552  40.234  11.105
17218W        W83649   1.907  28.476  12.165
17219W        W83650   5.827   1.323  11.664
17220W        W83651   9.215  26.108  13.101
17221W        W83652  43.352  18.204   4.862
17222W        W83653   4.213  12.363  14.490
17223W        W83654  13.280  10.218  11.965
17224W        W83655  25.598   6.619  12.587
17225W        W83656  16.978  35.802   1.433
17226W        W83657   3.520  39.856   0.825
17227W        W83658  19.004   1.346  13.763
17228W        W83659  40.718  31.541  12.687
17229W        W83660  35.872  31.976  12.652
17230W        W83661  11.101  42.347   2.895
17231W        W83662   0.317   6.899  11.599
17232W        W83663  44.430  30.347  10.905
17233W        W83664  13.111  36.712   2.900
17234W        W83665  31.002  44.790  12.332
17235W        W83666  36.449   9.826  13.298
17236W        W83667  33.675  17.071   0.507
17237W        W83668  26.231  36.367  11.445
17238W        W83669  20.345  20.086   1.297
17239W        W83670  11.412  33.318   5.052
17240W        W83671  44.751  44.036   2.274
17241W        W83672  40.023  27.001   0.876
17242W        W83673  13.569  36.886   3.103
17243W        W83674  20.521  20.592   1.381
17244W        W83675  24.776  33.185   4.971
17245W        W83676  38.760  13.782  14.055
17246W        W83677   9.752  24.499  11.434
17247W        W83678  40.419  32.271  12.094
17248W        W83679   0.526  32.992  11.952
17249W        W83680  13.635  15.261  12.368
17250W        W83681   7.899  32.631  10.795
17251W        W83682  26.681  41.509   4.730
17252W        W83683   2.430  44.821   4.872
17253W        W83684  21.747  11.769  13.958
17254W        W83685   5.999  24.105  11.633
17255W        W83686   7.084  15.481  13.994
17256W        W83687  39.484  11.753  10.284
17257W        W83688  37.808  43.659   3.134
17258W        W83689   7.782  31.606  12.244
17259W        W83690  14.257  18.786   1.941
17260W        W83691  20.319  32.038   0.265
17261W        W83692  14.553   3.321   1.671
17262W        W83693   6.793   7.599  11.934
17263W        W83694  31.525  23.168   0.424
17264W        W83695  23.113  30.187  11.661
17265W        W83696  13.278  19.810   3.611
17266W        W83697  31.701   7.693   5.087
17267W        W83698  36.898  30.111  11.371
17268W        W83699  13.128   4.533   1.540
17269W        W83700  40.173  12.425  10.396
17270W        W83701  20.348  22.055  12.593
17271W        W83702  36.037  29.194   4.955
17272W        W83703  24.318  10.747  13.964
17273W        W83704  29.293  18.036  11.951
17274W        W83705  15.263  37.078  12.182
17275W        W83706  13.674  10.598  14.872
17276W        W83707  16.887   8.927  13.297
17277W        W83708  34.896  25.565  14.936
17278W        W83709  29.612  22.579  12.922
17279W        W83710  12.613   8.367   3.850
17280W        W83711  21.908  22.115  14.304
17281W        W83712  19.572  15.590   1.799
17282W        W83713  24.835  15.174  13.920
17283W        W83714  31.273   9.145   4.836
17284W        W83715  26.624  18.804   4.033
17285W        W83716  41.711  32.762   0.060
17286W        W83717  27.534  18.393  13.635
17287W        W83718   0.526  27.042   1.464
17288W        W83719  39.873   5.860   4.123
17289W        W83720  30.428   0.349  12.920
17290W        W83721  26.884  13.021   0.694
17291W        W83722  42.424  21.554  13.906
17292W        W83723  20.435  41.753   2.754
17293W        W83724  18.733   3.862   2.286
17294W        W83725  14.275   1.885  13.957
17295W        W83726  11.326  39.030  10.554
17296W        W83727   4.472  22.716   0.288
17297W        W83728  10.160  38.998  14.926
17298W        W83729  41.923  14.548   2.392
17299W        W83730  11.001   8.408  13.511
17300W        W83731  16.064  17.472   2.680
17301W        W83732  17.866   3.757   5.179
17302W        W83733   4.089   8.172  13.744
17303W        W83734  34.422  14.242  12.036
17304W        W83735   2.926  13.615  14.987
17305W        W83736  11.887  44.529   4.996
17306W        W83737  24.686  12.302  10.829
17307W        W83738   2.842  37.927   1.673
17308W        W83739  30.603  40.753   1.362
17309W        W83740  20.961  26.024   2.117
17310W        W83741  15.257  40.340   2.012
17311W        W83742  16.071   7.338   1.466
17312W        W83743   1.830   0.150   4.242
17313W        W83744  14.769  18.504   3.663
17314W        W83745  34.352  22.683   0.010
17315W        W83746   9.885   5.599   0.726
17316W        W83747  40.764  29.040  12.612
17317W        W83748  15.362  14.015  10.247
17318W        W83749  36.447   6.620  14.346
17319W        W83750  28.558  12.482   3.694
17320W        W83751  37.830  12.261   0.353
17321W        W83752  15.677  39.957  10.735
17322W        W83753  14.165  36.057   2.753
17323W        W83754  39.524  11.961   4.808
17324W        W83755   0.730  44.790   3.598
17325W        W83756  20.217  11.013  12.432
17326W        W83757  25.520   2.501  14.906
17327W        W83758  31.133   7.929   2.227
17328W        W83759  12.427   1.362   1.760
17329W        W83760  37.294   7.925   5.049
17330W        W83761  43.976  18.296  11.550
17331W        W83762  30.609  23.834   0.940
17332W        W83763  15.227  26.562  10.540
17333W        W83764   2.714  15.601  14.829
17334W        W83765  15.782   1.117   2.924
17335W        W83766  33.824   6.851   4.163
17336W        W83767  30.195  18.580  12.587
17337W        W83768   6.286  11.781   0.487
17338W        W83769  12.678  13.586   0.188
17339W        W83770  34.609  42.838   4.618
17340W        W83771  28.979  19.734  12.932
17341W        W83772  22.334  36.439  14.818
17342W        W83773  29.041  41.809   4.348
17343W        W83774  44.414  11.764  12.850
17344W        W83775  42.224  26.163   4.502
17345W        W83776  44.936   9.407  12.854
17346W        W83777   3.996   5.251   0.889
17347W        W83778  25.333  10.514  11.109
17348W        W83779  11.475  30.911   3.806
17349W        W83780  36.766  31.436   2.978
17350W        W83781  19.290  26.433  13.115
17351W        W83782  24.622  24.088  11.609
17352W        W83783  17.155   8.709  13.729
17353W        W83784   2.117  31.674  14.471
17354W        W83785   5.677   9.897  12.986
17355W        W83786   1.513  17.710   0.713
17356W        W83787   9.350  28.930   1.407
17357W        W83788  21.003   2.907  14.850
17358W        W83789  26.399  20.924   1.335
17359W        W83790  22.147  15.161   4.527
17360W        W83791  37.880  28.131   0.372
17361W        W83792  21.234   6.849   1.432
17362W        W83793  12.352  42.758  14.378
17363W        W83794  36.949  37.352   3.758
17364W        W83795  31.563  27.860  13.162
17365W        W83796  10.862   8.257  12.970
17366W        W83797   8.689  28.060   4.602
17367W        W83798  29.849   8.807  12.640
17368W        W83799  21.669  23.180  13.320
17369W        W83800  26.203  39.379  14.986
17370W        W83801  39.801   1.442   0.703
17371W        W83802  28.159  39.586  12.537
17372W        W83803   5.018  24.571   3.713
17373W        W83804  41.895  30.395   4.506
17374W        W83805  14.108   6.386  11.034
17375W        W83806   2.944  10.745   0.261
17376W        W83807  21.627  37.286   4.142
17377W        W83808  10.659   7.773  13.134
17378W        W83809   3.961   1.965   2.459
17379W        W83810  21.985  24.951  11.960
17380W        W83811  19.705   7.488   3.636
17381W        W83812  34.209  16.595   1.681
17382W        W83813  30.700   6.276   2.276
17383W        W83814  28.013  44.028  13.953
17384W        W83815   8.573  32.211  13.946
17385W        W83816   9.326  28.698   1.864
17386W        W83817  39.000  11.692  12.059
17387W        W83818  18.184  21.262   1.321
17388W        W83819  13.083   1.874  14.506
17389W        W83820  35.998  37.649   3.220
17390W        W83821   8.121  14.152  12.553
17391W        W83822  32.549  24.683   4.046
17392W        W83823   5.725  24.141  13.424
17393W        W83824  19.442   0.360   0.120
17394W        W83825  43.828   3.314  13.686
17395W        W83826  32.595  18.803  10.919
17396W        W83827  17.965  17.161   0.307
17397W        W83828  27.299  41.594  12.890
17398W        W83829  32.695  10.887  11.043
17399W        W83830  43.583   7.233   2.435
17400W        W83831  10.979  38.115   3.922
17401W        W83832  37.072  22.274  13.848
17402W        W83833   1.271  25.561   4.156
17403W        W83834  44.031  29.531   1.652
17404W        W83835   4.783   0.496   2.294
17405W        W83836  12.753  35.849  13.913
17406W        W83837   2.314   5.171   2.691
17407W        W83838  35.589  37.878   2.109
17408W        W83839  12.858  41.555  13.874
17409W        W83840  14.882  12.793  13.000
17410W        W83841  15.241  44.277   2.919
17411W        W83842  36.466  21.694   4.605
17412W        W83843  37.511  14.132  11.637
17413W        W83844  41.263  31.983   4.279
17414W        W83845  12.217   5.431  11.633
17415W        W83846  12.725  24.284   3.644
17416W        W83847  31.665  24.803   4.255
17417W        W83848  15.621   9.254   0.319
17418W        W83849  24.977  36.862   3.247
17419W        W83850  40.782  14.831   3.158
17420W        W83851  16.312  40.878   3.550
17421W        W83852  17.406  14.172  12.951
17422W        W83853   9.540  34.926  14.025
17423W        W83854   2.890   3.943  12.164
17424W        W83855  27.195  15.604  14.076
17425W        W83856  40.614  44.592   4.109
17426W        W83857  29.088  30.125   4.496
17427W        W83858  12.132  36.133  10.872
17428W        W83859  23.360   5.551  11.183
17429W        W83860   9.759  23.450   4.138
17430W        W83861  39.912   4.000  13.375
17431W        W83862  10.298  41.331  10.202
17432W        W83863   4.272  43.470   2.874
17433W        W83864   8.601  21.514   3.636
17434W        W83865  37.867  14.385   3.251
17435W        W83866  21.273  43.852   4.092
17436W        W83867  23.299  19.791  14.012
17437W        W83868  28.767   9.702  12.091
17438W        W83869   7.646  11.327   2.753
17439W        W83870  13.326  28.209  10.697
17440W        W83871  41.291  36.397  11.143
17441W        W83872  42.841  35.459   4.561
17442W        W83873  31.570   5.252   1.876
17443W        W83874   3.465  43.479  11.183
17444W        W83875  13.645  16.618  14.754
17445W        W83876  42.242  21.196   3.735
17446W        W83877  43.091  32.563  13.014
17447W        W83878  17.251   5.148   0.976
17448W        W83879  13.487  13.786   1.854
17449W        W83880  30.204  24.518  11.495
17450W        W83881  12.168  42.384  13.537
17451W        W83882  11.927   3.353  12.980
17452W        W83883  15.657   1.445  12.405
17453W        W83884  15.091  16.667   0.925
17454W        W83885  15.801  26.583   0.874
17455W        W83886  40.524   3.694   2.739
17456W        W83887  33.404  26.766  13.346
17457W        W83888  41.340   9.154   2.188
17458W        W83889   4.127  34.679  14.484
17459W        W83890   1.068  13.876  12.035
17460W        W83891  18.090  38.271  13.068
17461W        W83892  30.205  14.651  10.755
17462W        W83893   8.622  10.642  14.895
17463W        W83894   5.344   5.548  14.852
17464W        W83895  36.389   9.668  11.804
17465W        W83896  40.046  44.357   0.927
17466W        W83897  10.913  13.271   2.760
17467W        W83898  36.046  17.500   3.710
17468W        W83899  11.735  43.426   4.731
17469W        W83900  39.813   3.440   0.268
17470W        W83901  15.560  20.032   4.891
17471W        W83902  35.117  32.953   0.677
17472W        W83903  28.053  13.201   1.285
17473W        W83904  34.500  29.521  14.254
17474W        W83905  23.566   0.976   0.918
17475W        W83906  31.519  39.333   3.535
17476W        W83907  24.951  31.434  12.145
17477W        W83908  13.156  40.040   2.255
17478W        W83909  42.879  23.240   0.370
17479W        W83910  24.061  33.883  14.585
17480W        W83911  40.250  30.329  11.598
17481W        W83912  12.028  40.871  13.037
17482W        W83913  10.689   8.921  14.849
17483W        W83914  18.292  12.144   3.262
17484W        W83915  16.567  22.302  14.048
17485W        W83916  31.513   9.876   1.103
17486W        W83917  34.981  30.697   1.927
17487W        W83918  18.978   0.131   3.130
17488W        W83919   7.761  30.918  12.982
17489W        W83920   0.044  40.489   3.233
17490W        W83921  31.060  18.109  14.018
17491W        W83922   0.227   5.122  12.080
17492W        W83923  27.204  16.285  12.148
17493W        W83924   9.131  25.515   3.255
17494W        W83925  35.060  34.104   5.154
17495W        W83926  13.370  16.222  14.924
17496W        W83927  11.761   3.761   3.437
17497W        W83928  15.237   8.615   1.089
17498W        W83929  12.556  31.431  12.614
17499W        W83930   2.271  26.958  12.122
17500W        W83931  15.880  29.983   5.005
17501W        W83932  24.091  42.332  11.061
17502W        W83933   8.928  33.975  14.529
17503W        W83934  39.694  23.322   3.101
17504W        W83935  30.444  34.911  13.054
17505W        W83936  20.578  29.928  11.865
17506W        W83937  26.440  29.530   5.082
17507W        W83938  40.292   3.339   4.957
17508W        W83939  43.719  11.630   4.235
17509W        W83940   7.790   5.282   5.131
17510W        W83941  14.747  44.983  10.497
17511W        W83942  20.339  10.693  12.060
17512W        W83943  14.273  38.445   3.306
17513W        W83944  30.640  11.196  11.079
17514W        W83945  17.106   3.159  14.435
17515W        W83946  38.629  15.289   2.922
17516W        W83947  21.867  20.186  10.788
17517W        W83948  28.635   5.162   3.994
17518W        W83949  17.482  28.004   3.228
17519W        W83950  32.760  24.126   0.315
17520W        W83951  25.712  23.905   1.088
17521W        W83952  24.019  15.853  12.004
17522W        W83953  15.424  28.894  13.793
17523W        W83954  40.876  10.341  12.024
17524W        W83955  25.912   4.476   0.816
17525W        W83956  33.586  15.684   4.459
17526W        W83957  17.502  41.445   0.682
17527W        W83958   1.846  23.411   1.855
17528W        W83959  10.167  21.329  14.790
17529W        W83960  22.797  15.283  14.931
17530W        W83961  36.745  26.004   4.507
17531W        W83962  16.368  14.742   0.836
17532W        W83963  21.536  17.847  13.803
17533W        W83964  43.888  14.614   4.925
17534W        W83965   5.531  20.252   2.323
17535W        W83966  29.478   3.773  13.775
17536W        W83967  15.031  32.271   4.850
17537W        W83968  11.164  40.989  11.607
17538W        W83969  35.226  21.281  13.519
17539W        W83970  13.934  34.152  12.570
17540W        W83971  28.357  41.312   0.878
17541W        W83972  43.053  17.581   0.952
17542W        W83973  31.515  18.564  10.648
17543W        W83974  25.051  21.818  14.951
17544W        W83975  41.588   4.750  13.573
17545W        W83976   1.830  41.105   1.712
17546W        W83977  24.185  28.167  12.153
17547W        W83978  15.638  20.031  10.739
17548W        W83979  41.262  31.765  10.659
17549W        W83980  24.272   3.298   3.243
17550W        W83981  40.010  19.052  11.361
17551W        W83982   9.812  38.489  10.612
17552W        W83983  14.619  34.287  11.519
17553W        W83984  42.772  44.905  13.014
17554W        W83985   9.488   0.765   4.019
17555W        W83986  26.091  42.735   4.316
17556W        W83987  27.954   4.665   9.729
17557W        W83988  41.274  43.933  13.045
17558W        W83989   4.219  10.538   3.644
17559W        W83990  19.618  18.497   3.595
17560W        W83991  32.076   2.436  14.704
17561W        W83992  40.806  35.042  13.467
17562W        W83993   3.438   3.751   4.872
17563W        W83994  37.697  28.310  14.925
17564W        W83995   4.459  40.906  11.464
17565W        W83996   6.235  30.502   4.160
17566W        W83997   6.338  21.197  12.864
17567W        W83998  16.255  13.441   0.423
17568W        W83999  13.217  30.942   4.464
17569W        W84000  23.619  14.080  11.688
17570W        W84001  36.619  33.671   0.918
17571W        W84002   3.331   3.969   1.273
17572W        W84003  39.948  19.832   1.747
17573W        W84004  13.968   3.440  12.224
17574W        W84005  41.792  13.807   1.783
17575W        W84006  44.844  35.298   1.893
17576W        W84007  12.594  12.327  11.673
17577W        W84008  11.943  15.341   4.576
17578W        W84009  22.991  36.920   3.204
17579W        W84010  28.226  28.016   1.008
17580W        W84011  27.643   7.736  12.401
17581W        W84012   0.589  23.469   1.733
17582W        W84013   5.646  24.059   1.483
17583W        W84014  41.258  32.517  14.980
17584W        W84015   8.777   9.724   1.883
17585W        W84016  22.566  14.315  14.028
17586W        W84017  16.785  11.787  14.536
17587W        W84018  30.437  25.477   4.634
17588W        W84019   9.096  17.571   3.788
17589W        W84020  25.983  18.509   4.534
17590W        W84021  11.820   2.927  12.039
17591W        W84022   5.967   0.461  14.916
17592W        W84023   6.739  13.533   3.752
17593W        W84024   3.968  35.872   1.997
17594W        W84025   8.239  12.435  14.774
17595W        W84026  44.789  42.723  12.939
17596W        W84027  35.871  23.256   3.371
17597W        W84028  10.952  18.190   3.693
17598W        W84029  41.739  17.103  12.819
17599W        W84030  10.596  35.424   3.807
17600W        W84031  34.260  39.286  10.140
17601W        W84032  36.666   2.815   1.703
17602W        W84033  33.416  21.243   2.870
17603W        W84034   4.929  24.190  12.856
17604W        W84035  33.061   5.700   3.902
17605W        W84036   5.251  23.976  13.796
17606W        W84037  17.191  11.440   4.044
17607W        W84038   1.640  29.968   3.623
17608W        W84039  15.341  28.176   2.387
17609W        W84040   8.515  24.148  11.607
17610W        W84041   8.380   5.882   2.348
17611W        W84042  42.276  20.565   3.120
17612W        W84043  33.055  11.811   1.471
17613W        W84044   6.459   3.254   3.711
17614W        W84045  21.914   0.788  14.828
17615W        W84046   2.501   6.726  14.750
17616W        W84047  16.827  17.786  12.384
17617W        W84048  32.597  41.993   1.183
17618W        W84049   5.253  25.594   2.817
17619W        W84050   7.592  24.206  13.697
17620W        W84051   5.666  11.811   0.964
17621W        W84052  27.013  16.858   0.530
17622W        W84053  29.073  19.937  13.636
17623W        W84054  30.904  15.773   2.233
17624W        W84055  30.023   6.724  11.636
17625W        W84056  33.600  41.003   3.095
17626W        W84057   1.917  24.967  14.886
17627W        W84058   4.225  32.700   4.449
17628W        W84059  11.395  24.604   1.326
17629W        W84060  14.112  18.693  13.692
17630W        W84061  10.854  16.683  10.945
17631W        W84062  33.081   5.751  11.441
17632W        W84063   0.946  35.432   9.971
17633W        W84064  14.763  33.624  14.442
17634W        W84065  15.232  38.515  13.937
17635W        W84066  40.340   4.857  14.354
17636W        W84067  38.546  20.132  10.807
17637W        W84068  36.001  30.212  14.384
17638W        W84069   0.663  41.290  13.578
17639W        W84070  31.038  27.082   4.207
17640W        W84071   9.947  22.625   4.530
17641W        W84072  23.457   8.151   1.855
17642W        W84073   4.542  17.240  13.816
17643W        W84074   0.326   9.464   3.947
17644W        W84075  22.653   5.468  10.763
17645W        W84076  13.349   0.474   4.552
17646W        W84077   4.786  25.443   9.932
17647W        W84078  32.568  26.159  12.471
17648W        W84079   0.718  28.321   1.059
17649W        W84080  41.985  26.997  12.924
17650W        W84081  19.883  18.110  14.297
17651W        W84082  15.141  19.233   4.469
17652W        W84083  19.411   3.964  13.009
17653W        W84084  39.772   7.109  14.972
17654W        W84085  24.723   2.273   4.314
17655W        W84086  41.379  24.998   1.572
17656W        W84087   4.325  24.493   2.696
17657W        W84088  41.552   4.400  14.484
17658W        W84089   2.158  19.809   0.071
17659W        W84090  30.348  43.749  11.127
17660W        W84091  18.079  23.615   3.383
17661W        W84092  36.355  26.518  11.658
17662W        W84093  42.814  12.403  14.717
17663W        W84094  26.646   3.940  12.525
17664W        W84095  30.071  22.998  11.605
17665W        W84096  41.407  30.730  10.640
17666W        W84097  14.475   7.685   4.837
17667W        W84098  32.094  12.799   2.436
17668W        W84099   2.522  25.136  12.853
17669W        W84100  12.862  35.487   1.192
17670W        W84101   7.125   5.305  12.018
17671W        W84102  38.377   5.884   2.732
17672W        W84103   4.595  28.470   3.233
17673W        W84104  35.698   6.790   3.086
17674W        W84105  27.630  23.087   2.077
17675W        W84106  38.622  23.302   0.397
17676W        W84107  21.992   7.813  14.094
17677W        W84108  28.733  17.039   1.751
17678W        W84109  31.480   2.239  11.361
17679W        W84110  38.762  33.301   3.639
17680W        W84111   0.249  13.014  14.807
17681W        W84112  35.084  19.765  12.450
17682W        W84113  42.183  21.198   2.878
17683W        W84114   2.276   6.771  14.271
17684W        W84115  42.361  24.931   4.400
17685W        W84116  19.070  14.583   0.488
17686W        W84117   6.230  34.590  13.521
17687W        W84118  36.999  22.451   4.089
17688W        W84119   9.617  29.370   0.064
17689W        W84120   6.229  20.252  14.835
17690W        W84121  44.309  10.931  14.015
17691W        W84122  33.235  34.432  11.563
17692W        W84123  43.249  43.853  10.474
17693W        W84124  26.462  21.254  14.382
17694W        W84125  24.137  39.429  14.957
17695W        W84126  41.374  39.789   2.875
17696W        W84127   8.547   4.024   1.409
17697W        W84128   1.319  23.665   0.816
17698W        W84129  12.082   5.905  12.796
17699W        W84130  37.450  43.410  11.216
17700W        W84131   2.795  34.339  13.455
17701W        W84132  41.166  37.162   4.558
17702W        W84133   2.006  12.812  10.758
17703W        W84134   3.703   4.902  12.601
17704W        W84135  36.033  36.114   1.946
17705W        W84136  18.030  24.051   3.089
17706W        W84137  19.744  12.770  12.215
17707W        W84138  37.718   3.787   1.623
17708W        W84139  41.885  32.749   3.690
17709W        W84140  40.098  28.391  11.630
17710W        W84141  18.098  28.415   2.428
17711W        W84142  36.710  28.608   4.342
17712W        W84143  40.623  27.117   2.540
17713W        W84144   6.469  12.671  13.052
17714W        W84145  20.682  23.572   1.518
17715W        W84146  44.271  32.965  13.407
17716W        W84147  17.543  33.847   1.900
17717W        W84148  44.796  10.371  11.424
17718W        W84149  40.466  26.543   3.264
17719W        W84150   1.963   9.260  12.611
17720W        W84151  40.106   6.836  12.496
17721W        W84152  34.928   5.420  13.890
17722W        W84153  40.448  37.061   2.846
17723W        W84154  15.749   8.929  11.149
17724W        W84155   8.816  26.970   1.922
17725W        W84156  43.263   1.681  11.903
17726W        W84157  12.885  14.197  14.611
17727W        W84158  23.284  34.553  13.231
17728W        W84159  23.063   6.003   4.849
17729W        W84160   4.685  12.413   4.555
17730W        W84161  28.703   6.702   3.243
17731W        W84162  22.522   0.772   4.661
17732W        W84163   7.860   4.976  13.029
17733W        W84164  35.008  27.125   0.861
17734W        W84165   8.575  12.792   3.572
17735W        W84166   2.828   1.763   3.434
17736W        W84167  23.909  34.911  11.907
17737W        W84168   6.409  24.113  10.731
17738W        W84169  25.633   5.093   3.279
17739W        W84170  30.537  15.684  14.664
17740W        W84171  12.935  30.584   4.976
17741W        W84172  29.054  21.473  10.411
17742W        W84173  38.845  43.021   2.384
17743W        W84174  24.007   1.871  13.883
17744W        W84175  12.060  24.148   0.957
17745W        W84176   1.645  12.314  14.787
17746W        W84177  15.458  15.040   0.762
17747W        W84178  36.610   0.387   0.245
17748W        W84179   6.962   3.785   3.211
17749W        W84180  25.613  15.074   0.353
17750W        W84181  37.658  34.727  14.189
17751W        W84182  24.180  26.036  14.678
17752W        W84183  44.778  40.286  13.065
17753W        W84184   0.660  29.357  14.437
17754W        W84185  29.579  10.577   1.262
17755W        W84186   7.662  23.146  11.126
17756W        W84187  40.894  31.603  12.207
17757W        W84188  22.427  17.558   4.524
17758W        W84189  43.125  20.674  14.900
17759W        W84190  28.730  27.447   4.083
17760W        W84191   0.989  14.610  12.514
17761W        W84192  34.984  15.128  14.270
17762W        W84193  42.482   0.878   4.248
17763W        W84194  32.383  29.880   4.271
17764W        W84195  19.139  26.059   0.422
17765W        W84196  40.546   7.790  14.703
17766W        W84197  25.144   0.236   1.741
17767W        W84198  35.443  23.653  12.843
17768W        W84199  44.060   5.133  14.886
17769W        W84200  27.531  11.290   0.234
17770W        W84201  14.058  37.206  14.168
17771W        W84202  12.532  20.017  14.427
17772W        W84203  11.971  10.330  11.522
17773W        W84204  32.869  35.566  13.946
17774W        W84205  25.102   6.302  13.365
17775W        W84206  13.365   5.224  12.609
17776W        W84207  40.534  20.620   1.727
17777W        W84208  34.899  25.286   1.882
17778W        W84209  19.782  25.662  12.001
17779W        W84210  33.972   9.297  10.892
17780W        W84211  16.112  16.870  11.440
17781W        W84212  36.341  16.627  12.081
17782W        W84213   2.442  16.544  14.363
17783W        W84214  15.498  27.843   4.511
17784W        W84215   1.529  42.893   2.822
17785W        W84216   7.366  35.014  14.521
17786W        W84217  10.669  30.455   0.307
17787W        W84218  41.961  10.577   4.866
17788W        W84219  11.134  33.763  11.105
17789W        W84220   5.465  37.818   4.495
17790W        W84221   9.225  26.141  14.644
17791W        W84222  16.155  23.048  13.882
17792W        W84223  17.220  43.802  14.329
17793W        W84224   4.673  14.204  12.115
17794W        W84225  37.428   3.447  14.409
17795W        W84226   5.819  28.651  11.173
17796W        W84227  27.975   7.878  13.552
17797W        W84228   6.848  39.534  11.587
17798W        W84229  11.674  15.903   1.712
17799W        W84230  14.742  23.500  13.325
17800W        W84231  18.025  10.624   2.223
17801W        W84232  12.166   3.408  10.928
17802W        W84233  28.036  21.203   1.909
17803W        W84234  34.580  32.344   0.275
17804W        W84235  15.583  13.862  14.018
17805W        W84236  24.712  32.172   3.249
17806W        W84237  31.134  44.209   3.724
17807W        W84238  38.330  10.627  12.477
17808W        W84239   6.287   4.240  12.905
17809W        W84240  23.997  33.992  11.950
17810W        W84241   4.817  16.663   3.902
17811W        W84242  31.691  14.857   4.741
17812W        W84243  14.848  25.164   1.465
17813W        W84244  13.088  38.285  11.187
17814W        W84245   2.827  16.637   2.111
17815W        W84246  43.603   3.211   4.139
17816W        W84247   0.938  43.747  14.888
17817W        W84248  36.812  38.590  11.538
17818W        W84249  37.855  14.281   4.062
17819W        W84250  13.378  12.103   1.051
17820W        W84251   0.758  34.552  14.487
17821W        W84252  10.767  37.086  10.649
17822W        W84253  13.382  15.708   0.905
17823W        W84254  20.525  31.807  13.537
17824W        W84255  30.561  33.153  10.354
17825W        W84256  37.884  39.696   1.163
17826W        W84257  44.239  11.367   3.680
17827W        W84258  20.670  26.628   5.046
17828W        W84259  39.604  33.161   4.180
17829W        W84260  33.596   9.468   4.182
17830W        W84261   0.563  40.133   3.954
17831W        W84262  32.925  44.264  13.015
17832W        W84263  13.912  40.482   1.433
17833W        W84264  25.258  32.879  12.454
17834W        W84265   0.090  32.505   1.593
17835W        W84266  38.063   2.444   1.301
17836W        W84267  13.496  32.905  12.870
17837W        W84268  44.477  42.572  14.333
17838W        W84269  35.919  21.183   0.740
17839W        W84270  41.159  44.114   4.110
17840W        W84271  22.940  42.334   1.174
17841W        W84272   7.809   8.613  12.124
17842W        W84273   6.477  15.213   0.846
17843W        W84274  17.209  30.175  12.152
17844W        W84275  19.279   4.829   4.111
17845W        W84276  22.202  36.567   1.296
17846W        W84277  14.553  43.155  13.084
17847W        W84278  14.947   4.981  14.033
17848W        W84279  42.991  41.996  10.749
17849W        W84280  36.627  29.125   3.209
17850W        W84281  28.089  10.335  11.771
17851W        W84282  38.035  37.627  14.476
17852W        W84283  35.019   0.917   1.188
17853W        W84284   0.521  20.407   0.515
17854W        W84285   8.181   0.637  12.212
17855W        W84286   7.202  14.295  11.532
17856W        W84287  42.265  23.072   0.952
17857W        W84288  14.158  29.504   0.243
17858W        W84289   1.333   3.316  14.355
17859W        W84290  23.778  32.511   1.820
17860W        W84291  29.816  19.359   1.284
17861W        W84292   1.778  41.424  11.508
17862W        W84293   7.296  40.863  10.728
17863W        W84294   6.405   0.938  12.903
17864W        W84295   0.680  37.837   2.161
17865W        W84296  11.040  41.532   3.316
17866W        W84297  40.902  12.542  13.070
17867W        W84298  17.977   6.995  11.710
17868W        W84299  44.710  17.479  11.057
17869W        W84300  24.103  39.555  12.513
17870W        W84301   2.396  25.588   0.284
17871W        W84302  23.890  33.406  13.276
17872W        W84303   8.882  20.502   3.761
17873W        W84304  34.653  38.834  12.830
17874W        W84305  43.040  40.781   2.682
17875W        W84306  27.721   5.312  14.363
17876W        W84307  27.431  21.073  14.453
17877W        W84308  30.516  17.253   1.255
17878W        W84309  18.190  24.403  10.080
17879W        W84310  25.773   6.254  10.562
17880W        W84311  37.329   7.827  13.455
17881W        W84312  11.740  41.384   4.512
17882W        W84313   3.982  14.724  12.508
17883W        W84314  11.326   8.827  13.038
17884W        W84315   5.284  30.592  11.609
17885W        W84316  42.008  28.457  12.498
17886W        W84317  41.055  33.096   2.202
17887W        W84318  21.149  23.511   3.074
17888W        W84319  13.294  22.688  14.037
17889W        W84320  41.420  12.250   0.231
17890W        W84321  17.891  39.576   2.358
17891W        W84322  34.839  18.320  13.501
17892W        W84323  39.798  28.337  13.445
17893W        W84324  44.974  25.490  12.612
17894W        W84325  38.058  24.214  14.425
17895W        W84326  31.019  42.065   2.777
17896W        W84327  30.704   5.964  13.583
17897W        W84328   9.198   5.816  11.775
17898W        W84329  35.472  36.563   0.321
17899W        W84330   4.733  25.075  11.221
17900W        W84331  35.998  21.856  13.244
17901W        W84332  12.053  40.785  11.170
17902W        W84333  11.175   0.312   1.736
17903W        W84334  31.181  14.270   0.270
17904W        W84335  17.123   9.353  13.561
17905W        W84336   1.022  33.564   4.340
17906W        W84337   9.792  23.374  13.907
17907W        W84338  29.274  22.584  12.524
17908W        W84339  13.935  10.642  10.653
17909W        W84340  43.866   1.291  11.606
17910W        W84341  24.664  12.570   0.832
17911W        W84342  30.675  15.426  12.042
17912W        W84343  18.077   0.280  12.993
17913W        W84344  37.710  19.909  11.232
17914W        W84345   4.012  31.563  14.546
17915W        W84346   7.441  38.385   2.687
17916W        W84347  26.989  19.577  14.773
17917W        W84348  27.163  23.524  11.581
17918W        W84349  14.895  34.154  11.114
17919W        W84350  35.197  11.135  10.170
17920W        W84351  33.058  23.801  11.621
17921W        W84352  35.984   2.829  13.562
17922W        W84353  13.203  42.705  11.147
17923W        W84354  42.718  44.408   1.116
17924W        W84355  18.844   3.329   1.476
17925W        W84356   0.449   4.366  14.807
17926W        W84357  34.669   4.417  14.246
17927W        W84358  40.931   6.263   0.588
17928W        W84359  44.297  21.223   1.245
17929W        W84360  14.789  17.393   1.844
17930W        W84361  39.519   2.296   1.382
17931W        W84362  42.927  20.219   1.371
17932W        W84363  30.447  35.042   0.788
17933W        W84364  13.881  31.268  14.837
17934W        W84365  22.470   7.792   4.757
17935W        W84366   4.347  32.826  14.535
17936W        W84367  20.581  20.288  11.499
17937W        W84368  22.170  43.169  14.856
17938W        W84369  17.721  27.207   3.779
17939W        W84370   3.212  24.178   0.417
17940W        W84371  32.622   7.872   1.318
17941W        W84372  36.578  36.940  11.949
17942W        W84373  13.803  20.759   3.269
17943W        W84374   1.503  33.259  14.037
17944W        W84375  43.439   1.667   4.725
17945W        W84376   9.132  32.618   4.337
17946W        W84377  34.165   4.902  13.943
17947W        W84378  18.544  26.313   0.752
17948W        W84379  24.124  29.182  14.352
17949W        W84380  31.894   8.228  12.067
17950W        W84381   4.766  37.667   0.744
17951W        W84382   1.050  17.367   1.362
17952W        W84383  42.439   6.825  11.441
17953W        W84384   2.971  21.584   3.198
17954W        W84385  12.188  26.677   5.439
17955W        W84386  19.958   4.566  11.633
17956W        W84387  42.560  32.123  11.577
17957W        W84388   3.710  32.000  13.385
17958W        W84389  23.335  25.694   0.928
17959W        W84390  40.529   7.462   2.843
17960W        W84391  28.180  26.242   0.042
17961W        W84392  19.566  42.153   4.990
17962W        W84393  11.178   5.523   3.020
17963W        W84394  36.084  32.392   1.819
17964W        W84395  32.505   1.897  13.467
17965W        W84396  28.181  23.607  11.567
17966W        W84397  24.087  35.657   1.619
17967W        W84398  17.308  23.756  13.991
17968W        W84399   1.361  16.336  12.441
17969W        W84400   5.178   4.785   0.498
17970W        W84401   4.921  37.497   4.203
17971W        W84402  22.669  10.612   2.496
17972W        W84403  14.726  40.873  13.066
17973W        W84404  29.600  22.098   2.459
17974W        W84405  32.418  44.278  13.949
17975W        W84406  36.828  18.328  13.403
17976W        W84407  44.405  14.647  11.828
17977W        W84408  37.692  36.903   0.926
17978W        W84409   2.482  30.295   3.661
17979W        W84410  20.600  14.512   1.913
17980W        W84411  44.848  31.917  11.598
17981W        W84412   1.313  33.851  10.544
17982W        W84413   2.889  26.900  10.584
17983W        W84414   9.530   7.360   2.154
17984W        W84415  13.117  13.112  11.639
17985W        W84416  29.406  34.536  10.745
17986W        W84417  13.108   1.459  13.855
17987W        W84418  10.195  10.928   4.525
17988W        W84419  39.593  15.360  13.671
17989W        W84420  36.522   2.701  12.431
17990W        W84421  39.301  42.928  10.822
17991W        W84422   7.813  21.463  14.279
17992W        W84423  33.187  25.708   4.198
17993W        W84424  33.230  29.679  14.661
17994W        W84425  43.850  18.160  12.488
17995W        W84426  36.540  41.810   2.780
17996W        W84427  22.144  25.192  10.676
17997W        W84428   7.731  23.076  12.977
17998W        W84429  11.155  19.581  14.938
17999W        W84430  39.916  29.912  13.771
18000W        W84431   9.502  43.515   4.178
18001W        W84432  35.657  44.388   1.466
18002W        W84433   2.442  41.715   3.377
18003W        W84434  31.469  29.039   2.049
18004W        W84435  43.341  39.963   4.923
18005W        W84436  36.352   3.191  12.379
18006W        W84437  42.462   7.780   0.254
18007W        W84438  22.429   4.419   9.650
18008W        W84439  17.071   4.948  13.236
18009W        W84440  15.133  42.961   1.738
18010W        W84441  26.895  11.048   1.764
18011W        W84442   0.294  14.011  12.505
18012W        W84443  13.706  27.990   3.459
18013W        W84444  22.910  21.353  13.925
18014W        W84445  12.156   3.938  12.892
18015W        W84446   6.722  37.805   4.206
18016W        W84447  41.420  24.473  11.490
18017W        W84448  25.306   0.433  11.652
18018W        W84449   9.126  34.624   2.717
18019W        W84450  43.573  33.306  14.228
18020W        W84451  26.908  38.538  12.633
18021W        W84452  26.608  28.392  12.703
18022W        W84453  13.116  21.640   0.573
18023W        W84454   7.165   0.960  10.658
18024W        W84455  36.941  16.035  13.353
18025W        W84456  34.670   4.426   1.598
18026W        W84457  15.276   4.961   1.868
18027W        W84458   5.637  20.786   2.410
18028W        W84459  32.167   9.802  14.303
18029W        W84460  27.812  21.002   0.722
18030W        W84461   6.512  43.337  11.524
18031W        W84462  38.490   5.680   1.774
18032W        W84463  39.079  44.709   3.148
18033W        W84464  12.246  38.133   1.149
18034W        W84465   9.344  23.545   0.479
18035W        W84466   4.922   2.834  12.855
18036W        W84467  23.558   3.953  14.231
18037W        W84468  18.234  34.926  11.623
18038W        W84469  21.541  12.738  14.021
18039W        W84470  21.252  23.658   1.799
18040W        W84471  44.596  44.486   3.748
18041W        W84472  11.342   9.298  14.787
18042W        W84473  35.507  41.305   1.051
18043W        W84474  19.945  24.626  14.411
18044W        W84475  19.796   9.119   1.736
18045W        W84476  15.591  22.313   1.137
18046W        W84477  29.550   5.888  12.400
18047W        W84478   7.752  24.689  11.626
18048W        W84479  40.825  31.005  11.611
18049W        W84480  12.612   5.854  12.524
18050W        W84481  13.736  31.938  14.495
18051W        W84482  36.876  37.901   2.365
18052W        W84483  18.362  22.518   2.205
18053W        W84484  17.345  41.799  14.421
18054W        W84485  26.670  19.583   0.716
18055W        W84486  36.041  26.239   1.922
18056W        W84487   3.627   1.388   0.878
18057W        W84488  40.453  11.923   4.572
18058W        W84489  16.185  14.608  12.504
18059W        W84490  33.616  14.298  11.532
18060W        W84491  39.427  11.210   3.664
18061W        W84492  18.697   9.810   2.170
18062W        W84493  16.357  11.135   2.685
18063W        W84494   6.267  39.879  11.583
18064W        W84495   3.085  14.438   0.334
18065W        W84496  27.356  33.885   2.651
18066W        W84497  17.882  12.670   1.739
18067W        W84498  12.350  20.993  13.280
18068W        W84499  19.305  12.947  10.199
18069W        W84500  37.953  42.835  12.247
18070W        W84501  11.719   2.382   1.214
18071W        W84502  43.455  26.413   2.712
18072W        W84503  30.771  35.502   5.050
18073W        W84504  29.424  44.894   1.035
18074W        W84505  10.516   0.701  13.790
18075W        W84506  25.933  40.450  12.572
18076W        W84507  18.162  24.567  13.156
18077W        W84508   4.912  28.970  14.094
18078W        W84509  20.003  30.950  14.991
18079W        W84510  36.325   5.231   0.862
18080W        W84511  42.447   1.030   1.677
18081W        W84512   7.831   5.092  10.040
18082W        W84513  39.477   6.978   3.613
18083W        W84514   6.246   8.688   3.776
18084W        W84515   1.473  39.087   1.802
18085W        W84516  28.949  21.149  11.200
18086W        W84517   5.987  17.352   0.891
18087W        W84518  11.253   7.297  11.482
18088W        W84519  39.824   8.690   3.198
18089W        W84520  23.688  44.757   1.174
18090W        W84521  27.502  10.124   0.907
18091W        W84522  13.571  25.865   1.437
18092W        W84523   1.757   9.528  14.935
18093W        W84524  42.145  41.245   2.950
18094W        W84525  31.403  15.712   3.609
18095W        W84526  40.667  41.980   2.543
18096W        W84527  12.611  40.562   1.703
18097W        W84528  15.299  28.690   2.267
18098W        W84529  19.255  43.383   2.656
18099W        W84530   8.767   7.526  14.781
18100W        W84531   3.995  35.919  11.567
18101W        W84532  41.836   1.665  12.040
18102W        W84533  36.133  19.734  10.551
18103W        W84534  38.087  26.704   2.613
18104W        W84535  16.186  21.226   0.906
18105W        W84536   5.857   8.932  13.852
18106W        W84537  30.124  38.026   1.925
18107W        W84538  11.362  14.176  12.577
18108W        W84539  22.806   9.875  12.003
18109W        W84540   5.155  15.118   0.514
18110W        W84541   7.793  14.687   2.702
18111W        W84542   7.923   9.280  14.287
18112W        W84543   8.275  41.840   3.750
18113W        W84544  11.575  27.259   1.909
18114W        W84545  36.063  13.617   3.697
18115W        W84546  26.761  43.711  13.501
18116W        W84547  40.445  14.113  13.369
18117W        W84548  38.526  34.598   3.276
18118W        W84549  25.464   0.779  12.102
18119W        W84550  23.606  22.125  13.046
18120W        W84551  10.088  25.371  10.339
18121W        W84552   7.763   8.841   1.620
18122W        W84553  32.354  39.538  13.272
18123W        W84554   7.396  10.815   4.027
18124W        W84555  40.372  20.356  13.960
18125W        W84556  37.803   8.779   1.222
18126W        W84557   1.159  21.928   3.658
18127W        W84558  27.562  43.973  10.545
18128W        W84559  41.029  30.643   4.404
18129W        W84560  36.582   1.985  12.443
18130W        W84561   5.749   8.597   4.971
18131W        W84562  15.580   2.040  11.588
18132W        W84563  20.567   3.463   4.564
18133W        W84564  35.121  11.319  13.854
18134W        W84565  34.060  15.753  14.572
18135W        W84566   7.743   2.551  11.450
18136W        W84567  31.638  20.292   2.644
18137W        W84568   5.189  37.050   2.271
18138W        W84569  22.526   6.182  14.407
18139W        W84570   2.059  23.808   1.533
18140W        W84571  38.986  27.036   0.002
18141W        W84572  21.999  43.554   0.185
18142W        W84573  35.387  44.825  14.058
18143W        W84574  21.083  24.054   4.202
18144W        W84575  36.491  24.459  11.212
18145W        W84576  16.847  21.769   4.111
18146W        W84577  34.365  31.419   1.652
18147W        W84578  44.588   5.233  11.794
18148W        W84579   7.984   6.225   3.926
18149W        W84580   2.602  24.798  14.959
18150W        W84581  20.160  37.145   3.034
18151W        W84582  23.257  19.765  13.455
18152W        W84583  18.042  39.645  13.907
18153W        W84584  22.573   8.746  11.523
18154W        W84585  24.368  12.351   3.741
18155W        W84586  33.078  29.746   2.391
18156W        W84587  19.931   2.867   2.945
18157W        W84588  37.539   1.062  13.948
18158W        W84589  26.503   3.775   1.175
18159W        W84590  38.803  18.692  10.643
18160W        W84591  32.070  21.452   1.649
18161W        W84592  25.650  24.039   4.460
18162W        W84593  44.239  31.020   1.206
18163W        W84594   8.936  14.798  14.469
18164W        W84595  40.286  32.529  14.089
18165W        W84596  38.082   6.926   1.407
18166W        W84597   5.859  44.292   1.888
18167W        W84598  28.531  31.716  12.549
18168W        W84599  30.974  20.601   3.210
18169W        W84600  15.053  27.999   1.374
18170W        W84601  22.741  22.348   0.422
18171W        W84602  19.981  36.017   1.795
18172W        W84603  21.431  37.013  13.806
18173W        W84604   8.740  26.907   4.179
18174W        W84605  22.588   2.943   1.237
18175W        W84606  30.648  32.172   4.120
18176W        W84607  16.790  18.977  12.724
18177W        W84608  31.093  33.653  12.929
18178W        W84609   1.339  19.211  12.866
18179W        W84610  10.350  14.819   3.189
18180W        W84611  18.415   6.928  11.461
18181W        W84612  25.604  21.965  12.005
18182W        W84613  40.203  22.995  13.336
18183W        W84614   3.654  19.266   3.266
18184W        W84615  15.708  30.865  11.437
18185W        W84616  27.701  40.964   4.100
18186W        W84617   2.523  25.523   3.768
18187W        W84618  35.033  42.838  12.377
18188W        W84619  10.363  15.809   1.159
18189W        W84620  28.458  33.419   3.357
18190W        W84621  39.512  12.739  12.954
18191W        W84622  30.483  42.207   2.809
18192W        W84623  16.309   0.969  14.850
18193W        W84624  41.886   2.258   3.133
18194W        W84625   4.983   3.735  12.850
18195W        W84626  36.699  36.777  13.010
18196W        W84627  36.112   3.871   2.382
18197W        W84628  23.757  13.654  14.445
18198W        W84629   5.231  18.275  12.894
18199W        W84630  10.249   8.246   3.257
18200W        W84631  32.124  14.833   0.914
18201W        W84632   1.482  28.565  10.758
18202W        W84633  37.448  35.449   1.321
18203W        W84634  25.587  14.571  10.700
18204W        W84635  18.804  41.560   9.902
18205W        W84636   7.631   9.205   1.989
18206W        W84637   9.883  35.635  11.333
18207W        W84638  41.041  15.743   2.337
18208W        W84639  29.382  42.520   4.744
18209W        W84640  44.995  18.296  10.700
18210W        W84641  24.891  35.893   1.957
18211W        W84642  21.642  12.250  14.058
18212W        W84643   9.367  11.054   1.412
18213W        W84644  15.672  40.437  14.535
18214W        W84645  10.304  26.079   3.390
18215W        W84646  13.283   7.190  14.933
18216W        W84647  20.188  25.673   1.140
18217W        W84648  12.728  29.217   2.441
18218W        W84649  20.453   8.799   0.055
18219W        W84650  38.361  17.407  10.682
18220W        W84651  20.543   3.118  14.712
18221W        W84652   5.349  25.173   1.830
18222W        W84653  26.447  35.885  11.597
18223W        W84654   0.228  40.691  10.536
18224W        W84655  42.340  24.973   0.846
18225W        W84656  17.178  36.067   9.877
18226W        W84657   2.825  11.330  12.318
18227W        W84658  31.347   6.797  11.498
18228W        W84659  44.548   7.112  10.398
18229W        W84660   0.915   9.379   4.735
18230W        W84661  26.692  33.160  14.432
18231W        W84662  41.971  11.241  10.457
18232W        W84663  20.257   1.964  14.843
18233W        W84664  20.211  43.900   0.130
18234W        W84665  28.972  40.133   3.597
18235W        W84666  12.742   8.829   1.289
18236W        W84667  37.435  39.665   4.934
18237W        W84668   4.783  11.617   0.461
18238W        W84669   4.171  22.155  12.006
18239W        W84670  15.164  25.752   0.704
18240W        W84671  20.977  31.908   2.374
18241W        W84672  43.374  15.935   4.946
18242W        W84673  13.251  29.726  12.498
18243W        W84674  21.111  21.776  13.315
18244W        W84675  28.043  26.454   4.596
18245W        W84676  35.979   6.397  12.787
18246W        W84677  31.377  11.346  10.617
18247W        W84678  28.949  33.227   1.431
18248W        W84679  17.105  43.344   0.576
18249W        W84680  19.662  37.465   3.731
18250W        W84681  31.844   4.745   1.836
18251W        W84682  15.392   3.997  11.051
18252W        W84683  17.774  11.522  10.428
18253W        W84684  31.083  31.003   0.396
18254W        W84685  17.157   7.632  10.513
18255W        W84686  44.825  37.932   0.848
18256W        W84687  30.186  18.990  13.365
18257W        W84688  14.793   7.476  14.879
18258W        W84689  28.210   1.980   2.813
18259W        W84690  30.018  10.321   4.746
18260W        W84691  18.048  14.356   3.133
18261W        W84692  39.255  35.101   0.019
18262W        W84693  16.816  22.557   0.794
18263W        W84694   3.154  34.010  10.829
18264W        W84695  17.588  20.188  14.993
18265W        W84696  36.952  40.639   4.509
18266W        W84697  19.005  22.153   4.048
18267W        W84698   6.938  30.666   0.912
18268W        W84699  26.986  37.361   3.828
18269W        W84700  15.548   2.731   2.292
18270W        W84701  18.172  30.608   2.855
18271W        W84702  43.692  40.154   3.074
18272W        W84703  43.851  40.531  10.762
18273W        W84704  32.388   8.248  13.021
18274W        W84705  38.015  39.688  13.004
18275W        W84706  42.576  14.619   0.885
18276W        W84707  30.587   1.521  12.471
18277W        W84708   0.518  17.967  11.521
18278W        W84709   9.910  10.523  13.683
18279W        W84710  38.425  43.304   0.373
18280W        W84711  19.041   5.204   4.389
18281W        W84712   8.482  33.603   3.246
18282W        W84713  42.796  41.316  13.469
18283W        W84714   0.179  10.839  14.419
18284W        W84715  39.585  36.333  13.410
18285W        W84716  36.652  40.837   3.044
18286W        W84717   5.672  18.596  14.943
18287W        W84718  20.776  29.709  13.572
18288W        W84719  23.645   9.639  11.179
18289W        W84720  12.043   7.765   2.628
18290W        W84721  13.612  12.299  12.534
18291W        W84722  13.236   1.726   0.468
18292W        W84723  32.976  16.796   3.846
18293W        W84724  31.075   5.144   1.270
18294W        W84725  16.187   0.587   3.511
18295W        W84726  37.282  13.635   1.745
18296W        W84727   0.887   6.433   1.818
18297W        W84728  21.711  32.909  14.357
18298W        W84729   6.296  43.673   1.270
18299W        W84730  23.093   3.965   2.123
18300W        W84731  25.051  37.914   3.353
18301W        W84732  23.737  26.309  14.774
18302W        W84733  12.201  38.038  12.944
18303W        W84734  13.332  27.531  11.037
18304W        W84735   3.160  26.120  12.522
18305W        W84736   3.940  30.380  12.248
18306W        W84737   8.276  39.579  13.883
18307W        W84738  13.943  41.212  11.991
18308W        W84739  12.141  32.351   2.837
18309W        W84740  27.226   6.040  14.122
18310W        W84741   8.104  36.926  11.566
18311W        W84742  26.119  25.157   4.521
18312W        W84743  39.965   9.280  13.863
18313W        W84744  34.114  34.516  10.612
18314W        W84745   4.056   0.245  14.314
18315W        W84746  34.929  14.054  11.166
18316W        W84747   1.894  15.903   3.171
18317W        W84748  24.263  39.869  10.693
18318W        W84749  39.533  27.698  13.064
18319W        W84750  21.062  30.102   2.105
18320W        W84751  35.576   4.180   2.307
18321W        W84752  36.976  16.165  10.993
18322W        W84753  39.512   2.788  14.738
18323W        W84754  21.934  37.565   1.312
18324W        W84755  16.716   7.946   0.979
18325W        W84756  37.782  34.888   5.340
18326W        W84757   2.920  26.135  14.722
18327W        W84758  10.156  42.568  12.473
18328W        W84759  32.981   2.138   2.611
18329W        W84760  11.203  36.920   3.214
18330W        W84761   7.797   6.159   1.750
18331W        W84762  42.318   6.028  12.968
18332W        W84763  19.690  20.379   3.102
18333W        W84764  25.638  23.653  12.506
18334W        W84765  23.567   8.412   3.731
18335W        W84766   8.157  42.321   3.637
18336W        W84767  19.339  43.098   2.237
18337W        W84768   6.584  23.000  12.913
18338W        W84769   1.443  20.654  13.050
18339W        W84770   6.924  39.895   4.766
18340W        W84771   7.806  15.593   0.824
18341W        W84772  29.111  28.356   3.115
18342W        W84773  39.762  26.103  10.561
18343W        W84774  15.413  23.653  13.967
18344W        W84775  36.376  14.826  11.594
18345W        W84776  40.838  32.225   0.186
18346W        W84777   6.418  20.317  10.232
18347W        W84778   5.175   3.173   1.176
18348W        W84779  43.812  10.699   4.362
18349W        W84780  32.103   9.276   4.546
18350W        W84781   6.892  42.892  14.030
18351W        W84782  20.186  23.996   2.256
18352W        W84783  32.537  21.057   4.588
18353W        W84784   1.334  43.300  14.503
18354W        W84785  25.923   6.257   5.227
18355W        W84786  31.978  35.642   4.174
18356W        W84787  20.644  28.143   0.898
18357W        W84788  16.071  35.771   1.912
18358W        W84789  41.673   1.839  11.582
18359W        W84790  40.408  22.128  14.334
18360W        W84791   6.265   7.363   4.586
18361W        W84792  38.847  30.385  13.203
18362W        W84793  21.312  43.079  10.035
18363W        W84794  35.928  24.602  12.134
18364W        W84795  19.496  24.478  12.043
18365W        W84796  35.146  39.909   4.131
18366W        W84797  23.492  31.645  14.940
18367W        W84798  35.958  10.472   4.081
18368W        W84799  28.020   2.472   4.609
18369W        W84800  20.497  25.674   1.839
18370W        W84801   1.712  11.236   2.039
18371W        W84802  24.557  20.578   5.027
18372W        W84803   4.026  16.107   4.948
18373W        W84804  26.224   4.670  11.171
18374W        W84805  10.557  38.842   2.422
18375W        W84806  34.501  33.791   3.855
18376W        W84807  19.285  10.143  13.523
18377W        W84808  39.249  18.737   1.262
18378W        W84809  21.130  40.408   1.271
18379W        W84810   3.544   9.410   3.207
18380W        W84811  33.386  41.238  14.357
18381W        W84812  40.633   3.018   1.775
18382W        W84813  31.104  38.967  10.601
18383W        W84814  39.266   7.321  11.045
18384W        W84815  43.509  12.734  11.929
18385W        W84816  14.772  22.841   4.072
18386W        W84817   0.008  21.495  12.578
18387W        W84818  29.092  34.783  11.566
18388W        W84819  26.033  23.772  14.862
18389W        W84820  31.458  18.040  10.678
18390W        W84821  14.643  35.496   3.738
18391W        W84822   0.698  17.658   2.248
18392W        W84823  34.310  30.949   4.390
18393W        W84824  11.273  36.932  14.619
18394W        W84825  36.067   8.619  10.723
18395W        W84826  23.502  16.852  14.147
18396W        W84827  20.641  41.102   0.283
18397W        W84828   7.832  16.541  14.245
18398W        W84829  35.419  21.235  11.624
18399W        W84830  38.600  13.056   3.366
18400W        W84831   3.319  34.083   4.578
18401W        W84832  16.984  21.102  10.051
18402W        W84833   3.780  34.434   3.740
18403W        W84834   6.953  24.829  11.151
18404W        W84835  40.989   3.782   3.986
18405W        W84836  29.690  32.034  14.235
18406W        W84837   5.225   3.933   0.467
18407W        W84838  26.021  16.367   0.240
18408W        W84839  16.075   7.926  13.380
18409W        W84840   4.842  16.767  14.636
18410W        W84841  27.503  25.681  10.574
18411W        W84842  31.665  19.294   4.045
18412W        W84843  37.344  27.140   3.671
18413W        W84844  44.816  44.274  11.997
18414W        W84845  11.038   7.414  12.992
18415W        W84846  22.136  10.070  13.362
18416W        W84847  18.047  10.398   0.343
18417W        W84848  19.626  30.584   1.852
18418W        W84849  17.549  29.079   1.801
18419W        W84850  32.207  39.083  13.513
18420W        W84851  22.939  22.252   1.452
18421W        W84852  33.966  15.317   0.958
18422W        W84853   8.395   3.536   2.959
18423W        W84854  34.400  31.682  10.204
18424W        W84855  34.333  33.435  11.158
18425W        W84856   9.903  27.598   3.339
18426W        W84857  19.793   8.811  13.949
18427W        W84858  32.990  22.032   2.718
18428W        W84859  27.504  18.740   3.401
18429W        W84860  27.220  25.196   2.794
18430W        W84861  17.045  41.864   9.812
18431W        W84862   7.921  10.890   2.881
18432W        W84863   4.195  31.029   2.267
18433W        W84864  37.063  18.284  14.291
18434W        W84865  29.182  24.508   1.654
18435W        W84866  19.549   6.308  11.119
18436W        W84867  23.732  23.497  12.784
18437W        W84868  39.188  34.618   4.115
18438W        W84869  39.385  23.488   1.467
18439W        W84870  18.691   9.099   4.680
18440W        W84871  37.039  27.569  11.169
18441W        W84872  29.732  44.403   4.197
18442W        W84873  43.399  13.244   3.354
18443W        W84874   7.182  21.786   2.277
18444W        W84875  34.829  14.554   0.425
18445W        W84876  12.232   8.932  10.197
18446W        W84877  21.482  35.661  11.935
18447W        W84878  35.221  32.162   0.918
18448W        W84879  18.641  44.429   3.063
18449W        W84880   7.337  33.837   4.781
18450W        W84881  15.581  12.374   1.039
18451W        W84882  44.029  39.025   4.636
18452W        W84883   6.618  11.757  11.523
18453W        W84884  21.960   7.385   3.690
18454W        W84885  38.391  21.964  10.679
18455W        W84886  21.208   0.762  10.460
18456W        W84887   7.752  34.380   0.295
18457W        W84888  19.796  37.466   2.802
18458W        W84889  26.942  35.435   4.111
18459W        W84890  39.887  29.267   1.862
18460W        W84891  32.351  42.898   4.194
18461W        W84892   9.514  28.952   0.458
18462W        W84893  32.676   1.787   2.884
18463W        W84894  27.701  20.598   4.406
18464W        W84895  12.065   5.509  13.121
18465W        W84896  25.327  18.813   3.810
18466W        W84897  20.310  35.039  13.330
18467W        W84898   4.801  25.189   1.631
18468W        W84899   1.115  30.044  14.077
18469W        W84900  25.622   3.630  12.946
18470W        W84901   0.091   7.751   4.697
18471W        W84902   1.736  20.717   0.135
18472W        W84903  29.397  17.411  12.713
18473W        W84904  38.795  40.053   5.075
18474W        W84905  34.904   5.971   0.375
18475W        W84906  19.996  18.488  11.560
18476W        W84907  14.295  20.527   4.188
18477W        W84908  15.452  33.463  13.796
18478W        W84909  30.503  13.848  13.450
18479W        W84910   1.897  40.454  14.486
18480W        W84911   1.782  20.116   0.898
18481W        W84912  29.911  39.566  14.171
18482W        W84913   5.446  37.949  11.594
18483W        W84914  34.058  42.363   1.844
18484W        W84915  39.349  24.258   3.052
18485W        W84916  18.757  30.784  12.021
18486W        W84917  34.658  30.059  12.060
18487W        W84918  38.818  21.156  12.578
18488W        W84919  18.667  18.038  14.116
18489W        W84920  43.905  42.533  14.381
18490W        W84921  14.658  21.838   1.251
18491W        W84922  28.338  42.107   4.094
18492W        W84923  19.483  28.840   3.251
18493W        W84924  42.831   5.463  11.197
18494W        W84925  43.027  20.959   4.113
18495W        W84926   7.887  10.759   3.816
18496W        W84927  31.947  18.515  12.347
18497W        W84928  43.890  31.432  14.523
18498W        W84929  23.594  10.378   4.585
18499W        W84930  36.072  15.693  14.926
18500W        W84931  21.724  19.670   4.620
18501W        W84932  24.211  24.624  12.069
18502W        W84933  44.543  16.292   0.870
18503W        W84934  16.155  13.660   1.834
18504W        W84935  31.829  41.093  11.121
18505W        W84936  32.301  37.574   2.655
18506W        W84937   7.842  26.040   1.871
18507W        W84938  29.998  33.008  14.003
18508W        W84939  40.911   0.383   4.542
18509W        W84940  23.080  37.163   0.792
18510W        W84941  39.802   2.959   1.499
18511W        W84942  41.314  34.166   1.739
18512W        W84943  26.304  19.534   0.330
18513W        W84944  17.075  26.216  10.588
18514W        W84945  18.059  31.204  12.485
18515W        W84946  18.067  13.011  13.099
18516W        W84947  31.318  30.995   1.386
18517W        W84948   5.867  10.891   0.560
18518W        W84949  44.859  23.673  13.911
18519W        W84950   9.657  14.548   2.591
18520W        W84951   7.450  22.068  13.453
18521W        W84952  25.269  36.409  13.846
18522W        W84953  42.961  11.381  14.934
18523W        W84954  42.032  35.039   3.752
18524W        W84955  17.472  41.522  11.674
18525W        W84956  39.869  44.503  11.367
18526W        W84957  24.622  14.345  12.946
18527W        W84958   9.962  34.412   4.576
18528W        W84959  37.709  34.823  10.120
18529W        W84960  20.601  10.452   0.465
18530W        W84961  25.249   5.851   0.926
18531W        W84962  22.400  37.835  12.914
18532W        W84963  23.560   6.157   4.671
18533W        W84964  33.380  43.263  11.524
18534W        W84965  43.488  23.961  13.098
18535W        W84966  19.408  11.026   2.787
18536W        W84967  41.858  15.143  13.461
18537W        W84968  39.791  22.098   4.105
18538W        W84969   6.567   0.366   3.832
18539W        W84970  23.392  33.844   3.294
18540W        W84971  22.048   0.877  11.514
18541W        W84972  34.076  38.741   2.774
18542W        W84973   6.712  13.369   0.675
18543W        W84974  22.336   7.578  11.080
18544W        W84975  16.814  26.720   0.336
18545W        W84976  26.648  38.597  13.586
18546W        W84977  44.234  12.593  13.399
18547W        W84978  31.687  11.667   3.305
18548W        W84979  31.634  39.022  14.017
18549W        W84980  28.139  29.942  10.193
18550W        W84981  18.368  35.885   0.959
18551W        W84982  34.667  18.602   0.974
18552W        W84983   2.710  15.786  11.982
18553W        W84984   2.335  22.683   2.788
18554W        W84985  24.245  13.365  11.085
18555W        W84986  33.594  21.638  11.745
18556W        W84987  25.944  38.340   2.175
18557W        W84988   7.768   5.131   4.552
18558W        W84989  12.166   6.322  14.794
18559W        W84990  35.643  11.674   4.906
18560W        W84991  13.036  25.544   3.189
18561W        W84992  15.980  19.842   4.604
18562W        W84993  20.018  44.991  13.843
18563W        W84994   8.639  21.242  10.606
18564W        W84995  41.186  26.184  13.101
18565W        W84996  19.651   4.143   3.230
18566W        W84997  13.921  17.922  12.569
18567W        W84998  25.444  16.053   2.295
18568W        W84999  34.128  17.261   4.680
18569W        W85000   4.013  15.575  12.905
18570W        W85001  33.622  17.589   4.456
18571W        W85002  11.830   6.695   0.207
18572W        W85003  30.337  13.792  14.802
18573W        W85004  29.538  21.308  13.536
18574W        W85005  24.324  24.661   3.301
18575W        W85006  26.116   6.969  14.661
18576W        W85007   8.322   2.019  14.440
18577W        W85008  38.057  38.859   0.420
18578W        W85009  35.855  24.209  12.470
18579W        W85010  43.373  13.420   2.334
18580W        W85011  22.254  24.483   1.809
18581W        W85012  40.072  26.990   1.396
18582W        W85013  29.277   6.677   0.919
18583W        W85014  20.036  17.116  10.226
18584W        W85015  31.957   0.313   2.182
18585W        W85016  17.747  23.207   3.645
18586W        W85017  13.635  29.931   0.970
18587W        W85018  16.093  43.085   1.745
18588W        W85019   5.446  23.313  10.981
18589W        W85020   7.586  41.247   4.222
18590W        W85021  22.131  17.511  10.645
18591W        W85022  41.817  12.298   0.581
18592W        W85023  15.626  27.445   0.420
18593W        W85024  10.175   5.935   0.430
18594W        W85025  26.429  38.456  14.486
18595W        W85026  25.123  18.475  13.113
18596W        W85027  21.824  43.460  11.579
18597W        W85028  17.719  29.987   1.728
18598W        W85029  32.638   5.959   0.868
18599W        W85030  41.534  39.794  12.328
18600W        W85031  23.184   8.282  14.947
18601W        W85032  42.344   2.707   3.600
18602W        W85033  34.759  33.900   0.212
18603W        W85034  32.533   5.308   1.891
18604W        W85035  16.899  36.989  11.876
18605W        W85036  43.234  10.622   1.260
18606W        W85037  36.034  28.360  14.839
18607W        W85038  12.606  38.492  12.075
18608W        W85039  24.268  31.864  12.495
18609W        W85040   4.924  15.054  14.749
18610W        W85041  25.718  12.353   3.411
18611W        W85042   8.142  40.121  12.668
18612W        W85043  28.933  10.818  13.379
18613W        W85044  29.037  27.122  12.249
18614W        W85045  11.113   8.255  14.870
18615W        W85046   9.363  44.348  12.143
18616W        W85047  42.415  10.164  10.949
18617W        W85048  41.597  36.921   3.257
18618W        W85049  29.563  36.869   1.878
18619W        W85050  39.266  15.610   0.899
18620W        W85051   1.700  33.071  13.240
18621W        W85052  25.892  10.887  13.061
18622W        W85053   3.691  28.038  10.235
18623W        W85054  15.657  29.895  11.237
18624W        W85055  29.816   3.431  14.958
18625W        W85056  17.326  40.270   2.660
18626W        W85057  13.814   9.167  14.818
18627W        W85058  13.559   3.286  10.420
18628W        W85059  44.385  39.660   0.249
18629W        W85060   8.521  44.187  12.461
18630W        W85061  33.758   4.912  13.071
18631W        W85062  16.625  11.726   0.558
18632W        W85063  33.969   3.205   4.800
18633W        W85064  40.392  37.074   0.374
18634W        W85065  24.675  34.600   1.935
18635W        W85066   2.736  44.048   0.405
18636W        W85067  18.302  28.647  10.828
18637W        W85068   2.957  39.095  13.758
18638W        W85069  30.520  39.999  11.232
18639W        W85070  17.819  19.241   2.201
18640W        W85071  38.349  10.661  14.437
18641W        W85072  42.771   3.648   3.111
18642W        W85073   0.871   7.316  14.990
18643W        W85074  19.204   0.551  11.706
18644W        W85075  38.479  26.280  13.589
18645W        W85076  29.183  14.872   4.610
18646W        W85077  32.248  39.415   1.534
18647W        W85078  15.518  31.399   4.510
18648W        W85079   8.839  27.391   4.321
18649W        W85080  10.221   3.375  14.252
18650W        W85081  40.434  12.156  11.548
18651W        W85082   4.911  44.333  11.108
18652W        W85083  34.898  19.360  10.714
18653W        W85084  21.477  36.937  13.307
18654W        W85085   4.336   7.703   3.888
18655W        W85086  10.625  44.317   0.889
18656W        W85087   0.765  27.239   0.459
18657W        W85088  21.681   1.732  13.135
18658W        W85089   7.617  25.384   3.104
18659W        W85090   1.205   1.382   0.554
18660W        W85091  40.839   0.287  11.522
18661W        W85092  33.816   4.156  11.051
18662W        W85093  38.629   3.475   0.861
18663W        W85094  31.863  23.990   4.907
18664W        W85095  15.222   2.930   0.696
18665W        W85096  32.707   0.181  13.933
18666W        W85097  24.936  31.513   0.298
18667W        W85098  42.368  16.686  12.413
18668W        W85099  16.538  17.677  11.379
18669W        W85100  32.939  12.566  13.288
18670W        W85101  41.334  38.808  12.486
18671W        W85102  30.749  25.099   2.346
18672W        W85103  38.041  41.098   9.756
18673W        W85104  21.675   6.665  13.207
18674W        W85105   5.832  28.686   2.274
18675W        W85106  15.033  10.319  13.498
18676W        W85107   8.259  37.813   1.443
18677W        W85108   5.409  15.889  12.843
18678W        W85109   1.279  14.045   2.288
18679W        W85110  34.963   7.305   0.055
18680W        W85111  16.333  14.210   2.516
18681W        W85112  28.533   6.279  11.932
18682W        W85113  20.163  15.534   3.856
18683W        W85114  39.300  35.644   1.018
18684W        W85115  16.299  31.366  13.044
18685W        W85116  17.154  20.550  14.026
18686W        W85117   1.286  10.431   0.795
18687W        W85118   2.714  39.315   2.838
18688W        W85119  32.368  19.086   3.946
18689W        W85120  36.466  16.020  10.966
18690W        W85121  44.748  39.105   2.760
18691W        W85122  13.584  13.738  11.085
18692W        W85123  41.371   0.437   4.251
18693W        W85124  20.283  41.045   1.924
18694W        W85125  43.205  44.314  11.285
18695W        W85126  34.096   8.314  12.418
18696W        W85127  43.516  11.159  11.205
18697W        W85128   1.828   4.971  12.895
18698W        W85129  32.922  12.603   2.761
18699W        W85130  14.188  19.294   1.941
18700W        W85131  14.469  10.152   1.139
18701W        W85132  15.214  33.992   4.391
18702W        W85133  38.546  38.910   2.138
18703W        W85134   4.843   6.739  11.095
18704W        W85135  28.453  19.965  12.011
18705W        W85136  19.194  16.826   4.091
18706W        W85137  20.900  26.036  14.044
18707W        W85138  34.194  31.811  10.661
18708W        W85139   0.551   9.877  14.460
18709W        W85140  43.293  17.015  11.684
18710W        W85141  38.891   5.010   0.967
18711W        W85142  25.455  37.153  13.526
18712W        W85143  12.346  34.982   0.041
18713W        W85144   4.884   7.298  13.415
18714W        W85145  41.814  33.294   2.726
18715W        W85146  22.073  31.798   3.232
18716W        W85147  15.792  17.039   2.810
18717W        W85148   8.156  13.224  13.517
18718W        W85149  19.827  36.494  11.484
18719W        W85150  11.463  23.262  11.766
18720W        W85151  25.958  37.565   1.767
18721W        W85152   1.878  38.350   0.436
18722W        W85153  42.472   2.039   0.436
18723W        W85154  40.859  36.107  14.703
18724W        W85155  21.765  35.976  12.815
18725W        W85156   6.717  27.658  10.670
18726W        W85157   6.095  41.996  11.565
18727W        W85158  43.992  22.792   0.348
18728W        W85159   5.330  18.104   2.319
18729W        W85160  33.009  25.086  12.120
18730W        W85161  23.279  44.423   1.420
18731W        W85162   7.801  33.656  10.667
18732W        W85163  38.434  18.801  11.426
18733W        W85164   9.424  28.392  11.515
18734W        W85165   7.308  12.671   2.177
18735W        W85166  14.067  11.557  12.430
18736W        W85167   1.994   4.567  14.285
18737W        W85168  32.623  23.582   1.392
18738W        W85169  29.012  39.362   3.245
18739W        W85170   4.225  24.571  11.555
18740W        W85171  10.540  41.588   3.184
18741W        W85172   8.479  22.350  13.159
18742W        W85173   6.162  19.477  13.338
18743W        W85174  38.398  12.170   1.742
18744W        W85175   1.326  30.481  10.647
18745W        W85176  38.851  28.954   3.257
18746W        W85177  24.274  34.479   3.485
18747W        W85178  43.766  43.006   2.287
18748W        W85179  15.076  18.154   3.950
18749W        W85180  22.564  29.121   4.594
18750W        W85181  38.498   1.725  11.532
18751W        W85182  16.702  44.409  14.792
18752W        W85183  27.932  31.461   0.248
18753W        W85184  14.683  35.881  10.816
18754W        W85185  33.072   6.781  11.957
18755W        W85186  23.763  25.836  14.960
18756W        W85187  10.737  20.058   1.721
18757W        W85188  32.628  35.899   1.890
18758W        W85189  18.636  38.179  10.652
18759W        W85190  31.091  40.274  12.806
18760W        W85191  30.672  24.591  13.363
18761W        W85192  38.280  23.712   0.254
18762W        W85193  38.460  29.552   2.602
18763W        W85194  26.984  32.569   1.458
18764W        W85195  27.440  44.880   0.897
18765W        W85196  23.666  43.124   3.619
18766W        W85197  27.475   6.836  11.662
18767W        W85198  29.906  12.775   1.433
18768W        W85199   6.353  23.857   0.169
18769W        W85200  34.461   8.299   2.364
18770W        W85201  13.331   3.016   0.012
18771W        W85202  23.024  43.306   1.728
18772W        W85203   8.513  19.507  12.556
18773W        W85204   7.660  29.691   2.891
18774W        W85205  12.943  30.121   4.205
18775W        W85206   5.277  31.874   0.282
18776W        W85207  21.522  20.372   0.704
18777W        W85208  19.788  44.469  11.418
18778W        W85209   2.213  40.751   1.869
18779W        W85210   3.899   3.249  12.094
18780W        W85211  28.516  23.756   2.755
18781W        W85212  10.569  15.291  12.885
18782W        W85213  14.035  23.172  14.536
18783W        W85214   2.388  17.661   0.231
18784W        W85215   6.914  16.435   4.666
18785W        W85216  16.396  31.188   0.285
18786W        W85217  41.071  34.965  13.914
18787W        W85218  23.964  31.353   3.161
18788W        W85219  17.752  32.213  12.389
18789W        W85220  20.909  43.847   0.155
18790W        W85221   7.435  35.172   1.448
18791W        W85222  32.043  11.919  12.907
18792W        W85223  13.775  21.660  12.000
18793W        W85224  33.985  35.675  13.011
18794W        W85225  22.691  12.926   4.141
18795W        W85226  20.492  19.877   4.176
18796W        W85227  10.703  43.805   4.673
18797W        W85228  33.920  43.994  11.648
18798W        W85229  11.470  39.454  12.283
18799W        W85230   5.158  39.494   0.388
18800W        W85231   1.196  34.438  11.721
18801W        W85232  44.681   4.932  12.947
18802W        W85233  18.133  31.970   2.137
18803W        W85234  35.537   5.161  14.016
18804W        W85235  33.107  29.888  10.669
18805W        W85236   3.488  23.058  11.410
18806W        W85237  23.925  20.229   3.226
18807W        W85238  41.372  10.311   4.228
18808W        W85239  17.694   4.310  11.128
18809W        W85240  14.335  42.550  13.917
18810W        W85241  25.649  38.520   3.854
18811W        W85242  42.524  35.582  14.722
18812W        W85243  32.402  39.299   4.570
18813W        W85244  38.407  17.607   1.964
18814W        W85245  21.319   7.612   0.290
18815W        W85246  14.811  38.419  14.416
18816W        W85247  12.653  28.434  11.996
18817W        W85248  36.798   5.796   3.447
18818W        W85249  27.119  43.920   4.538
18819W        W85250  16.685  23.270   1.259
18820W        W85251  19.747  11.905   3.989
18821W        W85252   4.437  16.709  11.454
18822W        W85253  16.298  38.851   1.688
18823W        W85254  12.490   4.812   4.178
18824W        W85255  11.135  26.633   2.409
18825W        W85256  21.270  11.865   1.847
18826W        W85257  27.954  14.426   5.209
18827W        W85258  17.010  31.989  14.344
18828W        W85259  42.139  22.931   1.724
18829W        W85260  16.018  26.813   4.098
18830W        W85261  11.407  27.142   3.867
18831W        W85262   7.692  19.630  10.295
18832W        W85263   8.177  35.379   3.738
18833W        W85264  30.907  31.916   4.857
18834W        W85265  10.857   4.388  10.718
18835W        W85266  18.443  19.656   0.710
18836W        W85267  36.580  24.766   3.307
18837W        W85268  34.280  29.381   2.323
18838W        W85269  23.493  34.564   2.884
18839W        W85270  43.418  12.075  12.533
18840W        W85271  27.588  15.289  11.890
18841W        W85272  23.744   1.658   4.471
18842W        W85273   4.352   1.750   2.136
18843W        W85274  24.352   8.651  10.721
18844W        W85275  23.171  13.128   3.278
18845W        W85276  14.777  14.009   4.933
18846W        W85277   4.273  32.995   0.541
18847W        W85278  20.971  17.731   4.149
18848W        W85279  43.242  24.587   4.193
18849W        W85280   7.424  25.219  12.315
18850W        W85281   1.860  13.267  14.001
18851W        W85282   0.360  40.886   2.016
18852W        W85283   1.131  26.552   0.828
18853W        W85284  14.290  44.405   1.400
18854W        W85285   9.852  34.764   2.391
18855W        W85286  20.505  35.244  13.762
18856W        W85287   2.475  25.495  12.455
18857W        W85288  35.638  13.254  11.945
18858W        W85289  31.174   1.740   1.059
18859W        W85290  37.609   8.002  10.742
18860W        W85291  33.527  39.469  11.932
18861W        W85292  31.900  39.885  13.977
18862W        W85293  35.961  17.283  14.272
18863W        W85294   0.281  35.659  13.056
18864W        W85295  43.576  22.321  10.680
18865W        W85296   0.872  16.829  11.908
18866W        W85297   8.826  20.340  13.417
18867W        W85298  36.649  41.027  14.328
18868W        W85299   1.156  28.106   4.108
18869W        W85300   6.725   6.237   4.284
18870W        W85301  12.819   8.093   1.922
18871W        W85302  39.890  12.048   2.700
18872W        W85303   5.357  26.939  14.417
18873W        W85304  37.086   0.869   3.236
18874W        W85305  38.097  23.232   0.232
18875W        W85306  16.725  31.862  11.593
18876W        W85307   9.654  29.101   1.825
18877W        W85308  15.068  37.481  10.362
18878W        W85309  43.220   4.243   2.941
18879W        W85310  30.862   7.450  10.336
18880W        W85311  20.453  42.520   2.204
18881W        W85312  25.506  38.837  13.006
18882W        W85313  21.430  29.217  12.585
18883W        W85314   0.323  40.862  11.166
18884W        W85315  24.676  32.389  12.583
18885W        W85316  31.059  37.351  11.089
18886W        W85317   6.222   2.753   3.673
18887W        W85318  22.755  20.757  10.562
18888W        W85319   3.686  16.561   3.222
18889W        W85320  17.908  11.153  11.351
18890W        W85321   6.168  14.815  11.161
18891W        W85322  40.755   7.247   1.644
18892W        W85323  24.500  24.735   2.280
18893W        W85324  22.075  26.210   3.271
18894W        W85325  14.137  25.557  13.347
18895W        W85326  36.824  22.688  14.337
18896W        W85327  14.583  26.847  13.963
18897W        W85328  22.035  31.940   2.578
18898W        W85329  37.634   0.385  11.150
18899W        W85330  22.989  18.769  12.040
18900W        W85331  25.882  38.961  10.577
18901W        W85332  22.742  14.175  12.053
18902W        W85333  17.463  29.121   3.197
18903W        W85334   8.648  22.673  13.844
18904W        W85335  33.491  16.010  13.006
18905W        W85336   8.950   0.822   1.236
18906W        W85337  11.403   9.896   1.434
18907W        W85338  14.042   2.684  13.573
18908W        W85339  14.368  12.877   0.811
18909W        W85340  13.194  33.657  12.671
18910W        W85341   7.182  10.906  14.768
18911W        W85342   0.596   5.464   0.789
18912W        W85343  39.545   5.449   0.476
18913W        W85344  23.789   5.521   0.985
18914W        W85345  19.146  40.791   2.872
18915W        W85346  16.599   5.875   3.937
18916W        W85347  23.160  22.274   4.518
18917W        W85348  28.007  38.848   2.756
18918W        W85349  42.348  12.562  14.931
18919W        W85350  23.527   6.378   1.222
18920W        W85351  22.678  13.077   3.631
18921W        W85352  14.900  20.998  13.599
18922W        W85353  37.524  13.780   4.585
18923W        W85354   3.015  40.902  13.885
18924W        W85355  26.878   7.270   3.304
18925W        W85356   0.788   5.283  13.463
18926W        W85357  27.951  17.327   2.133
18927W        W85358  40.335  29.959  11.959
18928W        W85359   1.570  26.666  13.623
18929W        W85360  15.427  20.232  12.030
18930W        W85361   9.856   2.925  10.696
18931W        W85362  31.899   0.240   3.350
18932W        W85363  27.679   8.726  11.142
18933W        W85364   0.197  22.224  12.111
18934W        W85365  15.916  35.878  12.268
18935W        W85366  14.101   6.784   3.797
18936W        W85367   6.553  26.184  14.125
18937W        W85368  21.266  36.972   2.255
18938W        W85369  26.142   7.405   1.142
18939W        W85370   0.722  23.244  14.435
18940W        W85371  24.660  35.795   0.758
18941W        W85372  36.139  35.015  13.979
18942W        W85373  20.625  25.508  13.276
18943W        W85374  33.094  23.171  12.460
18944W        W85375  13.582   8.888   3.230
18945W        W85376  34.975   4.842   4.594
18946W        W85377   4.766   9.760   4.094
18947W        W85378  10.869  42.799   2.729
18948W        W85379  34.876  29.457   1.175
18949W        W85380  38.040  32.222  14.068
18950W        W85381  27.032   0.258  12.905
18951W        W85382  12.502   8.760  12.463
18952W        W85383  21.572  10.611   4.621
18953W        W85384  43.366  18.812   4.136
18954W        W85385  42.527  44.594  13.375
18955W        W85386  28.984  34.960   4.712
18956W        W85387  13.755  33.144   2.646
18957W        W85388  35.430  32.681  10.584
18958W        W85389   3.466  16.063  12.415
18959W        W85390  15.851  39.079   1.877
18960W        W85391  13.139  18.069  14.438
18961W        W85392  19.511  38.286   3.126
18962W        W85393  15.409   5.654   0.628
18963W        W85394  38.763  19.250  11.168
18964W        W85395   7.393  27.112  13.612
18965W        W85396  24.238   0.169   0.309
18966W        W85397  15.158  34.436   1.533
18967W        W85398  30.618   7.721   1.721
18968W        W85399  11.114  34.039  10.659
18969W        W85400  33.451  44.339   1.354
18970W        W85401   2.481  32.498   0.508
18971W        W85402   6.349   1.597  10.798
18972W        W85403  41.442  11.868  14.292
18973W        W85404  27.261   9.331   0.228
18974W        W85405   8.261   6.109  13.566
18975W        W85406  33.034   0.328   4.040
18976W        W85407  27.324  30.024  11.941
18977W        W85408   7.988  32.992   1.286
18978W        W85409  38.356  17.035  12.885
18979W        W85410  25.146  40.571  10.946
18980W        W85411  21.522  28.042  11.520
18981W        W85412   3.774  21.574   3.611
18982W        W85413  36.503  30.043  13.569
18983W        W85414   6.801  19.150  11.945
18984W        W85415  29.981   1.309   2.873
18985W        W85416  31.929  19.637   1.793
18986W        W85417  42.320  26.409  11.271
18987W        W85418  24.113   2.656   2.239
18988W        W85419  12.218  21.740   3.152
18989W        W85420   7.846   1.381   2.766
18990W        W85421  15.927   1.958   1.899
18991W        W85422   3.268  28.788   2.676
18992W        W85423  32.446   0.497   2.260
18993W        W85424   3.293   8.467   4.131
18994W        W85425  19.821  16.114   1.782
18995W        W85426   1.943  31.011  13.366
18996W        W85427  33.975  30.512  10.381
18997W        W85428  19.641  35.828  12.100
18998W        W85429  28.715   3.035   0.904
18999W        W85430   6.337   0.999   0.677
19000W        W85431   1.743  21.923   2.871
19001W        W85432   9.949  40.568   1.032
19002W        W85433  36.159  36.857   4.601
19003W        W85434  40.794  38.776  11.564
19004W        W85435  24.158  42.956   4.355
19005W        W85436  28.465  42.958  12.912
19006W        W85437  36.594   9.169   2.257
19007W        W85438  21.977  39.251  12.050
19008W        W85439  10.011  14.876   2.789
19009W        W85440  26.544  38.260  13.999
19010W        W85441  27.892  16.376   5.012
19011W        W85442  44.296  19.702  11.570
19012W        W85443  43.854   4.322   3.224
19013W        W85444  25.072  36.091  11.477
19014W        W85445  37.440  26.950  10.261
19015W        W85446   4.846  34.149   0.384
19016W        W85447   7.163  17.884  14.528
19017W        W85448  22.066  11.685   1.429
19018W        W85449   6.916  17.570   0.892
19019W        W85450  33.882  17.330   2.735
19020W        W85451  14.227  19.788   4.645
19021W        W85452  25.542  28.472   3.857
19022W        W85453  33.986  43.299   1.736
19023W        W85454  20.938   6.496   3.106
19024W        W85455  28.044  26.985   1.320
19025W        W85456  21.508  22.533  13.300
19026W        W85457  15.493   6.171  12.165
19027W        W85458  37.033  43.729  11.100
19028W        W85459  18.979  12.231  11.538
19029W        W85460   9.662  13.771   3.646
19030W        W85461  38.560  28.461   1.457
19031W        W85462   2.220  24.088  11.413
19032W        W85463  16.072  40.993   3.051
19033W        W85464   9.822   1.585  12.048
19034W        W85465   5.689  11.342  14.852
19035W        W85466  10.638   8.728   3.149
19036W        W85467  22.244  22.671  14.420
19037W        W85468  40.288  11.000  14.244
19038W        W85469  27.039   4.421   1.314
19039W        W85470  16.490  26.761  12.726
19040W        W85471  17.810   3.825   9.833
19041W        W85472  30.565  30.353   3.370
19042W        W85473  18.546   3.038   1.810
19043W        W85474  26.895  16.099   1.214
19044W        W85475   4.707  25.181   0.186
19045W        W85476  15.110  40.284  14.084
19046W        W85477   7.535   3.306   3.566
19047W        W85478  14.555  36.081  12.560
19048W        W85479  11.025  37.076   2.224
19049W        W85480  18.722  26.520  13.474
19050W        W85481  29.953   9.774  10.658
19051W        W85482  17.584  19.528  14.542
19052W        W85483  15.850   4.269  13.077
19053W        W85484  23.551  16.567  12.555
19054W        W85485  44.877  26.755   2.833
19055W        W85486  24.568  28.982  14.524
19056W        W85487  25.435  33.912   1.042
19057W        W85488  44.118  29.491  12.869
19058W        W85489  28.641  44.759  14.950
19059W        W85490  17.108  16.985  12.119
19060W        W85491  14.259  19.244  12.059
19061W        W85492   5.373  37.373   1.324
19062W        W85493  21.426  16.485   5.028
19063W        W85494  20.338  26.526   4.593
19064W        W85495  32.447  31.858  14.881
19065W        W85496  21.041  33.540   3.012
19066W        W85497   7.625  39.577   2.617
19067W        W85498   1.826  25.707   2.392
19068W        W85499  43.258   8.370  14.430
19069W        W85500  17.789  32.542  13.295
19070W        W85501  43.054  24.121   3.640
19071W        W85502   9.204  27.331   1.869
19072W        W85503   7.711  34.625   0.740
19073W        W85504  32.339  18.809  13.665
19074W        W85505  13.348  31.006  10.727
19075W        W85506  11.160  15.153   2.517
19076W        W85507   3.935  14.000   3.619
19077W        W85508   2.178   4.734   1.309
19078W        W85509   1.494  33.853  14.375
19079W        W85510   3.949  20.795  12.742
19080W        W85511  42.022  41.909  14.682
19081W        W85512  38.961  14.873  12.482
19082W        W85513  19.527   4.365   4.081
19083W        W85514  30.368  11.190  12.594
19084W        W85515  18.253  26.115  11.951
19085W        W85516  12.460  13.280   3.739
19086W        W85517  29.330  21.694   2.271
19087W        W85518   1.830   7.107   2.784
19088W        W85519  12.453  29.328   4.083
19089W        W85520   5.216  40.727   3.284
19090W        W85521  35.711  31.668  13.051
19091W        W85522  36.552  15.640   1.856
19092W        W85523  19.140  21.837  11.475
19093W        W85524  16.883  32.369  14.803
19094W        W85525  38.397   8.284  13.017
19095W        W85526  12.434  12.157  11.229
19096W        W85527   6.594  13.762  14.737
19097W        W85528  39.379  32.028   1.856
19098W        W85529  43.513   2.588   0.901
19099W        W85530  10.702  43.243  12.642
19100W        W85531  25.841  24.489   0.510
19101W        W85532  13.588  36.992  13.381
19102W        W85533  24.201  28.004   3.403
19103W        W85534  28.613   9.579   3.866
19104W        W85535  42.423  35.836  10.732
19105W        W85536  41.443  34.424  11.586
19106W        W85537  26.255  43.485  13.528
19107W        W85538   3.551  16.096  10.696
19108W        W85539  35.679   6.902  11.156
19109W        W85540   2.847  24.232   0.794
19110W        W85541  26.132   1.886  10.640
19111W        W85542  14.581  44.346  14.954
19112W        W85543  38.543   6.418  12.111
19113W        W85544  27.628  17.825  12.117
19114W        W85545  14.620  34.405  12.413
19115W        W85546  38.728  39.920  12.456
19116W        W85547  26.019  27.439  10.694
19117W        W85548  23.948  22.313  10.061
19118W        W85549  43.746  15.085   0.857
19119W        W85550  10.613  24.471   4.205
19120W        W85551  27.798  11.903  14.283
19121W        W85552  22.636  40.620  13.145
19122W        W85553  32.064  15.612   4.689
19123W        W85554   0.000  28.135  14.486
19124W        W85555  31.097   7.239  11.637
19125W        W85556  30.820  40.319   0.870
19126W        W85557  20.002   1.840   3.988
19127W        W85558  38.872   1.844  14.493
19128W        W85559  35.001  39.450   3.592
19129W        W85560   0.069  43.316  11.155
19130W        W85561  41.868  14.626   3.233
19131W        W85562  28.898  32.387   0.412
19132W        W85563  27.476  20.987   0.326
19133W        W85564  42.047   8.979  14.718
19134W        W85565  19.534  33.261  11.066
19135W        W85566   6.821   3.429   1.398
19136W        W85567  26.653  36.073  12.819
19137W        W85568   3.879  34.366   2.947
19138W        W85569  39.237  35.959  13.428
19139W        W85570   4.750  37.033  14.598
19140W        W85571   4.441  17.405   0.223
19141W        W85572  25.373  23.619   1.369
19142W        W85573   7.457  40.538   3.583
19143W        W85574  42.900  25.534  11.732
19144W        W85575  36.608  18.477  10.779
19145W        W85576  21.250   9.043  11.381
19146W        W85577  41.359  23.673   3.605
19147W        W85578  42.923   8.511  13.401
19148W        W85579   7.833  24.951  12.113
19149W        W85580  39.551  36.217  14.287
19150W        W85581  11.578  28.149  13.993
19151W        W85582  10.771  29.165   2.850
19152W        W85583  28.003  33.021   2.799
19153W        W85584  37.010  41.954   3.059
19154W        W85585  15.200   7.975  14.317
19155W        W85586  42.929  11.927  11.075
19156W        W85587  41.688  40.365  12.924
19157W        W85588  26.660   1.777  11.441
19158W        W85589   9.279   6.245  13.523
19159W        W85590  19.693  24.049   4.586
19160W        W85591  27.641   7.641   1.365
19161W        W85592  21.295  29.617   9.958
19162W        W85593  44.831  39.492  12.534
19163W        W85594  16.676  17.311  13.904
19164W        W85595  32.405  33.888  13.770
19165W        W85596  19.494  43.354   1.745
19166W        W85597   8.268  25.074  14.729
19167W        W85598   9.620  19.836   2.215
19168W        W85599  33.268  40.823   1.170
19169W        W85600   6.938  33.498   4.771
19170W        W85601  28.694  31.010   2.279
19171W        W85602  12.132  38.849   0.467
19172W        W85603  44.330   0.781   2.677
19173W        W85604  30.501  22.725   3.840
19174W        W85605  22.516  43.298   1.868
19175W        W85606  26.949  38.841  14.785
19176W        W85607   5.321   0.068   4.043
19177W        W85608  39.105  30.121   0.037
19178W        W85609   1.845  22.230  14.300
19179W        W85610  17.143  41.121   2.350
19180W        W85611  28.689  30.564   0.514
19181W        W85612  24.048  29.624   3.059
19182W        W85613  34.445  31.374  10.651
19183W        W85614   6.935  38.919   3.386
19184W        W85615  41.827  40.307   1.677
19185W        W85616  43.978  36.909   0.828
19186W        W85617  24.649  26.779  13.827
19187W        W85618  42.296  28.473  12.029
19188W        W85619   0.438   8.389  14.294
19189W        W85620  28.152  41.854   0.261
19190W        W85621  44.425  21.321  14.897
19191W        W85622  15.063  35.555  12.034
19192W        W85623  18.517  20.787  12.099
19193W        W85624  20.762  28.213  14.080
19194W        W85625  42.116  16.241  12.590
19195W        W85626  13.810  37.367   3.404
19196W        W85627  20.113  16.301  13.495
19197W        W85628  41.499  16.663  11.548
19198W        W85629  37.289   0.999   0.351
19199W        W85630  23.910  20.918  13.448
19200W        W85631   9.444  38.003   2.356
19201W        W85632  34.146  33.660  11.636
19202W        W85633  13.034  39.610   0.424
19203W        W85634  35.558  20.938   5.040
19204W        W85635  34.375  27.301   2.855
19205W        W85636  24.926  31.626   3.297
19206W        W85637   1.413  18.056   2.763
19207W        W85638  10.854  39.324   0.920
19208W        W85639  33.287  30.910  14.425
19209W        W85640  31.640   7.831   2.266
19210W        W85641  11.634   9.606   1.067
19211W        W85642   5.557  36.527  14.393
19212W        W85643  16.231  26.089   0.835
19213W        W85644  32.780  24.789  14.918
19214W        W85645   6.487  37.326  10.990
19215W        W85646  17.702   6.193  14.154
19216W        W85647  12.827  25.757   0.388
19217W        W85648  28.546  12.692  11.599
19218W        W85649  24.940  37.951  14.435
19219W        W85650  16.589  38.862  13.033
19220W        W85651  21.043  44.481   0.476
19221W        W85652  44.230   5.227   1.828
19222W        W85653  38.080   4.220  11.163
19223W        W85654  19.306   2.008   1.408
19224W        W85655  27.611  27.665  10.683
19225W        W85656  38.332  18.077   3.549
19226W        W85657  42.602  33.041   0.909
19227W        W85658  23.549   0.063   3.724
19228W        W85659  26.179  37.491   3.168
19229W        W85660  12.161  15.187  11.919
19230W        W85661  25.907   5.698   4.612
19231W        W85662  25.559  27.171   3.671
19232W        W85663  30.196  22.258   3.687
19233W        W85664  15.744  11.381   1.273
19234W        W85665   7.336  27.172  11.622
19235W        W85666  31.041   9.406   4.350
19236W        W85667   8.670   0.527  12.073
19237W        W85668   8.182   1.847   0.847
19238W        W85669  26.532  16.333   4.336
19239W        W85670  36.846  21.684   1.703
19240W        W85671   9.279  19.128  10.203
19241W        W85672   2.282  16.785  13.918
19242W        W85673  30.479  44.260   0.252
19243W        W85674  15.680  42.475   2.254
19244W        W85675  13.820   4.788  11.740
19245W        W85676  33.895  34.983   4.196
19246W        W85677  23.326  23.618  14.803
19247W        W85678  14.360  42.518   1.690
19248W        W85679  40.921  28.387   1.366
19249W        W85680   0.801  23.153   3.216
19250W        W85681   3.926  13.968  14.953
19251W        W85682  33.846  39.537   2.234
19252W        W85683  32.527  16.022  13.376
19253W        W85684  30.902   1.468  10.614
19254W        W85685  33.071  17.581   3.125
19255W        W85686   3.798  32.694  11.973
19256W        W85687  12.678  32.663  11.483
19257W        W85688  26.919  40.284   4.891
19258W        W85689  36.524  32.642   2.075
19259W        W85690  16.359  10.377   4.109
19260W        W85691  30.197  17.818   4.150
19261W        W85692  23.408  24.726   2.920
19262W        W85693  42.084  41.482   4.712
19263W        W85694  38.899  25.728   3.532
19264W        W85695  43.465  17.077   1.852
19265W        W85696  11.278  21.447  14.829
19266W        W85697   8.250  41.519  13.883
19267W        W85698  33.255  30.457   5.051
19268W        W85699  30.587  20.992  14.853
19269W        W85700  21.472   4.483  14.056
19270W        W85701  29.285  31.609   4.622
19271W        W85702  10.658  26.142   3.770
19272W        W85703   7.460  34.191   2.361
19273W        W85704  34.850   2.763   1.402
19274W        W85705  13.767  22.548   2.776
19275W        W85706  27.207  17.244   1.905
19276W        W85707  18.266   5.548  11.296
19277W        W85708  26.910  37.893   4.030
19278W        W85709  43.966   3.646  12.038
19279W        W85710  12.521  43.292   3.433
19280W        W85711   3.518   4.836   5.094
19281W        W85712   7.840   5.802  13.441
19282W        W85713  15.156  13.327   4.585
19283W        W85714  22.577  19.566  12.068
19284W        W85715  11.219  25.118  12.904
19285W        W85716  34.891  29.918   5.354
19286W        W85717  36.660  28.596   5.351
19287W        W85718   5.687  15.101   1.337
19288W        W85719  23.467  30.137   0.894
19289W        W85720  38.948  42.602   0.265
19290W        W85721  41.079   9.932  12.534
19291W        W85722  25.566  17.167   4.059
19292W        W85723  19.320  13.628  11.632
19293W        W85724  29.170   7.340   2.157
19294W        W85725  41.294  15.827   0.952
19295W        W85726  22.988  31.623  12.192
19296W        W85727  11.211  11.537  13.010
19297W        W85728  33.636  44.428  10.774
19298W        W85729  37.339  35.204  13.486
19299W        W85730  21.849  23.354  10.632
19300W        W85731  13.355  35.410   0.951
19301W        W85732  40.321  28.461   1.828
19302W        W85733  20.012  34.641   4.072
19303W        W85734  35.043  11.692   3.825
19304W        W85735  24.272  25.152   3.558
19305W        W85736  22.659  20.298  13.827
19306W        W85737  13.228   3.146   1.821
19307W        W85738  20.580   1.118   2.895
19308W        W85739  44.823  17.456   1.784
19309W        W85740  22.007  30.337  11.562
19310W        W85741  18.212  20.232   4.154
19311W        W85742  29.248  11.069  11.075
19312W        W85743  35.069   3.868   4.779
19313W        W85744   1.751  38.463  11.914
19314W        W85745   4.841  23.299  13.133
19315W        W85746  23.162  30.216   1.719
19316W        W85747  35.733  31.971   0.955
19317W        W85748  20.305   9.067   1.719
19318W        W85749  39.439  16.816   2.574
19319W        W85750  36.061  17.798   3.135
19320W        W85751  34.566  36.507  12.436
19321W        W85752  44.790  41.739   1.838
19322W        W85753  38.126  33.615  11.488
19323W        W85754  30.469  25.441  12.341
19324W        W85755  41.319  29.389  11.732
19325W        W85756  40.229  29.588  11.069
19326W        W85757   9.669  37.058  14.021
19327W        W85758  22.624  27.276   4.213
19328W        W85759  24.070  42.704   0.205
19329W        W85760   6.940  17.623   5.715
19330W        W85761  29.397  12.826  12.050
19331W        W85762  16.020  38.984   1.236
19332W        W85763  10.184  31.150   4.098
19333W        W85764  21.588  35.170   0.534
19334W        W85765  44.864   1.088  10.423
19335W        W85766  38.882   8.805  12.827
19336W        W85767  35.939  36.934   4.013
19337W        W85768  21.274  13.337  13.075
19338W        W85769   6.824  19.273  11.315
19339W        W85770  42.416  22.582   3.705
19340W        W85771  33.247  44.842   5.411
19341W        W85772  13.846  35.436   2.669
19342W        W85773  42.640  19.271  13.502
19343W        W85774   9.338   2.371   1.872
19344W        W85775  27.487  22.695   3.235
19345W        W85776  10.974  24.165   5.114
19346W        W85777   4.761  32.956  14.817
19347W        W85778  12.090  39.337   0.247
19348W        W85779  42.098  20.734  14.947
19349W        W85780  35.421   6.141   1.233
19350W        W85781  28.520  19.488  12.895
19351W        W85782  32.268  43.226   2.539
19352W        W85783  23.900   6.444   4.972
19353W        W85784  36.807  12.998  12.485
19354W        W85785  21.002   7.790   4.635
19355W        W85786  35.841  43.985  11.174
19356W        W85787  25.458  29.976  13.305
19357W        W85788   9.668  11.788  12.565
19358W        W85789  33.908  25.319   0.721
19359W        W85790  30.162  10.621  10.705
19360W        W85791   2.001  33.532  14.955
19361W        W85792  28.962  29.692   4.784
19362W        W85793  30.189   7.284   4.010
19363W        W85794   6.998  34.295   3.161
19364W        W85795  22.585  35.180  13.351
19365W        W85796   8.016  23.651  12.446
19366W        W85797  28.478   9.252  13.307
19367W        W85798   1.357  34.255   1.916
19368W        W85799  13.841  42.495   3.639
19369W        W85800  12.621  39.432   4.460
19370W        W85801  26.352  16.157   2.464
19371W        W85802  20.691  11.099   1.066
19372W        W85803   9.121   5.825  14.837
19373W        W85804  21.597  24.988   3.442
19374W        W85805  11.788  35.648   4.497
19375W        W85806   1.403   5.838  14.473
19376W        W85807  25.662  11.033  12.064
19377W        W85808  34.562  14.416   2.781
19378W        W85809  15.778   4.372  11.117
19379W        W85810  31.616  14.052  13.459
19380W        W85811  27.706  18.701   3.922
19381W        W85812  39.524  43.051   1.653
19382W        W85813   5.860  30.851  14.084
19383W        W85814  16.195   8.729   1.416
19384W        W85815  44.540   8.355   1.477
19385W        W85816  34.945   3.363   4.537
19386W        W85817  39.892   3.707   3.174
19387W        W85818   7.754   7.907  14.102
19388W        W85819  24.582  43.215   0.808
19389W        W85820   1.485  42.367   0.079
19390W        W85821  16.340  34.992  10.772
19391W        W85822  38.427  28.103   1.900
19392W        W85823   8.089  29.705   0.372
19393W        W85824  32.192   9.783   4.710
19394W        W85825  21.812  20.012  14.091
19395W        W85826  39.109  25.359   1.222
19396W        W85827  33.509  44.111  14.550
19397W        W85828   2.936  37.428  12.193
19398W        W85829  42.426   4.425   3.336
19399W        W85830   2.370  43.491   3.865
19400W        W85831  24.045  21.272   1.707
19401W        W85832   5.805   0.400   2.222
19402W        W85833  36.079  32.439  14.894
19403W        W85834   9.233  15.699   4.747
19404W        W85835   0.762  19.048  12.038
19405W        W85836  28.577  36.613  13.506
19406W        W85837  12.790  27.271   1.359
19407W        W85838  40.544   2.846   4.616
19408W        W85839   9.202  15.317   0.220
19409W        W85840  39.108  26.697   3.959
19410W        W85841  10.797  41.342  12.141
19411W        W85842  16.071  44.763   2.911
19412W        W85843  37.422  17.260   2.267
19413W        W85844  31.593  25.914   1.941
19414W        W85845  37.886  29.012   4.346
19415W        W85846  28.445   0.192  14.762
19416W        W85847   8.775  23.123   4.004
19417W        W85848  32.978   4.478  13.591
19418W        W85849  15.054  40.303  13.579
19419W        W85850  29.109   8.703   1.751
19420W        W85851  20.017  27.998   4.959
19421W        W85852  40.028  27.004  12.040
19422W        W85853  28.367  26.194  13.520
19423W        W85854  37.451  38.340   0.980
19424W        W85855   5.980  28.518  14.926
19425W        W85856  27.017  39.565  13.048
19426W        W85857  41.061  14.917   4.491
19427W        W85858  18.235  17.820  10.719
19428W        W85859   0.917   9.740   1.710
19429W        W85860  14.367  14.266   2.396
19430W        W85861  33.464   1.661   1.497
19431W        W85862   2.872   6.130  12.091
19432W        W85863  10.691  35.078   2.251
19433W        W85864  32.956  42.492   2.717
19434W        W85865   6.971  28.215   3.170
19435W        W85866  31.592   4.751   3.644
19436W        W85867   6.959  20.011  11.986
19437W        W85868   3.936  15.448   1.296
19438W        W85869  37.148  38.167  14.565
19439W        W85870  25.294   5.889   2.806
19440W        W85871  13.320  32.135  12.487
19441W        W85872  25.135   7.345   1.249
19442W        W85873  44.500   6.760   2.251
19443W        W85874  42.432  41.114  14.985
19444W        W85875  41.919  26.411  11.672
19445W        W85876  17.050  20.590  11.991
19446W        W85877  26.473  28.064   3.579
19447W        W85878   6.468   0.919   3.624
19448W        W85879   5.664  28.703   4.093
19449W        W85880  35.455   8.892   0.972
19450W        W85881   1.186   0.475  10.797
19451W        W85882  27.172   8.204   2.488
19452W        W85883  35.416  22.580   0.399
19453W        W85884  17.457  15.524   0.915
19454W        W85885  21.928  40.685  13.819
19455W        W85886  30.991  22.900  11.367
19456W        W85887  34.373  26.756   1.953
19457W        W85888  10.730  32.905  12.099
19458W        W85889  41.718  32.989  14.105
19459W        W85890  16.207   2.933   1.455
19460W        W85891  23.301   9.762  12.856
19461W        W85892   5.216  14.797  11.581
19462W        W85893  39.794   4.208   3.827
19463W        W85894  30.924  36.909  13.991
19464W        W85895   4.984  33.423  11.540
19465W        W85896   8.273  15.074  13.389
19466W        W85897  30.430  31.032  13.382
19467W        W85898   4.678  37.055   2.368
19468W        W85899  41.789  17.848  14.979
19469W        W85900  39.659  25.778  14.347
19470W        W85901   4.835  28.238   2.223
19471W        W85902  36.275  38.857  14.179
19472W        W85903  25.546  26.288  13.858
19473W        W85904  17.467  32.806   4.143
19474W        W85905   4.817   4.424  11.451
19475W        W85906  19.680  41.173  12.894
19476W        W85907  44.731  36.675  14.918
19477W        W85908  21.898  33.762   4.950
19478W        W85909  14.183  26.550  12.874
19479W        W85910  25.721  18.275   0.451
19480W        W85911  12.694  27.687   2.238
19481W        W85912  27.118  11.355  13.453
19482W        W85913  39.337  21.986  12.038
19483W        W85914  30.574  11.620  12.833
19484W        W85915  13.600  27.576   3.760
19485W        W85916   3.554  18.638   4.856
19486W        W85917  30.670  21.759   1.871
19487W        W85918  11.891   1.350  12.657
19488W        W85919  40.297  42.802  12.931
19489W        W85920  25.072  24.624   0.942
19490W        W85921  25.365  19.153   9.816
19491W        W85922  20.400  24.214  12.071
19492W        W85923  27.391  33.121  11.411
19493W        W85924  17.594  34.852   0.809
19494W        W85925  42.202  29.672   2.690
19495W        W85926  22.533  14.793  11.808
19496W        W85927  13.791  17.728   3.118
19497W        W85928   5.076  40.863   1.331
19498W        W85929  42.849  11.933   5.285
19499W        W85930  15.762  22.019  14.600
19500W        W85931  35.246  30.529   0.287
19501W        W85932  28.378   2.796   3.208
19502W        W85933  26.528  15.371   4.831
19503W        W85934  28.150  32.669  11.643
19504W        W85935   1.191  44.488   0.132
19505W        W85936   9.404  31.555   1.842
19506W        W85937  38.385   7.716   2.825
19507W        W85938  17.533  42.855   1.499
19508W        W85939  41.937  42.418  14.433
19509W        W85940  30.931  31.786  13.398
19510W        W85941   6.743  44.664  13.141
19511W        W85942  42.955  30.501   4.592
19512W        W85943  31.802   1.204  11.594
19513W        W85944  24.523   5.802   0.376
19514W        W85945  33.626  35.128   1.483
19515W        W85946  14.186  34.974   0.680
19516W        W85947  31.390  12.934   2.843
19517W        W85948  21.488  15.569   0.962
19518W        W85949  36.505  42.584  11.425
19519W        W85950  28.862  41.396   0.843
19520W        W85951  14.115   1.501   4.407
19521W        W85952  15.216  43.558   5.016
19522W        W85953  42.919   4.936  13.647
19523W        W85954  30.953   7.820  13.962
19524W        W85955  13.610  39.259  12.786
19525W        W85956  33.564  18.499  13.825
19526W        W85957  11.102  17.940  12.035
19527W        W85958  17.386   1.368  10.551
19528W        W85959  35.588  18.955   2.833
19529W        W85960   5.477  22.409  10.708
19530W        W85961  35.875  19.429  13.450
19531W        W85962  17.279  12.969   4.949
19532W        W85963  26.112  23.452   4.121
19533W        W85964  33.560  28.695   0.333
19534W        W85965   6.969  25.215   4.148
19535W        W85966  14.292  43.248  11.613
19536W        W85967  26.477  29.586   0.533
19537W        W85968  38.922  43.938   0.333
19538W        W85969  16.145  23.372  12.465
19539W        W85970  18.495  40.957  14.502
19540W        W85971   0.315   4.212   2.154
19541W        W85972   9.759  42.777   2.234
19542W        W85973  44.730  10.733   2.695
19543W        W85974  12.338   3.364  13.980
19544W        W85975   1.986  14.118  11.189
19545W        W85976  30.185  27.224   2.262
19546W        W85977  37.283  34.415   2.680
19547W        W85978  12.572  21.966  14.390
19548W        W85979  39.481  30.206  12.987
19549W        W85980  28.283  44.927  14.049
19550W        W85981  18.521   9.263  12.136
19551W        W85982   2.350  17.737  12.020
19552W        W85983  34.806  32.064  14.288
19553W        W85984  35.346  41.230   1.561
19554W        W85985  18.299  40.133  13.887
19555W        W85986   1.451  28.008  11.633
19556W        W85987  31.527  40.791  14.728
19557W        W85988   0.042  44.598  10.845
19558W        W85989  43.041  11.080   1.484
19559W        W85990  12.717  20.522   2.543
19560W        W85991   1.457  26.094   1.030
19561W        W85992  13.066  15.783  14.910
19562W        W85993   5.696  43.078   2.132
19563W        W85994  32.650  30.555   2.275
19564W        W85995   9.390  32.935  12.033
19565W        W85996  16.927   9.278   0.661
19566W        W85997  37.825  34.088  12.663
19567W        W85998  12.531   5.247   0.575
19568W        W85999   6.202  24.580  11.597
19569W        W86000  12.748  38.891   2.648
19570W        W86001   1.567  23.652   4.125
19571W        W86002  18.131  21.226  12.832
19572W        W86003  15.505  23.700   3.758
19573W        W86004  18.653   8.253  12.035
19574W        W86005   2.163   9.296   3.698
19575W        W86006   3.523  15.389  12.937
19576W        W86007  22.826   0.049  10.990
19577W        W86008  24.049  28.901   3.769
19578W        W86009  30.222  26.815  14.782
19579W        W86010  30.727  11.712   0.233
19580W        W86011  41.433  35.789  14.101
19581W        W86012  40.339  20.035  12.241
19582W        W86013  12.826   1.003  13.999
19583W        W86014  35.667  15.608  10.730
19584W        W86015  37.261   7.222   1.146
19585W        W86016  19.021  11.384   3.439
19586W        W86017  21.191  43.026   4.976
19587W        W86018  17.739  20.107   1.030
19588W        W86019  12.052  41.795  14.334
19589W        W86020  12.135   8.674   1.787
19590W        W86021   5.431  22.650   4.665
19591W        W86022   3.360   7.730  13.389
19592W        W86023  31.327  28.563   0.697
19593W        W86024  19.493  27.563   3.704
19594W        W86025  23.875  30.566  13.525
19595W        W86026  42.224  44.431   0.948
19596W        W86027  37.496  38.587   3.620
19597W        W86028  36.189  29.403  14.981
19598W        W86029  43.852  34.649   2.294
19599W        W86030  20.975  33.082   2.649
19600W        W86031  23.752  20.605  13.083
19601W        W86032  22.848   7.200  13.449
19602W        W86033  19.294  37.383   4.124
19603W        W86034   8.068  18.437   1.563
19604W        W86035   5.937  41.290   1.195
19605W        W86036  31.475  23.516   2.917
19606W        W86037  34.357  44.875   0.911
19607W        W86038  13.292  11.252   3.245
19608W        W86039  30.692  27.989  10.751
19609W        W86040  35.838  41.450   0.456
19610W        W86041  14.686  35.025  10.833
19611W        W86042  25.274   8.687   1.847
19612W        W86043  14.522  13.318  12.387
19613W        W86044  40.797  31.447   3.234
19614W        W86045  17.913   4.826   4.565
19615W        W86046  40.422   5.358   0.636
19616W        W86047  23.984   1.269   3.850
19617W        W86048  14.929  44.547  13.537
19618W        W86049  11.722   3.632  11.119
19619W        W86050  32.115  37.294   3.736
19620W        W86051  41.991  29.611  11.146
19621W        W86052  10.858   1.202  11.657
19622W        W86053  41.811  15.177   4.493
19623W        W86054  17.086  15.562  14.149
19624W        W86055  22.244  13.684   1.419
19625W        W86056  22.045  40.853   5.018
19626W        W86057  14.350  36.562   4.127
19627W        W86058  42.882  27.506  13.979
19628W        W86059  13.729  10.810  13.461
19629W        W86060   8.758  28.906   4.862
19630W        W86061  25.153  19.774   4.414
19631W        W86062  10.404   0.890   4.218
19632W        W86063  28.182   8.334   2.279
19633W        W86064  16.828  21.192  10.550
19634W        W86065  25.110  42.147   0.384
19635W        W86066  10.840  38.399  14.830
19636W        W86067  23.178  27.918  10.217
19637W        W86068  35.310  27.621  11.658
19638W        W86069  14.338  33.254  12.911
19639W        W86070  20.223   1.827   0.421
19640W        W86071  38.112  10.360  12.070
19641W        W86072  32.459  30.406   4.488
19642W        W86073  15.180   2.102   4.990
19643W        W86074  44.073  36.793  11.509
19644W        W86075   2.378  41.930  12.478
19645W        W86076  18.132  16.775   3.898
19646W        W86077  13.836  41.985   3.729
19647W        W86078  17.559  36.983   2.142
19648W        W86079  38.479  40.059   2.842
19649W        W86080  30.308  43.512  10.647
19650W        W86081  18.337  16.127  10.028
19651W        W86082   7.762  22.480  12.105
19652W        W86083  12.585  38.565  12.582
19653W        W86084  42.790  36.030  11.703
19654W        W86085   6.213   1.913  13.777
19655W        W86086  11.973  23.639   2.352
19656W        W86087  16.325   0.309  13.520
19657W        W86088   5.744   2.216   3.889
19658W        W86089   7.754  23.618   3.177
19659W        W86090  42.264  32.464   2.179
19660W        W86091   3.689  41.370  13.540
19661W        W86092   0.512   0.420   4.099
19662W        W86093  35.081  29.543   2.722
19663W        W86094   2.405  12.340   4.942
19664W        W86095  39.288  21.958   1.976
19665W        W86096   6.798  10.453   2.056
19666W        W86097  14.798  30.444  12.743
19667W        W86098  15.615  15.338   3.166
19668W        W86099  19.076   8.297   0.850
19669W        W86100  15.142  10.828  13.444
19670W        W86101   4.785  14.246   2.296
19671W        W86102  17.664  36.334   0.909
19672W        W86103   3.544  18.811  10.500
19673W        W86104  43.262   2.145  11.306
19674W        W86105  17.784  17.024   4.464
19675W        W86106  35.546  20.685  10.753
19676W        W86107   2.062  43.366  11.119
19677W        W86108  27.364  12.115   0.842
19678W        W86109   5.952  33.817  12.177
19679W        W86110  11.666  39.638   0.486
19680W        W86111  25.195   5.715  10.265
19681W        W86112  16.319   3.352  12.980
19682W        W86113  33.106  26.034  10.751
19683W        W86114  13.619  12.008  12.970
19684W        W86115  10.640  13.609  11.013
19685W        W86116  10.916   7.223   3.608
19686W        W86117   0.705   7.718  13.394
19687W        W86118  29.340  25.314   2.792
19688W        W86119  39.407  43.770  14.896
19689W        W86120  41.306  32.649   3.688
19690W        W86121  33.063  11.744   4.120
19691W        W86122  31.652  36.452   1.295
19692W        W86123  16.314  40.225  12.351
19693W        W86124  39.082  13.658  13.119
19694W        W86125  12.418  22.650   1.042
19695W        W86126  22.729   2.140  11.865
19696W        W86127  21.108  38.034  12.055
19697W        W86128  22.073   8.748  11.673
19698W        W86129  18.893  25.694  14.918
19699W        W86130  32.096   4.852  12.885
19700W        W86131  12.240   0.574  12.456
19701W        W86132   4.032   4.394  11.766
19702W        W86133  31.859  12.291   0.682
19703W        W86134  37.711  13.758  14.823
19704W        W86135   5.493  31.488  14.356
19705W        W86136  21.774  43.943  12.388
19706W        W86137  32.440  43.714   2.637
19707W        W86138  25.024  35.421  13.007
19708W        W86139  32.871  37.182  12.903
19709W        W86140   8.005  29.378  11.068
19710W        W86141  26.378   3.246   3.692
19711W        W86142  37.557  22.220   5.182
19712W        W86143  31.868  35.312  13.940
19713W        W86144  39.798  26.503  10.225
19714W        W86145  25.073   6.740  10.795
19715W        W86146  17.418  19.981  11.817
19716W        W86147   4.971   7.176   0.333
19717W        W86148  12.370  22.030   2.712
19718W        W86149   6.725   5.828  12.779
19719W        W86150  14.785   0.510   4.054
19720W        W86151  32.165  20.044  13.916
19721W        W86152  27.976  25.632   3.380
19722W        W86153  15.139  20.333  12.856
19723W        W86154  26.602  16.794  11.082
19724W        W86155  30.900  43.982  12.348
19725W        W86156   5.434   8.102  13.839
19726W        W86157  34.318  21.409   4.648
19727W        W86158  23.225  35.402   4.198
19728W        W86159  27.432  42.756  13.925
19729W        W86160  12.773  31.572   2.386
19730W        W86161  39.744  41.995  12.129
19731W        W86162  21.997   9.223  14.432
19732W        W86163  14.835   4.016  14.267
19733W        W86164  16.817  17.763   3.835
19734W        W86165  23.384  40.285  14.029
19735W        W86166   5.867  12.113   4.563
19736W        W86167  23.033  43.927  11.002
19737W        W86168   7.192   8.135  14.901
19738W        W86169  37.909   0.874  13.263
19739W        W86170  31.676   2.099   1.915
19740W        W86171  17.667  32.711  12.259
19741W        W86172  43.831   0.470   1.536
19742W        W86173  23.479  28.650  12.198
19743W        W86174  24.826   5.266   1.778
19744W        W86175  31.665  12.640  11.117
19745W        W86176  25.427  42.957   0.075
19746W        W86177  13.782  23.088   0.911
19747W        W86178   5.688  11.926   0.463
19748W        W86179  10.168  31.185  10.559
19749W        W86180  34.595  37.507   4.264
19750W        W86181   1.255  34.762   1.808
19751W        W86182  19.842  12.217  11.048
19752W        W86183   8.782  11.444  11.462
19753W        W86184  39.326  29.348  11.409
19754W        W86185   1.944  19.528  10.747
19755W        W86186  22.163  29.337  14.355
19756W        W86187  32.761   8.396   1.520
19757W        W86188  12.933  32.172  13.881
19758W        W86189   5.370  33.627  13.808
19759W        W86190  31.475  44.018  13.658
19760W        W86191  31.966  32.627  12.847
19761W        W86192  18.090   3.246  14.513
19762W        W86193   1.249  24.156   0.943
19763W        W86194  21.567  35.570  10.577
19764W        W86195  40.051  23.008   3.872
19765W        W86196   2.446  14.174  14.803
19766W        W86197  22.263  24.094  10.777
19767W        W86198  17.332  34.374  12.475
19768W        W86199  28.580   6.344  11.412
19769W        W86200  13.269  33.633  14.535
19770W        W86201  18.699   7.539   4.868
19771W        W86202  23.589  16.313  13.019
19772W        W86203  27.328  24.720  12.048
19773W        W86204  44.290  31.993   2.721
19774W        W86205  33.123  24.896  13.604
19775W        W86206  11.734   6.338  12.138
19776W        W86207  36.390   4.301  14.940
19777W        W86208  19.605  21.603  12.208
19778W        W86209  13.371  24.214  12.357
19779W        W86210  44.316  37.849   4.519
19780W        W86211  43.826  34.948   0.309
19781W        W86212  21.497   5.286   1.226
19782W        W86213  38.185  28.272  13.565
19783W        W86214   4.333   1.300   4.561
19784W        W86215   4.355   9.669  13.097
19785W        W86216  30.144  34.466  13.056
19786W        W86217  26.029   0.367   3.300
19787W        W86218   6.033   0.848  11.620
19788W        W86219  21.186  19.230  13.892
19789W        W86220  33.430  24.160  11.613
19790W        W86221   3.394  38.603   0.486
19791W        W86222  43.273  30.918  10.921
19792W        W86223   8.364   4.713   0.360
19793W        W86224  30.941  33.989  10.771
19794W        W86225  10.571  20.484  13.173
19795W        W86226  17.668  32.885  11.243
19796W        W86227  25.456  41.796  13.092
19797W        W86228   0.954  20.245   4.176
19798W        W86229  10.127  23.253  13.540
19799W        W86230  39.357  26.148  13.050
19800W        W86231   3.811  16.773  14.714
19801W        W86232   2.793  34.025   3.179
19802W        W86233  32.184  30.114   3.217
19803W        W86234  23.281  21.065  10.675
19804W        W86235  22.211  29.952  11.849
19805W        W86236  38.569  36.294   2.109
19806W        W86237  35.817  20.563   1.957
19807W        W86238  43.761   3.437   3.272
19808W        W86239  26.634  34.130  14.351
19809W        W86240   7.461  30.774   4.841
19810W        W86241  17.589  20.975  12.798
19811W        W86242  43.763  16.236   3.143
19812W        W86243  16.125  25.140  12.293
19813W        W86244   7.824  18.611  14.055
19814W        W86245  21.294  18.314  10.653
19815W        W86246  16.440  41.510  12.572
19816W        W86247   5.805  24.212   0.779
19817W        W86248   6.222  38.526  14.038
19818W        W86249  26.587   3.403  12.546
19819W        W86250  15.640   6.646   0.751
19820W        W86251  31.668  23.509   3.800
19821W        W86252  29.559  17.126   2.122
19822W        W86253  16.348  22.744  12.879
19823W        W86254  34.800  24.508   0.722
19824W        W86255  20.986  13.227  10.941
19825W        W86256  20.811  25.173  13.892
19826W        W86257  13.713  12.149   2.420
19827W        W86258  29.570  20.327   1.952
19828W        W86259  19.181  24.261  14.062
19829W        W86260   9.800   4.329   3.385
19830W        W86261  29.232  26.500  14.019
19831W        W86262  21.978  40.396  11.906
19832W        W86263   6.870  35.935  11.693
19833W        W86264   3.329   4.590  10.616
19834W        W86265  23.493  33.419  10.608
19835W        W86266   5.214  26.438   2.419
19836W        W86267  36.882  16.747   1.173
19837W        W86268  42.938   4.743   0.234
19838W        W86269  24.003   0.038   0.790
19839W        W86270  15.071  39.396  11.552
19840W        W86271  16.574  42.834   4.109
19841W        W86272  10.726  13.241  10.235
19842W        W86273   1.020  23.822  13.511
19843W        W86274  44.501  21.947  10.059
19844W        W86275   5.737  13.848   5.495
19845W        W86276  12.809  44.502  12.581
19846W        W86277   0.907   4.605   1.242
19847W        W86278  40.083  30.394  10.763
19848W        W86279  22.691  18.565   3.047
19849W        W86280  19.728  34.094   4.579
19850W        W86281  17.952  32.603   1.329
19851W        W86282   9.805   8.186   4.981
19852W        W86283  16.710   6.501  11.585
19853W        W86284   3.703  16.265   4.526
19854W        W86285  44.161  22.321  14.838
19855W        W86286  22.073  32.004  10.729
19856W        W86287  33.444   4.885  10.464
19857W        W86288   1.864   4.724  12.452
19858W        W86289  40.676  20.243  13.500
19859W        W86290  26.201  38.404  13.391
19860W        W86291  16.912  26.268  11.579
19861W        W86292  14.606  37.388   1.907
19862W        W86293  27.642  28.591  10.523
19863W        W86294  16.097   4.026   2.356
19864W        W86295  33.925  37.230  10.913
19865W        W86296  29.975  19.063  10.629
19866W        W86297  11.613  32.461   4.157
19867W        W86298  11.685  39.922  13.152
19868W        W86299  13.087   3.284   4.641
19869W        W86300   6.634  24.552   0.905
19870W        W86301   6.790  10.714  14.463
19871W        W86302  44.466  39.562  14.341
19872W        W86303  44.300  15.281   2.548
19873W        W86304   7.608  13.434   4.937
19874W        W86305   2.743  27.905   3.245
19875W        W86306  16.114  17.775  14.780
19876W        W86307   2.951  17.179  11.636
19877W        W86308  15.797   3.811  13.477
19878W        W86309  25.266  19.330   3.929
19879W        W86310   3.968  41.466  13.127
19880W        W86311   5.430  17.832  10.760
19881W        W86312  27.265  20.162  12.043
19882W        W86313   8.169  14.970   4.499
19883W        W86314   7.114   7.281   2.721
19884W        W86315  25.754  39.825   4.409
19885W        W86316   8.577   7.994  14.804
19886W        W86317  27.810  16.242  14.046
19887W        W86318  14.735  15.755  12.495
19888W        W86319   6.696   4.798   3.192
19889W        W86320  36.048  16.517   2.959
19890W        W86321   2.779  28.411   1.837
19891W        W86322  41.563  18.787  12.478
19892W        W86323  20.786   2.943   1.152
19893W        W86324  38.640  37.123   2.675
19894W        W86325   0.137  38.809   2.622
19895W        W86326  25.571  26.683  13.037
19896W        W86327  43.898  14.825  11.993
19897W        W86328  31.424  25.213  11.236
19898W        W86329  36.518  25.220  13.904
19899W        W86330   2.296  30.535   3.246
19900W        W86331   7.970  10.158  11.979
19901W        W86332  28.865  18.153  12.162
19902W        W86333  41.539  38.527  12.910
19903W        W86334  10.593  36.288   3.759
19904W        W86335  23.149  19.342   3.801
19905W        W86336  20.367   0.743  13.389
19906W        W86337  41.390  26.170   4.321
19907W        W86338  44.050  15.192   1.295
19908W        W86339  27.545  20.640   4.901
19909W        W86340   1.687   3.398  12.486
19910W        W86341  44.042  36.961   1.697
19911W        W86342  31.881  11.267   1.165
19912W        W86343  21.313  21.514   2.273
19913W        W86344  21.627  14.232  12.610
19914W        W86345  42.913  29.816   5.149
19915W        W86346  10.724   3.493   1.447
19916W        W86347  32.683  13.669   4.219
19917W        W86348  24.098   5.301  10.244
19918W        W86349  38.814  40.560   0.404
19919W        W86350  25.501  13.544   1.963
19920W        W86351  35.364  40.294  14.826
19921W        W86352   3.754  15.154  11.210
19922W        W86353  38.923  37.860  12.881
19923W        W86354  21.558   7.882  13.801
19924W        W86355  18.122  44.187   1.184
19925W        W86356  20.542  44.355   2.573
19926W        W86357  42.356  31.094   4.545
19927W        W86358  25.481  16.562  10.767
19928W        W86359  20.327   7.029  10.474
19929W        W86360  23.628   5.730   1.906
19930W        W86361  29.518   6.910  13.453
19931W        W86362  15.227  13.809   2.002
19932W        W86363  40.008  31.058   3.117
19933W        W86364  20.351  29.959  12.311
19934W        W86365   4.778  32.733  11.145
19935W        W86366  38.359  17.407   4.179
19936W        W86367   9.821  22.974   0.910
19937W        W86368  30.475  36.394  13.361
19938W        W86369  30.983  20.853   3.807
19939W        W86370  11.063   1.284  14.858
19940W        W86371   0.754  14.377   1.393
19941W        W86372  37.280  22.586  11.972
19942W        W86373  34.989   7.740  13.049
19943W        W86374  37.027   1.906   4.046
19944W        W86375   8.241  18.293  13.934
19945W        W86376  44.735  43.744  10.641
19946W        W86377   6.298  18.698  11.573
19947W        W86378  43.465  13.066   0.414
19948W        W86379  33.683  27.627   0.459
19949W        W86380  18.257  34.799   2.332
19950W        W86381  30.270  43.374   2.935
19951W        W86382  34.273  38.372   4.130
19952W        W86383  43.472  22.978   0.783
19953W        W86384  40.310   3.007   1.351
19954W        W86385  17.645  28.038   4.249
19955W        W86386  19.537   9.130   1.298
19956W        W86387  15.142   9.347  11.110
19957W        W86388  37.454  12.529  14.411
19958W        W86389  17.991   2.396   1.234
19959W        W86390  35.802  19.839   4.587
19960W        W86391  44.329  20.246   2.733
19961W        W86392  38.738  39.415   1.388
19962W        W86393  21.657  12.376  11.201
19963W        W86394  44.957  38.458  13.311
19964W        W86395  39.472  17.511   3.805
19965W        W86396  22.461  34.322  13.200
19966W        W86397  37.353   5.753  14.706
19967W        W86398   3.915  38.497  11.058
19968W        W86399  35.935  40.477   5.049
19969W        W86400  29.555  16.269   3.793
19970W        W86401  39.411  28.146  10.609
19971W        W86402  31.943  11.124  11.503
19972W        W86403  32.063  17.398  12.969
19973W        W86404  18.137   8.705   0.338
19974W        W86405  16.364  37.473   0.350
19975W        W86406  32.609   2.233  10.867
19976W        W86407   6.348  11.867  13.337
19977W        W86408  43.930  28.902   1.386
19978W        W86409  10.836  11.709   1.618
19979W        W86410  17.195  24.070   3.128
19980W        W86411   9.680  36.160   4.499
19981W        W86412   5.707   2.435   1.390
19982W        W86413   5.510  11.308  12.829
19983W        W86414  12.004  29.409   1.769
19984W        W86415  27.430  25.227  13.729
19985W        W86416  43.158  35.659   3.234
19986W        W86417  23.490  15.684  14.702
19987W        W86418   1.069  38.393  14.112
19988W        W86419  29.666   4.805  11.567
19989W        W86420  12.406  26.083  13.531
19990W        W86421  20.992  17.976  13.427
19991W        W86422  29.176  16.518   4.273
19992W        W86423  32.441   6.169  11.119
19993W        W86424  19.209  35.170   3.812
19994W        W86425   6.600  39.978  14.808
19995W        W86426  13.298  15.187   0.791
19996W        W86427  28.400  10.758  11.691
19997W        W86428  22.849   8.194  12.947
19998W        W86429  17.319  40.763   4.630
19999W        W86430  32.673  28.209   1.262
20000W        W86431  13.633   3.227  10.974
20001W        W86432  43.886  41.036  12.419
20002W        W86433  35.437  13.105   0.917
20003W        W86434  31.619  44.492  14.399
20004W        W86435  40.528  28.413   2.769
20005W        W86436   7.301  18.693  13.369
20006W        W86437  34.446  43.048  10.655
20007W        W86438  23.827  10.657   3.168
20008W        W86439  16.138   1.388  13.545
20009W        W86440  23.687  42.009  11.213
20010W        W86441   3.625  17.579  14.975
20011W        W86442   6.859  18.407  13.735
20012W        W86443   8.939  30.533  11.196
20013W        W86444  18.260   3.737  14.474
20014W        W86445  43.429  44.778   1.486
20015W        W86446  32.357  27.036   2.277
20016W        W86447  33.514  35.449  11.094
20017W        W86448  24.099  21.786   1.112
20018W        W86449  31.486  18.666   4.219
20019W        W86450  26.486  18.828  13.845
20020W        W86451  38.852   5.783  13.853
20021W        W86452  23.590  17.844  12.596
20022W        W86453  18.067  36.727   2.311
20023W        W86454  44.053  11.608  13.636
20024W        W86455  10.550  14.188   2.374
20025W        W86456   6.901   5.402   2.661
20026W        W86457  32.113  26.024  14.717
20027W        W86458  33.025   3.509  11.956
20028W        W86459  29.664  18.327   4.719
20029W        W86460  20.525   8.167   2.822
20030W        W86461  21.043  44.282   2.760
20031W        W86462  17.621   2.663  14.629
20032W        W86463  17.277  22.597   1.821
20033W        W86464   8.475  33.683  11.907
20034W        W86465  36.452  44.906   0.512
20035W        W86466  25.168  39.128   1.138
20036W        W86467   0.031  29.536  12.516
20037W        W86468   8.119  26.125  13.007
20038W        W86469  27.083   9.928  12.435
20039W        W86470  24.738  37.506  14.690
20040W        W86471   0.816  26.484   5.086
20041W        W86472  13.877  11.447   1.110
20042W        W86473  36.816  15.773  14.190
20043W        W86474  20.246  19.904  12.825
20044W        W86475   1.231   5.704  13.070
20045W        W86476  10.706   3.907   2.615
20046W        W86477  34.939  23.759  12.615
20047W        W86478   8.210  36.460   2.382
20048W        W86479  34.936  33.873  14.287
20049W        W86480  28.536  28.934  11.500
20050W        W86481  17.369  32.219   0.065
20051W        W86482  31.402   1.868   1.509
20052W        W86483  34.590   8.542   0.092
20053W        W86484  18.898  30.649  13.940
20054W        W86485  30.909  30.141  14.889
20055W        W86486  16.829  37.529  13.963
20056W        W86487  10.811  37.305  11.526
20057W        W86488  17.370  11.250  11.500
20058W        W86489  17.609   2.354   3.747
20059W        W86490  30.317  21.136   4.957
20060W        W86491  23.650  16.521   5.262
20061W        W86492  20.563   3.437  12.417
20062W        W86493  35.988   5.486  13.061
20063W        W86494  10.756  11.772   4.742
20064W        W86495   1.440  19.362  13.774
20065W        W86496  26.092   3.355  11.967
20066W        W86497   7.241  10.611  12.895
20067W        W86498  12.249  20.848   1.399
20068W        W86499   7.971  35.802  11.090
20069W        W86500   1.182  13.331  14.828
20070W        W86501  37.247  33.779  10.886
20071W        W86502  13.615  10.227  10.683
20072W        W86503  44.040  33.696  10.669
20073W        W86504  29.353  17.021  14.403
20074W        W86505  26.624  38.095  13.440
20075W        W86506  39.994  25.195  12.847
20076W        W86507   4.373  24.246  10.552
20077W        W86508  41.777   5.223  14.806
20078W        W86509  36.062   2.731  14.852
20079W        W86510   0.029  42.359  14.180
20080W        W86511  31.265  41.954   1.784
20081W        W86512  23.857   2.652  14.644
20082W        W86513  37.877  29.484  13.342
20083W        W86514   8.126   5.640   1.641
20084W        W86515   1.019  17.018  11.169
20085W        W86516  44.788   4.824  12.067
20086W        W86517  14.728   9.642  11.290
20087W        W86518  28.147  30.475   1.332
20088W        W86519   1.552  19.461  13.285
20089W        W86520  38.945  38.261   4.878
20090W        W86521  16.450  15.446  10.499
20091W        W86522  29.454  32.670  11.007
20092W        W86523  33.545  14.770   0.572
20093W        W86524  34.836  32.164   2.231
20094W        W86525  22.577  13.357   2.671
20095W        W86526  24.506  30.878   5.221
20096W        W86527  23.061  17.063   2.746
20097W        W86528  43.362  18.123   0.812
20098W        W86529  18.669   5.160   2.767
20099W        W86530  22.238  29.599  12.598
20100W        W86531  27.940  34.554  14.560
20101W        W86532  21.876  30.566  11.082
20102W        W86533  42.584  25.536   1.054
20103W        W86534  24.681  17.104   1.424
20104W        W86535  20.763  20.570  11.875
20105W        W86536   4.889  21.340   4.566
20106W        W86537  42.668  17.141   5.048
20107W        W86538  38.848  16.693  11.204
20108W        W86539   6.283  23.430  12.142
20109W        W86540   8.618  28.671   1.487
20110W        W86541  30.507  40.868  13.536
20111W        W86542  36.940  21.276   0.648
20112W        W86543  35.026  34.966  12.518
20113W        W86544  37.949  22.969   4.390
20114W        W86545  36.076  37.204  11.506
20115W        W86546  28.479  31.328   4.119
20116W        W86547   0.562  16.128  13.382
20117W        W86548  12.174  42.413  10.732
20118W        W86549  15.288   1.482   1.347
20119W        W86550  18.656  17.702   1.945
20120W        W86551  15.252  39.050   4.535
20121W        W86552  13.831  13.231  13.422
20122W        W86553  28.779  24.625   3.063
20123W        W86554  25.233  14.900  14.169
20124W        W86555   8.868   9.929  12.595
20125W        W86556  37.328  30.436  14.803
20126W        W86557  31.000  18.867   0.187
20127W        W86558  33.388  37.971   3.955
20128W        W86559   0.321   6.279  13.908
20129W        W86560  41.852   5.753   1.826
20130W        W86561   5.801   2.284  12.405
20131W        W86562  36.975  21.700  12.096
20132W        W86563  39.443  30.732  11.343
20133W        W86564   8.775  42.039  11.596
20134W        W86565  15.251   5.765   9.917
20135W        W86566  33.065  25.918  14.687
20136W        W86567   9.283  44.204  14.313
20137W        W86568  19.331  10.231  14.323
20138W        W86569  35.003   1.840   4.475
20139W        W86570   3.125  39.175   1.287
20140W        W86571  13.671  31.922  12.876
20141W        W86572  29.901  12.919  12.462
20142W        W86573  22.461   0.279   2.778
20143W        W86574   6.562  35.606   3.034
20144W        W86575  43.946  30.915  14.417
20145W        W86576  21.428  39.762  11.311
20146W        W86577  27.432  11.770   1.967
20147W        W86578  11.728  38.087   1.932
20148W        W86579  34.991  24.756  12.549
20149W        W86580  24.111  28.156  13.376
20150W        W86581   6.927  15.088  10.257
20151W        W86582   8.365  22.662   1.207
20152W        W86583  42.079  28.121  13.971
20153W        W86584  15.782  21.102  13.126
20154W        W86585  27.993  14.608   0.977
20155W        W86586  17.188  24.848   2.722
20156W        W86587  13.717  30.121   2.251
20157W        W86588   4.881   1.369   3.349
20158W        W86589   4.588  36.281   5.191
20159W        W86590  37.043  28.535  10.711
20160W        W86591  22.286  15.622  13.204
20161W        W86592  37.062  20.183   0.022
20162W        W86593  29.021  16.599   1.720
20163W        W86594   1.875   8.240  12.029
20164W        W86595  23.744  25.151   3.766
20165W        W86596   6.060  31.701  11.222
20166W        W86597  43.938   1.771   2.385
20167W        W86598  23.700   6.227  13.005
20168W        W86599  14.254   3.236  14.411
20169W        W86600  15.242  36.206  11.631
20170W        W86601  14.152  18.984   4.153
20171W        W86602  37.784   1.073  11.486
20172W        W86603   2.618   0.670   3.377
20173W        W86604  30.221  29.217   2.864
20174W        W86605  10.031  25.000   1.673
20175W        W86606  38.078   9.000   2.878
20176W        W86607  25.567  34.820   3.837
20177W        W86608  11.859  30.784   4.982
20178W        W86609  32.126   0.532  10.317
20179W        W86610  26.202  20.757  11.628
20180W        W86611   7.856  42.908  13.941
20181W        W86612   6.142  17.033  12.693
20182W        W86613  34.032  28.959   2.151
20183W        W86614  16.041  31.032   4.048
20184W        W86615   8.293   5.690   4.404
20185W        W86616  35.568  10.040  12.026
20186W        W86617   3.426  38.924  10.929
20187W        W86618  34.349  10.910  14.014
20188W        W86619  38.014   8.301  13.898
20189W        W86620  37.507  25.180  11.537
20190W        W86621   2.806  29.485   0.478
20191W        W86622   9.396  28.510   3.272
20192W        W86623  18.656  30.380  13.482
20193W        W86624  31.416  32.671   0.482
20194W        W86625  14.959  12.122   1.921
20195W        W86626  31.619  10.721  10.660
20196W        W86627  21.811  26.779  11.932
20197W        W86628  36.645  17.182  13.824
20198W        W86629  21.851  33.050   0.865
20199W        W86630  17.292  12.633   5.338
20200W        W86631  27.780   3.899   0.739
20201W        W86632  39.687  41.390   1.008
20202W        W86633   9.486  33.710  13.539
20203W        W86634  44.222  34.906   3.156
20204W        W86635  23.011  38.350  12.092
20205W        W86636  21.365  23.928  11.148
20206W        W86637  31.673  16.826  11.496
20207W        W86638  21.628  18.653  12.446
20208W        W86639  29.183   2.962  13.067
20209W        W86640  13.623  11.344   0.278
20210W        W86641  24.172   4.990   4.643
20211W        W86642  44.516  31.930  12.029
20212W        W86643  20.639  15.224   5.249
20213W        W86644  16.177   9.770   0.811
20214W        W86645  37.343   9.706   3.238
20215W        W86646  16.613  15.488  14.322
20216W        W86647  29.215  13.108  13.091
20217W        W86648  38.406  26.385  12.067
20218W        W86649   9.187  18.693  12.108
20219W        W86650   1.934  22.703  13.363
20220W        W86651  20.818  24.055  11.191
20221W        W86652  22.318  38.406   3.710
20222W        W86653  44.698   8.285  13.972
20223W        W86654  21.958  33.259   4.165
20224W        W86655   0.478  38.111   4.890
20225W        W86656  32.006  37.758  12.933
20226W        W86657  11.959  36.372   4.162
20227W        W86658  31.023  40.494   3.698
20228W        W86659  12.590  34.957  14.395
20229W        W86660  34.444  12.491  10.421
20230W        W86661   6.595  13.250  13.452
20231W        W86662  42.871  24.693   0.861
20232W        W86663  32.706  35.372   1.737
20233W        W86664   2.635  34.778   0.007
20234W        W86665   6.894   4.516  14.064
20235W        W86666  41.964  10.178  13.583
20236W        W86667   5.923  20.305  13.319
20237W        W86668  21.278  37.660  11.723
20238W        W86669   9.263  35.854   1.690
20239W        W86670  10.273   7.662  12.086
20240W        W86671  10.802  24.977  11.454
20241W        W86672   0.354  35.796   0.788
20242W        W86673   6.522  41.822   1.968
20243W        W86674   7.665  25.218  13.456
20244W        W86675   4.627   8.796   4.229
20245W        W86676  29.538  39.144   3.139
20246W        W86677  16.527  18.653   2.354
20247W        W86678  32.484  35.069  12.521
20248W        W86679  44.610   8.313   4.230
20249W        W86680   3.245  24.883   3.270
20250W        W86681  35.785  43.439   1.913
20251W        W86682  44.588   6.232  11.079
20252W        W86683  16.130  36.450   4.552
20253W        W86684  44.121  43.502  11.145
20254W        W86685   0.518  40.003  10.632
20255W        W86686  42.949   1.741  12.880
20256W        W86687  14.228   6.203  14.789
20257W        W86688  21.683  31.743   3.561
20258W        W86689   2.306   1.452  14.245
20259W        W86690  32.523  13.701   3.181
20260W        W86691  36.111  20.816  11.098
20261W        W86692  19.191  25.095  11.662
20262W        W86693  15.649  15.822  10.841
20263W        W86694   8.207  14.609  12.117
20264W        W86695  17.615  21.928  13.095
20265W        W86696   5.229   0.018  10.979
20266W        W86697  13.200  22.695   1.522
20267W        W86698   9.135   9.557  13.152
20268W        W86699   2.277  17.339   1.857
20269W        W86700  11.172  41.180  13.158
20270W        W86701  39.842  44.375  14.339
20271W        W86702  14.798  22.095   2.686
20272W        W86703   2.324   7.195  10.698
20273W        W86704  37.945  31.607   0.734
20274W        W86705  33.455   4.294   2.242
20275W        W86706  32.019  25.116   1.708
20276W        W86707  16.487  24.553  12.508
20277W        W86708  42.120  26.610   1.491
20278W        W86709   9.395  40.905   4.480
20279W        W86710  40.854  38.711  12.719
20280W        W86711  39.581  26.815   1.198
20281W        W86712   0.421  36.052   2.293
20282W        W86713  20.798  11.344  14.372
20283W        W86714  17.202   6.786  13.916
20284W        W86715  35.835   4.404   4.208
20285W        W86716  18.648  20.246  14.513
20286W        W86717  38.517  20.447  14.759
20287W        W86718   9.614  26.969   2.839
20288W        W86719  25.702   0.576   4.976
20289W        W86720   4.794   1.239  13.897
20290W        W86721  26.326   4.143   4.572
20291W        W86722  10.284  39.982   1.840
20292W        W86723  19.140  35.582   4.654
20293W        W86724  26.095  35.934  11.216
20294W        W86725  30.258  30.093   1.845
20295W        W86726  38.603  24.142   2.292
20296W        W86727  21.553  35.995  10.892
20297W        W86728  40.274  34.873   0.700
20298W        W86729  18.480   8.249  13.943
20299W        W86730  19.354  22.877   2.347
20300W        W86731  43.844  42.003   2.391
20301W        W86732  26.486  16.323   4.834
20302W        W86733  29.231  22.279  12.942
20303W        W86734  42.766  34.580   2.905
20304W        W86735  43.844   3.370  11.193
20305W        W86736  39.998  23.265  13.735
20306W        W86737   7.726  14.852   0.351
20307W        W86738   7.658  26.560  12.358
20308W        W86739   3.984  32.889   3.069
20309W        W86740  17.736   1.419   2.899
20310W        W86741  26.026  17.886  14.157
20311W        W86742  21.743  13.340   4.421
20312W        W86743   5.146   5.163   1.496
20313W        W86744  24.094  36.280   0.044
20314W        W86745  38.635  22.317  11.552
20315W        W86746  15.699  41.032   1.901
20316W        W86747   1.301  11.724   1.383
20317W        W86748  20.185  37.546   1.891
20318W        W86749  16.120  20.086  14.467
20319W        W86750  11.785   7.305  11.433
20320W        W86751  41.650  15.224  13.009
20321W        W86752   0.522  29.660  11.122
20322W        W86753  43.096  22.037   9.869
20323W        W86754  28.562  40.418  11.560
20324W        W86755  19.717  29.918   0.884
20325W        W86756  27.710  26.581  11.557
20326W        W86757   0.308  10.893   0.275
20327W        W86758  44.392  26.101  12.046
20328W        W86759  38.818  42.010  14.120
20329W        W86760  15.108  13.983   9.794
20330W        W86761   6.706   5.161   2.230
20331W        W86762  20.709  11.271  13.473
20332W        W86763  29.658  10.385  14.056
20333W        W86764   5.855  37.812  13.078
20334W        W86765  42.056  10.364  12.571
20335W        W86766  23.832  24.789   4.162
20336W        W86767   3.583  23.522   1.678
20337W        W86768  42.914   5.987  11.200
20338W        W86769   1.020  40.173   2.194
20339W        W86770   1.740  14.112  12.919
20340W        W86771   2.195  11.855  14.551
20341W        W86772  12.161  24.986   3.716
20342W        W86773  19.226  24.181   4.381
20343W        W86774  39.496  15.517   3.699
20344W        W86775  10.625   5.749  13.448
20345W        W86776  30.926  31.280   1.201
20346W        W86777  17.472   4.853  13.744
20347W        W86778  29.927  39.223  12.156
20348W        W86779  18.793   8.928  14.006
20349W        W86780   8.306  28.118   2.414
20350W        W86781  36.895  36.704  13.485
20351W        W86782  36.907  44.971   0.247
20352W        W86783  15.852  38.090  10.610
20353W        W86784  38.105   3.701  13.854
20354W        W86785  23.513  17.764  14.098
20355W        W86786   4.094   6.280  10.697
20356W        W86787  25.979  25.145  14.762
20357W        W86788  44.940  16.758  14.081
20358W        W86789  27.399   3.113   4.916
20359W        W86790  31.726  37.591  11.540
20360W        W86791  40.053  43.365   4.167
20361W        W86792  29.506  18.840   4.683
20362W        W86793  37.353  20.881  13.033
20363W        W86794   2.211   4.846   3.556
20364W        W86795  24.667  32.707  10.702
20365W        W86796  23.229  22.125  10.783
20366W        W86797  36.562  26.122   0.701
20367W        W86798  44.517  17.169   0.299
20368W        W86799  28.845   9.348  14.787
20369W        W86800   1.431  30.107  13.128
20370W        W86801   4.251   5.960  12.051
20371W        W86802  27.569  40.006   3.607
20372W        W86803  16.583  21.318  13.072
20373W        W86804  25.159   6.946  14.767
20374W        W86805  33.738  22.104   0.106
20375W        W86806  43.524  14.101  11.979
20376W        W86807  27.655  33.103  14.351
20377W        W86808  34.416  39.332   0.703
20378W        W86809  40.841  27.977   3.671
20379W        W86810  11.590  36.667  14.946
20380W        W86811   2.115  22.562   3.602
20381W        W86812  43.165  18.251  14.801
20382W        W86813  44.277   7.929   3.071
20383W        W86814  23.061  27.277   4.476
20384W        W86815  38.354  18.326  11.647
20385W        W86816  18.045  22.543   1.298
20386W        W86817  30.989  30.599  11.817
20387W        W86818  42.402  41.981  12.044
20388W        W86819  28.165   6.888  13.860
20389W        W86820  27.077  13.141   2.808
20390W        W86821   1.475  29.875   1.450
20391W        W86822  12.700  12.832   2.578
20392W        W86823  29.130  43.543  14.550
20393W        W86824  24.775  31.024  11.914
20394W        W86825  27.647  30.274   4.624
20395W        W86826  38.658  30.481   1.226
20396W        W86827  21.144  12.860  13.328
20397W        W86828  17.144  14.147  12.447
20398W        W86829   3.154  28.011  12.806
20399W        W86830   8.709  25.467  10.424
20400W        W86831   1.983  24.689  12.496
20401W        W86832  38.283  26.254   2.436
20402W        W86833  29.329  21.259   3.526
20403W        W86834  17.960  39.788   1.892
20404W        W86835  17.771  38.641   0.551
20405W        W86836  26.137   5.343  14.117
20406W        W86837  30.889  34.091   0.263
20407W        W86838   3.952  25.670   3.462
20408W        W86839  32.900  14.758  12.489
20409W        W86840  29.450   9.983  12.525
20410W        W86841  31.871  20.182  13.463
20411W        W86842   8.420  41.386  14.897
20412W        W86843  15.742   0.095  14.702
20413W        W86844  10.866  24.546   0.692
20414W        W86845   0.662  36.260   3.866
20415W        W86846  18.747  38.295   4.547
20416W        W86847  39.411  11.080  10.674
20417W        W86848  37.852   3.686  12.872
20418W        W86849  12.824   9.447   3.100
20419W        W86850  38.958  26.040  11.088
20420W        W86851  28.222  34.851  13.712
20421W        W86852  39.234  19.110  11.284
20422W        W86853  22.785  12.570  12.505
20423W        W86854  38.273  20.594   2.658
20424W        W86855  17.715  42.021  13.817
20425W        W86856   5.102  13.489  13.548
20426W        W86857  36.887  22.221  14.540
20427W        W86858  16.201   7.314  11.364
20428W        W86859  31.538  23.674  12.587
20429W        W86860   7.535  29.393   1.136
20430W        W86861  40.037  22.037  13.400
20431W        W86862  31.228  16.623   0.382
20432W        W86863   4.456  38.696   3.611
20433W        W86864  40.040  23.402   2.726
20434W        W86865   0.865  10.326  14.471
20435W        W86866  44.117  41.213   0.025
20436W        W86867  28.543  43.202  13.368
20437W        W86868  41.529  23.576  14.098
20438W        W86869  25.138  15.770   1.180
20439W        W86870  35.465  40.534  14.333
20440W        W86871   5.285  18.453  11.556
20441W        W86872  42.327  31.014   1.222
20442W        W86873  37.689  19.396  12.914
20443W        W86874  20.495  39.438  14.419
20444W        W86875  13.080   2.722   0.751
20445W        W86876   7.699  36.324   0.278
20446W        W86877  36.383  24.337  12.094
20447W        W86878  24.779  23.048   4.930
20448W        W86879   2.257   8.569  14.894
20449W        W86880  40.465  20.701  14.757
20450W        W86881  30.569  39.318   3.197
20451W        W86882  26.100  36.419   3.140
20452W        W86883   8.598  33.657  13.212
20453W        W86884  16.783  36.055  14.591
20454W        W86885  31.355  40.289   1.408
20455W        W86886  43.993  40.017  12.885
20456W        W86887  22.014  42.027  13.837
20457W        W86888  12.365  29.095   4.526
20458W        W86889  17.139  12.234   0.753
20459W        W86890  44.127  33.965  11.089
20460W        W86891  10.787   3.215   4.120
20461W        W86892  22.625  20.603  12.070
20462W        W86893  33.378  15.252   4.248
20463W        W86894  14.746  25.698   2.692
20464W        W86895  36.874  11.588  13.363
20465W        W86896  42.612  22.993  12.986
20466W        W86897   2.817   4.762  11.586
20467W        W86898  41.027  40.365  14.362
20468W        W86899  35.054  22.800  14.428
20469W        W86900  14.241  36.541  11.635
20470W        W86901   4.764  22.663   4.288
20471W        W86902  10.653  33.420  14.862
20472W        W86903  20.478  44.331   2.055
20473W        W86904   4.401  26.081   1.429
20474W        W86905  15.711   4.699  13.433
20475W        W86906  37.941   8.281  14.777
20476W        W86907  12.681  35.596   2.574
20477W        W86908  41.799  16.091  12.998
20478W        W86909  43.938  15.706  10.584
20479W        W86910  43.754  11.359   0.900
20480W        W86911  28.927  26.528   2.589
20481W        W86912  38.460   1.502  11.076
20482W        W86913  27.643  17.781   2.795
20483W        W86914   5.632   1.291  11.186
20484W        W86915   2.946  34.460   3.900
20485W        W86916  34.376  18.180   0.077
20486W        W86917  24.028  43.997   0.925
20487W        W86918  12.091   5.013  12.945
20488W        W86919  20.139  29.347  10.689
20489W        W86920  34.120  25.933   2.727
20490W        W86921   1.454  16.196  14.334
20491W        W86922   2.350  21.293  10.946
20492W        W86923  26.655  18.139  12.048
20493W        W86924  16.265  28.157   0.386
20494W        W86925  15.742   7.055  11.250
20495W        W86926  18.007   0.307  12.024
20496W        W86927  41.901  11.436  12.582
20497W        W86928  26.292  14.784  12.096
20498W        W86929   1.462  30.623  11.484
20499W        W86930  37.486  38.273  11.220
20500W        W86931  23.612  22.505   0.469
20501W        W86932  29.481  43.565   4.167
20502W        W86933  31.532  44.579   3.644
20503W        W86934   5.836  24.952   2.743
20504W        W86935  14.644  35.908   4.068
20505W        W86936  39.076  18.286  11.236
20506W        W86937  39.349   8.250   4.636
20507W        W86938  28.495  11.607  10.619
20508W        W86939  11.779  19.741   1.036
20509W        W86940   9.581  35.362  14.322
20510W        W86941  17.007  20.608   1.358
20511W        W86942  30.014   0.544   1.060
20512W        W86943  36.451  38.071   2.118
20513W        W86944  21.096  13.666  10.692
20514W        W86945  17.842  17.057   3.582
20515W        W86946   9.256  38.208  14.239
20516W        W86947  15.625   4.938  12.406
20517W        W86948  39.812  12.729  11.638
20518W        W86949  39.718  33.657   2.750
20519W        W86950  12.688   0.779  10.842
20520W        W86951   3.679  38.377   3.231
20521W        W86952  31.553  22.989   1.483
20522W        W86953  41.845  34.382  11.944
20523W        W86954  34.567  33.914   2.399
20524W        W86955  21.547   6.804  13.689
20525W        W86956  21.551   3.086   3.223
20526W        W86957  44.379   6.754  11.710
20527W        W86958  21.868  10.327  12.961
20528W        W86959   4.095   7.203   1.929
20529W        W86960  29.205  33.885  11.224
20530W        W86961  31.017  18.598   1.201
20531W        W86962   3.946  28.652  12.758
20532W        W86963  15.180  21.495  14.297
20533W        W86964  27.005  12.417   3.226
20534W        W86965  11.218  11.700  14.255
20535W        W86966  29.433  19.576  13.763
20536W        W86967  33.900  39.257   2.717
20537W        W86968   7.521  23.683  10.262
20538W        W86969   8.724  39.311  10.781
20539W        W86970   3.296   5.208   4.807
20540W        W86971  23.195  17.530   1.420
20541W        W86972  37.862  23.920  12.561
20542W        W86973  43.314  26.018   0.171
20543W        W86974  31.474  24.446  13.854
20544W        W86975  36.621  37.557  14.465
20545W        W86976  19.103  24.938  13.473
20546W        W86977  15.773  34.458  12.704
20547W        W86978  44.524  10.252  11.999
20548W        W86979   2.712   1.686  11.942
20549W        W86980  14.873   7.328   1.867
20550W        W86981  37.939  42.013  11.955
20551W        W86982  33.648   9.750   2.228
20552W        W86983   7.933  39.702   2.233
20553W        W86984   5.291   8.600  12.945
20554W        W86985  42.845  22.408   5.045
20555W        W86986  41.782  28.141  13.541
20556W        W86987  34.813  35.077  10.774
20557W        W86988  42.094   7.916   3.075
20558W        W86989  40.526  42.645   1.156
20559W        W86990  15.507  20.710  12.892
20560W        W86991   7.649  30.855  13.940
20561W        W86992  21.524   0.688   0.851
20562W        W86993   2.959  25.621  12.638
20563W        W86994  24.962  33.577   4.159
20564W        W86995  35.427  29.734  14.702
20565W        W86996  33.428   2.756  13.843
20566W        W86997  16.198  42.843  14.480
20567W        W86998   3.597  12.139   0.750
20568W        W86999  38.877   2.614   0.878
20569W        W87000   0.013  16.395   4.083
20570W        W87001   1.392   1.234   1.469
20571W        W87002  44.271  44.630   1.821
20572W        W87003   8.916  35.160   4.100
20573W        W87004   7.739  43.984   4.137
20574W        W87005   4.643  19.738  10.363
20575W        W87006   3.389  31.976  11.117
20576W        W87007  15.372   4.310  11.475
20577W        W87008  11.219  27.206  12.518
20578W        W87009  32.960   7.205   1.401
20579W        W87010  10.734  26.431   2.169
20580W        W87011  34.685  30.110   1.512
20581W        W87012  20.940   5.094  13.542
20582W        W87013  20.096  19.762   3.832
20583W        W87014   7.147   5.404   1.846
20584W        W87015  38.551  21.297  11.448
20585W        W87016   3.362   3.024   2.512
20586W        W87017   8.619  38.737  13.938
20587W        W87018  32.027  22.982   4.160
20588W        W87019  24.262  15.135  10.660
20589W        W87020   0.638  37.402  11.135
20590W        W87021  20.490  32.878  13.361
20591W        W87022  12.142  28.405   4.035
20592W        W87023  32.931   0.326  14.768
20593W        W87024  33.360  37.502  13.010
20594W        W87025   0.176  16.667   2.131
20595W        W87026  32.139  10.717  14.467
20596W        W87027  35.636  19.582   2.956
20597W        W87028  19.753   3.140  12.946
20598W        W87029  13.669  33.051   1.633
20599W        W87030   6.776   2.326   3.726
20600W        W87031  12.283  15.073  11.417
20601W        W87032  37.457  27.178   0.911
20602W        W87033  41.024  10.934  11.190
20603W        W87034   6.647  19.696   2.383
20604W        W87035  14.048  18.487   2.332
20605W        W87036   6.309   2.515   0.727
20606W        W87037  24.673  39.821  11.516
20607W        W87038   3.742  10.762   1.378
20608W        W87039   7.949  18.371   3.319
20609W        W87040  39.386  23.991  12.969
20610W        W87041  33.255  11.118  13.929
20611W        W87042  11.056   4.502   1.786
20612W        W87043  18.251   4.420  14.893
20613W        W87044  18.009  26.176  14.292
20614W        W87045   3.973   8.327   0.936
20615W        W87046  36.986  10.390  14.742
20616W        W87047  42.388  13.856   3.415
20617W        W87048  24.396  17.560  12.389
20618W        W87049  32.646  20.086  11.957
20619W        W87050  23.756   1.837  14.855
20620W        W87051  20.935  26.342   0.783
20621W        W87052  29.189  16.024   0.861
20622W        W87053  20.712   6.362   1.798
20623W        W87054  16.220  17.052  13.844
20624W        W87055  24.177   0.899  12.925
20625W        W87056   8.399   9.833   3.682
20626W        W87057   2.212  27.939   1.007
20627W        W87058  16.722  20.843   0.470
20628W        W87059  39.587  40.246   3.374
20629W        W87060  24.603  19.328  12.380
20630W        W87061  25.133  10.089  13.893
20631W        W87062  19.090  31.496  12.527
20632W        W87063  36.586   6.785  14.805
20633W        W87064  37.472  10.038  10.626
20634W        W87065  13.109  37.278   4.259
20635W        W87066  33.247  22.122   2.272
20636W        W87067  29.504  29.386  10.815
20637W        W87068  34.560  25.137  11.490
20638W        W87069   9.378   7.476   0.881
20639W        W87070  22.556  33.472  10.666
20640W        W87071  44.951  27.032  12.548
20641W        W87072  44.269  13.310   4.532
20642W        W87073  28.138  37.525   4.186
20643W        W87074  34.672  33.808   3.357
20644W        W87075   0.024  30.932  10.681
20645W        W87076   4.043  10.299   3.216
20646W        W87077   4.805  38.112  11.438
20647W        W87078  34.168  34.083  11.314
20648W        W87079   3.463  21.504   0.463
20649W        W87080  10.241  16.063  10.394
20650W        W87081  26.709  11.735  13.533
20651W        W87082  30.579  27.066   2.964
20652W        W87083  41.524   2.328  11.578
20653W        W87084  24.453  32.445   0.264
20654W        W87085  17.236  39.098  13.762
20655W        W87086  22.619   9.178   0.279
20656W        W87087  21.414  41.351  13.357
20657W        W87088  24.607  38.332  14.399
20658W        W87089  34.822   2.329   3.077
20659W        W87090  33.190   9.343   3.888
20660W        W87091   2.329   7.467  11.143
20661W        W87092  19.725  32.421   2.172
20662W        W87093  42.384  29.202   4.779
20663W        W87094   3.965  13.691   1.389
20664W        W87095  27.943  41.698  14.285
20665W        W87096  30.526   3.728  11.217
20666W        W87097  35.281  40.727   4.538
20667W        W87098  33.101  39.192  11.683
20668W        W87099  39.636  11.243  12.121
20669W        W87100  31.658  21.237  11.681
20670W        W87101  21.417   9.891  12.979
20671W        W87102  32.636  15.376  10.393
20672W        W87103  39.503   5.853  12.053
20673W        W87104  12.246  18.740  13.282
20674W        W87105   0.550  22.565   3.801
20675W        W87106  26.210   2.016  11.430
20676W        W87107  30.402   3.880  14.494
20677W        W87108  35.967  34.308   3.535
20678W        W87109  21.253  38.501  11.562
20679W        W87110  42.761  33.497   0.342
20680W        W87111  11.111  41.602  12.849
20681W        W87112   3.825  12.760   3.564
20682W        W87113   7.292   4.857  14.728
20683W        W87114  15.233  34.473   1.029
20684W        W87115  17.668  31.705   2.195
20685W        W87116  25.474  19.006  14.831
20686W        W87117  27.129  34.391  11.647
20687W        W87118  23.788  37.473   3.086
20688W        W87119  29.052   2.937   3.829
20689W        W87120  19.950  26.932  12.717
20690W        W87121  33.119  34.416   3.290
20691W        W87122  33.481  26.513   4.721
20692W        W87123  24.511  39.147   2.353
20693W        W87124  21.680  29.460   3.167
20694W        W87125   7.146  22.739   3.224
20695W        W87126  12.821  21.622  12.125
20696W        W87127  41.975  13.611   3.172
20697W        W87128  24.693  10.399  11.119
20698W        W87129  22.681   3.683   1.664
20699W        W87130  12.263  23.565   4.785
20700W        W87131   4.843  26.470   3.609
20701W        W87132  37.964   9.070   4.354
20702W        W87133  30.101  26.895  10.476
20703W        W87134   7.626  13.119   1.278
20704W        W87135  21.658  31.509  13.001
20705W        W87136   5.819   1.506   1.429
20706W        W87137  26.100  42.206   4.227
20707W        W87138  35.638  28.846   4.956
20708W        W87139  28.345  28.315  12.359
20709W        W87140   5.699  39.126  11.162
20710W        W87141  13.298  23.402  11.526
20711W        W87142  28.289  13.801  11.035
20712W        W87143  14.586  36.358   3.724
20713W        W87144  37.010  25.200  11.392
20714W        W87145   0.671  19.846   9.628
20715W        W87146  44.062  27.144  14.039
20716W        W87147  15.572  30.997   3.504
20717W        W87148  17.544  35.021   3.477
20718W        W87149  21.648  44.539   4.305
20719W        W87150   3.719   2.825   0.931
20720W        W87151  27.193  25.181  11.119
20721W        W87152  37.251  22.009  14.255
20722W        W87153  36.871   8.374   1.431
20723W        W87154  15.838  12.655   4.786
20724W        W87155   4.065  29.517   1.363
20725W        W87156   7.874  33.866   1.646
20726W        W87157  12.621   9.247   4.137
20727W        W87158  14.161  15.349  12.567
20728W        W87159  26.963  26.854   1.818
20729W        W87160   8.797  28.557   0.604
20730W        W87161  12.387   4.846  13.814
20731W        W87162  13.885  23.863   3.121
20732W        W87163   2.807  37.683   1.182
20733W        W87164  22.630  22.257  12.988
20734W        W87165  19.710  36.318  11.984
20735W        W87166  38.913  33.092  12.797
20736W        W87167  38.298  10.239  13.846
20737W        W87168  37.134   6.522   1.925
20738W        W87169   6.341  25.800  12.830
20739W        W87170  18.819  27.369   2.304
20740W        W87171  12.973  43.266   0.679
20741W        W87172   8.941  31.361  13.460
20742W        W87173  39.605  30.150  10.714
20743W        W87174  23.978  22.552   0.897
20744W        W87175  32.616  28.630   4.652
20745W        W87176   6.031  31.163   2.811
20746W        W87177  34.978   1.279   3.741
20747W        W87178  30.026  10.198   3.706
20748W        W87179  39.538  13.030   3.913
20749W        W87180  21.715  43.020   5.014
20750W        W87181  40.273   7.397   1.542
20751W        W87182  15.659   4.415  13.973
20752W        W87183   7.250  35.693  12.452
20753W        W87184  43.365  40.307   2.615
20754W        W87185  42.019  16.436   3.841
20755W        W87186   4.403  20.843  13.682
20756W        W87187  24.041  22.663   3.362
20757W        W87188  38.857  44.147   4.491
20758W        W87189  24.725  11.857  10.566
20759W        W87190  31.022  41.313   3.183
20760W        W87191  33.057  41.000  13.100
20761W        W87192  38.783  18.776   3.213
20762W        W87193  13.116  18.330  10.770
20763W        W87194  39.383  14.355   0.567
20764W        W87195  29.881  35.241  13.832
20765W        W87196  33.913   2.444   2.515
20766W        W87197  23.796  31.009   3.980
20767W        W87198  27.871  28.025  11.858
20768W        W87199  30.644  13.374  11.209
20769W        W87200  17.354  30.096   3.579
20770W        W87201  27.437  41.325   0.791
20771W        W87202  40.532  44.475  13.550
20772W        W87203  23.786  29.667   1.320
20773W        W87204   4.301   9.743   1.623
20774W        W87205  18.343  20.060  13.231
20775W        W87206   8.319  39.474  10.456
20776W        W87207  17.014  35.700   0.901
20777W        W87208   8.514   6.184   3.147
20778W        W87209  40.059   0.155  12.952
20779W        W87210  35.348  26.080  11.078
20780W        W87211  33.437  33.099  10.776
20781W        W87212  36.613  43.462  10.906
20782W        W87213  44.962  31.892  14.875
20783W        W87214  26.469  35.562   3.184
20784W        W87215  18.672  38.401   1.067
20785W        W87216  22.126  11.201  11.708
20786W        W87217   8.331  42.447   0.469
20787W        W87218  23.632  13.009   1.977
20788W        W87219   6.728  44.058   3.677
20789W        W87220  41.240  37.848   3.208
20790W        W87221   9.133  26.982   1.199
20791W        W87222  43.002  30.100   2.952
20792W        W87223  44.824   5.033   9.860
20793W        W87224  24.581  22.561  11.407
20794W        W87225  42.014  32.560  14.220
20795W        W87226  12.629   3.557  10.198
20796W        W87227  29.293  41.391  11.825
20797W        W87228  29.428  10.059  11.592
20798W        W87229  17.877   5.539   1.525
20799W        W87230  18.555   1.735  14.796
20800W        W87231  40.493  28.695   2.266
20801W        W87232   0.260  30.081  14.764
20802W        W87233  28.090  11.151  11.235
20803W        W87234  40.872  10.578   4.771
20804W        W87235   8.719   1.383  12.997
20805W        W87236   4.865   8.569   0.795
20806W        W87237  24.993  41.357   0.636
20807W        W87238  26.383  33.043  11.572
20808W        W87239   1.478   9.343  13.513
20809W        W87240  15.265  21.917  11.019
20810W        W87241  40.921  34.892   2.741
20811W        W87242  28.853  28.067  11.693
20812W        W87243  29.948   1.242  10.526
20813W        W87244  10.090  44.897  10.357
20814W        W87245  10.238   6.750  13.363
20815W        W87246  15.203  38.412   0.967
20816W        W87247  17.264   3.814   9.938
20817W        W87248  24.190  38.098  14.626
20818W        W87249  23.772   5.397   2.373
20819W        W87250  11.088  19.078  13.535
20820W        W87251  43.020  22.188   4.425
20821W        W87252   3.449  31.085   4.908
20822W        W87253  27.439  21.875   0.898
20823W        W87254  23.978  33.846  11.187
20824W        W87255  15.254  18.108  14.057
20825W        W87256  35.876  29.734   3.990
20826W        W87257  37.878  10.568  13.320
20827W        W87258  31.808   3.248  14.178
20828W        W87259   2.215  11.224   2.131
20829W        W87260   1.143   4.429  13.291
20830W        W87261  36.457  35.451  14.793
20831W        W87262   3.095   3.492  12.319
20832W        W87263  18.054  26.515  12.183
20833W        W87264  17.038  21.211   1.947
20834W        W87265  33.690   6.689  14.411
20835W        W87266  12.343  12.722   1.863
20836W        W87267  31.514  37.038   2.585
20837W        W87268  15.549   8.225   2.818
20838W        W87269  16.855  24.628   1.423
20839W        W87270  28.578  39.620   0.908
20840W        W87271  32.917  11.409  14.390
20841W        W87272   8.691  13.777   3.665
20842W        W87273   2.496  15.113  11.546
20843W        W87274  41.118  12.840  14.377
20844W        W87275  39.526  40.176   1.652
20845W        W87276  14.197  27.657   4.541
20846W        W87277   8.306   7.983  11.455
20847W        W87278  16.618  40.912  14.897
20848W        W87279  36.861   4.336   3.911
20849W        W87280  27.392  14.699   1.286
20850W        W87281  35.331   1.255   2.309
20851W        W87282  10.630  26.316  13.790
20852W        W87283   0.573  16.187  11.194
20853W        W87284  28.720   4.430   1.340
20854W        W87285  20.516   3.820   1.871
20855W        W87286   9.275   9.031  12.998
20856W        W87287  25.135   0.540  14.728
20857W        W87288  24.185   7.222   2.787
20858W        W87289  36.614   0.784  13.832
20859W        W87290  25.637  31.535   4.137
20860W        W87291  44.325  34.874  12.695
20861W        W87292  12.134  15.533   0.169
20862W        W87293  37.103  11.281   2.876
20863W        W87294  14.210  22.049   2.155
20864W        W87295  16.532   3.289   1.733
20865W        W87296  43.000   3.747   4.690
20866W        W87297  26.171  36.626   4.201
20867W        W87298  31.949  10.348   2.152
20868W        W87299  14.744  21.340   2.145
20869W        W87300  29.210   7.459   4.842
20870W        W87301  32.889  22.857   0.644
20871W        W87302  22.417  44.539  14.823
20872W        W87303  18.289  21.831  11.250
20873W        W87304  21.271  30.122  12.062
20874W        W87305  27.817  11.202  13.831
20875W        W87306  38.204  31.828   4.587
20876W        W87307   6.704   7.895   3.117
20877W        W87308  24.246  36.029  11.146
20878W        W87309  18.918  32.015   0.259
20879W        W87310  12.742  18.117  11.572
20880W        W87311  28.722  13.429   4.106
20881W        W87312  20.509  31.126  14.545
20882W        W87313  20.339  14.406  10.772
20883W        W87314   0.781  20.238  14.093
20884W        W87315  39.202  25.298   3.333
20885W        W87316   2.811  39.687  14.984
20886W        W87317  10.230  43.443   3.615
20887W        W87318  21.125  11.938  12.872
20888W        W87319  14.328   1.847  10.176
20889W        W87320   2.769   5.696   0.981
20890W        W87321  17.504  16.474  11.584
20891W        W87322  44.875  30.705   1.967
20892W        W87323  29.468  12.235  11.843
20893W        W87324  29.669  43.587  11.856
20894W        W87325  44.505  31.484  13.941
20895W        W87326  20.667   2.520  10.989
20896W        W87327  12.204  21.090  10.367
20897W        W87328   1.538  27.555  14.897
20898W        W87329  29.921  21.021   2.314
20899W        W87330  43.809  37.003   2.161
20900W        W87331  14.722  27.520   1.270
20901W        W87332  29.886  43.819   1.939
20902W        W87333  32.212  40.057   0.925
20903W        W87334  21.226  34.605   0.527
20904W        W87335  23.248  15.551   1.383
20905W        W87336  37.413  30.042  12.074
20906W        W87337  42.380  32.371  10.719
20907W        W87338  29.410  28.533   1.403
20908W        W87339  15.191  44.883  12.732
20909W        W87340  25.623   0.301   4.565
20910W        W87341   4.865  35.533   1.570
20911W        W87342  41.725  38.081   2.329
20912W        W87343   5.460  30.684  12.942
20913W        W87344  20.805  37.835  13.473
20914W        W87345   4.239  40.864   4.078
20915W        W87346  17.387  23.424  13.434
20916W        W87347  29.912  12.252  11.535
20917W        W87348  33.083  16.762   2.881
20918W        W87349  40.766  44.916   2.361
20919W        W87350  13.378   1.335   2.173
20920W        W87351   5.624  18.043  11.662
20921W        W87352   4.910  27.234   2.012
20922W        W87353  23.904  16.379   4.135
20923W        W87354  20.653  13.316  14.746
20924W        W87355  28.355   8.771  12.666
20925W        W87356   9.715  33.002  10.689
20926W        W87357  15.723  42.445  13.372
20927W        W87358  12.258  30.335  11.646
20928W        W87359  42.042  28.621  13.389
20929W        W87360  38.022  24.948  12.637
20930W        W87361  25.514  37.393  12.051
20931W        W87362  28.675   6.776  13.933
20932W        W87363  42.404  30.829  12.917
20933W        W87364  25.185  41.548  14.329
20934W        W87365  15.676  26.225  11.701
20935W        W87366  26.573  29.651  11.599
20936W        W87367  12.307  28.885  11.587
20937W        W87368  32.997  14.565   2.809
20938W        W87369   1.537   4.441  14.856
20939W        W87370  10.763   4.916   4.771
20940W        W87371  23.644  42.483   2.802
20941W        W87372  40.314  30.440  14.460
20942W        W87373  11.148  12.656   3.776
20943W        W87374  24.753  40.155   2.366
20944W        W87375  37.974  15.655  13.608
20945W        W87376   9.393  28.047  13.293
20946W        W87377   3.234  41.080   3.274
20947W        W87378   7.408  39.791  13.474
20948W        W87379  18.152  33.862   4.606
20949W        W87380   6.685  14.098  13.172
20950W        W87381  25.093   8.894   0.021
20951W        W87382  38.445  26.975   2.846
20952W        W87383  32.190  20.965  13.901
20953W        W87384  17.378  23.947  13.473
20954W        W87385  28.137   5.712   3.921
20955W        W87386  40.017  40.386  12.450
20956W        W87387  23.875  15.781  10.133
20957W        W87388  25.620   0.592   0.317
20958W        W87389  18.146  35.319  13.385
20959W        W87390  27.274   3.917  10.669
20960W        W87391  12.412   5.526   9.766
20961W        W87392  44.441  20.357  14.405
20962W        W87393  44.997  27.458  14.945
20963W        W87394  13.559  35.371   4.185
20964W        W87395  16.788  19.058   2.197
20965W        W87396  10.623  12.542   0.785
20966W        W87397  37.138   8.775   3.725
20967W        W87398  15.174   9.986   0.786
20968W        W87399  27.093  13.758   3.645
20969W        W87400  29.122   7.857  14.573
20970W        W87401   2.901  12.726  11.697
20971W        W87402  25.484  14.540   2.106
20972W        W87403  35.327  23.260  14.345
20973W        W87404   6.745  35.872  14.417
20974W        W87405   0.279  10.343   1.756
20975W        W87406  20.640   5.471  11.190
20976W        W87407  28.106  25.152  12.607
20977W        W87408  31.129   8.379  10.271
20978W        W87409  40.505  33.908   1.266
20979W        W87410  35.904   3.955   0.828
20980W        W87411  11.670  16.048  11.714
20981W        W87412   2.755   5.613  11.265
20982W        W87413  39.885  32.123   1.812
20983W        W87414  21.381  36.544   4.600
20984W        W87415  33.750  30.983  10.634
20985W        W87416   6.263  42.215  10.482
20986W        W87417  27.084  39.662   2.351
20987W        W87418  41.245  31.719   3.149
20988W        W87419  39.394   0.241   3.615
20989W        W87420  41.834  41.413   1.498
20990W        W87421  13.143   9.333   4.898
20991W        W87422  41.514  14.164   3.682
20992W        W87423  23.236  42.242  14.860
20993W        W87424  16.673   9.700   3.553
20994W        W87425  17.173  27.031  10.484
20995W        W87426  32.452   6.979   5.202
20996W        W87427  18.565  34.938  11.233
20997W        W87428   9.344  40.351   0.888
20998W        W87429  33.838  30.705   2.682
20999W        W87430  21.627   3.355  13.301
21000W        W87431  28.371  28.689   1.200
21001W        W87432   9.149   4.857  11.973
21002W        W87433  26.750  28.386   0.794
21003W        W87434  20.373   9.223   0.829
21004W        W87435   1.944  33.786  11.304
21005W        W87436  37.106   2.423   4.625
21006W        W87437  37.468  10.269   2.178
21007W        W87438  13.089  23.212  12.401
21008W        W87439  37.261   4.179  10.611
21009W        W87440  37.457   1.909  11.193
21010W        W87441   0.204  26.686  14.403
21011W        W87442   2.908   7.180   2.312
21012W        W87443  33.865  10.330   1.424
21013W        W87444   3.812  27.755   4.626
21014W        W87445   8.648  18.462  11.124
21015W        W87446  29.624  14.136   1.526
21016W        W87447  29.141  32.498   0.857
21017W        W87448  21.131  33.926   2.695
21018W        W87449  26.321  39.970   3.128
21019W        W87450  17.873  18.609   2.744
21020W        W87451  14.524  19.693  13.729
21021W        W87452  27.527   9.766   1.317
21022W        W87453   6.671  18.768   0.144
21023W        W87454  40.982   1.910   0.201
21024W        W87455  20.998   9.346  14.681
21025W        W87456  39.820  41.112  12.971
21026W        W87457  13.265  31.063   2.401
21027W        W87458  42.263   5.781   0.862
21028W        W87459   5.127   2.433  10.707
21029W        W87460  38.816  38.386   3.123
21030W        W87461  43.692  16.338  12.685
21031W        W87462  36.936  30.415  12.893
21032W        W87463   7.718   8.449   3.607
21033W        W87464  29.648  13.270   3.123
21034W        W87465   2.641   4.356  13.425
21035W        W87466   0.724  37.555  12.073
21036W        W87467  16.795  29.608   3.104
21037W        W87468  34.243  24.061  14.992
21038W        W87469   0.536  14.171  14.168
21039W        W87470  36.623  23.603  14.550
21040W        W87471  29.645  13.300   1.358
21041W        W87472  40.256  36.967  14.038
21042W        W87473  20.193  30.399  13.033
21043W        W87474  12.360  24.438  12.458
21044W        W87475   4.947  33.969  12.171
21045W        W87476  22.292   3.434   5.119
21046W        W87477  14.661  10.675  10.905
21047W        W87478  20.671  19.784  13.530
21048W        W87479  31.410   3.908   4.809
21049W        W87480  35.602  18.222  13.013
21050W        W87481   2.055  20.508  12.431
21051W        W87482  20.163   7.493  11.798
21052W        W87483   9.816   4.361  12.102
21053W        W87484   9.818  23.967   4.215
21054W        W87485   4.426   0.894   4.235
21055W        W87486  27.707  20.661  14.299
21056W        W87487  21.710  20.053  12.225
21057W        W87488  14.140  12.735  13.991
21058W        W87489  41.270  23.272  12.041
21059W        W87490   3.066  34.698  13.726
21060W        W87491  19.658  38.945  11.453
21061W        W87492   7.229  24.930  14.985
21062W        W87493  18.233  28.067   3.696
21063W        W87494  29.000   8.213   1.777
21064W        W87495   9.634  39.445  14.104
21065W        W87496  32.586   6.733   0.359
21066W        W87497  41.997  22.769  11.717
21067W        W87498  20.140  25.601   2.416
21068W        W87499  28.094  14.085  14.231
21069W        W87500  15.434   2.476   5.419
21070W        W87501  43.801  23.608   1.402
21071W        W87502  38.531   1.321   3.281
21072W        W87503  43.026   4.263  11.388
21073W        W87504  42.957   7.532   0.452
21074W        W87505  32.705  27.051  13.658
21075W        W87506   9.471   2.421   4.878
21076W        W87507  38.581  22.692  13.768
21077W        W87508  41.415   6.451  12.608
21078W        W87509  37.461  24.316   1.241
21079W        W87510  43.486  34.501  13.905
21080W        W87511   9.824  35.143   2.023
21081W        W87512   0.481  38.343  12.410
21082W        W87513  31.176  26.669   4.489
21083W        W87514  22.660  33.267  11.124
21084W        W87515   1.986  36.035  13.334
21085W        W87516  44.263  10.368  10.592
21086W        W87517  30.326  21.407   4.166
21087W        W87518  15.739  37.457   3.281
21088W        W87519  14.698  16.249   0.484
21089W        W87520  38.053  40.561   1.765
21090W        W87521   1.112  13.591   3.852
21091W        W87522  37.398   2.078   1.788
21092W        W87523  19.148   0.366  12.173
21093W        W87524  43.895   6.769  11.558
21094W        W87525  11.846  19.514  10.328
21095W        W87526  22.224  36.338   4.851
21096W        W87527  31.972   0.944   3.835
21097W        W87528  20.037  24.501  12.350
21098W        W87529   6.046  23.498  12.629
21099W        W87530  31.331  18.411   0.847
21100W        W87531  25.130  24.052  14.883
21101W        W87532  17.064   8.792  11.455
21102W        W87533  44.922  30.462  10.831
21103W        W87534  13.185  39.976  13.901
21104W        W87535   2.490   7.667  12.516
21105W        W87536  21.168  33.701   3.687
21106W        W87537  28.141  25.519   0.785
21107W        W87538  33.501  31.350  13.787
21108W        W87539   3.914  21.466   2.283
21109W        W87540  44.240  22.390  11.273
21110W        W87541  33.642  43.206   2.791
21111W        W87542   4.797  43.566   1.311
21112W        W87543  27.838  33.170  10.217
21113W        W87544  20.522   0.150  13.931
21114W        W87545   6.061  39.487  11.301
21115W        W87546  38.141  34.528  11.474
21116W        W87547  21.657  19.213   1.447
21117W        W87548   6.558   2.509  11.142
21118W        W87549   9.638  17.161  12.503
21119W        W87550  24.493  19.092  11.126
21120W        W87551  23.175  42.805  12.008
21121W        W87552   9.388   2.440  14.153
21122W        W87553  42.211  32.925  14.989
21123W        W87554  23.516   3.505   1.274
21124W        W87555  23.123   2.351   1.987
21125W        W87556  42.292  18.728  11.678
21126W        W87557  18.743  13.205  14.943
21127W        W87558  16.196  35.173  13.997
21128W        W87559  23.500  15.301   3.710
21129W        W87560  34.356   0.764  11.937
21130W        W87561  20.178   2.754   1.529
21131W        W87562  14.265   6.397   1.304
21132W        W87563   8.761  19.957   4.609
21133W        W87564  34.990  14.649  11.030
21134W        W87565   8.348  42.467   0.982
21135W        W87566  33.167  28.386   0.483
21136W        W87567  12.466  18.908  11.995
21137W        W87568  14.842  42.792   3.440
21138W        W87569  42.990   2.714  13.741
21139W        W87570  16.914   8.927   4.063
21140W        W87571  41.361  42.183  13.829
21141W        W87572  32.073  21.460  13.882
21142W        W87573  16.270  43.288   0.371
21143W        W87574  34.925  24.690   0.255
21144W        W87575  16.311  19.140  11.996
21145W        W87576  40.560  31.819   4.996
21146W        W87577  17.105  16.805  11.636
21147W        W87578  16.445  17.624  10.880
21148W        W87579  39.894  10.809  13.198
21149W        W87580  14.607  20.138  11.607
21150W        W87581  15.843  21.639   3.654
21151W        W87582   7.346   1.778   2.215
21152W        W87583  28.957   3.409   1.194
21153W        W87584  44.236  10.564   2.838
21154W        W87585  32.844  42.062   1.926
21155W        W87586  17.662  44.414  10.410
21156W        W87587  26.217  32.072  11.112
21157W        W87588  35.441  22.822   3.530
21158W        W87589  24.200   7.876  10.350
21159W        W87590   0.984  32.766  11.450
21160W        W87591  10.723  29.788  10.779
21161W        W87592  23.285   2.863  11.100
21162W        W87593   0.982  42.519   3.870
21163W        W87594   6.829  27.043   4.270
21164W        W87595  40.556  20.726  14.271
21165W        W87596  26.759  29.609   2.817
21166W        W87597   8.368  40.532  10.900
21167W        W87598   3.870  20.235  10.465
21168W        W87599  43.583  29.994  11.290
21169W        W87600  29.180   9.973   4.580
21170W        W87601   8.184  14.343   2.564
21171W        W87602  42.810  35.882   2.679
21172W        W87603  36.607  35.610   1.198
21173W        W87604  17.611  22.576   4.831
21174W        W87605  43.130  41.593   0.672
21175W        W87606  40.185  29.191   3.331
21176W        W87607  24.701   1.840   0.806
21177W        W87608  27.139   8.173   2.997
21178W        W87609  16.717   0.187  10.545
21179W        W87610  12.623  42.159   4.144
21180W        W87611  42.145  44.412  10.017
21181W        W87612  39.049   8.016  11.866
21182W        W87613   2.911   0.154  11.192
21183W        W87614  33.486  10.756   0.688
21184W        W87615  14.615  40.130   3.996
21185W        W87616  11.810   5.262  13.496
21186W        W87617   6.138   1.413   5.041
21187W        W87618  43.587  22.586  13.524
21188W        W87619  22.956  28.516   0.910
21189W        W87620  15.282  12.490   0.645
21190W        W87621  30.966  12.380  14.327
21191W        W87622   9.689  13.555   3.173
21192W        W87623  42.078  15.590  11.467
21193W        W87624  24.479  21.284  12.526
21194W        W87625  14.885  34.550  14.253
21195W        W87626  34.378  37.496   2.381
21196W        W87627  14.194  17.667  11.739
21197W        W87628  15.277  39.828  10.404
21198W        W87629  29.723  26.474  12.054
21199W        W87630  10.660  22.702   0.824
21200W        W87631  22.812   0.347  11.430
21201W        W87632  37.729  37.936  13.911
21202W        W87633   6.096  38.823  14.999
21203W        W87634   7.055   7.873  11.573
21204W        W87635  27.106   2.491  14.007
21205W        W87636  32.631  32.578   1.914
21206W        W87637  36.107  29.433   5.412
21207W        W87638  20.356  37.290  11.439
21208W        W87639  28.681  20.748   1.684
21209W        W87640  36.964  27.996   3.835
21210W        W87641  29.710  37.990  12.930
21211W        W87642  31.267  31.948  12.591
21212W        W87643  23.535  32.512   2.647
21213W        W87644  17.023  12.433   0.254
21214W        W87645  23.744  18.592   3.836
21215W        W87646  13.231  16.835   4.424
21216W        W87647   7.675  33.413   3.898
21217W        W87648  11.456  28.996   1.740
21218W        W87649  23.054   2.710   1.179
21219W        W87650   0.706  24.682   4.523
21220W        W87651  21.594  41.060  14.358
21221W        W87652  38.859  10.401  10.786
21222W        W87653  33.564  39.350  12.912
21223W        W87654  37.359  12.360   2.375
21224W        W87655   7.071  41.562   2.918
21225W        W87656  39.521  28.333   1.227
21226W        W87657  39.395  26.577  11.572
21227W        W87658  20.363  12.833   2.084
21228W        W87659  28.978  35.384   2.233
21229W        W87660   8.739   3.562  10.971
21230W        W87661   5.369  30.405   2.253
21231W        W87662  36.103   0.393   3.062
21232W        W87663   8.171  26.206  12.021
21233W        W87664  10.926   3.710   4.158
21234W        W87665  33.600  24.366  10.135
21235W        W87666  30.723   7.120   3.268
21236W        W87667  32.352   5.056   4.250
21237W        W87668  10.091  37.028  12.035
21238W        W87669   4.506  32.335   4.177
21239W        W87670  21.728  16.277  13.052
21240W        W87671  30.433  27.487  11.082
21241W        W87672  36.194  11.725   5.056
21242W        W87673  24.970  24.013   0.391
21243W        W87674   5.255  36.994  13.698
21244W        W87675  40.366  21.463   5.377
21245W        W87676  32.949  40.940  10.936
21246W        W87677  31.714  30.132   0.309
21247W        W87678  21.301  11.783  11.842
21248W        W87679  44.390   1.428  14.284
21249W        W87680  44.193   8.816  10.360
21250W        W87681  14.325   1.479   2.571
21251W        W87682   5.233  13.188   1.858
21252W        W87683  38.784  27.544  12.563
21253W        W87684   4.874  34.277  11.172
21254W        W87685  20.691  19.982  13.067
21255W        W87686  14.603   1.635  14.437
21256W        W87687  26.125   6.426  11.523
21257W        W87688   1.038  33.858  14.634
21258W        W87689   3.492  17.418  10.995
21259W        W87690  20.386  25.179   0.246
21260W        W87691  19.253  42.950   1.370
21261W        W87692  19.278  42.383  11.579
21262W        W87693  27.737  21.702   1.837
21263W        W87694  24.070   8.362   2.159
21264W        W87695  14.675   1.502  11.753
21265W        W87696  42.305   5.774  13.438
21266W        W87697   1.579  31.677  11.056
21267W        W87698  10.519  18.661  10.897
21268W        W87699  21.432  13.583   0.308
21269W        W87700   6.887  19.462   2.005
21270W        W87701   7.794  19.762  11.162
21271W        W87702  16.457  29.563  11.429
21272W        W87703  10.883  30.589   3.992
21273W        W87704  32.130  33.055   4.861
21274W        W87705  18.559  41.476  13.113
21275W        W87706  20.917  36.876   2.685
21276W        W87707  17.322  31.839   0.927
21277W        W87708  35.022  41.313   3.190
21278W        W87709   0.980   2.378   4.279
21279W        W87710  13.340  42.617   5.017
21280W        W87711   9.939  28.346   4.038
21281W        W87712  29.857  41.414   4.761
21282W        W87713  25.055   0.541  13.648
21283W        W87714  31.703  33.353  14.913
21284W        W87715  37.293  43.437   3.613
21285W        W87716  10.119  28.087  14.414
21286W        W87717   5.279  32.063   3.867
21287W        W87718  31.786  39.025  14.989
21288W        W87719  27.680  37.581  12.654
21289W        W87720   3.264  36.923  14.459
21290W        W87721  19.919  18.676  10.606
21291W        W87722  33.382  16.732  13.902
21292W        W87723  22.701  28.133   0.548
21293W        W87724  13.910  13.732  13.486
21294W        W87725  31.079   1.687  13.491
21295W        W87726  31.024  15.035   0.009
21296W        W87727  28.355  14.346   3.655
21297W        W87728  43.535  12.664  14.564
21298W        W87729  37.376  36.171   0.448
21299W        W87730   5.695  32.492  13.438
21300W        W87731  31.256  19.608   4.034
21301W        W87732  34.967  15.122   2.195
21302W        W87733  26.772  22.964  13.468
21303W        W87734  38.562   5.810   3.655
21304W        W87735  32.939   6.780   2.790
21305W        W87736  37.370  33.860  14.855
21306W        W87737   9.926  25.400  13.887
21307W        W87738  42.556  30.347  13.026
21308W        W87739   3.181  28.749   1.796
21309W        W87740  38.524   0.474   0.726
21310W        W87741   4.256  27.126   4.189
21311W        W87742   5.308  13.765   0.673
21312W        W87743  39.161  39.723   0.738
21313W        W87744  38.040  20.984   1.605
21314W        W87745  23.620  26.118   4.101
21315W        W87746  21.284  41.744   0.887
21316W        W87747  22.116  30.531  13.620
21317W        W87748  30.026  32.830   3.798
21318W        W87749  33.850  43.644   0.411
21319W        W87750  27.932   2.616  12.446
21320W        W87751  37.455  29.199   4.131
21321W        W87752  14.618  29.678   0.405
21322W        W87753  31.392  21.974   4.598
21323W        W87754  38.905  39.586   2.348
21324W        W87755  12.786  10.154  11.738
21325W        W87756   1.751   7.991  10.638
21326W        W87757   0.779  30.596  12.077
21327W        W87758  11.801  44.818   1.684
21328W        W87759  38.814  43.077   0.047
21329W        W87760  11.241  18.707  14.686
21330W        W87761  18.323  26.446   0.311
21331W        W87762  39.551  13.667   2.356
21332W        W87763   3.811   7.861  13.180
21333W        W87764  24.925   0.836   3.701
21334W        W87765  39.492  21.699  11.629
21335W        W87766  16.346  40.451   4.554
21336W        W87767   4.028  29.565   4.390
21337W        W87768  26.273  30.677   4.067
21338W        W87769   0.680  31.492  11.989
21339W        W87770  30.538  31.183   2.675
21340W        W87771  20.148  40.718   0.354
21341W        W87772  22.678  23.712   1.857
21342W        W87773  44.756  18.137  12.896
21343W        W87774  28.537   7.657  10.390
21344W        W87775   7.320  12.213  13.058
21345W        W87776   5.170  25.403  13.931
21346W        W87777   9.269   4.357  11.946
21347W        W87778  15.135  36.629  11.370
21348W        W87779  30.575  33.104  13.359
21349W        W87780  22.254   8.771  14.404
21350W        W87781  10.730   5.394   0.878
21351W        W87782  33.519  12.584   4.917
21352W        W87783  11.170  19.947  13.343
21353W        W87784   2.939  17.273  12.525
21354W        W87785  25.269  13.132  14.215
21355W        W87786  43.750  45.000  12.077
21356W        W87787  35.904  39.045  13.875
21357W        W87788  10.078  16.601   0.268
21358W        W87789  18.831  13.313   3.725
21359W        W87790  21.831  18.187   3.185
21360W        W87791  23.914  27.416  11.074
21361W        W87792  21.626  21.213   1.743
21362W        W87793  14.339  37.551   4.829
21363W        W87794  26.440  39.505   0.443
21364W        W87795  22.645  37.534  12.393
21365W        W87796  26.974  17.837   4.596
21366W        W87797  25.833  17.113  14.725
21367W        W87798  23.303  11.849  14.584
21368W        W87799  39.136  12.600  12.032
21369W        W87800  43.757   1.972   2.812
21370W        W87801  21.642  11.418   1.366
21371W        W87802   9.734   8.183   3.947
21372W        W87803  11.288  39.432   3.405
21373W        W87804  15.304  39.419  13.034
21374W        W87805  10.877   0.842   0.055
21375W        W87806   4.734   7.782  14.711
21376W        W87807   2.314  33.829   0.864
21377W        W87808  33.400  33.557  12.133
21378W        W87809  15.788  34.722   4.895
21379W        W87810  19.517  26.486   1.253
21380W        W87811  19.775  25.968  12.935
21381W        W87812  23.782  34.521  14.860
21382W        W87813  15.970  19.254  11.084
21383W        W87814   0.408  36.602   0.401
21384W        W87815  35.814  29.512  12.469
21385W        W87816   6.788   7.454  11.434
21386W        W87817  26.965  23.753  12.009
21387W        W87818  41.060  37.553  13.881
21388W        W87819  37.983  22.051   4.238
21389W        W87820  20.938  20.206   2.312
21390W        W87821  13.695   3.318  13.888
21391W        W87822   6.712  36.071   2.227
21392W        W87823  30.857   6.682  12.926
21393W        W87824  26.847   2.313  11.698
21394W        W87825  25.983  14.776   2.812
21395W        W87826  19.445  19.324  13.516
21396W        W87827   1.919  33.234   4.016
21397W        W87828  17.719  10.201   1.462
21398W        W87829  18.545  33.868  12.461
21399W        W87830   9.434  21.262  14.005
21400W        W87831  36.313  25.027   4.517
21401W        W87832  25.134  38.909   3.094
21402W        W87833  20.050  11.694  11.097
21403W        W87834  13.188  38.631   2.576
21404W        W87835  18.266  28.736   4.183
21405W        W87836   1.933   4.914   3.133
21406W        W87837  37.432  23.796   4.513
21407W        W87838   9.414   8.489   4.232
21408W        W87839  10.232  10.370  10.874
21409W        W87840  16.329  16.418  11.813
21410W        W87841   6.256   5.206   1.166
21411W        W87842  24.180  15.591   0.435
21412W        W87843  32.351  19.257  11.506
21413W        W87844  36.814  41.094   4.761
21414W        W87845   8.142  10.257  12.788
21415W        W87846  40.769  27.109  13.383
21416W        W87847  31.448  16.669   2.002
21417W        W87848  17.170  44.209  10.272
21418W        W87849  34.447  15.501   0.776
21419W        W87850  41.439   8.515   3.825
21420W        W87851  32.099   3.225  13.348
21421W        W87852  13.849  15.100  14.925
21422W        W87853  42.989   2.039  12.449
21423W        W87854  27.086  14.750   4.608
21424W        W87855  17.053  13.183  13.300
21425W        W87856  39.356  41.494  11.181
21426W        W87857  32.492  44.388  12.638
21427W        W87858  35.486  39.586   3.855
21428W        W87859  32.048  20.536   0.042
21429W        W87860  44.280  27.928   3.962
21430W        W87861   4.265  29.013   1.363
21431W        W87862  36.586  19.065   2.761
21432W        W87863  16.757  41.024   0.877
21433W        W87864   1.963  32.651   4.123
21434W        W87865  38.852   9.346   2.790
21435W        W87866   1.044  26.988   4.554
21436W        W87867  26.317  27.922   1.054
21437W        W87868  11.848  31.171  11.987
21438W        W87869  19.217  11.435   1.209
21439W        W87870  26.828   1.868   3.072
21440W        W87871   2.882  33.122   2.169
21441W        W87872  37.653   6.714   4.092
21442W        W87873  23.909  33.021   1.791
21443W        W87874  26.765   6.384   2.203
21444W        W87875  34.371  13.247  10.419
21445W        W87876  29.832  33.161  13.522
21446W        W87877  23.907  30.590  11.971
21447W        W87878  40.421  19.010   3.603
21448W        W87879  10.855  32.511   3.224
21449W        W87880  44.772  39.622   3.699
21450W        W87881  43.553   8.477  14.012
21451W        W87882  39.134  20.037   2.797
21452W        W87883  21.149  12.976  14.555
21453W        W87884  28.101   4.939   5.516
21454W        W87885  16.337  21.137   4.418
21455W        W87886   4.395  27.470  11.834
21456W        W87887   9.936  30.103   1.864
21457W        W87888  32.412   8.364   4.603
21458W        W87889  17.994  39.028   0.829
21459W        W87890  15.085  17.596   3.030
21460W        W87891  28.174  29.678   0.198
21461W        W87892   7.768  37.997  12.500
21462W        W87893  38.996  24.642  14.244
21463W        W87894  20.523  42.917  14.608
21464W        W87895  35.343  39.426   2.299
21465W        W87896   0.749   6.197   1.279
21466W        W87897  24.659   2.288   0.492
21467W        W87898  27.143  28.626   1.033
21468W        W87899   7.618   7.199   1.208
21469W        W87900  39.282  23.370   0.767
21470W        W87901  21.807   0.612   0.405
21471W        W87902   6.478  40.408  12.464
21472W        W87903  33.396  25.652  12.540
21473W        W87904   3.224  16.696   1.263
21474W        W87905  32.923  18.755   4.598
21475W        W87906  10.559  27.884  10.612
21476W        W87907  17.461  33.471  12.970
21477W        W87908  44.034  19.380   0.173
21478W        W87909  33.625  19.635   3.613
21479W        W87910  21.286  43.882  14.773
21480W        W87911  19.273   9.982   3.286
21481W        W87912   6.783  38.594   1.290
21482W        W87913  23.606   9.114  14.270
21483W        W87914  19.623   4.653   4.948
21484W        W87915  15.153  33.165   0.426
21485W        W87916  23.061   2.687  10.637
21486W        W87917  10.099  41.820   1.341
21487W        W87918   4.445  20.538   2.637
21488W        W87919  29.301  14.943  14.962
21489W        W87920  16.230  16.736   3.422
21490W        W87921  41.500  34.989  10.555
21491W        W87922  44.955  35.685  12.508
21492W        W87923  13.191  14.078  10.984
21493W        W87924  26.663  29.433   3.804
21494W        W87925   4.600   8.683  10.380
21495W        W87926  37.315  32.900  12.000
21496W        W87927  33.546  11.560   2.176
21497W        W87928  44.043  14.804  11.507
21498W        W87929  15.515  38.983  11.148
21499W        W87930  31.935  38.984  14.485
21500W        W87931  29.401   4.782  12.683
21501W        W87932  18.178  31.481   3.770
21502W        W87933  17.270  44.680  12.153
21503W        W87934   2.262  31.102   2.329
21504W        W87935  19.501  26.946   1.904
21505W        W87936  20.247  44.481   3.432
21506W        W87937  15.931  38.448  13.525
21507W        W87938   2.327   7.265  11.615
21508W        W87939  17.327  11.831   1.733
21509W        W87940  22.824  15.137   1.305
21510W        W87941  15.350  43.389  10.987
21511W        W87942   0.732  44.208  12.154
21512W        W87943   5.195  40.441   0.416
21513W        W87944  16.791  21.218   4.752
21514W        W87945  42.560  23.088   3.804
21515W        W87946  20.252  28.246  13.969
21516W        W87947  31.485  31.499  10.709
21517W        W87948  11.393  15.152  10.556
21518W        W87949   2.797  23.660  12.037
21519W        W87950  41.968  22.453   3.444
21520W        W87951  13.169   6.298   1.892
21521W        W87952   6.362  40.846  14.345
21522W        W87953   1.440  33.385   4.138
21523W        W87954  12.349  34.272   3.751
21524W        W87955  11.571  21.320   2.795
21525W        W87956  44.902   9.192   4.113
21526W        W87957   8.868  28.162  10.696
21527W        W87958   7.340  31.659  11.471
21528W        W87959  25.393  43.250   3.822
21529W        W87960  28.925   9.016  14.392
21530W        W87961   8.689  21.448   2.128
21531W        W87962  31.232   9.822   3.397
21532W        W87963  25.131  37.378   4.196
21533W        W87964  30.274  34.603   4.881
21534W        W87965  35.704  25.128  11.209
21535W        W87966   6.465  41.737  12.774
21536W        W87967  15.427  42.882  13.029
21537W        W87968   1.093  37.989  11.399
21538W        W87969  33.342  35.536   3.703
21539W        W87970   7.858  18.552   0.780
21540W        W87971  35.907  19.106  14.266
21541W        W87972  31.740  27.298  11.461
21542W        W87973  32.410  41.754  11.917
21543W        W87974  18.904  27.629  14.987
21544W        W87975  39.593  11.868   0.515
21545W        W87976  11.719  18.845  14.534
21546W        W87977  41.789  21.873   4.142
21547W        W87978   9.914   5.457   3.022
21548W        W87979   9.239  27.072  13.597
21549W        W87980   8.237  15.047  12.451
21550W        W87981  37.887  17.721   3.063
21551W        W87982  39.423   0.633  10.354
21552W        W87983  12.714  29.679   2.207
21553W        W87984   4.322  35.169   4.370
21554W        W87985  28.446  11.422   4.615
21555W        W87986  36.610  20.950  12.206
21556W        W87987  31.472  30.180   3.793
21557W        W87988  19.858   4.122  13.291
21558W        W87989   2.816  44.312   3.221
21559W        W87990  33.582   4.068  14.983
21560W        W87991  24.953   2.047   5.159
21561W        W87992  16.302   8.776  12.734
21562W        W87993  41.750   9.170   2.499
21563W        W87994  38.308  34.992   1.231
21564W        W87995  22.928  20.877   3.755
21565W        W87996  10.139   4.694   0.022
21566W        W87997   3.509   9.832   4.711
21567W        W87998   0.422  14.811   1.687
21568W        W87999  33.869  29.555  10.400
21569W        W88000  25.787  26.653   0.038
21570W        W88001  35.148   3.652  13.980
21571W        W88002   8.871  20.337   2.706
21572W        W88003  27.645  26.655   0.780
21573W        W88004  22.074  37.330   3.555
21574W        W88005   5.642  33.410   3.132
21575W        W88006  22.272  23.462  14.741
21576W        W88007  13.814  14.121   4.325
21577W        W88008  33.194   0.784  13.483
21578W        W88009  13.395  41.566  14.415
21579W        W88010  33.553   9.236   1.361
21580W        W88011  10.920  34.972   3.732
21581W        W88012  24.034  29.253   3.396
21582W        W88013  24.785   4.974  12.513
21583W        W88014  31.858   4.293  12.225
21584W        W88015  22.995  23.792   4.120
21585W        W88016  24.492  12.269   1.596
21586W        W88017  29.399  28.662  14.242
21587W        W88018  27.635  43.181  12.100
21588W        W88019   2.663   6.202  12.556
21589W        W88020   0.666  24.756  13.256
21590W        W88021   0.313   9.711  14.900
21591W        W88022  32.431  44.074   1.286
21592W        W88023  31.188   1.283   1.316
21593W        W88024   9.715  23.564  11.262
21594W        W88025   0.039  25.576   1.782
21595W        W88026  44.619  13.210  12.924
21596W        W88027  34.024   5.150   0.675
21597W        W88028  17.969  16.671  11.613
21598W        W88029  36.354  29.460  13.469
21599W        W88030   1.441  37.848  14.952
21600W        W88031  37.631  36.818  14.365
21601W        W88032  17.688  29.664  14.075
21602W        W88033  44.690  31.829  12.501
21603W        W88034   4.186  41.573   1.929
21604W        W88035  30.469  31.504   2.248
21605W        W88036  24.066   1.433  14.282
21606W        W88037  41.566  17.256  10.435
21607W        W88038  15.201  11.176   4.602
21608W        W88039  13.306  30.795  10.260
21609W        W88040   4.953  12.099   0.388
21610W        W88041  12.861  13.745  12.770
21611W        W88042  23.483  24.412   4.215
21612W        W88043  40.024  30.682   4.578
21613W        W88044   5.420  15.230  14.808
21614W        W88045  28.072  18.689  12.103
21615W        W88046  15.550  34.412   3.628
21616W        W88047  16.784  34.459   1.857
21617W        W88048  23.928   9.467   2.687
21618W        W88049  34.262  42.361  12.556
21619W        W88050   3.750   2.772  14.053
21620W        W88051  11.411   5.797   2.132
21621W        W88052  41.318  27.990  14.495
21622W        W88053  44.488  29.441   1.865
21623W        W88054  23.445  40.316   0.456
21624W        W88055  27.033  40.359   4.402
21625W        W88056  22.466   8.148  14.405
21626W        W88057  44.812  43.214  10.720
21627W        W88058  25.760  16.434   3.682
21628W        W88059  35.259  11.817   0.907
21629W        W88060  17.047  42.514  14.320
21630W        W88061  17.162  30.933  10.558
21631W        W88062   1.991  18.691   2.207
21632W        W88063   5.406  15.690   2.185
21633W        W88064   8.863   0.079   0.738
21634W        W88065   9.707  17.005   1.510
21635W        W88066  40.233  43.588   2.215
21636W        W88067  10.862  22.772   2.802
21637W        W88068   1.765  42.507  14.497
21638W        W88069   1.397  40.143   0.529
21639W        W88070  24.742   7.369  11.588
21640W        W88071   8.938  36.008   0.411
21641W        W88072  37.063  19.746   4.254
21642W        W88073  18.269   6.173   3.086
21643W        W88074  23.156  25.466  11.299
21644W        W88075   7.008  14.917   5.514
21645W        W88076  23.986  15.557  10.600
21646W        W88077  29.363   6.868  14.287
21647W        W88078   2.370  32.073  10.159
21648W        W88079  11.824  37.804  11.980
21649W        W88080  36.760  24.139   2.498
21650W        W88081  36.657  35.392   3.141
21651W        W88082  44.737   7.940   2.820
21652W        W88083  14.257  36.915  12.017
21653W        W88084  42.065  39.386   0.344
21654W        W88085  26.330  20.190  14.280
21655W        W88086   9.184  44.673   2.376
21656W        W88087  28.082  23.226   1.835
21657W        W88088  20.259  22.986   3.848
21658W        W88089  27.840   4.753  11.570
21659W        W88090  23.720  10.233   1.351
21660W        W88091  11.124  39.904   1.391
21661W        W88092   8.780   6.749   4.141
21662W        W88093  42.523   0.007   3.187
21663W        W88094   0.871  19.694  10.837
21664W        W88095  24.118  14.122  12.918
21665W        W88096   1.769   2.944   2.326
21666W        W88097  13.743  42.062  12.873
21667W        W88098   1.407  24.161   4.170
21668W        W88099   2.961  30.034  13.672
21669W        W88100  21.172   9.816  10.913
21670W        W88101  10.288  38.332   4.086
21671W        W88102  20.049  11.058   4.566
21672W        W88103  35.428   9.744   3.554
21673W        W88104  25.434  36.799   1.737
21674W        W88105  16.226   6.122   0.301
21675W        W88106  37.051   2.847   4.349
21676W        W88107  32.496   3.330  14.907
21677W        W88108   9.798  18.024   1.867
21678W        W88109  22.497  26.065  10.758
21679W        W88110  23.194   3.318   3.195
21680W        W88111  18.716   7.622   2.736
21681W        W88112   8.173   8.540   1.839
21682W        W88113  14.320  33.633  13.273
21683W        W88114   0.357  34.096  14.103
21684W        W88115  14.580  29.961  12.880
21685W        W88116   2.385  10.848   1.486
21686W        W88117   2.686  43.521  12.872
21687W        W88118  12.877  42.616  10.721
21688W        W88119   2.161  15.811   1.422
21689W        W88120  15.415  22.535   2.337
21690W        W88121  12.791  17.096   4.834
21691W        W88122  21.274  18.715  12.887
21692W        W88123   7.493  17.185  14.992
21693W        W88124  30.155  27.539  13.842
21694W        W88125   2.050  32.141   2.436
21695W        W88126   3.901  23.114   1.842
21696W        W88127   7.854  13.561   1.413
21697W        W88128  31.598  10.882   0.707
21698W        W88129  13.148  12.890   3.227
21699W        W88130  29.496  10.411   4.771
21700W        W88131  31.720  11.184  12.566
21701W        W88132  40.446  40.397   4.923
21702W        W88133  23.399   3.990   3.786
21703W        W88134  17.267  19.057  12.901
21704W        W88135  38.272  21.137  11.031
21705W        W88136  42.055  11.639  14.026
21706W        W88137  16.533   4.631   0.748
21707W        W88138  40.802  26.658   1.853
21708W        W88139  34.936  34.372   0.514
21709W        W88140  15.500  16.129  14.713
21710W        W88141  32.867  40.579  12.876
21711W        W88142  22.980   4.649   2.649
21712W        W88143  40.770   1.015   3.789
21713W        W88144  16.129  41.716  10.692
21714W        W88145  17.150  42.557   1.694
21715W        W88146  25.583   9.072  11.222
21716W        W88147  22.128  34.615   0.939
21717W        W88148  40.002  18.914   2.743
21718W        W88149  44.037  35.829  13.317
21719W        W88150  35.852   0.860  12.905
21720W        W88151  16.718   0.644  10.783
21721W        W88152  14.151  36.065   4.246
21722W        W88153  34.522  37.352   3.761
21723W        W88154   1.884  21.152   3.224
21724W        W88155   6.397  26.301  10.929
21725W        W88156  14.806  12.542  12.158
21726W        W88157  22.777  22.748  14.713
21727W        W88158   8.700  16.170  11.873
21728W        W88159  13.215  34.828   2.939
21729W        W88160   1.793   4.981   2.159
21730W        W88161   9.800   3.091  12.373
21731W        W88162  15.518  43.687  10.173
21732W        W88163   2.751  19.026   1.416
21733W        W88164  26.915   7.799  10.264
21734W        W88165   8.347   9.717  12.611
21735W        W88166  17.985  39.059   2.308
21736W        W88167  36.054  12.391   3.919
21737W        W88168  29.261  35.354  13.432
21738W        W88169   4.929  29.887   0.271
21739W        W88170  23.801   5.470  13.055
21740W        W88171   3.450  39.514  12.531
21741W        W88172  10.317  16.172   1.538
21742W        W88173   2.164  37.396   4.076
21743W        W88174  17.408   9.145  14.884
21744W        W88175  44.769   7.632  13.443
21745W        W88176  18.838  25.860   4.155
21746W        W88177  13.676  28.534  13.994
21747W        W88178   0.826  43.266  11.764
21748W        W88179  19.328  39.986  11.961
21749W        W88180  25.229  11.353   2.335
21750W        W88181  25.244  41.487   4.830
21751W        W88182  18.116  10.312  13.384
21752W        W88183  12.884   6.488  13.029
21753W        W88184   1.773  12.198   0.667
21754W        W88185   4.826  25.052   3.629
21755W        W88186  19.263  21.175  14.026
21756W        W88187   0.565  22.697  10.779
21757W        W88188   5.126  38.800  10.100
21758W        W88189  21.710  11.865  11.258
21759W        W88190  22.744  22.205  13.851
21760W        W88191  12.193  10.333   4.377
21761W        W88192  24.551  15.847   4.371
21762W        W88193  27.967  23.030  14.895
21763W        W88194  21.054  38.555  12.907
21764W        W88195  14.813   2.458   1.274
21765W        W88196  41.298  21.011  13.040
21766W        W88197  20.240  11.820   4.163
21767W        W88198   5.756  40.995  13.094
21768W        W88199  20.298  31.250   5.693
21769W        W88200  13.231  34.597   3.948
21770W        W88201  38.211  22.549   4.550
21771W        W88202  38.807  36.572   4.863
21772W        W88203  17.223  12.709  13.419
21773W        W88204  28.255  16.006   1.775
21774W        W88205  39.940  26.997  13.035
21775W        W88206   4.527  27.400  11.303
21776W        W88207   9.014  19.028  13.331
21777W        W88208  27.628  17.266  12.079
21778W        W88209  20.333   8.369  13.453
21779W        W88210  26.607  31.084  13.380
21780W        W88211  37.994  18.020  10.548
21781W        W88212   3.241  23.019  11.900
21782W        W88213  43.268  34.635   4.142
21783W        W88214  30.056  11.695  12.884
21784W        W88215  44.171   8.264  14.777
21785W        W88216  16.457   8.261  14.102
21786W        W88217  43.019  20.274   4.991
21787W        W88218  23.957  19.701  12.878
21788W        W88219  33.642  25.091   0.277
21789W        W88220  12.825  23.339  10.616
21790W        W88221  15.786   9.688   1.757
21791W        W88222  15.606  32.344  12.469
21792W        W88223  12.237   5.993  13.291
21793W        W88224  42.827   7.620  13.530
21794W        W88225  38.267  20.564   3.911
21795W        W88226  18.544  34.906   4.485
21796W        W88227   8.187  12.859  12.119
21797W        W88228  32.445   4.784   0.475
21798W        W88229  36.332  42.000   4.153
21799W        W88230   2.217  37.228   2.839
21800W        W88231  29.516  24.602   0.386
21801W        W88232  23.061  31.296   4.165
21802W        W88233   5.135  44.695  11.374
21803W        W88234  40.471  19.386  14.835
21804W        W88235  25.498  34.882  11.693
21805W        W88236  32.675  40.069   3.548
21806W        W88237  30.157  14.277  11.131
21807W        W88238  44.015  40.853  14.230
21808W        W88239   8.919  24.599  10.849
21809W        W88240  37.351  21.084  10.533
21810W        W88241  30.985  29.966   4.484
21811W        W88242  38.547  41.032   3.765
21812W        W88243  12.601  21.606   3.694
21813W        W88244  25.536  32.968  10.875
21814W        W88245  10.654  23.760   4.661
21815W        W88246  43.165  29.946  10.986
21816W        W88247  34.899  29.553   4.974
21817W        W88248  35.130  37.829  11.818
21818W        W88249  23.273  15.273   0.938
21819W        W88250   2.852  29.443   1.477
21820W        W88251  16.874  25.560   4.940
21821W        W88252  31.792  20.105  11.181
21822W        W88253  27.203  28.936  13.949
21823W        W88254   6.321  11.238   0.686
21824W        W88255  17.023  15.825   2.168
21825W        W88256   9.405  11.416   1.939
21826W        W88257   5.168   2.874  12.369
21827W        W88258  37.350  29.340   1.410
21828W        W88259  34.960  23.434  10.800
21829W        W88260  20.665  25.745  12.813
21830W        W88261   1.970  39.809  11.611
21831W        W88262  38.474  32.674   1.301
21832W        W88263   2.184  11.313   3.459
21833W        W88264  20.674  39.825   3.272
21834W        W88265   7.144  26.661  12.355
21835W        W88266  32.614   4.840   0.979
21836W        W88267  29.001  26.118  13.764
21837W        W88268   2.306  11.570   3.893
21838W        W88269  42.972   3.735  11.785
21839W        W88270  14.842  27.628  14.900
21840W        W88271  33.527  32.222  11.929
21841W        W88272   2.593   5.033   0.485
21842W        W88273  19.904  32.563  14.395
21843W        W88274  32.786  15.243   1.404
21844W        W88275  29.295  35.365   4.605
21845W        W88276  21.603  11.165  12.843
21846W        W88277  24.885  22.133  13.583
21847W        W88278   9.137  14.701   1.403
21848W        W88279  14.860  22.139   1.784
21849W        W88280  43.701  24.724   3.957
21850W        W88281  22.612  17.490  10.840
21851W        W88282  41.269  29.888   1.359
21852W        W88283  27.588  39.796   2.600
21853W        W88284  28.532  32.617  10.737
21854W        W88285  21.986  34.100   0.980
21855W        W88286  20.764   2.478  10.484
21856W        W88287  22.250  20.283   2.759
21857W        W88288  13.557  33.180   1.132
21858W        W88289  28.134  37.454  10.460
21859W        W88290   8.145  25.159   1.264
21860W        W88291  22.458  40.194  12.029
21861W        W88292   4.878  19.214  11.835
21862W        W88293  32.372  15.359   0.314
21863W        W88294  23.877  41.621  11.600
21864W        W88295   0.123   7.907  11.618
21865W        W88296  32.827   5.152  12.901
21866W        W88297  30.046   5.198  11.716
21867W        W88298  39.084  41.907   2.764
21868W        W88299  26.604  12.638   0.918
21869W        W88300   4.003  27.286   2.366
21870W        W88301  28.359  28.888  14.907
21871W        W88302   5.985  30.527   4.647
21872W        W88303  43.478  13.804   4.049
21873W        W88304  22.379  18.219   9.915
21874W        W88305   8.780  40.717   0.302
21875W        W88306  24.007  38.301  11.130
21876W        W88307   0.160  14.274   0.568
21877W        W88308  42.979  37.970   3.968
21878W        W88309   7.373   9.609   2.752
21879W        W88310  22.098  31.749   4.175
21880W        W88311   8.187  15.131   3.886
21881W        W88312  39.389   7.237  13.009
21882W        W88313   0.342  32.160   1.281
21883W        W88314  17.452  26.328  13.080
21884W        W88315  15.482   0.221   4.778
21885W        W88316  17.931  20.083  12.509
21886W        W88317  18.117  13.791  12.624
21887W        W88318   8.788  22.061  12.400
21888W        W88319  36.057  27.975   4.614
21889W        W88320   8.314  30.709  11.280
21890W        W88321  40.320  12.652  11.643
21891W        W88322  38.005  37.063   2.435
21892W        W88323  23.657  13.525   1.809
21893W        W88324  16.193  34.638  12.093
21894W        W88325  11.215  28.513  12.985
21895W        W88326  20.228  23.275  12.051
21896W        W88327  30.069  18.368   1.233
21897W        W88328  43.794  17.033  10.938
21898W        W88329  20.835  27.130  13.108
21899W        W88330  30.148  17.256   3.349
21900W        W88331  19.989  18.474  12.476
21901W        W88332  42.878  27.058   2.367
21902W        W88333  38.570   9.216  12.817
21903W        W88334  33.465  17.042   1.505
21904W        W88335   3.049  14.286  14.392
21905W        W88336   4.168  40.581   2.223
21906W        W88337  32.894  38.107   4.137
21907W        W88338  21.669  40.556  11.520
21908W        W88339  15.431  41.448   4.591
21909W        W88340  16.827  26.861  12.350
21910W        W88341  16.473  15.432   3.659
21911W        W88342   8.645  42.425  13.800
21912W        W88343  13.147   3.891  14.026
21913W        W88344  31.149  42.844   2.570
21914W        W88345  28.967   9.277   3.600
21915W        W88346  41.710  29.268  14.975
21916W        W88347  29.720  42.933  14.310
21917W        W88348  27.179  42.926  12.023
21918W        W88349  40.289   7.499  13.860
21919W        W88350  24.246  38.919   0.656
21920W        W88351  30.013   9.363   4.140
21921W        W88352  36.843   5.974  12.538
21922W        W88353  16.974  38.899   0.992
21923W        W88354  41.988  28.649   1.287
21924W        W88355  11.092  14.100   3.774
21925W        W88356  39.697  40.774   0.304
21926W        W88357  39.867  41.345  11.014
21927W        W88358  41.370   4.161  11.262
21928W        W88359  17.405   5.391   1.385
21929W        W88360  34.125   2.983  11.414
21930W        W88361  40.027   8.950   2.249
21931W        W88362   5.502  38.300   4.247
21932W        W88363   6.699  43.240   1.798
21933W        W88364  37.356  21.524  14.375
21934W        W88365  27.670  40.844  14.415
21935W        W88366   4.398  36.824   0.869
21936W        W88367   5.841  22.408   3.330
21937W        W88368  24.943  24.568   1.955
21938W        W88369  15.787  34.357  10.859
21939W        W88370  34.576   1.360   0.768
21940W        W88371  39.708  25.141   3.436
21941W        W88372  23.159  41.941   0.444
21942W        W88373   4.759  34.421  12.041
21943W        W88374   4.882  20.104  14.676
21944W        W88375  16.051  43.864   2.815
21945W        W88376  25.978   7.138  10.572
21946W        W88377  11.013  13.174  13.077
21947W        W88378  20.211  17.548   4.541
21948W        W88379   2.079  32.024  13.355
21949W        W88380  35.272  16.569  10.794
21950W        W88381  38.798  17.641   5.026
21951W        W88382  31.059  40.945  14.351
21952W        W88383  36.584  39.543   1.757
21953W        W88384  33.622  30.143   2.140
21954W        W88385  37.378  15.170   2.359
21955W        W88386  36.025   9.448  13.973
21956W        W88387  42.060  10.499   1.339
21957W        W88388   1.255  29.021  12.986
21958W        W88389  14.867  11.610   1.738
21959W        W88390  32.192   7.775   2.205
21960W        W88391  32.862   5.157  12.032
21961W        W88392  28.358  12.857   2.091
21962W        W88393  29.477  33.589   4.546
21963W        W88394   4.257  28.088  11.956
21964W        W88395  34.981   8.250   3.519
21965W        W88396  29.773  41.502  11.146
21966W        W88397  16.791  25.243  11.134
21967W        W88398   6.404  36.406  12.921
21968W        W88399  37.099  28.574   3.650
21969W        W88400  43.518  11.196  12.808
21970W        W88401  29.894  37.956   2.369
21971W        W88402   9.892  16.820  10.686
21972W        W88403  13.389  37.897   3.145
21973W        W88404  26.407  31.146   4.242
21974W        W88405  31.655  20.087  13.930
21975W        W88406  31.089  26.349  13.772
21976W        W88407  32.889  14.318  12.176
21977W        W88408  36.023  29.173   1.415
21978W        W88409  39.505   6.372   1.976
21979W        W88410  28.923  38.874   0.377
21980W        W88411   1.677  16.237   0.708
21981W        W88412   1.253  17.481   0.327
21982W        W88413  33.184  32.235  10.216
21983W        W88414  37.910  16.822  13.994
21984W        W88415  25.775  36.019  12.197
21985W        W88416   9.317  43.357   1.441
21986W        W88417  19.297  21.045   1.456
21987W        W88418   2.623  41.033  14.770
21988W        W88419  36.979  44.986  11.438
21989W        W88420  23.476   0.739  12.378
21990W        W88421  39.413  42.545  14.095
21991W        W88422  44.949  41.948   1.375
21992W        W88423  10.307   8.207   4.798
21993W        W88424  42.932  18.088   1.140
21994W        W88425  19.183  15.844   1.208
21995W        W88426   3.411  25.303   1.405
21996W        W88427  13.807  33.633  13.350
21997W        W88428  23.763   0.768  13.209
21998W        W88429  26.760  15.400  11.987
21999W        W88430  28.481  14.363   0.902
22000W        W88431  30.151  33.817  11.626
22001W        W88432  44.698  39.313  13.006
22002W        W88433  12.799  10.113   2.583
22003W        W88434   9.221  39.525   4.695
22004W        W88435   0.261  42.533  13.350
22005W        W88436  16.666  43.767   1.793
22006W        W88437   5.978  19.119   0.805
22007W        W88438  25.034  30.891  12.866
22008W        W88439   4.541  16.169  11.526
22009W        W88440  14.366  25.198   3.248
22010W        W88441  19.762  16.661  13.456
22011W        W88442   3.249   1.961   4.276
22012W        W88443  13.210  37.140   0.284
22013W        W88444   6.208   6.898   4.842
22014W        W88445  34.816  26.666  12.019
22015W        W88446   7.459  32.629   4.960
22016W        W88447  44.836  43.464  13.300
22017W        W88448  20.063  29.223   0.429
22018W        W88449  42.927   9.645  10.798
22019W        W88450  43.739  19.719  11.542
22020W        W88451  22.491   8.910   1.890
22021W        W88452  27.669  27.826  12.989
22022W        W88453  15.071  22.094   0.378
22023W        W88454  35.917  33.180   0.333
22024W        W88455  10.180   4.043   4.160
22025W        W88456  21.621  23.644   4.762
22026W        W88457  36.750  25.678   4.093
22027W        W88458  14.810  12.261   1.068
22028W        W88459  10.298  10.022  10.473
22029W        W88460  28.534  23.074   2.090
22030W        W88461  32.062  24.575   3.251
22031W        W88462  24.557  29.171  11.530
22032W        W88463  32.989   5.998  12.439
22033W        W88464  38.607   5.805  11.590
22034W        W88465   8.227  34.693   2.802
22035W        W88466  18.758  34.434  10.363
22036W        W88467  23.902  20.125   2.265
22037W        W88468  21.218  14.483   0.702
22038W        W88469   2.671   1.395  11.504
22039W        W88470  22.275  44.145  14.493
22040W        W88471  26.186  11.577   3.714
22041W        W88472  13.272  33.991  11.497
22042W        W88473   2.494  10.789   2.284
22043W        W88474   3.217  39.292  14.822
22044W        W88475  39.376  27.236  14.671
22045W        W88476  37.518   6.879   1.804
22046W        W88477  35.337   0.937   2.755
22047W        W88478  19.442  13.252   4.234
22048W        W88479  14.764  30.862  11.000
22049W        W88480   4.475  22.887  11.609
22050W        W88481  44.675  40.448   1.619
22051W        W88482  33.276   2.986   2.789
22052W        W88483  26.347  24.448   0.422
22053W        W88484  15.023  14.976   4.102
22054W        W88485  36.827  38.199  10.789
22055W        W88486  19.349  36.569  11.107
22056W        W88487  27.081  22.985   3.336
22057W        W88488   7.790  40.412  11.387
22058W        W88489  38.904  37.675  11.988
22059W        W88490  39.023  38.606  11.251
22060W        W88491  38.716   4.743   9.949
22061W        W88492  22.071  30.740   3.269
22062W        W88493   0.074  20.579   2.805
22063W        W88494   1.256  26.617   4.166
22064W        W88495  29.068  26.657   2.072
22065W        W88496  40.303  14.546   3.220
22066W        W88497  30.625   8.631  13.930
22067W        W88498  37.569   3.382   4.353
22068W        W88499  34.315  18.586   1.387
22069W        W88500  10.663  30.113  14.919
22070W        W88501   0.753   1.254  11.524
22071W        W88502   4.846  34.324  13.940
22072W        W88503  35.984  23.508  10.722
22073W        W88504  36.351  19.236  12.579
22074W        W88505  28.152  33.296  11.134
22075W        W88506  13.935  18.558   0.948
22076W        W88507   8.454  10.365  11.423
22077W        W88508  13.338  14.307   0.211
22078W        W88509  39.567  36.585   2.610
22079W        W88510  11.074   7.960  14.398
22080W        W88511  38.370  23.516  13.354
22081W        W88512  20.340   6.158  10.116
22082W        W88513  42.872  34.427   0.010
22083W        W88514   3.769  26.068  11.680
22084W        W88515   1.844   7.237  12.420
22085W        W88516  40.870  30.687   0.249
22086W        W88517  11.821  42.474   2.583
22087W        W88518   2.306  19.462   0.443
22088W        W88519  29.072   8.678   0.315
22089W        W88520  34.349  19.580   2.532
22090W        W88521  38.001   2.706   0.845
22091W        W88522  31.512  33.785  11.439
22092W        W88523  14.157   7.919   5.185
22093W        W88524  14.774  18.173   0.294
22094W        W88525   2.491  40.540   2.290
22095W        W88526  23.472  30.488  13.850
22096W        W88527   1.255   5.323  12.385
22097W        W88528  28.945  32.534   3.304
22098W        W88529   5.827  21.153  12.978
22099W        W88530   4.803  35.191   3.265
22100W        W88531  10.060  14.345   2.321
22101W        W88532  22.535   9.005  11.960
22102W        W88533   0.968  18.602  12.198
22103W        W88534  39.991  30.432   3.698
22104W        W88535  41.856  33.076   0.444
22105W        W88536  40.480  17.043   1.053
22106W        W88537  36.393  30.970   0.729
22107W        W88538   1.462  17.991  11.532
22108W        W88539  14.503  33.163  11.165
22109W        W88540  44.971  41.850   4.500
22110W        W88541  33.376  39.399   3.544
22111W        W88542  26.548   3.170  13.020
22112W        W88543  20.059  16.324  14.977
22113W        W88544  29.252  28.076   5.077
22114W        W88545  21.164  31.521  13.349
22115W        W88546  16.499  23.144   1.710
22116W        W88547   1.163  39.596   2.661
22117W        W88548  12.909  39.593   2.158
22118W        W88549  21.805  35.980  10.384
22119W        W88550  33.996  28.221   2.669
22120W        W88551   2.996  28.890  14.481
22121W        W88552   8.982  12.825  14.464
22122W        W88553  19.855  38.900   1.336
22123W        W88554   3.022  18.074  10.683
22124W        W88555   4.512  29.641   4.235
22125W        W88556  34.478  20.524   1.651
22126W        W88557  30.439  35.730  11.479
22127W        W88558  19.070   4.975  11.575
22128W        W88559  36.780  23.259  12.923
22129W        W88560  29.319  41.814  11.129
22130W        W88561  26.284  35.923  10.734
22131W        W88562  41.958  42.508   2.006
22132W        W88563  36.306   8.096  13.950
22133W        W88564  44.815   6.423  13.067
22134W        W88565  17.354   2.310  11.959
22135W        W88566   9.953  41.890  14.989
22136W        W88567  10.266  25.117   4.697
22137W        W88568  26.063  19.820   3.130
22138W        W88569  30.411  23.724   1.424
22139W        W88570  27.560  13.960   0.827
22140W        W88571   3.166  19.168  11.214
22141W        W88572  19.061  37.793  11.630
22142W        W88573  10.887  19.844   1.274
22143W        W88574  17.725   7.646  14.798
22144W        W88575  22.651  31.395  14.358
22145W        W88576  28.965  14.007  11.479
22146W        W88577  16.383  24.152   1.876
22147W        W88578   5.695  40.950  11.895
22148W        W88579  42.946   0.344  11.912
22149W        W88580  22.092  34.041   1.802
22150W        W88581   0.705  32.947   2.150
22151W        W88582  39.008  13.180  13.468
22152W        W88583   1.327  14.533   2.451
22153W        W88584  14.302  16.640  12.286
22154W        W88585  28.145  16.164   2.634
22155W        W88586   9.379   8.831   0.572
22156W        W88587  15.030  28.501  13.844
22157W        W88588  37.099  13.733  12.033
22158W        W88589  22.270  43.235  12.190
22159W        W88590  26.374  31.835   4.522
22160W        W88591  42.524  41.050  10.742
22161W        W88592   7.784  41.768  12.933
22162W        W88593  25.557   2.080   3.246
22163W        W88594  37.796  34.461   2.742
22164W        W88595  30.964   5.927   1.966
22165W        W88596  20.255  18.821   4.682
22166W        W88597   5.277  20.005   2.742
22167W        W88598  39.638  38.299   4.129
22168W        W88599  13.152  17.531  14.552
22169W        W88600  27.868  11.096  10.757
22170W        W88601  17.258  21.710   3.776
22171W        W88602  16.065   7.885  11.149
22172W        W88603  13.389  11.628   1.852
22173W        W88604  38.386   2.894   4.124
22174W        W88605  34.110  25.235  12.457
22175W        W88606   4.777  27.436  10.687
22176W        W88607  19.299  26.717   3.129
22177W        W88608   2.324  12.057   4.135
22178W        W88609  34.051  32.674  11.604
22179W        W88610  21.694  15.211   0.666
22180W        W88611   3.232  22.455   3.523
22181W        W88612  31.401   9.781  12.486
22182W        W88613  27.393  26.961  14.027
22183W        W88614  30.806  43.533   2.849
22184W        W88615  11.161  31.474  13.237
22185W        W88616  12.753   3.368   2.870
22186W        W88617  11.523  15.779   4.711
22187W        W88618  32.469  29.305  10.657
22188W        W88619  34.950  32.402  13.545
22189W        W88620  25.178  27.045  11.940
22190W        W88621  43.218  34.272   0.382
22191W        W88622  22.096  38.052  13.959
22192W        W88623  29.247  24.423   3.138
22193W        W88624  28.935  18.020   0.842
22194W        W88625  43.889  10.964   2.841
22195W        W88626  16.992  26.658   3.666
22196W        W88627  38.078  43.409  10.690
22197W        W88628  11.617  24.566   4.468
22198W        W88629   1.944   6.245  11.198
22199W        W88630  16.732  29.091   2.994
22200W        W88631  29.759  17.525   2.368
22201W        W88632   9.868  41.174  14.301
22202W        W88633  27.162   8.669   2.750
22203W        W88634  23.709  34.598  13.949
22204W        W88635  30.554   3.201  12.806
22205W        W88636   9.367  40.990  10.551
22206W        W88637  18.394  39.764  12.102
22207W        W88638  44.260   3.922   3.919
22208W        W88639  12.615  29.423  13.441
22209W        W88640  41.791  33.326  12.538
22210W        W88641  24.506  20.796  12.395
22211W        W88642   4.810  19.492   0.407
22212W        W88643  36.123  27.989  11.703
22213W        W88644  34.385  36.003   3.790
22214W        W88645   4.664  18.993   3.232
22215W        W88646   1.766  42.598  13.349
22216W        W88647  37.395  40.842  14.856
22217W        W88648  26.396   9.815   1.398
22218W        W88649  17.278  36.639  13.927
22219W        W88650  42.438  13.650   2.457
22220W        W88651   5.302  41.902   1.294
22221W        W88652  14.161  35.106  11.677
22222W        W88653  36.344  39.512   0.298
22223W        W88654  23.031  12.247  14.724
22224W        W88655   0.339   8.186   0.941
22225W        W88656  21.197   1.252  10.685
22226W        W88657  24.939  32.077  11.638
22227W        W88658  37.062  43.472  14.457
22228W        W88659   3.889  22.203   1.734
22229W        W88660  16.057  43.406   4.615
22230W        W88661  41.064  30.131   4.555
22231W        W88662  31.007  39.321  11.946
22232W        W88663  15.067  15.339   0.342
22233W        W88664  29.308  23.525  13.054
22234W        W88665  10.011   6.906  14.800
22235W        W88666   8.739  43.278  12.080
22236W        W88667  24.676  44.941   3.155
22237W        W88668   7.956  31.359   3.242
22238W        W88669  36.362  24.509   3.701
22239W        W88670   7.906  30.604  12.157
22240W        W88671  44.787  13.898  14.815
22241W        W88672  40.935  12.099  11.545
22242W        W88673   8.314  11.915   4.237
22243W        W88674  38.054   7.161  11.989
22244W        W88675  28.986  14.106  14.679
22245W        W88676  37.692  10.386   1.714
22246W        W88677  29.112   4.104   0.583
22247W        W88678   2.108  18.558   4.672
22248W        W88679  34.835  30.195   3.726
22249W        W88680  36.929  13.350  12.914
22250W        W88681  43.831  26.192   0.975
22251W        W88682  41.399   5.386   2.763
22252W        W88683  14.206   8.888  13.936
22253W        W88684  40.031   0.720  10.628
22254W        W88685  41.481  22.331   3.265
22255W        W88686  39.008   4.013   1.340
22256W        W88687   3.846  10.297  11.632
22257W        W88688   7.939  38.463  12.600
22258W        W88689  38.535  44.581  12.931
22259W        W88690  19.855   2.846  13.368
22260W        W88691   5.855  17.803  12.459
22261W        W88692   3.950  31.341   0.922
22262W        W88693  20.194   1.643   9.958
22263W        W88694  38.015  28.573   3.621
22264W        W88695   8.032  12.237  10.380
22265W        W88696  44.375  29.402  10.458
22266W        W88697  33.447  22.929  14.802
22267W        W88698  29.351  29.150  14.882
22268W        W88699  19.305  22.959   3.780
22269W        W88700  17.522  11.795  10.971
22270W        W88701  35.968  19.478  11.215
22271W        W88702  13.296   1.891  10.664
22272W        W88703  38.192  36.025   0.343
22273W        W88704  28.371  25.753   3.734
22274W        W88705  42.728  40.795  11.468
22275W        W88706  10.214   4.914   0.529
22276W        W88707  34.567   8.390  14.539
22277W        W88708   5.412   4.025   3.535
22278W        W88709  44.818  32.098  14.384
22279W        W88710   7.341  35.422  12.007
22280W        W88711  39.891  21.319  11.209
22281W        W88712   1.147  32.555  11.011
22282W        W88713  32.984  24.597   0.355
22283W        W88714   7.613  20.209   4.976
22284W        W88715  15.785  10.246  12.929
22285W        W88716  31.014   8.840   0.369
22286W        W88717  10.357  33.191   4.120
22287W        W88718   8.693  30.215  11.912
22288W        W88719  22.000  16.879   1.349
22289W        W88720  27.459  32.610  13.132
22290W        W88721  11.352  44.580  13.926
22291W        W88722  18.532  10.651   2.385
22292W        W88723  24.034  21.225   5.404
22293W        W88724  10.737   6.784  13.279
22294W        W88725  14.811  10.201  14.333
22295W        W88726  40.975  29.422   0.962
22296W        W88727  14.891  34.021   1.378
22297W        W88728  39.063  34.211  11.432
22298W        W88729  24.530  33.741   5.495
22299W        W88730   9.356  43.906  12.996
22300W        W88731  40.081   8.715   0.830
22301W        W88732  40.344  21.019  12.085
22302W        W88733   9.375  38.055  13.530
22303W        W88734  29.721  44.245   3.702
22304W        W88735   4.717  34.803  13.830
22305W        W88736   8.655  17.971  14.104
22306W        W88737  11.658  32.957   3.240
22307W        W88738  16.648  12.204  11.669
22308W        W88739  19.033  31.139   0.811
22309W        W88740  27.966   8.354   3.723
22310W        W88741   6.792  27.447   1.697
22311W        W88742  14.088  16.080   2.203
22312W        W88743   0.728  18.221   1.619
22313W        W88744  35.466  19.573  11.277
22314W        W88745  42.662  10.242  12.433
22315W        W88746  38.100  37.719   3.084
22316W        W88747  25.679  23.542  13.902
22317W        W88748   2.760  40.526   0.040
22318W        W88749  26.533  11.435   1.711
22319W        W88750  43.510  26.017  12.551
22320W        W88751   6.419  35.762   2.540
22321W        W88752  42.552  14.694   4.522
22322W        W88753   1.302   6.145   1.656
22323W        W88754  18.907  10.940   5.132
22324W        W88755  38.845  30.990  12.032
22325W        W88756   5.610  26.326   0.221
22326W        W88757   1.188  35.170   4.219
22327W        W88758  20.768  34.529  11.770
22328W        W88759  37.802  17.119   2.754
22329W        W88760   7.793  31.705  14.723
22330W        W88761  23.769  35.896  11.981
22331W        W88762  35.184  19.339   2.878
22332W        W88763  40.222  12.319   3.650
22333W        W88764  11.444   5.369  12.549
22334W        W88765   7.388   2.445   3.084
22335W        W88766  34.513  34.186  12.638
22336W        W88767  11.678  36.796   2.959
22337W        W88768  12.820   9.794  14.404
22338W        W88769   3.760  17.828   4.960
22339W        W88770  20.385  18.222  14.366
22340W        W88771  34.982  24.252  12.523
22341W        W88772  34.500   0.201  13.338
22342W        W88773  14.536  25.503  10.766
22343W        W88774   2.409  27.734   4.055
22344W        W88775  34.114  18.720   0.931
22345W        W88776  36.472   0.370   1.733
22346W        W88777  21.180   4.927  12.705
22347W        W88778  11.673  31.745   0.673
22348W        W88779  29.312  13.822  11.127
22349W        W88780  18.949  44.748   2.764
22350W        W88781  25.375   8.555  12.530
22351W        W88782   4.975  30.181   1.258
22352W        W88783  26.489  22.511   3.115
22353W        W88784  27.966  32.358   1.171
22354W        W88785  11.214  38.611  10.817
22355W        W88786  28.766  29.943   1.695
22356W        W88787   9.021  19.483   1.402
22357W        W88788  19.230   2.355  11.977
22358W        W88789   6.340  43.984   0.321
22359W        W88790  18.570  22.489  10.213
22360W        W88791  40.517  40.613  12.462
22361W        W88792  40.861  44.574   9.748
22362W        W88793  13.285  15.298  10.651
22363W        W88794  19.451  13.696  14.800
22364W        W88795  12.252  25.075   5.453
22365W        W88796  16.723  38.547   0.692
22366W        W88797   1.546  43.176   2.293
22367W        W88798   6.930  14.794   4.230
22368W        W88799   9.845  32.072   4.079
22369W        W88800  19.355  35.377   2.807
22370W        W88801  23.027  12.071  11.863
22371W        W88802  16.220  29.844   4.271
22372W        W88803  23.636  26.571  13.785
22373W        W88804   2.911  18.577   3.603
22374W        W88805  24.556  30.899   1.686
22375W        W88806  24.305  32.293  14.748
22376W        W88807   6.322  33.115  14.424
22377W        W88808   5.483   1.574   2.795
22378W        W88809  42.087   8.341  11.703
22379W        W88810   4.669  36.136   4.253
22380W        W88811   7.572   4.767  11.542
22381W        W88812  44.812  28.519  10.527
22382W        W88813   2.928  21.566  12.102
22383W        W88814  13.109  22.950   2.200
22384W        W88815  31.933  23.481   4.257
22385W        W88816  36.602   7.353   3.830
22386W        W88817  39.771  29.485   0.356
22387W        W88818  21.574  38.423   9.639
22388W        W88819  44.325  18.540  13.379
22389W        W88820  32.640  25.937  12.990
22390W        W88821  24.629  12.060   0.104
22391W        W88822  10.947  44.981  14.508
22392W        W88823  38.734   5.621  12.458
22393W        W88824   6.267  10.602  11.129
22394W        W88825  11.833   6.202   3.344
22395W        W88826   7.888  39.673  10.697
22396W        W88827   3.278  43.451  12.693
22397W        W88828   2.064  30.659   4.853
22398W        W88829   0.753   5.278  12.051
22399W        W88830  29.922  16.804  10.813
22400W        W88831  28.278   3.753  10.681
22401W        W88832   3.871  22.136   3.639
22402W        W88833   8.205   6.255  14.492
22403W        W88834  34.374  42.797  11.449
22404W        W88835   1.827  37.815   0.293
22405W        W88836  32.261  36.408   3.997
22406W        W88837  16.572   3.863  13.958
22407W        W88838   7.285  35.164  11.555
22408W        W88839  15.258  19.078   3.562
22409W        W88840  35.969   9.603   3.753
22410W        W88841  44.096  26.462  11.022
22411W        W88842  34.474  28.786   4.997
22412W        W88843  42.040  32.437  14.831
22413W        W88844  14.855  11.116  12.162
22414W        W88845   6.283  44.469   5.007
22415W        W88846   4.392   7.221   2.369
22416W        W88847  30.347  14.408   1.732
22417W        W88848   6.081  42.859  14.320
22418W        W88849   1.228  28.501  12.960
22419W        W88850  11.085  18.591   2.356
22420W        W88851  37.235   5.452  13.346
22421W        W88852  28.064  22.960   1.361
22422W        W88853  40.748  28.527   3.253
22423W        W88854  40.419  11.844  14.374
22424W        W88855  17.719  39.221  13.926
22425W        W88856  25.579  21.905  13.803
22426W        W88857  39.129  15.191  10.244
22427W        W88858  13.942   6.944  13.363
22428W        W88859  42.697  43.724   0.810
22429W        W88860  14.147  35.580   1.541
22430W        W88861  23.081  10.302  11.529
22431W        W88862   0.774  31.490  14.700
22432W        W88863  14.503  10.778   4.067
22433W        W88864  23.041  37.359  11.254
22434W        W88865  15.549  39.023   2.373
22435W        W88866  20.195  27.028   2.778
22436W        W88867  18.965  19.672   0.771
22437W        W88868  32.065   4.569  11.262
22438W        W88869  31.404  29.416  13.581
22439W        W88870   9.825  42.788  12.145
22440W        W88871  24.009  26.385  10.217
22441W        W88872  26.195  44.498   4.567
22442W        W88873  27.203  40.366   0.224
22443W        W88874  39.013  23.958   0.895
22444W        W88875  10.391   3.815  11.900
22445W        W88876  23.351  30.676  13.378
22446W        W88877  33.656  22.552  14.431
22447W        W88878  27.211  35.680  13.401
22448W        W88879   5.096  15.199   4.128
22449W        W88880  43.488  34.931   0.778
22450W        W88881  19.104  23.012  11.168
22451W        W88882  12.268  40.144   3.304
22452W        W88883  17.804   6.957   1.150
22453W        W88884  13.245  31.580  14.306
22454W        W88885  36.037  13.106  14.774
22455W        W88886   6.521   6.760  10.389
22456W        W88887  23.650  32.566  13.625
22457W        W88888  10.340   5.866  11.298
22458W        W88889  20.631  42.843  13.024
22459W        W88890  41.650  22.702   1.631
22460W        W88891  35.529  38.595  11.625
22461W        W88892  26.245  12.062   0.710
22462W        W88893  43.150  17.008   4.111
22463W        W88894   0.717  13.634   2.283
22464W        W88895  29.824  28.596   0.300
22465W        W88896   0.989  11.223  12.679
22466W        W88897  18.972   5.084   0.971
22467W        W88898  31.068   7.991   4.139
22468W        W88899   3.314  38.975  11.883
22469W        W88900  12.720   3.007   3.712
22470W        W88901  17.294  25.198  11.073
22471W        W88902  24.685  38.813   1.355
22472W        W88903  39.033  33.132   2.439
22473W        W88904  12.210  18.945  10.995
22474W        W88905  42.331  22.632   2.572
22475W        W88906  22.719  22.583  14.216
22476W        W88907  16.626  31.176  13.933
22477W        W88908  28.611  15.682   4.636
22478W        W88909  39.098   1.914  10.064
22479W        W88910   7.052  26.335   2.150
22480W        W88911  25.554  17.144  12.021
22481W        W88912  26.099   6.644  10.639
22482W        W88913   8.907  19.169  12.553
22483W        W88914  44.371  22.444   3.705
22484W        W88915  16.945  31.429  10.474
22485W        W88916   9.692  28.747   1.042
22486W        W88917  19.337  25.504  13.077
22487W        W88918  38.414  38.828  13.892
22488W        W88919  22.306  14.123  12.862
22489W        W88920   6.323   8.096  12.920
22490W        W88921  43.043  42.696  10.992
22491W        W88922  40.111  12.863   3.168
22492W        W88923  16.603  43.512  12.139
22493W        W88924  10.775  24.230  11.998
22494W        W88925   4.859   1.436   1.377
22495W        W88926   5.877  11.630   1.394
22496W        W88927  32.928  39.208   3.715
22497W        W88928  41.181   8.309   2.058
22498W        W88929  43.359  35.518   4.292
22499W        W88930  26.569  34.861   2.518
22500W        W88931  37.594  33.833   0.320
22501W        W88932   2.906  13.217  10.380
22502W        W88933  19.636  27.057   4.602
22503W        W88934  23.469  34.854   1.826
22504W        W88935  15.561  34.861   2.859
22505W        W88936  23.076  12.806  13.457
22506W        W88937   2.825  21.509   1.186
22507W        W88938   0.674  39.367   3.790
22508W        W88939  41.105  10.681   3.952
22509W        W88940  38.368  35.023   3.552
22510W        W88941  15.426   5.768   4.933
22511W        W88942   9.634   4.864  12.094
22512W        W88943   4.903  26.828  11.743
22513W        W88944  27.485  32.869  14.758
22514W        W88945  14.190  38.544   1.656
22515W        W88946  27.937  11.852   0.230
22516W        W88947  43.992   9.552  13.130
22517W        W88948  32.345   9.194  10.875
22518W        W88949  20.014   7.166  13.518
22519W        W88950  28.431  24.024   0.807
22520W        W88951  44.330   9.939   3.152
22521W        W88952  22.274   2.439   2.953
22522W        W88953  37.892  21.829  10.476
22523W        W88954  18.602   5.896   2.149
22524W        W88955  19.940  30.815   1.503
22525W        W88956   3.637   9.645   0.016
22526W        W88957  14.262   3.722  12.543
22527W        W88958  30.636  28.035  12.712
22528W        W88959  43.954  25.449   4.653
22529W        W88960  12.729  12.494  10.938
22530W        W88961   2.719  16.588   1.074
22531W        W88962  32.356  10.608   2.905
22532W        W88963  23.077  33.020  10.952
22533W        W88964   0.313  37.432   2.114
22534W        W88965   0.023   6.151  13.465
22535W        W88966  23.564  44.830  12.153
22536W        W88967   7.820  19.467   9.805
22537W        W88968  17.873  24.803   3.315
22538W        W88969   9.824  36.078  12.262
22539W        W88970   5.236  14.615   0.629
22540W        W88971  41.588  41.949  13.402
22541W        W88972  34.190  11.386  14.089
22542W        W88973   1.168   7.695  12.027
22543W        W88974  44.742  32.664   4.570
22544W        W88975  40.959  25.273   4.809
22545W        W88976  43.550  11.759  13.437
22546W        W88977   8.501   1.809   1.362
22547W        W88978  26.698  27.555   2.246
22548W        W88979  42.442  24.116   2.507
22549W        W88980  20.451   7.855   0.693
22550W        W88981  37.501  11.770   4.568
22551W        W88982  23.325  18.767   3.105
22552W        W88983  31.489  26.719   2.706
22553W        W88984  33.398  36.100  14.493
22554W        W88985  19.571  32.207   4.518
22555W        W88986  20.045  41.626   3.146
22556W        W88987   0.786  36.003   0.987
22557W        W88988  32.591   2.844  11.993
22558W        W88989  17.533   1.294   1.468
22559W        W88990  24.994  39.041   2.099
22560W        W88991   6.034  40.887   4.569
22561W        W88992  39.266  26.278  10.546
22562W        W88993  30.115  35.935  13.269
22563W        W88994   3.230  31.364  12.846
22564W        W88995  43.816  18.642  12.032
22565W        W88996  27.882  16.560   3.237
22566W        W88997  33.869  28.276  12.798
22567W        W88998  43.178  12.135  12.985
22568W        W88999  37.030   3.845  13.400
22569W        W89000  37.086  28.168  12.000
22570W        W89001  34.641  42.284   4.266
22571W        W89002  26.690  35.676  14.573
22572W        W89003  17.319  16.237   4.137
22573W        W89004   8.213  32.648  14.004
22574W        W89005  17.197  31.949   4.892
22575W        W89006  17.043  33.877  10.650
22576W        W89007  32.938  29.451  10.426
22577W        W89008  43.287   4.319   4.882
22578W        W89009  29.680  34.338   0.769
22579W        W89010  31.721   1.750  10.760
22580W        W89011  39.302  44.715  10.724
22581W        W89012  34.530   6.488   4.461
22582W        W89013   7.674  20.037  10.628
22583W        W89014  40.420  27.472  13.298
22584W        W89015   5.504  42.370   1.194
22585W        W89016  13.614  32.114   4.231
22586W        W89017   7.469  26.231   0.452
22587W        W89018   3.975  10.399   2.246
22588W        W89019  38.860  44.893  11.600
22589W        W89020   8.141  32.362  12.162
22590W        W89021  22.770  42.362  11.244
22591W        W89022  30.374  32.631   4.181
22592W        W89023  12.673   5.919   2.754
22593W        W89024  29.819   7.878  13.515
22594W        W89025  42.087   1.926   1.314
22595W        W89026  34.436  34.373  13.107
22596W        W89027  12.811  32.603   2.273
22597W        W89028  39.566  26.713   3.211
22598W        W89029  11.669  42.522   1.565
22599W        W89030  31.598  44.005  12.224
22600W        W89031  31.349  12.104   3.288
22601W        W89032   4.444  12.045   0.321
22602W        W89033  34.480   8.811  12.559
22603W        W89034  10.191  30.661  10.625
22604W        W89035  14.257   4.353   1.395
22605W        W89036  31.309  39.095   0.172
22606W        W89037  43.755  41.289  14.267
22607W        W89038   7.931  26.044   0.270
22608W        W89039  35.877  26.436   0.294
22609W        W89040   4.237   6.258  14.563
22610W        W89041  43.039  17.223   0.287
22611W        W89042  12.893  20.526   1.507
22612W        W89043  26.500   6.437   0.328
22613W        W89044  33.529  25.273  10.175
22614W        W89045   4.735   3.296  10.632
22615W        W89046   6.280  39.987   1.691
22616W        W89047  17.207  21.022   4.500
22617W        W89048  11.052  32.720  13.736
22618W        W89049  33.856  37.271  12.318
22619W        W89050  28.200  38.812  14.381
22620W        W89051   4.278   1.230  14.960
22621W        W89052  43.389  32.317  11.217
22622W        W89053  20.204  30.355  11.937
22623W        W89054  33.150  23.512   3.311
22624W        W89055   7.837  25.470  10.645
22625W        W89056   2.886  30.538   0.734
22626W        W89057  20.902  34.118  14.268
22627W        W89058   2.735  20.790   1.531
22628W        W89059  37.480  21.342   1.275
22629W        W89060   6.515  25.260   0.457
22630W        W89061  41.739  22.131  13.986
22631W        W89062  19.994  27.662   0.403
22632W        W89063  40.580   3.335  14.768
22633W        W89064  18.795  34.271  12.619
22634W        W89065   4.922  20.510   3.511
22635W        W89066  17.783  29.450  13.207
22636W        W89067  28.640  17.030  14.943
22637W        W89068   5.952  34.683   1.482
22638W        W89069  42.392  38.895  11.416
22639W        W89070  27.632  32.627  13.611
22640W        W89071  39.880  36.520   2.167
22641W        W89072  16.586   7.302   9.622
22642W        W89073  23.062  40.882   1.440
22643W        W89074  21.016  17.376  14.276
22644W        W89075  44.375  32.013   1.081
22645W        W89076  27.833  23.907   4.652
22646W        W89077  40.406  38.362   0.825
22647W        W89078  35.029  21.183   1.336
22648W        W89079  20.354   6.688  11.209
22649W        W89080  34.650   9.219   2.914
22650W        W89081  14.168  21.131  13.401
22651W        W89082  44.062  15.298   1.837
22652W        W89083  14.812  25.735   3.619
22653W        W89084  14.361  11.133  12.590
22654W        W89085  17.717  16.788  13.236
22655W        W89086  14.542  34.436  13.860
22656W        W89087  23.730   3.138  11.154
22657W        W89088  11.770   5.637  11.493
22658W        W89089  19.093  37.035  14.077
22659W        W89090  19.185   6.309   2.508
22660W        W89091  23.119  34.392  12.485
22661W        W89092  15.629  44.420   1.260
22662W        W89093  24.120   0.524  10.830
22663W        W89094  15.207  37.281  13.514
22664W        W89095  43.325  37.058  12.951
22665W        W89096   5.380  20.636   4.260
22666W        W89097  27.274  38.090   4.351
22667W        W89098  27.483  33.708   0.848
22668W        W89099   6.799  19.129  14.818
22669W        W89100   6.663  25.226   2.306
22670W        W89101  40.244  39.312  14.898
22671W        W89102  13.333  28.925   0.286
22672W        W89103  43.387  33.705  11.611
22673W        W89104  29.748  23.607   0.797
22674W        W89105  23.672  26.742  10.992
22675W        W89106  10.312  10.651   0.684
22676W        W89107  28.895  12.707   1.345
22677W        W89108   4.114  17.249   2.561
22678W        W89109  32.462  23.694   0.445
22679W        W89110  19.542  14.810   1.334
22680W        W89111  15.619  23.489   3.271
22681W        W89112  28.611   7.121  13.495
22682W        W89113  40.959  20.486  12.566
22683W        W89114  12.144  38.917   3.696
22684W        W89115  29.154  36.943  10.786
22685W        W89116  32.949  15.676  10.698
22686W        W89117  38.959  20.102  13.328
22687W        W89118   8.895  17.715   5.048
22688W        W89119  30.678  18.309   0.276
22689W        W89120  40.026  10.893   0.550
22690W        W89121  39.451  20.962  12.098
22691W        W89122  16.323  16.133  13.445
22692W        W89123   0.991  41.475  12.561
22693W        W89124  20.794  42.007   0.989
22694W        W89125  29.039   5.749   1.856
22695W        W89126  31.521   2.410   2.324
22696W        W89127  11.799  33.381  11.832
22697W        W89128  32.523  12.606  12.080
22698W        W89129  17.505  39.766   2.653
22699W        W89130  44.010  23.003   4.542
22700W        W89131   9.105  18.822  14.817
22701W        W89132  11.797  42.887   4.650
22702W        W89133  28.783  20.109   3.083
22703W        W89134  41.604  31.437   0.786
22704W        W89135  38.845  33.671  10.279
22705W        W89136  12.708  34.859  12.213
22706W        W89137  15.694   2.758   2.784
22707W        W89138  38.598  35.862   0.763
22708W        W89139  40.593  40.881  12.017
22709W        W89140   1.889  15.756   4.886
22710W        W89141  10.705  31.890  13.926
22711W        W89142  23.230   9.023  12.568
22712W        W89143  28.600  24.635  12.066
22713W        W89144  33.901  12.583   3.918
22714W        W89145  14.126  44.056  11.130
22715W        W89146  36.119   3.347   3.229
22716W        W89147  26.815  28.088  12.135
22717W        W89148  22.985  22.995   2.288
22718W        W89149  32.018  32.922   3.847
22719W        W89150  17.771  36.754  13.994
22720W        W89151  25.304  32.954  14.283
22721W        W89152   6.674  34.528  14.465
22722W        W89153  23.005   9.665  11.572
22723W        W89154  29.093   6.946  12.155
22724W        W89155  31.901  25.018  14.898
22725W        W89156  44.806  43.495  11.607
22726W        W89157  17.875  26.397   3.414
22727W        W89158  36.166  39.054   0.169
22728W        W89159  33.136  13.164  12.404
22729W        W89160  37.949  21.831  12.964
22730W        W89161  24.407   4.389   1.966
22731W        W89162   3.384   5.699  13.372
22732W        W89163   5.311  14.814   0.129
22733W        W89164   4.325  18.658   1.103
22734W        W89165  16.880  31.055   2.872
22735W        W89166  11.717  40.342   4.107
22736W        W89167  21.332   5.955   3.741
22737W        W89168  32.497  33.837  11.675
22738W        W89169  29.667  29.038  14.492
22739W        W89170  12.112  10.471   1.915
22740W        W89171  35.681  17.835  11.589
22741W        W89172   9.329  11.420  14.940
22742W        W89173  43.050  22.276  14.439
22743W        W89174  34.721  43.588  11.822
22744W        W89175  41.451  15.035  12.131
22745W        W89176  23.463  41.882   4.219
22746W        W89177  31.941  33.916   0.803
22747W        W89178  39.861   0.269   1.209
22748W        W89179  13.760  14.907  11.968
22749W        W89180  20.851  34.018  11.943
22750W        W89181  41.420  25.661   0.332
22751W        W89182  31.030  17.976  11.603
22752W        W89183  25.571  39.691   0.926
22753W        W89184  34.831   6.136  11.608
22754W        W89185  39.266   5.297   3.221
22755W        W89186  39.096  37.317   2.933
22756W        W89187  42.467  17.040  12.031
22757W        W89188  12.563  31.926   5.069
22758W        W89189  11.554  24.487  12.028
22759W        W89190  29.899  20.520   2.433
22760W        W89191   5.207  25.903  13.879
22761W        W89192  18.702  10.700   0.988
22762W        W89193   6.381  13.362  11.590
22763W        W89194  35.619  23.688   3.708
22764W        W89195   2.092  10.949   4.750
22765W        W89196  16.174  28.964   3.720
22766W        W89197   6.703  26.972   3.764
22767W        W89198  29.250  37.196   3.616
22768W        W89199  32.636  11.633  12.306
22769W        W89200  37.087  16.213   0.916
22770W        W89201   8.769  32.906  14.952
22771W        W89202  30.935   5.793   0.784
22772W        W89203   3.995  15.677  10.283
22773W        W89204  37.250  39.965  13.442
22774W        W89205  19.561   2.070   4.249
22775W        W89206  42.608   7.321   1.444
22776W        W89207  15.066  16.278  12.129
22777W        W89208  25.514  11.960   3.146
22778W        W89209  42.301  17.094   3.097
22779W        W89210  38.624  20.625   0.230
22780W        W89211  32.461  12.312   4.581
22781W        W89212  28.525  27.919   2.332
22782W        W89213  16.514  41.678  12.088
22783W        W89214   9.072  32.570  13.062
22784W        W89215   2.810  34.501   1.381
22785W        W89216  24.156  43.154  14.924
22786W        W89217  29.454  31.557  14.333
22787W        W89218   7.530  18.366   2.416
22788W        W89219  41.607  26.933   3.599
22789W        W89220  23.629  27.886   5.031
22790W        W89221  40.621  44.560   2.874
22791W        W89222  22.524  12.960  12.762
22792W        W89223  41.447   8.984  11.001
22793W        W89224  29.686  14.710  10.698
22794W        W89225  37.301  10.627  12.453
22795W        W89226   0.761  15.704  11.217
22796W        W89227  35.767   7.850  13.457
22797W        W89228  15.300  10.167  13.059
22798W        W89229  21.424  16.752   0.858
22799W        W89230   6.385  19.682   1.933
22800W        W89231  19.745  22.961  13.922
22801W        W89232  37.924   1.380   1.400
22802W        W89233  25.793  11.700  10.529
22803W        W89234  23.517  11.034   0.880
22804W        W89235  30.044   7.185  11.399
22805W        W89236  25.988  11.610   0.848
22806W        W89237  36.989  42.849   5.457
22807W        W89238  17.611  10.807  13.041
22808W        W89239  14.494   8.769  14.375
22809W        W89240  19.551  42.897   0.941
22810W        W89241  30.529  23.293  11.680
22811W        W89242   9.261  17.239  11.090
22812W        W89243  41.573  43.428   0.234
22813W        W89244  26.420  13.630  12.950
22814W        W89245  21.868  27.952  14.808
22815W        W89246  36.750  36.931  12.432
22816W        W89247  23.206   7.328  14.036
22817W        W89248  25.300  25.144   2.397
22818W        W89249  27.355  14.471   0.820
22819W        W89250  10.588   6.318  10.683
22820W        W89251  39.757  29.410  11.022
22821W        W89252  35.362  43.729   1.916
22822W        W89253   8.419  27.901   5.017
22823W        W89254  26.416   4.603   0.714
22824W        W89255  28.030  42.523   2.148
22825W        W89256  32.356  35.812  10.879
22826W        W89257   3.713  40.940   4.091
22827W        W89258  17.060  15.552  12.626
22828W        W89259  40.281  28.251  10.966
22829W        W89260  22.087  17.035  10.419
22830W        W89261   3.757  18.041   3.652
22831W        W89262  43.913   0.444   3.598
22832W        W89263  15.591   3.223  14.352
22833W        W89264  29.398  21.282   4.024
22834W        W89265  24.035  17.728  14.516
22835W        W89266  19.618   0.258   4.586
22836W        W89267   3.906  23.034  13.537
22837W        W89268  32.966   2.815  13.598
22838W        W89269   0.599  35.902  10.515
22839W        W89270   0.431  17.207   0.202
22840W        W89271  22.251  38.780   2.780
22841W        W89272  34.679  41.856   1.461
22842W        W89273  21.679   5.449   0.338
22843W        W89274  19.265   0.684  10.626
22844W        W89275  25.532   5.049   4.588
22845W        W89276  10.269  25.327   4.207
22846W        W89277  25.458  33.341  12.346
22847W        W89278  23.589  29.150   3.125
22848W        W89279  16.703  29.917   1.973
22849W        W89280  29.635   1.991  12.095
22850W        W89281  24.418  33.606   4.014
22851W        W89282  12.330  30.433  11.139
22852W        W89283  24.132  40.838   4.497
22853W        W89284  36.383   5.689   3.759
22854W        W89285   0.556  44.369   3.342
22855W        W89286   6.622  31.089   0.904
22856W        W89287  22.266   7.629  12.106
22857W        W89288   3.954  30.033   4.670
22858W        W89289  40.993   6.639  13.963
22859W        W89290  14.315   0.981   4.595
22860W        W89291  13.733  24.171   0.050
22861W        W89292  25.225  20.177   3.668
22862W        W89293  14.533  27.169  12.147
22863W        W89294  34.081  35.263   1.959
22864W        W89295  13.123  38.024  13.690
22865W        W89296  36.943  37.584  12.952
22866W        W89297  22.668  17.785   3.754
22867W        W89298  30.657   0.717  11.244
22868W        W89299   7.766  12.982  14.195
22869W        W89300  15.252  11.176   1.269
22870W        W89301  43.746   5.083   2.055
22871W        W89302  30.826   5.419   2.160
22872W        W89303   1.971  33.928  12.336
22873W        W89304  12.372   5.685   1.727
22874W        W89305  14.472  41.324  12.921
22875W        W89306  21.416   6.649   3.705
22876W        W89307  18.851  40.499   0.514
22877W        W89308  25.469  30.401  12.971
22878W        W89309  18.843   3.024   3.784
22879W        W89310  20.511  29.933  14.875
22880W        W89311  11.882  37.058   1.346
22881W        W89312  14.892   8.442   4.125
22882W        W89313   6.355   3.670   1.297
22883W        W89314  37.478  29.156   0.924
22884W        W89315  17.516  28.951  12.362
22885W        W89316  14.200  23.040   5.252
22886W        W89317  15.672  19.540   1.815
22887W        W89318  16.754  11.929   2.304
22888W        W89319   7.154  35.591   1.377
22889W        W89320  41.901   0.990   1.182
22890W        W89321  29.920  22.991   1.976
22891W        W89322  30.121  19.462   4.922
22892W        W89323  36.722   2.134   0.047
22893W        W89324   9.226  14.214   1.237
22894W        W89325   3.682   0.962  13.446
22895W        W89326   5.972   2.644  14.367
22896W        W89327  34.614  43.770   4.221
22897W        W89328  39.712  17.789   1.844
22898W        W89329  27.593  42.257  13.935
22899W        W89330  25.000  13.388   4.016
22900W        W89331  25.080   0.893  11.746
22901W        W89332  20.740   2.508  12.131
22902W        W89333  33.869  41.401  13.531
22903W        W89334  32.921  20.610  11.080
22904W        W89335  33.159  26.336  11.179
22905W        W89336   4.730  44.724   1.821
22906W        W89337  36.261  19.637   1.975
22907W        W89338  25.390  20.259   2.344
22908W        W89339  17.167   1.644  14.472
22909W        W89340  17.409  39.441  12.192
22910W        W89341  42.346   1.135   2.536
22911W        W89342   4.868   9.359   2.521
22912W        W89343   8.311  16.563   2.194
22913W        W89344  24.044  11.328  14.987
22914W        W89345  29.755   0.627   2.821
22915W        W89346  15.630  26.730  11.622
22916W        W89347   3.030  24.790  13.950
22917W        W89348   5.882  17.127  13.140
22918W        W89349   7.960  17.625   2.626
22919W        W89350  36.447  15.335  13.472
22920W        W89351   9.561  11.916   1.169
22921W        W89352  43.372   7.791   3.684
22922W        W89353   9.930  34.960   4.034
22923W        W89354   5.413  40.305   2.840
22924W        W89355  44.708  43.462   0.889
22925W        W89356  20.326   6.103  10.641
22926W        W89357  13.469   5.124  14.228
22927W        W89358  33.656   8.685  13.065
22928W        W89359  19.248  22.997  12.640
22929W        W89360  38.265  33.529   1.863
22930W        W89361  40.278  23.833  11.288
22931W        W89362  37.803  13.064   2.743
22932W        W89363  10.827  19.172   2.678
22933W        W89364  23.060  40.514  11.089
22934W        W89365  41.169  22.473   1.662
22935W        W89366  38.480  20.440   1.006
22936W        W89367  21.866  37.063  11.114
22937W        W89368   0.554  33.090  10.689
22938W        W89369  41.096   5.904   2.251
22939W        W89370  24.044  21.287  10.213
22940W        W89371  34.528  16.134  10.412
22941W        W89372  15.265  14.776  13.702
22942W        W89373  27.083  17.269  10.742
22943W        W89374  30.438  14.657   2.160
22944W        W89375  13.767  35.962  14.076
22945W        W89376   1.250  25.592  14.256
22946W        W89377  30.139   0.204  13.346
22947W        W89378  25.299  10.708   0.425
22948W        W89379   8.150  21.098   1.369
22949W        W89380   1.159   9.087   2.225
22950W        W89381  29.344   4.450  11.345
22951W        W89382   2.409  11.791   3.436
22952W        W89383  31.987  42.832  11.671
22953W        W89384  41.928   3.239   4.664
22954W        W89385  42.785  38.889   3.537
22955W        W89386   9.004  37.506  10.670
22956W        W89387  37.279   9.474  14.130
22957W        W89388  10.664  10.163  11.149
22958W        W89389  37.087  42.711   3.020
22959W        W89390   3.916  12.787  12.059
22960W        W89391  44.469   2.931  10.734
22961W        W89392  32.151  28.359  14.694
22962W        W89393  34.743  34.737   0.179
22963W        W89394  18.131  27.967   2.761
22964W        W89395  10.465  12.763  12.415
22965W        W89396   1.693  36.883  14.953
22966W        W89397   3.274  32.931  10.585
22967W        W89398   6.602  11.971   0.883
22968W        W89399  19.941  13.779   1.767
22969W        W89400   1.742  40.273   3.698
22970W        W89401  11.667  32.163   2.854
22971W        W89402  43.513  25.191  12.822
22972W        W89403  44.292  16.232  14.029
22973W        W89404  36.014  41.812  11.036
22974W        W89405  14.396  36.876   3.717
22975W        W89406  32.469  14.067   0.642
22976W        W89407  38.188  41.295   5.038
22977W        W89408  19.319  36.492  12.360
22978W        W89409  28.557  11.426  11.141
22979W        W89410  19.152  24.746   3.112
22980W        W89411  35.428  34.638  12.440
22981W        W89412  43.595  14.678  13.412
22982W        W89413  11.203  11.738  13.754
22983W        W89414  12.255  13.337  10.645
22984W        W89415  15.124  12.858  12.553
22985W        W89416  37.880  37.218   1.880
22986W        W89417  41.613  11.145   4.192
22987W        W89418   5.197  44.214   0.756
22988W        W89419   8.575  17.897  13.136
22989W        W89420   6.319   0.260  14.556
22990W        W89421  43.423  35.395  11.514
22991W        W89422  15.710  43.948   1.451
22992W        W89423  32.873  38.588   4.400
22993W        W89424  28.605  17.457  10.997
22994W        W89425  17.176  14.633  12.611
22995W        W89426  38.565  29.388  11.886
22996W        W89427  44.109  10.058   3.747
22997W        W89428   8.070  31.974   0.338
22998W        W89429   7.254  28.051   0.968
22999W        W89430  25.397   1.367  14.160
23000W        W89431  40.226  27.027  13.496
23001W        W89432  23.282  28.913   0.878
23002W        W89433  36.412   8.943   2.688
23003W        W89434  38.806  37.927  14.831
23004W        W89435  11.897  11.116   2.008
23005W        W89436  13.273   0.985   4.654
23006W        W89437   0.214  36.066  13.864
23007W        W89438  36.969  41.481  11.929
23008W        W89439  18.163  20.822  10.670
23009W        W89440  20.840  29.199   0.780
23010W        W89441  36.118  18.900   0.967
23011W        W89442  14.573  18.010   5.048
23012W        W89443  26.585  26.639  12.955
23013W        W89444  22.092  10.776   4.548
23014W        W89445  10.912  29.525   4.156
23015W        W89446   8.190  32.595  11.682
23016W        W89447  44.445   9.354  12.990
23017W        W89448   2.508  36.975   1.641
23018W        W89449  14.831  28.987  11.723
23019W        W89450  15.885  37.434  10.208
23020W        W89451  38.988  30.392   3.743
23021W        W89452  24.634  34.488   1.421
23022W        W89453   9.841  37.438  13.723
23023W        W89454  30.586   4.798  11.128
23024W        W89455   5.330  43.908   0.363
23025W        W89456   2.383   9.735   0.959
23026W        W89457  44.340  37.829   1.774
23027W        W89458  26.849   9.344   0.846
23028W        W89459  26.679   0.946  12.295
23029W        W89460  42.278  11.825   4.429
23030W        W89461  24.202  44.447  11.125
23031W        W89462  36.630  19.891   3.454
23032W        W89463   0.904   2.083  12.586
23033W        W89464  16.026  23.092  14.506
23034W        W89465  23.576  21.475  11.600
23035W        W89466  33.976  30.953  10.124
23036W        W89467   0.028  22.005  13.387
23037W        W89468   8.108   1.290   2.302
23038W        W89469  22.993   6.682  12.835
23039W        W89470   4.304  18.272   4.559
23040W        W89471   0.965  22.422  13.318
23041W        W89472  19.229  27.838  12.904
23042W        W89473  10.401  17.524   1.259
23043W        W89474  30.072  24.502  12.532
23044W        W89475  40.703   3.912  10.690
23045W        W89476  39.981  26.256   1.995
23046W        W89477  22.779   7.671  11.625
23047W        W89478  16.716  26.569   1.252
23048W        W89479   7.363  13.245  11.631
23049W        W89480  34.339  38.110   1.287
23050W        W89481  11.506   8.492  13.385
23051W        W89482   9.590  29.391  12.354
23052W        W89483  43.491  44.476   2.859
23053W        W89484  43.711  31.343   3.603
23054W        W89485  17.833  15.335   4.829
23055W        W89486   8.143  24.573   0.866
23056W        W89487   7.987  12.247  11.494
23057W        W89488  17.674   5.321   3.364
23058W        W89489   9.960  21.278  12.316
23059W        W89490  20.649  19.748  14.428
23060W        W89491   8.761  43.475   4.654
23061W        W89492   3.919  10.913  11.840
23062W        W89493  10.909  29.582  13.942
23063W        W89494   8.315  31.553   4.443
23064W        W89495  25.052  20.644  12.575
23065W        W89496  13.504  15.524  11.498
23066W        W89497  44.902  16.095   3.662
23067W        W89498  24.497   7.770  13.010
23068W        W89499  27.532  38.981   0.500
23069W        W89500  35.874  37.347  10.492
23070W        W89501  37.434  23.961  10.876
23071W        W89502  20.829  38.127   1.199
23072W        W89503  41.771  34.905  12.674
23073W        W89504   9.339  42.337  13.028
23074W        W89505  41.531  23.189   3.732
23075W        W89506   9.893  24.250  11.897
23076W        W89507   7.409  34.620   3.048
23077W        W89508  24.478   8.205   2.456
23078W        W89509  25.594  28.084   3.202
23079W        W89510   1.508  39.861  12.914
23080W        W89511  35.527  37.627   4.799
23081W        W89512  29.990  41.766  13.507
23082W        W89513   2.556  21.906   3.203
23083W        W89514  23.244  16.632   1.343
23084W        W89515   6.505  17.309   2.244
23085W        W89516   6.873  41.335  13.963
23086W        W89517  20.673  26.188  13.100
23087W        W89518   4.187  20.717   4.446
23088W        W89519  21.786  43.953  14.937
23089W        W89520  13.810   8.116   2.046
23090W        W89521  41.861  21.108   2.411
23091W        W89522  23.202  16.701  11.107
23092W        W89523   4.304  40.585   1.692
23093W        W89524   3.568  39.368   1.061
23094W        W89525  14.747   2.220   0.288
23095W        W89526   9.824  39.055   4.271
23096W        W89527  41.376  11.864  11.528
23097W        W89528  25.629  29.054  13.985
23098W        W89529  44.832  34.369  10.681
23099W        W89530   3.518   9.260  14.315
23100W        W89531   8.447  26.459  11.074
23101W        W89532  38.587  13.181   1.069
23102W        W89533  17.771  39.971   4.660
23103W        W89534  36.960   8.812  14.863
23104W        W89535  25.161  23.616  10.698
23105W        W89536  39.382  18.110  11.628
23106W        W89537  11.366  36.442   3.309
23107W        W89538  37.046   1.058   0.853
23108W        W89539   7.198   1.880  13.453
23109W        W89540   6.141  25.528   0.167
23110W        W89541   8.838  39.351   0.203
23111W        W89542  41.046  34.598  13.355
23112W        W89543  32.634  12.872  13.550
23113W        W89544  36.307  24.489  14.437
23114W        W89545   4.189   2.540  13.833
23115W        W89546   8.743  32.423  11.566
23116W        W89547  31.288   2.382   4.592
23117W        W89548  31.888  38.045   4.226
23118W        W89549  34.856  27.211  12.504
23119W        W89550  13.271   1.847  12.478
23120W        W89551   2.906   0.309   1.042
23121W        W89552  36.897  36.696  14.022
23122W        W89553  17.252   7.602  12.701
23123W        W89554  16.790  27.242   0.436
23124W        W89555  35.611  23.289   2.937
23125W        W89556  40.560  44.219  11.877
23126W        W89557  10.403  30.160   2.837
23127W        W89558  22.081  41.031   0.368
23128W        W89559  36.577  13.482  10.728
23129W        W89560  38.759   1.329  11.819
23130W        W89561  34.523  15.955  14.432
23131W        W89562   6.384  17.544   4.916
23132W        W89563  28.144  16.698  12.098
23133W        W89564   6.576  30.013   3.139
23134W        W89565  35.870   3.430   0.986
23135W        W89566  44.416   9.660   1.266
23136W        W89567  34.969  19.722  11.479
23137W        W89568  11.046  27.010   2.746
23138W        W89569  23.506   3.280   2.777
23139W        W89570   5.172  42.113   0.853
23140W        W89571  21.663  33.114  14.872
23141W        W89572  41.139  40.243  13.858
23142W        W89573  25.145  37.097  12.618
23143W        W89574  29.065  20.232  10.765
23144W        W89575  35.576   4.470  14.596
23145W        W89576  22.763  21.978  12.562
23146W        W89577   1.731  18.303  13.035
23147W        W89578  30.061   3.245  12.147
23148W        W89579   7.631  29.889  11.732
23149W        W89580  25.701  22.771   2.855
23150W        W89581   4.056   1.479  10.358
23151W        W89582  20.628  26.675   1.748
23152W        W89583   4.373  26.524  13.398
23153W        W89584  42.279  37.045  13.113
23154W        W89585  33.112  43.572   0.842
23155W        W89586   3.697  16.531  13.874
23156W        W89587  18.825  11.824   0.142
23157W        W89588   3.397   2.878  13.248
23158W        W89589  17.305  15.045  11.889
23159W        W89590  23.509  24.271  13.373
23160W        W89591  32.367  15.731   5.083
23161W        W89592   4.713  30.885   0.428
23162W        W89593   4.251  16.683   0.011
23163W        W89594  26.134  30.086   3.319
23164W        W89595  11.925  40.750  14.932
23165W        W89596  21.693  28.880  10.261
23166W        W89597  39.283  13.374   1.937
23167W        W89598  41.840   7.248   3.539
23168W        W89599   4.316  13.914  14.557
23169W        W89600  24.647   3.319  12.363
23170W        W89601  31.559  23.002   2.898
23171W        W89602  14.279   4.641   0.949
23172W        W89603   6.791  44.626   4.936
23173W        W89604  31.718  37.376  11.055
23174W        W89605  23.726  15.209   2.203
23175W        W89606  37.435  37.535  14.848
23176W        W89607  33.270  36.386  12.079
23177W        W89608   9.511   9.684  10.634
23178W        W89609  23.784  43.570  14.289
23179W        W89610  15.683  18.126  13.767
23180W        W89611  16.334   3.772  13.488
23181W        W89612  13.695   0.950  12.112
23182W        W89613   7.961  31.698   4.844
23183W        W89614  14.727  26.587   2.596
23184W        W89615  37.464   9.694  14.747
23185W        W89616  44.818  13.735   3.140
23186W        W89617  39.330   2.686   0.659
23187W        W89618  34.498  23.940   1.706
23188W        W89619  22.068  40.313  14.240
23189W        W89620  11.116   2.900   0.564
23190W        W89621  32.851  21.461  12.008
23191W        W89622  20.933   8.849  10.071
23192W        W89623  29.951  14.283  12.897
23193W        W89624  12.589   5.160  12.938
23194W        W89625   9.058  13.072  14.943
23195W        W89626  40.906  27.621   4.390
23196W        W89627  19.772  13.098  12.603
23197W        W89628  43.172  29.217   5.081
23198W        W89629  32.740  30.751   4.219
23199W        W89630  23.278  37.903  12.057
23200W        W89631   7.653   9.645  12.078
23201W        W89632  10.405  29.047   4.741
23202W        W89633  20.830   9.273  14.192
23203W        W89634   1.484   1.952  13.863
23204W        W89635  43.315  15.658  11.073
23205W        W89636  16.220   4.265   1.048
23206W        W89637  28.434  23.752   0.368
23207W        W89638  35.683  10.188   1.024
23208W        W89639  35.222  18.124   4.136
23209W        W89640  20.186  44.552   3.945
23210W        W89641  23.063  35.584   1.756
23211W        W89642  26.245   5.781  13.870
23212W        W89643  25.151   1.803  11.703
23213W        W89644  36.826  32.523   4.158
23214W        W89645   4.853  25.205  12.927
23215W        W89646  10.331  11.960   0.257
23216W        W89647  18.231  15.902   2.387
23217W        W89648  41.978  21.318   0.870
23218W        W89649  29.938   2.350   2.661
23219W        W89650  24.199   6.405  13.802
23220W        W89651  38.256  44.072  10.151
23221W        W89652  19.259  17.379  11.554
23222W        W89653  41.551  35.539  13.326
23223W        W89654   5.672  19.792   4.399
23224W        W89655  37.638  21.245   4.266
23225W        W89656  21.466  29.160   4.571
23226W        W89657   6.693  23.264   0.750
23227W        W89658  29.174  25.006   1.719
23228W        W89659  44.587  32.266  12.863
23229W        W89660  10.728  19.491   2.257
23230W        W89661  37.890  41.815   5.062
23231W        W89662  44.705  28.644  11.030
23232W        W89663  33.527  36.783   3.245
23233W        W89664  44.886  17.292  11.510
23234W        W89665  37.971  19.208  14.729
23235W        W89666  37.898  27.616   2.086
23236W        W89667  22.629  26.915   4.629
23237W        W89668  24.972   7.676   0.251
23238W        W89669   2.025  12.631  12.957
23239W        W89670  25.730  13.774  13.507
23240W        W89671  34.811  21.436  13.822
23241W        W89672  25.420  23.738  13.460
23242W        W89673  19.637  19.774  11.647
23243W        W89674  31.824  15.607  12.547
23244W        W89675  11.706  23.213  12.666
23245W        W89676   1.005  39.319   1.762
23246W        W89677  41.106  31.879  12.611
23247W        W89678  38.269  18.257   0.906
23248W        W89679   0.329  18.738  10.525
23249W        W89680  33.143   0.419  12.054
23250W        W89681  37.328  36.458   2.569
23251W        W89682   2.818  35.314   1.825
23252W        W89683  18.520  17.105   1.146
23253W        W89684  35.858  39.729   2.092
23254W        W89685  26.730  18.378  13.787
23255W        W89686   8.122  37.944   4.260
23256W        W89687  42.860  16.154   3.331
23257W        W89688  34.996  23.671   5.011
23258W        W89689  23.470   2.860   4.276
23259W        W89690   1.259  33.408   1.702
23260W        W89691  40.793  39.449  13.841
23261W        W89692  29.451  38.840   0.434
23262W        W89693   0.276  43.389  13.000
23263W        W89694   6.588  15.651   2.282
23264W        W89695  35.912  18.620   2.335
23265W        W89696  28.432  28.650   1.697
23266W        W89697   3.302  27.390  13.847
23267W        W89698  24.941  13.250   2.723
23268W        W89699  14.364  41.068  13.380
23269W        W89700   9.419  23.696  12.558
23270W        W89701  21.442  23.773   2.689
23271W        W89702  10.622  36.781  13.902
23272W        W89703  35.442  39.201   1.220
23273W        W89704   5.301  20.207  14.961
23274W        W89705   6.249  28.280   5.047
23275W        W89706  34.415  42.530   2.721
23276W        W89707   5.857  14.682  12.203
23277W        W89708  34.005  14.029   3.939
23278W        W89709  20.250  41.977  14.718
23279W        W89710  32.426  42.435   2.800
23280W        W89711  29.364  18.006  12.836
23281W        W89712  16.325   9.673  14.420
23282W        W89713  39.975   5.641   1.933
23283W        W89714  29.421  17.859   0.114
23284W        W89715  26.556  19.729  11.502
23285W        W89716  34.572  27.103  10.515
23286W        W89717   7.355  14.392  12.020
23287W        W89718  31.848  43.816   1.331
23288W        W89719  36.607  42.222  10.136
23289W        W89720  23.096  38.399  11.225
23290W        W89721  41.055  38.373  13.063
23291W        W89722  34.059   5.978  14.916
23292W        W89723   8.129  28.627  11.888
23293W        W89724  25.604  35.381   2.573
23294W        W89725  12.194   3.626   0.351
23295W        W89726   1.787  27.580   2.769
23296W        W89727  29.650  38.797   1.787
23297W        W89728  13.261   0.303  11.585
23298W        W89729   4.648  42.682  14.577
23299W        W89730  16.588  37.915   0.463
23300W        W89731  42.333   8.738   1.920
23301W        W89732  31.426  36.682  11.601
23302W        W89733  14.745   2.687   4.530
23303W        W89734  16.213  11.583  10.722
23304W        W89735   7.154  13.734  13.789
23305W        W89736  27.956  32.007  14.728
23306W        W89737  20.660  32.177   2.721
23307W        W89738   5.070  19.008  12.613
23308W        W89739  17.518   9.661  14.866
23309W        W89740  18.899  23.650  14.608
23310W        W89741  30.230   3.059   2.462
23311W        W89742  25.190  36.970  10.703
23312W        W89743  27.905  23.026   4.717
23313W        W89744  39.548  14.222   1.543
23314W        W89745  40.591  21.168   1.015
23315W        W89746  15.201  18.434   0.344
23316W        W89747  32.460  19.105   3.446
23317W        W89748  41.053  14.857  13.437
23318W        W89749  14.100  22.068   0.362
23319W        W89750  43.303  19.113   2.702
23320W        W89751  39.527  29.968   0.322
23321W        W89752  16.770  25.567  12.846
23322W        W89753  27.035  18.625   4.262
23323W        W89754  17.982  14.964   2.289
23324W        W89755  11.300  26.095   2.355
23325W        W89756  14.149  31.545  10.751
23326W        W89757  41.771  27.677  12.049
23327W        W89758  33.997  26.923   0.009
23328W        W89759  33.566  42.763   3.591
23329W        W89760  17.748  39.062  11.200
23330W        W89761  43.165  19.757   2.213
23331W        W89762  27.645  38.135   4.698
23332W        W89763  23.191  12.057  10.773
23333W        W89764  25.751   2.005  14.939
23334W        W89765  19.870  10.877  12.031
23335W        W89766  26.022  25.022  12.029
23336W        W89767  34.385   5.347   2.029
23337W        W89768   0.508  18.240  12.368
23338W        W89769  14.056  28.157   1.262
23339W        W89770  32.453  30.271   1.868
23340W        W89771  39.486   4.772  14.268
23341W        W89772   0.753  34.837   1.867
23342W        W89773  35.006  25.675  12.104
23343W        W89774  11.344  26.046  13.365
23344W        W89775   4.984   4.871  13.954
23345W        W89776  19.026  10.245   1.865
23346W        W89777   6.198   0.498  13.780
23347W        W89778  22.410  22.176   3.290
23348W        W89779  32.530  21.287  10.605
23349W        W89780  23.939  15.058  13.153
23350W        W89781  44.724   5.655  13.482
23351W        W89782   6.102  17.637   2.202
23352W        W89783  29.657   0.515   2.274
23353W        W89784  13.234  21.229  13.339
23354W        W89785  42.864  43.286   2.667
23355W        W89786  14.561  31.140   4.384
23356W        W89787  39.320  35.154  11.629
23357W        W89788  20.695  15.379  11.145
23358W        W89789  26.651  19.931   0.314
23359W        W89790  27.003  42.543  11.252
23360W        W89791  25.459  29.074  12.433
23361W        W89792  21.002  34.666   3.393
23362W        W89793  17.312  39.536  14.032
23363W        W89794  41.639  30.862  13.699
23364W        W89795  22.150  28.210  12.664
23365W        W89796  10.200  29.189  11.020
23366W        W89797  13.403  30.690   0.315
23367W        W89798  15.645  18.328   2.334
23368W        W89799   3.587  21.122  14.048
23369W        W89800   4.849  15.667   3.133
23370W        W89801  32.184  32.997   1.134
23371W        W89802  16.600  24.772  11.257
23372W        W89803  39.823  37.508   4.596
23373W        W89804   6.801  32.497   3.894
23374W        W89805  16.136  14.742   1.790
23375W        W89806  14.230  16.556   1.907
23376W        W89807   0.856  37.449  10.666
23377W        W89808  26.947  18.833  12.111
23378W        W89809  20.451  43.507  13.861
23379W        W89810  10.556  21.676   4.641
23380W        W89811  42.379  25.169  14.770
23381W        W89812  35.074  44.862  14.745
23382W        W89813  22.477   1.658  14.119
23383W        W89814  22.272  36.870   3.686
23384W        W89815  40.861  41.475  10.938
23385W        W89816  36.894  22.103  12.460
23386W        W89817  35.424   5.840   0.316
23387W        W89818  37.275  25.677   4.091
23388W        W89819  22.727  41.350   2.750
23389W        W89820  19.859  23.953  10.811
23390W        W89821   5.780  43.346   0.737
23391W        W89822  35.488  39.323   2.816
23392W        W89823  24.691  44.906   2.214
23393W        W89824  16.552  44.424   2.363
23394W        W89825  19.255  31.490   4.794
23395W        W89826  14.184  22.589   1.229
23396W        W89827  15.493  25.591  14.429
23397W        W89828  25.916  13.255  13.431
23398W        W89829  17.978   3.917   3.926
23399W        W89830  42.057  33.553  13.342
23400W        W89831  34.189  15.810   1.824
23401W        W89832  21.138  11.448   3.183
23402W        W89833  13.248  43.776   0.809
23403W        W89834  32.786   1.279   4.667
23404W        W89835   1.258  15.097   1.210
23405W        W89836  13.090  31.014  13.082
23406W        W89837  25.517  28.973  12.948
23407W        W89838  26.761  25.539  12.070
23408W        W89839  29.732   1.281  14.033
23409W        W89840  36.558   4.211   2.266
23410W        W89841  39.326   8.710  12.594
23411W        W89842   0.558  21.712   1.470
23412W        W89843  37.603  10.915   0.380
23413W        W89844  41.482  21.568  10.727
23414W        W89845  12.985  37.453  12.956
23415W        W89846  23.722  29.798  14.333
23416W        W89847  36.468  35.123  11.640
23417W        W89848  14.640  27.706   4.789
23418W        W89849  11.682   4.716   3.132
23419W        W89850  40.834  39.919  14.126
23420W        W89851   6.344  44.816   1.432
23421W        W89852  40.312  31.821  14.300
23422W        W89853  26.163  29.494  11.305
23423W        W89854  19.644  39.201  14.574
23424W        W89855  13.986   4.160  13.385
23425W        W89856  29.515   3.716   5.134
23426W        W89857   5.383   8.408  14.804
23427W        W89858  34.098  39.477   1.380
23428W        W89859  25.290  42.885  12.063
23429W        W89860   9.467   3.339  11.537
23430W        W89861  15.562  41.917  14.833
23431W        W89862  34.078  29.862  14.459
23432W        W89863  43.299  14.863  10.428
23433W        W89864   1.716  37.383   4.341
23434W        W89865  36.807  42.972   2.636
23435W        W89866  42.393   0.347  14.708
23436W        W89867   4.665  28.081  12.398
23437W        W89868  27.475   1.084   3.687
23438W        W89869  43.548  24.645   2.183
23439W        W89870   9.790  15.552  11.168
23440W        W89871  22.674  11.166   1.173
23441W        W89872   3.687  36.645   3.664
23442W        W89873   2.251  13.622  14.004
23443W        W89874  44.548  32.404   1.399
23444W        W89875   1.690  12.871  12.660
23445W        W89876  31.589   3.148   0.927
23446W        W89877  31.576   0.810  14.814
23447W        W89878  37.455  43.528  12.211
23448W        W89879  31.042  10.440   4.180
23449W        W89880  15.009  19.827   2.392
23450W        W89881  23.520  36.664   1.390
23451W        W89882  36.801  41.413  10.941
23452W        W89883  26.116  34.142  13.039
23453W        W89884  39.851  36.321  14.981
23454W        W89885  43.118  36.214   2.931
23455W        W89886  13.787  16.732   2.076
23456W        W89887  30.753   9.315   2.721
23457W        W89888  18.606  32.773  13.073
23458W        W89889  21.814  42.313  10.982
23459W        W89890   3.952   9.044   3.696
23460W        W89891  11.053  22.186   2.884
23461W        W89892  29.517  39.937  14.224
23462W        W89893  31.593  40.412  11.637
23463W        W89894  38.079  41.997  12.471
23464W        W89895  27.410  17.575  12.870
23465W        W89896  13.774  34.019  12.098
23466W        W89897  31.586  41.172  12.093
23467W        W89898   1.907  12.199   4.376
23468W        W89899   8.049  44.054  11.978
23469W        W89900  21.875  43.987   4.954
23470W        W89901  11.434  22.008   3.819
23471W        W89902  15.248  41.617   1.409
23472W        W89903  39.078   9.130   3.204
23473W        W89904  16.453  33.556  12.079
23474W        W89905   3.706  29.211   3.183
23475W        W89906   0.411  18.270   2.521
23476W        W89907   7.613   1.826   2.647
23477W        W89908  33.947  31.436  10.350
23478W        W89909  40.967   6.304  12.402
23479W        W89910   0.327  43.523  13.498
23480W        W89911  36.061  34.842   3.666
23481W        W89912  17.170  40.602  12.694
23482W        W89913  22.076  20.605   1.299
23483W        W89914   8.314  26.657  12.210
23484W        W89915  42.175   9.373   2.789
23485W        W89916  37.638  17.147   3.505
23486W        W89917   9.302  36.984  13.098
23487W        W89918  38.312  41.008  11.561
23488W        W89919   1.884  33.429  10.933
23489W        W89920  26.863  17.722   3.174
23490W        W89921  16.288   1.827  14.517
23491W        W89922  34.973   1.392   4.248
23492W        W89923   4.358  12.481  14.996
23493W        W89924  34.117   6.552  13.541
23494W        W89925  11.146  39.413   1.782
23495W        W89926  41.872  25.735  11.131
23496W        W89927   4.962  21.998  11.517
23497W        W89928   4.916  36.918   2.864
23498W        W89929  18.121  41.656   0.007
23499W        W89930   1.332  16.796   2.445
23500W        W89931   8.656  26.896  11.948
23501W        W89932   9.763   2.882  11.478
23502W        W89933   1.462   1.873  14.863
23503W        W89934  34.281  14.040   1.957
23504W        W89935  38.920  24.208   3.843
23505W        W89936   8.716  41.574   4.811
23506W        W89937   0.852  39.214  10.786
23507W        W89938  33.091  41.454  12.348
23508W        W89939  10.764  38.299  13.892
23509W        W89940  39.388  38.523  14.348
23510W        W89941   2.448  40.008  11.629
23511W        W89942  32.690  23.217   4.748
23512W        W89943  39.782  31.452   0.217
23513W        W89944  14.865  41.008  11.929
23514W        W89945  37.020  19.257  14.948
23515W        W89946   9.757   9.898  12.545
23516W        W89947  15.589   5.457   4.546
23517W        W89948  18.077  22.526  14.040
23518W        W89949  27.222  32.515   2.860
23519W        W89950  22.006  13.435  14.034
23520W        W89951   2.665  40.529  12.511
23521W        W89952  16.026   9.682  13.984
23522W        W89953  19.477  30.881   0.839
23523W        W89954  18.900   3.504  11.903
23524W        W89955  15.055  15.101   2.384
23525W        W89956   1.206  23.222  14.744
23526W        W89957  27.052  14.719  11.616
23527W        W89958  25.970  38.521   4.282
23528W        W89959  18.020   5.302   2.417
23529W        W89960  15.211  21.143  12.051
23530W        W89961  44.008   2.554  11.305
23531W        W89962   6.831  41.865  12.429
23532W        W89963  39.361  17.140   0.387
23533W        W89964   8.568  28.126   3.283
23534W        W89965  20.753  21.789  11.018
23535W        W89966  30.376  34.350   2.193
23536W        W89967  15.481  27.952  11.948
23537W        W89968  34.515  37.330  10.204
23538W        W89969  43.574  33.890  10.502
23539W        W89970   1.857  26.518  12.852
23540W        W89971   2.086   4.266  12.447
23541W        W89972  35.044  40.861   0.366
23542W        W89973  29.056  36.281   4.515
23543W        W89974  33.437  19.977   0.321
23544W        W89975  14.004  24.050   1.461
23545W        W89976  25.099  40.572  14.447
23546W        W89977  32.096  15.583  14.884
23547W        W89978  25.764  28.086   4.149
23548W        W89979   7.237  28.734  11.928
23549W        W89980   3.791  12.515  13.428
23550W        W89981  37.041  18.581  11.530
23551W        W89982  17.335  27.545  10.212
23552W        W89983   9.103  36.096   3.144
23553W        W89984  14.265   3.072   5.156
23554W        W89985   4.464  17.383  11.177
23555W        W89986  16.412  44.172  11.096
23556W        W89987   1.707  43.230   0.882
23557W        W89988  19.256  21.002  14.894
23558W        W89989  34.977  40.395  13.578
23559W        W89990  20.223  29.070  10.230
23560W        W89991  26.121  23.951   0.403
23561W        W89992  34.380  42.683  13.375
23562W        W89993  18.095  36.242  10.698
23563W        W89994   2.923  31.949   1.853
23564W        W89995  31.010  34.982  13.489
23565W        W89996  12.008  13.876  14.371
23566W        W89997   4.482  43.957  13.316
23567W        W89998  10.402  13.393   0.248
23568W        W89999  26.207   0.794  10.672
23569W        W90000  17.722  37.076   3.271
23570W        W90001  10.443  44.978  14.397
23571W        W90002  29.857  33.833  12.445
23572W        W90003  30.998  11.506  14.828
23573W        W90004  40.311  42.872  12.021
23574W        W90005   3.460   6.422   3.256
23575W        W90006  10.684  15.220  13.938
23576W        W90007  21.154  37.441   4.014
23577W        W90008   8.577  19.300   4.050
23578W        W90009  31.453  44.981  14.478
23579W        W90010  18.568   7.467   2.252
23580W        W90011  36.371  14.321  11.641
23581W        W90012  24.732  21.734  10.780
23582W        W90013  15.118  35.846   3.859
23583W        W90014  19.621  26.815   4.120
23584W        W90015  27.598   1.349  14.038
23585W        W90016   6.690  32.474   2.036
23586W        W90017  44.551   2.988   4.982
23587W        W90018  35.150   0.848   1.671
23588W        W90019   3.912  21.410   0.760
23589W        W90020   3.001   0.410   2.813
23590W        W90021  32.984  21.024  11.375
23591W        W90022   1.948  16.202   0.243
23592W        W90023   9.229  41.478   2.211
23593W        W90024  30.262  23.533   0.749
23594W        W90025   2.943  12.756  11.157
23595W        W90026  34.148  42.875   5.071
23596W        W90027  36.534  10.916   0.979
23597W        W90028   9.090  33.841   1.385
23598W        W90029  38.101   0.123  11.161
23599W        W90030  28.862   2.547  11.751
23600W        W90031  21.308  12.872  12.038
23601W        W90032  33.369   6.855   3.921
23602W        W90033  33.916   1.199  14.456
23603W        W90034  23.948  41.046  14.464
23604W        W90035   8.271  42.332  11.590
23605W        W90036  33.055  25.517  14.367
23606W        W90037  23.855   8.715  10.615
23607W        W90038  29.444  30.656   2.793
23608W        W90039   1.733   0.844  12.421
23609W        W90040  40.615  44.092  13.204
23610W        W90041  25.918  20.238  12.470
23611W        W90042  44.022  17.855   0.995
23612W        W90043  13.589  21.527  11.520
23613W        W90044  40.837  33.846   0.875
23614W        W90045   0.991  21.159   2.129
23615W        W90046  27.141  23.533   1.887
23616W        W90047  38.919  31.973  11.963
23617W        W90048  20.754  39.401  14.881
23618W        W90049  11.119  37.526  13.859
23619W        W90050  27.226  18.495   3.788
23620W        W90051  35.096  29.666  11.126
23621W        W90052  39.579  14.630   0.961
23622W        W90053  10.531  27.464  10.934
23623W        W90054  18.457   7.049   9.891
23624W        W90055  27.086  10.932  11.205
23625W        W90056  41.850   5.878  13.164
23626W        W90057  25.452  34.006  13.906
23627W        W90058  21.199  29.958   1.079
23628W        W90059  43.400  32.045   2.655
23629W        W90060   0.070  42.169  13.693
23630W        W90061  12.548   9.797  12.889
23631W        W90062  18.694  23.150   1.219
23632W        W90063  31.673  26.509  13.004
23633W        W90064   8.790  21.292   4.145
23634W        W90065  37.122  29.318  12.334
23635W        W90066  41.987   8.859   0.708
23636W        W90067  23.519   4.166  11.015
23637W        W90068  23.113  24.026   2.437
23638W        W90069  13.682  39.251  13.696
23639W        W90070  36.318  14.459   4.586
23640W        W90071   4.898  36.367   0.722
23641W        W90072  35.788   3.870  12.000
23642W        W90073  42.425  15.862  12.793
23643W        W90074   2.815  21.424  13.889
23644W        W90075  19.552   5.736  10.573
23645W        W90076  40.289  39.446  12.046
23646W        W90077  44.277  23.695  10.713
23647W        W90078   6.790  40.335  13.865
23648W        W90079  42.246   7.006   2.772
23649W        W90080  22.016  24.162   3.896
23650W        W90081  26.157  12.206  12.911
23651W        W90082  22.708  26.952   1.385
23652W        W90083   6.247  28.549  10.908
23653W        W90084  15.154   2.636  10.615
23654W        W90085   4.890  32.682   0.232
23655W        W90086  24.653  10.278   4.528
23656W        W90087  22.007   2.580  14.959
23657W        W90088  35.067  37.482  11.093
23658W        W90089  21.235  26.654   2.518
23659W        W90090  43.864  41.079  13.779
23660W        W90091  39.315   8.327   2.677
23661W        W90092  29.504   8.089   1.465
23662W        W90093  27.677  12.391  14.227
23663W        W90094   8.614   7.263  12.069
23664W        W90095   7.430   5.273  14.985
23665W        W90096  10.204   3.938  11.434
23666W        W90097  34.061  19.239  13.856
23667W        W90098  26.351  19.977   4.895
23668W        W90099  11.092  17.786   1.611
23669W        W90100  40.179   5.658  11.635
23670W        W90101  41.041  35.519  13.398
23671W        W90102  32.692  10.846   3.753
23672W        W90103  36.993  26.373   0.840
23673W        W90104  40.787  20.201   3.799
23674W        W90105  27.277  43.529  12.980
23675W        W90106   2.239  17.244   5.022
23676W        W90107  29.170  43.902  13.436
23677W        W90108  32.427  34.138  14.244
23678W        W90109  21.483  19.935   4.994
23679W        W90110   8.635  22.144   0.347
23680W        W90111  12.394   0.283  11.994
23681W        W90112   4.003  41.367   4.143
23682W        W90113  13.669  19.046   0.787
23683W        W90114  34.201  31.301   5.287
23684W        W90115  20.546  40.921   1.286
23685W        W90116  10.004  28.756   0.521
23686W        W90117   3.916  26.953  14.328
23687W        W90118  32.640  36.040  13.952
23688W        W90119  12.786   6.688   4.787
23689W        W90120  16.768  25.917   0.643
23690W        W90121  29.068   4.290   2.487
23691W        W90122  12.317  42.718   4.558
23692W        W90123   0.905  20.549   3.115
23693W        W90124  33.787  39.498  10.157
23694W        W90125  26.089   0.805   0.485
23695W        W90126  29.525  24.452   4.007
23696W        W90127  12.385  37.614  12.079
23697W        W90128  17.755  31.028  14.883
23698W        W90129   5.258   3.662   4.477
23699W        W90130   7.366  20.161  13.305
23700W        W90131  35.967  36.621   2.409
23701W        W90132   7.648   4.244  14.431
23702W        W90133  30.925   0.761  14.975
23703W        W90134  21.744  16.609  11.281
23704W        W90135  29.589  36.308   4.546
23705W        W90136  34.986  33.393  12.462
23706W        W90137  29.247  16.678   0.281
23707W        W90138  12.090  38.821  14.414
23708W        W90139  27.974  32.836   1.395
23709W        W90140  17.607  26.930  11.736
23710W        W90141  41.726  24.218  14.330
23711W        W90142   5.374  44.960   0.445
23712W        W90143   6.537  26.486   1.039
23713W        W90144  40.925  33.495   2.557
23714W        W90145  21.451  18.216   1.947
23715W        W90146   5.509  14.346   2.886
23716W        W90147   9.489  11.187  13.948
23717W        W90148  13.705  20.496   1.941
23718W        W90149   3.798   5.027  13.107
23719W        W90150  19.340  21.610   1.876
23720W        W90151   3.259   2.922  14.251
23721W        W90152  23.090  36.078  11.118
23722W        W90153   0.938  28.803   0.889
23723W        W90154  43.949   7.179   1.658
23724W        W90155  43.735  11.408   3.772
23725W        W90156  32.894  43.256  11.666
23726W        W90157  21.647  38.351  10.161
23727W        W90158  33.662  16.149   4.660
23728W        W90159  27.161  39.580  11.727
23729W        W90160  12.781  16.612  11.780
23730W        W90161  26.002   6.898  13.640
23731W        W90162   2.282  42.616  13.142
23732W        W90163  36.535  14.243   0.271
23733W        W90164  36.434  23.727  11.734
23734W        W90165   5.357  14.780  10.699
23735W        W90166  29.994  33.554   3.272
23736W        W90167  34.161  10.311   4.044
23737W        W90168  11.036  39.800   3.111
23738W        W90169   0.270   2.890  14.372
23739W        W90170  12.755  31.437  12.123
23740W        W90171  19.178   0.954   1.326
23741W        W90172  35.074  42.163   1.368
23742W        W90173   6.268  37.782  10.903
23743W        W90174  25.289   2.717  14.399
23744W        W90175  15.056  28.090   0.008
23745W        W90176  16.056  27.333   1.690
23746W        W90177  34.620  36.239  11.084
23747W        W90178  26.459  20.126   2.245
23748W        W90179  43.258   0.348  12.330
23749W        W90180  19.955  22.206   4.295
23750W        W90181  25.679  22.618  12.559
23751W        W90182  33.575  40.727  11.241
23752W        W90183  37.979  19.558  11.502
23753W        W90184  39.588  29.528  14.345
23754W        W90185  35.448  21.073  14.853
23755W        W90186  13.853  28.302  10.727
23756W        W90187  29.052  28.733   0.107
23757W        W90188  41.384  36.328  12.557
23758W        W90189  16.284  25.834   4.097
23759W        W90190  26.083  25.741  12.475
23760W        W90191  26.028  14.249  14.417
23761W        W90192  23.196  41.909  13.075
23762W        W90193  42.330  16.640   2.851
23763W        W90194   8.738  32.685  14.059
23764W        W90195  34.152  38.358  11.538
23765W        W90196  34.970  17.750   1.293
23766W        W90197  23.857   6.232  12.490
23767W        W90198  29.200  31.199  11.559
23768W        W90199  35.606  35.940  13.907
23769W        W90200   1.535  42.486  12.497
23770W        W90201  35.826  14.474   0.720
23771W        W90202  23.858   2.468  11.702
23772W        W90203  15.827  24.624  14.055
23773W        W90204  39.065  21.576   0.469
23774W        W90205  44.817  41.279  10.332
23775W        W90206  39.984  27.736  13.382
23776W        W90207  43.795  12.235  14.405
23777W        W90208  32.441   3.169  12.962
23778W        W90209  13.618  11.506  11.832
23779W        W90210  25.439  29.714   1.924
23780W        W90211   3.399   4.842  11.943
23781W        W90212  27.539   4.220  10.304
23782W        W90213  34.979   3.371  14.412
23783W        W90214  28.569  28.893  14.407
23784W        W90215  38.119  27.207   2.348
23785W        W90216  42.397   8.832  14.301
23786W        W90217   4.163  41.266  11.141
23787W        W90218  11.665   6.941   1.631
23788W        W90219  25.117  15.219  10.931
23789W        W90220  34.840  37.358   1.164
23790W        W90221  43.877  21.290  13.520
23791W        W90222  20.324  38.407  11.552
23792W        W90223  19.618  36.610   2.739
23793W        W90224  14.173  16.143  12.259
23794W        W90225  14.716  28.715  12.463
23795W        W90226  17.586   7.820  10.747
23796W        W90227  38.356   4.209   4.823
23797W        W90228   5.297   9.948  13.359
23798W        W90229  43.742  36.028   1.907
23799W        W90230  43.336  11.889   4.469
23800W        W90231  33.556  18.054   1.236
23801W        W90232  14.641   2.634   2.539
23802W        W90233   8.667   4.892  14.070
23803W        W90234  17.102  35.459  11.775
23804W        W90235  41.961  12.135   1.050
23805W        W90236  20.675   4.780   2.342
23806W        W90237   4.109  18.070  13.629
23807W        W90238  32.061  22.356   1.494
23808W        W90239  18.365  26.603   4.735
23809W        W90240  40.609  31.851  11.620
23810W        W90241  15.022  25.019   3.827
23811W        W90242  21.168  35.636  12.946
23812W        W90243  16.569  33.970   0.630
23813W        W90244  26.068  43.724  11.461
23814W        W90245  28.969  43.980   2.969
23815W        W90246  41.450  34.458  14.309
23816W        W90247  35.760  43.902   1.643
23817W        W90248   9.164  14.825  13.960
23818W        W90249   3.853  21.564  13.991
23819W        W90250  37.162  25.005  13.005
23820W        W90251   1.461  17.517   4.666
23821W        W90252  12.593  32.384  14.608
23822W        W90253  23.341   9.537   3.993
23823W        W90254  26.189   5.279  13.594
23824W        W90255  42.342  10.373   4.188
23825W        W90256  26.510  38.010   1.946
23826W        W90257  22.704   2.729   0.220
23827W        W90258  33.971  12.718  13.959
23828W        W90259   9.233  20.120   4.404
23829W        W90260   4.230  14.511   0.949
23830W        W90261  23.734  22.534  11.589
23831W        W90262  11.871  39.593  11.828
23832W        W90263  34.461   4.652   2.733
23833W        W90264  31.399  19.716   1.822
23834W        W90265  43.680  38.022  11.180
23835W        W90266   7.070  36.340  14.521
23836W        W90267   4.000   4.924   1.746
23837W        W90268  36.364  41.010  14.792
23838W        W90269  30.758   0.854   2.974
23839W        W90270   7.383  28.893   2.679
23840W        W90271  32.957  44.306  13.999
23841W        W90272   9.399  13.180   0.871
23842W        W90273  10.895   3.842  10.760
23843W        W90274  10.477  26.545  10.264
23844W        W90275  43.009  38.502  11.156
23845W        W90276  43.761  35.155   2.213
23846W        W90277  14.665  37.569  11.064
23847W        W90278   1.945   8.743  11.920
23848W        W90279   0.233  40.103  11.878
23849W        W90280  15.647  10.268   3.441
23850W        W90281   6.288   1.682   2.939
23851W        W90282   1.538  42.838  12.921
23852W        W90283   0.537  33.059   1.659
23853W        W90284   1.513   9.085   0.022
23854W        W90285  14.109  39.026  14.528
23855W        W90286  29.479  23.671   0.339
23856W        W90287   5.373  36.609   0.756
23857W        W90288  39.584  19.355  14.834
23858W        W90289   6.654   3.649  13.526
23859W        W90290  36.617  14.143  14.285
23860W        W90291  31.341  40.549  13.690
23861W        W90292  14.802  30.396   2.690
23862W        W90293  21.183   7.513  13.956
23863W        W90294  26.039  13.173   4.884
23864W        W90295  30.868  16.724  10.539
23865W        W90296  37.465   3.844   2.328
23866W        W90297  20.513  11.886   0.752
23867W        W90298  41.576  21.214  14.042
23868W        W90299  44.822  33.205  13.041
23869W        W90300  41.772  12.560  14.029
23870W        W90301   5.622  19.351  11.246
23871W        W90302  32.679  28.924   2.826
23872W        W90303   3.854  13.635  14.572
23873W        W90304  20.782  26.457   1.277
23874W        W90305   8.663  25.048  10.728
23875W        W90306  31.665   1.339   4.001
23876W        W90307  20.898   9.328  11.621
23877W        W90308   2.444   2.320  14.964
23878W        W90309  12.415  32.555   1.865
23879W        W90310  27.703  18.861  11.387
23880W        W90311  13.841  16.162   4.071
23881W        W90312  10.185  44.507  14.680
23882W        W90313  38.845  32.601   4.602
23883W        W90314  37.362  25.182  10.622
23884W        W90315  21.501  29.658   3.767
23885W        W90316  30.544  39.339   0.698
23886W        W90317  33.801  25.653  14.029
23887W        W90318   1.765  18.109   1.098
23888W        W90319  25.107  34.196  12.230
23889W        W90320  44.618  13.242   2.864
23890W        W90321  15.860   1.046  10.312
23891W        W90322  16.883   9.917   4.530
23892W        W90323  26.545   8.773  14.936
23893W        W90324  31.456  41.945  14.825
23894W        W90325  13.112  12.889   1.223
23895W        W90326   8.805  19.511  11.103
23896W        W90327   0.505  39.531   3.291
23897W        W90328  32.555  35.857  14.903
23898W        W90329   2.939  18.941   2.360
23899W        W90330  38.980  24.128  14.350
23900W        W90331  39.317  23.025  13.032
23901W        W90332   4.327  16.193  14.704
23902W        W90333  42.877  31.098   1.047
23903W        W90334  33.590   9.024  10.647
23904W        W90335   5.956  16.737   2.636
23905W        W90336  35.877  26.757   3.249
23906W        W90337  32.565   5.631   2.284
23907W        W90338  19.138  18.959  14.463
23908W        W90339  22.583   9.073  11.083
23909W        W90340   0.830  15.842  13.024
23910W        W90341   9.336  41.328   1.240
23911W        W90342  43.968  15.172   3.684
23912W        W90343  25.911  28.675  11.219
23913W        W90344   6.931  42.793   1.956
23914W        W90345   1.545  30.420   2.712
23915W        W90346  30.561  19.639   1.409
23916W        W90347  37.354  23.171   0.891
23917W        W90348   6.719  23.162   2.681
23918W        W90349   6.090  11.095  11.212
23919W        W90350  39.049  37.699   2.604
23920W        W90351   0.710  32.363   0.917
23921W        W90352  36.311  22.241   1.944
23922W        W90353  13.696   6.752  11.194
23923W        W90354   7.901  28.908  12.887
23924W        W90355   9.231  28.698   4.305
23925W        W90356  42.534  22.567   2.082
23926W        W90357  17.963   4.762  13.558
23927W        W90358  36.167  20.060   1.170
23928W        W90359  43.832  28.612   1.821
23929W        W90360  33.146   8.668   5.021
23930W        W90361  28.460  28.416  11.455
23931W        W90362  35.840   9.718   0.312
23932W        W90363  19.993  22.978  12.957
23933W        W90364  30.891  37.535  10.615
23934W        W90365  44.697  30.547   0.019
23935W        W90366  25.024  34.047   0.720
23936W        W90367  35.602  36.886  14.874
23937W        W90368  43.108  43.958   4.240
23938W        W90369  25.501  14.256  14.802
23939W        W90370   5.310   7.628   0.350
23940W        W90371   5.696  17.725  13.982
23941W        W90372  11.148  35.491  11.730
23942W        W90373  40.311  26.611  10.258
23943W        W90374  38.916   5.480   1.243
23944W        W90375  23.791  37.954   4.800
23945W        W90376  43.945   3.944   0.797
23946W        W90377  21.278   6.673  12.211
23947W        W90378  11.871  29.420  11.990
23948W        W90379   9.425  12.273  11.716
23949W        W90380  37.999  11.861  12.866
23950W        W90381   4.971  21.503  14.800
23951W        W90382  12.697  22.262  10.809
23952W        W90383  33.370  40.009  14.562
23953W        W90384  29.831   8.754  13.665
23954W        W90385  24.133  43.025   0.611
23955W        W90386   2.903  19.808   2.464
23956W        W90387   1.460  33.497  13.454
23957W        W90388   8.782   9.217  12.872
23958W        W90389   7.936  29.126   0.886
23959W        W90390  38.605  12.446  11.160
23960W        W90391   2.684  20.594  13.270
23961W        W90392  37.537   5.906  11.609
23962W        W90393  20.080  36.943  10.683
23963W        W90394  42.036  26.050   2.773
23964W        W90395  29.903  24.798  13.825
23965W        W90396  12.674  40.265  11.589
23966W        W90397   6.818  28.480   4.863
23967W        W90398  31.527  26.506  11.981
23968W        W90399  42.839  43.207  14.269
23969W        W90400   9.203   9.905   4.049
23970W        W90401  23.685  10.368   2.247
23971W        W90402  43.395   7.944  12.920
23972W        W90403   5.712  35.871   3.332
23973W        W90404  24.993   3.506   4.620
23974W        W90405   6.672   0.799   2.682
23975W        W90406  36.451  28.151   0.622
23976W        W90407  19.543  28.236  11.534
23977W        W90408  11.605  13.258   4.144
23978W        W90409  12.258  20.047   0.880
23979W        W90410  36.375  42.839  11.877
23980W        W90411   1.769  37.936  14.356
23981W        W90412   8.208  21.325   0.876
23982W        W90413   8.740   7.324  14.314
23983W        W90414  10.834  25.860   4.662
23984W        W90415  11.080  42.921  12.832
23985W        W90416  26.044  12.630   3.701
23986W        W90417  25.521  21.601   3.350
23987W        W90418  39.408  44.521  12.454
23988W        W90419  24.485   6.880   2.403
23989W        W90420  34.370  31.632  11.933
23990W        W90421  19.784   4.888   3.987
23991W        W90422  19.283  17.176  14.789
23992W        W90423  25.021   3.302  11.472
23993W        W90424   3.464   9.163  14.836
23994W        W90425  23.429  33.909   9.939
23995W        W90426  36.522  16.826   4.140
23996W        W90427   5.990  35.526   4.607
23997W        W90428  42.817   1.190   1.210
23998W        W90429   6.712  40.487   3.207
23999W        W90430   5.167  15.289  11.965
24000W        W90431  30.046   3.350  14.507
24001W        W90432  35.818  13.304  10.610
24002W        W90433  29.169   8.891   4.528
24003W        W90434   1.259  17.985   4.510
24004W        W90435  10.480  22.149  11.182
24005W        W90436   5.591  43.805  10.577
24006W        W90437  13.166  28.649   0.721
24007W        W90438  40.845  27.977   2.709
24008W        W90439  10.759  42.298  12.036
24009W        W90440   4.322  43.389  14.039
24010W        W90441  18.535  29.345  11.125
24011W        W90442  19.603  21.793   1.025
24012W        W90443   2.602  41.301   2.636
24013W        W90444   3.979  43.064   2.671
24014W        W90445  13.872  43.379   3.625
24015W        W90446  16.543  11.619   5.604
24016W        W90447   2.494  43.009   0.000
24017W        W90448  29.666  43.251  11.473
24018W        W90449   0.840  18.266   4.592
24019W        W90450   6.213  38.543  13.109
24020W        W90451   3.446   4.732   3.889
24021W        W90452  37.070  37.864   1.423
24022W        W90453  18.963  30.970  12.485
24023W        W90454  37.380   7.681  11.083
24024W        W90455  43.034  38.089  14.522
24025W        W90456   9.790  42.963  12.634
24026W        W90457  22.983  29.475   1.308
24027W        W90458  43.850  10.506   1.900
24028W        W90459   8.155  26.058  13.879
24029W        W90460  12.341  11.604  13.369
24030W        W90461  16.576  30.893  13.067
24031W        W90462  27.583   4.238  13.006
24032W        W90463  29.585  39.650   0.942
24033W        W90464  19.452  21.686  10.689
24034W        W90465  12.271  13.857  10.612
24035W        W90466  25.484  43.369  12.022
24036W        W90467  37.866  37.750   1.716
24037W        W90468  32.487   9.926   3.758
24038W        W90469  19.291   7.163  11.554
24039W        W90470  16.852  37.095   2.928
24040W        W90471   0.802  24.677   0.389
24041W        W90472  12.191  19.783   1.339
24042W        W90473  10.190  24.006  14.026
24043W        W90474  39.936  44.847   3.366
24044W        W90475   2.462  12.668   2.916
24045W        W90476   8.206   1.241   0.012
24046W        W90477  39.130  32.793   0.772
24047W        W90478  23.705  29.209  14.963
24048W        W90479  12.956  10.767  12.519
24049W        W90480   2.821  15.653  14.306
24050W        W90481  33.489  34.471  11.113
24051W        W90482  20.272  32.232  13.429
24052W        W90483  10.821   5.227   0.334
24053W        W90484  23.741  15.776   3.648
24054W        W90485  39.507  39.819   3.652
24055W        W90486  16.259  30.479   0.758
24056W        W90487   9.848  26.049   2.580
24057W        W90488  34.763  11.327  12.884
24058W        W90489  33.189  16.228  13.993
24059W        W90490  38.088  26.089  11.243
24060W        W90491  16.597  44.967  12.414
24061W        W90492  15.207  13.275   3.644
24062W        W90493   0.513   6.415  14.822
24063W        W90494  22.567   7.988   3.262
24064W        W90495  16.073  35.475  11.956
24065W        W90496   0.709  22.167  12.076
24066W        W90497  28.674  23.749  11.538
24067W        W90498  36.921  25.998  13.419
24068W        W90499  37.952   8.609   4.131
24069W        W90500   0.718  41.797  11.975
24070W        W90501   4.190  32.535  13.887
24071W        W90502  31.894  19.292   0.788
24072W        W90503  27.262  40.155   2.398
24073W        W90504  41.451  44.922  12.834
24074W        W90505   9.225   6.158  14.035
24075W        W90506  41.740  43.670   0.975
24076W        W90507  22.761  37.571   0.912
24077W        W90508   7.763  15.879   0.333
24078W        W90509  26.614   2.352   3.153
24079W        W90510  11.298   0.973  13.874
24080W        W90511  15.390  17.616   5.509
24081W        W90512  15.326   4.872   2.750
24082W        W90513  28.927  31.633  14.331
24083W        W90514  18.762   8.947   2.454
24084W        W90515  27.650  28.636   0.636
24085W        W90516  23.175   8.419   2.246
24086W        W90517  39.183  23.908   5.110
24087W        W90518   3.451  13.702  14.924
24088W        W90519  20.210  33.064   0.200
24089W        W90520  17.652  10.189  13.913
24090W        W90521   2.146  23.849   4.147
24091W        W90522  25.999  13.382  10.797
24092W        W90523  19.622   6.742  13.449
24093W        W90524  21.626  25.586   2.179
24094W        W90525  16.398   2.737  14.963
24095W        W90526  18.611   9.919  13.961
24096W        W90527  43.464  36.396   4.698
24097W        W90528  17.840  15.766   5.318
24098W        W90529  44.571  40.544   0.293
24099W        W90530  42.165  15.436   4.763
24100W        W90531  16.495  41.579   3.202
24101W        W90532   5.752  17.246  14.515
24102W        W90533  42.748  13.771   3.798
24103W        W90534   2.208  38.134  12.003
24104W        W90535   1.508  20.313  11.037
24105W        W90536  35.079   6.159   4.880
24106W        W90537  21.549   7.169  10.709
24107W        W90538  16.728  43.032  12.038
24108W        W90539  38.270  28.936   2.328
24109W        W90540  15.169  14.734   1.636
24110W        W90541   8.676   2.467   3.731
24111W        W90542  24.119  27.619  14.514
24112W        W90543  15.677  15.654  14.579
24113W        W90544  35.605  14.263   2.346
24114W        W90545  30.566  16.716   4.419
24115W        W90546  42.718  18.563  13.963
24116W        W90547  20.567  23.674   2.395
24117W        W90548  34.943   4.314   4.528
24118W        W90549  26.836  18.698  11.621
24119W        W90550   4.772   6.258  14.765
24120W        W90551  18.799   4.369  14.907
24121W        W90552  22.632  23.425   2.812
24122W        W90553  28.911   0.959   3.655
24123W        W90554  42.916   7.869   3.397
24124W        W90555  32.187  36.700  14.814
24125W        W90556  18.528  37.603   0.721
24126W        W90557   6.310  25.068  10.669
24127W        W90558   9.265  17.589   0.131
24128W        W90559  29.491   8.131   2.341
24129W        W90560  35.566  12.704   2.714
24130W        W90561  30.496  19.417   1.899
24131W        W90562  18.801  20.332   4.790
24132W        W90563  10.552  17.387   4.885
24133W        W90564  38.532  40.353  13.175
24134W        W90565  43.860   6.412   4.697
24135W        W90566  13.729  25.778   2.853
24136W        W90567  14.268  43.773  11.563
24137W        W90568  10.737  43.330  13.938
24138W        W90569  29.663  13.239  12.143
24139W        W90570  29.003  33.592   1.803
24140W        W90571   7.847  40.936   3.180
24141W        W90572  21.312   9.017  13.148
24142W        W90573  39.020  40.130   4.061
24143W        W90574  42.047  41.475   2.481
24144W        W90575  17.266  18.734  14.247
24145W        W90576  41.018   8.568  14.548
24146W        W90577  37.889   8.359  13.051
24147W        W90578  38.404  39.327  13.783
24148W        W90579  20.524  38.377   3.161
24149W        W90580  17.663  24.648   4.550
24150W        W90581  27.124  30.045   4.786
24151W        W90582  43.911  24.660  14.965
24152W        W90583   9.783  26.598  11.582
24153W        W90584  27.063   1.463  13.338
24154W        W90585  25.211  40.028  10.339
24155W        W90586   9.334   4.442  11.034
24156W        W90587  34.128  10.255   1.858
24157W        W90588   6.935  32.501  13.893
24158W        W90589  21.606  36.750   0.310
24159W        W90590  29.679  26.427  13.771
24160W        W90591   7.250   1.943  14.962
24161W        W90592  13.377   9.922   0.316
24162W        W90593  43.608  31.153  14.122
24163W        W90594  20.893  30.996  14.085
24164W        W90595  15.264  14.864  14.706
24165W        W90596  10.267   5.723   1.869
24166W        W90597  37.546  30.108   3.142
24167W        W90598  18.544  27.195   0.909
24168W        W90599  40.366  13.039  14.989
24169W        W90600   4.156   3.902  14.831
24170W        W90601   1.732  32.631  14.788
24171W        W90602  35.036  13.081  11.115
24172W        W90603   7.771   1.899   0.138
24173W        W90604  17.784  25.472  11.981
24174W        W90605  24.231  29.728  14.258
24175W        W90606   8.639  42.030   5.028
24176W        W90607  28.958   0.847  13.720
24177W        W90608  44.797  22.348  13.726
24178W        W90609  15.640   4.523  14.818
24179W        W90610   8.976   7.469   2.935
24180W        W90611   8.463  41.871   2.741
24181W        W90612   9.880  33.937  10.399
24182W        W90613  25.031  38.395   3.169
24183W        W90614  25.574  27.490   1.319
24184W        W90615  36.302   3.226   4.546
24185W        W90616  30.444  12.558   4.718
24186W        W90617  42.418  10.784   3.168
24187W        W90618  42.214  25.945   0.913
24188W        W90619   0.893  41.933  14.254
24189W        W90620  37.979  43.028   0.324
24190W        W90621   6.072  13.775  12.000
24191W        W90622  33.399  34.486   3.739
24192W        W90623  37.160  10.469  10.728
24193W        W90624  20.320  18.374  12.943
24194W        W90625  43.001   8.023  13.254
24195W        W90626   8.888   4.217  13.063
24196W        W90627  21.829  28.583  10.717
24197W        W90628  39.790  32.391  14.752
24198W        W90629  31.982  15.159   1.825
24199W        W90630  43.525  19.383  13.233
24200W        W90631   5.818  36.413   0.952
24201W        W90632  42.843  38.551   4.715
24202W        W90633  31.517   5.838  12.811
24203W        W90634  31.420  15.498  13.894
24204W        W90635  39.955  30.428  13.765
24205W        W90636  35.409  44.500  10.805
24206W        W90637  27.878  24.012  11.178
24207W        W90638  42.768   1.753  14.075
24208W        W90639  10.668  11.341   2.277
24209W        W90640   1.285  16.591  11.319
24210W        W90641  20.616   9.884   2.325
24211W        W90642   9.772  19.174   4.985
24212W        W90643  16.792  22.236   2.668
24213W        W90644  25.209  28.475   3.259
24214W        W90645   0.505  33.911  11.215
24215W        W90646  18.625   7.009  10.621
24216W        W90647  27.387  34.406   2.808
24217W        W90648  17.332  35.287   0.008
24218W        W90649  44.177  19.024  11.945
24219W        W90650  33.904   9.156  12.949
24220W        W90651  26.510  16.732  12.048
24221W        W90652  18.101  35.455  14.468
24222W        W90653   1.558  29.846   2.311
24223W        W90654  14.039  20.652  14.292
24224W        W90655  21.310  34.671   1.575
24225W        W90656   7.667  28.530  14.100
24226W        W90657  27.849  14.297   3.628
24227W        W90658   3.968   5.797   2.309
24228W        W90659  23.850  26.068  12.786
24229W        W90660  29.122  12.354   2.972
24230W        W90661  35.099  33.934   2.259
24231W        W90662   7.925  32.005  12.550
24232W        W90663  39.015   4.085  12.488
24233W        W90664  34.152  29.511   4.219
24234W        W90665  43.182  36.107   4.117
24235W        W90666  37.241  11.687  12.397
24236W        W90667  43.304  43.466  12.442
24237W        W90668   9.131  22.066   0.395
24238W        W90669  30.190  13.766   0.737
24239W        W90670  22.250  21.705  12.044
24240W        W90671  38.921  28.671  10.874
24241W        W90672  18.382   1.767  10.173
24242W        W90673   4.266  44.900  13.008
24243W        W90674  38.986  23.889  11.509
24244W        W90675  38.131  22.204  11.632
24245W        W90676  35.393  16.147  14.029
24246W        W90677  11.729  20.806  13.909
24247W        W90678  21.738  38.996  10.285
24248W        W90679  19.109  28.824   0.313
24249W        W90680  15.807  43.482   1.619
24250W        W90681  38.698  34.335  10.217
24251W        W90682  18.143   7.180  10.575
24252W        W90683   4.235  40.268  12.649
24253W        W90684  30.460  22.627   3.351
24254W        W90685  43.213  15.235   3.346
24255W        W90686  10.931   2.452  11.157
24256W        W90687   8.903  12.539   2.350
24257W        W90688   4.940  39.980   0.407
24258W        W90689   6.740  13.572   0.212
24259W        W90690   4.519  42.321   2.521
24260W        W90691  41.496  35.258  12.911
24261W        W90692   7.304  14.321  10.760
24262W        W90693   3.302  38.506  12.625
24263W        W90694  10.953  20.771   1.329
24264W        W90695  21.993   7.170  12.056
24265W        W90696   0.324   2.392   1.628
24266W        W90697  34.020  37.088  10.430
24267W        W90698  38.708   8.381  14.455
24268W        W90699   3.297   4.834  11.441
24269W        W90700  15.476  12.891  11.527
24270W        W90701  22.185  39.376   3.434
24271W        W90702  31.394  24.002   1.504
24272W        W90703  43.941  17.369   1.822
24273W        W90704  27.742  42.269  12.356
24274W        W90705   7.945  39.311   3.495
24275W        W90706  27.718   6.681  14.028
24276W        W90707   7.383  33.909   3.873
24277W        W90708  13.259  20.778   1.819
24278W        W90709   0.234  27.061   2.487
24279W        W90710  29.560  40.423  14.411
24280W        W90711  21.601   1.516   4.062
24281W        W90712  13.142   5.950  11.654
24282W        W90713  16.700  31.998  11.095
24283W        W90714   9.352  37.458  13.920
24284W        W90715  36.841   4.996  14.855
24285W        W90716  34.038  31.197   2.775
24286W        W90717   5.951  43.765   1.664
24287W        W90718  35.336  13.800  14.839
24288W        W90719  37.953   5.009  11.581
24289W        W90720  41.812  43.480  12.597
24290W        W90721  16.560  27.580  12.220
24291W        W90722  38.382  41.258  12.743
24292W        W90723  19.695   9.856   0.874
24293W        W90724   0.336  22.442   0.891
24294W        W90725  42.321  21.819  12.338
24295W        W90726  23.199  31.272   0.179
24296W        W90727   2.360  35.030   2.750
24297W        W90728  15.169  25.004  13.809
24298W        W90729  27.548  11.041  13.389
24299W        W90730  35.002  32.377   1.384
24300W        W90731  32.456  16.299  11.376
24301W        W90732  36.746  34.590   0.873
24302W        W90733  10.351  29.676  13.393
24303W        W90734   4.367  21.614   0.549
24304W        W90735  44.448  28.199  11.963
24305W        W90736  16.590  31.806   1.932
24306W        W90737   2.255  20.578  11.925
24307W        W90738  10.001   3.754   2.004
24308W        W90739  27.763  32.320   2.246
24309W        W90740  33.366  26.229  14.992
24310W        W90741  28.201  38.470  11.781
24311W        W90742   8.422  29.759   3.664
24312W        W90743  17.854  30.441  13.059
24313W        W90744  37.601  31.963  14.041
24314W        W90745   5.321   3.467  13.563
24315W        W90746  39.293  42.330  12.420
24316W        W90747  15.045   9.725   3.656
24317W        W90748  39.083   9.347   3.683
24318W        W90749  32.657  18.553  13.361
24319W        W90750  25.178  34.962   3.218
24320W        W90751   3.754   7.404  11.594
24321W        W90752  32.978  28.033  10.660
24322W        W90753  19.310  25.976   1.414
24323W        W90754  25.692  25.966   2.701
24324W        W90755  24.465  18.680  12.842
24325W        W90756   2.252  24.662   0.322
24326W        W90757   3.203  13.310   2.431
24327W        W90758   3.418  28.344  13.411
24328W        W90759  32.007   3.230  14.647
24329W        W90760   4.404  16.248  14.209
24330W        W90761   2.391  35.726   4.793
24331W        W90762  32.920  23.119   3.606
24332W        W90763  19.066   8.914   2.045
24333W        W90764  20.283  30.541  14.779
24334W        W90765   1.570  24.361  12.531
24335W        W90766  11.607   1.498   0.977
24336W        W90767  28.180  15.221  13.092
24337W        W90768  19.680  14.106  11.325
24338W        W90769  41.067  23.114  12.895
24339W        W90770  25.603  21.324   0.362
24340W        W90771  11.358  33.892   0.868
24341W        W90772  34.166   4.398   1.741
24342W        W90773   9.666  21.708  12.076
24343W        W90774  26.697   3.288   3.295
24344W        W90775  36.365   9.045  14.001
24345W        W90776  12.577  25.493  11.953
24346W        W90777   7.312  18.147  13.738
24347W        W90778  19.028  44.858   0.862
24348W        W90779  28.084   2.810   4.207
24349W        W90780   3.625  12.792   1.162
24350W        W90781  38.324  39.701   3.212
24351W        W90782  34.099  21.114   2.298
24352W        W90783  33.329  28.750   4.203
24353W        W90784   3.862  11.068  14.035
24354W        W90785  11.815  24.648  12.456
24355W        W90786  38.735  22.786   2.355
24356W        W90787  28.224   1.976   1.700
24357W        W90788  37.590  13.334   0.443
24358W        W90789   3.179  14.734  13.492
24359W        W90790   6.345  32.690  11.566
24360W        W90791  29.463  33.483  13.302
24361W        W90792   4.686   2.483   3.237
24362W        W90793   2.152  22.685   0.434
24363W        W90794  18.783  40.818  11.105
24364W        W90795  11.155  31.009  10.671
24365W        W90796  36.623  29.673  11.187
24366W        W90797  42.767  37.873  10.632
24367W        W90798   3.311   4.853  12.935
24368W        W90799   9.275  32.384   0.344
24369W        W90800  10.903  31.604  12.825
24370W        W90801  35.518  23.147   4.319
24371W        W90802  29.610   4.628   3.077
24372W        W90803   7.222   4.247   4.507
24373W        W90804  34.215   9.160  11.329
24374W        W90805  25.716  19.464  10.927
24375W        W90806   3.153  43.854   4.695
24376W        W90807  17.738  38.422   3.664
24377W        W90808   9.465   4.808   2.289
24378W        W90809  41.809  36.585   0.975
24379W        W90810  38.826  21.175   2.052
24380W        W90811   3.849  36.840   1.616
24381W        W90812  20.231  26.592   3.077
24382W        W90813  31.064  30.071  11.570
24383W        W90814  44.946  11.219   0.339
24384W        W90815  31.571  37.083   2.063
24385W        W90816   2.274  43.245   0.456
24386W        W90817  40.600  10.681   3.872
24387W        W90818  11.833  40.934   4.248
24388W        W90819   6.305   1.719   4.653
24389W        W90820  12.139  33.896   4.096
24390W        W90821  10.694  16.390  12.098
24391W        W90822  29.170  25.740  11.148
24392W        W90823  34.996   9.395   4.557
24393W        W90824  23.997  44.764  10.180
24394W        W90825  12.729  12.092  14.786
24395W        W90826  12.504  43.151   2.265
24396W        W90827   6.468  15.322  10.270
24397W        W90828  23.670  12.775   2.439
24398W        W90829  20.413  38.087  13.180
24399W        W90830   2.991   6.661   2.419
24400W        W90831  34.822  26.707  11.508
24401W        W90832  42.592   8.812   3.813
24402W        W90833   2.638  26.633  13.500
24403W        W90834  35.427  24.139  11.142
24404W        W90835  17.280  15.143  11.380
24405W        W90836  31.100   0.368   3.221
24406W        W90837  33.513   9.426   3.220
24407W        W90838   8.048  15.739   2.195
24408W        W90839  40.019  19.805   1.220
24409W        W90840  41.251  18.289   1.691
24410W        W90841   5.719   0.452  11.643
24411W        W90842  10.381  17.251  14.797
24412W        W90843  28.563  11.696   1.278
24413W        W90844  12.869   6.856  11.677
24414W        W90845  18.356  26.888   1.488
24415W        W90846  28.659  24.184  11.802
24416W        W90847  44.563  26.020   5.114
24417W        W90848  26.508   4.203  12.055
24418W        W90849  10.389   5.779  11.786
24419W        W90850  12.995  42.059  13.172
24420W        W90851  11.199  17.753  14.939
24421W        W90852  36.314   7.373  10.378
24422W        W90853  15.821  16.710  13.985
24423W        W90854  20.563  35.643  10.412
24424W        W90855  10.788  44.049   3.195
24425W        W90856  27.441   0.258  10.485
24426W        W90857  33.383  26.189   1.678
24427W        W90858   5.291   2.996   3.654
24428W        W90859  34.165  11.403   0.410
24429W        W90860   9.724  17.001  11.158
24430W        W90861   0.142  40.274   0.801
24431W        W90862  24.527  37.703   3.628
24432W        W90863  25.926  39.950  12.304
24433W        W90864  34.036  17.241  13.423
24434W        W90865   0.712  17.195  13.094
24435W        W90866   1.381   0.305   3.765
24436W        W90867  38.662  43.636  14.008
24437W        W90868   8.838  21.555   0.462
24438W        W90869  18.172  11.822  12.374
24439W        W90870   2.526  28.869   0.847
24440W        W90871  23.267   4.841  12.558
24441W        W90872  26.443  15.100  10.332
24442W        W90873  19.673  25.983   2.753
24443W        W90874  39.568  29.538   4.534
24444W        W90875  14.964  32.121  11.539
24445W        W90876  43.618  44.591  12.891
24446W        W90877  29.448  27.027  14.900
24447W        W90878  12.354  38.341  13.889
24448W        W90879   9.304  17.235   4.645
24449W        W90880  33.530   8.067   3.786
24450W        W90881  21.613  20.021   3.634
24451W        W90882  41.672  43.937  14.331
24452W        W90883  26.113  28.488   3.038
24453W        W90884  29.501  22.617   3.706
24454W        W90885   8.183  32.413   4.112
24455W        W90886   5.618  40.646  11.063
24456W        W90887  18.672  25.885  12.163
24457W        W90888   3.532   1.513  14.016
24458W        W90889  15.102  10.595   2.701
24459W        W90890  10.258   0.882   3.316
24460W        W90891  33.376  27.961   0.753
24461W        W90892  18.319  13.236   1.260
24462W        W90893   7.582   7.274  11.993
24463W        W90894  10.458  20.931  12.969
24464W        W90895   8.482  22.661  14.344
24465W        W90896   0.425   3.524   3.282
24466W        W90897   9.335  30.200   2.647
24467W        W90898   1.219  10.690   2.773
24468W        W90899  32.963  21.995  13.809
24469W        W90900  31.163  12.449  11.181
24470W        W90901   4.161  29.601   3.859
24471W        W90902  14.117  13.048  12.522
24472W        W90903   4.157   0.720  13.505
24473W        W90904   8.306  40.307  14.572
24474W        W90905   7.213  38.626   3.085
24475W        W90906  24.607  43.984   4.438
24476W        W90907  13.351  12.588  13.313
24477W        W90908   9.499  15.650   4.312
24478W        W90909  27.963  34.053  13.874
24479W        W90910  38.773  11.112   3.809
24480W        W90911  10.266   2.314   2.268
24481W        W90912  40.056   6.196   3.760
24482W        W90913  12.741  17.822   0.429
24483W        W90914  17.277  38.926  12.982
24484W        W90915  15.092   8.255  14.760
24485W        W90916  42.690  33.501   4.494
24486W        W90917  24.160  24.234   2.590
24487W        W90918  28.610   5.756  13.620
24488W        W90919  14.724  28.890  14.430
24489W        W90920  13.808  33.346  12.891
24490W        W90921   7.229  26.059  14.966
24491W        W90922  21.628  39.658  10.825
24492W        W90923  24.849  17.302  12.393
24493W        W90924   7.188  26.534  14.289
24494W        W90925   9.979  19.148  14.638
24495W        W90926  26.891  34.987  10.268
24496W        W90927  17.284  31.920   1.898
24497W        W90928   7.799  33.199   0.822
24498W        W90929   1.425   5.265  12.885
24499W        W90930  36.167  31.639   0.494
24500W        W90931   8.807  31.047  13.042
24501W        W90932  30.506  11.291   1.016
24502W        W90933   6.856  41.093  14.449
24503W        W90934  20.956  29.116   4.560
24504W        W90935   7.601  35.474  14.434
24505W        W90936  27.628  21.597  11.130
24506W        W90937  15.674  38.547  13.056
24507W        W90938  27.523  41.923  14.492
24508W        W90939  33.072  31.305  13.475
24509W        W90940  21.668  20.695   1.624
24510W        W90941   5.133  23.289  10.574
24511W        W90942  16.647  22.071   3.135
24512W        W90943  37.288  38.480   1.485
24513W        W90944  32.171  11.950  12.415
24514W        W90945  30.673  10.707   1.716
24515W        W90946   5.279  19.243  13.840
24516W        W90947  30.581  32.591  13.370
24517W        W90948  12.936  10.647  11.631
24518W        W90949  16.873  22.700  13.304
24519W        W90950  36.906  34.857  11.562
24520W        W90951  26.560  18.649   4.984
24521W        W90952   6.769  19.006   3.635
24522W        W90953   1.574  30.512  14.672
24523W        W90954  19.779  26.721  11.074
24524W        W90955  13.105  36.506   1.440
24525W        W90956  24.252  22.912  11.179
24526W        W90957  36.847  44.812  13.726
24527W        W90958  26.928  40.387  13.945
24528W        W90959  12.549  24.437   4.877
24529W        W90960  37.906  12.329   1.660
24530W        W90961  40.655  26.061   3.222
24531W        W90962  38.067  15.403  10.491
24532W        W90963   7.399   1.897  11.247
24533W        W90964  11.206  30.683  13.882
24534W        W90965  16.115  28.670  14.545
24535W        W90966  23.158   2.573   2.459
24536W        W90967  22.048  31.008  13.369
24537W        W90968  11.200  39.603  14.889
24538W        W90969  40.790  30.576   2.363
24539W        W90970  33.512  30.932  12.389
24540W        W90971  23.703  31.565   2.694
24541W        W90972  44.363  31.251  14.379
24542W        W90973  27.950   7.328  12.411
24543W        W90974   0.320  33.478   3.474
24544W        W90975  44.262  19.730   3.253
24545W        W90976  39.532  13.429  13.570
24546W        W90977  13.670  40.685   4.676
24547W        W90978  14.446   1.859   4.580
24548W        W90979  37.610  28.413   1.300
24549W        W90980  20.017  22.366  12.352
24550W        W90981   2.943  40.153  12.749
24551W        W90982  40.261   4.416  11.969
24552W        W90983  14.192   3.358   1.305
24553W        W90984  24.950  10.433  13.340
24554W        W90985   8.781  40.531   2.758
24555W        W90986   8.833   7.204  12.987
24556W        W90987  17.164  21.512   2.397
24557W        W90988  17.863   5.286  11.053
24558W        W90989  40.038   7.791   3.601
24559W        W90990  30.430  17.999  13.410
24560W        W90991  36.866  16.767   0.002
24561W        W90992  24.923  31.693   4.694
24562W        W90993  15.625  17.507  10.334
24563W        W90994  17.672  19.000  12.576
24564W        W90995  16.538  28.576  13.925
24565W        W90996  29.412  32.132  11.722
24566W        W90997  10.051  39.231   2.868
24567W        W90998  20.031  20.025   2.185
24568W        W90999  36.340   3.666   0.987
24569W        W91000  12.663  32.315   1.433
24570W        W91001  35.887  33.407  11.333
24571W        W91002  28.851   2.967  14.833
24572W        W91003  24.070  32.789   3.802
24573W        W91004  16.829  12.781   1.920
24574W        W91005  29.036  15.742  10.785
24575W        W91006  14.339  42.980   3.432
24576W        W91007  15.038  34.911   4.151
24577W        W91008  29.913  16.128  12.482
24578W        W91009  11.857   6.160   4.842
24579W        W91010  33.648  27.010  11.212
24580W        W91011   3.258  36.951  12.968
24581W        W91012  40.920  39.020   4.864
24582W        W91013   6.777  28.412   3.835
24583W        W91014  38.534  42.265  12.580
24584W        W91015   4.446   1.377   0.431
24585W        W91016  23.046  32.146  12.082
24586W        W91017  18.507  34.076   4.063
24587W        W91018  11.635  30.474  14.101
24588W        W91019  23.926   8.085   1.048
24589W        W91020  20.658   7.120  11.167
24590W        W91021  21.790  10.396  13.860
24591W        W91022  39.269  40.207   5.234
24592W        W91023  13.710  34.813  11.629
24593W        W91024  38.201   8.681   4.588
24594W        W91025  32.575  17.736  14.991
24595W        W91026   2.523  42.342  12.192
24596W        W91027  38.043  31.576   1.984
24597W        W91028   6.645  28.947   4.625
24598W        W91029  17.054   7.171  14.962
24599W        W91030  39.742  39.892  11.599
24600W        W91031  22.649  38.943   0.939
24601W        W91032  16.111  31.136  14.492
24602W        W91033  16.567  44.484   1.489
24603W        W91034  29.202  44.455   3.060
24604W        W91035  35.406  31.219  14.960
24605W        W91036  29.633   6.662  13.879
24606W        W91037  10.364   9.928  14.895
24607W        W91038   0.887   3.537   2.078
24608W        W91039  26.245  30.147   2.817
24609W        W91040  17.280  16.992   0.829
24610W        W91041  17.581   9.377   2.772
24611W        W91042  35.582   7.613  10.438
24612W        W91043   4.724  36.955  13.606
24613W        W91044   8.750  13.643   3.124
24614W        W91045   3.802  20.302   1.243
24615W        W91046  30.872  31.017  12.135
24616W        W91047  29.994  40.101   0.238
24617W        W91048   5.761  14.823   1.784
24618W        W91049  17.607   8.310   4.615
24619W        W91050  10.789  39.189  13.634
24620W        W91051  14.372  20.744   0.829
24621W        W91052  15.324  29.871  12.384
24622W        W91053  11.001  14.155   4.607
24623W        W91054  21.282  14.142  13.882
24624W        W91055  30.534  13.053   4.619
24625W        W91056  37.273  31.267   2.940
24626W        W91057  12.870  39.590  14.384
24627W        W91058  32.201  22.718  13.380
24628W        W91059  12.617   2.025   3.245
24629W        W91060  42.236   2.747  13.377
24630W        W91061  38.163  15.710  11.611
24631W        W91062  29.350  23.100   3.750
24632W        W91063  16.017  23.038   0.382
24633W        W91064  14.303  41.047   0.275
24634W        W91065  35.349  14.329  10.810
24635W        W91066   0.138  28.242   4.526
24636W        W91067  24.928  38.431   0.755
24637W        W91068  18.196  35.161   4.203
24638W        W91069  13.389  14.633   2.441
24639W        W91070  36.409  41.282   2.879
24640W        W91071  29.188   3.009   4.330
24641W        W91072  34.050  43.918  14.643
24642W        W91073  41.113  33.285  11.474
24643W        W91074  25.423   3.403   4.880
24644W        W91075  43.048  39.398  14.422
24645W        W91076  41.401  11.592  12.421
24646W        W91077  39.667   1.067   3.063
24647W        W91078   7.242   3.425   1.766
24648W        W91079   0.429  36.744  11.667
24649W        W91080  32.541   9.833   2.469
24650W        W91081  27.626  21.754   4.213
24651W        W91082   3.670  44.035  13.909
24652W        W91083  44.017  16.307  10.097
24653W        W91084  13.298  35.881   2.295
24654W        W91085  37.473  13.144   1.892
24655W        W91086  30.580  26.799  14.400
24656W        W91087  39.291   5.148   3.997
24657W        W91088  23.919  36.919  11.494
24658W        W91089  15.247  21.964  14.864
24659W        W91090   0.312  13.141  11.515
24660W        W91091   8.007  26.122   3.642
24661W        W91092  26.742  19.216   1.498
24662W        W91093   3.823  10.330  14.379
24663W        W91094   9.263  35.982  10.719
24664W        W91095  36.526  41.875   3.280
24665W        W91096  25.812  14.727  11.954
24666W        W91097   8.728   0.432   4.908
24667W        W91098  34.547  19.347   3.318
24668W        W91099  27.449  41.061   3.658
24669W        W91100  11.334  37.895   1.139
24670W        W91101  30.831  21.533   3.245
24671W        W91102  26.858  17.161   3.744
24672W        W91103   9.983  38.377   3.080
24673W        W91104  40.558  34.650  11.583
24674W        W91105  16.810  10.845  11.948
24675W        W91106  18.340  44.872  14.140
24676W        W91107  31.084  41.231   2.318
24677W        W91108   5.368  32.574  10.680
24678W        W91109  42.603  26.601   1.698
24679W        W91110  31.730  11.697   1.984
24680W        W91111  16.205  42.087  11.400
24681W        W91112  20.765  38.998  14.505
24682W        W91113  29.380   3.792  12.483
24683W        W91114  37.614  16.161  14.544
24684W        W91115  15.213  35.926  14.723
24685W        W91116  20.228  43.721   4.125
24686W        W91117  14.647  10.716  11.906
24687W        W91118   1.522  44.883   2.261
24688W        W91119  30.963  37.849  13.469
24689W        W91120  26.232   5.477  12.624
24690W        W91121   5.587  33.695   3.575
24691W        W91122   8.566  35.158  13.630
24692W        W91123   0.790  21.018  10.272
24693W        W91124  12.243  32.816   5.007
24694W        W91125  18.632  23.066  10.923
24695W        W91126  41.024  21.300   4.618
24696W        W91127  19.638  33.101   4.521
24697W        W91128  24.611  40.057  11.969
24698W        W91129  29.942  34.071   3.186
24699W        W91130  16.303   0.399  11.317
24700W        W91131   8.914   9.177   0.296
24701W        W91132  19.161   9.806  14.619
24702W        W91133  21.072  10.867   3.170
24703W        W91134  39.199  34.164  14.828
24704W        W91135  31.396   7.258   0.312
24705W        W91136   5.674  44.324  10.641
24706W        W91137  37.113  15.828   3.802
24707W        W91138   2.352  23.188  10.749
24708W        W91139  34.881   3.348   2.525
24709W        W91140  34.437  25.114   1.249
24710W        W91141  14.299  22.844   0.791
24711W        W91142  30.060  39.765  11.240
24712W        W91143  11.280  27.160   2.319
24713W        W91144   6.823  37.657  12.309
24714W        W91145  13.609   9.153   4.039
24715W        W91146   4.665  18.574   3.916
24716W        W91147  19.667   7.524  11.644
24717W        W91148   2.390  44.434   4.511
24718W        W91149  41.858  28.036  14.476
24719W        W91150  19.625  42.765  10.221
24720W        W91151  40.300  38.049  12.399
24721W        W91152  36.105   1.461   2.733
24722W        W91153   9.812   6.258  11.114
24723W        W91154  26.606  23.524   4.498
24724W        W91155  14.887  24.322   1.768
24725W        W91156  26.701  31.864  11.120
24726W        W91157  24.892  27.174  13.264
24727W        W91158  15.230  20.637   2.356
24728W        W91159  17.397  24.453  11.549
24729W        W91160  10.891   1.310   1.899
24730W        W91161  32.645  27.499  13.406
24731W        W91162  23.511  21.250  13.437
24732W        W91163  32.926  25.057   3.074
24733W        W91164   8.594  38.363  13.181
24734W        W91165  32.107  16.403  13.118
24735W        W91166  44.374  18.025  13.247
24736W        W91167  23.934  27.241   0.903
24737W        W91168  16.870  39.313  13.048
24738W        W91169  27.174  18.632  13.938
24739W        W91170   8.611  41.044   0.933
24740W        W91171   6.812  15.453   9.862
24741W        W91172  26.009  13.506  13.882
24742W        W91173  26.590  22.003  11.963
24743W        W91174  17.816  16.386  13.528
24744W        W91175  44.067   9.276   2.353
24745W        W91176  25.682  34.534   4.719
24746W        W91177  37.941  39.746   1.697
24747W        W91178  22.377  10.371  13.008
24748W        W91179   0.302  29.112  12.107
24749W        W91180  11.279  15.242  11.613
24750W        W91181   3.863  43.396   4.746
24751W        W91182   5.412  18.131  11.177
24752W        W91183  15.182   0.954   1.120
24753W        W91184   5.678   5.608   2.839
24754W        W91185  20.672  43.935   2.869
24755W        W91186  26.508  39.489   3.214
24756W        W91187   2.326  10.537   4.039
24757W        W91188  11.199  42.802   3.711
24758W        W91189  28.112  32.602  13.870
24759W        W91190  36.661  11.893  12.515
24760W        W91191  10.356  21.716   0.095
24761W        W91192  18.989   4.417  14.419
24762W        W91193  27.269  40.002  13.790
24763W        W91194  22.406  28.029  14.691
24764W        W91195  18.202   4.439  12.841
24765W        W91196  32.237  27.549   5.045
24766W        W91197   6.855  13.739  12.411
24767W        W91198   3.590  17.693  11.968
24768W        W91199   2.448  15.762   0.457
24769W        W91200  21.033  28.670   2.747
24770W        W91201  32.122  10.228  14.640
24771W        W91202  42.974  33.933   4.618
24772W        W91203  13.898  26.194  12.013
24773W        W91204  10.140  17.569  12.998
24774W        W91205  30.511  15.587   3.553
24775W        W91206   8.780   3.883  13.913
24776W        W91207  40.235  26.097  13.544
24777W        W91208  20.481   0.083  12.618
24778W        W91209  32.520  31.713   4.180
24779W        W91210  42.445  37.589  14.836
24780W        W91211  39.690  10.472  14.821
24781W        W91212  21.949  19.096   3.242
24782W        W91213  24.502  27.540  13.426
24783W        W91214  41.792  29.573  11.915
24784W        W91215  19.293  33.153  12.000
24785W        W91216  11.129  37.990  12.393
24786W        W91217   5.262  32.687  12.040
24787W        W91218  26.739  43.052  14.333
24788W        W91219  17.440  24.293  12.462
24789W        W91220  30.696  17.949   1.714
24790W        W91221  14.162  32.660   2.224
24791W        W91222  42.224  37.912   2.283
24792W        W91223  27.121  24.617   0.942
24793W        W91224   6.124  22.527   2.769
24794W        W91225  39.881  26.697  11.597
24795W        W91226  18.541  14.573   1.331
24796W        W91227  25.890  37.444   4.853
24797W        W91228  41.575  39.985  10.555
24798W        W91229  41.756  29.800  14.899
24799W        W91230  22.792  32.503  12.434
24800W        W91231  22.631  24.029  13.834
24801W        W91232  38.828   7.805   3.569
24802W        W91233  40.956  40.871  14.361
24803W        W91234   7.022  40.788   3.477
24804W        W91235  18.966  15.571  11.897
24805W        W91236  35.112   4.436   2.337
24806W        W91237  16.165   3.322   2.099
24807W        W91238  32.424  11.887  13.276
24808W        W91239   5.804  26.378  13.426
24809W        W91240  16.597  29.971  11.782
24810W        W91241  36.368   1.834   5.222
24811W        W91242  10.779  38.439   1.739
24812W        W91243  41.912  35.247   2.805
24813W        W91244  21.661   3.477   2.532
24814W        W91245  25.198  39.819   4.530
24815W        W91246  42.738  14.086  11.532
24816W        W91247  42.024  42.750  11.278
24817W        W91248  26.891  17.309  11.512
24818W        W91249  16.216  17.723   1.793
24819W        W91250   5.333  29.196   2.740
24820W        W91251  17.527  24.191  14.324
24821W        W91252  15.263  38.847   0.659
24822W        W91253  30.921  43.327   0.777
24823W        W91254   5.660  36.967  13.374
24824W        W91255  20.227   5.783   2.897
24825W        W91256  27.382  38.942  11.024
24826W        W91257   9.396  15.318  13.884
24827W        W91258   5.736  15.845   0.048
24828W        W91259   8.893  21.727  10.657
24829W        W91260  36.278  35.766  10.236
24830W        W91261   2.525  10.136  12.668
24831W        W91262  40.640  17.078   0.555
24832W        W91263  38.408  37.203   2.174
24833W        W91264   6.424   5.692  13.755
24834W        W91265  20.678  31.545   4.437
24835W        W91266  17.007  32.177  13.464
24836W        W91267   7.414  31.079  13.514
24837W        W91268   0.767  10.851  12.988
24838W        W91269  32.963   3.636   2.631
24839W        W91270  26.295  12.846  12.097
24840W        W91271  28.899   0.348   0.028
24841W        W91272  15.612  40.522   0.467
24842W        W91273  26.655  30.588  11.641
24843W        W91274  36.577   1.771   0.414
24844W        W91275  30.748  28.259  11.191
24845W        W91276   7.915   3.337  10.315
24846W        W91277  23.073  41.099   0.500
24847W        W91278  44.210  42.821   2.513
24848W        W91279  44.389  19.766   4.717
24849W        W91280  20.407   2.311  11.390
24850W        W91281   6.849  29.695   0.721
24851W        W91282  35.460  17.379   2.084
24852W        W91283  41.984  43.012   2.228
24853W        W91284  34.979  24.488  12.989
24854W        W91285  34.603  34.539  14.615
24855W        W91286  24.983  38.027   2.807
24856W        W91287  40.404  40.279   3.564
24857W        W91288  39.220  39.857  12.550
24858W        W91289  15.776   5.399   5.033
24859W        W91290  24.991  38.744  11.083
24860W        W91291  21.101  25.100  12.413
24861W        W91292  42.468  22.768  12.530
24862W        W91293  21.058   7.724  11.618
24863W        W91294  38.027  21.489  12.015
24864W        W91295   0.269  27.342   3.275
24865W        W91296  32.236   0.014  11.891
24866W        W91297  23.772  40.782   0.695
24867W        W91298  18.083  17.589   4.938
24868W        W91299  14.416  24.626  13.413
24869W        W91300   5.857  20.877  14.501
24870W        W91301  11.515  13.738  10.441
24871W        W91302  22.406  19.803  12.941
24872W        W91303  29.745   0.113   2.889
24873W        W91304  19.451  27.126  11.269
24874W        W91305  41.890   5.811  10.088
24875W        W91306  13.815  37.455   3.939
24876W        W91307   5.325  32.124  11.531
24877W        W91308  13.938  10.868   0.223
24878W        W91309  27.111  33.533   1.211
24879W        W91310  23.536   7.055  11.249
24880W        W91311  36.523  32.996  12.647
24881W        W91312   8.679   3.859  12.426
24882W        W91313   0.980  13.222  12.925
24883W        W91314  16.815   9.571   0.249
24884W        W91315  22.452  26.521   3.140
24885W        W91316  29.071  16.330   1.271
24886W        W91317  26.326   1.046   2.244
24887W        W91318  32.378  35.868  12.161
24888W        W91319  35.834  14.221  12.943
24889W        W91320   9.370  25.267   2.843
24890W        W91321  10.392  43.839   4.221
24891W        W91322   2.255   3.290  14.030
24892W        W91323   7.406  12.297   4.342
24893W        W91324  38.340  44.561  14.417
24894W        W91325   6.996   0.916   1.236
24895W        W91326   1.902  30.872  13.887
24896W        W91327  42.856  25.050  11.927
24897W        W91328  28.015  17.211  12.857
24898W        W91329  44.826  21.780  12.978
24899W        W91330  20.642   7.408  11.583
24900W        W91331  38.918   7.751  11.439
24901W        W91332  24.299  38.447   4.908
24902W        W91333   8.759   0.359  11.541
24903W        W91334  31.201  44.437  11.594
24904W        W91335   6.773  16.940   1.956
24905W        W91336  32.050  26.338  10.844
24906W        W91337   3.544   1.200   3.271
24907W        W91338  44.110  34.649   0.672
24908W        W91339  27.472  36.528  12.878
24909W        W91340  11.837  41.186   2.832
24910W        W91341   2.150  29.927  13.973
24911W        W91342  13.674  17.117   4.381
24912W        W91343   6.270  19.068   0.344
24913W        W91344  11.146  13.761  11.223
24914W        W91345  30.565  16.599   1.875
24915W        W91346  12.506  26.920  12.104
24916W        W91347  44.843   5.842   2.417
24917W        W91348  44.268  26.838   4.065
24918W        W91349  21.009   4.832   0.504
24919W        W91350  23.702  26.988  14.070
24920W        W91351  20.068  33.713   4.649
24921W        W91352   7.147  34.383  12.596
24922W        W91353  18.982  37.536  14.920
24923W        W91354  23.691  40.288   3.349
24924W        W91355   2.185  25.479   0.766
24925W        W91356  24.749  24.188   0.974
24926W        W91357  11.662   6.984   4.248
24927W        W91358  44.559  41.267   1.791
24928W        W91359  37.543   1.579  14.025
24929W        W91360  35.020  37.997   2.812
24930W        W91361  30.527   1.701  11.064
24931W        W91362  38.383  42.671   3.686
24932W        W91363  44.858  28.794  14.816
24933W        W91364  14.745   1.433  13.250
24934W        W91365  26.250  34.939  12.582
24935W        W91366   2.553  42.507  10.837
24936W        W91367  40.558   7.320  10.786
24937W        W91368  29.148   4.492  10.767
24938W        W91369  25.473  27.434   2.607
24939W        W91370  25.368  15.345   1.890
24940W        W91371  38.594  30.695   3.884
24941W        W91372  14.098  23.066  13.979
24942W        W91373  14.979  31.390   4.583
24943W        W91374  13.051   1.478   4.476
24944W        W91375  13.885   7.402   1.459
24945W        W91376  23.761   2.404   4.309
24946W        W91377  28.578  19.190   2.656
24947W        W91378  42.311  43.729   4.629
24948W        W91379  15.508  30.846  10.088
24949W        W91380  12.133  19.699   4.053
24950W        W91381  20.601   2.514   0.935
24951W        W91382  14.263  22.319   2.574
24952W        W91383  29.696  27.868  13.075
24953W        W91384  28.825  32.334   2.260
24954W        W91385  35.834  39.514   0.251
24955W        W91386  13.118   9.669   0.916
24956W        W91387  33.347   2.933   1.477
24957W        W91388   7.813  33.300  12.966
24958W        W91389  37.042  32.983   1.279
24959W        W91390  44.361  14.056   3.220
24960W        W91391   5.762  23.406   1.807
24961W        W91392  34.856  44.229   3.681
24962W        W91393  27.580   7.668  13.826
24963W        W91394  26.013  33.806   3.101
24964W        W91395  41.850  25.128   1.395
24965W        W91396   6.526  18.289   4.520
24966W        W91397   1.811  36.463   2.216
24967W        W91398  38.912  33.810   3.650
24968W        W91399  15.327   8.684  12.835
24969W        W91400   3.724  28.226  12.550
24970W        W91401  33.978  19.152   0.297
24971W        W91402   0.675  37.544   0.954
24972W        W91403  23.390  14.278   4.099
24973W        W91404  33.563  43.323  11.053
24974W        W91405  14.722  41.385   3.340
24975W        W91406  36.943   2.428   1.909
24976W        W91407  11.610  44.458   4.556
24977W        W91408  12.687  18.573  12.450
24978W        W91409  30.452   7.880   1.270
24979W        W91410  33.399  13.343   1.970
24980W        W91411  29.426  11.294  12.325
24981W        W91412   4.224   9.633   1.108
24982W        W91413  23.988  31.154   4.453
24983W        W91414  19.414   1.657   2.348
24984W        W91415   2.170  32.555  14.525
24985W        W91416  28.323  43.473  12.872
24986W        W91417  28.511   6.794   4.242
24987W        W91418   1.999  14.190   0.804
24988W        W91419  20.113  14.360  11.640
24989W        W91420  25.579   6.766   0.860
24990W        W91421  33.519  33.971   1.638
24991W        W91422  28.060   3.712  13.475
24992W        W91423  43.686  39.439  13.063
24993W        W91424   9.298  11.365  14.415
24994W        W91425   5.445  15.459   0.780
24995W        W91426  11.175   8.156  10.836
24996W        W91427   7.017  44.231   1.674
24997W        W91428   7.782  24.960  10.694
24998W        W91429  15.753  38.394   3.401
24999W        W91430   0.454   6.362   0.839
25000W        W91431   5.579  37.486  14.498
25001W        W91432  11.165  17.194   3.544
25002W        W91433   0.036  40.497  14.327
25003W        W91434   9.014  14.541   0.460
25004W        W91435  19.689  30.690   5.063
25005W        W91436   8.786   7.808  12.183
25006W        W91437  23.023  28.194  12.700
25007W        W91438  10.592  18.147  13.461
25008W        W91439  24.457  37.099   1.902
25009W        W91440   0.251  18.543  13.986
25010W        W91441  43.174  32.452   4.344
25011W        W91442  12.600  24.111   9.633
25012W        W91443   5.101  41.316  14.484
25013W        W91444  43.985  44.742  12.494
25014W        W91445  14.833  43.436   1.685
25015W        W91446  18.279  17.304  10.628
25016W        W91447   6.970  28.468  14.862
25017W        W91448  32.641  14.453   5.064
25018W        W91449  17.587   3.929   0.949
25019W        W91450  27.995  38.556  12.582
25020W        W91451  28.038  11.250   3.737
25021W        W91452   6.399  23.803   1.465
25022W        W91453  24.255  38.405   0.480
25023W        W91454   5.440   9.840  12.500
25024W        W91455  21.026  27.984  14.449
25025W        W91456   7.100  44.097   0.972
25026W        W91457   2.203  30.597  11.029
25027W        W91458   6.280  11.905   4.765
25028W        W91459  32.445  23.093   1.285
25029W        W91460  16.225   7.284   0.984
25030W        W91461  38.862  41.381  13.446
25031W        W91462  42.388  10.254  13.881
25032W        W91463   6.456  40.149  13.269
25033W        W91464  42.691  24.993   3.525
25034W        W91465  23.057  10.995  12.599
25035W        W91466  22.564  38.565   1.912
25036W        W91467  10.770  20.110   3.397
25037W        W91468  11.734   9.308   3.593
25038W        W91469  13.717  31.992  11.513
25039W        W91470  16.566  40.973   1.372
25040W        W91471   4.814  24.651   4.162
25041W        W91472  10.908  33.704   2.129
25042W        W91473   6.638  24.080  14.326
25043W        W91474   0.909  34.820   4.465
25044W        W91475   2.138  10.192   3.712
25045W        W91476   3.446  44.340   4.568
25046W        W91477  13.124  14.390  12.019
25047W        W91478   6.738  40.073  12.738
25048W        W91479   7.986  44.344   2.384
25049W        W91480  33.864   8.171   0.313
25050W        W91481  38.588  25.668  12.328
25051W        W91482  13.679  32.388  14.794
25052W        W91483   4.318  27.855   4.750
25053W        W91484  27.668  35.762  12.179
25054W        W91485   2.069  37.029  12.040
25055W        W91486  32.606   8.695   4.979
25056W        W91487   7.435  35.451   0.955
25057W        W91488  24.069  21.470   3.877
25058W        W91489  21.471  19.299  13.000
25059W        W91490  38.487   5.404  12.034
25060W        W91491  22.973   4.793  10.782
25061W        W91492   7.429   8.284  14.463
25062W        W91493  10.158   9.052  11.466
25063W        W91494  11.278  11.389   4.146
25064W        W91495  24.897   2.737   1.273
25065W        W91496  15.145  16.276   1.585
25066W        W91497  27.063  27.062  11.837
25067W        W91498  30.801  16.683   1.336
25068W        W91499   5.196   4.212  12.940
25069W        W91500   9.365  18.665   1.891
25070W        W91501  36.788   1.400  14.470
25071W        W91502  42.446  34.985   1.636
25072W        W91503  30.402  38.271   4.764
25073W        W91504  26.157  31.064  13.099
25074W        W91505   3.473   8.431   2.266
25075W        W91506   3.520  21.838  13.695
25076W        W91507  20.783  23.208   4.778
25077W        W91508   8.081  40.564   4.635
25078W        W91509  42.898   5.764   1.840
25079W        W91510  36.881  37.031   2.102
25080W        W91511  37.411  17.694  12.612
25081W        W91512  24.265  42.052  12.322
25082W        W91513  12.067   1.631   2.826
25083W        W91514  27.642  19.781  13.402
25084W        W91515  14.420  42.685  12.953
25085W        W91516  16.549  29.959   3.426
25086W        W91517  28.956  10.173  11.835
25087W        W91518   3.920  14.547   1.428
25088W        W91519  37.788  33.960   3.294
25089W        W91520  42.890  10.209  13.501
25090W        W91521  16.096   2.618   4.957
25091W        W91522   5.339  34.589  12.117
25092W        W91523   7.244  10.191  12.536
25093W        W91524  35.152  22.830   2.411
25094W        W91525  24.508  33.225  11.593
25095W        W91526   0.832   1.023   2.764
25096W        W91527   7.880   5.193  11.166
25097W        W91528  43.841  33.170   4.360
25098W        W91529  44.768  20.509   2.396
25099W        W91530  18.728  10.554  12.503
25100W        W91531   3.414  10.376  12.958
25101W        W91532  15.174  33.163  12.257
25102W        W91533  24.709  23.947  12.938
25103W        W91534  24.649  42.299   0.929
25104W        W91535  43.175  26.397  12.461
25105W        W91536  43.968  33.390  13.404
25106W        W91537  29.512  14.050  14.249
25107W        W91538  35.839  42.485   2.758
25108W        W91539  38.885   3.725  11.659
25109W        W91540  16.160   2.448   1.771
25110W        W91541  15.571  38.033  13.055
25111W        W91542   7.611   6.759   3.899
25112W        W91543  38.963  29.493  13.724
25113W        W91544  43.163  20.152   4.497
25114W        W91545  18.649  43.960  12.638
25115W        W91546   9.317  44.378  14.792
25116W        W91547  28.701   6.907  14.785
25117W        W91548  36.786  44.550  14.971
25118W        W91549  44.052  35.163   4.308
25119W        W91550   4.367  15.580   2.222
25120W        W91551  35.015  42.324   3.394
25121W        W91552  42.158  19.186  13.295
25122W        W91553  12.090  20.728  11.094
25123W        W91554  21.608  34.410   2.299
25124W        W91555   3.144   9.607   2.682
25125W        W91556  15.924  14.429   2.180
25126W        W91557  12.595   5.632   0.932
25127W        W91558  39.099  30.692  13.574
25128W        W91559  35.413  28.961  14.455
25129W        W91560   9.888  39.753  10.312
25130W        W91561  22.241  13.951   1.905
25131W        W91562   2.297  22.389   2.375
25132W        W91563  38.444  32.157  12.053
25133W        W91564  44.334  37.132   2.191
25134W        W91565  12.921  43.850  14.394
25135W        W91566  35.362  23.897   1.724
25136W        W91567   2.987  29.582   2.837
25137W        W91568  30.895  19.518   2.758
25138W        W91569  32.832  11.219   0.812
25139W        W91570  23.574  29.593   3.374
25140W        W91571  22.621  20.083  12.000
25141W        W91572  28.447  33.586   1.009
25142W        W91573   2.008  31.995  12.152
25143W        W91574  39.492   5.466   1.865
25144W        W91575   9.037  41.241   5.112
25145W        W91576  35.083   7.132   4.513
25146W        W91577  22.151   8.679  13.149
25147W        W91578  12.384  15.642  12.071
25148W        W91579  16.710  19.543  10.427
25149W        W91580  28.945  36.674  12.150
25150W        W91581  43.960   0.727  10.744
25151W        W91582  14.844  19.478  10.424
25152W        W91583  39.501   1.245  11.069
25153W        W91584  31.400   3.744   4.298
25154W        W91585  21.116   3.420   3.303
25155W        W91586   6.377  44.312  14.784
25156W        W91587  20.375  13.768  14.747
25157W        W91588  42.153  26.338   3.209
25158W        W91589  44.838  29.630  13.856
25159W        W91590  31.226  33.477   2.936
25160W        W91591  30.999  27.672   2.285
25161W        W91592  18.144  43.024   3.114
25162W        W91593  16.765   3.436  11.578
25163W        W91594  42.804  19.987  11.249
25164W        W91595  40.366  34.081  12.398
25165W        W91596  12.293  44.727   2.757
25166W        W91597  14.072  11.796  14.390
25167W        W91598  22.805  37.574   4.612
25168W        W91599   7.959  17.731   4.423
25169W        W91600  18.690  37.569   3.392
25170W        W91601   8.753  21.193   0.072
25171W        W91602   9.629  20.060   4.739
25172W        W91603   2.529  37.984   0.790
25173W        W91604  38.587  15.791  13.847
25174W        W91605   9.137  29.771  12.888
25175W        W91606  10.384   0.193   2.808
25176W        W91607  33.926  23.253  14.523
25177W        W91608  31.571  24.257   0.725
25178W        W91609  12.183  27.612  14.500
25179W        W91610   2.417  37.987   1.384
25180W        W91611  20.849  17.187  11.430
25181W        W91612  16.807  24.415  13.842
25182W        W91613  33.201   0.142  12.516
25183W        W91614  12.150   6.437  10.104
25184W        W91615  13.328  17.531   3.172
25185W        W91616  40.935   2.266   4.191
25186W        W91617  24.018   7.794  14.881
25187W        W91618  35.126  26.765   1.685
25188W        W91619  13.653  37.908   2.609
25189W        W91620   3.968  30.160   0.372
25190W        W91621  25.733  38.333   4.713
25191W        W91622  25.365  43.667  13.444
25192W        W91623  11.265  36.042  11.919
25193W        W91624  40.697  11.876   0.212
25194W        W91625  22.915   2.355  13.160
25195W        W91626   7.320  14.279   3.083
25196W        W91627  32.839  13.634   4.740
25197W        W91628   7.784  30.130  10.855
25198W        W91629  30.053  34.666   2.419
25199W        W91630  32.637  32.999   3.691
25200W        W91631  15.814  16.096   1.780
25201W        W91632  37.826  43.327  14.919
25202W        W91633   8.485   5.934   0.997
25203W        W91634  36.870  44.806   4.651
25204W        W91635  37.344  19.576  12.588
25205W        W91636  34.138  30.477   4.513
25206W        W91637   1.637  35.209   0.780
25207W        W91638  37.223   5.789   0.826
25208W        W91639   6.821   1.955  13.057
25209W        W91640  26.522  33.874  12.902
25210W        W91641   6.293  30.883   2.444
25211W        W91642  28.224   6.916   1.631
25212W        W91643  15.586  37.843   0.352
25213W        W91644  38.465  14.568  10.746
25214W        W91645  13.313  39.614   4.855
25215W        W91646   1.310   8.348   3.615
25216W        W91647  30.924  29.166  14.905
25217W        W91648  20.016  17.364  11.960
25218W        W91649  14.109  43.947   0.496
25219W        W91650   9.741  18.013   2.790
25220W        W91651  28.049   3.236  14.751
25221W        W91652  29.118  44.252   1.891
25222W        W91653   7.107   7.724  12.823
25223W        W91654  15.018  23.002  14.394
25224W        W91655   3.219   6.993  12.208
25225W        W91656  35.994   3.016   4.067
25226W        W91657   8.687  38.330   3.291
25227W        W91658  23.049   8.193   0.863
25228W        W91659  26.292  42.949   3.650
25229W        W91660  39.216   1.922  12.860
25230W        W91661  20.259  25.074   4.548
25231W        W91662  22.147  43.711  11.191
25232W        W91663   7.594  20.275  12.857
25233W        W91664  35.131  23.745  14.423
25234W        W91665  26.665  41.960  10.755
25235W        W91666   0.532  35.821   5.013
25236W        W91667  22.215  41.119   4.624
25237W        W91668  36.400  28.351   4.642
25238W        W91669   2.219  12.652   2.433
25239W        W91670   2.538  10.144  14.019
25240W        W91671  26.463  20.117  12.493
25241W        W91672  26.009  29.445  14.006
25242W        W91673  28.292  44.563   3.598
25243W        W91674  22.549  32.498   2.751
25244W        W91675  41.283   1.484   1.270
25245W        W91676  22.203  28.566   1.135
25246W        W91677  12.573  31.413  13.514
25247W        W91678  15.044  11.843  12.615
25248W        W91679  23.293   2.287   2.867
25249W        W91680   5.722  25.580  11.051
25250W        W91681   1.441  38.596   0.504
25251W        W91682  12.392   4.100   0.361
25252W        W91683   4.000  24.602   3.443
25253W        W91684  19.012  12.336  12.496
25254W        W91685   9.415  16.343  12.949
25255W        W91686  32.606  40.942   0.300
25256W        W91687  18.791   5.705   2.689
25257W        W91688  36.377  27.648  13.880
25258W        W91689   5.659   6.069  14.195
25259W        W91690  22.034  27.915  13.465
25260W        W91691  30.560   2.905  14.866
25261W        W91692  25.762   4.073   2.764
25262W        W91693  23.510  41.350   0.405
25263W        W91694  18.338  34.070  12.889
25264W        W91695  16.610   8.703  13.897
25265W        W91696  33.387  24.118  12.151
25266W        W91697  28.647  15.348  14.468
25267W        W91698  20.759  19.043  12.023
25268W        W91699  28.109  30.880  14.293
25269W        W91700  44.557  39.317   4.247
25270W        W91701  30.552  44.799   0.112
25271W        W91702  38.842   5.898   0.959
25272W        W91703  18.302  43.150   1.284
25273W        W91704   1.148  44.437  11.970
25274W        W91705  24.247  43.188   1.349
25275W        W91706  34.171  43.315   3.126
25276W        W91707   0.971   0.488   0.459
25277W        W91708   0.827  21.521   3.713
25278W        W91709  15.168   1.738  12.510
25279W        W91710   2.225   2.966  11.115
25280W        W91711   6.723  37.411  14.365
25281W        W91712   0.039  16.597  14.554
25282W        W91713  20.958  20.244  12.244
25283W        W91714  43.829  15.257   2.309
25284W        W91715  21.657  24.477   1.103
25285W        W91716  12.627  11.789   2.301
25286W        W91717  29.398  37.117   4.118
25287W        W91718  10.673   3.383  14.931
25288W        W91719   1.471  20.538   1.014
25289W        W91720  38.013  14.820  13.978
25290W        W91721   6.678  19.379  13.991
25291W        W91722  33.848  34.979  14.688
25292W        W91723  35.771   5.192   5.030
25293W        W91724  38.417  33.157   3.130
25294W        W91725   6.794  17.407   4.362
25295W        W91726  27.026  41.497  14.285
25296W        W91727  16.703   3.599   4.052
25297W        W91728  29.067  36.962  14.303
25298W        W91729   6.180  35.517  13.831
25299W        W91730  16.135  26.664  14.573
25300W        W91731  10.222  13.879   0.191
25301W        W91732  33.148  34.023   3.656
25302W        W91733   9.467   0.728   1.298
25303W        W91734  38.864   9.078   9.914
25304W        W91735   2.436   2.559   1.793
25305W        W91736   1.201  15.538  12.133
25306W        W91737  33.841  38.100   0.370
25307W        W91738  39.591  31.944  13.535
25308W        W91739   1.862  13.155   2.930
25309W        W91740   7.777  10.784  13.368
25310W        W91741  29.148  38.475   2.238
25311W        W91742  44.545  43.794   2.683
25312W        W91743  39.934  16.917   2.817
25313W        W91744  16.199  29.672  11.888
25314W        W91745   6.914  25.096  12.114
25315W        W91746  44.955  15.053   3.699
25316W        W91747  36.054  42.254  13.001
25317W        W91748  11.078  17.466   0.356
25318W        W91749  38.014   6.225  13.063
25319W        W91750  43.634  14.209   0.519
25320W        W91751  21.493  12.398   2.889
25321W        W91752  38.226  42.941   9.905
25322W        W91753  11.659  36.051  12.704
25323W        W91754   4.251  23.548   2.236
25324W        W91755   6.411  41.242  14.669
25325W        W91756  16.568  43.249   3.725
25326W        W91757  34.089  24.634  11.181
25327W        W91758  39.636  16.523  14.157
25328W        W91759  22.220  42.020   3.765
25329W        W91760  33.980  43.450   4.871
25330W        W91761   3.147  38.072  11.114
25331W        W91762  10.252   9.124   3.138
25332W        W91763   6.159   9.150  10.646
25333W        W91764  23.958  18.594  12.887
25334W        W91765  21.242  19.490   1.683
25335W        W91766   8.229  38.459  11.709
25336W        W91767   1.183  10.919  11.958
25337W        W91768   1.145  36.892  14.920
25338W        W91769   4.448  28.551  12.799
25339W        W91770  23.144  11.797   3.169
25340W        W91771  33.146   7.962  11.790
25341W        W91772   1.284  26.851  12.078
25342W        W91773  32.472  37.954  12.890
25343W        W91774  30.502   9.327   3.161
25344W        W91775  20.741  23.565   3.433
25345W        W91776   6.914  25.702  14.754
25346W        W91777  15.105  17.272  11.134
25347W        W91778  22.672  41.465  10.804
25348W        W91779  34.314  15.717   2.693
25349W        W91780  44.879  39.853   0.976
25350W        W91781  22.677  37.143  11.528
25351W        W91782   9.121  37.185   3.779
25352W        W91783  17.756  35.892   2.137
25353W        W91784  31.373  42.378  13.904
25354W        W91785  27.367  17.074   3.838
25355W        W91786  31.085   8.352   4.540
25356W        W91787   4.507   4.010   1.931
25357W        W91788   1.323  10.157   4.341
25358W        W91789  27.051  32.996   3.691
25359W        W91790  41.665  21.095   2.892
25360W        W91791  26.522  15.845   4.092
25361W        W91792  19.727  29.037   4.195
25362W        W91793  27.342  40.107   1.112
25363W        W91794  24.704  29.937  14.162
25364W        W91795  41.853   9.840   0.546
25365W        W91796  38.721   9.542   3.267
25366W        W91797  41.971  17.124   1.727
25367W        W91798   9.240  13.089   3.068
25368W        W91799  21.681  24.078  13.107
25369W        W91800  43.442  37.756  14.722
25370W        W91801  18.597  34.382   2.234
25371W        W91802  30.142  18.939   0.763
25372W        W91803  41.823  31.694   0.282
25373W        W91804  30.988   0.863   1.538
25374W        W91805  30.518   7.314   0.882
25375W        W91806  12.927   3.747  12.453
25376W        W91807   7.290  22.534  13.804
25377W        W91808   9.685  42.596   5.041
25378W        W91809  15.397  24.553  13.766
25379W        W91810   6.701  16.877   4.478
25380W        W91811  40.044   0.702   2.182
25381W        W91812  17.240  19.058  11.933
25382W        W91813  26.184  21.564  12.444
25383W        W91814  18.579  36.462   1.295
25384W        W91815  18.753  23.068   1.923
25385W        W91816   6.387   4.488   2.718
25386W        W91817   4.758   2.775  11.977
25387W        W91818  37.997  14.601  12.976
25388W        W91819  23.038  43.475  10.758
25389W        W91820  30.601  42.415   1.830
25390W        W91821   0.282   7.653  10.804
25391W        W91822  42.854   5.166   4.147
25392W        W91823  21.532  25.005   0.922
25393W        W91824  20.752  38.365   1.699
25394W        W91825  24.600   1.012  11.906
25395W        W91826  21.865  14.196   4.282
25396W        W91827   3.452   4.176   0.803
25397W        W91828   0.141   7.342   0.548
25398W        W91829  25.240  12.207  14.298
25399W        W91830  24.123  34.333  11.032
25400W        W91831  31.449   6.862   2.347
25401W        W91832  38.893  10.953   4.514
25402W        W91833  32.000  43.765  11.526
25403W        W91834  28.180   1.305   4.101
25404W        W91835  34.146  37.592   4.041
25405W        W91836  22.715   3.528  11.426
25406W        W91837  44.328  36.516  11.862
25407W        W91838  14.244   0.241   4.466
25408W        W91839  18.088  19.736  12.906
25409W        W91840  31.374   1.704  14.781
25410W        W91841  36.198   6.686   1.045
25411W        W91842  24.574  33.695   3.136
25412W        W91843  24.748  14.277   3.669
25413W        W91844  16.218  25.174   0.725
25414W        W91845   2.384  33.493   2.668
25415W        W91846   7.175  44.224  13.616
25416W        W91847  39.607  35.553   4.586
25417W        W91848  27.567  27.539   4.363
25418W        W91849  16.734  31.603   4.205
25419W        W91850  28.005   9.580  14.586
25420W        W91851  22.272   2.831   2.578
25421W        W91852  16.557  18.493  13.600
25422W        W91853   7.564   2.906   3.246
25423W        W91854  21.302  26.495   4.314
25424W        W91855  19.192   6.082  13.660
25425W        W91856  42.304  27.231   0.313
25426W        W91857   1.029   3.971  12.936
25427W        W91858   0.305  33.601  13.924
25428W        W91859  16.711  20.689  10.633
25429W        W91860  43.784  36.094  12.910
25430W        W91861  42.300  25.601  12.925
25431W        W91862  41.748  32.115   2.763
25432W        W91863  30.405   5.411   3.800
25433W        W91864   9.561  36.824   1.946
25434W        W91865  19.556  24.711   0.382
25435W        W91866  40.059  28.970   2.285
25436W        W91867  31.693  31.917  12.293
25437W        W91868  33.562  23.455  12.487
25438W        W91869   6.799   3.021  12.124
25439W        W91870   0.506  19.372   3.687
25440W        W91871   3.463  15.782   0.318
25441W        W91872  44.720  20.042   0.930
25442W        W91873   3.399   5.182  14.890
25443W        W91874  19.079  21.619  11.025
25444W        W91875  20.766  30.223  13.546
25445W        W91876   6.337  28.562  13.336
25446W        W91877  31.219  27.648   3.458
25447W        W91878  17.379  42.862   3.782
25448W        W91879   2.472   9.614   1.461
25449W        W91880   9.287  33.361  11.721
25450W        W91881  26.941  39.602  14.465
25451W        W91882  11.290  13.042   1.926
25452W        W91883  41.950  40.721  14.859
25453W        W91884  20.120  36.596   3.389
25454W        W91885  15.350  31.455  11.191
25455W        W91886  23.395   2.211  13.043
25456W        W91887  10.178  26.995  13.714
25457W        W91888  13.312  22.752   2.901
25458W        W91889   9.375  11.218   0.461
25459W        W91890  13.382  40.442   1.431
25460W        W91891  11.106   5.162  12.923
25461W        W91892  15.564  14.585   1.342
25462W        W91893  26.623   5.107   0.783
25463W        W91894  27.742  29.812  12.931
25464W        W91895  12.472  20.524  13.435
25465W        W91896  34.281  33.069  12.097
25466W        W91897  26.051  14.596  10.936
25467W        W91898  29.970  19.207   2.557
25468W        W91899  17.598  11.352   1.763
25469W        W91900   6.155  18.723   3.669
25470W        W91901  20.617  30.274   4.179
25471W        W91902  33.601   8.378   4.194
25472W        W91903   4.192  16.705   3.244
25473W        W91904  32.983   8.921  14.715
25474W        W91905  33.810  28.190  13.302
25475W        W91906  41.277   4.571  10.532
25476W        W91907  41.491  20.234   1.643
25477W        W91908  20.119  15.697   0.767
25478W        W91909  26.113  43.962  11.999
25479W        W91910  23.984  37.342  11.214
25480W        W91911  27.169  37.868   0.257
25481W        W91912  17.419   2.524   0.555
25482W        W91913  36.611  21.810   2.153
25483W        W91914  33.678  43.913  10.038
25484W        W91915  34.735  44.563  11.683
25485W        W91916  16.804  33.119   1.713
25486W        W91917  34.621   9.828  13.825
25487W        W91918  27.570  44.319  11.405
25488W        W91919  43.691  44.432  11.149
25489W        W91920   0.998  17.738  11.908
25490W        W91921   9.249  25.442  11.168
25491W        W91922  38.816  17.027  13.580
25492W        W91923  27.557  40.746   1.880
25493W        W91924  43.984  34.459  11.108
25494W        W91925  37.259  20.097  10.500
25495W        W91926   5.630   9.350   0.852
25496W        W91927  36.626  36.990   2.578
25497W        W91928  27.962  43.021   1.946
25498W        W91929  10.425  12.018   1.644
25499W        W91930  36.640   8.646   2.244
25500W        W91931  12.792  12.725   1.602
25501W        W91932  23.409  41.964   3.228
25502W        W91933  39.904  33.216   0.764
25503W        W91934   9.103  23.108   0.264
25504W        W91935  44.882  24.279  12.030
25505W        W91936  21.423  38.382   4.100
25506W        W91937  20.417  17.267  12.306
25507W        W91938   9.803  30.410  13.520
25508W        W91939  40.379  26.731   4.209
25509W        W91940  11.217  33.323  12.501
25510W        W91941  35.148  36.125  11.133
25511W        W91942   3.447   7.889   3.360
25512W        W91943  17.730  37.561  13.534
25513W        W91944   7.636  36.167   2.220
25514W        W91945  28.724  18.941  14.896
25515W        W91946  31.660   9.231   0.410
25516W        W91947  15.678  30.174  13.663
25517W        W91948   6.877  18.937  10.895
25518W        W91949  14.185  23.431  14.949
25519W        W91950  44.041   6.807  12.870
25520W        W91951  11.729   1.247   3.262
25521W        W91952  32.184  14.867   0.352
25522W        W91953   1.680  29.091   1.837
25523W        W91954  26.466  23.954   3.270
25524W        W91955  41.103  41.660   0.912
25525W        W91956  33.371  24.793  12.936
25526W        W91957  16.800  33.889  14.711
25527W        W91958   9.373  30.874   3.241
25528W        W91959  42.369  34.388  12.065
25529W        W91960  36.532  27.625   1.977
25530W        W91961  13.082  21.675  13.533
25531W        W91962  20.345  36.461  14.970
25532W        W91963  24.750  17.314   0.412
25533W        W91964  20.602  21.289  13.108
25534W        W91965  43.314  24.524   1.744
25535W        W91966  43.494  42.164   1.242
25536W        W91967  11.578  10.817  12.443
25537W        W91968  14.142  23.167   3.598
25538W        W91969  31.101   1.244   0.802
25539W        W91970  42.381  13.174  12.470
25540W        W91971  12.327  20.381  12.506
25541W        W91972  36.543   1.968   3.655
25542W        W91973  11.252  10.538  12.864
25543W        W91974   5.342   6.999   3.716
25544W        W91975   9.318  36.483  12.963
25545W        W91976  35.890  13.693  12.045
25546W        W91977  19.296  16.714   2.465
25547W        W91978   0.367  27.492   2.794
25548W        W91979  31.125  14.773   2.648
25549W        W91980   2.200  38.830   3.626
25550W        W91981  35.153  43.780  11.991
25551W        W91982  28.580  24.088   3.808
25552W        W91983  42.558  29.787   1.613
25553W        W91984  29.019  20.484   2.481
25554W        W91985  29.383  37.946   1.370
25555W        W91986  22.357   8.898  13.922
25556W        W91987  20.887  15.873  12.024
25557W        W91988  44.929  33.646  14.314
25558W        W91989   2.896  42.363  13.955
25559W        W91990   9.431  20.645   3.121
25560W        W91991  19.246  18.572   2.278
25561W        W91992  13.570  37.069  11.512
25562W        W91993  22.051  36.374   3.197
25563W        W91994   5.803  29.811   1.710
25564W        W91995  37.620  30.212   2.165
25565W        W91996   4.317   5.408   3.204
25566W        W91997  39.763  32.171   0.890
25567W        W91998  43.008  12.859  10.792
25568W        W91999  10.522  34.546  13.991
25569W        W92000  44.811  16.188   0.432
25570W        W92001  39.520   8.357  11.040
25571W        W92002   1.802  23.509  13.931
25572W        W92003  28.354   3.250   4.193
25573W        W92004  11.636  14.564  12.343
25574W        W92005  14.336   3.925   0.436
25575W        W92006  29.060   8.847   1.256
25576W        W92007  32.570  37.118   3.550
25577W        W92008  34.831   5.742  14.406
25578W        W92009  24.726  41.469  14.564
25579W        W92010  29.926  16.504  11.242
25580W        W92011  35.326  26.633  10.630
25581W        W92012  11.686  23.082   0.535
25582W        W92013   1.394  10.621   3.637
25583W        W92014  40.958  10.687   0.966
25584W        W92015  10.451  16.751  13.334
25585W        W92016  34.536  15.131   1.841
25586W        W92017  31.531  36.950  12.076
25587W        W92018  20.067  38.436   2.286
25588W        W92019  41.782   3.931  14.447
25589W        W92020   7.633   4.855  10.661
25590W        W92021   9.556  20.044  13.757
25591W        W92022  44.906  41.860  14.065
25592W        W92023  25.022  11.967  13.528
25593W        W92024  29.119  16.255  10.747
25594W        W92025  28.083  22.741  14.465
25595W        W92026   0.526   0.686   3.666
25596W        W92027  23.125  13.842  12.035
25597W        W92028  19.062  12.836   3.281
25598W        W92029  37.489  37.017  14.815
25599W        W92030  34.526   4.300   0.205
25600W        W92031  10.258  41.594   0.319
25601W        W92032   8.870  40.979  10.693
25602W        W92033  41.539  36.320   1.326
25603W        W92034  18.279  20.669   4.432
25604W        W92035  27.686  35.463  13.555
25605W        W92036  36.045  20.360   4.539
25606W        W92037   9.439  26.541   2.440
25607W        W92038  36.024  23.161   1.687
25608W        W92039  24.199  20.399   2.828
25609W        W92040  25.978  27.044  11.498
25610W        W92041   5.912  12.455  10.991
25611W        W92042  38.372  11.274  14.795
25612W        W92043  32.143  13.067   1.008
25613W        W92044  34.525  39.718  10.623
25614W        W92045  20.495  19.075  14.822
25615W        W92046  32.045  11.736  13.967
25616W        W92047  43.387  34.802   2.097
25617W        W92048  16.682  12.509   1.236
25618W        W92049  35.628  30.391   2.231
25619W        W92050  39.497  29.683  12.884
25620W        W92051  20.369  11.785   1.780
25621W        W92052  12.246  37.888   0.683
25622W        W92053  18.519  33.406   3.669
25623W        W92054  39.826  32.358  13.713
25624W        W92055  12.454  40.674  14.966
25625W        W92056  39.988  16.477  11.055
25626W        W92057  40.181  25.101   3.678
25627W        W92058  32.606   5.904  12.106
25628W        W92059  15.085  22.624   0.339
25629W        W92060  19.784  37.890   1.784
25630W        W92061  33.098   1.000  14.992
25631W        W92062  42.631  23.170   1.303
25632W        W92063  21.083  23.449   0.419
25633W        W92064   2.206   8.710   4.462
25634W        W92065  11.892  32.699  12.946
25635W        W92066   8.329   7.502   1.792
25636W        W92067  22.213  29.041  12.902
25637W        W92068  41.372  27.921   3.625
25638W        W92069   0.695  23.985  12.526
25639W        W92070  24.841  35.225  12.539
25640W        W92071  42.987   4.043   4.136
25641W        W92072   6.512   8.263   1.917
25642W        W92073   7.640  43.521   0.643
25643W        W92074  38.242  30.642   3.206
25644W        W92075   3.544   5.909   1.353
25645W        W92076  35.621  10.481  14.232
25646W        W92077   6.276  40.989   0.919
25647W        W92078   0.303  15.734   2.353
25648W        W92079   4.330  26.427   2.394
25649W        W92080  38.736  13.894   2.347
25650W        W92081  35.452  17.041  11.893
25651W        W92082  28.209  35.157  11.757
25652W        W92083  29.475  38.978  13.109
25653W        W92084  21.808  23.903  12.605
25654W        W92085  28.965   5.274   2.673
25655W        W92086  12.224  23.775   1.681
25656W        W92087  26.849  32.597  10.221
25657W        W92088  38.938  10.409   4.557
25658W        W92089  31.580  20.781   2.883
25659W        W92090  43.046   7.060   1.303
25660W        W92091  38.925  15.249  12.113
25661W        W92092  20.191  34.837  13.815
25662W        W92093  41.922   8.406   3.198
25663W        W92094   3.733   2.633   3.204
25664W        W92095   6.955  25.801   2.178
25665W        W92096  20.503  13.145   4.214
25666W        W92097  40.419  40.809  13.790
25667W        W92098   7.373   6.704  14.266
25668W        W92099  32.184   2.447  10.639
25669W        W92100   0.701  33.644  14.272
25670W        W92101  19.348  15.067   1.762
25671W        W92102   2.848  23.125  10.620
25672W        W92103  27.913   0.914   3.887
25673W        W92104   5.771  41.520   0.262
25674W        W92105  21.931  41.087  12.647
25675W        W92106  38.425  27.130  12.523
25676W        W92107  12.351  24.603   0.961
25677W        W92108  40.375  20.041   3.532
25678W        W92109   7.436  20.142   4.077
25679W        W92110  18.630  15.593  14.874
25680W        W92111  43.192  16.753   0.509
25681W        W92112  17.927  34.943  13.689
25682W        W92113  43.922  13.311   0.115
25683W        W92114  27.676  24.127  13.518
25684W        W92115   9.110  29.855  11.956
25685W        W92116  10.114   3.726   4.550
25686W        W92117  30.014  29.744   0.913
25687W        W92118  13.626  38.434   2.747
25688W        W92119   3.330  39.825  12.927
25689W        W92120  38.974  20.814  14.155
25690W        W92121  28.701  20.595   4.223
25691W        W92122   4.267  36.012  13.350
25692W        W92123  11.660  27.738   3.810
25693W        W92124  27.420  40.313  13.035
25694W        W92125  44.919   2.615   1.877
25695W        W92126  40.947  28.627  11.649
25696W        W92127  38.922  10.097   2.419
25697W        W92128  34.378  35.260  13.756
25698W        W92129   4.289  16.348  13.733
25699W        W92130  21.206  33.309   4.649
25700W        W92131  16.783  10.404   3.812
25701W        W92132  18.277  38.091   2.690
25702W        W92133  36.528  12.607   4.101
25703W        W92134  16.075  25.281   2.476
25704W        W92135  16.123  43.845   3.821
25705W        W92136  42.834  25.136  13.319
25706W        W92137  17.669  40.568  11.538
25707W        W92138  35.523  17.620  14.538
25708W        W92139  24.800  42.207  13.544
25709W        W92140  10.646  40.100   1.457
25710W        W92141  44.760   5.638   2.886
25711W        W92142  40.905  39.103  12.385
25712W        W92143  10.672  21.817   2.770
25713W        W92144  27.035   0.238  11.309
25714W        W92145  32.397  35.957   1.415
25715W        W92146  32.002  11.143   4.143
25716W        W92147  42.054  24.308  10.946
25717W        W92148  34.414  44.181  11.531
25718W        W92149  39.055   7.503   4.999
25719W        W92150  35.223  25.432   0.311
25720W        W92151  43.859  21.324  10.548
25721W        W92152  41.824   3.693   4.893
25722W        W92153  38.365  10.791  14.971
25723W        W92154  21.832  38.458   0.842
25724W        W92155  17.396  36.398  13.473
25725W        W92156   9.914  29.957  13.342
25726W        W92157  22.028  24.640  13.327
25727W        W92158  15.575  15.667  14.061
25728W        W92159  25.442  32.195  14.717
25729W        W92160  20.756   5.847  10.855
25730W        W92161  36.508   7.296  11.374
25731W        W92162   5.580  15.532   5.314
25732W        W92163  34.617   7.717   0.484
25733W        W92164  41.822   3.203   2.243
25734W        W92165  40.630  37.313  14.035
25735W        W92166  12.646  37.681   4.206
25736W        W92167  18.808  17.423   2.776
25737W        W92168   6.131  41.980  12.458
25738W        W92169  22.359  24.152   4.873
25739W        W92170  34.817  22.866  14.906
25740W        W92171   5.215  11.640  13.817
25741W        W92172  36.484  25.533   4.551
25742W        W92173  13.165   3.499   0.051
25743W        W92174  17.244  33.177   0.845
25744W        W92175  25.047  19.692  11.478
25745W        W92176  44.521  11.790   0.921
25746W        W92177  21.975  33.537   3.189
25747W        W92178   1.104  38.835  10.544
25748W        W92179   2.247  40.060   3.125
25749W        W92180  14.993  28.920  14.943
25750W        W92181  25.705  41.412   0.330
25751W        W92182   2.940  20.180  12.362
25752W        W92183  24.499  32.463   3.616
25753W        W92184  29.461   8.894  10.653
25754W        W92185   9.714   8.255  11.701
25755W        W92186  21.586  27.238  13.628
25756W        W92187  13.807  20.174  12.063
25757W        W92188   8.761  40.024   3.654
25758W        W92189   3.435  10.564  13.457
25759W        W92190  22.108   1.186   0.791
25760W        W92191   7.413   9.316   1.543
25761W        W92192  24.679  36.870   3.743
25762W        W92193   2.650   6.193   1.261
25763W        W92194  22.626  28.138   4.644
25764W        W92195  17.366  13.810   2.482
25765W        W92196  30.899   5.622   1.269
25766W        W92197   5.847   7.916  11.383
25767W        W92198  35.346  34.497   2.714
25768W        W92199  21.453  12.697   3.320
25769W        W92200  40.990  15.084   2.732
25770W        W92201  42.502  15.715   3.279
25771W        W92202  36.996   9.780   4.039
25772W        W92203  28.737   6.420   3.922
25773W        W92204  39.902  23.286   1.721
25774W        W92205  17.208  37.865   3.235
25775W        W92206  33.976  39.044   3.183
25776W        W92207  24.606  14.259   0.286
25777W        W92208  15.551  13.692   9.760
25778W        W92209  38.775  42.232  12.121
25779W        W92210  18.654  23.533  10.680
25780W        W92211  15.980  23.825   3.530
25781W        W92212  28.608  35.603   0.971
25782W        W92213   1.810  11.829  11.619
25783W        W92214  30.903  16.103   5.032
25784W        W92215  16.321  24.696  12.976
25785W        W92216  13.306  17.795   2.327
25786W        W92217  21.033  36.630   3.134
25787W        W92218  23.476  31.130  14.745
25788W        W92219  38.878  31.724   2.486
25789W        W92220  37.440   4.898  13.245
25790W        W92221  14.337  34.625  10.697
25791W        W92222  10.232  27.560  14.286
25792W        W92223   0.026   8.641  11.157
25793W        W92224  16.320  17.843   4.035
25794W        W92225  33.371  20.229  14.430
25795W        W92226  12.415  25.666   0.110
25796W        W92227  14.137  31.332   4.585
25797W        W92228   2.644  10.672  13.884
25798W        W92229  33.851   5.500   4.120
25799W        W92230  19.076   5.312   3.896
25800W        W92231   3.529  42.919   2.870
25801W        W92232  20.879  35.976   2.031
25802W        W92233  27.563  35.956   3.195
25803W        W92234  24.422  36.245  14.000
25804W        W92235  11.023  18.059   3.156
25805W        W92236  15.650  30.582   1.339
25806W        W92237  14.147   3.646   1.774
25807W        W92238  12.104  34.365   1.005
25808W        W92239  36.196  37.617  12.657
25809W        W92240  42.898  22.248  10.600
25810W        W92241  29.037  27.936   2.353
25811W        W92242  14.974  30.590   3.816
25812W        W92243  15.278  35.403   3.641
25813W        W92244  41.868  33.216   4.379
25814W        W92245   5.651  18.202   2.738
25815W        W92246  44.310  14.530   4.132
25816W        W92247  19.169  27.501   4.684
25817W        W92248  30.850  33.472  10.689
25818W        W92249   1.254  37.788  10.701
25819W        W92250   0.032  35.977  13.388
25820W        W92251  12.074  29.840   4.981
25821W        W92252  39.111  40.226   3.541
25822W        W92253  37.117  29.665   0.126
25823W        W92254  16.700  32.678   1.973
25824W        W92255  29.873   5.356   1.431
25825W        W92256   2.247  43.991  13.776
25826W        W92257  14.182  34.156   4.079
25827W        W92258  25.446  34.206  11.848
25828W        W92259   0.573  21.096   1.753
25829W        W92260  11.758  37.505   2.672
25830W        W92261  38.920  32.109  12.863
25831W        W92262  30.013   8.934   5.079
25832W        W92263  18.760  28.708   0.716
25833W        W92264  27.522  20.890   4.037
25834W        W92265   4.421  44.020  11.857
25835W        W92266  37.434  21.356   4.770
25836W        W92267   0.370  43.941  13.843
25837W        W92268   0.947  19.028   1.320
25838W        W92269  28.549  20.238   2.619
25839W        W92270  15.612  29.489   4.759
25840W        W92271  39.923  23.598  14.133
25841W        W92272  21.703  12.103   0.924
25842W        W92273  29.088  43.394  12.453
25843W        W92274   9.119  38.561   1.306
25844W        W92275   4.803  31.832   4.097
25845W        W92276  26.549   5.783  11.935
25846W        W92277   5.781  14.019  13.898
25847W        W92278  40.058  14.629   2.734
25848W        W92279  44.471  28.274   1.212
25849W        W92280  17.879   6.178  11.994
25850W        W92281   2.402  13.252  14.411
25851W        W92282  27.394  34.395   0.467
25852W        W92283  19.349  27.481  11.658
25853W        W92284  12.428  27.522   1.796
25854W        W92285   2.890   9.796  13.290
25855W        W92286  34.058  41.369   2.861
25856W        W92287  14.699  16.319  10.855
25857W        W92288   4.657  18.051  14.331
25858W        W92289   0.082   8.114   4.142
25859W        W92290  24.771   9.260   4.772
25860W        W92291   6.788  39.989   0.299
25861W        W92292  38.862  34.813  12.853
25862W        W92293  28.537  34.991  10.780
25863W        W92294  36.973  10.443   2.243
25864W        W92295  10.440  37.459  11.867
25865W        W92296  11.521  37.517   0.497
25866W        W92297  25.719  32.523  11.595
25867W        W92298   9.764  21.903   3.229
25868W        W92299   9.762  30.024   1.329
25869W        W92300  31.461   1.471   3.292
25870W        W92301  28.706  14.337   4.022
25871W        W92302  28.665  41.982   0.332
25872W        W92303  41.564  43.956  12.604
25873W        W92304  31.462   6.150   4.126
25874W        W92305  34.473  23.626   4.537
25875W        W92306  29.140  40.216   4.957
25876W        W92307  15.235  33.384  14.414
25877W        W92308  38.400   5.351  10.760
25878W        W92309  34.324  19.194   3.782
25879W        W92310   8.638  15.208   1.606
25880W        W92311  35.879  28.042  14.300
25881W        W92312   3.422  44.700   1.443
25882W        W92313  20.160  35.442   4.660
25883W        W92314  29.104   7.101   0.677
25884W        W92315   7.287  20.123   1.572
25885W        W92316  31.963  25.755  13.836
25886W        W92317  19.059  40.627  14.830
25887W        W92318  37.149  32.986   5.448
25888W        W92319  33.820  36.727  10.795
25889W        W92320  21.699  33.844  11.589
25890W        W92321   3.374  40.039  12.437
25891W        W92322  38.027  38.665   3.637
25892W        W92323  30.699   2.740   3.650
25893W        W92324  44.377   8.943  14.646
25894W        W92325   8.519   0.265  14.727
25895W        W92326  11.754  28.724   4.799
25896W        W92327  35.482  36.851  10.728
25897W        W92328  28.652  12.315  10.715
25898W        W92329   0.992  44.497   3.103
25899W        W92330  21.803   3.224   5.010
25900W        W92331   2.431  41.604  13.167
25901W        W92332  22.520  15.060   1.750
25902W        W92333  16.914  24.677   9.923
25903W        W92334   7.580  26.437   4.136
25904W        W92335  43.619  22.129   2.546
25905W        W92336  10.714  11.283  13.392
25906W        W92337  31.606  31.436   4.100
25907W        W92338   6.832  29.656  13.442
25908W        W92339  38.630   1.194  10.674
25909W        W92340  33.078  34.678   0.448
25910W        W92341   4.645  23.397  10.380
25911W        W92342  33.211  18.436   1.976
25912W        W92343  29.464  32.243   1.778
25913W        W92344  11.771  39.538  14.389
25914W        W92345   0.090   4.687   1.173
25915W        W92346  15.224  12.984   0.836
25916W        W92347  42.268  15.041   4.276
25917W        W92348  10.314  24.504  14.010
25918W        W92349  10.852  31.980  11.272
25919W        W92350   8.399  43.105   3.218
25920W        W92351   2.515  34.804   3.212
25921W        W92352  27.721  36.986   1.505
25922W        W92353  33.287  34.277   1.269
25923W        W92354  13.400  43.857  14.967
25924W        W92355   2.971  27.521   0.765
25925W        W92356  13.206  34.924   1.050
25926W        W92357  14.584  43.931   1.823
25927W        W92358  44.856   9.608  14.625
25928W        W92359  28.542   9.461   1.791
25929W        W92360  21.643   0.020  13.474
25930W        W92361  34.270  13.532   1.798
25931W        W92362  12.153  31.469   4.345
25932W        W92363  43.868   2.350   1.265
25933W        W92364   8.107   3.482   2.509
25934W        W92365  17.546   5.750   3.103
25935W        W92366  24.209   0.128  10.500
25936W        W92367  44.307  32.558   4.909
25937W        W92368  24.770  40.370  14.869
25938W        W92369  32.990  33.525   3.565
25939W        W92370  26.752  22.072  14.733
25940W        W92371  28.811  13.867   4.401
25941W        W92372  39.556  35.693  14.263
25942W        W92373  37.463  18.520   2.733
25943W        W92374  39.216  38.090  11.957
25944W        W92375  37.934  14.827  10.622
25945W        W92376  31.927  11.460   3.740
25946W        W92377  32.027   3.401   0.146
25947W        W92378  15.664   3.244  12.030
25948W        W92379  33.918  23.054  14.994
25949W        W92380  34.565  36.150   1.790
25950W        W92381  11.164  23.080   1.286
25951W        W92382  33.132   6.542  12.874
25952W        W92383  14.954  23.135   2.709
25953W        W92384  40.072   9.576   2.968
25954W        W92385  33.468   7.328   3.107
25955W        W92386  43.236  43.530  14.398
25956W        W92387  18.577  15.073   1.238
25957W        W92388   1.293  27.514   2.646
25958W        W92389  27.858  30.395  10.106
25959W        W92390  35.514  37.253   0.822
25960W        W92391  14.583  15.503   3.882
25961W        W92392  10.510   1.344  12.532
25962W        W92393  13.300  36.494   4.882
25963W        W92394  43.572  22.811  10.819
25964W        W92395   9.042  32.572   3.815
25965W        W92396   4.905  12.318  12.790
25966W        W92397  22.179  42.380   1.983
25967W        W92398  10.248  17.080   2.176
25968W        W92399  32.998   9.642   4.783
25969W        W92400  12.154   6.656   4.075
25970W        W92401   5.787  28.215  14.308
25971W        W92402  22.440   9.943   1.771
25972W        W92403  24.119   0.366  13.786
25973W        W92404  21.083  11.895   4.476
25974W        W92405  36.501  15.374   3.189
25975W        W92406  26.424  13.162  13.392
25976W        W92407  10.317   5.275  13.414
25977W        W92408  30.030  21.448  12.407
25978W        W92409  32.434  29.638  11.103
25979W        W92410   6.860  28.073  12.549
25980W        W92411  38.881  21.407  13.963
25981W        W92412   1.449  37.123  13.114
25982W        W92413  37.859  25.656   1.248
25983W        W92414  25.470   5.702   1.803
25984W        W92415   5.626  42.973  13.431
25985W        W92416  10.793  18.699   3.699
25986W        W92417  31.205  13.211   4.145
25987W        W92418  23.013  16.882   2.271
25988W        W92419  11.887  12.749  12.349
25989W        W92420   6.906  23.441   0.281
25990W        W92421  16.107  38.516   2.049
25991W        W92422  41.295  17.015  13.094
25992W        W92423  10.080  32.650   0.783
25993W        W92424  23.309  17.222  11.041
25994W        W92425  26.043  33.654   3.955
25995W        W92426  20.695  10.639  10.601
25996W        W92427  17.775  33.973   1.231
25997W        W92428  22.468  42.986   2.492
25998W        W92429  32.316  37.999   1.408
25999W        W92430  20.400  32.371  14.497
26000W        W92431   2.209  15.292   1.282
26001W        W92432   6.285  15.411   9.794
26002W        W92433  38.975  33.321   0.771
26003W        W92434   5.295   3.552  12.097
26004W        W92435   2.729   2.520   2.762
26005W        W92436  22.050   1.703   0.914
26006W        W92437  32.119  42.284   2.083
26007W        W92438   3.063  20.992   3.685
26008W        W92439  19.560  40.129   0.786
26009W        W92440   7.365  19.318   0.217
26010W        W92441  27.942  31.637  11.912
26011W        W92442  14.804  11.244   3.341
26012W        W92443  36.193  31.633  13.235
26013W        W92444  14.341  20.558   3.243
26014W        W92445  26.871  42.287  12.412
26015W        W92446  14.458  23.172   2.601
26016W        W92447  12.647  27.640   3.089
26017W        W92448   8.361  31.081   2.323
26018W        W92449   4.675  22.613   2.134
26019W        W92450  26.975  38.145  13.058
26020W        W92451  33.643  12.727  14.484
26021W        W92452  14.162  28.087  13.464
26022W        W92453  14.821  31.954   0.170
26023W        W92454  41.470   8.098  13.861
26024W        W92455  22.025  33.691  12.477
26025W        W92456  23.552  16.874   2.766
26026W        W92457  33.989  12.875   2.470
26027W        W92458  27.202   7.877   1.176
26028W        W92459  11.994  26.710   9.708
26029W        W92460  37.954   5.863   1.438
26030W        W92461  39.381   6.726  13.074
26031W        W92462  43.085  42.574   0.966
26032W        W92463  14.792   8.206  11.229
26033W        W92464   9.644  27.980   0.004
26034W        W92465  24.111  39.333  12.979
26035W        W92466  32.997   2.554   3.507
26036W        W92467  36.032  11.214  13.622
26037W        W92468   4.981  38.022   0.439
26038W        W92469  39.638  18.280   4.112
26039W        W92470   6.126   3.182   3.342
26040W        W92471  41.489   4.676  11.521
26041W        W92472  20.095  21.138  14.361
26042W        W92473  18.435  27.631  12.556
26043W        W92474  10.579   9.795  13.865
26044W        W92475  20.193  20.463   1.947
26045W        W92476   4.010  40.022  10.767
26046W        W92477  41.743  24.247   1.685
26047W        W92478  40.467  22.284   0.274
26048W        W92479  14.486  38.982   3.363
26049W        W92480   3.425  33.607   0.337
26050W        W92481  42.843   5.457  13.542
26051W        W92482   9.235   1.162  11.055
26052W        W92483  38.091  25.992   4.158
26053W        W92484  17.206  16.038  13.993
26054W        W92485   7.831  43.601  12.057
26055W        W92486   7.823  11.269   4.587
26056W        W92487  35.383  24.939   0.456
26057W        W92488   1.740  28.081   3.252
26058W        W92489  10.103  22.088   2.325
26059W        W92490  44.889  31.907   4.600
26060W        W92491  25.064  19.596  13.974
26061W        W92492  33.608  32.447  11.458
26062W        W92493  21.207  30.431  13.360
26063W        W92494  27.829  29.537  14.302
26064W        W92495  12.791   8.932   2.202
26065W        W92496  26.974   4.936  11.563
26066W        W92497  21.084  43.497   4.800
26067W        W92498  31.228  28.645  12.592
26068W        W92499  11.889  20.562  11.703
26069W        W92500  15.661  41.490  10.728
26070W        W92501  37.522   2.552   0.692
26071W        W92502  28.984  11.691  13.053
26072W        W92503  18.377  20.020  11.856
26073W        W92504  42.325  29.176   3.869
26074W        W92505  37.520   3.250  11.607
26075W        W92506   5.104  44.340   2.690
26076W        W92507   7.255  43.262   1.294
26077W        W92508  32.576   7.647   3.150
26078W        W92509  35.213   6.860   0.743
26079W        W92510  44.819  10.673   4.536
26080W        W92511  15.265  37.125  14.011
26081W        W92512  13.344  34.824  11.110
26082W        W92513  17.636  33.094   3.308
26083W        W92514  44.530  15.075  11.543
26084W        W92515  28.631   7.208   1.486
26085W        W92516   7.258   1.307  14.133
26086W        W92517  41.739  42.283  11.160
26087W        W92518   9.782  40.993   0.308
26088W        W92519  34.027  19.313  11.133
26089W        W92520  33.520  30.515  10.593
26090W        W92521  44.847  33.839   0.866
26091W        W92522  32.201   9.740  11.201
26092W        W92523   4.290  16.697   0.939
26093W        W92524  40.403  31.847  12.994
26094W        W92525  41.055  20.700  14.724
26095W        W92526  40.068  19.155   4.530
26096W        W92527  31.011  30.183   1.275
26097W        W92528  13.334  42.428   3.716
26098W        W92529  23.446  33.313   0.577
26099W        W92530   9.096  18.597   1.425
26100W        W92531  43.021   1.026   2.341
26101W        W92532  23.691  41.844   2.136
26102W        W92533  39.892  39.319  12.409
26103W        W92534  40.925  27.510  12.463
26104W        W92535  32.960  38.705   2.875
26105W        W92536  18.218  19.604   3.759
26106W        W92537  28.998   0.779  14.718
26107W        W92538  40.840  36.807   1.476
26108W        W92539  39.440   2.768   4.175
26109W        W92540  41.002   6.778   0.653
26110W        W92541  22.175   3.469   3.237
26111W        W92542  29.638  15.078   2.460
26112W        W92543  44.057  41.352   1.725
26113W        W92544  19.666  11.637  11.457
26114W        W92545  25.659  16.562   2.336
26115W        W92546  37.728  21.026  11.749
26116W        W92547  43.102  44.500  13.032
26117W        W92548   9.788  11.237   0.821
26118W        W92549  16.865  12.209   4.224
26119W        W92550  38.155  36.341   4.062
26120W        W92551  31.676  30.610  14.704
26121W        W92552  30.863   8.694   3.586
26122W        W92553  44.864  25.174   4.531
26123W        W92554  43.441  10.288   2.172
26124W        W92555   9.953  11.285   3.324
26125W        W92556  35.368  38.170  12.174
26126W        W92557  44.360   3.475   3.635
26127W        W92558  31.946  42.026  14.978
26128W        W92559  10.140   8.977  14.534
26129W        W92560  23.917  22.110   3.110
26130W        W92561  14.842   7.632  14.080
26131W        W92562  20.132  27.528   4.234
26132W        W92563  36.014   4.462   5.052
26133W        W92564  38.803  25.634   1.535
26134W        W92565  35.002   1.020  11.643
26135W        W92566  14.957  43.726   2.104
26136W        W92567  17.281  33.880  13.900
26137W        W92568  10.997  20.168   0.813
26138W        W92569  16.661  12.136   9.806
26139W        W92570  31.268  15.062   3.215
26140W        W92571  23.578   0.474   1.944
26141W        W92572  29.564   2.530   3.032
26142W        W92573  21.723  39.787  13.966
26143W        W92574  36.026  21.481   0.317
26144W        W92575  40.324  36.627  11.805
26145W        W92576   7.598   0.900  13.985
26146W        W92577   3.823  44.233  14.372
26147W        W92578  37.303  12.518   4.101
26148W        W92579  10.672  34.487   3.199
26149W        W92580  40.359  42.045  11.165
26150W        W92581  43.644  18.729   4.596
26151W        W92582  31.869   5.237  11.996
26152W        W92583  30.905   0.049  10.612
26153W        W92584  27.281  16.201   1.823
26154W        W92585  43.060  15.675  12.821
26155W        W92586  22.252   2.970   0.792
26156W        W92587  38.169  22.419  12.433
26157W        W92588  39.464  20.454  11.129
26158W        W92589   3.797   2.044   1.301
26159W        W92590   9.083  22.252  13.970
26160W        W92591  19.908  43.801   4.537
26161W        W92592  27.234  40.977  13.438
26162W        W92593  37.330  26.944   1.920
26163W        W92594  42.432  10.175  12.882
26164W        W92595  31.085  35.489  10.803
26165W        W92596  12.312  32.341  13.162
26166W        W92597   2.498  37.126   3.268
26167W        W92598   1.717  12.970   3.394
26168W        W92599  33.539   3.106  11.587
26169W        W92600  20.056  44.886  12.395
26170W        W92601  36.977  18.249   1.822
26171W        W92602  43.803  20.489  13.912
26172W        W92603  16.368  25.677  10.297
26173W        W92604  43.991  21.992  14.246
26174W        W92605  22.730  44.205  11.951
26175W        W92606  29.604  40.448   5.025
26176W        W92607  42.581  17.538  14.712
26177W        W92608   7.808  21.938   1.379
26178W        W92609   7.195   6.179  10.909
26179W        W92610  15.274  25.483   3.632
26180W        W92611  17.725   8.778  12.044
26181W        W92612  31.588  34.564  14.978
26182W        W92613  40.699  25.012   3.789
26183W        W92614  35.592   3.969   0.366
26184W        W92615  35.610  13.144  11.061
26185W        W92616  24.419   1.108   1.511
26186W        W92617  42.371  10.943  11.844
26187W        W92618  16.739  42.382  13.912
26188W        W92619  17.897  38.263  13.739
26189W        W92620   2.787  20.505   4.317
26190W        W92621  35.106   8.856   4.525
26191W        W92622  44.652  41.348   0.033
26192W        W92623   1.237  28.215   3.231
26193W        W92624   0.918  41.649  13.278
26194W        W92625   6.682  14.612   0.391
26195W        W92626  22.718  43.397   0.956
26196W        W92627  10.132  17.791  13.915
26197W        W92628  35.614  14.868  11.224
26198W        W92629   9.672  40.891  12.617
26199W        W92630  10.317   7.536  14.062
26200W        W92631  29.645  16.294  12.924
26201W        W92632   1.540   0.371   1.705
26202W        W92633  36.424  42.940  14.626
26203W        W92634   7.166  29.785   4.682
26204W        W92635   3.737  17.592  11.467
26205W        W92636  19.658  33.884  13.057
26206W        W92637   0.727  16.041   2.295
26207W        W92638  23.022  24.887   4.811
26208W        W92639  43.951   0.166  13.490
26209W        W92640  36.069   9.811   1.312
26210W        W92641  40.962  14.910  12.572
26211W        W92642  43.863   7.054  12.030
26212W        W92643  40.854  20.214  13.003
26213W        W92644  28.086  27.153  14.504
26214W        W92645   4.820   9.664   1.623
26215W        W92646  21.432  25.425   3.230
26216W        W92647  42.472  17.610   1.154
26217W        W92648   5.941  40.891  11.442
26218W        W92649  18.128  42.932  14.518
26219W        W92650  36.420  20.265   4.886
26220W        W92651  16.432   4.399   1.496
26221W        W92652   1.964  22.617  11.076
26222W        W92653  42.967   3.935  12.253
26223W        W92654  42.996  26.205   5.007
26224W        W92655  11.117  31.008   2.287
26225W        W92656  14.230  27.059  13.037
26226W        W92657  15.551  11.354  10.181
26227W        W92658  16.459  27.679   4.675
26228W        W92659   4.026  27.531  11.305
26229W        W92660  22.221  25.953  11.996
26230W        W92661  38.735   8.276  11.533
26231W        W92662  29.577   8.891   1.878
26232W        W92663   1.042  21.003  13.110
26233W        W92664  30.977  33.789  10.285
26234W        W92665   4.208   6.698   3.804
26235W        W92666   9.719  26.858  11.117
26236W        W92667  27.483   0.959   4.214
26237W        W92668  31.467  16.092  12.675
26238W        W92669   1.470  38.343  13.789
26239W        W92670  16.056   6.940  13.935
26240W        W92671   3.276  20.573  14.801
26241W        W92672  14.276  43.725   3.561
26242W        W92673  31.495   8.476   9.827
26243W        W92674  44.966  36.431   1.532
26244W        W92675  39.981   0.615  13.898
26245W        W92676  10.542  44.912  12.201
26246W        W92677  19.800  19.040   5.001
26247W        W92678  11.861   2.431   1.829
26248W        W92679  34.006  32.404   1.724
26249W        W92680  35.311  35.702   0.880
26250W        W92681  11.274  10.665   0.371
26251W        W92682  31.087  35.562  12.506
26252W        W92683  36.474   0.203   2.786
26253W        W92684   2.983   3.520   2.880
26254W        W92685  18.173  33.562  11.226
26255W        W92686   0.929  28.023   3.646
26256W        W92687  18.035  11.096  10.560
26257W        W92688  30.714  18.286  14.346
26258W        W92689  15.519  24.738  12.668
26259W        W92690  17.593  27.398  12.384
26260W        W92691  11.336  13.443  12.051
26261W        W92692  25.798  10.760   0.576
26262W        W92693  43.994  14.708   1.132
26263W        W92694  44.797  28.940   0.776
26264W        W92695  22.324  19.979  14.021
26265W        W92696  38.626  29.504   4.582
26266W        W92697  14.334   4.952   2.286
26267W        W92698  29.918  42.663   0.839
26268W        W92699  44.992   4.183  14.601
26269W        W92700   2.800  29.794  11.561
26270W        W92701  18.976  31.356   1.674
26271W        W92702  44.244   5.029   2.324
26272W        W92703  21.350   8.062   3.736
26273W        W92704  36.952  27.977   2.846
26274W        W92705  26.707  44.843  12.952
26275W        W92706  22.447  11.191   0.314
26276W        W92707  21.083  40.959   1.361
26277W        W92708  32.915  25.331  14.948
26278W        W92709   2.083  26.635  14.955
26279W        W92710  33.510  28.249   3.297
26280W        W92711  11.364  44.213   3.374
26281W        W92712   1.209  30.025   1.929
26282W        W92713   9.802  41.703  11.046
26283W        W92714  26.463  24.512  12.665
26284W        W92715  27.992  18.983  14.011
26285W        W92716   1.904  28.174  11.167
26286W        W92717  32.663  39.186  11.996
26287W        W92718  42.870  20.391  14.534
26288W        W92719  44.098   8.736   3.615
26289W        W92720  19.335   4.854   2.716
26290W        W92721  17.892  15.849  12.764
26291W        W92722  30.980  43.862   3.355
26292W        W92723  33.030  28.412  14.431
26293W        W92724  33.633   4.901  13.905
26294W        W92725   2.969  39.412   2.182
26295W        W92726  12.276  35.617  13.884
26296W        W92727  16.139   2.366   0.723
26297W        W92728   1.943  31.225  12.902
26298W        W92729  25.146  44.899  11.876
26299W        W92730  13.220  13.633  12.414
26300W        W92731  32.623   1.758   3.404
26301W        W92732  15.571  42.740   4.807
26302W        W92733  30.892  16.055   3.067
26303W        W92734  11.597  28.196  11.218
26304W        W92735  40.465   3.497  10.471
26305W        W92736   0.262  35.533  12.134
26306W        W92737  19.250  17.212  13.887
26307W        W92738  33.154  35.247   1.978
26308W        W92739   3.406   9.686   3.634
26309W        W92740  37.341  25.735   1.379
26310W        W92741   4.475  12.327  13.083
26311W        W92742  12.942  22.066   0.803
26312W        W92743   7.368  39.424  12.907
26313W        W92744  43.754  30.466   4.102
26314W        W92745   5.713  43.247  14.416
26315W        W92746  26.680  43.192  13.476
26316W        W92747  27.723  28.463  11.013
26317W        W92748  31.567  11.351   2.899
26318W        W92749  26.872  32.468   3.915
26319W        W92750  24.147  44.092   4.202
26320W        W92751   3.277   4.877  13.918
26321W        W92752   8.291   3.117   2.162
26322W        W92753  15.713   8.703  10.679
26323W        W92754  41.940  40.589  14.351
26324W        W92755   5.366  33.477   0.693
26325W        W92756  18.183  29.047   3.671
26326W        W92757   5.438  19.072  14.725
26327W        W92758   9.749  10.902   2.155
26328W        W92759  10.078  23.093   2.013
26329W        W92760   8.003  44.865  12.638
26330W        W92761  26.817  40.885   2.320
26331W        W92762  33.452  12.897  11.224
26332W        W92763   2.376  11.742   2.163
26333W        W92764  44.400  38.263   4.864
26334W        W92765   8.852  13.197  10.675
26335W        W92766   6.422  12.902   0.824
26336W        W92767  41.768  36.584   4.347
26337W        W92768  17.771  38.784   4.865
26338W        W92769  21.220   6.433  13.061
26339W        W92770  40.400  38.578   2.714
26340W        W92771   6.192  11.766   2.422
26341W        W92772  38.513  22.516   3.210
26342W        W92773  44.897  17.889   0.068
26343W        W92774  37.265  39.200  14.418
26344W        W92775   6.675  21.840  14.588
26345W        W92776  21.989  15.141  12.436
26346W        W92777  27.127  28.557  10.517
26347W        W92778  37.798  34.608  10.591
26348W        W92779  14.596   7.736   1.966
26349W        W92780  14.655  11.803   2.641
26350W        W92781   9.570  12.298   2.913
26351W        W92782  31.782   4.530  10.485
26352W        W92783  16.767  15.651  10.878
26353W        W92784  28.620  27.459  10.709
26354W        W92785  29.165  13.549  13.410
26355W        W92786  11.676   8.309  12.448
26356W        W92787  32.674  37.589  11.052
26357W        W92788  34.116  34.583  14.388
26358W        W92789  44.347  25.628  13.037
26359W        W92790  20.075   0.417   4.362
26360W        W92791  23.330  12.579   2.100
26361W        W92792  26.531  12.409  11.529
26362W        W92793   4.293  40.639  12.198
26363W        W92794   3.235  21.561  10.654
26364W        W92795  34.607  44.369  13.961
26365W        W92796  29.050  34.204  12.417
26366W        W92797  30.327  14.774  12.570
26367W        W92798  11.910  42.492  12.678
26368W        W92799   4.670  33.593  11.907
26369W        W92800  38.560  38.095   2.005
26370W        W92801  42.276  27.946   2.007
26371W        W92802  44.784  12.354  12.564
26372W        W92803   4.281  43.531  11.932
26373W        W92804  21.109  27.670   1.564
26374W        W92805  34.545  15.302   2.449
26375W        W92806  12.645  12.852   4.095
26376W        W92807  22.427  41.314  13.294
26377W        W92808  16.349  21.918  12.040
26378W        W92809  22.003  23.320   3.563
26379W        W92810   9.393   8.881   0.057
26380W        W92811  24.203  22.389   1.762
26381W        W92812  21.742  15.253  12.000
26382W        W92813  44.774  40.033   2.386
26383W        W92814  10.391  33.011  11.153
26384W        W92815  10.413  37.605  11.352
26385W        W92816  39.387  17.903   0.733
26386W        W92817  36.933   7.363  11.776
26387W        W92818   4.841  12.921   3.684
26388W        W92819  41.689  35.410   3.671
26389W        W92820  38.271  41.476  11.361
26390W        W92821  13.851  30.263  12.249
26391W        W92822  36.555  23.644   3.675
26392W        W92823  24.470  20.312  13.884
26393W        W92824  39.237   9.630   3.281
26394W        W92825  33.073  26.526   4.412
26395W        W92826  11.844  14.147   0.545
26396W        W92827  15.238   1.217   3.669
26397W        W92828  16.976  38.806   2.502
26398W        W92829  18.582   9.276  11.136
26399W        W92830   2.722   0.211  12.027
26400W        W92831  36.100  17.728  14.528
26401W        W92832   2.018  10.828   0.639
26402W        W92833  17.751  22.479  14.999
26403W        W92834   1.304   0.733   2.725
26404W        W92835  29.632  36.330  14.596
26405W        W92836  18.800  44.674  13.398
26406W        W92837  30.471  15.353  13.415
26407W        W92838   1.847  39.844   4.321
26408W        W92839  26.753   1.013   5.092
26409W        W92840  10.402  42.977   1.850
26410W        W92841  43.148  29.102  14.859
26411W        W92842  39.572  36.014  11.584
26412W        W92843   2.472   6.674  12.503
26413W        W92844  43.043   1.226  11.983
26414W        W92845  38.906  18.526   2.782
26415W        W92846  44.926  21.450   0.152
26416W        W92847  26.283  33.972   2.694
26417W        W92848  27.451  34.481  14.392
26418W        W92849  44.508  30.266  14.540
26419W        W92850  38.747  11.288  10.351
26420W        W92851  26.197  43.980   1.413
26421W        W92852  14.642  36.808   0.353
26422W        W92853  22.892  13.777  14.337
26423W        W92854  39.144  11.452   1.709
26424W        W92855   4.087  30.410   3.308
26425W        W92856   2.805  28.566   2.771
26426W        W92857  13.133   2.636   1.749
26427W        W92858   0.693  10.851  12.158
26428W        W92859  34.337  21.265  10.005
26429W        W92860  15.168   1.814   4.492
26430W        W92861   2.691   0.307   4.327
26431W        W92862  25.736  30.992   2.296
26432W        W92863  35.573  28.531  14.983
26433W        W92864  17.691  35.273   1.299
26434W        W92865  30.091  19.090   1.627
26435W        W92866  22.461  11.386   1.579
26436W        W92867   8.166   6.834  14.800
26437W        W92868  28.997  19.186  12.089
26438W        W92869  20.031  21.913  11.327
26439W        W92870  12.333  28.968  13.068
26440W        W92871  42.031  28.704   2.712
26441W        W92872  42.453  13.337   0.416
26442W        W92873   8.642   0.726  12.555
26443W        W92874  32.476  21.680   3.094
26444W        W92875  34.831  11.722  13.893
26445W        W92876  15.602  11.519  14.392
26446W        W92877  35.454  25.622   1.111
26447W        W92878  37.332   3.437  13.343
26448W        W92879  15.639   9.762  13.061
26449W        W92880  16.847   9.861   3.080
26450W        W92881  43.137   1.531  12.400
26451W        W92882  10.623  36.976  12.012
26452W        W92883   3.498   6.351   1.611
26453W        W92884  12.330  36.082  14.110
26454W        W92885   3.461   5.774  11.624
26455W        W92886  36.437  40.428   4.878
26456W        W92887  31.991   1.011   0.715
26457W        W92888  12.199  38.129  12.053
26458W        W92889  30.127  15.869   9.965
26459W        W92890   1.392  30.483   0.770
26460W        W92891  21.559  40.048   0.316
26461W        W92892   8.497  24.668  13.307
26462W        W92893  37.151  44.210   1.388
26463W        W92894  42.827   4.664  14.691
26464W        W92895  29.497  41.902   4.108
26465W        W92896  10.613  30.295  10.683
26466W        W92897  22.102  16.685   4.134
26467W        W92898   2.921  23.642  13.492
26468W        W92899   6.844  21.313   3.277
26469W        W92900  10.304  11.292  14.666
26470W        W92901  27.407  38.065   3.865
26471W        W92902  17.066   6.699   2.776
26472W        W92903  16.501  26.429  12.345
26473W        W92904  34.661  28.572  14.444
26474W        W92905  19.637  27.495   0.080
26475W        W92906   4.283  15.402   4.626
26476W        W92907  29.437   0.718  12.937
26477W        W92908  19.612  37.810  13.097
26478W        W92909   6.718  10.831  11.036
26479W        W92910  37.610   1.634   2.292
26480W        W92911  19.020  39.383  11.066
26481W        W92912   4.450   7.135   2.906
26482W        W92913  40.852  19.198  13.072
26483W        W92914  20.902  41.043   4.097
26484W        W92915  43.292  12.827  12.830
26485W        W92916   9.822  11.188   1.727
26486W        W92917  17.266   1.432  13.408
26487W        W92918  15.015   0.838   0.656
26488W        W92919  38.384  24.656   1.405
26489W        W92920  27.948  22.180  13.540
26490W        W92921  24.276  39.170   5.212
26491W        W92922   3.745  20.861   2.421
26492W        W92923  11.557  28.340  13.388
26493W        W92924   7.503  35.115   4.208
26494W        W92925  11.815  30.422  10.368
26495W        W92926  36.474  14.982  13.877
26496W        W92927  42.996  20.265  11.635
26497W        W92928  18.249  14.142   1.478
26498W        W92929  16.606   3.802  12.949
26499W        W92930  23.237  28.455   1.403
26500W        W92931  16.818  36.376  11.145
26501W        W92932  38.284  12.568  11.595
26502W        W92933  37.624  11.516   2.762
26503W        W92934   1.403  33.349  10.718
26504W        W92935  21.501  30.530   1.677
26505W        W92936  21.090  15.991   2.228
26506W        W92937   9.437  14.380  13.466
26507W        W92938  23.053  15.741   4.264
26508W        W92939   8.159  17.687   3.856
26509W        W92940   6.806  12.741  13.479
26510W        W92941   8.749   9.609   4.016
26511W        W92942  43.471  19.678   2.619
26512W        W92943  15.058  44.854  11.500
26513W        W92944  13.393  18.855  11.896
26514W        W92945  18.821   2.405   0.338
26515W        W92946   0.396   5.701   1.848
26516W        W92947  34.406   1.601   0.208
26517W        W92948  28.917  24.903   3.505
26518W        W92949  44.265  15.738  11.031
26519W        W92950  22.150   7.199   3.239
26520W        W92951  34.088   6.694   1.736
26521W        W92952   3.877  35.136  14.395
26522W        W92953  34.509  17.251   4.012
26523W        W92954  11.551  24.679  14.979
26524W        W92955  10.467   4.901  14.081
26525W        W92956  20.456  11.372   3.828
26526W        W92957  26.214  26.444  10.371
26527W        W92958   9.300  12.675  11.436
26528W        W92959   7.660  30.613  13.474
26529W        W92960   2.417  21.957  13.339
26530W        W92961  42.307   8.804  10.520
26531W        W92962  26.023  39.469  10.492
26532W        W92963  30.869  33.655   3.260
26533W        W92964   7.948  11.187   4.101
26534W        W92965  16.138  30.371   1.234
26535W        W92966  10.790  12.364   1.696
26536W        W92967   7.739  32.561  13.457
26537W        W92968   6.898   9.269   3.774
26538W        W92969   3.234   0.859  12.576
26539W        W92970  31.552  33.364   4.230
26540W        W92971   3.454   0.188  13.134
26541W        W92972  21.549  39.365  13.328
26542W        W92973  32.061  21.308  10.850
26543W        W92974   1.346  22.036  10.734
26544W        W92975   1.742  27.010  12.693
26545W        W92976  44.725  38.457  11.556
26546W        W92977  36.869  33.399  13.974
26547W        W92978   4.350  25.717  10.733
26548W        W92979   8.765  26.485  10.679
26549W        W92980   7.929  36.502  13.374
26550W        W92981  36.616  24.582   1.844
26551W        W92982  16.631   0.859   1.163
26552W        W92983  28.154   0.490  13.439
26553W        W92984  34.662  14.890   3.316
26554W        W92985   2.308  44.998  11.590
26555W        W92986  29.967  34.857  11.694
26556W        W92987   5.934  39.614  13.379
26557W        W92988  31.394  10.835  12.351
26558W        W92989   7.001  30.870  11.211
26559W        W92990  19.841  42.416  10.865
26560W        W92991  15.296   4.161  10.554
26561W        W92992   2.278  18.572  14.336
26562W        W92993  21.749  38.430  11.097
26563W        W92994  11.663   8.240  11.030
26564W        W92995  18.511  10.518  14.584
26565W        W92996  39.017  25.770  13.053
26566W        W92997  34.880  25.098   0.575
26567W        W92998  27.097  24.943  12.940
26568W        W92999  18.532  18.500   2.237
26569W        W93000   1.716  23.992   0.684
26570W        W93001  41.554  11.771  13.788
26571W        W93002  24.676   0.303   3.997
26572W        W93003  34.565  32.593   2.251
26573W        W93004  14.334  10.288   4.174
26574W        W93005  11.289  22.086   3.332
26575W        W93006  15.698  12.499   2.044
26576W        W93007   4.290   1.227  11.298
26577W        W93008  21.741   9.452   2.882
26578W        W93009   7.081  15.713  11.533
26579W        W93010  39.297  28.653   3.200
26580W        W93011  15.088  14.029  14.148
26581W        W93012   5.120  20.933   0.406
26582W        W93013  40.160  30.934   4.116
26583W        W93014  25.111  18.037  14.057
26584W        W93015  42.899   9.077   5.131
26585W        W93016   5.106  13.267  14.012
26586W        W93017   3.134  30.427  11.590
26587W        W93018   3.530  12.676   0.655
26588W        W93019   3.817   0.496   2.184
26589W        W93020  41.317  43.034   2.686
26590W        W93021  19.136   4.665   5.081
26591W        W93022  25.065  28.997   4.500
26592W        W93023  44.488  30.409  13.121
26593W        W93024  42.782  36.536  11.169
26594W        W93025   7.360   6.511   1.786
26595W        W93026   7.402  33.089   2.634
26596W        W93027  33.366   0.833  14.131
26597W        W93028  21.916  36.963   0.680
26598W        W93029  37.192   1.689  12.947
26599W        W93030  11.143  30.004  14.718
26600W        W93031   1.746  39.439   2.278
26601W        W93032  34.836  22.546  11.170
26602W        W93033  44.308  36.481   0.845
26603W        W93034  13.866  43.720  12.081
26604W        W93035   5.988   3.378  14.782
26605W        W93036  31.557  17.138   3.257
26606W        W93037  17.169   5.987   2.184
26607W        W93038  23.059  27.983  13.703
26608W        W93039  22.254   1.842   3.659
26609W        W93040  28.507  17.846  11.926
26610W        W93041  16.255  43.831   1.472
26611W        W93042  13.884  26.594  13.352
26612W        W93043   7.312  27.917   2.902
26613W        W93044  12.654   4.103  13.047
26614W        W93045  24.557   5.163   4.946
26615W        W93046  17.263  31.124   1.471
26616W        W93047   3.833   3.242   1.830
26617W        W93048  14.397  38.511  14.727
26618W        W93049  26.920  11.272  12.509
26619W        W93050  42.714  44.898   0.926
26620W        W93051  35.626  38.962  13.450
26621W        W93052  36.904  31.020   2.662
26622W        W93053  20.236  15.244   4.406
26623W        W93054  12.369  13.333  14.519
26624W        W93055  14.467  28.411  12.781
26625W        W93056  38.874  15.824   0.270
26626W        W93057  33.447  20.054   4.826
26627W        W93058   7.441  35.615   3.351
26628W        W93059  30.915  33.198  14.024
26629W        W93060  39.520   8.628  13.610
26630W        W93061  30.920  16.794   3.632
26631W        W93062  19.361  12.384  11.061
26632W        W93063   7.176  27.070  11.148
26633W        W93064  38.046  22.269   0.890
26634W        W93065  33.469  25.155  13.290
26635W        W93066  29.119   6.063  10.287
26636W        W93067  15.915  35.998   3.998
26637W        W93068  11.629  25.898  12.959
26638W        W93069   5.513  29.312   3.633
26639W        W93070  43.273  26.478  14.264
26640W        W93071  30.273  44.718   1.331
26641W        W93072  31.523  16.643   0.831
26642W        W93073   8.877  43.796  14.289
26643W        W93074  12.728  43.998  12.583
26644W        W93075   3.663   8.182   1.833
26645W        W93076   7.712  18.992   2.818
26646W        W93077   0.879   5.272  10.661
26647W        W93078   5.238  11.365   2.844
26648W        W93079  39.416  27.965  14.603
26649W        W93080  14.259  15.804  10.496
26650W        W93081   2.014  18.409  14.800
26651W        W93082   4.686  16.632   2.066
26652W        W93083  10.788  41.929  10.944
26653W        W93084  10.710  30.046   2.422
26654W        W93085  44.225  34.264  11.526
26655W        W93086  11.373  36.944  14.103
26656W        W93087  40.492   4.032   0.306
26657W        W93088  12.846  21.000   2.318
26658W        W93089  36.523  28.599   1.917
26659W        W93090  25.625  15.283  12.671
26660W        W93091  16.390   0.473   0.138
26661W        W93092  37.788  44.874  10.803
26662W        W93093  11.540  33.616  10.110
26663W        W93094  12.676  32.969  11.944
26664W        W93095   2.360  18.822  12.597
26665W        W93096  29.605  18.224   1.861
26666W        W93097  13.361  40.362  12.129
26667W        W93098  29.001  23.744  11.133
26668W        W93099  14.554  20.534  11.993
26669W        W93100  22.654  13.117   3.113
26670W        W93101   8.808  30.372  14.357
26671W        W93102  41.232   8.319  13.438
26672W        W93103   4.712   2.663   0.038
26673W        W93104  37.059  28.095  11.047
26674W        W93105  13.949  32.550   1.718
26675W        W93106  11.406  28.176  14.929
26676W        W93107  39.115   2.342  14.547
26677W        W93108  10.593  44.853  14.890
26678W        W93109   3.934  28.475  14.742
26679W        W93110  38.227  28.638   0.699
26680W        W93111  29.398   6.393  13.477
26681W        W93112  18.332  19.824  10.658
26682W        W93113  30.041  36.302   1.499
26683W        W93114   3.450  20.042   0.431
26684W        W93115  22.911   9.310   3.800
26685W        W93116  36.399  29.958   0.827
26686W        W93117   6.356  41.380   1.664
26687W        W93118  15.584  19.957  11.614
26688W        W93119   5.865  27.642   2.246
26689W        W93120   8.219   3.627   1.328
26690W        W93121  38.954   8.943  10.937
26691W        W93122  32.017   1.119  13.419
26692W        W93123  28.525  20.142  13.508
26693W        W93124  14.924  26.856   4.166
26694W        W93125   9.144   3.375   2.346
26695W        W93126  27.673   8.112   1.208
26696W        W93127  15.693  24.746   0.873
26697W        W93128   8.529   7.422   3.814
26698W        W93129  33.519   6.440   0.780
26699W        W93130  41.365  26.982   1.205
26700W        W93131  29.851  42.508  12.972
26701W        W93132  36.347  26.650  12.962
26702W        W93133  39.180   0.105  14.712
26703W        W93134  31.917  36.851   3.862
26704W        W93135   4.491  38.941   0.965
26705W        W93136  17.242  40.498   1.842
26706W        W93137   3.304  34.874  12.086
26707W        W93138  22.498   9.566  11.187
26708W        W93139  14.257   0.214  10.488
26709W        W93140  22.203   5.170   4.358
26710W        W93141  16.079  23.232   3.298
26711W        W93142   1.263  28.623   1.760
26712W        W93143  33.618  31.512   2.867
26713W        W93144  34.158  34.443   1.334
26714W        W93145  41.079  12.100   4.254
26715W        W93146   6.157  32.608  11.102
26716W        W93147  17.254  13.181  10.360
26717W        W93148  33.942   1.156   1.906
26718W        W93149  39.046  21.985  11.589
26719W        W93150  41.926  40.924  13.348
26720W        W93151  21.280  16.573   1.837
26721W        W93152   5.472  23.674  13.431
26722W        W93153   7.456  13.292  10.728
26723W        W93154  26.907  34.464   1.911
26724W        W93155  39.044  38.018   2.198
26725W        W93156  29.202  29.165   2.771
26726W        W93157  41.744   6.051   0.002
26727W        W93158  18.812   4.892  11.115
26728W        W93159  15.172  25.473  11.599
26729W        W93160   1.404  10.756   1.263
26730W        W93161  16.747  35.875   2.425
26731W        W93162  36.521  41.526   4.214
26732W        W93163  33.219   6.740   1.374
26733W        W93164  17.105   8.360   1.883
26734W        W93165   9.865  40.064   1.069
26735W        W93166  28.534  29.990  14.341
26736W        W93167  35.401  13.825  14.310
26737W        W93168  11.620  40.943  13.349
26738W        W93169   3.834  37.011   4.703
26739W        W93170  26.625   1.839   0.884
26740W        W93171  28.236  11.548  14.349
26741W        W93172  29.167  15.123  13.413
26742W        W93173  25.488  30.396   2.806
26743W        W93174  13.542  43.354   3.192
26744W        W93175  42.914  13.132   4.064
26745W        W93176  25.516  30.926   2.759
26746W        W93177  41.827  29.656   2.258
26747W        W93178  17.675   9.664   2.342
26748W        W93179  27.081  10.402  12.090
26749W        W93180  28.019  19.561  10.814
26750W        W93181  19.217  44.940   0.376
26751W        W93182   2.998  41.884   2.909
26752W        W93183  43.551  39.090  13.909
26753W        W93184   5.460   9.311   4.631
26754W        W93185   1.343  43.488   0.079
26755W        W93186  14.730   7.463   1.327
26756W        W93187  21.559  18.771  11.484
26757W        W93188   6.806  14.272   1.209
26758W        W93189   5.821  27.191  14.483
26759W        W93190  34.681  27.173  12.009
26760W        W93191  21.530  38.498   0.405
26761W        W93192  36.817  37.456   5.184
26762W        W93193  28.841  13.056   1.742
26763W        W93194  14.130   1.550   3.187
26764W        W93195  10.902  42.415  12.893
26765W        W93196   1.381  30.882  11.003
26766W        W93197  26.471  32.779   2.168
26767W        W93198   2.950   3.300  14.467
26768W        W93199  25.794  11.222   4.526
26769W        W93200  35.295  28.094   3.594
26770W        W93201  29.963  35.518  11.674
26771W        W93202  22.460   5.866  12.971
26772W        W93203   1.313  37.766   4.331
26773W        W93204  25.772   5.304   1.926
26774W        W93205  40.727  27.678  10.643
26775W        W93206  22.021  10.571  13.415
26776W        W93207   1.639   7.972  13.015
26777W        W93208  38.059  26.714   2.121
26778W        W93209   4.461  13.379  10.567
26779W        W93210  18.212  41.063  14.079
26780W        W93211  29.055  27.131  14.578
26781W        W93212   5.172  21.194   2.807
26782W        W93213  15.107   5.435   4.670
26783W        W93214  10.840  25.764  12.778
26784W        W93215  25.543  41.014   1.670
26785W        W93216   7.795  43.963   4.641
26786W        W93217   5.708  10.651  11.093
26787W        W93218   3.098  28.171  11.914
26788W        W93219  10.773   3.238  12.561
26789W        W93220  36.546  12.807  14.493
26790W        W93221  12.525  40.091  11.130
26791W        W93222  34.835  25.587   2.294
26792W        W93223  11.078  34.642   1.888
26793W        W93224  42.435  10.317   1.660
26794W        W93225   0.904  17.691  14.786
26795W        W93226  15.209  44.514  11.161
26796W        W93227  35.816  38.232   4.759
26797W        W93228  40.359  32.862   1.488
26798W        W93229   9.847  11.397  11.221
26799W        W93230  26.145  43.424  14.888
26800W        W93231  31.387  19.739  14.924
26801W        W93232  43.467  37.538  11.602
26802W        W93233  36.932  22.468  11.543
26803W        W93234  13.360  28.413  12.490
26804W        W93235  19.059  30.546   0.753
26805W        W93236   5.881  15.364  12.771
26806W        W93237  37.685  23.558  11.192
26807W        W93238  12.076  12.828  13.217
26808W        W93239  25.207  16.141  11.042
26809W        W93240  43.348  21.544   1.895
26810W        W93241   0.492  20.208  12.845
26811W        W93242  35.905   9.884  11.650
26812W        W93243  30.392  36.525   1.852
26813W        W93244  34.367  23.000   3.090
26814W        W93245  43.592   8.185   4.269
26815W        W93246  22.667  13.803   4.389
26816W        W93247  19.500  32.910   2.132
26817W        W93248  20.761  43.888   3.966
26818W        W93249  40.783   9.266  11.089
26819W        W93250  23.788  33.639  10.221
26820W        W93251   0.987  38.842   0.792
26821W        W93252   7.135  39.992  11.065
26822W        W93253  22.479  26.815  10.328
26823W        W93254  25.210  32.522  11.556
26824W        W93255  10.788  39.690  10.604
26825W        W93256  14.127   6.712  14.962
26826W        W93257  35.945  21.701  13.734
26827W        W93258  44.791   2.145  13.967
26828W        W93259   8.389  44.616   2.545
26829W        W93260  35.821  29.703   1.467
26830W        W93261   6.585   8.641   4.571
26831W        W93262  43.907  40.450   3.865
26832W        W93263  20.564  37.416   3.298
26833W        W93264  25.584   4.468  13.445
26834W        W93265  18.969  42.870   1.940
26835W        W93266  25.706  37.873  14.735
26836W        W93267  15.695  40.815   4.591
26837W        W93268  40.113  43.547  14.422
26838W        W93269  39.811  22.757  13.098
26839W        W93270  29.716  38.831   0.910
26840W        W93271  33.417  14.945   1.052
26841W        W93272  14.654   5.237   3.570
26842W        W93273  42.039  35.863  12.417
26843W        W93274  17.790  15.039  13.057
26844W        W93275  44.400  12.872  12.030
26845W        W93276  42.036  23.064   3.761
26846W        W93277  19.559  15.334   1.349
26847W        W93278   3.662  11.179   4.613
26848W        W93279  18.616  36.465  12.600
26849W        W93280  23.709   0.512  14.080
26850W        W93281  23.273  38.402  12.550
26851W        W93282  23.417  21.435  13.912
26852W        W93283  19.018   6.717   3.765
26853W        W93284   3.366  43.952  10.903
26854W        W93285  42.035  25.444  11.594
26855W        W93286  44.395  17.954  14.669
26856W        W93287  33.271  22.591   2.027
26857W        W93288  17.180  17.117  13.870
26858W        W93289   3.253   9.159   0.995
26859W        W93290  42.913  42.629  11.522
26860W        W93291  44.309  43.421   1.258
26861W        W93292  41.030  38.067  12.152
26862W        W93293  18.756  32.229  13.006
26863W        W93294  44.703  11.976  11.252
26864W        W93295  42.325   4.691  11.209
26865W        W93296  13.584   3.589   3.121
26866W        W93297  20.005  26.627   3.558
26867W        W93298  12.740   5.285   4.646
26868W        W93299  24.551  14.776   0.236
26869W        W93300  13.121   5.368   3.252
26870W        W93301  12.797  24.398  11.692
26871W        W93302  31.947  43.387  14.839
26872W        W93303  30.776  34.520  11.152
26873W        W93304  34.199  23.263  11.974
26874W        W93305   2.732   6.704  12.960
26875W        W93306  18.344   3.853   9.773
26876W        W93307   8.303  30.485  14.416
26877W        W93308  27.480  42.991   2.383
26878W        W93309   5.660  14.584  14.445
26879W        W93310  39.187  24.581  13.563
26880W        W93311  16.293   5.499  12.076
26881W        W93312  24.643  11.125  11.609
26882W        W93313  37.497  24.102   1.727
26883W        W93314   9.382  41.319   4.143
26884W        W93315  21.258  26.452  12.736
26885W        W93316  28.178   5.985  13.866
26886W        W93317  18.742  13.610  13.891
26887W        W93318  36.101  13.871   4.492
26888W        W93319  17.401   5.807   2.623
26889W        W93320  36.192  15.078   2.019
26890W        W93321  12.960   5.993  12.902
26891W        W93322  13.497  10.604   4.204
26892W        W93323  40.473  42.412   2.821
26893W        W93324  12.187  20.990  14.981
26894W        W93325  16.547  30.535   1.531
26895W        W93326  25.120  23.554   0.038
26896W        W93327  39.824  39.508   2.934
26897W        W93328   7.002   9.779   3.528
26898W        W93329  34.968   8.772  10.196
26899W        W93330  24.637  23.235  11.236
26900W        W93331  28.883  39.411   0.396
26901W        W93332  10.662  12.661   2.107
26902W        W93333  38.109  23.034  13.483
26903W        W93334   8.873  43.462  10.308
26904W        W93335  32.380  12.796   1.446
26905W        W93336  23.287  23.277  12.685
26906W        W93337  42.351  37.272   1.682
26907W        W93338  10.165  36.477  12.288
26908W        W93339  14.149  33.023   1.832
26909W        W93340  35.360  42.338   2.571
26910W        W93341  17.625  36.214  11.603
26911W        W93342   7.416   4.406  14.970
26912W        W93343  31.108   9.438   1.749
26913W        W93344   3.325   8.132   1.320
26914W        W93345  37.591   5.189   2.692
26915W        W93346  25.723  17.914   2.180
26916W        W93347  21.078  24.305   5.018
26917W        W93348  17.706  25.198  14.326
26918W        W93349   8.728  10.876  11.398
26919W        W93350  40.764   0.306  10.585
26920W        W93351  36.514   5.720   2.107
26921W        W93352   0.877   6.110  14.564
26922W        W93353   2.757  15.331   3.339
26923W        W93354  32.686   9.087  14.318
26924W        W93355   8.439  42.079  11.992
26925W        W93356  28.085  10.071   0.821
26926W        W93357  22.841  37.512   2.390
26927W        W93358  21.646  11.228   0.899
26928W        W93359  26.489  19.716  14.867
26929W        W93360  22.473  33.001   1.577
26930W        W93361  39.401  42.947  14.426
26931W        W93362  16.031  29.872  13.335
26932W        W93363  36.971  24.461   4.201
26933W        W93364  11.244   0.664   2.563
26934W        W93365  15.331  24.244   4.063
26935W        W93366   5.353  36.003   3.664
26936W        W93367  15.962  14.230  13.876
26937W        W93368   4.609  24.026  11.926
26938W        W93369  44.886  39.644   1.611
26939W        W93370  37.944   4.913   4.173
26940W        W93371  32.649  43.155   2.197
26941W        W93372   6.537   0.754  11.641
26942W        W93373  18.246   7.374  14.449
26943W        W93374  37.094  31.541  14.258
26944W        W93375  23.735  16.412   0.453
26945W        W93376   3.855  34.975   1.302
26946W        W93377  12.136  15.869   1.371
26947W        W93378  11.274  17.992  11.519
26948W        W93379  22.195  12.680  11.443
26949W        W93380   6.572  41.455  10.516
26950W        W93381  34.441  13.978   3.624
26951W        W93382  44.941  38.067  10.487
26952W        W93383   9.424   9.240  13.475
26953W        W93384   2.155   9.747  12.589
26954W        W93385   9.091   1.416   0.189
26955W        W93386  20.673  34.759  13.604
26956W        W93387  41.491  29.815  12.629
26957W        W93388  24.263  38.031   1.488
26958W        W93389  32.113  11.884   3.427
26959W        W93390  10.381  36.546   1.834
26960W        W93391  41.094   5.256  13.969
26961W        W93392  31.823  18.313   0.777
26962W        W93393  15.077  31.244   3.176
26963W        W93394  11.830  13.211  12.136
26964W        W93395   0.495   9.273   2.445
26965W        W93396   8.314  10.992   2.173
26966W        W93397  24.871  26.730  10.201
26967W        W93398  16.589   1.426  11.192
26968W        W93399  20.191   1.936  13.910
26969W        W93400   1.331  43.207  13.237
26970W        W93401  17.762  25.043  10.244
26971W        W93402  28.326  40.091  12.375
26972W        W93403  39.060  18.271   1.449
26973W        W93404  29.079  16.077  11.233
26974W        W93405  18.566  41.292   4.980
26975W        W93406  18.686  37.575  14.373
26976W        W93407  14.189  33.995   1.947
26977W        W93408  22.755  25.054   2.174
26978W        W93409   8.786  38.841  14.443
26979W        W93410   0.503  11.802   3.771
26980W        W93411  10.159  27.539  10.562
26981W        W93412  15.687  37.554   0.805
26982W        W93413  40.935   1.065  14.034
26983W        W93414  43.554  16.281  13.471
26984W        W93415  11.641  22.797   3.737
26985W        W93416  44.580  35.029  14.665
26986W        W93417  19.882   5.713   4.146
26987W        W93418  39.160  12.295   3.224
26988W        W93419  27.391  42.237   0.444
26989W        W93420  10.880   7.247  14.964
26990W        W93421  22.015  33.765   4.135
26991W        W93422   5.245  39.962  13.322
26992W        W93423  41.348  38.882  14.445
26993W        W93424  38.321  44.737   1.359
26994W        W93425  13.836  43.486  11.613
26995W        W93426  34.851  26.356   4.095
26996W        W93427   5.061  14.740  13.960
26997W        W93428  30.645  19.524   5.067
26998W        W93429  31.976  23.251  13.412
26999W        W93430  34.431   9.365  14.037
27000W        W93431  41.547  17.115   4.227
27001W        W93432  25.588  36.804   2.649
27002W        W93433  37.561  27.045  10.754
27003W        W93434  23.665  11.891   4.611
27004W        W93435  43.512  34.891   2.604
27005W        W93436  38.275  16.042   0.422
27006W        W93437   0.550  16.930   3.436
27007W        W93438  37.884  10.294   2.965
27008W        W93439   1.049  38.476  12.599
27009W        W93440  25.210  19.792  13.477
27010W        W93441  18.540  19.852  12.646
27011W        W93442  29.371  18.680   1.019
27012W        W93443   8.823  24.571  11.354
27013W        W93444  10.678  26.845  13.950
27014W        W93445  35.995   5.479  14.049
27015W        W93446   9.302   4.818   3.911
27016W        W93447  10.350  36.604  11.820
27017W        W93448  19.801  25.828  11.084
27018W        W93449  26.620  34.922   4.811
27019W        W93450  28.713  35.816  11.195
27020W        W93451  26.649  44.934   1.543
27021W        W93452  14.178  44.687   3.923
27022W        W93453  16.190  31.597  10.706
27023W        W93454  19.877  33.575  12.336
27024W        W93455  24.197  39.387   1.755
27025W        W93456  37.465   6.729  10.673
27026W        W93457  33.242  40.344   4.972
27027W        W93458   4.154   4.682   4.539
27028W        W93459  35.250  35.096  12.950
27029W        W93460  30.695   5.795   3.561
27030W        W93461   4.742  16.172  12.894
27031W        W93462   6.094  24.300   1.391
27032W        W93463  11.846   8.106  12.923
27033W        W93464  26.013   9.765   4.172
27034W        W93465  20.021  30.984  12.592
27035W        W93466  19.188  41.518  10.851
27036W        W93467  44.949  15.729  13.985
27037W        W93468  22.826  15.209  12.075
27038W        W93469   5.716  25.538   4.581
27039W        W93470   0.943  40.296  12.201
27040W        W93471   6.733   5.825   0.389
27041W        W93472  11.691  29.404   9.757
27042W        W93473  10.994  34.461   3.664
27043W        W93474   1.633  37.032   3.869
27044W        W93475  27.156  39.833   4.696
27045W        W93476  42.265  44.952  13.035
27046W        W93477  36.553  21.531   0.365
27047W        W93478   5.029   4.804   3.222
27048W        W93479  28.760  41.019  12.746
27049W        W93480   8.942  17.088   3.659
27050W        W93481   1.327   9.650   4.165
27051W        W93482   6.907  41.707   3.827
27052W        W93483  14.554  42.443  13.455
27053W        W93484  12.881  41.982   4.578
27054W        W93485  37.247   1.042   3.688
27055W        W93486   5.905  35.359  10.725
27056W        W93487   6.849   5.578   4.857
27057W        W93488  14.341  25.927   3.567
27058W        W93489   5.208   7.839  12.430
27059W        W93490  12.121   1.357   4.116
27060W        W93491  36.386   9.889  12.790
27061W        W93492  23.055  36.355  11.555
27062W        W93493  41.787   4.521   2.823
27063W        W93494  43.089  23.510   0.800
27064W        W93495  15.552  30.375   1.802
27065W        W93496  17.550  44.857  13.042
27066W        W93497  26.893  35.399   1.278
27067W        W93498   3.799   8.702  10.997
27068W        W93499  16.637  22.864  11.200
27069W        W93500  21.921  41.541   0.282
27070W        W93501  22.469  24.548   3.224
27071W        W93502   7.427  22.292   1.417
27072W        W93503  27.842  24.516  10.926
27073W        W93504  21.911  31.988   4.637
27074W        W93505  16.846   5.742  13.376
27075W        W93506  14.535  18.824   3.155
27076W        W93507   7.260  18.370   5.429
27077W        W93508  12.188   4.765   4.601
27078W        W93509  21.935  10.317   1.098
27079W        W93510  29.506   2.101   2.751
27080W        W93511  17.735  30.594   3.156
27081W        W93512  19.640  31.413  14.980
27082W        W93513  13.881  44.428   0.626
27083W        W93514  13.738   2.477  10.248
27084W        W93515  30.046  39.434   0.910
27085W        W93516  33.679   3.056   1.872
27086W        W93517  33.094  10.866  13.503
27087W        W93518  37.825  37.422   5.106
27088W        W93519  32.090   2.529   3.623
27089W        W93520   7.312  28.077   1.471
27090W        W93521  33.236  13.005   2.575
27091W        W93522  28.910  27.663   1.015
27092W        W93523  23.541   8.097   4.616
27093W        W93524  33.444  31.344   4.179
27094W        W93525   2.534   4.393  11.376
27095W        W93526  18.791  32.091   2.821
27096W        W93527  18.136  30.814  11.449
27097W        W93528  34.183  17.431   1.867
27098W        W93529  25.949  18.869  11.673
27099W        W93530   5.038   6.470   1.287
27100W        W93531  41.859  42.365   2.476
27101W        W93532  22.132   3.406   0.447
27102W        W93533  23.285  38.877   0.792
27103W        W93534  14.645  39.059   4.093
27104W        W93535   9.264   0.512   0.469
27105W        W93536  12.516  16.272   0.235
27106W        W93537  18.356   5.963  12.911
27107W        W93538  40.716  32.082  10.685
27108W        W93539  36.423  23.029   1.329
27109W        W93540  11.358   9.271  12.271
27110W        W93541  21.018  28.486  13.080
27111W        W93542  11.721  12.582   1.159
27112W        W93543  29.560   8.370   5.011
27113W        W93544  31.170  35.707  10.318
27114W        W93545  29.203  41.139  13.458
27115W        W93546  34.167  34.531   4.224
27116W        W93547  18.971  18.656  12.993
27117W        W93548  19.051  24.275  12.258
27118W        W93549  19.789  17.379   1.112
27119W        W93550  30.586  28.206   3.059
27120W        W93551  43.975   1.816  14.796
27121W        W93552  16.188  33.526   2.630
27122W        W93553  23.523   6.616  12.163
27123W        W93554  10.213   1.690   2.760
27124W        W93555  12.228  21.811   1.691
27125W        W93556   2.050  28.027  13.895
27126W        W93557  10.100  31.963   1.481
27127W        W93558  17.354  34.916   4.005
27128W        W93559  31.841   4.001   2.685
27129W        W93560  16.401  37.597   4.041
27130W        W93561  25.366   3.359   3.470
27131W        W93562  28.674  32.669  11.630
27132W        W93563  10.753   0.479  12.823
27133W        W93564  11.655   2.032  12.065
27134W        W93565  34.300  44.908  11.751
27135W        W93566  19.740  33.176   0.374
27136W        W93567   7.901  35.355   3.286
27137W        W93568  17.606  16.533   2.816
27138W        W93569  26.481   7.240  14.316
27139W        W93570  27.510  38.852   2.416
27140W        W93571  21.504  23.066  10.927
27141W        W93572   5.904   2.918  13.063
27142W        W93573   2.411   9.572  10.473
27143W        W93574  26.285  36.041  12.070
27144W        W93575  20.692   4.999  11.046
27145W        W93576  12.405  20.731   3.362
27146W        W93577  39.321  44.574  11.417
27147W        W93578   1.851  36.656   3.570
27148W        W93579  37.512  31.769   2.775
27149W        W93580  38.930  12.473  11.591
27150W        W93581  17.509  36.413   2.815
27151W        W93582   5.449  39.825   3.085
27152W        W93583   8.599  38.487   1.282
27153W        W93584  12.129  42.338   1.492
27154W        W93585   6.640  15.053  11.985
27155W        W93586  39.250  42.907   2.666
27156W        W93587  29.029   5.740   2.404
27157W        W93588  18.154  42.968  11.982
27158W        W93589  23.546  29.485  13.949
27159W        W93590  37.333   0.790  13.057
27160W        W93591  43.239  29.461  13.286
27161W        W93592   7.122   8.223  13.511
27162W        W93593   4.769   2.238  12.022
27163W        W93594  16.098  19.749  11.018
27164W        W93595  25.572  37.865   1.002
27165W        W93596  24.456  32.503  14.291
27166W        W93597  43.533   5.289   3.275
27167W        W93598  23.060  35.831  12.439
27168W        W93599  17.363   8.687  11.043
27169W        W93600  28.936  37.702  12.113
27170W        W93601  30.900  25.671  12.562
27171W        W93602  10.593  13.610   2.488
27172W        W93603   0.394   4.704   2.008
27173W        W93604  41.980  24.003  11.896
27174W        W93605   4.731   1.537  14.309
27175W        W93606  16.108  21.350  10.952
27176W        W93607  36.028  34.893  10.769
27177W        W93608  12.696  10.832  13.956
27178W        W93609  26.449  18.331   1.938
27179W        W93610   8.307  25.104   4.782
27180W        W93611  16.787  27.197  11.946
27181W        W93612  16.845   6.862   3.657
27182W        W93613  13.869  13.661  12.027
27183W        W93614  23.582   1.488   1.057
27184W        W93615   4.389   9.535  11.848
27185W        W93616  29.043  30.407  11.232
27186W        W93617  30.971  40.906   3.982
27187W        W93618  44.603  10.738   3.199
27188W        W93619  20.995  17.520   1.779
27189W        W93620   9.457  13.660  13.384
27190W        W93621   8.264  25.853  13.423
27191W        W93622  32.985  26.343   4.947
27192W        W93623  11.389  21.027   1.166
27193W        W93624  14.855  24.059   4.134
27194W        W93625  41.572  41.376  11.349
27195W        W93626  35.457  41.370  14.581
27196W        W93627   3.838  36.808  11.690
27197W        W93628  39.010  26.629  12.341
27198W        W93629  32.056  21.964  13.864
27199W        W93630  36.457  43.199   1.425
27200W        W93631  37.481   1.144  11.929
27201W        W93632  26.968  29.070  13.096
27202W        W93633  27.708   9.556  12.066
27203W        W93634   7.945  15.840   1.266
27204W        W93635  21.909  21.320   9.414
27205W        W93636  37.470  40.268   3.115
27206W        W93637  28.462  15.626   4.136
27207W        W93638  34.329  17.353  12.883
27208W        W93639  38.264   5.740  11.087
27209W        W93640  44.042  23.736  12.301
27210W        W93641   0.369  38.774  12.049
27211W        W93642  17.743   4.651  10.725
27212W        W93643  32.814  37.443  12.442
27213W        W93644   4.034  35.812  13.814
27214W        W93645  32.046  19.780   2.314
27215W        W93646   3.917  29.991  10.825
27216W        W93647  26.590   5.663  14.856
27217W        W93648  27.247  10.873  11.985
27218W        W93649  28.106   3.807   2.254
27219W        W93650  12.020  27.246  14.194
27220W        W93651   1.875  34.043   4.675
27221W        W93652   4.647  14.143  12.645
27222W        W93653  17.772  42.294   2.192
27223W        W93654  29.680   6.367   0.774
27224W        W93655  42.818  24.371   1.802
27225W        W93656  24.596   9.555  13.496
27226W        W93657  31.665  36.597   4.497
27227W        W93658  41.027  16.512  14.925
27228W        W93659  26.716  38.525   4.857
27229W        W93660  10.683  19.900   0.319
27230W        W93661  21.617  11.829   0.038
27231W        W93662  13.398  40.500   0.107
27232W        W93663  10.538   3.554   9.981
27233W        W93664  14.897  34.928  13.173
27234W        W93665  13.299  44.129   2.127
27235W        W93666  40.337  38.080   4.571
27236W        W93667  44.543  43.233  12.015
27237W        W93668  31.676  19.185   2.687
27238W        W93669  38.242   7.803  13.990
27239W        W93670  34.448  37.630  11.698
27240W        W93671  10.396   1.783   4.110
27241W        W93672   0.932  14.683  13.778
27242W        W93673  43.937  40.537   1.444
27243W        W93674   3.288  14.272  12.948
27244W        W93675  34.950  19.230  12.562
27245W        W93676  29.087   8.156   0.237
27246W        W93677  29.943  27.986   4.378
27247W        W93678   4.829   0.191  13.904
27248W        W93679  41.552  17.868   0.786
27249W        W93680   3.489   6.656  12.557
27250W        W93681  33.069   9.983  14.302
27251W        W93682  15.574   9.285   0.831
27252W        W93683   0.177  34.234  11.593
27253W        W93684  16.745  18.963  11.744
27254W        W93685  28.658  25.899   3.268
27255W        W93686  25.725   8.924  12.587
27256W        W93687  44.780  42.330  13.307
27257W        W93688  20.742  19.182  10.648
27258W        W93689  30.407  39.678  12.590
27259W        W93690  36.253  23.163   2.146
27260W        W93691  43.294  35.875  11.669
27261W        W93692  32.184  38.951   3.154
27262W        W93693  36.010   0.501  11.985
27263W        W93694  35.420  22.319   1.749
27264W        W93695   5.003   8.883   2.725
27265W        W93696   7.776   6.837  13.277
27266W        W93697  28.466  35.490   4.217
27267W        W93698  29.062  19.025   1.774
27268W        W93699   7.088   7.741   0.763
27269W        W93700   0.715  38.123  12.828
27270W        W93701   6.364   0.957  12.066
27271W        W93702  36.310  38.063  12.430
27272W        W93703  10.377   0.284   0.089
27273W        W93704  23.669  22.711  14.905
27274W        W93705  35.796  32.871  12.075
27275W        W93706  16.873  42.877  13.829
27276W        W93707  26.564  10.369  12.016
27277W        W93708  39.261  25.502   2.822
27278W        W93709  35.155  23.089   2.860
27279W        W93710   1.370  43.552  13.635
27280W        W93711   0.343  35.277   0.681
27281W        W93712  22.220  27.715  12.510
27282W        W93713  40.594  31.937   2.412
27283W        W93714  42.973  19.602  14.966
27284W        W93715  10.776  42.314   3.707
27285W        W93716  20.989   3.426  14.945
27286W        W93717  36.458  12.869   3.136
27287W        W93718  20.160  10.093   0.244
27288W        W93719  11.020  33.571   4.823
27289W        W93720  22.218  24.180   4.365
27290W        W93721  15.651  30.622  13.369
27291W        W93722   6.405  37.211   3.620
27292W        W93723  23.725  26.603   1.372
27293W        W93724  36.322  27.540  13.014
27294W        W93725  24.204  19.042  12.549
27295W        W93726  23.489  17.328  11.503
27296W        W93727  13.355  23.463   4.133
27297W        W93728   7.324  19.905   0.858
27298W        W93729  22.662   3.234   3.186
27299W        W93730  44.832   4.299  12.090
27300W        W93731  25.806  33.883   0.170
27301W        W93732  32.285  26.179  11.356
27302W        W93733   7.811  22.481  14.336
27303W        W93734  25.530  25.259   1.496
27304W        W93735  40.557  24.145   3.576
27305W        W93736  42.457  24.421  11.254
27306W        W93737  25.918  17.281  11.648
27307W        W93738  42.418  18.027   1.857
27308W        W93739  44.759  26.995   0.800
27309W        W93740   0.820  18.667   4.194
27310W        W93741  24.963   2.316  14.231
27311W        W93742   3.152  15.064   3.141
27312W        W93743  18.032  20.116   3.700
27313W        W93744  41.863   5.937  12.657
27314W        W93745  13.346  26.014   4.025
27315W        W93746   9.726  44.980  12.608
27316W        W93747  21.156   0.303  10.696
27317W        W93748   2.429  11.117  14.917
27318W        W93749  15.614  17.049  11.189
27319W        W93750  25.746  15.726   1.912
27320W        W93751   2.808   9.729  14.291
27321W        W93752  17.692  22.199   2.599
27322W        W93753  36.133   3.361  11.188
27323W        W93754   3.444  26.667   3.640
27324W        W93755  31.962  20.768   3.867
27325W        W93756  34.402  25.146   2.831
27326W        W93757  27.992  40.006  14.897
27327W        W93758   5.472  22.355   1.151
27328W        W93759  38.116  22.557  11.150
27329W        W93760  21.549   9.402  12.890
27330W        W93761  16.077  14.835   3.444
27331W        W93762   7.560  11.745  13.093
27332W        W93763  14.029  14.219  13.364
27333W        W93764   0.299  41.261  12.892
27334W        W93765  43.030  28.497  14.139
27335W        W93766  20.351  13.576   3.381
27336W        W93767  10.794  44.149   4.103
27337W        W93768  24.050  42.325   1.139
27338W        W93769  38.772  16.847  14.215
27339W        W93770  20.430  10.411  14.391
27340W        W93771  28.300  11.446   1.903
27341W        W93772   7.224  16.715   1.224
27342W        W93773  22.937  24.974  14.918
27343W        W93774  10.661  23.466  11.537
27344W        W93775  13.220  36.008   4.639
27345W        W93776  21.380  28.708  12.764
27346W        W93777  28.042  36.088  14.040
27347W        W93778  37.239  23.305   2.144
27348W        W93779  20.162   6.455  14.843
27349W        W93780  37.830   8.703  12.657
27350W        W93781  14.608  13.629  14.968
27351W        W93782  32.609  18.723   2.615
27352W        W93783   0.971  30.427   1.138
27353W        W93784  36.680   4.909   0.623
27354W        W93785  15.813  13.781  10.209
27355W        W93786  30.328   4.794  10.198
27356W        W93787  39.506  14.275   4.376
27357W        W93788  19.715  10.639  14.001
27358W        W93789  44.530   0.929  14.417
27359W        W93790  22.946  21.526  11.095
27360W        W93791  20.934   5.216   2.217
27361W        W93792  25.189  24.663  14.057
27362W        W93793  39.997  38.887  11.446
27363W        W93794  25.745  21.068  14.873
27364W        W93795  35.512  21.856  13.455
27365W        W93796   3.897  34.388  10.558
27366W        W93797  43.822  20.668   3.237
27367W        W93798  17.255   6.962   0.441
27368W        W93799  10.464  30.535   0.808
27369W        W93800   6.292  14.002  10.004
27370W        W93801   7.410  35.916   2.663
27371W        W93802  41.591  24.002   2.716
27372W        W93803  15.174  39.954   3.300
27373W        W93804   0.253  29.996   2.903
27374W        W93805  17.266  20.092   0.398
27375W        W93806  39.280  34.691   0.438
27376W        W93807  32.155  18.996   2.682
27377W        W93808  42.367  44.492   4.267
27378W        W93809  13.868  35.449  14.383
27379W        W93810  12.457  44.755  14.394
27380W        W93811  17.756  42.560  13.727
27381W        W93812  41.444  37.669  11.507
27382W        W93813  23.182  33.865   2.829
27383W        W93814  43.660  39.916  13.281
27384W        W93815  19.829  24.221   0.375
27385W        W93816  18.183  14.093  14.797
27386W        W93817  28.739  16.697   0.475
27387W        W93818  20.617  27.565  12.847
27388W        W93819  14.572   5.693   0.934
27389W        W93820  13.638  11.209   1.999
27390W        W93821  10.397  37.835  10.882
27391W        W93822   5.128   2.543   0.468
27392W        W93823  29.361  24.144   2.730
27393W        W93824  33.034  26.580   2.360
27394W        W93825  10.883  20.501   2.460
27395W        W93826  21.276   8.453   4.759
27396W        W93827  27.612  41.555   1.462
27397W        W93828  22.035  20.702  14.351
27398W        W93829  15.653   2.315   4.994
27399W        W93830   7.266   6.808  13.279
27400W        W93831   2.981   8.737   3.289
27401W        W93832  29.610   4.927  14.567
27402W        W93833  16.678   7.408   3.256
27403W        W93834   2.353  26.910   1.057
27404W        W93835  27.039  34.637   2.404
27405W        W93836  12.253  15.281  12.425
27406W        W93837   1.813  30.746  10.701
27407W        W93838  25.017  30.728   2.844
27408W        W93839  38.082   3.420   4.285
27409W        W93840   9.374  39.976   4.912
27410W        W93841  27.053  17.233   0.916
27411W        W93842  12.803   5.409   1.498
27412W        W93843  18.145  28.943  12.963
27413W        W93844  44.790  23.182   0.251
27414W        W93845   6.764  17.854  11.544
27415W        W93846  28.113   9.937  12.640
27416W        W93847  32.408  37.437   0.500
27417W        W93848  22.789  37.398   3.432
27418W        W93849  39.958  30.003  12.295
27419W        W93850  21.083  31.128  11.448
27420W        W93851  15.297  12.654  12.082
27421W        W93852  41.341  33.562   3.393
27422W        W93853  34.275  10.216  13.726
27423W        W93854  14.682  35.425  10.460
27424W        W93855  24.018  29.709   4.075
27425W        W93856  40.797  23.987   3.125
27426W        W93857  24.322  12.892  10.929
27427W        W93858  14.861   2.288  12.993
27428W        W93859  37.209  44.676   3.919
27429W        W93860  20.479  37.843  10.401
27430W        W93861  39.735  41.947   3.625
27431W        W93862  17.099  16.779   1.272
27432W        W93863  28.988  26.251   1.693
27433W        W93864  24.522  41.770  10.597
27434W        W93865  30.433  32.662  14.757
27435W        W93866   6.788   7.983  13.135
27436W        W93867  43.195  38.076  10.903
27437W        W93868  38.454  22.282   4.169
27438W        W93869  12.951   7.163   4.083
27439W        W93870  27.917  37.104  12.120
27440W        W93871  43.714  22.490  12.944
27441W        W93872   4.432  16.817  12.448
27442W        W93873   6.740  27.765  12.949
27443W        W93874  23.480  40.512   1.917
27444W        W93875  33.774  14.878   4.113
27445W        W93876   8.071  24.008   3.301
27446W        W93877  10.057  19.979  11.605
27447W        W93878  17.538  36.314   3.694
27448W        W93879  21.693   4.528   3.711
27449W        W93880  24.828  25.316   3.636
27450W        W93881   4.778  37.173  10.264
27451W        W93882   3.991  20.002  14.766
27452W        W93883  39.871   5.471   1.468
27453W        W93884  35.549  14.367   1.837
27454W        W93885   5.750  12.762  13.537
27455W        W93886   5.452  31.725  11.955
27456W        W93887  23.065  30.700   1.631
27457W        W93888   5.938  32.902   3.169
27458W        W93889  42.746   9.705  11.661
27459W        W93890   0.793  42.784  10.704
27460W        W93891   3.422  44.428   1.940
27461W        W93892  34.764   3.341   3.600
27462W        W93893  27.568  21.905  10.702
27463W        W93894  38.818  14.914  11.602
27464W        W93895  20.208   4.751   3.685
27465W        W93896  20.103  35.503  13.484
27466W        W93897  28.688  31.932   0.323
27467W        W93898   0.414   8.517   2.054
27468W        W93899  18.104   5.113  11.490
27469W        W93900  20.931  27.705   3.543
27470W        W93901  40.966  16.716   2.494
27471W        W93902  34.390  27.247  13.307
27472W        W93903  13.461  38.302  14.667
27473W        W93904  23.110  39.190  12.961
27474W        W93905  35.831  10.839   0.423
27475W        W93906  38.890  29.112  10.573
27476W        W93907   3.622  24.709   4.913
27477W        W93908  36.240   4.167  13.349
27478W        W93909  42.464  33.785   1.478
27479W        W93910   7.883  13.144  11.415
27480W        W93911   6.577  37.744   1.885
27481W        W93912  22.684  15.772  12.883
27482W        W93913  18.221  13.404   2.089
27483W        W93914  15.683  32.949  12.096
27484W        W93915  10.729   8.396  10.633
27485W        W93916  33.443   7.011  10.701
27486W        W93917  34.599  25.512  14.518
27487W        W93918  31.938  16.689   2.270
27488W        W93919   1.893  11.273  14.848
27489W        W93920  43.098  20.192  13.177
27490W        W93921  17.763  31.172   1.363
27491W        W93922  31.131  21.497   2.800
27492W        W93923  18.779  11.748  14.611
27493W        W93924   4.011   6.201  14.084
27494W        W93925  40.572  40.575   1.335
27495W        W93926  27.044  39.959   1.932
27496W        W93927  43.969  37.297  13.317
27497W        W93928  10.803  13.596  12.014
27498W        W93929  42.293  10.654  10.855
27499W        W93930   3.421  22.111   4.295
27500W        W93931   2.357  34.868  12.074
27501W        W93932   9.451   8.336  12.139
27502W        W93933  41.469  20.595   1.207
27503W        W93934   4.670  10.122  11.166
27504W        W93935  17.986   8.688   3.256
27505W        W93936  34.430  35.170   1.382
27506W        W93937  29.324   8.456   0.729
27507W        W93938   0.661  43.399   3.695
27508W        W93939  22.183   0.863  13.349
27509W        W93940  10.245  13.088  13.554
27510W        W93941  28.123  39.292  12.088
27511W        W93942   2.721   4.844   2.649
27512W        W93943  28.924  32.542  13.421
27513W        W93944  16.347  35.697  13.957
27514W        W93945  21.724  16.158   0.728
27515W        W93946  19.624   7.137  10.707
27516W        W93947  36.404  10.785  14.093
27517W        W93948  20.960  28.925  14.462
27518W        W93949  11.921  17.762   4.202
27519W        W93950  30.505  24.162  13.113
27520W        W93951  38.897  15.278  11.259
27521W        W93952  30.069  40.857   3.539
27522W        W93953  23.175  33.781   1.319
27523W        W93954  12.815   5.496   2.031
27524W        W93955  27.434   0.250  10.999
27525W        W93956   1.544  42.695   3.623
27526W        W93957  12.798  15.033   1.662
27527W        W93958  17.228  18.627  13.311
27528W        W93959  43.209  36.929   4.605
27529W        W93960  35.319   3.357  12.509
27530W        W93961  20.346  12.329   1.770
27531W        W93962   5.010  19.457   2.474
27532W        W93963  41.125  35.609   3.249
27533W        W93964   3.200  40.778   3.693
27534W        W93965  24.726  37.387   2.665
27535W        W93966  27.623  37.297   4.210
27536W        W93967  25.267  14.790   4.359
27537W        W93968   3.361  23.990   4.154
27538W        W93969  13.776  16.781   3.592
27539W        W93970  10.323   1.623  10.300
27540W        W93971  41.368  16.542   0.343
27541W        W93972  10.909   8.498   2.444
27542W        W93973   0.202  17.123  13.827
27543W        W93974  25.054  17.834   1.095
27544W        W93975  23.026  14.685   3.128
27545W        W93976  40.819   6.890   2.075
27546W        W93977   5.341   4.463  11.602
27547W        W93978  11.655   7.412   0.351
27548W        W93979  38.736  20.551   3.587
27549W        W93980   9.792  12.899  13.899
27550W        W93981  18.586  24.925  11.942
27551W        W93982  23.150   9.612   4.479
27552W        W93983  17.270  31.009   0.124
27553W        W93984  16.738  25.034   0.019
27554W        W93985  11.856  24.335   2.696
27555W        W93986  42.932  14.730  14.686
27556W        W93987   0.497  34.266  12.439
27557W        W93988  10.354  15.716  14.671
27558W        W93989  44.090  23.826   4.180
27559W        W93990   0.506   7.899   3.909
27560W        W93991  18.328   3.529   1.745
27561W        W93992  13.371  38.832   4.250
27562W        W93993  10.068  10.302   4.166
27563W        W93994  40.356  27.023   4.622
27564W        W93995  39.433   4.288  14.450
27565W        W93996  32.876  34.475   3.740
27566W        W93997  22.127  21.425  12.932
27567W        W93998  34.699  17.373  14.033
27568W        W93999  29.090  17.579   3.663
27569W        W94000  24.453  14.610  11.112
27570W        W94001  20.707  28.229   3.270
27571W        W94002  13.590  40.497  11.623
27572W        W94003  34.616   6.004  14.805
27573W        W94004  26.153  17.762   0.876
27574W        W94005  42.260  32.912   1.302
27575W        W94006  42.980   4.316   0.555
27576W        W94007  14.755  42.919   0.433
27577W        W94008  18.301  12.578   3.999
27578W        W94009  20.020  28.943   0.903
27579W        W94010  32.784  28.022  13.445
27580W        W94011  29.436  31.744  12.919
27581W        W94012  12.583  20.981   2.776
27582W        W94013  14.787  39.955  10.546
27583W        W94014  37.151  40.795   2.464
27584W        W94015   7.518   4.184  13.562
27585W        W94016  24.112  15.087  12.669
27586W        W94017  24.962   2.462  13.730
27587W        W94018  31.730   5.987   0.813
27588W        W94019   2.881  15.444  13.765
27589W        W94020  37.406  16.545  10.260
27590W        W94021  36.119  21.658  12.422
27591W        W94022   5.135  15.255   3.281
27592W        W94023  27.685   9.437   2.839
27593W        W94024  43.877  11.685  12.491
27594W        W94025  21.795  29.636   2.156
27595W        W94026  16.227  34.386  14.332
27596W        W94027   0.990  29.918  13.585
27597W        W94028  34.389  32.771  13.827
27598W        W94029  12.223  38.565  12.976
27599W        W94030  31.702   0.707   5.136
27600W        W94031  10.248  27.406   0.968
27601W        W94032  32.091  38.810   2.661
27602W        W94033  17.156  21.102   0.342
27603W        W94034  22.542  27.111   2.368
27604W        W94035  36.857  14.631   1.227
27605W        W94036   6.885  22.306   3.123
27606W        W94037  12.102  21.337  12.483
27607W        W94038   8.859  15.690   3.303
27608W        W94039  13.325  22.730   0.533
27609W        W94040  29.588  25.716  13.583
27610W        W94041  43.814  28.000   4.550
27611W        W94042  39.336  12.154   2.353
27612W        W94043  39.383  32.553   3.913
27613W        W94044   3.640  25.980   0.736
27614W        W94045  15.765  15.678   0.550
27615W        W94046  11.168  27.173  11.159
27616W        W94047  41.514  16.157  11.481
27617W        W94048  37.339  43.008   2.672
27618W        W94049   2.900   1.753   4.795
27619W        W94050  39.286  29.052   3.539
27620W        W94051  18.103  36.586  11.560
27621W        W94052  11.378  38.488  13.162
27622W        W94053  35.412  21.287   1.704
27623W        W94054  27.984  18.462   5.019
27624W        W94055  28.221  20.408  12.094
27625W        W94056  43.487  30.509  13.028
27626W        W94057  12.032  25.535   2.271
27627W        W94058   3.983  32.582  10.535
27628W        W94059   9.934   6.080   0.907
27629W        W94060   5.749   8.496   3.724
27630W        W94061   6.333  38.348   2.358
27631W        W94062   0.528  43.816   4.074
27632W        W94063  28.144  28.542  14.468
27633W        W94064   2.437  16.170   3.138
27634W        W94065  41.322  39.285   4.155
27635W        W94066  27.603   4.473  13.455
27636W        W94067  13.062  17.463   2.728
27637W        W94068  14.178  35.637   3.048
27638W        W94069  40.519  14.894  11.441
27639W        W94070   8.620  20.222   1.168
27640W        W94071   7.311   7.006   1.582
27641W        W94072   8.798  24.425   2.021
27642W        W94073  11.964  21.685   2.690
27643W        W94074  24.252  19.853   5.715
27644W        W94075  34.399  15.981  12.119
27645W        W94076  17.740  39.406  10.342
27646W        W94077  12.616  26.737   0.492
27647W        W94078  28.193  20.661   4.275
27648W        W94079  35.406  29.956   3.846
27649W        W94080  33.069  17.042   4.319
27650W        W94081   8.517  16.021  10.907
27651W        W94082  43.038  29.654  14.974
27652W        W94083  27.157  42.514   0.802
27653W        W94084  15.801  44.484  12.428
27654W        W94085  15.622  37.799   1.319
27655W        W94086  27.087  42.683   2.208
27656W        W94087  11.725  22.729  12.547
27657W        W94088  20.155  44.207   4.329
27658W        W94089   9.958  16.179   5.047
27659W        W94090  32.532   6.453   2.845
27660W        W94091  12.126   2.025  13.032
27661W        W94092  14.385   9.700  14.464
27662W        W94093  15.569  37.467   3.766
27663W        W94094   3.184  24.437   4.944
27664W        W94095  35.126  27.925   4.927
27665W        W94096  11.239   5.161   2.639
27666W        W94097  43.058   0.513  11.044
27667W        W94098   0.846   1.950   1.359
27668W        W94099  31.892  15.091   1.317
27669W        W94100  36.411  37.349  13.998
27670W        W94101   3.378   7.403   3.146
27671W        W94102   9.911  17.663   5.040
27672W        W94103  22.016  24.790   3.219
27673W        W94104  34.433  29.306   5.014
27674W        W94105  23.345  39.563   1.556
27675W        W94106  18.339  38.841   4.940
27676W        W94107  38.068  40.327  12.460
27677W        W94108  12.847  39.912   4.472
27678W        W94109   5.654  35.560  11.122
27679W        W94110  38.962   0.370  10.351
27680W        W94111  31.012  24.200  10.872
27681W        W94112   2.834   2.912   4.108
27682W        W94113  11.592  15.207  12.067
27683W        W94114  16.542  43.942   4.128
27684W        W94115  36.801  16.234  13.892
27685W        W94116  34.408  30.380  10.644
27686W        W94117   7.992  26.975   4.176
27687W        W94118  24.547  17.359  12.839
27688W        W94119   4.229  25.956   0.543
27689W        W94120  41.779  27.858   1.805
27690W        W94121  26.604  26.982   0.432
27691W        W94122  19.493  36.425  14.633
27692W        W94123  12.796  18.172   3.308
27693W        W94124   9.398  40.759  11.559
27694W        W94125  18.773   6.858   4.208
27695W        W94126  10.672  14.096  12.112
27696W        W94127  20.778  21.796  12.870
27697W        W94128   2.739  28.448  14.548
27698W        W94129   9.309   5.065  10.323
27699W        W94130  31.142   5.271   4.681
27700W        W94131  31.538  23.879  12.109
27701W        W94132  43.022  30.961  11.709
27702W        W94133  28.003   1.232   0.334
27703W        W94134   4.744  29.479   2.686
27704W        W94135  39.289  43.034   0.273
27705W        W94136  32.569  19.132  14.979
27706W        W94137  19.121  18.039  14.779
27707W        W94138  19.198  33.026   1.723
27708W        W94139  34.872  32.175  12.276
27709W        W94140  40.067  28.660  11.188
27710W        W94141   3.572  35.582   1.824
27711W        W94142  18.085  11.943   0.866
27712W        W94143  18.697  37.934  14.772
27713W        W94144  36.924   0.523   4.128
27714W        W94145   0.443  40.422  10.925
27715W        W94146  38.616  32.412  12.480
27716W        W94147  27.609  33.314  14.942
27717W        W94148  22.428  16.101   2.724
27718W        W94149  21.493  33.382  10.432
27719W        W94150  28.214  19.773  14.350
27720W        W94151  23.464  16.118   2.665
27721W        W94152  28.974  11.191  13.969
27722W        W94153  17.985  19.867  11.520
27723W        W94154  20.655  22.041   2.068
27724W        W94155  29.408  25.294  11.464
27725W        W94156  17.013  25.626   4.208
27726W        W94157  12.438  14.848  12.192
27727W        W94158  43.271  22.845   2.707
27728W        W94159  18.772  34.051  14.872
27729W        W94160  18.113  20.165   2.602
27730W        W94161  19.954  41.018  14.587
27731W        W94162  40.316  25.079   0.687
27732W        W94163  42.158  36.309   4.156
27733W        W94164  31.518  24.241  11.680
27734W        W94165   9.386  17.329  12.074
27735W        W94166  19.460  44.412   1.825
27736W        W94167  35.057  34.438   1.405
27737W        W94168  25.698  34.422  13.005
27738W        W94169   8.741   1.651   0.845
27739W        W94170  14.831  39.841  11.566
27740W        W94171  19.023   9.726   4.612
27741W        W94172  23.107  30.753   0.894
27742W        W94173  10.545  26.539   3.192
27743W        W94174  26.152  32.951  13.659
27744W        W94175  31.643  43.339  14.392
27745W        W94176  38.512  41.760  14.444
27746W        W94177  29.625  18.834   3.807
27747W        W94178  19.269  20.657   4.633
27748W        W94179   3.576  20.779  14.429
27749W        W94180  32.990  27.868   4.928
27750W        W94181  15.680   8.564  11.538
27751W        W94182   7.924   4.419  12.702
27752W        W94183  39.446  39.917  13.006
27753W        W94184  43.255   8.921   2.259
27754W        W94185  40.597   1.877  13.246
27755W        W94186  32.343  30.816  11.670
27756W        W94187  15.382   0.214  13.086
27757W        W94188  12.858  18.279   1.336
27758W        W94189   5.848  43.717   0.339
27759W        W94190  36.530  44.036   3.150
27760W        W94191  35.646  22.115  13.934
27761W        W94192  25.365  41.739   2.206
27762W        W94193  27.458  16.018   3.881
27763W        W94194  38.760  17.844   0.064
27764W        W94195  43.201  29.073  12.924
27765W        W94196  38.350  27.589   1.807
27766W        W94197  28.899  23.894   3.449
27767W        W94198  25.243  23.500   3.704
27768W        W94199  12.183  23.435  12.581
27769W        W94200  23.118  42.305   2.622
27770W        W94201  14.267  36.926   2.405
27771W        W94202  24.702  21.564  13.373
27772W        W94203  39.983  13.089  13.754
27773W        W94204   5.234   2.186  13.003
27774W        W94205  12.931  26.988  13.549
27775W        W94206  34.180   8.280   2.803
27776W        W94207  24.995  21.090   1.102
27777W        W94208  21.475  28.972  11.562
27778W        W94209  38.825  20.849   1.157
27779W        W94210  23.206  37.833  14.833
27780W        W94211  40.487  11.459  13.934
27781W        W94212  40.882  43.272   2.888
27782W        W94213   5.733  29.200  14.365
27783W        W94214  20.676  28.776   4.095
27784W        W94215  41.465   8.362  14.333
27785W        W94216   8.303  21.680  14.364
27786W        W94217  39.037  16.407   0.744
27787W        W94218  34.516  24.409  13.155
27788W        W94219   0.676   8.421  13.068
27789W        W94220   1.913   9.724   3.573
27790W        W94221  42.915   4.533   3.257
27791W        W94222   4.392  14.547   4.176
27792W        W94223  26.612   6.701   0.760
27793W        W94224  40.009  24.985   2.717
27794W        W94225   9.890  26.541   2.714
27795W        W94226  26.398  17.629  13.528
27796W        W94227  38.871   3.955   3.032
27797W        W94228  31.488   8.336   2.414
27798W        W94229  22.773  44.255   1.324
27799W        W94230   8.568  34.068   1.362
27800W        W94231  10.714  41.067  10.941
27801W        W94232  27.970   1.933  13.941
27802W        W94233  29.130  39.121  12.298
27803W        W94234  22.912   4.849  13.542
27804W        W94235   2.386  30.602   2.340
27805W        W94236  43.940   2.056   3.509
27806W        W94237  43.454  37.933  14.237
27807W        W94238  17.303  14.324   2.253
27808W        W94239  23.784  26.237  11.144
27809W        W94240   3.827  11.403  14.409
27810W        W94241  29.591  26.167   3.672
27811W        W94242  24.963  44.401  10.662
27812W        W94243   8.859  37.984  13.436
27813W        W94244  10.498  37.849   2.283
27814W        W94245  33.934  31.690   4.190
27815W        W94246  28.051  10.884   0.417
27816W        W94247  14.274   7.260  14.720
27817W        W94248  27.520  31.171  11.516
27818W        W94249  39.877  32.608  11.632
27819W        W94250  40.207  39.564   9.971
27820W        W94251  30.576  44.279  14.729
27821W        W94252  31.715  18.588  14.472
27822W        W94253  17.007  41.567  11.909
27823W        W94254  38.024  20.325  11.214
27824W        W94255  39.154  23.209  13.504
27825W        W94256   0.159   8.971   4.503
27826W        W94257  15.893  31.066  12.200
27827W        W94258   5.934  25.060  14.156
27828W        W94259  15.727  37.397  13.551
27829W        W94260  17.913  10.354  12.413
27830W        W94261  20.907  35.845  14.746
27831W        W94262  25.162   2.788   0.406
27832W        W94263   5.187  17.929   2.779
27833W        W94264  35.077  21.657  11.578
27834W        W94265  41.838   8.182   1.284
27835W        W94266  28.917   2.824   4.713
27836W        W94267  11.613  36.103   0.305
27837W        W94268  38.735  28.710   0.518
27838W        W94269  17.515  30.558   4.682
27839W        W94270  38.547   9.717  12.968
27840W        W94271  33.017  15.132  12.057
27841W        W94272   7.825  10.343  14.226
27842W        W94273   5.295   0.464  10.737
27843W        W94274  16.636  17.170  12.044
27844W        W94275  25.010  32.498   4.182
27845W        W94276  35.850  40.396  10.843
27846W        W94277  32.869  40.564   3.452
27847W        W94278   3.256  25.654  10.706
27848W        W94279   5.817   7.577  10.389
27849W        W94280  29.640  37.526  13.136
27850W        W94281  36.074  17.627  13.182
27851W        W94282   9.119   1.385   4.029
27852W        W94283  36.000  17.089   4.096
27853W        W94284  31.009  33.396   4.040
27854W        W94285  40.334  10.001   0.955
27855W        W94286  24.974  34.011  11.729
27856W        W94287   3.752  13.089  10.937
27857W        W94288  38.793   2.063   0.911
27858W        W94289  16.673  24.654  11.754
27859W        W94290  36.424  23.687   0.030
27860W        W94291   7.345  17.151  14.124
27861W        W94292   4.234  34.548  12.939
27862W        W94293   4.962  16.183  13.389
27863W        W94294   4.458  39.943  14.707
27864W        W94295   2.255   8.927   3.152
27865W        W94296  19.726  38.842  10.931
27866W        W94297  19.037   9.218   2.791
27867W        W94298   2.243  19.790   3.137
27868W        W94299  44.487  44.941   2.179
27869W        W94300   0.876   3.177   4.083
27870W        W94301   9.284  37.392   0.156
27871W        W94302  14.156  41.241  10.373
27872W        W94303  21.146  42.884   3.614
27873W        W94304  23.163  13.305   0.920
27874W        W94305  35.979  38.590   0.049
27875W        W94306  26.686  30.836  11.187
27876W        W94307  34.409  39.782   4.822
27877W        W94308  38.940  43.481   3.856
27878W        W94309   8.769   5.858  13.878
27879W        W94310  39.513  37.042   0.399
27880W        W94311  27.983  41.344   0.317
27881W        W94312  11.904  10.030  11.105
27882W        W94313  15.227  17.111   0.749
27883W        W94314  37.431  35.256   0.855
27884W        W94315  43.851  38.239   2.927
27885W        W94316  44.023  34.972   2.679
27886W        W94317  18.575  31.807   2.396
27887W        W94318  21.675  35.465   4.502
27888W        W94319  40.882  36.048  10.519
27889W        W94320  35.946   4.058  11.217
27890W        W94321  21.182  10.614  10.398
27891W        W94322  32.350   4.230   2.862
27892W        W94323  19.080  19.970  14.274
27893W        W94324  33.521  30.670  11.950
27894W        W94325   0.020  34.385  12.567
27895W        W94326   3.026  22.135   3.168
27896W        W94327  40.549   8.351  11.397
27897W        W94328  12.041  12.076   0.897
27898W        W94329   3.999   9.142  12.412
27899W        W94330  20.708  12.784  10.308
27900W        W94331  17.580  23.839   4.923
27901W        W94332  18.475  16.650  11.572
27902W        W94333  11.238   7.735  12.157
27903W        W94334   1.538  23.241   3.153
27904W        W94335  15.701  15.841   3.128
27905W        W94336  21.190  11.320   0.681
27906W        W94337  42.464   3.944   0.105
27907W        W94338  14.179  27.704  11.527
27908W        W94339  37.911  41.478  10.490
27909W        W94340  18.703  44.380  12.967
27910W        W94341  18.724  27.513  10.500
27911W        W94342   6.965  25.189  14.540
27912W        W94343  16.658  14.786   1.759
27913W        W94344  24.627   7.829   4.160
27914W        W94345  13.095   4.546   2.167
27915W        W94346  26.115  30.443  11.864
27916W        W94347  42.357  29.028  11.563
27917W        W94348  30.942   2.864  12.649
27918W        W94349   8.725  36.118  10.704
27919W        W94350  25.011   2.052  13.342
27920W        W94351  28.590   9.705   2.427
27921W        W94352  29.374  12.242   0.127
27922W        W94353  15.809  16.877  10.739
27923W        W94354  35.913  22.491   0.347
27924W        W94355  28.487  18.424  11.968
27925W        W94356   0.239  23.819   3.390
27926W        W94357  39.684  26.000   3.714
27927W        W94358  26.264  30.897  12.565
27928W        W94359   6.925  33.328   0.958
27929W        W94360  27.914  18.030  14.765
27930W        W94361  26.227  22.245   4.759
27931W        W94362  27.651  30.003  10.381
27932W        W94363  28.104  27.600   2.983
27933W        W94364   0.580  15.254   4.534
27934W        W94365  28.978  29.676  11.617
27935W        W94366  27.985  17.712  12.993
27936W        W94367  41.525   6.919   2.737
27937W        W94368  39.450  40.989  13.887
27938W        W94369  26.152   8.814  12.110
27939W        W94370  19.460  28.898   2.196
27940W        W94371  38.401  35.570  10.421
27941W        W94372  10.186   0.214   3.850
27942W        W94373  23.270  24.421  12.146
27943W        W94374   8.919  17.534  14.775
27944W        W94375  10.356   0.342  10.728
27945W        W94376  22.196  35.074   0.740
27946W        W94377  18.295  10.765   0.022
27947W        W94378   6.943  22.272   4.005
27948W        W94379   1.422  13.800   0.091
27949W        W94380  19.138  18.795  11.219
27950W        W94381  28.148  12.854  11.881
27951W        W94382   5.936   5.280  11.258
27952W        W94383  39.492  19.474  13.120
27953W        W94384  29.523  43.437   4.655
27954W        W94385   2.662  39.259  14.346
27955W        W94386   9.647  42.722   0.355
27956W        W94387  35.307   1.115  14.456
27957W        W94388  11.731  42.584   2.075
27958W        W94389   7.841  42.764  10.814
27959W        W94390  18.828   6.922  14.057
27960W        W94391  23.274  12.402  12.224
27961W        W94392  20.576   4.102  14.984
27962W        W94393  34.369  36.443  14.492
27963W        W94394  12.675  25.906  10.762
27964W        W94395  24.766   6.161  12.074
27965W        W94396  35.465  39.669   5.301
27966W        W94397  33.156  30.029   4.586
27967W        W94398  33.099   8.333  13.501
27968W        W94399  36.328  33.728  13.642
27969W        W94400  15.848  39.963   4.178
27970W        W94401  36.988  41.992   5.345
27971W        W94402  42.484  28.617  10.596
27972W        W94403  13.209  38.907   3.452
27973W        W94404  28.942   3.293   2.677
27974W        W94405  23.542  42.294   2.325
27975W        W94406  36.826  39.218   3.507
27976W        W94407  15.777  16.352   1.329
27977W        W94408  17.788  38.289  11.814
27978W        W94409  43.549   0.496   0.279
27979W        W94410  43.382  19.359   4.219
27980W        W94411  17.158   6.147  10.718
27981W        W94412  40.950  13.631  14.840
27982W        W94413  17.871  43.482  12.742
27983W        W94414   5.605   7.995   3.719
27984W        W94415  36.562  30.549  11.213
27985W        W94416  16.256  35.443   4.630
27986W        W94417   0.486  35.434   3.581
27987W        W94418   6.323   6.416   0.942
27988W        W94419  18.935  37.314  10.279
27989W        W94420  28.091  36.491   2.371
27990W        W94421  12.826  10.027  12.231
27991W        W94422  22.923  17.706   1.887
27992W        W94423  38.831  40.993   3.193
27993W        W94424  33.110  18.134   0.310
27994W        W94425  19.693  29.521   3.986
27995W        W94426  12.521  25.201  14.067
27996W        W94427  37.479   7.119  13.769
27997W        W94428  17.692   6.562   3.596
27998W        W94429   7.942  41.888   3.180
27999W        W94430  19.196  35.836  12.961
28000W        W94431  13.609  28.294   2.016
28001W        W94432  12.330  11.362  11.992
28002W        W94433  19.079  23.332  11.596
28003W        W94434  42.427  26.198  10.561
28004W        W94435  15.194   4.928   1.060
28005W        W94436  36.519   6.851   4.851
28006W        W94437  18.111  23.461  14.171
28007W        W94438  44.732  35.098   3.210
28008W        W94439  11.849   4.402   1.777
28009W        W94440  22.414  10.744  11.873
28010W        W94441  43.456  16.734   0.029
28011W        W94442  13.020   2.051  12.085
28012W        W94443  39.572  22.365  12.500
28013W        W94444  24.829  35.875  11.932
28014W        W94445  36.552  11.131   3.646
28015W        W94446  43.729  22.628   3.187
28016W        W94447  26.691  36.374   0.804
28017W        W94448   2.990  40.903  10.636
28018W        W94449  16.151  10.185  14.081
28019W        W94450  18.720  21.254   4.704
28020W        W94451   4.106  12.806  13.757
28021W        W94452  34.526   2.945   3.856
28022W        W94453   4.408  40.346  10.768
28023W        W94454   7.181   6.587   4.152
28024W        W94455  30.490   1.428   4.222
28025W        W94456  32.065  43.985   2.888
28026W        W94457  40.885  26.994  12.437
28027W        W94458   2.851  32.158   4.888
28028W        W94459  23.659  15.182   4.582
28029W        W94460  24.776  26.550  14.251
28030W        W94461  30.523  27.573   3.713
28031W        W94462   1.973  43.189  12.451
28032W        W94463  39.971  18.548  11.249
28033W        W94464  21.272   8.772  13.613
28034W        W94465  26.955  27.099   4.890
28035W        W94466  35.646  44.424  13.880
28036W        W94467  22.759  28.596   0.274
28037W        W94468   4.344  44.462   0.917
28038W        W94469   6.316  12.717  10.293
28039W        W94470  26.675  19.338  13.553
28040W        W94471  39.837  40.733  11.082
28041W        W94472  26.936  24.115   4.184
28042W        W94473  28.204  26.986   0.811
28043W        W94474  27.504  20.573   0.701
28044W        W94475  28.357   2.901   4.648
28045W        W94476   0.418  42.719  14.343
28046W        W94477  41.528  12.878   4.086
28047W        W94478  12.596  23.646  12.082
28048W        W94479  30.944  30.707   4.520
28049W        W94480  27.479  24.310   3.333
28050W        W94481  30.319  32.922   1.064
28051W        W94482  12.312   1.275   2.323
28052W        W94483   1.878  31.442  12.456
28053W        W94484  41.981  40.783   4.199
28054W        W94485  41.531  22.733  13.498
28055W        W94486   9.668  28.469  12.400
28056W        W94487  33.844   6.252  11.173
28057W        W94488  39.227  44.287  11.003
28058W        W94489  41.295  18.302  14.876
28059W        W94490  14.750  25.016  13.479
28060W        W94491  39.307  17.497  11.691
28061W        W94492  35.514  21.301  14.383
28062W        W94493   4.667  17.026   4.842
28063W        W94494  36.562  26.625  14.453
28064W        W94495  16.466  19.050  13.496
28065W        W94496  10.077   4.328   2.658
28066W        W94497  24.282  41.994   0.733
28067W        W94498  11.494   0.298   4.193
28068W        W94499  38.872  44.521   2.312
28069W        W94500   6.925  37.506  12.785
28070W        W94501   0.716  17.120   1.688
28071W        W94502  18.955  17.860   3.514
28072W        W94503  38.095  25.610  13.379
28073W        W94504  21.659  43.039   3.241
28074W        W94505  33.036  25.625   2.895
28075W        W94506  33.634  19.975  14.031
28076W        W94507   5.386  39.113  10.733
28077W        W94508  14.687  33.402   3.990
28078W        W94509   0.176  14.227  13.373
28079W        W94510   0.968   6.855   2.106
28080W        W94511  36.864  14.571   1.747
28081W        W94512  43.768  42.910  11.355
28082W        W94513  36.707  16.513  13.372
28083W        W94514  36.627  29.449   5.393
28084W        W94515  38.054  20.696  14.796
28085W        W94516  39.061  13.491   2.411
28086W        W94517  39.734  43.684  12.261
28087W        W94518   4.246  33.349  13.628
28088W        W94519  18.704   7.310   0.774
28089W        W94520   0.283  14.571   1.246
28090W        W94521  39.940  28.142   0.283
28091W        W94522  24.397  11.331  12.770
28092W        W94523   9.476  14.113   0.778
28093W        W94524   5.948   3.535  12.485
28094W        W94525  23.908  35.604  12.606
28095W        W94526   5.403  17.079   1.169
28096W        W94527  19.708  20.977   2.330
28097W        W94528   6.369  30.304  11.256
28098W        W94529  19.505  23.028  13.069
28099W        W94530  18.575  31.088   1.852
28100W        W94531  20.851  32.873   1.774
28101W        W94532  36.996  11.583   4.514
28102W        W94533  10.787  33.440  10.608
28103W        W94534  26.616  24.015  14.118
28104W        W94535  26.883  35.109   0.859
28105W        W94536  13.588  30.257   0.076
28106W        W94537   1.293  15.797  10.729
28107W        W94538   2.093  25.102  13.144
28108W        W94539   3.912  29.979  11.915
28109W        W94540  35.494  25.662   4.872
28110W        W94541  20.100   1.538  14.557
28111W        W94542   3.780  16.734   0.220
28112W        W94543  28.811  23.504   2.274
28113W        W94544  18.253  23.830  13.841
28114W        W94545  32.535  42.978   5.123
28115W        W94546  22.268  23.189   3.114
28116W        W94547  22.489  23.219   0.518
28117W        W94548  40.076  31.420   3.820
28118W        W94549   0.897  33.768  12.818
28119W        W94550  14.646  22.436   9.791
28120W        W94551  21.692  39.381   4.203
28121W        W94552  10.156  19.247   3.223
28122W        W94553  38.120  30.873  14.590
28123W        W94554  31.921  14.154   2.712
28124W        W94555   3.280   8.813   0.218
28125W        W94556  18.129  15.279  11.871
28126W        W94557  21.072  21.270  13.390
28127W        W94558  27.945  24.108  10.645
28128W        W94559  21.213   1.049  12.902
28129W        W94560  20.650  23.016  14.268
28130W        W94561   3.817  33.582  12.643
28131W        W94562  26.561   7.163  11.219
28132W        W94563  15.027   8.405   1.522
28133W        W94564  13.147   7.180   1.347
28134W        W94565  30.023  32.277  13.388
28135W        W94566  13.811  18.015   2.645
28136W        W94567  35.623   8.403   0.901
28137W        W94568  19.613  27.731  13.244
28138W        W94569   1.514  28.988   0.860
28139W        W94570  30.229  35.369   1.792
28140W        W94571  30.391  37.215   1.864
28141W        W94572   7.327  24.478   1.806
28142W        W94573  29.126  37.004  11.796
28143W        W94574  42.440   5.391   0.309
28144W        W94575  23.701  28.749  12.672
28145W        W94576  16.585  10.534   0.483
28146W        W94577  17.232  26.650  14.557
28147W        W94578   2.827  42.403   4.511
28148W        W94579   2.904  13.191   0.362
28149W        W94580  23.534  21.073   4.957
28150W        W94581  41.656   7.216  11.647
28151W        W94582  10.576  26.757   5.018
28152W        W94583  41.351  42.105   0.940
28153W        W94584  26.232  44.932   1.221
28154W        W94585   6.314   7.670  11.580
28155W        W94586  32.456  33.524   4.414
28156W        W94587  42.511  24.144  12.149
28157W        W94588  10.407  23.017  10.620
28158W        W94589  31.046  13.323  11.541
28159W        W94590  20.775  23.590   4.399
28160W        W94591  12.791   9.470  10.633
28161W        W94592   1.528  35.004   3.127
28162W        W94593   7.535   8.689   4.563
28163W        W94594  26.479  35.485  14.127
28164W        W94595  44.404  34.588  10.217
28165W        W94596   8.712   9.565   2.815
28166W        W94597  32.583  31.117   0.933
28167W        W94598  41.098  21.843  11.631
28168W        W94599  10.796  33.387  11.957
28169W        W94600   5.263  43.032  13.812
28170W        W94601  17.067   7.215   2.791
28171W        W94602  16.943  29.667  11.561
28172W        W94603   0.434  33.690   2.313
28173W        W94604  38.462  21.596   3.253
28174W        W94605  18.957  29.093  11.682
28175W        W94606  29.428  22.977   1.904
28176W        W94607  25.136  24.510   3.765
28177W        W94608  31.894  13.613  13.502
28178W        W94609  31.542   7.077  11.882
28179W        W94610  28.961  37.266   0.423
28180W        W94611  33.901  16.420  11.516
28181W        W94612   6.860   3.158  12.625
28182W        W94613  13.182  31.509   4.226
28183W        W94614  31.417  18.205  13.561
28184W        W94615   3.704  24.056   2.831
28185W        W94616  14.016  17.417  12.511
28186W        W94617  37.343   0.774  11.480
28187W        W94618  36.710   2.354  12.756
28188W        W94619  30.471   9.431  14.105
28189W        W94620  31.281  12.318  11.695
28190W        W94621  40.618   1.822   3.690
28191W        W94622  24.323  32.474  10.211
28192W        W94623   7.007  25.536  10.760
28193W        W94624   6.907  31.097  13.406
28194W        W94625  41.910   7.589  14.485
28195W        W94626   3.878  33.397   2.926
28196W        W94627  40.070  36.878  12.293
28197W        W94628  36.397  19.124   1.878
28198W        W94629  31.920  36.426   1.771
28199W        W94630  33.882   8.339  13.912
28200W        W94631  34.609  37.247  14.787
28201W        W94632  27.541  10.645   0.958
28202W        W94633  29.867  14.589   4.127
28203W        W94634  32.467   0.896   0.930
28204W        W94635   0.983   0.873   1.384
28205W        W94636  32.742   1.285  12.918
28206W        W94637  44.995   6.797  13.969
28207W        W94638  21.454   6.321  13.535
28208W        W94639  32.906  32.376  14.409
28209W        W94640  22.225  16.837  12.547
28210W        W94641  30.519  43.580  12.302
28211W        W94642  26.232  36.611   0.897
28212W        W94643  25.682  12.467   4.836
28213W        W94644  19.607  38.339  14.948
28214W        W94645  26.796  37.369  10.667
28215W        W94646  26.559  33.531  11.550
28216W        W94647  31.702  36.515  14.874
28217W        W94648  12.543  37.167  13.482
28218W        W94649  43.441  31.437  10.924
28219W        W94650  21.785  33.159   2.855
28220W        W94651  15.660   2.687  13.164
28221W        W94652  10.610  39.298  12.629
28222W        W94653  14.314  21.301   2.754
28223W        W94654  31.155  29.985   3.439
28224W        W94655   3.233  19.028   4.748
28225W        W94656  19.575  39.321  12.711
28226W        W94657  19.754   2.963  10.960
28227W        W94658  19.644  20.550  11.128
28228W        W94659  44.245  38.536  11.935
28229W        W94660  44.898  29.652  11.245
28230W        W94661  26.172  16.566   4.051
28231W        W94662  14.854  35.065  14.471
28232W        W94663  13.720  32.092   4.755
28233W        W94664  16.737  20.818  13.121
28234W        W94665  13.572  42.053  10.716
28235W        W94666  24.322   4.742  14.671
28236W        W94667  24.903  29.751  12.069
28237W        W94668   5.828  29.963   4.752
28238W        W94669  14.136  34.205   2.397
28239W        W94670  33.078  44.706   1.298
28240W        W94671  39.732  24.596   2.936
28241W        W94672  38.351  17.527  14.937
28242W        W94673   8.351  15.243  11.560
28243W        W94674   6.815  16.325  14.066
28244W        W94675  39.963   8.399  13.512
28245W        W94676  23.524  26.935   1.733
28246W        W94677  44.949  13.288   1.269
28247W        W94678   0.036   0.575  12.602
28248W        W94679  19.796  38.354   3.577
28249W        W94680  13.679  24.240  13.092
28250W        W94681   0.280  20.110   1.770
28251W        W94682  38.438  14.608  14.546
28252W        W94683   4.731   4.390  14.291
28253W        W94684  26.595  19.538  13.056
28254W        W94685  34.144  13.161   0.214
28255W        W94686  15.071  19.834   4.934
28256W        W94687   9.414  37.847   0.741
28257W        W94688  15.370  34.884   1.326
28258W        W94689  23.896  19.627  11.748
28259W        W94690  42.372   0.995   3.033
28260W        W94691   7.916  31.141  14.299
28261W        W94692  18.049   9.631  13.123
28262W        W94693  36.956  10.865   3.858
28263W        W94694  15.645  31.081  10.978
28264W        W94695   4.444  19.888  14.537
28265W        W94696  42.931   0.512   3.625
28266W        W94697  39.837  27.675  11.282
28267W        W94698   1.480   0.935  12.887
28268W        W94699  44.394  38.617   3.137
28269W        W94700  23.227  19.046  12.596
28270W        W94701  38.523  29.091  12.298
28271W        W94702  24.642   0.740  13.441
28272W        W94703   7.705  28.414  12.124
28273W        W94704   2.617  27.127  11.259
28274W        W94705  42.309   5.040  12.881
28275W        W94706  10.839  33.671  12.436
28276W        W94707  11.569  12.912   0.353
28277W        W94708  41.877   6.795   1.280
28278W        W94709   4.834  36.367  14.076
28279W        W94710   2.876  15.195  13.301
28280W        W94711  44.438  19.697  10.839
28281W        W94712  27.315  31.106   6.032
28282W        W94713  41.566  36.384   2.158
28283W        W94714   3.140  27.005   3.954
28284W        W94715  42.479  12.658  12.450
28285W        W94716  12.089  31.042  12.796
28286W        W94717  30.885  19.790   1.838
28287W        W94718  35.097  26.685  13.409
28288W        W94719  17.605  21.491  14.336
28289W        W94720  34.659  13.929   2.674
28290W        W94721   7.636  37.093  11.639
28291W        W94722  44.453  22.115   2.465
28292W        W94723  14.505  21.733  12.537
28293W        W94724  17.734  25.716   4.638
28294W        W94725  31.675   1.755   3.706
28295W        W94726  29.096   0.506  13.330
28296W        W94727  35.521   7.977   2.756
28297W        W94728  26.144   0.376   4.741
28298W        W94729  12.667   1.251  10.570
28299W        W94730   7.263  35.888  13.346
28300W        W94731  34.426  44.081   1.169
28301W        W94732  34.102  10.241   3.275
28302W        W94733  37.301  34.505  11.273
28303W        W94734  44.305  22.278   0.338
28304W        W94735  19.712  16.825  11.122
28305W        W94736  19.397   3.927   0.424
28306W        W94737  19.077  35.604  12.478
28307W        W94738  11.141   6.853   0.752
28308W        W94739  16.637  28.617  11.373
28309W        W94740  41.279  11.261  13.159
28310W        W94741  19.638  12.165   2.373
28311W        W94742  36.799  38.702   3.716
28312W        W94743  27.773   4.199  14.934
28313W        W94744  35.769  24.198  14.932
28314W        W94745  30.426  42.771   3.208
28315W        W94746  35.884  16.676   2.445
28316W        W94747  32.522  35.347  14.925
28317W        W94748   2.904  30.516   2.426
28318W        W94749  38.668  41.023   0.185
28319W        W94750  38.463   0.205  13.722
28320W        W94751  43.184  37.665  12.024
28321W        W94752  41.833  18.312   0.757
28322W        W94753   4.110  44.255  10.694
28323W        W94754   4.490  19.165   5.270
28324W        W94755   1.929  28.933   2.724
28325W        W94756  19.669  20.245   0.684
28326W        W94757   7.418  31.754  10.968
28327W        W94758  35.310  15.046   0.457
28328W        W94759  38.234   3.885   1.675
28329W        W94760  22.953  11.580  11.951
28330W        W94761  19.946  17.114  12.400
28331W        W94762  41.336  12.436   0.714
28332W        W94763  22.065  17.064   3.775
28333W        W94764  18.611  42.333   0.171
28334W        W94765  19.955  43.747   3.679
28335W        W94766  42.726  39.879  12.977
28336W        W94767  37.354   0.159   0.058
28337W        W94768  17.914   4.795  14.715
28338W        W94769  30.721  35.257  12.277
28339W        W94770   0.553   3.343  14.434
28340W        W94771  32.530   9.214   3.307
28341W        W94772  43.810  30.122   2.225
28342W        W94773  16.526  11.333  14.344
28343W        W94774  16.298   7.063   5.581
28344W        W94775  37.873   5.509  10.705
28345W        W94776  16.199   0.839   4.375
28346W        W94777   5.505  17.339   0.724
28347W        W94778  43.075  44.178   2.938
28348W        W94779  19.609  32.414   0.874
28349W        W94780  37.038  18.320  10.558
28350W        W94781  29.187  23.225  11.171
28351W        W94782   3.507  23.746  12.539
28352W        W94783  15.055  37.890  11.601
28353W        W94784  22.482   2.270   0.316
28354W        W94785  25.616  31.748  13.839
28355W        W94786  25.084  16.334  12.014
28356W        W94787   9.314  17.716   1.471
28357W        W94788  44.510  37.603   3.094
28358W        W94789  21.071  28.454   0.365
28359W        W94790   6.894  37.394  11.315
28360W        W94791   1.760   7.714   0.328
28361W        W94792  10.903   0.796   1.801
28362W        W94793   6.873  14.780  14.906
28363W        W94794  32.662  33.964  12.144
28364W        W94795  28.141  28.699   2.379
28365W        W94796  21.159  11.641   2.696
28366W        W94797  25.573   8.442   0.521
28367W        W94798   0.057   9.971  14.299
28368W        W94799  26.381   9.830   2.795
28369W        W94800  27.775  20.055   3.100
28370W        W94801  25.228   5.452  11.514
28371W        W94802  33.191   8.287  11.148
28372W        W94803  37.340  15.344  13.946
28373W        W94804   6.411  43.913  11.137
28374W        W94805  25.640   5.483   1.383
28375W        W94806  28.711  11.606  14.147
28376W        W94807  23.150   0.974   1.242
28377W        W94808   5.943  15.266   0.882
28378W        W94809  11.633  14.107  12.082
28379W        W94810  30.090  26.206  13.476
28380W        W94811  36.494  13.330  14.557
28381W        W94812  38.885  24.273   1.332
28382W        W94813  16.573  21.589  10.753
28383W        W94814   2.776  11.149   1.269
28384W        W94815   1.401  30.852   2.435
28385W        W94816  26.681  35.291  12.597
28386W        W94817   6.150   8.381   2.845
28387W        W94818  28.411  43.488  13.782
28388W        W94819   8.082  26.506   0.471
28389W        W94820   6.471  22.938   1.856
28390W        W94821  24.294  37.768   4.117
28391W        W94822  17.863  16.602   4.751
28392W        W94823  20.813  14.080   4.213
28393W        W94824  31.406  41.929  10.510
28394W        W94825  24.545  33.715   1.789
28395W        W94826  32.443  12.623  13.086
28396W        W94827  33.671  17.019  12.193
28397W        W94828  42.755   2.952  10.708
28398W        W94829  24.087  35.419  14.471
28399W        W94830   8.914  17.164  11.962
28400W        W94831   2.631   3.672  10.981
28401W        W94832  42.741  41.246  11.214
28402W        W94833   8.740  32.531  12.566
28403W        W94834   6.971   0.329  12.652
28404W        W94835  17.329  24.072   1.638
28405W        W94836  21.229  21.764  11.193
28406W        W94837  31.011   1.406  14.469
28407W        W94838  30.434   1.845  11.951
28408W        W94839   4.286  23.193   3.892
28409W        W94840  24.084  40.883  13.626
28410W        W94841  23.578  22.514   1.832
28411W        W94842  28.570  42.851   3.232
28412W        W94843  10.001   3.902  12.224
28413W        W94844  23.740  38.595  13.558
28414W        W94845  39.398  22.191  14.299
28415W        W94846   1.528  44.508   1.811
28416W        W94847  28.839  36.323   2.725
28417W        W94848  20.103  36.290   4.803
28418W        W94849  37.305  16.056   2.405
28419W        W94850  27.168  16.121  11.627
28420W        W94851  23.353  38.138   4.537
28421W        W94852  12.914  40.400   3.486
28422W        W94853   1.435  23.523  13.457
28423W        W94854  34.986  21.483   1.932
28424W        W94855  13.426  16.550   1.232
28425W        W94856  11.393   9.590   3.047
28426W        W94857  26.643  38.115   3.666
28427W        W94858  36.002  32.640  10.235
28428W        W94859  12.189  20.591   0.937
28429W        W94860  23.965  36.981   0.734
28430W        W94861  36.371  14.261  11.145
28431W        W94862  13.892  27.207   3.589
28432W        W94863  31.893  23.518   0.684
28433W        W94864   0.006  13.964   1.899
28434W        W94865  40.561  33.098  12.233
28435W        W94866   3.499  14.306  13.445
28436W        W94867  22.757  38.281   1.316
28437W        W94868  44.143  11.242  14.977
28438W        W94869  35.029  40.783   2.230
28439W        W94870  41.991   1.127   4.130
28440W        W94871  28.209  34.886  14.225
28441W        W94872  42.733  23.728  13.489
28442W        W94873  29.557  21.321   4.495
28443W        W94874  20.130   7.522  14.739
28444W        W94875   4.809  43.139  10.639
28445W        W94876   8.809  34.747  13.457
28446W        W94877  10.433  29.072   0.657
28447W        W94878  13.219  25.562  12.566
28448W        W94879  11.741  27.529   2.963
28449W        W94880  39.077  36.972   4.569
28450W        W94881  21.925   7.948  14.571
28451W        W94882   2.640  42.228  13.498
28452W        W94883   7.253  26.516   4.539
28453W        W94884  24.489   2.140   2.016
28454W        W94885  28.566  25.026  12.409
28455W        W94886  39.203  29.937   3.617
28456W        W94887  21.469  43.613   0.219
28457W        W94888  39.533  36.033   3.651
28458W        W94889  30.065  37.875   0.022
28459W        W94890  33.515  17.738   0.807
28460W        W94891  17.794  36.311   2.408
28461W        W94892  17.177  36.820  14.697
28462W        W94893  21.002   6.137   2.171
28463W        W94894  13.251   9.423   0.476
28464W        W94895  33.868  28.706  11.681
28465W        W94896  15.777  23.325  14.964
28466W        W94897  19.463  38.410  10.739
28467W        W94898  35.880   2.228   4.758
28468W        W94899   3.937  24.052   0.637
28469W        W94900  42.023   6.425   0.210
28470W        W94901  13.350  11.814  11.492
28471W        W94902   3.263  40.283   3.623
28472W        W94903  18.656   4.913   4.601
28473W        W94904  42.378  21.998   1.864
28474W        W94905  31.761  37.375  10.370
28475W        W94906   8.904  34.124  11.511
28476W        W94907   1.494  25.170   0.984
28477W        W94908  34.290  37.840   2.761
28478W        W94909  42.816  28.952   4.598
28479W        W94910  17.091  23.044   2.411
28480W        W94911  40.728  39.495   2.550
28481W        W94912  43.039  23.105  14.796
28482W        W94913   7.663  26.695  14.297
28483W        W94914  27.933   1.499   0.810
28484W        W94915  44.263  21.590  10.372
28485W        W94916  32.079   7.436  14.917
28486W        W94917  22.028  13.782  13.145
28487W        W94918  14.692  31.096   0.600
28488W        W94919   3.410  14.603   2.409
28489W        W94920  20.292  33.962   1.815
28490W        W94921  16.007  30.657   4.943
28491W        W94922  36.632  33.551   4.328
28492W        W94923   8.380  24.412  14.257
28493W        W94924  18.906   2.367   0.872
28494W        W94925  31.380  39.387  12.338
28495W        W94926   9.446  40.066   2.187
28496W        W94927  25.725   3.872  14.860
28497W        W94928  20.539   6.213  12.107
28498W        W94929  15.715  30.294   0.910
28499W        W94930   3.943  44.884   4.635
28500W        W94931   5.184  25.140   0.831
28501W        W94932  40.007  39.216  11.033
28502W        W94933  22.575  26.432   2.164
28503W        W94934  27.050   9.138   1.665
28504W        W94935  30.061  16.626   1.695
28505W        W94936  18.609  35.891   3.235
28506W        W94937  15.473  12.898   2.257
28507W        W94938  31.378  42.597   4.507
28508W        W94939  39.826  37.310   4.115
28509W        W94940  31.640  44.316   1.310
28510W        W94941  16.066  35.431  10.661
28511W        W94942  32.038  38.396   4.647
28512W        W94943  16.106  16.452   2.464
28513W        W94944  10.187   9.735  12.248
28514W        W94945  17.246  31.951   2.420
28515W        W94946   7.824  17.643  12.577
28516W        W94947  34.131  22.802   1.805
28517W        W94948  14.691  41.811  12.966
28518W        W94949  37.444  38.604   4.481
28519W        W94950  11.824  44.996   2.755
28520W        W94951  29.354  36.177  13.846
28521W        W94952  12.540  27.310  14.266
28522W        W94953  19.957   4.696   0.490
28523W        W94954  21.096  30.426   4.241
28524W        W94955   7.980  18.675  11.641
28525W        W94956  16.796   8.179  13.120
28526W        W94957  19.855  36.605   0.184
28527W        W94958  22.595   8.425   3.584
28528W        W94959   1.697  21.542   4.127
28529W        W94960   8.180  25.504  13.878
28530W        W94961  25.344  20.315  14.470
28531W        W94962  34.779  23.139   0.776
28532W        W94963   1.328  43.072  11.919
28533W        W94964  33.980  26.138  12.869
28534W        W94965   2.462  40.526   1.392
28535W        W94966   3.607  43.849   4.446
28536W        W94967  18.103  30.970   1.673
28537W        W94968  27.872  29.154   4.163
28538W        W94969  37.822  29.211   4.827
28539W        W94970  20.066  33.090   1.221
28540W        W94971  11.760  11.119   3.271
28541W        W94972  19.465  18.369   4.556
28542W        W94973   7.119  24.005   2.805
28543W        W94974  16.295  23.160  14.946
28544W        W94975  36.494  15.089   2.762
28545W        W94976  22.950  26.300   2.498
28546W        W94977   0.634  23.107  12.945
28547W        W94978   7.946  30.825  11.664
28548W        W94979   4.378  34.949  10.793
28549W        W94980  27.006  44.137  13.736
28550W        W94981  44.373  34.183  13.888
28551W        W94982   4.254  27.770   2.900
28552W        W94983  20.210  30.216   9.526
28553W        W94984   1.747  20.596   1.453
28554W        W94985   0.268  11.698   2.281
28555W        W94986  10.908  18.263  13.877
28556W        W94987  36.628  28.568   3.847
28557W        W94988  17.199   2.005  14.101
28558W        W94989  12.181   2.640   2.786
28559W        W94990   2.160  35.009  14.917
28560W        W94991  36.893  13.748  11.039
28561W        W94992  10.860  44.101   2.187
28562W        W94993  11.614  40.992  12.347
28563W        W94994  41.985  10.239  10.699
28564W        W94995  11.224  23.995  11.971
28565W        W94996  31.789  19.812   4.014
28566W        W94997  29.772  16.836   1.135
28567W        W94998  37.660  38.481   1.847
28568W        W94999  26.806  32.373   0.270
28569W        W95000  33.171   8.705   2.151
28570W        W95001  44.958   5.904  11.846
28571W        W95002  28.116  16.669  14.058
28572W        W95003  38.435  13.067   2.085
28573W        W95004  35.545  41.981  11.808
28574W        W95005   8.716  22.505  12.070
28575W        W95006  23.166   5.748   1.661
28576W        W95007  33.231  29.476   1.012
28577W        W95008  12.858  28.782   0.277
28578W        W95009  31.864  41.579   3.362
28579W        W95010   1.771  26.179  12.065
28580W        W95011   9.235  14.049  11.812
28581W        W95012  22.133  29.409   0.448
28582W        W95013  41.017   4.222   1.205
28583W        W95014  30.207  36.402  11.013
28584W        W95015  32.387   4.835   4.730
28585W        W95016  15.706  37.668   4.582
28586W        W95017   3.791  21.785   4.071
28587W        W95018  26.938  37.921  13.829
28588W        W95019   9.284   8.482  13.092
28589W        W95020  24.031  28.532  14.987
28590W        W95021   3.939  12.303  13.976
28591W        W95022   5.965  29.702   3.230
28592W        W95023   0.014  11.631   3.728
28593W        W95024  18.144  29.563   3.763
28594W        W95025  10.052  12.147   3.073
28595W        W95026   0.570  33.655  14.794
28596W        W95027  29.268   7.799   1.919
28597W        W95028  26.400  35.431  13.057
28598W        W95029  40.234  42.503  13.893
28599W        W95030   1.675  15.611  12.986
28600W        W95031   9.134  10.640   2.348
28601W        W95032   6.409  36.651  11.240
28602W        W95033  40.792  39.223  12.876
28603W        W95034  12.143   0.948   0.864
28604W        W95035  14.719  32.342  12.231
28605W        W95036  34.611  20.491  11.178
28606W        W95037  17.656  19.713   3.704
28607W        W95038  27.037  32.137  12.078
28608W        W95039   6.978  10.386  12.130
28609W        W95040   3.145  38.008   2.368
28610W        W95041  23.009  13.316  13.438
28611W        W95042  44.953   0.268   0.700
28612W        W95043  14.605  33.585  12.638
28613W        W95044  24.485  11.130   2.802
28614W        W95045  22.762  40.981  11.119
28615W        W95046  25.490  13.535   1.445
28616W        W95047  38.359  14.096  13.938
28617W        W95048   4.882   0.823  10.742
28618W        W95049   7.361  42.419  14.475
28619W        W95050  35.397  39.527  11.306
28620W        W95051   2.256  26.164   4.905
28621W        W95052  42.244  38.767   2.355
28622W        W95053  42.808   7.754   1.836
28623W        W95054  36.331  41.721  11.771
28624W        W95055  17.611   0.505  11.753
28625W        W95056  18.065  33.937  13.291
28626W        W95057  39.602  27.750   3.095
28627W        W95058   6.786   3.738   3.705
28628W        W95059  29.150  43.837   2.407
28629W        W95060  37.107  27.133  13.858
28630W        W95061  17.166  18.340   4.092
28631W        W95062  40.770   8.915   0.433
28632W        W95063  18.528  14.629   3.008
28633W        W95064   1.150  14.485  10.765
28634W        W95065  33.072  37.662  13.755
28635W        W95066  16.226   7.929  12.469
28636W        W95067   0.356  42.570   1.416
28637W        W95068  36.012  35.924  14.222
28638W        W95069  39.545   0.304   4.135
28639W        W95070  34.887  29.258   3.646
28640W        W95071   5.749  42.000  11.033
28641W        W95072  22.063  13.744  10.658
28642W        W95073   2.047  43.294   2.297
28643W        W95074  31.603  32.902   4.666
28644W        W95075   7.833  11.789   2.003
28645W        W95076   7.969  27.584  12.158
28646W        W95077  20.081  22.355  11.582
28647W        W95078  35.308  10.964   0.381
28648W        W95079   1.107  10.613   4.225
28649W        W95080   6.784  34.916  11.523
28650W        W95081  44.126  39.427   0.853
28651W        W95082   0.849  14.360   4.214
28652W        W95083  11.383  44.410  12.477
28653W        W95084  10.538  13.616  12.469
28654W        W95085  44.831  18.802   2.453
28655W        W95086  32.271  11.526  11.507
28656W        W95087  15.596  36.344  10.661
28657W        W95088  24.720   6.319   3.193
28658W        W95089  20.235  37.863   4.160
28659W        W95090  35.413   4.935  14.476
28660W        W95091  43.876  21.531  13.989
28661W        W95092  34.991  23.245  13.510
28662W        W95093  18.812  39.251   4.334
28663W        W95094  33.501  42.755  13.569
28664W        W95095  24.117  11.577  13.913
28665W        W95096  37.709   9.241  11.033
28666W        W95097  21.764  37.676   4.957
28667W        W95098  34.457  16.115  13.483
28668W        W95099  27.216  41.967   2.889
28669W        W95100  43.093  36.953  14.445
28670W        W95101  28.851  17.790   3.196
28671W        W95102  19.475  21.015   4.076
28672W        W95103  40.768  37.063  13.044
28673W        W95104  24.271   3.735  10.742
28674W        W95105  25.652  43.753  11.723
28675W        W95106   5.365  12.286  13.032
28676W        W95107  43.307  27.350   0.502
28677W        W95108  33.093  24.549  12.117
28678W        W95109  41.630  21.242  12.718
28679W        W95110   1.412  42.262   4.560
28680W        W95111  35.653  42.803  12.405
28681W        W95112  25.915  40.858  10.631
28682W        W95113  12.196  26.943  12.505
28683W        W95114  34.102  43.761   3.395
28684W        W95115   5.788  43.944   3.270
28685W        W95116  42.748  21.837  14.425
28686W        W95117  29.252  41.721  12.199
28687W        W95118  28.090  43.019   3.051
28688W        W95119  18.444  40.465   1.325
28689W        W95120   7.448   6.849  11.548
28690W        W95121  25.217  36.665  14.377
28691W        W95122  18.826  11.078   1.321
28692W        W95123  19.402  41.233  13.344
28693W        W95124   4.382   2.041  13.863
28694W        W95125  16.573  27.625  11.695
28695W        W95126  17.973  26.420   5.032
28696W        W95127  24.721  41.493  10.207
28697W        W95128  40.369  29.594  13.887
28698W        W95129  31.416  17.902   0.763
28699W        W95130   4.628  19.714   2.836
28700W        W95131  40.269  30.869   5.044
28701W        W95132  27.703  41.463  13.869
28702W        W95133  28.997  37.438   4.807
28703W        W95134  23.877   0.517   4.318
28704W        W95135  22.911  41.026  10.627
28705W        W95136  13.979  31.803   2.258
28706W        W95137   4.276  25.222  12.499
28707W        W95138  32.344  15.747   3.595
28708W        W95139  29.394  23.516  12.001
28709W        W95140  43.347  36.131   2.237
28710W        W95141  27.179  19.029  13.381
28711W        W95142  35.220  17.854   3.702
28712W        W95143  39.091  17.256  12.525
28713W        W95144  36.984  13.602  13.355
28714W        W95145  32.012   1.166  14.531
28715W        W95146   7.752  20.508  12.415
28716W        W95147  11.084  43.032  12.347
28717W        W95148  32.615  24.249   4.395
28718W        W95149  20.194  44.498   0.002
28719W        W95150  14.202  24.741  12.549
28720W        W95151   7.333  21.543  13.425
28721W        W95152  34.560  18.621  14.867
28722W        W95153  36.262  37.227   0.408
28723W        W95154  30.353  44.518  13.867
28724W        W95155  43.725   6.867  14.462
28725W        W95156  12.716   5.285  11.973
28726W        W95157   7.888  21.564  12.588
28727W        W95158  33.065  18.867   3.310
28728W        W95159  20.532   5.437  12.195
28729W        W95160   8.181  14.255   2.058
28730W        W95161  18.140   3.927  13.946
28731W        W95162  23.468   7.367   0.691
28732W        W95163  10.298   6.891  10.457
28733W        W95164  40.432  11.408   4.559
28734W        W95165   9.231  18.243  11.295
28735W        W95166  39.357  40.987   4.482
28736W        W95167   1.970   4.389   4.614
28737W        W95168  34.731  14.421   3.560
28738W        W95169   1.764  32.143  11.709
28739W        W95170  40.968   4.273  13.601
28740W        W95171   7.849  14.659   2.116
28741W        W95172  43.421  38.762   0.804
28742W        W95173   2.731  12.455   0.931
28743W        W95174  18.701  12.304   0.314
28744W        W95175   8.439  39.773   2.290
28745W        W95176  22.577  32.925   4.039
28746W        W95177  18.781  31.430   4.511
28747W        W95178   4.713  20.049  10.783
28748W        W95179  26.605  14.732  12.507
28749W        W95180   8.252  42.201   4.131
28750W        W95181   0.678  29.181  13.801
28751W        W95182   8.102  43.210  14.313
28752W        W95183  10.614  19.513  14.969
28753W        W95184  35.360  21.164  10.766
28754W        W95185   7.797   9.365   3.450
28755W        W95186  26.907  29.724   1.953
28756W        W95187  37.830  22.487   1.354
28757W        W95188  26.559  27.013  13.391
28758W        W95189  35.192  22.489  14.826
28759W        W95190  33.572  11.302  12.394
28760W        W95191  15.304   2.016   1.298
28761W        W95192  16.942   4.869  13.754
28762W        W95193  14.858  25.184   4.437
28763W        W95194  22.108   9.375   0.408
28764W        W95195  43.974  10.001   1.927
28765W        W95196  13.735  10.554  11.875
28766W        W95197  23.755  11.786   4.115
28767W        W95198  19.934  29.476  11.195
28768W        W95199  13.098  19.451  14.104
28769W        W95200  13.585  33.836  10.769
28770W        W95201  22.403   3.607  12.709
28771W        W95202  40.853  41.557  12.379
28772W        W95203  41.828  20.254  14.904
28773W        W95204  36.477   5.415  12.878
28774W        W95205  21.531  23.190   0.633
28775W        W95206  44.299  19.398  12.903
28776W        W95207  43.332   5.683  11.169
28777W        W95208  31.923  37.326   2.418
28778W        W95209  12.189  19.074   4.670
28779W        W95210   6.304  34.614   4.355
28780W        W95211  12.753  26.929   4.527
28781W        W95212   1.487  39.323  12.319
28782W        W95213  39.048  12.150  11.195
28783W        W95214  36.090   6.553   0.031
28784W        W95215  20.747   3.455  13.422
28785W        W95216   0.026  11.317   4.865
28786W        W95217  33.307  32.025   2.170
28787W        W95218  18.244   2.785  12.968
28788W        W95219   5.910  20.604  12.452
28789W        W95220  16.681  17.985  13.516
28790W        W95221  14.720  23.626  11.331
28791W        W95222  21.425  43.809   0.693
28792W        W95223  40.820  38.674   1.400
28793W        W95224  24.187  28.039   2.388
28794W        W95225  42.032  32.183   9.712
28795W        W95226  12.900   7.234   2.440
28796W        W95227   6.313  23.524   1.027
28797W        W95228  35.258  18.218  11.292
28798W        W95229  32.007  32.556   4.717
28799W        W95230  10.343  19.492  12.897
28800W        W95231   2.913   9.822   3.822
28801W        W95232  44.219  22.520  12.132
28802W        W95233  14.211  16.394  12.732
28803W        W95234  37.483  28.008  12.349
28804W        W95235  12.397  12.721  11.264
28805W        W95236   5.962  24.733   3.285
28806W        W95237  36.494  22.259  10.739
28807W        W95238  16.860   6.304  12.806
28808W        W95239  28.716  16.594   4.541
28809W        W95240  12.640  41.466   1.615
28810W        W95241  12.172   7.165   4.117
28811W        W95242  43.196   5.815   3.645
28812W        W95243  28.632  26.610  11.685
28813W        W95244   6.674  42.336   1.961
28814W        W95245  40.918  37.601   0.943
28815W        W95246  43.493   2.460  14.484
28816W        W95247   2.661  35.874  11.984
28817W        W95248  30.692   2.031   1.073
28818W        W95249  41.925  16.329   2.927
28819W        W95250  27.068  29.483   1.452
28820W        W95251  22.111  44.711   4.147
28821W        W95252  26.222  16.324   0.730
28822W        W95253  31.025  33.830  14.844
28823W        W95254  23.039   0.777  12.104
28824W        W95255  39.051   1.364   4.063
28825W        W95256  22.572  10.216  12.549
28826W        W95257  37.113  37.603  13.506
28827W        W95258  16.283  25.660   0.524
28828W        W95259   3.945  15.689   1.774
28829W        W95260  26.934  13.878   2.338
28830W        W95261  40.555  32.564  12.499
28831W        W95262   1.335   0.434   3.232
28832W        W95263  12.313  32.374   2.344
28833W        W95264  33.037  30.789   0.882
28834W        W95265  44.267  27.659   1.778
28835W        W95266   7.821  28.636   0.991
28836W        W95267  14.172  17.476   4.414
28837W        W95268  12.224   3.283  13.405
28838W        W95269  19.545  27.965  12.492
28839W        W95270  35.606  31.598   1.308
28840W        W95271   0.225   3.071   4.198
28841W        W95272  15.658   7.276  13.793
28842W        W95273  25.040  18.745  14.548
28843W        W95274  12.258  19.210   3.624
28844W        W95275   3.025  11.172  11.884
28845W        W95276   1.014  43.740   2.726
28846W        W95277   0.740  11.660  12.506
28847W        W95278  28.739  22.211  12.924
28848W        W95279  16.095   5.022   2.143
28849W        W95280  15.149  12.301   3.669
28850W        W95281  40.184  44.069   2.373
28851W        W95282  43.587  23.480   3.218
28852W        W95283   7.837  25.657   3.781
28853W        W95284   4.299  31.205  11.602
28854W        W95285  18.192  20.149  14.289
28855W        W95286   6.909  17.628  12.508
28856W        W95287   4.206   6.937   4.258
28857W        W95288   8.306  22.720   2.264
28858W        W95289  34.506  28.918   2.403
28859W        W95290  17.074  22.982   0.357
28860W        W95291  22.748  10.295  14.439
28861W        W95292  14.131   4.822  14.500
28862W        W95293  41.336  26.490   3.713
28863W        W95294   2.905  23.482   4.603
28864W        W95295  10.406  34.074  11.741
28865W        W95296   1.352   9.891  13.917
28866W        W95297  40.377  30.638  13.972
28867W        W95298  41.222  36.017   1.731
28868W        W95299  40.006  21.535  12.443
28869W        W95300  39.657  23.489  11.178
28870W        W95301  37.599  20.507  14.977
28871W        W95302   0.701  42.514   2.672
28872W        W95303  25.147  23.132  14.703
28873W        W95304  17.791  43.016  11.286
28874W        W95305  12.021  21.217  11.230
28875W        W95306  27.987   8.290  10.637
28876W        W95307   0.651   5.054  10.248
28877W        W95308  12.871  29.929   0.396
28878W        W95309  27.252  25.312   4.174
28879W        W95310  16.546   9.652  13.961
28880W        W95311  39.775   8.977  11.767
28881W        W95312   4.827  25.665  14.468
28882W        W95313  29.177   9.301   2.660
28883W        W95314  11.658   6.846   2.587
28884W        W95315  37.442   5.223  10.467
28885W        W95316  21.343   1.423   1.901
28886W        W95317  13.627  33.447  12.017
28887W        W95318  30.660  41.461  12.434
28888W        W95319  39.973  36.302   2.792
28889W        W95320  17.010  39.420   0.791
28890W        W95321  33.076   0.871   4.783
28891W        W95322   3.272  44.835  11.402
28892W        W95323  10.723   0.817   2.648
28893W        W95324  31.170  44.365  12.573
28894W        W95325  13.435   5.809   1.914
28895W        W95326  14.242  13.963   4.586
28896W        W95327  20.466  24.718   3.118
28897W        W95328  20.348  43.989  12.471
28898W        W95329  26.284  37.734  11.715
28899W        W95330  34.818  32.504   3.529
28900W        W95331  40.880  40.185   0.476
28901W        W95332   3.731   1.139  11.624
28902W        W95333   7.414  14.757  14.951
28903W        W95334  17.819  26.197  13.455
28904W        W95335  12.409  29.550  12.724
28905W        W95336  25.111  41.100   2.407
28906W        W95337  17.094   0.547  11.730
28907W        W95338   7.285  28.022   3.557
28908W        W95339  17.519  35.230  13.790
28909W        W95340  36.223  41.823  13.296
28910W        W95341   7.630  19.737   0.432
28911W        W95342  13.445  35.009   2.457
28912W        W95343  20.595  42.194   1.804
28913W        W95344  31.356   6.665  12.184
28914W        W95345  17.588   5.063  11.474
28915W        W95346  40.806  29.402   0.014
28916W        W95347  25.955  30.408   9.587
28917W        W95348  41.338   5.123   0.030
28918W        W95349   2.353  40.704  12.879
28919W        W95350   4.767  26.582   2.645
28920W        W95351  37.410   0.641  11.959
28921W        W95352  23.058  28.804   9.879
28922W        W95353  40.009   6.098  11.869
28923W        W95354  18.200  32.162   4.298
28924W        W95355   5.588  41.895  14.952
28925W        W95356  16.098  39.428  13.548
28926W        W95357   3.041   0.662  11.166
28927W        W95358   1.301  18.444   0.265
28928W        W95359   7.235   4.456   1.824
28929W        W95360  33.439   8.206   3.136
28930W        W95361  43.827   4.772   1.212
28931W        W95362  23.790   0.039   4.173
28932W        W95363   4.433  12.845  14.425
28933W        W95364  11.108  40.686  13.014
28934W        W95365  17.444   6.468  11.196
28935W        W95366  20.196   0.867  12.922
28936W        W95367   1.715  22.991  11.963
28937W        W95368  14.205  36.009   1.186
28938W        W95369  19.174  21.446   3.586
28939W        W95370  13.887  26.654  11.124
28940W        W95371   1.264  21.814   2.604
28941W        W95372  41.286   1.261  11.003
28942W        W95373  10.787  12.252  11.674
28943W        W95374   5.311  32.622   4.534
28944W        W95375  34.108  38.899  13.491
28945W        W95376  30.973  31.444  11.864
28946W        W95377  43.904  34.485   3.934
28947W        W95378  21.795  35.921  12.297
28948W        W95379  37.645  27.093   1.400
28949W        W95380  29.425  21.779   0.877
28950W        W95381  38.360  27.543   3.593
28951W        W95382  43.170  22.698  12.052
28952W        W95383  32.394   0.378  12.254
28953W        W95384  22.488   2.464  14.815
28954W        W95385  28.976   9.855   5.047
28955W        W95386  16.534  14.334   0.564
28956W        W95387  39.116  44.214  13.533
28957W        W95388  38.886  36.949  14.550
28958W        W95389  18.591  38.493  14.761
28959W        W95390  36.906   8.363  14.543
28960W        W95391  14.388  23.933  11.953
28961W        W95392  30.759   2.946   5.112
28962W        W95393   1.267  42.988   0.984
28963W        W95394   1.464  29.567   1.874
28964W        W95395   7.399   5.688  13.893
28965W        W95396  21.720   8.087   4.119
28966W        W95397  15.162  13.037  13.940
28967W        W95398   8.846  36.673   4.531
28968W        W95399  30.010  37.398  11.056
28969W        W95400   2.527  33.208  14.962
28970W        W95401  23.310  13.795   0.305
28971W        W95402  20.984  23.236  12.777
28972W        W95403  10.191  11.788   2.349
28973W        W95404   0.026  38.082   0.388
28974W        W95405  30.330  16.713  10.451
28975W        W95406  31.877  39.365  13.206
28976W        W95407  36.861  37.613  14.004
28977W        W95408  21.723   5.743   1.302
28978W        W95409  28.550  10.287   3.592
28979W        W95410   2.343  21.569  12.385
28980W        W95411  36.015  42.561  11.585
28981W        W95412  34.392  20.940   4.882
28982W        W95413  16.543   3.696   3.580
28983W        W95414   9.429  13.204   2.591
28984W        W95415  36.610   6.631   3.273
28985W        W95416  21.167  16.639   4.122
28986W        W95417  35.472   7.259   2.172
28987W        W95418   0.019  40.111   3.794
28988W        W95419   9.840   0.479  14.344
28989W        W95420  39.171  28.010  12.451
28990W        W95421  36.944  27.897   3.341
28991W        W95422  40.967  15.209  12.151
28992W        W95423   3.933  37.521   3.775
28993W        W95424  38.227   9.891  11.670
28994W        W95425  34.398   5.793   1.131
28995W        W95426  33.931  30.343  14.409
28996W        W95427  17.105  43.554   0.085
28997W        W95428   4.194  37.074  11.973
28998W        W95429  41.483  44.972  14.793
28999W        W95430  43.848  29.102   4.412
29000W        W95431  19.709  42.789  13.559
29001W        W95432   7.773  39.872  11.441
29002W        W95433  18.604  25.161  13.360
29003W        W95434  44.935  18.363   4.357
29004W        W95435  41.991  18.305   4.506
29005W        W95436  26.569  32.830  12.904
29006W        W95437  32.362  13.514   0.764
29007W        W95438  35.746  10.956   2.142
29008W        W95439   4.752  26.555  14.499
29009W        W95440   7.190  26.537   3.173
29010W        W95441  30.524   9.804   0.043
29011W        W95442   4.418  14.825  11.693
29012W        W95443  13.127   2.836  14.126
29013W        W95444  11.407  28.363   0.875
29014W        W95445  17.027   5.138  11.648
29015W        W95446  19.536   2.673  11.658
29016W        W95447  39.969  26.410  13.842
29017W        W95448   1.327  34.642   2.318
29018W        W95449  22.429  40.190   3.501
29019W        W95450  28.393  32.341   0.457
29020W        W95451  17.628  33.985   2.765
29021W        W95452  44.779  44.686   1.803
29022W        W95453  11.670  31.609   2.732
29023W        W95454  17.666  31.368   3.839
29024W        W95455  14.297  21.799   0.833
29025W        W95456   5.656  14.543  10.350
29026W        W95457  25.563  13.334  12.123
29027W        W95458  27.468  42.583   1.402
29028W        W95459  12.562  29.056  14.950
29029W        W95460  32.655  13.802  12.996
29030W        W95461  39.526  23.001  11.261
29031W        W95462  16.824  22.239  13.550
29032W        W95463   4.826  13.848   4.309
29033W        W95464   3.174   1.807  12.279
29034W        W95465  16.042  19.694   2.330
29035W        W95466  43.963  26.202   2.711
29036W        W95467  15.689   8.144   4.408
29037W        W95468  29.833   4.830   2.655
29038W        W95469   9.950   0.398  10.390
29039W        W95470  40.112  37.075   4.499
29040W        W95471  12.131  31.613   0.925
29041W        W95472  27.191  26.620  11.552
29042W        W95473  28.714  42.667  10.723
29043W        W95474  14.064  35.632   0.312
29044W        W95475  35.644  39.938   4.213
29045W        W95476  14.017  11.366  12.908
29046W        W95477  34.303  11.046  11.894
29047W        W95478   3.305  33.005   3.675
29048W        W95479  16.074  32.904  14.307
29049W        W95480  11.822   9.185  10.633
29050W        W95481   9.157   5.421  14.484
29051W        W95482  33.784  36.354  12.104
29052W        W95483  36.552  12.836   4.579
29053W        W95484  23.880  40.894  12.915
29054W        W95485  12.902  14.997   4.562
29055W        W95486   7.740  37.850   3.883
29056W        W95487   3.780  11.275   1.190
29057W        W95488  11.390   0.393  14.785
29058W        W95489  42.255  22.046  14.006
29059W        W95490  30.999  38.118   0.379
29060W        W95491  10.107   4.361  13.426
29061W        W95492   8.937   3.039   1.228
29062W        W95493  23.524  19.752   1.384
29063W        W95494   1.514  36.053   2.330
29064W        W95495  25.561  20.787  14.420
29065W        W95496  22.491  36.024   3.231
29066W        W95497  42.368  21.688   2.845
29067W        W95498   5.791   7.198   1.601
29068W        W95499  42.845  25.219   0.126
29069W        W95500   9.751   8.858   2.257
29070W        W95501  40.046  20.063  10.656
29071W        W95502  12.722  42.466  11.176
29072W        W95503   6.727   0.441   4.341
29073W        W95504  38.006   3.628   0.416
29074W        W95505   5.413  42.850   1.430
29075W        W95506   0.004  20.510  13.474
29076W        W95507   6.017   9.139  14.855
29077W        W95508  32.966   4.367  11.391
29078W        W95509  18.283  30.066   3.360
29079W        W95510  43.439  32.024   2.140
29080W        W95511  44.356   0.388  10.759
29081W        W95512  26.519  21.409   1.148
29082W        W95513  25.036   1.424   3.103
29083W        W95514   8.529  44.569  11.241
29084W        W95515  40.437  11.368  12.850
29085W        W95516  31.559  19.815  12.468
29086W        W95517   8.559  36.359   0.928
29087W        W95518  24.619  21.151  12.012
29088W        W95519  22.586  25.953  11.592
29089W        W95520   7.227  19.125  11.582
29090W        W95521  23.196   3.269   4.094
29091W        W95522   4.677  10.834   4.473
29092W        W95523  10.880  31.092  12.760
29093W        W95524  15.700   8.403   0.982
29094W        W95525  22.095  34.493   3.374
29095W        W95526  44.253  23.732  14.779
29096W        W95527  42.396   8.392   2.933
29097W        W95528  22.509   6.861  14.048
29098W        W95529  37.033  10.199   0.763
29099W        W95530   2.523  20.978  13.984
29100W        W95531   5.892  12.768   0.817
29101W        W95532  17.863  25.114   2.089
29102W        W95533  34.123  40.547   1.373
29103W        W95534  31.040  29.496   4.257
29104W        W95535  43.320  10.120   1.176
29105W        W95536  38.165  12.188  11.280
29106W        W95537  33.501  43.450  11.982
29107W        W95538  38.928   3.684  12.172
29108W        W95539  22.575  17.070  10.554
29109W        W95540   1.752  44.292   4.627
29110W        W95541   2.315  22.333   1.396
29111W        W95542  28.172  18.693  11.233
29112W        W95543  33.927  12.808  12.502
29113W        W95544   8.318  22.067  14.948
29114W        W95545  26.163  21.979   1.880
29115W        W95546   6.817   4.867  11.993
29116W        W95547   6.372  19.353  12.881
29117W        W95548  19.727   2.234  12.489
29118W        W95549  19.491  26.549   3.671
29119W        W95550  39.293  15.762   3.297
29120W        W95551  35.932   5.981  12.463
29121W        W95552  10.719  29.203  12.097
29122W        W95553  18.612  44.222  14.935
29123W        W95554  20.487  13.872  12.923
29124W        W95555  27.443  15.691  11.588
29125W        W95556  19.630  41.880  14.125
29126W        W95557   4.285  27.250  14.054
29127W        W95558  14.666   2.431   4.991
29128W        W95559  17.714  12.744   3.727
29129W        W95560   1.708  10.436   2.130
29130W        W95561   4.699   5.452  10.677
29131W        W95562  10.719   5.321   1.427
29132W        W95563  14.210   6.492  13.409
29133W        W95564   4.355  44.195   2.275
29134W        W95565  44.867  12.847   1.546
29135W        W95566  37.107  38.974   2.422
29136W        W95567  40.466  13.309  14.550
29137W        W95568  37.813  17.979   3.499
29138W        W95569  44.986  19.165   0.021
29139W        W95570  20.048  27.922  12.333
29140W        W95571  14.655  38.941   2.875
29141W        W95572  26.916  22.284   0.169
29142W        W95573   6.010  30.642  10.366
29143W        W95574  26.582   6.245   3.125
29144W        W95575  16.218   2.404  10.936
29145W        W95576  10.817  18.187   1.389
29146W        W95577  30.436  19.996  14.948
29147W        W95578  10.420  20.647  10.768
29148W        W95579   2.376  24.778   2.172
29149W        W95580   3.034  14.677   3.495
29150W        W95581   8.245  26.979   0.319
29151W        W95582  20.111  40.537   2.036
29152W        W95583  33.568  25.454   1.101
29153W        W95584  40.082  42.413   0.928
29154W        W95585  11.989  31.299  14.846
29155W        W95586  37.110  38.747   0.893
29156W        W95587  34.852  12.298  11.603
29157W        W95588  39.024  36.603  10.861
29158W        W95589   5.281  14.211   3.791
29159W        W95590  16.646  18.229   4.053
29160W        W95591  39.373  26.986   3.633
29161W        W95592  27.593  15.871  10.757
29162W        W95593  26.482  31.664   1.360
29163W        W95594  32.676   1.181  12.072
29164W        W95595  22.111  11.709   3.190
29165W        W95596   2.807  40.041  14.179
29166W        W95597   5.286   9.100   3.256
29167W        W95598  22.536  44.012   3.138
29168W        W95599  22.255  41.335   2.424
29169W        W95600   6.774  43.219   0.880
29170W        W95601   1.773   5.059   1.583
29171W        W95602  23.666  17.800  13.118
29172W        W95603  30.998   7.158  14.771
29173W        W95604   7.938  34.813   4.135
29174W        W95605   0.834  11.240  13.627
29175W        W95606   5.534  34.282  12.547
29176W        W95607  44.085   1.741  11.476
29177W        W95608  20.025  38.639  14.978
29178W        W95609  24.070  41.509   2.193
29179W        W95610  10.954  13.099   3.586
29180W        W95611   2.516  40.033  10.540
29181W        W95612  13.628   0.817   1.201
29182W        W95613  40.205  38.782   4.061
29183W        W95614  37.619   8.329   1.025
29184W        W95615  27.922   0.975   0.821
29185W        W95616  12.043  41.431   0.199
29186W        W95617  32.514  13.908  11.482
29187W        W95618  41.987  39.240  12.065
29188W        W95619  31.126  24.024  13.905
29189W        W95620  16.238   3.297  14.883
29190W        W95621  10.126  42.900   1.341
29191W        W95622  38.056  42.285   1.332
29192W        W95623  27.000  38.390  14.534
29193W        W95624  30.202   1.261  14.850
29194W        W95625  28.648  27.950  11.194
29195W        W95626  43.435   8.955  10.744
29196W        W95627   8.469  44.989  14.253
29197W        W95628  30.205   0.737  12.593
29198W        W95629  33.664   8.260   2.674
29199W        W95630  41.803  39.824   0.493
29200W        W95631   0.776   0.185  10.651
29201W        W95632  23.077   5.530  12.089
29202W        W95633   7.689  15.235   4.084
29203W        W95634   7.903  30.400  13.060
29204W        W95635   9.039  40.760  11.944
29205W        W95636  27.991  42.517   0.691
29206W        W95637   5.411   8.148   0.269
29207W        W95638   9.916  37.098   2.262
29208W        W95639  38.145  24.609   3.885
29209W        W95640  19.309   1.570   2.836
29210W        W95641   1.670  26.026  13.053
29211W        W95642  22.641  23.189   1.934
29212W        W95643  32.517  36.601  12.535
29213W        W95644  11.293  31.389   0.729
29214W        W95645  31.504  29.505   3.268
29215W        W95646  20.022  34.704  13.047
29216W        W95647  28.057  39.733   0.911
29217W        W95648  35.248   1.304   3.160
29218W        W95649   7.297  44.028   4.439
29219W        W95650  41.541  31.072  12.805
29220W        W95651  12.436   7.639  10.729
29221W        W95652  19.541  30.701  14.277
29222W        W95653  40.061  33.546   1.975
29223W        W95654  25.957  35.546  13.362
29224W        W95655  26.926  27.450   1.750
29225W        W95656  22.927  28.593   5.331
29226W        W95657  32.333   2.014  14.918
29227W        W95658  43.155  41.629  10.415
29228W        W95659  12.844  35.616   3.206
29229W        W95660  12.628  22.543   2.415
29230W        W95661  10.357  20.820   3.731
29231W        W95662  28.827  38.866   2.084
29232W        W95663   7.339   9.491   3.264
29233W        W95664  29.035  13.610   3.714
29234W        W95665  26.218  13.686  13.444
29235W        W95666  44.550   0.236  12.026
29236W        W95667   0.388   4.477  13.351
29237W        W95668  23.675  20.553   2.064
29238W        W95669  25.809  40.242   2.658
29239W        W95670  35.615  28.012  14.777
29240W        W95671  22.773  40.421  14.860
29241W        W95672  16.721  28.622   4.972
29242W        W95673   5.276  29.057   3.238
29243W        W95674  16.819   9.915   1.660
29244W        W95675  15.779  16.704  12.135
29245W        W95676  12.583  19.799  12.010
29246W        W95677   1.378  23.751  12.990
29247W        W95678  22.011   9.311  11.959
29248W        W95679  13.183  10.336   1.674
29249W        W95680  18.999  35.034  12.093
29250W        W95681   4.684  23.772  13.023
29251W        W95682  14.790  24.502  14.329
29252W        W95683  34.418  35.028  12.504
29253W        W95684  15.528  37.137   4.759
29254W        W95685  25.414  19.760  14.383
29255W        W95686  19.345  37.023   3.769
29256W        W95687  17.033   8.841  14.219
29257W        W95688  20.212  19.609  12.359
29258W        W95689  19.256  28.353  12.905
29259W        W95690  33.165  33.655   4.041
29260W        W95691  18.331  19.546  13.888
29261W        W95692   5.722   7.795  12.452
29262W        W95693  14.725  23.780  10.204
29263W        W95694  29.394   8.845   2.843
29264W        W95695  17.154  18.088   3.636
29265W        W95696  30.481  25.299   3.780
29266W        W95697   8.254  32.996  10.813
29267W        W95698  30.161  15.839  13.844
29268W        W95699  14.659  21.578  11.636
29269W        W95700  37.325  36.769   4.148
29270W        W95701  27.167  14.104   2.759
29271W        W95702  20.086  43.051   1.599
29272W        W95703  37.477   5.155   4.157
29273W        W95704  16.132  21.442   4.802
29274W        W95705  25.016   3.383   0.734
29275W        W95706  11.374   3.969   3.149
29276W        W95707  22.065  31.340   1.867
29277W        W95708  40.551   1.101  12.405
29278W        W95709  42.605  41.930  11.114
29279W        W95710  13.430   0.312   4.072
29280W        W95711  40.821  13.064  13.979
29281W        W95712  44.518  30.994  10.801
29282W        W95713  27.649  26.737   3.349
29283W        W95714  10.094  13.322  13.983
29284W        W95715  35.076  44.559   4.494
29285W        W95716  30.189  10.213   2.702
29286W        W95717  39.796  40.550   3.892
29287W        W95718  22.367  36.610  13.317
29288W        W95719  17.881   5.158  11.948
29289W        W95720  31.402  13.644   4.426
29290W        W95721  25.151   7.446  11.108
29291W        W95722  39.675  20.169   2.142
29292W        W95723  42.522  20.090   3.177
29293W        W95724  36.453  11.245  14.892
29294W        W95725  14.492   1.941  13.043
29295W        W95726  21.262  29.894  13.399
29296W        W95727  42.254  22.171   2.339
29297W        W95728  15.867  44.205   9.620
29298W        W95729  36.572   4.374  12.884
29299W        W95730  43.006   2.783  13.001
29300W        W95731  14.168  37.002   4.674
29301W        W95732  40.381  15.109  14.415
29302W        W95733   4.890  20.055   4.755
29303W        W95734  22.806  27.042   2.826
29304W        W95735  12.923   3.641  10.642
29305W        W95736  41.265  16.064   1.937
29306W        W95737  20.933   0.788   1.979
29307W        W95738  19.172  26.629  10.696
29308W        W95739  34.950  14.846  11.522
29309W        W95740  35.884  37.146   3.121
29310W        W95741  12.632   2.359   2.852
29311W        W95742  28.009  11.305   4.247
29312W        W95743  16.678  25.727   3.727
29313W        W95744  18.930  40.048   1.372
29314W        W95745  25.944   7.402  13.003
29315W        W95746  43.269  20.600   1.408
29316W        W95747  15.550  32.487   0.269
29317W        W95748  42.857  37.994   3.150
29318W        W95749  43.401  16.545   2.765
29319W        W95750  29.282  12.236  13.762
29320W        W95751  10.980  15.079   0.706
29321W        W95752  42.445  39.503  12.096
29322W        W95753   7.639   3.940   0.211
29323W        W95754  13.285  15.222   2.826
29324W        W95755   0.490  24.259  14.337
29325W        W95756  29.674  31.622  13.880
29326W        W95757  40.445   4.825   2.337
29327W        W95758  29.587  38.028   3.659
29328W        W95759   2.355  26.878   3.796
29329W        W95760   6.115  14.808   5.481
29330W        W95761  38.440  38.740  14.759
29331W        W95762  27.263  17.684   0.774
29332W        W95763  30.522  42.700  14.862
29333W        W95764  18.775  16.224  11.391
29334W        W95765  11.436  17.227  14.023
29335W        W95766  37.404  20.244  11.903
29336W        W95767  10.554   2.922   0.481
29337W        W95768  27.928  35.008  14.780
29338W        W95769  28.860  38.399   0.056
29339W        W95770  10.889   1.797   2.106
29340W        W95771  27.314  11.675  14.402
29341W        W95772  18.015  39.420  10.960
29342W        W95773  13.443  44.709  14.515
29343W        W95774  33.897  42.937  13.110
29344W        W95775   7.973  36.960  13.625
29345W        W95776  30.429  28.533   4.936
29346W        W95777  21.576  22.076   1.276
29347W        W95778  33.924  11.358   4.576
29348W        W95779  42.740   2.443  10.708
29349W        W95780  34.268  34.792  14.930
29350W        W95781  34.942  20.138   2.316
29351W        W95782  21.131  19.063  11.668
29352W        W95783  36.118  27.557  14.319
29353W        W95784  23.826  34.357   2.132
29354W        W95785  26.582  36.553   3.862
29355W        W95786   1.280  14.814  11.171
29356W        W95787  31.822  28.269   0.117
29357W        W95788  42.811  24.543  12.600
29358W        W95789  15.889  32.989   1.736
29359W        W95790   5.749  36.585   0.397
29360W        W95791  35.917  18.660   4.575
29361W        W95792  39.005   5.886  11.918
29362W        W95793  28.806  10.085   1.495
29363W        W95794  35.836  37.055   2.166
29364W        W95795  10.670  37.820  12.590
29365W        W95796  29.417  34.889  12.928
29366W        W95797   8.301  35.319   0.909
29367W        W95798  34.493   7.261   3.568
29368W        W95799  11.496  40.033   4.564
29369W        W95800  33.213  28.920  14.365
29370W        W95801  29.975  26.126  14.553
29371W        W95802  26.261  39.080   0.680
29372W        W95803  13.446  38.175   0.356
29373W        W95804  20.291  15.092   2.180
29374W        W95805  43.352  30.996  12.146
29375W        W95806  22.050  10.886  13.837
29376W        W95807  12.068   9.658   0.778
29377W        W95808  17.184  41.979  13.951
29378W        W95809  21.907  37.117  13.947
29379W        W95810  10.223  25.003  14.034
29380W        W95811  27.845  37.405   1.798
29381W        W95812   4.733  44.401   1.430
29382W        W95813  37.836  26.007  12.594
29383W        W95814   4.405   1.021   1.735
29384W        W95815  11.878  24.524  14.132
29385W        W95816  40.273  15.730  10.995
29386W        W95817   2.450  22.476   0.009
29387W        W95818  20.475  19.639   5.522
29388W        W95819  27.637  26.081   2.201
29389W        W95820  16.284  26.692   1.011
29390W        W95821  12.595   3.413   3.419
29391W        W95822  28.507   5.105   0.364
29392W        W95823  23.747  31.016   1.522
29393W        W95824   7.187  44.265   4.935
29394W        W95825  23.513   8.399  13.653
29395W        W95826  38.027  44.433  13.064
29396W        W95827  32.499  39.992   0.504
29397W        W95828  18.806  22.768  14.293
29398W        W95829  25.980  15.988  12.776
29399W        W95830  38.077  39.236  12.753
29400W        W95831  36.728  37.908   0.965
29401W        W95832  25.012  21.947  13.098
29402W        W95833  12.421  44.052   0.739
29403W        W95834  25.237  11.653   3.640
29404W        W95835  44.712  33.989  12.901
29405W        W95836  11.835  21.364  13.890
29406W        W95837  11.627  28.274  14.489
29407W        W95838  40.982  27.728   4.904
29408W        W95839  29.370  25.785  10.691
29409W        W95840   3.283   1.657  14.753
29410W        W95841   8.785  43.638  11.700
29411W        W95842  43.450  38.410  14.444
29412W        W95843   9.796  29.083  13.595
29413W        W95844  11.551   5.197  11.699
29414W        W95845  31.615  18.976   3.243
29415W        W95846  40.920  22.789  14.864
29416W        W95847  43.999  12.636   2.394
29417W        W95848  12.413  38.650   3.306
29418W        W95849  12.122  31.685   0.395
29419W        W95850  13.325  27.356  13.509
29420W        W95851  10.209  35.171   1.666
29421W        W95852  34.059  43.575   1.272
29422W        W95853  18.491  33.980  14.421
29423W        W95854   7.325  21.607  10.713
29424W        W95855  31.985  27.882  14.786
29425W        W95856  25.887  39.523  12.580
29426W        W95857  30.429  25.893  14.328
29427W        W95858  13.811   9.230   0.694
29428W        W95859  10.330  14.728   4.687
29429W        W95860  35.895  25.190  12.417
29430W        W95861  43.628  34.290  13.446
29431W        W95862   8.413   0.246  12.470
29432W        W95863  30.862  39.110   2.200
29433W        W95864  19.990  37.389  14.877
29434W        W95865   5.066  17.586   2.225
29435W        W95866   6.979  12.590  12.983
29436W        W95867  18.391  19.304  10.587
29437W        W95868  22.348   7.767   3.730
29438W        W95869  17.985   4.748  12.312
29439W        W95870  29.402   0.306  14.783
29440W        W95871  10.165  38.039  12.683
29441W        W95872  17.622  10.704   3.890
29442W        W95873   7.183  14.795   3.771
29443W        W95874  33.281  38.890  12.638
29444W        W95875   1.979   1.752   1.918
29445W        W95876  12.372  40.541   1.222
29446W        W95877  36.909  12.141  13.334
29447W        W95878  16.692   4.489   3.193
29448W        W95879  43.348  12.257  11.069
29449W        W95880  19.214  24.743  11.081
29450W        W95881  29.376  33.654  10.777
29451W        W95882  31.580  33.477   3.320
29452W        W95883  27.677  23.337   0.661
29453W        W95884  11.074  32.531  11.981
29454W        W95885  18.613  38.117   3.337
29455W        W95886  20.229  35.978  14.597
29456W        W95887   1.747   8.813  11.423
29457W        W95888  18.851  14.442   2.642
29458W        W95889  36.789  19.572  13.872
29459W        W95890  23.233   2.727   0.196
29460W        W95891  25.482  41.585  12.520
29461W        W95892  10.233   8.931  13.984
29462W        W95893  24.403  12.248  11.240
29463W        W95894  33.586  23.092  13.784
29464W        W95895  29.322   2.949  10.235
29465W        W95896  12.576  40.602  11.175
29466W        W95897  12.723   0.513   0.541
29467W        W95898  23.509  25.711  13.494
29468W        W95899  19.430  35.998  12.530
29469W        W95900  23.275   1.687  14.279
29470W        W95901  42.185   2.395  14.402
29471W        W95902  33.851  21.261  13.070
29472W        W95903  41.586   7.204  10.477
29473W        W95904  36.401  11.840   0.472
29474W        W95905   6.904  35.441   3.424
29475W        W95906  21.549   2.352  13.252
29476W        W95907  44.390  10.872   0.762
29477W        W95908  41.548  30.366   2.785
29478W        W95909  21.508   1.668   1.042
29479W        W95910   6.867  14.394  12.791
29480W        W95911  25.380  16.264  14.879
29481W        W95912   2.588  43.321   0.855
29482W        W95913  11.521  14.132   4.725
29483W        W95914   8.284  42.533   2.472
29484W        W95915   0.911   2.268   0.908
29485W        W95916  24.535  24.239  14.255
29486W        W95917  33.097  10.601   2.206
29487W        W95918  41.364   3.825  13.497
29488W        W95919   4.253  13.547  14.942
29489W        W95920  11.762  43.933   4.496
29490W        W95921   4.918   6.028   2.593
29491W        W95922  41.853  16.839   2.992
29492W        W95923  37.742   2.398   3.978
29493W        W95924  13.373  32.029  14.126
29494W        W95925  31.553   9.360   2.317
29495W        W95926  12.035  33.690   9.939
29496W        W95927  34.094   9.420   4.314
29497W        W95928   3.486  13.663   4.450
29498W        W95929  31.938   2.778   4.841
29499W        W95930  43.688  39.510   1.100
29500W        W95931   1.420  41.004  10.705
29501W        W95932  39.800  38.509   1.390
29502W        W95933  41.101   2.012   3.766
29503W        W95934  37.773  12.931  13.966
29504W        W95935  35.426  44.467   3.716
29505W        W95936   7.013   2.164   0.822
29506W        W95937  42.259  16.650   1.458
29507W        W95938  20.000  17.252  11.076
29508W        W95939  33.048  29.029  11.750
29509W        W95940  12.176  25.229  11.518
29510W        W95941  13.511   4.078  13.592
29511W        W95942   8.999  16.126   4.965
29512W        W95943  17.461   5.230  10.720
29513W        W95944  27.271   3.840   0.763
29514W        W95945   3.667  15.316   0.346
29515W        W95946  24.352  42.478   1.918
29516W        W95947   0.329  26.836   0.658
29517W        W95948  33.073  25.897  13.378
29518W        W95949  30.286  43.028   4.562
29519W        W95950   0.837  37.637   3.155
29520W        W95951  26.044  17.041   4.210
29521W        W95952  30.694  26.177  13.390
29522W        W95953   9.552  39.121   4.707
29523W        W95954   1.279  16.804  12.228
29524W        W95955   0.753  30.317  13.345
29525W        W95956  30.518   2.696  12.868
29526W        W95957   5.114   1.243  11.343
29527W        W95958  18.285   6.328  13.287
29528W        W95959  35.948   4.228  10.749
29529W        W95960  14.024   5.603   0.834
29530W        W95961  28.662  20.861  12.760
29531W        W95962  42.515  37.923  12.382
29532W        W95963  15.501  10.814  12.446
29533W        W95964  24.828  11.237  12.072
29534W        W95965  15.330   1.618   4.997
29535W        W95966   8.679   8.480  14.869
29536W        W95967  42.310   1.359   1.264
29537W        W95968   0.418   6.118  11.969
29538W        W95969  31.681   6.760  14.522
29539W        W95970  10.956  17.397  12.066
29540W        W95971  32.575  16.652   0.767
29541W        W95972  27.515  27.930  13.919
29542W        W95973  16.800  11.820   3.115
29543W        W95974  19.961  15.223   0.883
29544W        W95975   4.982  13.041  10.595
29545W        W95976  34.895   0.732  10.700
29546W        W95977  23.777  35.880   2.723
29547W        W95978  25.580  14.068  10.720
29548W        W95979  19.951   3.034   4.138
29549W        W95980  18.616  32.002   1.243
29550W        W95981  11.173  10.691   0.870
29551W        W95982   5.262  41.591   0.864
29552W        W95983  18.579  20.183   2.771
29553W        W95984  32.127  44.770  11.458
29554W        W95985   3.585  34.836  12.610
29555W        W95986  19.136  31.600   3.582
29556W        W95987   7.435  42.949  11.681
29557W        W95988  26.474  39.835  14.975
29558W        W95989  37.978  41.281  12.386
29559W        W95990   9.733  27.104   3.346
29560W        W95991  24.087  20.934   0.794
29561W        W95992  27.997  13.578   1.662
29562W        W95993  43.807   7.194  13.468
29563W        W95994  33.606   3.948  11.557
29564W        W95995  38.060   1.886   1.378
29565W        W95996  20.241  32.880  12.103
29566W        W95997  30.032  33.646   2.234
29567W        W95998  18.154  32.591  12.357
29568W        W95999  39.904  27.380  10.860
29569W        W96000  36.549  34.635   0.326
29570W        W96001  21.804  41.560   0.816
29571W        W96002   7.380  11.825   1.688
29572W        W96003  12.173  43.319   1.279
29573W        W96004  41.171  43.805  14.401
29574W        W96005  20.674  14.684   2.425
29575W        W96006  24.247  29.474   1.179
29576W        W96007  37.932  17.748   4.728
29577W        W96008   5.020   7.369  10.719
29578W        W96009  37.429  14.570   4.046
29579W        W96010  41.273  29.596   3.266
29580W        W96011   8.775  35.590   1.686
29581W        W96012  31.559  33.185   3.736
29582W        W96013   5.223  27.205  14.860
29583W        W96014  41.842   4.510  11.210
29584W        W96015  15.756  18.553   2.824
29585W        W96016  28.983  27.954   3.769
29586W        W96017  39.359  12.223   0.205
29587W        W96018  18.521  43.184   0.298
29588W        W96019   2.868   8.150   4.087
29589W        W96020  16.123   9.380   2.017
29590W        W96021  10.776   0.494  11.096
29591W        W96022   9.318  40.327   3.092
29592W        W96023  32.576  38.336  10.646
29593W        W96024  34.502  21.008   4.390
29594W        W96025  34.033  34.994  13.443
29595W        W96026  39.121  38.946  14.477
29596W        W96027  23.162  21.222   0.658
29597W        W96028   2.020  32.682   2.314
29598W        W96029  36.866  39.933   3.892
29599W        W96030  37.011  11.647   0.883
29600W        W96031  33.852  21.538  12.173
29601W        W96032  18.344  18.168  11.107
29602W        W96033  14.615  32.521   2.563
29603W        W96034  28.969  22.093   1.697
29604W        W96035   1.297  34.004  12.448
29605W        W96036  16.103  42.463  10.945
29606W        W96037   5.536  40.332   1.916
29607W        W96038  23.119  13.569  14.813
29608W        W96039  30.112  37.863  12.010
29609W        W96040   3.739  37.507  12.071
29610W        W96041   4.003  41.055  10.654
29611W        W96042  44.032  19.395  13.338
29612W        W96043  29.589  43.549   2.340
29613W        W96044  29.997  17.569   3.745
29614W        W96045  24.493  20.708  10.946
29615W        W96046  27.564  28.041   3.571
29616W        W96047  23.539  33.176  10.143
29617W        W96048  43.070  12.105   4.068
29618W        W96049  17.120   3.725  13.126
29619W        W96050  15.395  38.049   2.686
29620W        W96051  20.327  17.660  11.049
29621W        W96052  18.498   4.293   0.357
29622W        W96053  14.529   8.042  13.964
29623W        W96054  14.283  22.325   0.796
29624W        W96055  22.932  12.474  10.932
29625W        W96056  31.918  10.876   2.923
29626W        W96057  24.455  27.208  12.040
29627W        W96058  32.538  29.129   4.621
29628W        W96059  35.342  28.159  13.427
29629W        W96060  19.892   4.095   0.618
29630W        W96061  35.001  30.104   9.989
29631W        W96062  27.101   5.904  12.621
29632W        W96063  12.512  24.266  14.402
29633W        W96064  23.216  11.745  14.086
29634W        W96065  16.475  33.064  12.509
29635W        W96066  26.134   2.990  10.156
29636W        W96067  23.632  36.006   0.069
29637W        W96068  26.954  26.502  11.979
29638W        W96069  35.078  15.614  10.678
29639W        W96070  35.511  20.556   1.237
29640W        W96071  33.165  17.528   1.668
29641W        W96072  22.774  10.651   1.246
29642W        W96073  21.976  23.785  14.440
29643W        W96074  40.743  12.057  13.082
29644W        W96075  32.417  33.885  12.900
29645W        W96076  11.437   1.434   3.705
29646W        W96077  13.795  10.808   4.593
29647W        W96078  33.162  42.884   4.514
29648W        W96079  33.385  41.899  12.157
29649W        W96080  32.826   8.303  10.779
29650W        W96081   6.115   4.549  14.599
29651W        W96082   8.636  36.969  13.921
29652W        W96083  15.426  38.747  11.620
29653W        W96084  16.686  25.593  14.824
29654W        W96085  18.586  18.845  12.586
29655W        W96086  21.959  27.994   1.700
29656W        W96087  28.113   4.729  13.563
29657W        W96088  22.887  28.316  10.031
29658W        W96089  40.618  21.153  10.462
29659W        W96090  41.750  21.116   3.726
29660W        W96091   1.524  11.770   3.242
29661W        W96092   0.498  14.181   2.817
29662W        W96093  38.915   4.437   1.781
29663W        W96094  17.547  23.508   0.779
29664W        W96095  29.184  24.515   4.507
29665W        W96096  43.518   7.868   1.258
29666W        W96097  21.175  25.866  11.054
29667W        W96098  33.035   5.796   2.419
29668W        W96099  13.134  32.772  13.231
29669W        W96100  38.616   5.266   4.746
29670W        W96101  17.636   7.378   3.748
29671W        W96102  19.674  12.105  14.526
29672W        W96103  15.517  21.454   3.247
29673W        W96104  19.159  34.006   4.322
29674W        W96105  28.133  33.029  10.671
29675W        W96106  41.883  14.637  13.626
29676W        W96107  40.511  20.343   3.152
29677W        W96108  11.082   1.858  13.047
29678W        W96109  34.952  38.512  10.291
29679W        W96110  21.418  14.278   1.809
29680W        W96111   1.092  25.012  13.466
29681W        W96112   4.780  34.144   3.073
29682W        W96113  41.115  24.270  11.860
29683W        W96114  15.036  35.455   3.179
29684W        W96115  28.728  44.378   3.239
29685W        W96116   9.328  10.098   4.583
29686W        W96117  11.113  38.879   1.758
29687W        W96118   5.436  14.775   3.161
29688W        W96119  41.135   1.251  14.464
29689W        W96120  40.770  22.687  12.075
29690W        W96121  28.909  38.337  14.537
29691W        W96122   5.622  39.652  11.156
29692W        W96123  11.187  39.072  14.920
29693W        W96124  17.338   5.952  11.146
29694W        W96125  16.898  15.647   4.065
29695W        W96126  44.303  23.567   3.785
29696W        W96127   3.889  31.829   0.839
29697W        W96128  36.881  23.535  12.502
29698W        W96129  12.737  40.631  12.632
29699W        W96130   0.264  35.868  10.912
29700W        W96131  15.085   0.538   4.901
29701W        W96132  27.560   0.719   3.325
29702W        W96133  35.824  25.681   2.380
29703W        W96134  23.171   9.148   4.779
29704W        W96135  23.537  11.584  13.370
29705W        W96136  11.445   1.151  11.086
29706W        W96137  40.789   4.159   0.721
29707W        W96138   5.832  10.836   3.185
29708W        W96139  31.371  44.312   4.664
29709W        W96140  19.524  33.471   1.009
29710W        W96141  14.633   1.958  10.994
29711W        W96142  12.315  35.900   2.133
29712W        W96143   3.392  24.437   4.451
29713W        W96144   9.022  30.967   4.804
29714W        W96145  17.235  44.520  11.225
29715W        W96146  41.365   1.385  14.900
29716W        W96147   6.677  17.511  10.280
29717W        W96148   3.940  42.526  13.967
29718W        W96149  12.244   4.354   4.934
29719W        W96150   5.928  13.695   9.806
29720W        W96151  29.894  17.191   0.359
29721W        W96152  31.401  38.978   3.144
29722W        W96153  13.052  43.944   0.356
29723W        W96154  36.750  23.299   4.773
29724W        W96155   3.281  34.805  13.073
29725W        W96156   7.684  20.820   3.081
29726W        W96157  15.152   0.434   1.916
29727W        W96158  40.827  26.596  13.937
29728W        W96159  15.192   4.844   0.550
29729W        W96160  26.321  29.186   1.806
29730W        W96161   8.898  16.496   0.747
29731W        W96162  25.597  43.088   1.749
29732W        W96163  43.236  30.690  14.006
29733W        W96164  44.238   2.485   2.206
29734W        W96165  22.953  14.054  14.805
29735W        W96166   6.270  15.528  12.410
29736W        W96167   3.731  22.319  13.728
29737W        W96168   0.499  17.154   4.684
29738W        W96169  30.696  13.759   0.872
29739W        W96170  40.539  38.489   4.335
29740W        W96171  23.769  25.951   2.104
29741W        W96172  20.668  43.813  10.719
29742W        W96173   6.240  37.398   1.144
29743W        W96174  22.339  31.601   1.261
29744W        W96175  40.396   0.402  13.667
29745W        W96176  19.806  39.887   1.168
29746W        W96177  39.289  27.457  13.453
29747W        W96178  22.391  33.253  10.225
29748W        W96179   0.700  31.853   1.077
29749W        W96180  38.855   0.735   2.844
29750W        W96181  27.869   6.182  11.990
29751W        W96182  19.316  21.690  13.281
29752W        W96183  26.672  31.361  10.975
29753W        W96184  34.612  22.092   1.261
29754W        W96185  17.592  44.979   0.875
29755W        W96186  20.649   0.200   0.018
29756W        W96187  28.229   9.461  12.908
29757W        W96188  22.974   3.701   3.871
29758W        W96189  18.764  28.370  12.129
29759W        W96190  14.865  41.789   2.070
29760W        W96191  17.232  20.870  10.668
29761W        W96192  28.218   1.509  14.861
29762W        W96193  44.793  20.618   4.535
29763W        W96194   3.178  36.192   2.761
29764W        W96195  23.197  20.707  10.306
29765W        W96196  14.937  15.934  11.588
29766W        W96197  31.517  36.176   4.781
29767W        W96198  37.094  42.040  10.168
29768W        W96199  25.182  43.839  11.985
29769W        W96200  34.534  42.062   3.537
29770W        W96201  43.870   7.570   0.824
29771W        W96202  21.592  17.841  12.917
29772W        W96203  22.820   2.774  13.439
29773W        W96204  15.196  20.717   2.887
29774W        W96205  12.467  28.622   2.965
29775W        W96206  39.044  44.986   1.405
29776W        W96207  44.730  13.397   2.190
29777W        W96208   5.736  40.032  13.124
29778W        W96209  38.768  20.222  12.000
29779W        W96210  43.570  26.056  11.499
29780W        W96211  33.119   4.099   0.902
29781W        W96212   2.238  19.261   1.567
29782W        W96213  22.433  19.186  13.383
29783W        W96214  38.841  44.955  10.650
29784W        W96215  39.874  17.457   3.183
29785W        W96216  15.174  39.818  10.912
29786W        W96217  27.582   1.361  13.466
29787W        W96218  29.018  15.820   1.344
29788W        W96219   9.257   0.689  13.086
29789W        W96220   9.634  44.222   3.574
29790W        W96221  22.686  27.538  10.612
29791W        W96222  40.049   3.449   4.032
29792W        W96223  33.569  18.544  14.386
29793W        W96224  40.922  44.786  12.661
29794W        W96225  38.319  26.658  10.614
29795W        W96226   5.188  21.999   1.404
29796W        W96227  30.496  29.282  12.385
29797W        W96228  28.511   6.326   1.527
29798W        W96229  26.189  41.156  13.759
29799W        W96230   2.254  28.186   5.041
29800W        W96231  15.754   6.467   1.228
29801W        W96232  18.615   5.305  12.551
29802W        W96233  24.070  43.819  12.064
29803W        W96234  42.905   0.442   4.151
29804W        W96235  18.100   1.710  14.537
29805W        W96236   5.737  18.735  14.448
29806W        W96237   9.181  33.953   4.379
29807W        W96238  12.154  38.848  12.523
29808W        W96239   1.371  44.907   4.105
29809W        W96240   8.169  11.834  14.574
29810W        W96241  34.756  23.336   3.100
29811W        W96242  11.605  44.401   0.691
29812W        W96243  16.166  30.214   4.646
29813W        W96244   7.394  14.234  14.772
29814W        W96245  19.615   0.573  12.348
29815W        W96246  19.766  17.441   2.829
29816W        W96247  25.752  30.370  11.508
29817W        W96248  31.587  14.029  11.575
29818W        W96249  16.575  22.050  11.563
29819W        W96250  19.099   6.884  12.458
29820W        W96251  14.256  35.952   3.737
29821W        W96252   0.770  23.016   2.471
29822W        W96253  38.404  22.725   2.745
29823W        W96254  44.085  24.244   2.708
29824W        W96255  24.480  38.934   2.841
29825W        W96256   0.525  39.544   0.249
29826W        W96257   6.734  39.559   2.739
29827W        W96258  13.869  30.055   0.485
29828W        W96259  31.596  19.484   3.117
29829W        W96260  13.551  39.599   0.296
29830W        W96261   7.948  31.161  12.547
29831W        W96262  32.551  44.524   2.210
29832W        W96263  39.114  17.714  10.753
29833W        W96264  26.645  16.750   4.016
29834W        W96265  17.405  34.991  14.578
29835W        W96266  24.615   3.444   2.363
29836W        W96267   0.249   2.751   3.771
29837W        W96268  32.539  19.730   4.196
29838W        W96269  23.134  22.266  12.914
29839W        W96270  17.314  29.356  10.704
29840W        W96271  17.961  11.344   4.523
29841W        W96272  12.765  15.972   0.743
29842W        W96273  27.683  39.354  11.012
29843W        W96274  19.355   3.477   1.288
29844W        W96275  19.012  23.909   0.050
29845W        W96276   7.742   3.799  11.180
29846W        W96277  20.882  31.972   0.023
29847W        W96278  31.395  28.563   4.539
29848W        W96279  39.311  17.755  12.517
29849W        W96280  19.522  35.484   2.285
29850W        W96281  19.355  14.561   0.908
29851W        W96282  41.494  12.786  10.569
29852W        W96283   2.444  17.020   3.744
29853W        W96284  19.199  41.189   3.183
29854W        W96285  37.264   5.938  11.154
29855W        W96286  31.435  35.796   0.360
29856W        W96287   6.774  10.249  13.493
29857W        W96288  24.813  28.947   0.809
29858W        W96289  10.282  36.462   2.846
29859W        W96290  39.099  19.247   3.235
29860W        W96291   1.560  36.866  12.657
29861W        W96292  14.575  12.669   0.349
29862W        W96293  16.706   6.849  14.748
29863W        W96294  11.120  20.705   4.228
29864W        W96295   7.637  23.309   1.183
29865W        W96296  37.003  35.859  10.733
29866W        W96297  23.018  19.961   3.250
29867W        W96298  30.144  15.749   4.993
29868W        W96299  44.192  11.597   1.257
29869W        W96300   5.670  21.501   4.175
29870W        W96301  17.202  23.646  14.491
29871W        W96302  27.439  26.325   1.177
29872W        W96303  13.304  10.386  13.901
29873W        W96304  40.853  22.700   2.716
29874W        W96305  43.858  40.107   2.598
29875W        W96306  38.382  35.901  12.311
29876W        W96307   3.172  37.447  14.239
29877W        W96308  44.932  12.076   0.786
29878W        W96309  13.192  16.268   4.738
29879W        W96310  44.382  24.153  14.418
29880W        W96311  15.216  39.283   0.370
29881W        W96312  21.834  17.535  12.028
29882W        W96313  39.070   2.339  10.894
29883W        W96314  18.234  38.933  11.069
29884W        W96315  31.934  30.436   2.300
29885W        W96316   7.263  25.261   2.761
29886W        W96317  10.151  33.004   1.727
29887W        W96318  27.026  34.379  14.129
29888W        W96319   4.965   8.215  14.063
29889W        W96320  42.532  14.071   2.810
29890W        W96321  17.605   8.503  13.516
29891W        W96322  31.033   6.152   0.366
29892W        W96323  43.381  25.491  12.413
29893W        W96324  44.041   1.059   1.369
29894W        W96325  38.692  34.262  14.955
29895W        W96326  11.668  37.145   4.640
29896W        W96327  33.202  19.060   0.770
29897W        W96328  27.711  28.632  14.205
29898W        W96329  23.411  31.996   2.620
29899W        W96330  44.519  19.304  13.895
29900W        W96331  29.947  40.045   2.175
29901W        W96332   0.286  41.738   1.703
29902W        W96333  27.588  43.682   4.481
29903W        W96334  20.765  25.110   1.161
29904W        W96335  33.199  25.767   1.445
29905W        W96336  13.407  13.376  12.002
29906W        W96337  26.555  20.790  14.762
29907W        W96338  23.763  25.247  12.447
29908W        W96339   8.737   5.878  13.354
29909W        W96340  22.546  31.007   3.307
29910W        W96341  18.888   3.423  12.818
29911W        W96342  31.131  44.464   1.396
29912W        W96343   3.642   6.890  13.056
29913W        W96344  16.739  29.089  11.637
29914W        W96345  21.173   1.766   3.302
29915W        W96346  38.362  25.255   3.374
29916W        W96347   7.885  25.993   4.166
29917W        W96348  37.583  39.460   2.718
29918W        W96349  14.308  36.128   3.253
29919W        W96350  11.084   6.235  11.534
29920W        W96351  42.852  40.827   1.203
29921W        W96352  41.556   5.898   1.405
29922W        W96353   2.197  34.004   3.658
29923W        W96354  17.025  30.254  14.755
29924W        W96355  27.935  31.976   4.595
29925W        W96356  44.884  38.599  14.279
29926W        W96357  16.442   1.586   0.694
29927W        W96358  14.849  11.159   4.227
29928W        W96359  29.463  11.064  14.772
29929W        W96360  22.982  35.012   3.698
29930W        W96361  35.860  43.511   2.884
29931W        W96362   8.819  41.304   1.344
29932W        W96363   1.345   9.130   4.195
29933W        W96364  33.874   1.346  10.471
29934W        W96365   9.965   8.113  14.432
29935W        W96366   3.100  41.414  12.204
29936W        W96367  43.684  16.253  10.526
29937W        W96368   0.618  11.548   1.885
29938W        W96369  36.561  34.427  14.853
29939W        W96370  18.096   2.894  14.028
29940W        W96371  22.603  43.501   3.193
29941W        W96372  27.016  43.487  11.650
29942W        W96373  11.704  26.187  14.564
29943W        W96374  20.749  16.701   3.677
29944W        W96375   6.901  43.588  12.424
29945W        W96376   0.951   7.302   5.083
29946W        W96377  26.714  34.861   1.287
29947W        W96378  26.441  33.496   4.255
29948W        W96379  17.735  24.334   9.767
29949W        W96380  25.078   7.156   0.234
29950W        W96381   7.856   3.742  10.689
29951W        W96382  27.656   8.892   3.152
29952W        W96383  40.575  18.002  13.733
29953W        W96384   8.237  41.270  11.565
29954W        W96385  24.950   4.340  13.898
29955W        W96386  22.971   7.851   4.598
29956W        W96387   5.225  13.909   3.012
29957W        W96388   1.751   1.962   4.062
29958W        W96389  13.575   3.801   4.075
29959W        W96390  10.464  38.322  13.011
29960W        W96391  44.150  15.940   0.811
29961W        W96392  41.680  24.616   1.314
29962W        W96393  18.564  40.465   4.892
29963W        W96394  24.880   3.789  11.577
29964W        W96395  13.258  33.528   3.157
29965W        W96396  41.173  17.657   4.607
29966W        W96397  43.026  40.518  13.463
29967W        W96398  35.369  24.949  13.328
29968W        W96399  16.594  39.073   0.708
29969W        W96400  19.903   0.982   1.866
29970W        W96401  12.009  38.292   4.515
29971W        W96402  10.163  30.979  11.050
29972W        W96403   6.892  44.360  14.947
29973W        W96404  33.978  22.072  12.737
29974W        W96405   6.218   2.388  13.967
29975W        W96406  41.965  40.345   0.300
29976W        W96407  28.025   0.856  11.987
29977W        W96408  19.474  27.424  12.456
29978W        W96409  11.427   6.474  11.211
29979W        W96410  37.550  34.102   1.278
29980W        W96411  22.806  21.274  10.673
29981W        W96412   8.662  36.971   1.653
29982W        W96413  36.872  16.023   3.328
29983W        W96414  35.050   6.421   4.411
29984W        W96415  28.865  30.875   4.099
29985W        W96416  35.061  18.473  12.168
29986W        W96417  22.582   3.700  13.725
29987W        W96418  28.688  17.013  11.317
29988W        W96419  38.761  35.153  12.478
29989W        W96420  27.583   8.960   2.654
29990W        W96421  33.332  44.389  12.199
29991W        W96422  24.350  39.888   1.860
29992W        W96423  29.206  24.381  11.212
29993W        W96424   3.803  13.683   4.038
29994W        W96425   7.367  24.305   2.428
29995W        W96426  17.223  39.829  10.998
29996W        W96427  20.241   4.714  14.399
29997W        W96428  10.314  34.204  10.421
29998W        W96429  31.416  37.989   2.313
29999W        W96430  28.120  12.798   1.627
30000W        W96431   7.839  10.278   1.694
30001W        W96432  29.464  25.059  12.486
30002W        W96433  22.107  11.950  11.897
30003W        W96434   7.887   1.759   2.206
30004W        W96435  16.547  20.547  11.951
30005W        W96436   0.658  26.972   2.233
30006W        W96437  42.574  38.587   0.918
30007W        W96438  25.461  20.108  11.565
30008W        W96439  34.911  32.525  11.285
30009W        W96440  30.698  31.634   3.963
30010W        W96441   4.258  25.907   2.225
30011W        W96442  11.391  10.386  14.469
30012W        W96443  13.543  35.927  14.524
30013W        W96444  42.216  36.004  14.656
30014W        W96445  12.382  14.860   1.389
30015W        W96446  41.729  38.890   1.035
30016W        W96447   3.956  31.558  13.572
30017W        W96448  18.561  38.259  12.395
30018W        W96449  41.787  10.347   2.667
30019W        W96450  10.090   9.158  10.461
30020W        W96451  33.105  38.173  13.850
30021W        W96452  16.730  32.913  12.097
30022W        W96453  37.301  26.614  10.666
30023W        W96454  41.400  42.998   3.552
30024W        W96455  14.147   5.431  12.458
30025W        W96456   0.907   0.144  12.204
30026W        W96457  22.276  44.362   1.254
30027W        W96458   6.888  39.412   1.024
30028W        W96459  27.668   7.172  12.027
30029W        W96460   4.741  14.757  11.297
30030W        W96461  44.979  12.287   4.256
30031W        W96462  23.880  17.510  12.360
30032W        W96463   1.402  35.788  11.665
30033W        W96464  25.524  20.244   5.025
30034W        W96465  29.413  10.726  14.367
30035W        W96466  25.469  18.193   3.185
30036W        W96467  35.159  35.449   4.142
30037W        W96468   3.511  43.015  12.939
30038W        W96469   2.975  14.860  11.519
30039W        W96470  28.687  37.338  12.954
30040W        W96471  25.075  25.133   1.289
30041W        W96472  14.960   4.836   3.592
30042W        W96473  13.813  26.546   0.839
30043W        W96474  10.211   1.064   1.795
30044W        W96475  13.768   5.426  11.070
30045W        W96476  40.045  28.432   2.265
30046W        W96477  29.930  17.012  13.413
30047W        W96478  19.671  31.896   0.865
30048W        W96479  19.742  21.934   3.160
30049W        W96480  19.771  43.952  13.401
30050W        W96481  42.747  42.788   1.811
30051W        W96482  17.642  20.086   2.444
30052W        W96483   9.492  12.664  14.302
30053W        W96484  42.265   6.019  13.910
30054W        W96485  40.699  18.510  12.578
30055W        W96486  33.294  28.153  13.413
30056W        W96487   9.212  31.728   4.689
30057W        W96488  34.631  13.160   0.420
30058W        W96489  40.365  31.109   4.591
30059W        W96490  24.497  11.798   3.321
30060W        W96491   1.999   9.209  11.714
30061W        W96492   8.313  19.583  13.241
30062W        W96493  44.249   2.442   3.616
30063W        W96494  16.082  22.487  10.603
30064W        W96495   7.666   1.434  13.841
30065W        W96496  37.996  11.892   1.328
30066W        W96497  33.684  11.311   1.721
30067W        W96498   3.177   3.417   5.179
30068W        W96499  35.055   1.813   3.116
30069W        W96500  27.551  23.935  12.094
30070W        W96501   6.863   3.162   0.956
30071W        W96502  35.478  20.764   4.073
30072W        W96503  36.364  39.971  13.990
30073W        W96504  27.511  37.072   2.850
30074W        W96505  18.504   0.165   2.307
30075W        W96506  31.647  10.706  13.531
30076W        W96507  38.802  13.868  10.133
30077W        W96508  39.855  34.029  12.581
30078W        W96509  29.204  23.599   4.567
30079W        W96510  39.009  44.110  14.844
30080W        W96511  36.874  21.521   4.147
30081W        W96512  25.512  36.417  12.008
30082W        W96513  22.378  30.105   2.656
30083W        W96514  26.952   5.694  14.388
30084W        W96515  28.113  19.520  12.583
30085W        W96516  10.252  40.962   5.229
30086W        W96517  15.701  31.096  14.164
30087W        W96518   3.553  16.990   4.763
30088W        W96519  15.693  22.840  10.623
30089W        W96520  43.526  31.810   4.586
30090W        W96521  44.919  40.547  11.140
30091W        W96522  29.457  26.259  14.465
30092W        W96523   4.327  25.633   2.662
30093W        W96524  43.221  11.702   0.374
30094W        W96525  19.276   3.261   3.639
30095W        W96526  25.488  40.586  12.266
30096W        W96527  11.398  13.762   0.895
30097W        W96528  19.377  11.608   4.200
30098W        W96529  10.658  40.154  11.870
30099W        W96530   1.684  35.301  11.245
30100W        W96531  44.207  18.222  12.013
30101W        W96532  42.530  27.958   4.322
30102W        W96533  20.766   5.789  11.910
30103W        W96534  42.856  30.719  13.484
30104W        W96535  34.564  11.578   4.030
30105W        W96536  25.169  18.034  11.238
30106W        W96537  41.063  18.257   2.186
30107W        W96538  43.841  18.346   0.895
30108W        W96539  25.722  25.784   0.358
30109W        W96540  19.863  11.775   3.168
30110W        W96541  23.543  23.085   2.319
30111W        W96542  43.333  18.386  11.784
30112W        W96543  29.014  36.897   2.758
30113W        W96544  23.575  23.812   0.973
30114W        W96545   0.400  37.771  11.706
30115W        W96546  25.926  14.999  11.217
30116W        W96547  39.461  38.981  12.544
30117W        W96548  19.995  20.767  12.842
30118W        W96549  13.271  37.492   1.627
30119W        W96550  18.222  39.425  14.965
30120W        W96551  15.163   9.101   2.901
30121W        W96552   6.067  20.598  14.105
30122W        W96553  44.515  27.508   2.618
30123W        W96554   2.489  28.953  14.312
30124W        W96555  43.482   8.693   4.099
30125W        W96556  33.481  14.392   2.872
30126W        W96557  18.213  24.100   2.149
30127W        W96558  22.702  43.708  14.778
30128W        W96559  14.981  26.355   4.243
30129W        W96560   3.395  13.296  13.135
30130W        W96561  44.163  34.428   1.150
30131W        W96562  32.578   4.315  13.871
30132W        W96563   3.235  37.428  11.489
30133W        W96564   9.787   9.453   3.018
30134W        W96565  29.208  39.070  14.979
30135W        W96566  15.172  37.981  11.115
30136W        W96567  34.020  16.436  12.985
30137W        W96568  31.479   4.323   2.154
30138W        W96569  34.601  12.558   1.802
30139W        W96570   8.841  38.840   2.076
30140W        W96571  23.021  38.710  13.856
30141W        W96572   6.362  35.589  10.679
30142W        W96573  26.588  31.271   1.707
30143W        W96574  19.768   2.368   2.855
30144W        W96575  27.153  35.761   3.694
30145W        W96576  33.857  37.165   4.132
30146W        W96577  18.194  25.444  10.131
30147W        W96578   1.791  32.448   3.671
30148W        W96579   6.400  26.805  10.277
30149W        W96580  17.608  26.323   2.046
30150W        W96581   2.976   9.941  11.599
30151W        W96582  10.726  40.290  11.393
30152W        W96583   2.754  39.153   0.016
30153W        W96584  43.119  22.211   1.323
30154W        W96585  31.125  22.248  13.407
30155W        W96586   3.881   5.173  12.185
30156W        W96587  28.432  14.216   2.285
30157W        W96588  12.653  42.854  11.998
30158W        W96589   8.023  28.129  13.057
30159W        W96590  27.943  19.467  10.285
30160W        W96591  30.532  39.265   4.549
30161W        W96592  27.727  38.610   4.993
30162W        W96593  30.555   0.744   1.294
30163W        W96594  25.516   3.255  12.573
30164W        W96595  22.003   1.829   4.113
30165W        W96596  36.137  29.477  11.142
30166W        W96597  39.307  18.691  10.509
30167W        W96598  20.155  36.089  12.925
30168W        W96599  42.898  23.971  14.865
30169W        W96600  16.601  25.517   0.917
30170W        W96601  32.099   5.266   3.156
30171W        W96602  36.954   9.082   1.884
30172W        W96603  26.429  24.710   1.819
30173W        W96604  36.203  19.374   0.730
30174W        W96605  21.706  38.470   1.334
30175W        W96606  13.155  16.791  12.659
30176W        W96607   6.591  14.994   9.871
30177W        W96608   9.287  33.979  12.842
30178W        W96609   1.306   3.194   4.956
30179W        W96610  14.344  21.238  11.979
30180W        W96611  35.883  30.888   0.739
30181W        W96612  19.077  21.539  11.876
30182W        W96613  23.029  44.495   4.590
30183W        W96614   6.981  11.800   4.607
30184W        W96615  27.916  28.380  11.494
30185W        W96616  18.590  20.242   0.032
30186W        W96617  35.834  26.901  12.592
30187W        W96618  21.263  10.704   4.095
30188W        W96619  42.255  40.003  12.152
30189W        W96620  22.369  40.830   5.419
30190W        W96621  20.645  23.246  14.707
30191W        W96622  20.840  14.161   2.760
30192W        W96623  43.343  38.767   2.331
30193W        W96624  38.531  36.620   0.339
30194W        W96625   5.292  15.231   1.931
30195W        W96626  29.581  30.445   3.302
30196W        W96627   0.820  39.113   5.260
30197W        W96628  15.138  29.630   2.429
30198W        W96629  26.501   1.775   4.807
30199W        W96630  17.726  38.781   2.673
30200W        W96631   0.970  17.734   4.888
30201W        W96632  23.083  36.081   2.179
30202W        W96633  33.467  31.520   0.696
30203W        W96634   2.183   1.376   2.869
30204W        W96635  21.189  25.081  14.243
30205W        W96636  43.496   4.887   3.652
30206W        W96637  41.105   8.163   0.770
30207W        W96638  17.275  27.043  12.101
30208W        W96639  22.979  38.939  12.524
30209W        W96640  38.863  44.790  14.389
30210W        W96641  10.174   0.520   1.884
30211W        W96642  25.033  16.845  12.196
30212W        W96643  16.637  26.524  10.811
30213W        W96644  21.720  18.811   2.848
30214W        W96645  41.574   6.565  14.747
30215W        W96646   0.687  11.993   2.146
30216W        W96647   9.875  17.623  13.468
30217W        W96648  38.017  43.838   4.641
30218W        W96649  36.721   4.364  13.398
30219W        W96650   9.772  16.250   3.250
30220W        W96651  27.939  32.018  10.933
30221W        W96652  28.887  21.457   4.041
30222W        W96653  23.456  35.425  13.804
30223W        W96654  20.777   2.011  10.713
30224W        W96655  21.364  27.539  11.496
30225W        W96656  18.882  30.303  12.126
30226W        W96657   3.798  41.988  12.178
30227W        W96658  10.776   7.363  13.456
30228W        W96659  20.441  38.747  13.317
30229W        W96660  39.443  32.470  11.381
30230W        W96661  43.345  38.047  10.069
30231W        W96662  15.307  38.495  11.162
30232W        W96663  44.017  32.976   2.941
30233W        W96664  34.072  38.725   1.873
30234W        W96665  41.946   0.192   1.670
30235W        W96666  32.757   4.273  12.357
30236W        W96667  25.775  27.982   1.290
30237W        W96668  16.816   5.869  11.144
30238W        W96669  27.680  27.420  13.809
30239W        W96670  36.789  44.437  14.470
30240W        W96671  30.174   1.410   3.387
30241W        W96672   6.691  14.727   0.931
30242W        W96673  20.932   1.352  12.534
30243W        W96674  11.811  20.268  14.965
30244W        W96675  36.240   7.052   0.108
30245W        W96676  43.766   2.833   2.794
30246W        W96677  36.731  21.158   3.428
30247W        W96678   1.297   4.697   4.131
30248W        W96679   7.331   6.207  10.416
30249W        W96680  34.352  44.472   3.374
30250W        W96681   0.649   8.908   4.682
30251W        W96682   1.277  20.249  14.305
30252W        W96683  39.617   4.345   4.295
30253W        W96684  30.999  14.548  14.861
30254W        W96685  36.849  42.124  14.989
30255W        W96686  23.328  34.946  13.928
30256W        W96687  24.895  39.558  14.167
30257W        W96688   4.455  30.296  10.004
30258W        W96689   8.602  26.569  12.636
30259W        W96690  12.031   3.877   0.759
30260W        W96691  29.759  34.826  14.583
30261W        W96692  20.715   6.545   2.288
30262W        W96693  15.194  13.655  11.258
30263W        W96694  40.845   7.268   0.717
30264W        W96695  11.099   8.241   3.372
30265W        W96696  18.173  24.579  12.085
30266W        W96697  16.389  44.872  13.837
30267W        W96698  24.581   9.580   1.873
30268W        W96699  36.565  42.790  12.392
30269W        W96700  12.874  19.659  14.520
30270W        W96701  23.425  13.419   2.894
30271W        W96702  22.500  34.834   3.629
30272W        W96703   1.658  31.642   3.197
30273W        W96704  17.342  29.172  13.352
30274W        W96705  25.915  42.972   2.934
30275W        W96706  22.750  29.041  14.969
30276W        W96707  39.046  43.350  14.302
30277W        W96708  28.222  31.627   2.602
30278W        W96709  17.086  39.128   3.337
30279W        W96710  14.672  20.556  14.835
30280W        W96711  10.931  15.949   2.842
30281W        W96712  35.991  35.404  12.833
30282W        W96713  25.255  13.756   3.233
30283W        W96714   0.115  42.451   0.121
30284W        W96715  19.248  35.602   0.540
30285W        W96716  12.841  33.183  13.467
30286W        W96717  42.526   3.953  11.623
30287W        W96718  22.757  33.390   1.776
30288W        W96719  26.267   6.632   5.092
30289W        W96720  41.068  21.992   3.065
30290W        W96721  29.897  36.933  13.851
30291W        W96722  16.323   4.853   1.730
30292W        W96723  43.414  42.427  13.558
30293W        W96724  24.539   9.738  12.512
30294W        W96725  25.038  14.323   1.993
30295W        W96726  37.330   8.868  11.101
30296W        W96727  17.966  41.344  11.594
30297W        W96728   6.628  34.352  12.543
30298W        W96729  38.988  12.358  13.881
30299W        W96730  34.949   0.725  13.843
30300W        W96731  25.039  43.030  11.607
30301W        W96732  28.700  11.077   2.786
30302W        W96733   4.698  23.366  14.563
30303W        W96734  27.694  42.882   3.371
30304W        W96735   1.468   7.660   1.307
30305W        W96736  18.532  25.159   2.660
30306W        W96737  31.020  22.195  10.667
30307W        W96738  29.170  42.730   0.769
30308W        W96739   9.991  19.299  14.139
30309W        W96740  21.806  13.378   2.380
30310W        W96741  27.591  28.014   4.130
30311W        W96742  34.834  27.659   1.040
30312W        W96743  11.421   2.356  14.114
30313W        W96744  36.442  15.590   1.025
30314W        W96745  42.904  44.794   1.401
30315W        W96746   8.250  16.898  11.983
30316W        W96747   3.904  42.808  12.065
30317W        W96748  20.447  25.702   0.385
30318W        W96749   7.854  29.450  11.556
30319W        W96750   4.832   9.836   3.189
30320W        W96751  22.107   8.455   1.281
30321W        W96752  27.925  32.340  11.345
30322W        W96753   6.310  13.543  10.715
30323W        W96754  43.541  35.222   1.343
30324W        W96755   7.109  17.344   1.817
30325W        W96756   9.749   5.703   1.244
30326W        W96757   0.576  22.921   0.874
30327W        W96758  33.958  31.966  12.174
30328W        W96759   1.935   7.933   3.319
30329W        W96760  25.637   3.420   2.615
30330W        W96761   6.101   8.643  11.708
30331W        W96762  23.242   1.723  13.035
30332W        W96763  23.627   9.283   3.093
30333W        W96764   0.394  41.849  11.575
30334W        W96765  18.771  35.152  11.648
30335W        W96766  30.937   0.418  11.564
30336W        W96767   9.905  37.915  11.370
30337W        W96768  32.061  44.393  12.917
30338W        W96769   7.402  35.440  14.909
30339W        W96770  20.509  36.810   0.872
30340W        W96771  32.025  32.186   5.091
30341W        W96772  38.421  40.817  14.794
30342W        W96773   9.779  35.993  14.791
30343W        W96774  36.870  41.671   2.157
30344W        W96775  41.450  27.722   2.355
30345W        W96776  41.897  22.590   5.088
30346W        W96777  30.444   7.952  10.690
30347W        W96778  12.852  41.948   3.694
30348W        W96779   9.710  32.486  10.815
30349W        W96780  44.786  12.658  13.004
30350W        W96781  35.242  35.408   0.429
30351W        W96782  38.176   1.423  10.604
30352W        W96783  26.611  11.686  12.605
30353W        W96784  13.591  40.830  11.119
30354W        W96785  40.447   0.928  10.862
30355W        W96786  26.403  15.872   5.077
30356W        W96787   6.975   3.272   3.608
30357W        W96788  16.084  10.564  10.614
30358W        W96789  29.393   5.245  12.917
30359W        W96790  30.738  26.272  14.185
30360W        W96791   4.022  20.071   3.386
30361W        W96792  40.423  43.227   3.131
30362W        W96793  16.750  14.149  14.524
30363W        W96794  37.189   4.272  12.127
30364W        W96795  16.241  36.102  11.410
30365W        W96796  43.690   3.367  12.400
30366W        W96797  19.969  21.920  14.000
30367W        W96798  12.842  22.512   4.147
30368W        W96799  28.643   6.410  12.443
30369W        W96800  28.614  20.968  13.266
30370W        W96801  44.901   3.129   1.978
30371W        W96802  11.882  40.444   2.334
30372W        W96803  16.464  13.675  14.492
30373W        W96804   1.715   5.595   1.403
30374W        W96805   6.081  35.499   3.221
30375W        W96806  31.454  13.124  11.798
30376W        W96807  42.962  34.883   0.928
30377W        W96808  13.586  20.831  14.128
30378W        W96809  13.231  18.533  12.365
30379W        W96810  41.267  19.437  12.844
30380W        W96811  24.988  10.842   0.858
30381W        W96812  18.569   7.038   1.912
30382W        W96813  20.558   3.417  11.424
30383W        W96814  30.458  18.320   3.722
30384W        W96815  35.026  31.571   4.749
30385W        W96816  17.518  16.143   3.666
30386W        W96817  30.089  25.863   0.966
30387W        W96818  30.630  40.146   3.644
30388W        W96819  17.555   2.278   1.468
30389W        W96820   2.314  20.430  10.792
30390W        W96821  19.830  29.417   0.840
30391W        W96822  33.279   0.428   3.590
30392W        W96823  17.531  29.498   0.075
30393W        W96824   9.733   0.280  11.373
30394W        W96825  10.184   2.372   1.253
30395W        W96826  15.652  10.345   2.915
30396W        W96827  40.574  19.264   3.146
30397W        W96828  32.915   3.174   2.406
30398W        W96829  15.161  20.184  14.145
30399W        W96830  10.683  34.141   2.518
30400W        W96831   1.417  19.268   0.589
30401W        W96832  18.413  10.023   0.305
30402W        W96833  31.048  19.354   0.015
30403W        W96834  34.087  16.780   3.325
30404W        W96835  34.583   2.478   0.752
30405W        W96836  32.900  38.270   0.778
30406W        W96837  15.359  40.455  12.614
30407W        W96838   1.255   1.934   4.212
30408W        W96839  30.553  10.471  14.785
30409W        W96840   0.485  36.827   3.288
30410W        W96841  36.494  39.753  12.507
30411W        W96842   2.940   3.998  13.155
30412W        W96843   7.634  42.402   3.784
30413W        W96844   3.298  24.220   2.438
30414W        W96845  27.575  34.038   2.198
30415W        W96846  26.118  16.475  12.652
30416W        W96847  29.868  16.756  14.829
30417W        W96848  11.263  44.265  13.530
30418W        W96849   0.152  37.464  12.029
30419W        W96850  37.532   3.475  14.918
30420W        W96851  24.666  23.322  13.569
30421W        W96852  23.983  41.830   2.593
30422W        W96853  20.663  19.077   0.285
30423W        W96854  22.133  36.809  10.749
30424W        W96855  28.571   8.837  13.620
30425W        W96856  20.214  19.258  11.955
30426W        W96857  15.358  14.247   2.396
30427W        W96858  38.923  33.552  11.275
30428W        W96859  14.764  13.102   1.084
30429W        W96860   7.692  30.491   3.778
30430W        W96861  31.053  19.447   4.505
30431W        W96862  14.109   6.590  11.497
30432W        W96863  17.818  23.402   9.696
30433W        W96864  16.800  16.936   4.030
30434W        W96865  18.266  22.735   0.855
30435W        W96866  36.139  26.164  10.630
30436W        W96867  38.927   9.047   4.089
30437W        W96868  17.876   4.276   5.002
30438W        W96869  17.004   1.454   2.814
30439W        W96870  39.787  19.744  10.965
30440W        W96871  29.687  32.015   3.748
30441W        W96872  17.515  12.763  10.246
30442W        W96873  21.195   9.957  13.466
30443W        W96874  38.404   1.867   4.287
30444W        W96875  22.452   0.383   3.676
30445W        W96876  11.032  28.756  11.195
30446W        W96877   1.299  23.939   3.688
30447W        W96878  22.246   1.892   1.785
30448W        W96879  20.570   0.054  11.235
30449W        W96880  42.447  43.246  14.915
30450W        W96881  18.305   0.907   4.509
30451W        W96882  43.290  24.887  13.281
30452W        W96883  12.682  13.772   3.602
30453W        W96884  21.487   9.203  14.515
30454W        W96885  44.563  28.120   1.731
30455W        W96886  11.758  21.886  14.694
30456W        W96887  11.679  15.738  14.941
30457W        W96888  10.712  42.957  11.661
30458W        W96889   0.508  18.272  10.698
30459W        W96890   4.840  31.448  11.620
30460W        W96891   1.648  43.347  12.826
30461W        W96892  21.871  20.809   0.639
30462W        W96893  44.430   1.244   2.890
30463W        W96894  37.190  14.178  14.448
30464W        W96895  24.956   5.127   1.271
30465W        W96896   9.736   5.111   0.782
30466W        W96897  36.032  27.857   0.767
30467W        W96898  18.099  37.529   4.590
30468W        W96899  41.977   0.865  12.593
30469W        W96900  37.302  20.294  13.819
30470W        W96901  32.741  42.185  11.023
30471W        W96902  26.648   9.771   3.755
30472W        W96903  33.454  26.244  13.429
30473W        W96904  26.360  25.903  14.373
30474W        W96905  13.868  40.019  10.741
30475W        W96906   5.918  34.433  14.897
30476W        W96907  19.289  15.297  10.374
30477W        W96908   5.490  40.318   4.178
30478W        W96909   8.868   2.721   4.149
30479W        W96910  20.452  18.675  12.488
30480W        W96911   3.831  39.797   1.754
30481W        W96912   7.707  21.916  10.538
30482W        W96913  22.477   8.455   0.744
30483W        W96914   5.903   1.885  12.100
30484W        W96915  11.237  37.930   0.637
30485W        W96916   2.293  27.100   2.291
30486W        W96917  21.824  15.846  11.299
30487W        W96918  23.385  18.717   2.264
30488W        W96919  19.793  14.086  12.338
30489W        W96920  22.745  24.651   1.843
30490W        W96921   8.933   0.199  14.387
30491W        W96922  26.303  13.130   3.621
30492W        W96923  18.507  29.441  14.709
30493W        W96924  32.297  18.082   0.839
30494W        W96925  18.106  36.498  12.487
30495W        W96926   5.480  25.682  11.510
30496W        W96927   9.747  11.211   4.446
30497W        W96928   7.335   9.856   1.773
30498W        W96929  44.702   9.176  13.816
30499W        W96930  14.720  22.946  13.294
30500W        W96931  30.190  30.245   0.840
30501W        W96932  39.574  16.645  11.938
30502W        W96933  43.702  30.995  11.202
30503W        W96934  16.395  13.341   3.182
30504W        W96935   5.329  36.974  14.243
30505W        W96936  34.325  43.693  11.456
30506W        W96937   6.649  10.930  13.898
30507W        W96938  25.567  24.394   0.951
30508W        W96939  28.740  43.455  11.485
30509W        W96940  17.646  19.035  11.614
30510W        W96941  24.265   9.075   2.698
30511W        W96942  44.434  14.823   0.816
30512W        W96943  12.103  28.119  14.389
30513W        W96944  18.868  23.781   3.087
30514W        W96945  14.287  44.485   2.398
30515W        W96946  33.917  29.290   3.817
30516W        W96947   3.505  30.149  10.507
30517W        W96948  40.309  11.677  12.419
30518W        W96949  20.657  38.076   2.180
30519W        W96950   4.776   4.570   0.229
30520W        W96951  18.153  24.236  13.551
30521W        W96952  15.832  21.031  14.264
30522W        W96953  22.095  40.808  14.359
30523W        W96954  14.356  12.080  11.376
30524W        W96955  10.908   3.517   1.928
30525W        W96956  33.481  10.243   1.077
30526W        W96957  12.677   4.322   2.389
30527W        W96958  14.920   8.491   0.192
30528W        W96959  32.347  17.224   1.659
30529W        W96960  30.155   0.706   3.743
30530W        W96961  31.454  41.541   3.006
30531W        W96962   6.963  44.769   2.640
30532W        W96963  43.708  14.651  12.434
30533W        W96964   6.240  19.805   4.809
30534W        W96965  30.898  39.423  12.509
30535W        W96966  41.716   5.884   0.491
30536W        W96967  30.418  33.302   0.319
30537W        W96968   4.994  38.106  12.866
30538W        W96969  38.409  24.104   4.006
30539W        W96970   2.721  44.286   4.131
30540W        W96971  31.698  40.241   4.219
30541W        W96972  25.623   2.543   4.690
30542W        W96973  16.626   5.117  12.003
30543W        W96974  27.579  14.586   3.990
30544W        W96975   0.399  37.317   3.184
30545W        W96976  13.423   6.998   4.185
30546W        W96977  13.094   3.283  11.730
30547W        W96978  22.053   9.597   3.699
30548W        W96979   1.404  34.788  13.150
30549W        W96980   2.041  41.642  14.821
30550W        W96981   4.214   4.700   3.661
30551W        W96982   7.689  21.665   2.203
30552W        W96983  41.905  20.345  14.370
30553W        W96984  33.202   9.039  14.249
30554W        W96985  41.639   9.900  10.505
30555W        W96986  26.932  29.688   5.080
30556W        W96987  18.276  14.251  12.816
30557W        W96988  30.933  34.474  11.638
30558W        W96989  21.579  21.249  13.794
30559W        W96990  43.514  33.074   0.367
30560W        W96991  10.108  21.852   3.843
30561W        W96992  22.165  21.742   4.390
30562W        W96993   6.939  27.247   1.237
30563W        W96994  38.546  34.412   2.417
30564W        W96995  25.614   1.490   2.419
30565W        W96996  16.112  36.254   2.890
30566W        W96997  26.078  14.229   3.579
30567W        W96998   1.901  17.672  13.717
30568W        W96999   7.934   5.735  10.959
30569W        W97000  16.672  30.432  13.536
30570W        W97001  11.301  32.471   1.345
30571W        W97002  13.425  14.927  13.114
30572W        W97003   4.937  28.969  10.686
30573W        W97004  34.996   9.719  13.435
30574W        W97005  35.067   6.418   2.352
30575W        W97006  11.201  40.781   3.364
30576W        W97007  30.172  22.265  10.706
30577W        W97008   6.185  20.170   0.789
30578W        W97009  17.098   9.822  12.408
30579W        W97010   2.636  13.815   2.558
30580W        W97011  19.240  40.886  12.976
30581W        W97012   1.713  40.602   1.786
30582W        W97013  32.821   7.762   4.150
30583W        W97014  28.827  20.559  13.539
30584W        W97015  41.244  25.813   4.796
30585W        W97016  21.131  36.878  10.451
30586W        W97017  11.216  11.218   1.039
30587W        W97018  43.950  29.943  10.472
30588W        W97019   0.054  43.439  14.193
30589W        W97020  10.617  28.471  11.132
30590W        W97021  33.302  41.511   0.284
30591W        W97022   7.759  12.547  10.681
30592W        W97023  26.478  20.687  14.268
30593W        W97024  42.259  26.691   4.482
30594W        W97025  42.287   0.961  13.037
30595W        W97026  43.834  26.382   3.692
30596W        W97027  16.664  41.246   2.219
30597W        W97028   6.289   5.131  11.671
30598W        W97029  36.330  36.892   3.021
30599W        W97030  25.525  34.157   0.575
30600W        W97031  42.622  20.650   0.035
30601W        W97032  18.607   1.976   1.858
30602W        W97033  36.217  33.533   2.367
30603W        W97034  23.130   3.734  14.467
30604W        W97035  32.908  22.880  14.805
30605W        W97036  18.568  43.418  11.449
30606W        W97037   0.909  14.658   3.308
30607W        W97038  44.379   6.258  14.271
30608W        W97039  34.379  31.410   4.176
30609W        W97040  29.366  37.341  14.550
30610W        W97041  42.338  34.610   3.729
30611W        W97042  28.194  27.414  13.870
30612W        W97043  31.165   6.611  11.031
30613W        W97044   3.597   8.239   2.731
30614W        W97045  36.448  15.931  10.463
30615W        W97046  12.557  23.151  13.859
30616W        W97047  27.684  41.342   3.298
30617W        W97048  10.307  20.624   1.997
30618W        W97049  42.556   5.589  13.964
30619W        W97050  43.803  19.662   2.226
30620W        W97051  25.237  10.688   2.741
30621W        W97052  31.685  15.795  13.528
30622W        W97053  43.014  23.197   3.071
30623W        W97054   3.521  11.853   3.265
30624W        W97055  23.987  42.579   2.275
30625W        W97056  31.167   6.152  14.475
30626W        W97057  28.973  20.131   4.423
30627W        W97058  22.695  22.077   3.699
30628W        W97059  13.463  19.604   1.670
30629W        W97060  30.931  44.443   0.089
30630W        W97061  11.222  23.124  10.931
30631W        W97062   9.705  19.326   2.296
30632W        W97063  30.674  18.559  11.672
30633W        W97064   8.954  36.886  11.052
30634W        W97065  31.433   2.191  13.908
30635W        W97066  10.761  31.933  10.526
30636W        W97067  14.880  28.894   5.107
30637W        W97068  28.635  31.670  10.774
30638W        W97069  10.837   7.954   2.399
30639W        W97070  25.160  26.478   1.693
30640W        W97071  17.673  41.557  14.794
30641W        W97072  43.031  17.004  13.367
30642W        W97073  40.428  43.023   4.037
30643W        W97074  14.694  41.703  13.848
30644W        W97075  39.456  10.888   1.292
30645W        W97076  13.716  10.107  14.028
30646W        W97077   8.215   7.204  14.418
30647W        W97078  22.493  12.343  11.168
30648W        W97079  31.845  15.749  14.436
30649W        W97080  40.428   2.239   1.839
30650W        W97081  23.502  43.640  13.834
30651W        W97082   1.181  43.565   2.270
30652W        W97083  29.553  32.748  12.594
30653W        W97084   2.020  12.170   2.273
30654W        W97085  43.382  23.027   1.662
30655W        W97086  43.555  42.114  13.952
30656W        W97087  12.069  15.827  13.029
30657W        W97088  13.949  29.360   3.261
30658W        W97089   0.916   1.442   3.079
30659W        W97090  14.197  17.127   3.062
30660W        W97091  40.755  10.829   4.336
30661W        W97092  41.430  37.954   1.874
30662W        W97093  32.223  20.090  14.833
30663W        W97094  42.234   2.315  13.669
30664W        W97095  18.310  30.050   2.017
30665W        W97096  34.323  26.741  11.701
30666W        W97097  11.390  15.269  14.234
30667W        W97098  31.669  30.018   3.306
30668W        W97099  36.929  10.295   0.248
30669W        W97100  31.361  18.047   3.241
30670W        W97101  16.821   3.408  14.027
30671W        W97102  15.986   8.881   2.341
30672W        W97103   1.748  10.608  14.455
30673W        W97104   6.720  34.559   4.048
30674W        W97105   4.180  24.949  13.467
30675W        W97106  43.369  17.373   3.594
30676W        W97107  38.433  26.391   4.211
30677W        W97108  18.111  25.713  11.677
30678W        W97109  43.406  18.070   2.617
30679W        W97110   6.346  37.657  13.039
30680W        W97111  20.274  22.691  10.318
30681W        W97112  26.530  26.546   2.450
30682W        W97113  18.523   0.513   0.896
30683W        W97114   1.347   0.919   4.618
30684W        W97115  24.460   1.334   0.774
30685W        W97116  24.327  20.763   0.365
30686W        W97117  23.919   3.765  13.246
30687W        W97118  18.113   6.598  12.549
30688W        W97119  42.046  18.599   2.258
30689W        W97120  23.431  11.732   1.323
30690W        W97121  15.295   1.756  14.058
30691W        W97122  16.337  35.159   0.378
30692W        W97123  29.589  15.783   3.625
30693W        W97124  39.006  43.650   1.261
30694W        W97125  30.485  23.023  11.258
30695W        W97126  36.361  43.749   4.525
30696W        W97127  25.747  12.143   0.832
30697W        W97128  34.161  21.046  12.595
30698W        W97129   0.019   3.778  12.608
30699W        W97130   1.853  31.078   0.906
30700W        W97131  26.407  43.031  10.693
30701W        W97132  12.683   0.320  11.576
30702W        W97133  24.498  43.532  13.258
30703W        W97134  29.501  24.682   2.716
30704W        W97135  19.667  44.462  13.397
30705W        W97136  20.087   8.348  13.010
30706W        W97137   8.430  32.089  12.503
30707W        W97138  18.734  33.149   4.149
30708W        W97139  17.145   1.014   3.643
30709W        W97140  43.523  11.780  14.402
30710W        W97141  24.153  23.759  13.759
30711W        W97142   8.926  18.065   1.472
30712W        W97143  24.997  30.600  12.064
30713W        W97144  43.178  43.887   0.876
30714W        W97145  11.658  13.727  13.849
30715W        W97146  10.669   6.297   3.603
30716W        W97147   3.329  15.910  11.128
30717W        W97148  31.409  37.605   3.070
30718W        W97149  24.448   6.806   3.261
30719W        W97150  34.329   9.820   4.133
30720W        W97151  33.100  10.836   1.037
30721W        W97152  30.652  23.117   3.332
30722W        W97153  16.824  14.037   0.869
30723W        W97154  29.591  38.465  11.401
30724W        W97155   1.914   3.360   1.928
30725W        W97156  22.048  10.686  10.482
30726W        W97157  23.497   4.938   2.177
30727W        W97158  15.186  17.756  10.095
30728W        W97159   7.808  40.601   1.995
30729W        W97160  25.554  18.594  12.833
30730W        W97161  34.606   1.777  11.049
30731W        W97162  20.213  28.400  11.451
30732W        W97163  13.223  29.976   3.733
30733W        W97164  26.721  38.526   0.488
30734W        W97165  22.831  12.849  10.587
30735W        W97166  42.974   1.905   4.430
30736W        W97167  39.955  39.604   3.479
30737W        W97168  38.029  12.075  14.910
30738W        W97169  40.626  15.626  10.626
30739W        W97170  26.875  14.550  10.788
30740W        W97171  34.075  26.908  12.164
30741W        W97172  16.199  20.797   3.695
30742W        W97173  28.638  14.511   1.369
30743W        W97174   8.146  14.138  13.386
30744W        W97175   2.846  36.423  12.612
30745W        W97176  22.227   3.284   1.454
30746W        W97177   0.787  29.638  14.004
30747W        W97178  20.963  42.981  12.616
30748W        W97179  21.970  17.778  12.472
30749W        W97180   1.115  31.876  12.941
30750W        W97181  20.104  14.036   2.244
30751W        W97182  17.615  35.744  13.824
30752W        W97183  27.808  28.339  13.714
30753W        W97184  35.111   5.904  13.788
30754W        W97185  15.146  41.579  13.505
30755W        W97186  11.414  15.469   4.305
30756W        W97187  14.720   4.491  11.618
30757W        W97188  30.154  23.030   3.404
30758W        W97189  24.210  42.180  10.553
30759W        W97190  15.100  33.074  14.023
30760W        W97191  38.795  19.793   0.557
30761W        W97192  23.185  41.445  13.843
30762W        W97193   6.420  44.731   2.719
30763W        W97194  35.585  28.585   1.454
30764W        W97195   2.230  39.497  12.829
30765W        W97196  35.597  19.065  10.505
30766W        W97197  27.168   2.330   2.235
30767W        W97198  42.819  21.040  12.422
30768W        W97199  33.392  34.985   4.268
30769W        W97200  35.919  34.849  14.428
30770W        W97201  13.785  25.829   4.232
30771W        W97202  24.169  32.934   0.239
30772W        W97203  38.474  40.939  13.860
30773W        W97204  32.088  26.852  10.730
30774W        W97205  21.874  28.583  12.929
30775W        W97206  41.500  17.127   2.758
30776W        W97207   1.255  32.469   2.746
30777W        W97208  38.593   2.357   4.196
30778W        W97209  41.098   3.425  14.567
30779W        W97210  38.341  44.938   0.740
30780W        W97211  27.420  28.147  10.660
30781W        W97212  15.602  42.355  11.003
30782W        W97213  32.469  14.404  11.195
30783W        W97214  25.485  26.421   2.906
30784W        W97215   7.060  11.782  13.137
30785W        W97216   3.537  28.286   3.865
30786W        W97217  11.075  14.071  13.055
30787W        W97218   8.961  38.875  13.528
30788W        W97219  37.920  34.296  14.292
30789W        W97220   1.547   9.846  13.440
30790W        W97221  42.820  10.015  14.087
30791W        W97222  20.928  14.142   1.801
30792W        W97223  42.078   0.383   3.583
30793W        W97224  32.899   9.823   0.368
30794W        W97225  27.610  26.764   3.881
30795W        W97226  34.395  23.509   0.771
30796W        W97227  23.251   3.757   4.289
30797W        W97228  20.421  43.764   4.612
30798W        W97229  43.875  40.090  10.501
30799W        W97230  12.593  16.702  14.898
30800W        W97231   9.659  19.267   4.095
30801W        W97232  11.241  41.755  11.160
30802W        W97233  33.860  40.450   4.182
30803W        W97234   3.498  12.897   3.165
30804W        W97235   5.347  10.402   0.829
30805W        W97236  43.413  15.385   0.312
30806W        W97237  10.308  23.589  12.277
30807W        W97238   7.906  32.282  12.993
30808W        W97239  20.647   5.683  14.974
30809W        W97240  19.014   4.259   0.356
30810W        W97241  32.908  33.505  12.083
30811W        W97242  26.071  31.397   4.552
30812W        W97243  14.653  20.526  12.940
30813W        W97244  38.994   4.540  12.269
30814W        W97245  38.759   9.501  12.007
30815W        W97246  10.963  37.227   3.559
30816W        W97247   4.316  13.524   0.724
30817W        W97248   9.177   0.737  12.540
30818W        W97249  39.601  19.237  10.960
30819W        W97250  27.064  20.557   0.963
30820W        W97251  16.402   8.279  11.047
30821W        W97252  42.998  38.300  13.960
30822W        W97253  29.435   9.148   3.262
30823W        W97254  32.089  15.350   3.380
30824W        W97255  40.980  27.182   3.306
30825W        W97256  38.794  22.032  12.907
30826W        W97257  21.525  43.269   4.595
30827W        W97258  34.690  39.706  12.486
30828W        W97259  40.189  15.574   1.732
30829W        W97260   2.764   7.183  14.849
30830W        W97261   8.750   2.808  11.465
30831W        W97262   0.482   3.206   3.718
30832W        W97263  42.470  14.819   3.119
30833W        W97264  43.861  27.301   1.828
30834W        W97265  13.777  41.874   3.239
30835W        W97266  39.836   2.766   0.488
30836W        W97267  43.428  16.460  11.738
30837W        W97268  27.756  16.106  11.584
30838W        W97269  12.248  44.440   2.298
30839W        W97270  23.965  15.529  12.895
30840W        W97271  19.741   3.020   3.657
30841W        W97272   9.812  29.149   1.349
30842W        W97273  30.781   5.386   4.226
30843W        W97274  31.945  41.085  13.948
30844W        W97275  28.208  18.075  13.824
30845W        W97276  37.479  43.377   5.040
30846W        W97277   7.678  34.911   2.654
30847W        W97278  38.893  38.350   0.516
30848W        W97279  26.964  14.371  11.972
30849W        W97280   0.866  42.990  14.417
30850W        W97281  15.211  11.724  11.714
30851W        W97282   7.531  25.692  11.538
30852W        W97283  29.987  42.428   3.926
30853W        W97284  35.615   1.046   1.892
30854W        W97285  39.405  11.702  12.368
30855W        W97286  39.606  22.310  13.387
30856W        W97287  38.764  36.087  13.565
30857W        W97288  16.789   9.159   3.619
30858W        W97289  33.176  18.483   4.229
30859W        W97290  40.424   9.492  13.914
30860W        W97291  23.239  29.414   0.177
30861W        W97292   2.413  12.755  14.800
30862W        W97293  36.003  21.406   1.977
30863W        W97294  41.005  15.114   0.271
30864W        W97295  39.857  35.384  10.830
30865W        W97296  27.179  36.178   4.571
30866W        W97297  36.472  34.633  10.718
30867W        W97298   8.692  31.916   2.747
30868W        W97299   0.905  20.052  11.999
30869W        W97300  16.049  26.770   1.503
30870W        W97301  39.308   1.480   3.621
30871W        W97302   5.510   6.902   1.896
30872W        W97303   8.601  17.234  10.473
30873W        W97304  16.065  34.342   2.097
30874W        W97305  25.055   9.862   4.505
30875W        W97306  38.525  43.295   0.928
30876W        W97307  44.415  39.028  11.759
30877W        W97308   9.446  19.993   0.927
30878W        W97309   4.445  17.753  10.111
30879W        W97310   6.888  29.429   3.869
30880W        W97311  13.296  32.860  14.143
30881W        W97312  24.395  39.842  14.802
30882W        W97313  28.200  14.317  13.026
30883W        W97314  44.252  12.372  12.017
30884W        W97315  19.211  19.232   0.846
30885W        W97316  41.966  40.823  13.854
30886W        W97317  42.822  42.755   2.754
30887W        W97318  10.125  39.983   2.940
30888W        W97319  28.685  34.552   0.769
30889W        W97320   9.106  16.746  13.838
30890W        W97321   7.747   8.046   0.601
30891W        W97322  34.347   2.725   2.796
30892W        W97323  21.116  33.492  13.605
30893W        W97324  43.644  21.663  11.019
30894W        W97325  33.828   7.646  11.165
30895W        W97326  29.379  36.600   0.074
30896W        W97327  30.976   2.485  13.020
30897W        W97328  25.550  16.200   1.793
30898W        W97329  41.954  15.617  12.896
30899W        W97330   2.314  14.890  11.126
30900W        W97331  13.726  41.223   0.085
30901W        W97332  33.878  44.701  12.854
30902W        W97333  18.469  19.722  11.439
30903W        W97334   4.506  33.196   1.657
30904W        W97335  38.335  12.546   4.843
30905W        W97336   3.027  15.472  12.883
30906W        W97337  35.413  34.142  12.763
30907W        W97338  30.032  14.304  14.275
30908W        W97339   4.816  31.631  13.265
30909W        W97340  15.554  14.093  12.952
30910W        W97341  27.081  21.599   2.667
30911W        W97342  34.390  39.547   2.212
30912W        W97343   2.428  21.213  10.424
30913W        W97344   4.382  41.992   0.534
30914W        W97345  36.000  37.131  12.613
30915W        W97346  19.256  35.489  10.740
30916W        W97347  27.003  15.258   4.576
30917W        W97348  32.980  24.725  12.615
30918W        W97349   2.063   7.348   1.815
30919W        W97350  33.993  13.660  14.255
30920W        W97351  43.800  44.082  10.250
30921W        W97352  17.150  17.885  12.776
30922W        W97353  14.878  32.392  14.646
30923W        W97354  10.661  13.129  14.886
30924W        W97355   6.178  13.357   0.904
30925W        W97356  10.888  12.855   3.088
30926W        W97357  17.391  41.923  12.036
30927W        W97358  33.503   2.699   3.207
30928W        W97359   9.648  34.016   3.105
30929W        W97360  28.067   2.316  11.285
30930W        W97361  19.248   4.364   2.943
30931W        W97362  43.063   9.222  11.632
30932W        W97363   7.360   7.979   1.554
30933W        W97364  25.157  25.219   4.854
30934W        W97365  43.770   9.113  13.316
30935W        W97366  11.265  24.407   4.776
30936W        W97367  18.882   8.194   0.380
30937W        W97368  26.284   5.628   4.950
30938W        W97369  27.401  21.989  14.361
30939W        W97370   5.484   0.110   2.855
30940W        W97371  23.068  29.197   1.858
30941W        W97372  27.908   1.677  12.486
30942W        W97373  11.978  26.899  12.021
30943W        W97374  18.019  11.787  11.080
30944W        W97375   3.321  23.439  14.950
30945W        W97376  16.161   1.432   1.636
30946W        W97377  27.712  35.878   1.249
30947W        W97378  30.993  27.806   1.069
30948W        W97379  24.462   2.942  12.794
30949W        W97380  36.823   0.884  14.365
30950W        W97381   2.880   2.183  11.987
30951W        W97382  41.033  30.563   1.907
30952W        W97383  40.620   6.780  14.841
30953W        W97384   8.915  26.656  13.554
30954W        W97385  42.476   3.354   2.821
30955W        W97386  37.550  39.132  11.655
30956W        W97387  14.754  31.939   4.577
30957W        W97388  23.584   1.356  10.776
30958W        W97389  27.556   1.493   0.440
30959W        W97390  35.442  39.659  12.314
30960W        W97391  12.132  24.598   5.619
30961W        W97392  14.787   1.985  13.471
30962W        W97393  21.710   6.623   1.289
30963W        W97394  19.244  16.582   2.971
30964W        W97395  30.056  39.401  14.641
30965W        W97396  16.899   1.241  14.246
30966W        W97397   4.836  42.027  10.923
30967W        W97398  24.957   1.837   1.247
30968W        W97399  37.775  18.028  11.082
30969W        W97400  42.037  24.485   3.183
30970W        W97401  44.991  15.027   1.960
30971W        W97402  21.277  13.175   4.621
30972W        W97403  10.216   5.194   1.807
30973W        W97404   4.330  31.579   3.753
30974W        W97405  18.753  40.811  13.466
30975W        W97406  37.121  20.874  12.210
30976W        W97407  38.821  42.428   0.723
30977W        W97408  25.074  43.432   3.284
30978W        W97409   5.310  10.979  13.427
30979W        W97410  40.021  33.486   4.089
30980W        W97411  33.280  29.943   4.100
30981W        W97412  44.699  38.972  11.321
30982W        W97413  35.511  32.147  13.033
30983W        W97414  14.833  28.479  14.732
30984W        W97415   0.027  17.621   2.770
30985W        W97416  39.803  13.178  12.884
30986W        W97417  35.685  10.229   1.906
30987W        W97418   8.026  44.430   4.729
30988W        W97419   8.783  44.285  10.410
30989W        W97420   5.481  14.795   2.228
30990W        W97421  35.524  17.031   1.706
30991W        W97422  36.004  30.134  12.892
30992W        W97423  15.365  34.501  10.490
30993W        W97424  30.681  20.684   2.694
30994W        W97425  11.827   4.993  12.450
30995W        W97426  24.783  15.524  14.836
30996W        W97427   9.378  35.763  11.183
30997W        W97428  39.046  12.897  13.925
30998W        W97429  27.092  38.829  13.756
30999W        W97430  26.102  28.157  14.821
31000W        W97431  40.729  12.725   2.851
31001W        W97432  19.360  25.806  10.835
31002W        W97433  17.680  11.217   0.430
31003W        W97434   0.501   7.992   4.422
31004W        W97435  37.896  21.986   1.502
31005W        W97436  27.721  21.074  13.997
31006W        W97437  24.726  11.147   1.438
31007W        W97438  28.559  22.191   4.611
31008W        W97439  24.574  11.774   1.433
31009W        W97440  13.260  17.377   0.051
31010W        W97441  31.754  33.012   1.420
31011W        W97442   6.689  29.483   1.870
31012W        W97443  28.022  16.086   0.740
31013W        W97444   9.884   3.948  10.656
31014W        W97445  34.552  11.585   1.595
31015W        W97446  21.775  18.133   1.023
31016W        W97447   7.231  27.653  12.854
31017W        W97448   9.073  24.660   4.345
31018W        W97449  22.926  25.945  13.040
31019W        W97450  43.712  37.526   2.897
31020W        W97451   9.593  15.896  11.523
31021W        W97452  11.644  40.473   4.966
31022W        W97453   5.132  26.411   0.424
31023W        W97454  29.071  24.113  10.788
31024W        W97455  35.601  10.755  14.949
31025W        W97456  38.339   6.189   3.166
31026W        W97457  21.335  35.982  12.527
31027W        W97458   4.034  38.431   3.792
31028W        W97459  41.899  10.867   0.416
31029W        W97460  12.177  36.657   2.924
31030W        W97461  37.750  44.382   3.852
31031W        W97462  37.545   4.594   4.292
31032W        W97463   8.938  13.655  13.402
31033W        W97464  23.131  25.479  13.033
31034W        W97465  16.207  42.782  10.557
31035W        W97466  14.316  33.669   4.232
31036W        W97467  17.569  32.861  14.467
31037W        W97468  40.351  44.348  14.576
31038W        W97469  20.725  25.664  13.757
31039W        W97470  14.626  13.148  14.741
31040W        W97471  33.092  31.027  13.925
31041W        W97472  22.263  23.973  14.880
31042W        W97473  28.150   7.692  14.544
31043W        W97474  22.165  14.594  11.475
31044W        W97475  14.019  23.442  12.569
31045W        W97476  27.238  33.435  13.694
31046W        W97477  21.754   3.661  14.372
31047W        W97478  27.089  13.465   3.219
31048W        W97479  25.763  36.076  13.004
31049W        W97480   3.438  33.298  12.850
31050W        W97481   8.840  39.656  11.157
31051W        W97482  44.421   9.076   4.275
31052W        W97483  15.813   6.697   5.199
31053W        W97484   3.475  18.400   1.624
31054W        W97485  30.980  17.151  13.413
31055W        W97486  32.466   9.704  10.757
31056W        W97487  11.248   8.231  11.347
31057W        W97488  36.599  26.205  10.342
31058W        W97489   3.818  42.567  12.952
31059W        W97490  27.039   2.987  11.546
31060W        W97491  27.106  43.858  10.336
31061W        W97492  22.954   1.047   4.629
31062W        W97493  30.947  16.698   2.222
31063W        W97494   1.960   5.726  14.252
31064W        W97495  13.885  30.478  12.729
31065W        W97496  10.302  20.385  12.563
31066W        W97497  26.207  29.722  13.576
31067W        W97498  29.189   3.946  12.025
31068W        W97499  27.254  19.015  11.600
31069W        W97500   9.110  10.357   3.744
31070W        W97501  30.544   5.002   5.159
31071W        W97502  15.836  26.003  14.398
31072W        W97503  33.443  42.689  10.063
31073W        W97504  34.942  22.606   2.842
31074W        W97505  25.410   7.683  12.023
31075W        W97506  23.590  21.083  12.020
31076W        W97507   3.463  43.899  12.909
31077W        W97508  39.453  37.068  12.923
31078W        W97509   8.459  10.970   0.265
31079W        W97510  28.623  32.445  13.905
31080W        W97511  36.197  16.897   3.260
31081W        W97512   5.259  33.180  13.036
31082W        W97513   9.752   7.230  14.445
31083W        W97514  35.015  10.794   0.799
31084W        W97515  31.385  21.623  11.279
31085W        W97516  22.190  18.025   3.573
31086W        W97517  13.797  42.001   4.504
31087W        W97518  30.951  13.854   4.541
31088W        W97519  14.126  35.572   4.536
31089W        W97520  42.338  30.994   1.747
31090W        W97521  28.692  42.478   4.094
31091W        W97522  37.780  37.846  11.228
31092W        W97523  34.677  36.964  12.163
31093W        W97524   9.207  27.528  11.858
31094W        W97525  17.359  15.880  14.497
31095W        W97526   0.518  42.977  10.296
31096W        W97527   7.329   6.457  12.883
31097W        W97528  42.013  32.648  10.407
31098W        W97529   1.943   4.142  14.629
31099W        W97530  30.659   1.767   2.168
31100W        W97531  26.942  27.961   2.855
31101W        W97532  34.901  31.921   2.710
31102W        W97533  17.122   4.252  14.479
31103W        W97534  37.857   6.683   4.563
31104W        W97535  10.094  30.557   2.751
31105W        W97536  13.177  20.684  14.433
31106W        W97537  41.080  13.327  13.506
31107W        W97538  27.633  22.175   3.043
31108W        W97539  26.873  42.737   5.142
31109W        W97540  42.288  43.506   3.727
31110W        W97541  21.824  42.921  12.377
31111W        W97542  44.502   8.230   0.374
31112W        W97543  35.518   8.154   1.398
31113W        W97544  33.787  37.763   2.714
31114W        W97545  28.469  29.582   3.888
31115W        W97546  29.377  43.815   1.945
31116W        W97547   9.315  38.540   2.738
31117W        W97548  23.282  31.954   3.114
31118W        W97549  20.832  22.253   4.622
31119W        W97550  34.917  16.873  13.461
31120W        W97551   3.543  20.558   0.270
31121W        W97552   7.252  34.498   0.421
31122W        W97553   5.761  44.085   2.352
31123W        W97554  12.819  10.397   1.297
31124W        W97555  42.363  33.354   1.825
31125W        W97556  38.363  18.588   4.457
31126W        W97557  23.015  40.602  12.798
31127W        W97558  12.283   3.306  14.526
31128W        W97559   5.987  25.526  10.625
31129W        W97560   6.014  14.507  13.809
31130W        W97561  38.468  27.025  13.409
31131W        W97562  44.023  13.875   1.799
31132W        W97563   1.934  14.855   1.399
31133W        W97564   7.370  16.694  13.306
31134W        W97565  11.372  32.428   4.629
31135W        W97566  43.521  29.526   1.630
31136W        W97567  34.457  41.525  11.490
31137W        W97568   8.936  41.510   2.641
31138W        W97569   8.798  38.279   3.781
31139W        W97570  15.690  20.291   1.290
31140W        W97571   6.304   4.553  13.309
31141W        W97572  39.323  40.536   2.608
31142W        W97573  19.808  18.723   0.454
31143W        W97574  35.968   0.014   4.800
31144W        W97575  23.163  38.941   2.083
31145W        W97576  26.759  39.247   2.798
31146W        W97577  38.739   7.187   1.121
31147W        W97578  13.216  14.765   0.409
31148W        W97579  15.495  17.416   9.839
31149W        W97580  38.768  42.812   2.854
31150W        W97581  23.563  32.155  12.052
31151W        W97582   3.453   4.458  11.114
31152W        W97583  38.404  13.142  12.533
31153W        W97584  20.599  44.772  11.667
31154W        W97585  31.261  26.124  13.316
31155W        W97586  32.663  25.685   4.209
31156W        W97587  29.301  10.211  14.531
31157W        W97588  15.337  34.472   3.117
31158W        W97589  28.330  23.051  12.018
31159W        W97590  18.552  14.921   2.592
31160W        W97591   5.295  26.199  10.963
31161W        W97592  34.857  26.498   2.111
31162W        W97593  16.508  28.708  10.836
31163W        W97594   9.199  27.300   2.786
31164W        W97595  44.873   8.937  12.049
31165W        W97596  17.320   2.382   0.042
31166W        W97597  23.261  21.682  11.975
31167W        W97598  20.208  32.328  14.010
31168W        W97599  12.111  13.173   1.786
31169W        W97600   8.865  26.987  10.498
31170W        W97601  34.086  26.756  11.231
31171W        W97602  28.085  19.131   2.450
31172W        W97603  26.041  42.365   2.322
31173W        W97604  21.448  22.609  14.921
31174W        W97605  18.850  22.723   2.313
31175W        W97606  25.596  34.323   3.691
31176W        W97607  12.648   3.483  11.941
31177W        W97608  35.880  23.970  13.956
31178W        W97609  30.956  28.468   4.238
31179W        W97610  22.706   1.565   1.709
31180W        W97611  37.755   8.077  11.991
31181W        W97612   5.685  44.140  12.026
31182W        W97613  41.770  36.065   4.440
31183W        W97614  17.649  15.205   4.114
31184W        W97615  35.342  12.766   1.339
31185W        W97616   3.458  25.884   3.199
31186W        W97617   2.056   8.246   4.710
31187W        W97618  15.234  39.305  10.553
31188W        W97619  35.323  35.654  11.179
31189W        W97620   9.722  15.195   4.229
31190W        W97621   6.934  31.495  11.758
31191W        W97622  25.034   7.202  14.307
31192W        W97623  40.952  37.097  14.795
31193W        W97624   7.375  42.287   1.322
31194W        W97625  30.583  18.160   4.229
31195W        W97626   4.737  30.899   3.045
31196W        W97627  39.616  27.049   2.376
31197W        W97628   4.511  39.968   0.724
31198W        W97629   8.950   8.219   2.484
31199W        W97630  33.004  16.346  14.491
31200W        W97631  23.987  23.938   2.160
31201W        W97632   7.660  21.310   2.829
31202W        W97633  44.309   1.367   2.375
31203W        W97634  27.630  19.034  12.851
31204W        W97635  35.137  17.817  11.601
31205W        W97636  13.843   1.966  10.348
31206W        W97637  26.572  16.758   1.469
31207W        W97638  24.444   3.803  13.095
31208W        W97639  22.962  36.396  12.931
31209W        W97640  31.573   8.197   3.359
31210W        W97641  37.068   6.980   3.268
31211W        W97642  12.691  13.920   0.591
31212W        W97643  31.153  18.231   1.572
31213W        W97644  27.490  27.656   0.860
31214W        W97645  15.576  27.573   1.730
31215W        W97646  31.216   1.478  11.646
31216W        W97647  22.130  34.955   4.642
31217W        W97648   8.408  31.098  11.595
31218W        W97649  30.621  17.823  12.363
31219W        W97650  27.062  22.434   4.251
31220W        W97651   9.328  33.854  11.499
31221W        W97652  30.123  28.574  14.873
31222W        W97653  39.261  44.960  12.961
31223W        W97654   3.289  17.624  14.541
31224W        W97655  18.330  44.737  11.218
31225W        W97656   2.312   1.435   4.757
31226W        W97657  32.982  32.774  12.460
31227W        W97658  19.314  12.131   4.152
31228W        W97659  17.288  20.993   2.336
31229W        W97660  34.217  29.135  10.280
31230W        W97661  22.002  18.477  11.636
31231W        W97662   5.680  19.608  13.145
31232W        W97663   1.883   5.251   4.608
31233W        W97664  22.581  17.980  14.927
31234W        W97665  32.073   8.830  10.601
31235W        W97666  31.451  26.876   4.926
31236W        W97667  13.712  17.620   4.206
31237W        W97668  30.174  19.535   3.265
31238W        W97669  17.687  18.823  13.453
31239W        W97670  28.526   2.404   4.074
31240W        W97671  12.582  36.905  10.618
31241W        W97672  26.991  40.895  12.074
31242W        W97673  23.545  15.711   2.189
31243W        W97674  15.764  32.949   3.412
31244W        W97675  21.442   4.474   1.871
31245W        W97676  31.483  28.029  14.804
31246W        W97677  41.257  34.547  10.676
31247W        W97678  15.010  13.788   2.475
31248W        W97679  27.069  31.639  12.175
31249W        W97680  20.614  29.408  14.844
31250W        W97681  44.717   0.864   4.646
31251W        W97682  15.115  20.668  13.248
31252W        W97683   8.661  22.104  10.903
31253W        W97684  14.788  27.023  12.854
31254W        W97685  18.047   8.377  13.231
31255W        W97686   9.577  12.733  11.003
31256W        W97687   6.999   8.771   2.599
31257W        W97688  33.918  43.935   4.635
31258W        W97689  14.585  26.264  12.441
31259W        W97690  36.383  17.080   3.698
31260W        W97691  30.604  23.481   1.930
31261W        W97692  16.771  15.519   4.548
31262W        W97693   5.650  42.761  10.609
31263W        W97694  23.546  44.436   2.897
31264W        W97695  27.135  36.091   0.854
31265W        W97696  36.474  34.557  11.627
31266W        W97697  13.157   5.858  13.810
31267W        W97698   0.857   2.295  11.714
31268W        W97699  29.175   4.712  11.736
31269W        W97700   1.012  12.066   0.205
31270W        W97701  11.309  25.653   4.754
31271W        W97702   7.391  12.859  13.794
31272W        W97703  42.078  31.596  14.027
31273W        W97704  12.575  12.194   0.829
31274W        W97705  34.606  14.553   1.169
31275W        W97706   0.054  27.946  10.749
31276W        W97707  24.381   4.321  11.218
31277W        W97708  14.825   1.636   2.585
31278W        W97709  12.606  35.062  13.368
31279W        W97710  43.182  26.995   0.156
31280W        W97711   4.920  21.855   3.211
31281W        W97712  13.180  32.980   1.416
31282W        W97713  23.073  39.961   1.272
31283W        W97714   1.262  27.421   0.375
31284W        W97715  28.099  21.230   3.352
31285W        W97716  12.256  12.247  14.538
31286W        W97717  19.525  37.872  14.031
31287W        W97718  36.113  43.085  11.500
31288W        W97719  42.467   0.350  10.215
31289W        W97720  41.378   2.516   3.425
31290W        W97721  42.049  12.644  10.205
31291W        W97722   1.776  23.622   1.126
31292W        W97723  20.748  16.770   0.310
31293W        W97724  28.022   9.143  11.938
31294W        W97725  25.232  35.177  10.438
31295W        W97726  33.376  24.121  14.366
31296W        W97727  24.606  14.556   2.211
31297W        W97728  23.186  10.673   1.757
31298W        W97729  22.304  32.640  11.663
31299W        W97730  13.066   4.963  10.735
31300W        W97731  11.811   0.969  13.917
31301W        W97732   8.636  15.553  13.074
31302W        W97733  28.643  42.994  12.002
31303W        W97734   7.935   5.323   1.275
31304W        W97735  17.622  14.626   0.462
31305W        W97736  24.037   6.452   1.195
31306W        W97737  12.693  15.414   2.592
31307W        W97738  25.768  35.915  10.821
31308W        W97739  10.985  36.547  14.335
31309W        W97740  28.547  38.090   3.687
31310W        W97741  39.637   7.169  12.532
31311W        W97742   5.756   4.851  10.968
31312W        W97743  38.300   5.057  11.178
31313W        W97744   0.522  33.153  14.896
31314W        W97745  27.703   7.695   3.210
31315W        W97746  21.920  30.207   0.852
31316W        W97747   6.405   6.375  12.079
31317W        W97748   1.754  28.017  12.382
31318W        W97749   4.145  14.694   4.994
31319W        W97750  32.154  31.256  13.342
31320W        W97751  31.371  16.632   2.526
31321W        W97752   3.762   3.438  12.963
31322W        W97753  25.021  25.620  10.743
31323W        W97754  22.762  29.001   0.879
31324W        W97755  12.441  14.706   2.217
31325W        W97756  18.866  25.748  10.655
31326W        W97757  37.849  18.869  12.749
31327W        W97758  10.720  18.273   4.676
31328W        W97759  20.248   4.143   2.842
31329W        W97760  34.375  31.576  13.327
31330W        W97761   6.843  42.344  13.785
31331W        W97762  13.848  31.839  13.997
31332W        W97763  39.910  22.456   2.913
31333W        W97764   0.771  26.810   4.147
31334W        W97765   6.018  13.700  10.324
31335W        W97766   2.270  43.359  13.554
31336W        W97767  23.905  17.154   2.462
31337W        W97768  12.706  37.924   2.737
31338W        W97769  31.487  17.790  14.862
31339W        W97770  21.061  12.004   1.320
31340W        W97771   4.618  32.468   2.319
31341W        W97772  13.035  10.641   0.883
31342W        W97773  35.943  15.212   4.753
31343W        W97774  12.359  21.112  10.863
31344W        W97775   3.326  34.867   0.526
31345W        W97776  37.635  20.607   5.093
31346W        W97777  20.715   3.921  13.133
31347W        W97778  38.675  14.606  12.149
31348W        W97779   1.834   8.434  13.017
31349W        W97780  23.645  41.411   2.479
31350W        W97781  36.995   1.993   3.392
31351W        W97782  16.192  22.526   1.629
31352W        W97783  26.682  13.555   4.514
31353W        W97784  31.627  11.286   4.960
31354W        W97785  25.844   5.891  13.502
31355W        W97786  32.934   4.908  13.333
31356W        W97787  12.562  40.562   0.455
31357W        W97788  43.560  18.606   3.647
31358W        W97789  30.964  33.128   1.766
31359W        W97790  35.262  26.069   0.871
31360W        W97791  30.450   3.900  13.401
31361W        W97792  29.444  20.828   4.496
31362W        W97793  25.298  37.578  12.504
31363W        W97794  39.125   5.350   4.862
31364W        W97795  39.904  40.128  12.973
31365W        W97796   8.846  17.027  11.470
31366W        W97797  28.794  37.955   4.138
31367W        W97798   3.914   0.884  11.190
31368W        W97799  15.393  22.117   1.843
31369W        W97800   5.716   9.510   1.727
31370W        W97801  21.872  24.109   4.714
31371W        W97802   9.812  11.503  12.091
31372W        W97803  34.390   7.041  11.620
31373W        W97804  31.859   4.387   1.259
31374W        W97805  41.194  11.790   0.320
31375W        W97806  20.702   0.620  12.063
31376W        W97807  28.677   8.374  13.864
31377W        W97808   5.601  31.520  11.056
31378W        W97809  22.950  31.285  12.580
31379W        W97810  34.435  40.077   2.385
31380W        W97811  28.124  28.726   0.395
31381W        W97812  16.320  26.255  14.306
31382W        W97813  11.852  34.695   4.400
31383W        W97814  15.330  21.462  12.462
31384W        W97815  35.793  32.692   3.240
31385W        W97816  41.305  38.651  13.430
31386W        W97817  31.525  27.810  12.649
31387W        W97818   6.804   6.351   0.398
31388W        W97819  32.090  20.685  12.142
31389W        W97820  13.197   2.129   1.620
31390W        W97821  24.124  34.339  13.807
31391W        W97822  16.270  11.327   2.234
31392W        W97823  31.374  18.876  14.220
31393W        W97824  19.445  27.658  13.734
31394W        W97825  33.248  25.820   0.913
31395W        W97826  30.663   9.936   0.994
31396W        W97827  44.809   8.395  10.779
31397W        W97828  37.915  10.036   4.863
31398W        W97829  19.445  15.296   2.240
31399W        W97830  41.551  28.461  14.559
31400W        W97831  29.407   4.883   0.305
31401W        W97832  12.928   0.840  12.336
31402W        W97833   3.059  42.875  13.826
31403W        W97834  14.462  17.728  12.667
31404W        W97835  26.977  15.869  14.474
31405W        W97836  38.917   2.416  13.582
31406W        W97837   1.016  28.000  14.350
31407W        W97838  10.616  30.506  11.798
31408W        W97839   9.298  19.595   9.929
31409W        W97840  40.524  25.057   4.632
31410W        W97841  31.382  14.856  13.616
31411W        W97842  40.721  35.938  12.795
31412W        W97843  27.580   2.327  14.929
31413W        W97844  34.993  43.879  14.815
31414W        W97845  17.293   1.957   3.882
31415W        W97846   6.178  41.853   0.897
31416W        W97847  18.053   7.374  13.071
31417W        W97848   6.429  17.011  14.092
31418W        W97849  36.344  26.552   2.217
31419W        W97850  43.460   8.494   2.017
31420W        W97851  27.512  13.059  14.962
31421W        W97852  16.490  23.207  14.270
31422W        W97853   0.945   3.313   4.586
31423W        W97854   8.825  38.916  11.985
31424W        W97855  17.850  11.798   0.399
31425W        W97856  18.776  29.447   4.609
31426W        W97857  21.362   5.402   5.141
31427W        W97858   7.786  44.201  10.736
31428W        W97859   3.906   3.278   2.769
31429W        W97860  14.727  14.974   0.182
31430W        W97861  32.650   6.981   5.691
31431W        W97862  20.043  14.852  11.691
31432W        W97863  35.841  21.117   4.653
31433W        W97864   3.503  24.878  12.989
31434W        W97865  32.876  19.582  14.946
31435W        W97866  38.291  13.605   1.964
31436W        W97867  23.504   9.025   2.105
31437W        W97868  27.165  38.963  11.502
31438W        W97869  42.285  27.594  12.057
31439W        W97870  27.501  33.808  10.844
31440W        W97871   1.479  39.128  11.501
31441W        W97872   1.803  32.655   3.190
31442W        W97873   5.911  21.158   2.143
31443W        W97874  10.826   6.740   0.332
31444W        W97875   4.924  20.770  13.329
31445W        W97876  14.538  29.578  11.174
31446W        W97877  11.439  30.982   3.271
31447W        W97878  31.483  15.225  11.897
31448W        W97879  27.124  41.443   1.209
31449W        W97880  14.819  18.067  11.588
31450W        W97881  30.467  16.291  14.607
31451W        W97882  11.940  34.623   2.667
31452W        W97883  32.411  18.236  14.931
31453W        W97884   5.235   6.614   2.737
31454W        W97885   7.839  23.928   0.393
31455W        W97886  33.315  36.869   2.793
31456W        W97887   8.415  30.504  12.988
31457W        W97888   3.727   9.853   3.988
31458W        W97889  24.740   5.178   3.448
31459W        W97890  37.742   2.119   2.175
31460W        W97891  24.216  37.379  11.656
31461W        W97892  32.406  40.959   4.101
31462W        W97893  23.082   9.625  13.310
31463W        W97894  13.922  35.514  12.246
31464W        W97895  27.817  12.844   0.355
31465W        W97896  17.115  40.647  10.812
31466W        W97897  11.838  16.889  11.915
31467W        W97898  37.331  22.766  11.480
31468W        W97899  37.419   5.717   2.664
31469W        W97900  17.930  43.585  10.684
31470W        W97901   1.576  22.095   4.504
31471W        W97902  25.219  22.455  13.828
31472W        W97903   0.193  31.604   3.429
31473W        W97904  23.897  30.669  11.132
31474W        W97905  27.747   9.666   0.861
31475W        W97906   4.238   3.933  13.404
31476W        W97907  37.480  27.467  10.170
31477W        W97908  34.729  12.659  12.971
31478W        W97909  43.965  39.718   2.964
31479W        W97910   6.256  32.426   3.098
31480W        W97911  33.330  11.290   0.285
31481W        W97912  14.763   4.720  13.601
31482W        W97913   0.523  18.619   1.369
31483W        W97914   3.301  16.025  14.878
31484W        W97915  18.271  44.279  11.008
31485W        W97916   3.466  25.959  14.353
31486W        W97917   3.736  41.908   2.297
31487W        W97918   6.770  44.797  10.639
31488W        W97919  28.878   5.384  11.946
31489W        W97920  20.785  24.430   2.816
31490W        W97921  32.929   6.006  11.018
31491W        W97922  31.002   1.734   3.363
31492W        W97923  34.536  43.319  14.954
31493W        W97924  14.166  25.235  12.464
31494W        W97925  33.959  28.648   1.663
31495W        W97926   9.451  26.430  11.191
31496W        W97927   8.795  20.005   3.701
31497W        W97928  12.886  38.521   3.441
31498W        W97929  33.998  32.725   1.331
31499W        W97930  43.596  24.983   2.944
31500W        W97931  20.752  25.262  10.724
31501W        W97932   8.202  29.098  10.661
31502W        W97933   5.371  15.338  11.491
31503W        W97934  40.331  11.409   1.403
31504W        W97935  31.402  22.598  12.038
31505W        W97936  25.645   4.387   4.080
31506W        W97937  33.888  25.845  11.404
31507W        W97938  12.717  18.150   4.826
31508W        W97939  17.112  19.838  10.601
31509W        W97940  32.648   6.245  13.402
31510W        W97941  12.625   1.730  12.098
31511W        W97942  13.075  15.807  11.559
31512W        W97943  21.978  36.366  12.075
31513W        W97944  34.828  26.240  13.425
31514W        W97945  24.910  32.220  10.724
31515W        W97946  14.242  19.618  13.300
31516W        W97947  37.324  39.600  13.081
31517W        W97948  25.433  30.756   1.782
31518W        W97949   5.894  29.652   2.220
31519W        W97950  18.620   6.304   5.033
31520W        W97951  28.635  42.482  12.008
31521W        W97952  25.199  31.969   2.135
31522W        W97953  15.322  25.408   3.116
31523W        W97954  19.159  43.993  11.928
31524W        W97955  32.463   1.547   2.413
31525W        W97956  26.381  17.432  11.501
31526W        W97957   4.749  27.633  14.108
31527W        W97958  31.578  23.155  12.482
31528W        W97959  35.653  24.208   0.888
31529W        W97960  34.048  10.197  12.972
31530W        W97961  42.332  15.848  10.635
31531W        W97962   5.982  42.050   3.488
31532W        W97963  39.879  17.806  14.957
31533W        W97964  35.009  23.163   4.934
31534W        W97965  13.680   8.198  12.868
31535W        W97966  31.549  13.278  14.413
31536W        W97967  38.762  40.605   3.531
31537W        W97968  40.094  33.912   3.786
31538W        W97969   9.699  25.415   4.058
31539W        W97970   9.612  31.350  11.112
31540W        W97971  41.278  24.533  13.043
31541W        W97972   3.189  11.458   4.971
31542W        W97973   6.729  37.753  13.970
31543W        W97974  37.702   9.404  11.930
31544W        W97975  15.357  40.503   0.020
31545W        W97976   8.616   1.248   2.239
31546W        W97977  14.861  29.507  11.602
31547W        W97978   9.279   2.278   0.201
31548W        W97979  11.214  43.239   2.902
31549W        W97980   5.774   2.866  10.623
31550W        W97981   4.193  14.144  10.293
31551W        W97982  40.796  28.738  12.185
31552W        W97983  40.524  39.858   3.280
31553W        W97984  33.933  39.935   0.053
31554W        W97985  21.968  41.819   4.168
31555W        W97986   1.750  44.691  13.168
31556W        W97987   9.866  30.078  11.307
31557W        W97988  41.854  20.435  11.159
31558W        W97989  34.244  34.518  11.613
31559W        W97990  19.650   0.353  14.104
31560W        W97991  23.210  38.151  10.768
31561W        W97992  44.820   1.137  14.846
31562W        W97993  12.320   2.660   3.720
31563W        W97994  31.508  36.315   0.321
31564W        W97995  15.425  36.085  11.131
31565W        W97996  24.973  39.456   2.390
31566W        W97997  27.109  29.171   3.755
31567W        W97998  22.738  31.070   1.758
31568W        W97999  25.133  10.564   1.270
31569W        W98000   7.736   4.499  13.204
31570W        W98001  25.153  34.389   0.291
31571W        W98002  32.929  43.339  14.084
31572W        W98003  29.559  40.883  13.139
31573W        W98004   8.357  21.832   0.851
31574W        W98005  19.710   7.858  14.607
31575W        W98006  29.996  35.843   1.763
31576W        W98007  13.072   2.357   3.133
31577W        W98008   4.253  11.065  14.414
31578W        W98009  31.415   9.657   4.096
31579W        W98010  39.186  30.657   1.858
31580W        W98011   3.063  16.236  10.620
31581W        W98012  43.246  31.848  12.637
31582W        W98013  21.047  21.732   3.721
31583W        W98014  31.910  25.529   1.425
31584W        W98015   0.258  25.682  10.893
31585W        W98016  15.543  23.790   0.825
31586W        W98017  33.009  30.722  12.569
31587W        W98018  26.749  43.208  11.992
31588W        W98019  42.328  12.859   4.646
31589W        W98020  24.387  16.269  13.589
31590W        W98021  43.743  33.067  11.218
31591W        W98022   1.662   1.886  13.199
31592W        W98023   8.714  20.763   4.160
31593W        W98024  25.028  26.575   3.141
31594W        W98025  43.878  32.880   0.694
31595W        W98026   3.664  11.845  12.034
31596W        W98027  32.479  44.543  11.738
31597W        W98028  42.881  11.543  13.820
31598W        W98029   1.482  29.564   0.223
31599W        W98030  14.672   0.232  12.400
31600W        W98031   4.884  44.951  10.565
31601W        W98032  43.612   4.194  14.414
31602W        W98033  28.540  25.459  12.708
31603W        W98034  22.529   1.291  14.561
31604W        W98035  26.050  25.396   0.237
31605W        W98036   7.358  13.058   3.647
31606W        W98037  41.238  41.521   4.157
31607W        W98038  17.781  35.883  14.296
31608W        W98039  19.497   8.135   1.176
31609W        W98040  44.269  17.058   4.776
31610W        W98041  24.066  21.072  14.302
31611W        W98042   3.652  26.121   3.620
31612W        W98043   2.202  43.461   0.014
31613W        W98044  33.018   6.661   0.693
31614W        W98045  25.958   1.779   3.418
31615W        W98046  25.422  32.522   3.849
31616W        W98047  40.794  42.286   3.353
31617W        W98048   8.371  19.032  12.426
31618W        W98049  30.081  35.183  12.069
31619W        W98050   1.461   8.322   2.532
31620W        W98051  22.180  12.919   3.699
31621W        W98052  18.945  34.144  13.513
31622W        W98053  37.577  20.669  12.124
31623W        W98054   4.524  19.540   2.319
31624W        W98055   5.325  17.833   4.911
31625W        W98056  29.197  15.046  12.889
31626W        W98057  19.203  39.642   5.044
31627W        W98058  27.224  11.375  12.066
31628W        W98059  21.724   8.854   2.641
31629W        W98060  39.616  25.126  11.983
31630W        W98061   0.747  31.650  10.780
31631W        W98062  24.344  18.087  13.512
31632W        W98063  40.979   2.555  12.496
31633W        W98064  12.206  29.128  13.563
31634W        W98065  16.619   8.861  10.511
31635W        W98066   0.521  25.172  14.596
31636W        W98067   4.390  21.211   4.484
31637W        W98068  35.318  39.412   0.223
31638W        W98069  11.329  17.724   0.752
31639W        W98070  16.159  43.818   0.390
31640W        W98071  23.670  16.263  10.144
31641W        W98072  10.371  28.592   0.855
31642W        W98073   1.810  36.079   4.764
31643W        W98074  32.541  40.288   3.122
31644W        W98075  41.581  34.467  11.065
31645W        W98076  22.741  23.253  14.888
31646W        W98077  12.885  24.596   1.875
31647W        W98078  35.963   9.124   3.561
31648W        W98079  13.564  19.515  13.930
31649W        W98080   4.740  11.658   2.415
31650W        W98081  33.969   6.219   3.681
31651W        W98082   3.766  21.494   0.014
31652W        W98083  26.983   9.768   3.131
31653W        W98084  15.745   6.897   4.711
31654W        W98085  32.982   1.732   4.064
31655W        W98086  13.063  10.756   3.296
31656W        W98087   2.189  33.452   1.403
31657W        W98088  22.288  26.283  14.309
31658W        W98089  41.877  40.050   3.754
31659W        W98090  11.811  25.465  10.383
31660W        W98091  31.649  31.085  12.310
31661W        W98092  29.436  17.260   4.554
31662W        W98093   8.081   5.465  12.053
31663W        W98094  32.154   5.371  11.579
31664W        W98095  14.402   2.612  14.450
31665W        W98096  10.147   4.666   1.792
31666W        W98097  22.254  10.332  12.130
31667W        W98098   7.167  37.118   4.998
31668W        W98099  36.377  22.446  12.228
31669W        W98100  43.148  36.400  11.660
31670W        W98101   8.774  19.343   0.412
31671W        W98102  29.224  32.975   3.353
31672W        W98103  16.654   5.213  13.358
31673W        W98104   5.233   2.291   2.269
31674W        W98105   9.963  27.671   2.269
31675W        W98106  11.394  26.322   4.169
31676W        W98107  12.487  18.150   2.868
31677W        W98108  10.597  43.588  14.377
31678W        W98109  36.814  37.553   9.669
31679W        W98110  22.650  27.901  10.984
31680W        W98111  30.890  37.598   3.100
31681W        W98112  43.162  27.116  14.205
31682W        W98113  34.802   2.982   2.903
31683W        W98114   9.691  12.737  12.908
31684W        W98115  31.377  43.308  13.946
31685W        W98116  22.493   3.645   4.674
31686W        W98117  29.857  13.597  14.784
31687W        W98118  30.962  12.990  11.155
31688W        W98119  33.606   7.441   2.602
31689W        W98120  42.322   1.466  13.926
31690W        W98121   8.233   4.660  13.939
31691W        W98122  21.690  39.320  11.228
31692W        W98123  16.652   9.385  11.792
31693W        W98124  34.334   7.936   4.336
31694W        W98125   3.425   2.351   0.009
31695W        W98126  29.126  15.303   4.270
31696W        W98127  12.863   7.146   1.797
31697W        W98128  41.431  18.574  13.425
31698W        W98129  43.820  40.051   3.559
31699W        W98130  40.650   3.369   3.113
31700W        W98131  11.249  22.479   3.670
31701W        W98132  18.134  27.043  14.910
31702W        W98133  26.096   6.225   2.897
31703W        W98134  44.541  25.262   3.599
31704W        W98135  24.808  12.791  10.705
31705W        W98136   2.731   0.474   3.839
31706W        W98137  30.637   4.813   1.114
31707W        W98138  19.485  18.799   0.853
31708W        W98139  36.548  21.980  14.869
31709W        W98140  10.775  40.504   4.580
31710W        W98141  22.231  10.378   5.192
31711W        W98142  33.618  38.055   3.183
31712W        W98143  38.079  31.877   3.334
31713W        W98144  32.710  37.905  14.795
31714W        W98145  39.401  23.991   1.413
31715W        W98146  39.368   3.196  10.560
31716W        W98147  33.069  41.605   3.727
31717W        W98148  11.460   6.078   5.204
31718W        W98149  37.578   0.739   3.388
31719W        W98150  44.343  30.037   2.921
31720W        W98151  34.164  34.394   3.241
31721W        W98152  29.876   4.370   2.227
31722W        W98153   4.443  32.924   3.283
31723W        W98154  25.067   9.586   0.969
31724W        W98155  31.236  11.634   0.390
31725W        W98156   4.247  40.584   3.634
31726W        W98157  44.234  41.478  11.109
31727W        W98158   8.417  29.235   3.621
31728W        W98159  11.633  23.506   3.125
31729W        W98160  43.330   0.327   3.889
31730W        W98161  10.037  42.579   4.137
31731W        W98162  37.324  16.047  14.978
31732W        W98163  38.679   4.927  14.826
31733W        W98164   8.244  35.942  13.272
31734W        W98165  10.813  27.955  11.582
31735W        W98166  19.237  13.164   5.048
31736W        W98167   3.414  18.898  12.036
31737W        W98168   5.712  22.724  11.660
31738W        W98169   5.662   7.504   2.596
31739W        W98170   1.268  40.950  11.191
31740W        W98171  21.212  10.813  12.777
31741W        W98172  30.802  44.063   1.276
31742W        W98173  36.429   8.252  11.897
31743W        W98174  19.727  31.135  12.071
31744W        W98175  13.162  29.481   2.346
31745W        W98176  40.959  13.372   4.634
31746W        W98177   9.288   4.724   1.759
31747W        W98178  29.952   4.939  11.168
31748W        W98179   9.749  24.192  11.001
31749W        W98180  26.230  33.454   0.156
31750W        W98181   5.926   2.372   3.418
31751W        W98182  34.824   1.051   2.953
31752W        W98183  32.489  10.144   1.624
31753W        W98184  26.589  34.940  12.969
31754W        W98185  23.162  15.865  10.742
31755W        W98186  38.532  28.565   4.532
31756W        W98187  42.826  38.446  12.412
31757W        W98188   9.621  41.875  14.336
31758W        W98189  13.598  23.481  13.316
31759W        W98190  32.216  33.299  14.002
31760W        W98191  43.344   8.454  12.038
31761W        W98192  22.217  13.119  11.170
31762W        W98193  34.615  20.938  12.834
31763W        W98194  44.083  18.039  10.648
31764W        W98195  35.661  42.603   2.269
31765W        W98196  44.857  38.101   4.166
31766W        W98197  29.445  15.091   0.443
31767W        W98198  10.786  23.806   1.912
31768W        W98199   0.374  12.413   2.120
31769W        W98200   2.638   3.418  11.439
31770W        W98201  17.348  43.439  13.514
31771W        W98202  37.587  44.373   1.181
31772W        W98203  27.947   1.989  11.638
31773W        W98204  18.874   0.945   1.782
31774W        W98205  21.541   6.841   2.643
31775W        W98206  30.627   8.696  12.077
31776W        W98207  32.641   5.264   0.397
31777W        W98208  25.211  16.255   0.902
31778W        W98209  20.424   0.881   4.361
31779W        W98210  10.042  39.533  10.762
31780W        W98211  18.505  41.435   4.079
31781W        W98212   4.337  37.711   1.462
31782W        W98213   7.766   6.077   4.674
31783W        W98214  35.848  40.032  11.219
31784W        W98215  24.207  15.849  11.014
31785W        W98216  23.069  28.959   1.375
31786W        W98217  31.203  14.827   4.551
31787W        W98218  19.020  21.232   0.311
31788W        W98219   2.565   4.350  12.288
31789W        W98220  18.058  13.719   1.220
31790W        W98221  44.101   6.933   2.878
31791W        W98222  43.503   2.413   2.659
31792W        W98223  37.054   8.508   3.294
31793W        W98224  36.420  22.561   0.355
31794W        W98225  22.758   0.291  13.920
31795W        W98226  38.487  14.425   1.689
31796W        W98227  28.074  34.793   1.405
31797W        W98228  22.005  38.001  14.982
31798W        W98229   0.400  15.749   4.794
31799W        W98230  24.527   2.879   4.095
31800W        W98231   0.841   6.348  12.152
31801W        W98232   7.041  41.037  11.154
31802W        W98233   4.782  13.235  10.158
31803W        W98234  37.327  39.237   3.116
31804W        W98235  13.708  34.850   1.829
31805W        W98236  23.162  27.154   2.045
31806W        W98237   8.690  44.028   1.774
31807W        W98238  22.176  17.880   2.612
31808W        W98239  43.284  20.602   3.233
31809W        W98240  36.420   0.520  11.648
31810W        W98241   0.930  42.276  13.852
31811W        W98242  38.958  41.009   4.147
31812W        W98243  13.138  25.567   4.156
31813W        W98244   0.673  33.953   0.187
31814W        W98245  23.572  14.811   2.884
31815W        W98246  39.846  28.917   4.164
31816W        W98247  37.614   6.072   0.638
31817W        W98248   6.582   7.612  12.846
31818W        W98249  10.314  43.453  12.960
31819W        W98250  22.340  43.478   3.651
31820W        W98251   9.616  39.386  13.039
31821W        W98252  29.172   2.338   3.328
31822W        W98253  23.319  41.015   4.893
31823W        W98254   8.523   2.395  11.055
31824W        W98255  22.216   4.755  11.175
31825W        W98256   8.719   2.497   2.799
31826W        W98257  42.684  15.006  12.495
31827W        W98258  14.596  22.935  13.839
31828W        W98259  27.839  18.703  10.837
31829W        W98260  14.066   0.892  10.351
31830W        W98261   5.377   6.883   0.278
31831W        W98262   1.933  24.473   0.692
31832W        W98263  18.799   3.462   1.968
31833W        W98264  14.070  28.943  14.951
31834W        W98265  36.436  14.202   4.160
31835W        W98266  33.988  38.963   4.127
31836W        W98267  43.426  22.509  12.514
31837W        W98268  24.756  16.655  13.490
31838W        W98269   6.560  32.916  10.893
31839W        W98270   2.860  14.964  12.845
31840W        W98271  21.974  36.896   3.258
31841W        W98272  10.355  39.476  11.628
31842W        W98273  44.379  26.743  12.859
31843W        W98274  14.718   6.185   0.721
31844W        W98275  12.404  10.098  11.207
31845W        W98276  43.802  35.590   0.461
31846W        W98277  29.148  36.881   1.409
31847W        W98278  39.577   6.906  11.135
31848W        W98279  44.809   8.553  14.407
31849W        W98280  10.962  41.729  14.829
31850W        W98281   8.608  12.181  10.792
31851W        W98282   4.747  38.564  12.842
31852W        W98283  21.671  20.716  13.818
31853W        W98284  35.976  37.436  10.997
31854W        W98285   9.171  14.595  10.522
31855W        W98286  40.506   0.953  12.898
31856W        W98287  37.734  37.351   3.264
31857W        W98288  29.642   8.386   2.772
31858W        W98289  17.848  27.483   1.344
31859W        W98290  12.235  13.914   3.842
31860W        W98291  29.427  14.154   0.429
31861W        W98292  27.223  35.550  10.659
31862W        W98293  39.606  24.995  13.918
31863W        W98294  43.760  16.008   3.594
31864W        W98295  13.635   8.383  11.856
31865W        W98296   9.931  32.988   0.324
31866W        W98297   4.960  24.634  12.058
31867W        W98298  38.421  26.380   0.058
31868W        W98299  33.003  37.038  13.776
31869W        W98300  21.150  19.795  14.679
31870W        W98301   0.059  17.648  14.535
31871W        W98302   8.760  42.474  12.911
31872W        W98303  39.125  41.610   4.052
31873W        W98304  38.892  23.188  12.129
31874W        W98305  44.934  26.403  13.492
31875W        W98306  31.135  35.873   0.773
31876W        W98307  25.028  42.750  11.168
31877W        W98308   0.320  13.879   4.765
31878W        W98309  13.715  34.292  11.529
31879W        W98310  33.446   7.141  13.439
31880W        W98311  16.966  28.556  11.000
31881W        W98312  11.948  22.993   1.821
31882W        W98313  12.757   7.426   2.929
31883W        W98314  35.376  13.429   1.746
31884W        W98315  43.968  43.769  12.809
31885W        W98316  28.861   7.127   2.506
31886W        W98317   0.585  19.156   0.597
31887W        W98318  15.979   2.279  11.379
31888W        W98319   2.224  41.172   0.864
31889W        W98320  44.417  30.998  12.196
31890W        W98321   2.729  24.233   4.662
31891W        W98322   5.306  17.234  11.550
31892W        W98323  36.523  19.145   0.090
31893W        W98324  26.147  14.124   4.612
31894W        W98325  14.069  28.242  10.107
31895W        W98326  21.021  41.186   1.858
31896W        W98327  40.977  27.185  12.903
31897W        W98328  27.042  24.043   1.753
31898W        W98329   3.263  22.496  13.529
31899W        W98330   0.935  36.610  13.772
31900W        W98331  25.203  22.533   1.906
31901W        W98332  36.527  29.790  13.102
31902W        W98333   8.847  18.400   0.486
31903W        W98334   9.123  25.683  14.851
31904W        W98335  23.060  16.306   1.738
31905W        W98336   3.342  11.315  14.571
31906W        W98337  29.593  29.497  13.084
31907W        W98338   2.385   8.436  14.320
31908W        W98339  27.590  10.661   3.371
31909W        W98340  12.542  12.652   4.955
31910W        W98341  22.565  10.290  11.712
31911W        W98342  44.354  18.818  10.939
31912W        W98343   0.487  30.559  14.723
31913W        W98344  42.064  29.140   3.020
31914W        W98345   5.710  37.224  10.254
31915W        W98346  43.828   0.966   0.306
31916W        W98347  12.096  26.187  11.566
31917W        W98348  30.124  30.679  10.716
31918W        W98349  30.891  33.480   4.528
31919W        W98350   6.510  10.882   1.242
31920W        W98351  38.023  23.706  14.346
31921W        W98352  34.902   0.863   0.213
31922W        W98353  21.592   1.012   3.141
31923W        W98354  28.266   6.918   0.723
31924W        W98355  17.745  13.780  13.878
31925W        W98356  36.680  10.381  11.157
31926W        W98357  14.554   8.339  14.782
31927W        W98358   4.915  44.809   4.380
31928W        W98359  35.148  18.178  13.910
31929W        W98360  21.278  30.559   2.225
31930W        W98361  40.336  30.127  14.007
31931W        W98362  20.511   1.363   2.430
31932W        W98363  36.516  32.357   2.857
31933W        W98364  12.404  43.710   3.724
31934W        W98365  15.999  21.462  11.453
31935W        W98366  27.512   8.947   0.470
31936W        W98367   8.286  29.658   1.672
31937W        W98368  28.208  17.549  13.861
31938W        W98369  44.955   4.968   2.179
31939W        W98370  34.767  16.629  10.778
31940W        W98371  11.050  26.630   3.104
31941W        W98372  40.300  39.359  12.926
31942W        W98373  23.645   5.251   0.497
31943W        W98374   0.963  33.548  11.135
31944W        W98375  15.181  44.053   2.445
31945W        W98376  34.496  43.830   2.040
31946W        W98377  36.977  35.497   0.056
31947W        W98378  13.411  18.247   0.268
31948W        W98379   4.381  29.162   1.856
31949W        W98380  35.836  26.503  12.928
31950W        W98381  20.144  19.596   1.438
31951W        W98382  43.968  44.989   2.267
31952W        W98383  26.282  36.140  13.652
31953W        W98384  35.646  33.774   4.915
31954W        W98385   5.049  10.235   0.173
31955W        W98386  29.603  39.057   4.129
31956W        W98387   8.769  41.791   3.574
31957W        W98388   6.673  32.111  10.702
31958W        W98389   8.673   2.151  10.625
31959W        W98390  17.746  28.526   4.386
31960W        W98391  34.551  37.512  11.058
31961W        W98392   1.916  23.229  14.416
31962W        W98393   3.291   4.858   4.384
31963W        W98394  44.455  37.025  12.628
31964W        W98395  43.518  25.498   1.403
31965W        W98396   9.730  41.554   2.602
31966W        W98397  28.574  15.532   1.320
31967W        W98398  34.869  39.053   0.095
31968W        W98399  37.863   5.900   2.986
31969W        W98400  12.849  13.302  12.051
31970W        W98401  18.155   5.302   3.867
31971W        W98402   1.360  35.433   1.619
31972W        W98403   7.594  35.407   2.853
31973W        W98404   2.953  20.181  14.744
31974W        W98405  19.440   9.491  12.938
31975W        W98406  26.126  28.374   4.445
31976W        W98407  21.784   6.799   0.192
31977W        W98408  31.546  32.101   2.327
31978W        W98409   8.755  22.891   4.848
31979W        W98410   5.732   5.233  12.743
31980W        W98411  15.120  39.322  11.057
31981W        W98412  12.640   7.053   3.376
31982W        W98413   4.953  14.277   0.054
31983W        W98414  13.171  13.807  14.386
31984W        W98415  30.846  28.129  14.626
31985W        W98416  30.060   9.764  14.237
31986W        W98417   7.659  34.445  12.522
31987W        W98418  27.479  22.160   2.001
31988W        W98419  19.583  38.765   3.342
31989W        W98420  15.536  16.529   1.831
31990W        W98421   2.072   8.875  12.968
31991W        W98422   8.330  39.459   4.275
31992W        W98423  33.962  20.040   0.366
31993W        W98424   3.454  13.807   3.108
31994W        W98425   4.887  30.689  14.933
31995W        W98426  10.347  32.148   4.074
31996W        W98427   9.484  44.491  12.614
31997W        W98428  14.548  31.525   4.835
31998W        W98429  17.561   5.778   3.611
31999W        W98430  37.534  25.030   2.079
32000W        W98431  24.738  30.417  13.958
32001W        W98432  27.482  24.687  12.710
32002W        W98433  22.943  20.998   0.213
32003W        W98434   2.286  33.240   4.398
32004W        W98435  13.391  29.268   1.964
32005W        W98436  25.819  10.532  10.306
32006W        W98437   5.385  17.173   2.160
32007W        W98438   2.203   0.901  13.598
32008W        W98439   8.577  16.653  14.894
32009W        W98440  20.656  29.288   4.016
32010W        W98441  38.114  21.216   4.455
32011W        W98442   6.274  14.591   4.646
32012W        W98443  12.302  30.613  14.431
32013W        W98444  37.401  41.724  14.027
32014W        W98445  39.738  17.828   2.784
32015W        W98446   5.706  33.117   2.708
32016W        W98447  27.148  30.834   2.204
32017W        W98448  13.027  34.316  10.270
32018W        W98449   1.473  18.517  11.563
32019W        W98450  38.793  26.763  11.044
32020W        W98451  15.699  25.736  14.953
32021W        W98452   8.464  38.819   3.276
32022W        W98453   1.363  12.125  11.616
32023W        W98454  21.632  37.291  12.942
32024W        W98455   3.386  26.158  10.515
32025W        W98456  22.849  24.470  11.853
32026W        W98457  18.572  31.506   2.801
32027W        W98458  21.167   2.983  14.006
32028W        W98459   6.584   2.488   4.168
32029W        W98460  36.292  31.064   2.119
32030W        W98461  19.550  43.723  13.809
32031W        W98462  35.979  29.347   2.341
32032W        W98463   0.357  32.872   2.701
32033W        W98464  39.315   4.920  12.225
32034W        W98465  26.618  39.563  11.139
32035W        W98466  34.363   6.312  11.128
32036W        W98467  12.070   6.392  14.260
32037W        W98468  10.340   4.842   2.757
32038W        W98469   6.938  40.678   2.764
32039W        W98470  41.908  25.509  14.148
32040W        W98471  19.683  31.496   2.231
32041W        W98472  14.734  37.915  14.459
32042W        W98473   4.171  11.216   1.967
32043W        W98474  40.547   6.289  13.060
32044W        W98475  13.109   3.989   3.914
32045W        W98476  21.268  19.813  12.337
32046W        W98477  21.223  21.132   3.060
32047W        W98478  39.579  40.406   4.861
32048W        W98479  13.063  21.519   2.426
32049W        W98480  44.545  14.271   2.792
32050W        W98481  15.736   8.048  11.642
32051W        W98482  36.554  22.173   1.490
32052W        W98483  24.294  14.782   4.692
32053W        W98484  33.004  27.559  10.385
32054W        W98485  18.698  12.089   2.356
32055W        W98486  13.717  32.905   2.114
32056W        W98487  15.188  30.248   0.809
32057W        W98488  15.930  27.066  10.743
32058W        W98489  41.027  19.773  14.773
32059W        W98490  14.746   4.394   1.213
32060W        W98491  21.208  35.534   0.514
32061W        W98492   5.237  19.789  12.964
32062W        W98493  10.581  21.717   3.742
32063W        W98494  35.473  38.351  11.180
32064W        W98495  24.457   0.121   3.569
32065W        W98496  36.422  30.082   4.093
32066W        W98497  34.521  16.577   4.575
32067W        W98498   4.101  44.386   2.677
32068W        W98499   1.811   0.777   1.814
32069W        W98500  40.813  16.669  11.263
32070W        W98501  15.338  18.171   1.525
32071W        W98502  29.581   6.257  10.170
32072W        W98503  11.334   4.764  13.905
32073W        W98504   1.210   8.131   0.825
32074W        W98505   8.163  21.450  13.878
32075W        W98506  10.119  18.711  14.880
32076W        W98507   0.265   9.322  11.556
32077W        W98508  22.779  37.351   2.902
32078W        W98509   4.253  39.131   0.422
32079W        W98510  25.762  20.373   1.377
32080W        W98511   7.436  16.779   0.774
32081W        W98512  28.386  26.444  13.080
32082W        W98513  35.634  38.757   2.224
32083W        W98514  37.381  12.272   4.569
32084W        W98515  36.557  27.511  10.314
32085W        W98516  41.442  32.917  11.631
32086W        W98517  38.104  41.413   1.897
32087W        W98518  12.132  23.978   3.665
32088W        W98519  17.193  23.401  11.566
32089W        W98520  31.718  11.428  14.798
32090W        W98521  41.449  19.525  12.014
32091W        W98522  33.114   3.487   3.111
32092W        W98523  44.983  11.789  13.515
32093W        W98524  31.495  43.375   4.105
32094W        W98525  20.238  24.487   2.134
32095W        W98526   5.545  37.498  13.391
32096W        W98527  12.461  41.101  11.107
32097W        W98528  31.112  31.824   2.438
32098W        W98529  25.950   4.821  14.003
32099W        W98530   7.571  39.294  13.418
32100W        W98531  15.957  33.832   2.101
32101W        W98532  27.837  42.030   2.242
32102W        W98533  35.003  43.365  13.129
32103W        W98534   3.522  35.405   1.314
32104W        W98535  33.070  15.229  10.953
32105W        W98536  42.672  42.243   4.866
32106W        W98537  16.507   4.423  12.349
32107W        W98538   6.138   6.355   3.385
32108W        W98539  32.995  37.383  11.938
32109W        W98540  43.038  26.430  11.958
32110W        W98541  41.827  26.351   0.902
32111W        W98542   1.608  15.294  12.525
32112W        W98543  30.315  32.002   4.472
32113W        W98544  42.352  24.283  12.632
32114W        W98545  21.589  16.654  14.722
32115W        W98546  26.883  32.620   4.419
32116W        W98547  14.086  16.751  11.480
32117W        W98548   5.676   1.984   1.681
32118W        W98549  14.270  17.745  13.509
32119W        W98550   8.133  30.618   1.718
32120W        W98551  36.416  37.239   4.873
32121W        W98552  35.017  35.331   1.896
32122W        W98553  34.496  14.201   4.443
32123W        W98554  16.139  34.364   0.778
32124W        W98555  24.078  33.629   0.037
32125W        W98556   9.312  25.794   2.868
32126W        W98557   3.060  18.489  11.900
32127W        W98558  33.976  36.610   3.073
32128W        W98559  24.532  29.553  13.841
32129W        W98560  43.632  20.174  13.048
32130W        W98561  32.591   4.123   2.406
32131W        W98562  20.737   8.370  11.524
32132W        W98563   8.645  19.726  11.558
32133W        W98564  19.715  32.652  13.848
32134W        W98565  10.036  40.332  14.554
32135W        W98566  26.331  28.467  13.961
32136W        W98567  40.826  39.308  10.995
32137W        W98568  37.233  10.675   0.875
32138W        W98569  12.435  16.476   3.152
32139W        W98570   3.504  33.866   1.426
32140W        W98571  39.175   2.403  13.103
32141W        W98572  13.008  24.078  14.285
32142W        W98573  15.616  33.786   4.688
32143W        W98574   4.370  12.709   4.863
32144W        W98575  19.638  42.293   1.672
32145W        W98576  40.458   6.213   2.293
32146W        W98577  37.576   9.256  14.473
32147W        W98578  19.197  44.489  14.676
32148W        W98579  30.502  37.772  13.732
32149W        W98580  26.971  13.186  11.620
32150W        W98581  42.945   2.257   0.198
32151W        W98582  12.326  39.848  10.722
32152W        W98583  36.854   5.573  11.164
32153W        W98584  24.988   7.680   2.838
32154W        W98585  39.046  20.717   0.686
32155W        W98586  37.104  24.686   2.096
32156W        W98587  28.406   2.566  13.138
32157W        W98588  25.585  18.816  11.017
32158W        W98589  29.934  10.718  14.401
32159W        W98590   2.004  40.359  13.004
32160W        W98591   9.164  19.037   1.148
32161W        W98592  39.786  43.281   4.588
32162W        W98593  16.847   3.690  13.560
32163W        W98594  19.051  25.595  12.562
32164W        W98595   7.884  36.157   2.692
32165W        W98596  34.381   6.266   0.206
32166W        W98597   6.597   9.457  12.990
32167W        W98598   7.405  16.071   2.360
32168W        W98599  28.465  17.528   4.456
32169W        W98600  22.389  32.492  13.264
32170W        W98601  25.576  19.844  12.550
32171W        W98602  30.507  23.026  10.745
32172W        W98603  16.546  19.289   4.201
32173W        W98604   3.412  21.268   2.291
32174W        W98605  43.489   5.753  12.512
32175W        W98606  13.982  11.518   3.629
32176W        W98607  11.836  34.312  12.130
32177W        W98608   7.621  30.345  13.993
32178W        W98609  14.734  37.908   1.924
32179W        W98610  20.821  32.371   4.444
32180W        W98611  41.957   1.931  14.442
32181W        W98612  43.431  15.329  13.661
32182W        W98613   9.105  20.968   4.437
32183W        W98614  39.074  32.114  14.985
32184W        W98615  15.749  13.050  12.881
32185W        W98616  32.952  12.853  11.163
32186W        W98617  11.350  41.390   0.693
32187W        W98618  32.159   3.815   2.319
32188W        W98619  27.531   5.446  12.070
32189W        W98620  39.341  31.935  10.696
32190W        W98621  14.605   8.397   5.021
32191W        W98622  32.664  32.051  11.170
32192W        W98623  14.315  31.105  11.096
32193W        W98624  15.273   2.867  12.882
32194W        W98625   2.214   9.346  13.097
32195W        W98626  24.363  24.923   1.374
32196W        W98627  23.733   3.397   2.273
32197W        W98628  30.937  36.289  13.092
32198W        W98629  26.384  26.636  11.262
32199W        W98630   2.472  11.498   0.842
32200W        W98631   6.207  23.035   2.754
32201W        W98632  21.620  43.533   5.014
32202W        W98633  26.057  44.732  12.444
32203W        W98634  19.486   7.420   2.343
32204W        W98635  44.905  22.019   2.209
32205W        W98636  11.601  40.963  11.340
32206W        W98637  29.035  28.111   4.614
32207W        W98638  27.174  34.964   4.116
32208W        W98639  37.945   4.182  13.805
32209W        W98640  23.530  33.325  12.085
32210W        W98641  32.223  43.465  12.799
32211W        W98642  21.154  12.057  14.960
32212W        W98643  43.729  13.059  12.625
32213W        W98644  16.762  21.746  12.835
32214W        W98645  11.510  15.297  13.409
32215W        W98646  28.040  19.977   2.653
32216W        W98647   2.903  41.443   0.340
32217W        W98648  21.771  22.637  11.074
32218W        W98649  26.371  14.809  14.873
32219W        W98650  33.662  13.349   0.915
32220W        W98651  40.310  26.947  11.571
32221W        W98652  39.995   6.169   1.988
32222W        W98653   5.979  10.733  12.380
32223W        W98654   0.888  41.615  11.120
32224W        W98655   2.438   5.270   3.322
32225W        W98656   1.594  26.649   0.058
32226W        W98657   0.410  14.045   4.271
32227W        W98658  26.167  28.677  14.831
32228W        W98659   0.711  23.451   2.762
32229W        W98660  15.624   8.799   0.676
32230W        W98661  11.772  38.801  10.699
32231W        W98662  28.741  30.358  13.402
32232W        W98663   2.668   9.361   3.854
32233W        W98664  32.939  31.445  10.637
32234W        W98665  33.972  37.362   3.634
32235W        W98666  22.942  29.904   0.962
32236W        W98667  16.227  35.473  14.420
32237W        W98668  22.955  41.930  12.608
32238W        W98669  26.554   6.458   1.215
32239W        W98670   2.924  19.596   1.443
32240W        W98671  25.645  17.164  13.991
32241W        W98672   1.514  29.212  13.394
32242W        W98673  17.708   9.392  14.388
32243W        W98674  25.396  36.618   0.275
32244W        W98675  11.968   8.505  10.001
32245W        W98676   6.612  35.919   1.301
32246W        W98677  29.083  10.604   1.435
32247W        W98678  33.476  32.011  12.408
32248W        W98679  40.323  37.797   2.303
32249W        W98680  18.215  13.379   3.121
32250W        W98681  25.316  30.865  10.456
32251W        W98682  44.203  44.373  11.199
32252W        W98683  15.637   9.819  12.165
32253W        W98684  20.240  30.641   3.198
32254W        W98685  42.283  39.893  13.344
32255W        W98686  36.981   7.816   1.506
32256W        W98687  36.684   9.323  12.044
32257W        W98688  23.725  15.039   3.324
32258W        W98689  24.256   1.838  12.867
32259W        W98690   0.667  39.310   0.696
32260W        W98691  23.579  21.518  10.298
32261W        W98692  15.277  14.721   4.822
32262W        W98693   5.930   1.746  12.597
32263W        W98694  12.654  15.270   1.215
32264W        W98695  31.292  26.160  11.192
32265W        W98696  39.855   4.601   1.719
32266W        W98697  30.000   1.209  11.855
32267W        W98698  37.986  38.539  14.575
32268W        W98699   4.997  12.402   2.762
32269W        W98700  24.068   3.858  14.070
32270W        W98701  23.208  32.012  14.743
32271W        W98702   5.471   1.557   0.337
32272W        W98703  39.681  38.069  12.180
32273W        W98704  20.375   3.795   4.895
32274W        W98705  20.205  25.694  13.068
32275W        W98706  44.850  32.756   2.828
32276W        W98707   8.111  13.832   2.387
32277W        W98708  36.597  31.396   2.472
32278W        W98709  43.471  12.705   2.381
32279W        W98710  31.831   7.920  11.588
32280W        W98711  43.457  29.423   2.849
32281W        W98712  43.325   5.883   1.091
32282W        W98713   0.079  16.034  11.144
32283W        W98714  11.678  29.056   3.045
32284W        W98715  22.170   5.414   3.877
32285W        W98716   1.521  10.457   3.131
32286W        W98717   2.616  39.040   1.402
32287W        W98718  36.455  28.631  13.877
32288W        W98719   0.468  14.155   0.991
32289W        W98720  14.064  29.995  12.991
32290W        W98721  37.089  24.511   2.637
32291W        W98722   3.661  24.272  14.728
32292W        W98723  27.048  25.108   5.010
32293W        W98724  37.887  26.501   4.105
32294W        W98725   2.179   9.193  14.014
32295W        W98726   3.686  14.109   1.277
32296W        W98727   3.229  26.614  11.863
32297W        W98728  12.871  30.921   1.339
32298W        W98729  23.762  29.727  10.728
32299W        W98730   2.415  23.744   1.159
32300W        W98731  33.061  42.818  12.887
32301W        W98732  40.837  41.241   1.873
32302W        W98733  24.334  34.617   2.331
32303W        W98734  15.596  31.053  14.655
32304W        W98735  38.574  31.278  11.669
32305W        W98736  28.678   4.281   0.810
32306W        W98737  11.343  39.450   2.870
32307W        W98738   4.746  40.906   3.133
32308W        W98739  26.864  15.339   1.794
32309W        W98740   2.105  15.708   2.749
32310W        W98741  17.830   1.227  10.771
32311W        W98742  44.167  25.597  12.194
32312W        W98743  27.411  41.055   1.467
32313W        W98744   9.427  25.026   5.263
32314W        W98745  27.804  36.814  11.052
32315W        W98746  42.200  41.978  11.578
32316W        W98747  43.891  12.148   3.244
32317W        W98748   2.472  18.137   5.338
32318W        W98749  41.501  20.140   0.315
32319W        W98750   2.436  38.239   1.879
32320W        W98751  42.728  27.237  10.706
32321W        W98752  22.159  37.696  11.652
32322W        W98753  18.110   2.745  11.617
32323W        W98754  27.731   8.820   1.827
32324W        W98755  24.143  23.811   4.136
32325W        W98756  37.750  34.154  13.476
32326W        W98757  39.116  31.701  10.289
32327W        W98758  18.353   3.241   1.290
32328W        W98759  12.754  19.181   0.395
32329W        W98760  28.696  38.072   2.790
32330W        W98761  30.344   3.401   4.279
32331W        W98762  31.572  19.616  12.987
32332W        W98763  22.102  14.366  14.336
32333W        W98764  27.713  25.656  14.416
32334W        W98765   0.042  10.204   4.715
32335W        W98766  12.007  14.723  13.914
32336W        W98767  43.666  21.146   1.890
32337W        W98768   8.663   3.456   1.983
32338W        W98769  31.427  29.151   3.723
32339W        W98770  35.137   4.395  10.673
32340W        W98771   6.680   3.258   0.477
32341W        W98772  42.512  13.453   1.772
32342W        W98773   7.945  17.446   0.040
32343W        W98774  19.183  19.807  11.009
32344W        W98775  39.735  28.610   0.262
32345W        W98776   3.175  43.336   2.997
32346W        W98777  20.857  11.548   1.891
32347W        W98778  28.024   3.134  12.357
32348W        W98779   1.698  24.542   4.573
32349W        W98780  10.444  33.321   1.282
32350W        W98781  14.067  42.433   4.517
32351W        W98782  11.756  41.098   1.875
32352W        W98783  27.398  20.269  14.202
32353W        W98784  10.722  30.063   4.097
32354W        W98785  22.022  37.593  11.167
32355W        W98786  44.305   1.217   4.344
32356W        W98787  10.355   8.500  13.753
32357W        W98788   3.466  11.629   1.608
32358W        W98789  19.503   3.080   3.186
32359W        W98790   9.807   5.049  14.836
32360W        W98791  14.619   9.045   2.218
32361W        W98792  18.784  29.915   3.240
32362W        W98793  11.694  37.508  14.053
32363W        W98794  33.170  16.813  14.345
32364W        W98795   2.711  10.921  12.973
32365W        W98796   9.492  26.385   4.514
32366W        W98797   7.637  27.696  14.376
32367W        W98798  42.494  18.733   0.801
32368W        W98799  12.843  19.531   3.479
32369W        W98800  41.745   5.667   3.582
32370W        W98801  33.148   7.952   1.994
32371W        W98802  39.573  31.482  11.955
32372W        W98803   0.294  18.290  12.823
32373W        W98804   1.375   1.762   1.352
32374W        W98805   9.791  24.858   2.630
32375W        W98806  10.744  39.535   4.245
32376W        W98807  30.781  30.340   4.878
32377W        W98808  16.307  31.099  11.238
32378W        W98809  32.510  36.858   1.397
32379W        W98810  33.576  14.673  10.571
32380W        W98811  12.380  38.357  11.626
32381W        W98812  40.700  35.862   1.648
32382W        W98813  10.361  20.610   0.431
32383W        W98814  42.758  39.025  14.224
32384W        W98815  28.220  36.964  10.217
32385W        W98816   6.125  29.186   1.356
32386W        W98817  27.006  37.696   4.764
32387W        W98818  35.203   4.941   0.485
32388W        W98819  34.446  22.711  12.024
32389W        W98820  35.411  18.709   4.119
32390W        W98821   7.261   8.640   2.177
32391W        W98822  18.568  32.003  13.440
32392W        W98823   1.086  43.986  13.424
32393W        W98824  30.541  16.933  10.880
32394W        W98825  31.534  40.396  12.585
32395W        W98826  43.947  42.460  14.944
32396W        W98827  33.780  10.360   4.530
32397W        W98828  22.218  14.614   2.298
32398W        W98829  25.724  31.239  13.949
32399W        W98830  32.726  21.210   3.286
32400W        W98831   1.753  19.049  14.042
32401W        W98832  39.884  11.879  12.143
32402W        W98833  25.045   4.940   4.419
32403W        W98834  44.832  42.688   1.736
32404W        W98835  21.833  43.369   3.636
32405W        W98836   6.089  34.289   2.970
32406W        W98837  36.748  28.987  12.159
32407W        W98838  27.624  40.844   0.790
32408W        W98839   1.125  18.067  11.063
32409W        W98840  13.227  27.486   2.223
32410W        W98841  22.992  25.241  14.475
32411W        W98842   6.399  29.461   0.947
32412W        W98843  18.843  21.311   2.250
32413W        W98844  13.498  23.270  12.767
32414W        W98845  41.757   9.671   2.397
32415W        W98846  42.381  38.743  10.535
32416W        W98847   6.693   0.266  11.734
32417W        W98848  30.501  32.094  13.390
32418W        W98849  15.051  24.442  11.571
32419W        W98850  44.259   6.734   3.360
32420W        W98851   4.789  25.549  12.021
32421W        W98852  35.729  35.464   0.678
32422W        W98853  43.477  24.449   3.559
32423W        W98854  18.689   1.298   3.798
32424W        W98855  25.977   4.875  10.737
32425W        W98856  39.138  34.000   4.079
32426W        W98857  10.708   5.735   2.826
32427W        W98858  20.298  42.495  14.813
32428W        W98859  33.362  43.079  13.203
32429W        W98860  24.676  27.491  10.751
32430W        W98861  23.759   2.674  13.467
32431W        W98862  14.443   0.962  13.271
32432W        W98863   2.699  28.940   1.823
32433W        W98864  43.713   0.819  13.996
32434W        W98865  17.380  37.339   3.683
32435W        W98866  39.791  10.395   2.113
32436W        W98867  18.581   7.803  14.543
32437W        W98868  16.155  30.966  13.988
32438W        W98869   6.438  28.021   1.547
32439W        W98870  24.230   6.216  12.078
32440W        W98871  40.741  18.654   3.412
32441W        W98872  22.145   4.274   3.687
32442W        W98873  10.847  44.023  14.435
32443W        W98874  23.623  41.275   3.756
32444W        W98875  36.849  22.215   1.909
32445W        W98876  16.266  19.637  11.877
32446W        W98877  37.529  20.575  14.429
32447W        W98878   9.322   6.266   0.074
32448W        W98879  21.115  22.004   1.026
32449W        W98880  11.277  29.495  14.550
32450W        W98881  18.701  18.037   2.357
32451W        W98882  44.453  11.240   0.373
32452W        W98883  35.968   6.465  14.265
32453W        W98884  10.755  44.115   0.334
32454W        W98885  27.715  34.384   0.042
32455W        W98886  15.217  35.942   3.338
32456W        W98887  25.149  21.400  13.117
32457W        W98888  29.608  18.740  14.024
32458W        W98889  33.839   5.716  14.328
32459W        W98890  31.405   3.039  12.521
32460W        W98891  42.319  35.412   0.686
32461W        W98892  27.772  42.829   3.879
32462W        W98893  41.852  42.358  11.644
32463W        W98894  20.335  20.518  14.894
32464W        W98895  42.195  32.705   0.837
32465W        W98896   2.740   7.463  10.829
32466W        W98897   0.452   1.901  10.599
32467W        W98898  43.943   2.438   4.965
32468W        W98899  34.295  36.621  12.898
32469W        W98900  18.766   7.395   4.285
32470W        W98901  18.455  43.346  14.434
32471W        W98902  15.098  23.198   4.252
32472W        W98903  28.544   3.867  13.708
32473W        W98904  28.427   8.217   3.515
32474W        W98905  19.970   9.700   3.802
32475W        W98906   1.691  12.539   0.276
32476W        W98907  17.336  27.566   1.359
32477W        W98908  25.161  27.091   2.381
32478W        W98909  34.807  29.399  10.739
32479W        W98910  22.770   1.758   1.222
32480W        W98911  44.166  24.789   4.290
32481W        W98912  23.736  35.373   2.518
32482W        W98913  28.649  41.158  13.231
32483W        W98914  16.644  42.366   2.843
32484W        W98915  13.828  32.867   0.812
32485W        W98916  16.839  13.680   3.646
32486W        W98917  39.071   5.397  12.102
32487W        W98918  43.012  16.245   1.760
32488W        W98919  26.017  22.705  14.899
32489W        W98920   2.337  41.525   4.308
32490W        W98921  26.159  13.905   3.113
32491W        W98922  15.336   6.995   0.980
32492W        W98923  13.225   1.930  13.542
32493W        W98924  43.489   4.432  10.714
32494W        W98925  25.251  29.208  14.937
32495W        W98926  34.331  31.485   2.181
32496W        W98927  12.661  13.846  13.715
32497W        W98928   1.159   8.198  13.081
32498W        W98929   1.506  38.303   1.428
32499W        W98930  11.072  41.468   3.862
32500W        W98931  43.448  10.658  13.802
32501W        W98932  10.375  27.899  12.876
32502W        W98933  21.519  37.792  10.270
32503W        W98934  16.099  17.176   0.781
32504W        W98935  39.165  43.673  12.820
32505W        W98936  37.440  33.099  12.763
32506W        W98937  37.882  36.816   5.313
32507W        W98938  13.912   2.756  14.461
32508W        W98939   1.858  17.664  14.241
32509W        W98940  15.977  34.055  11.399
32510W        W98941   4.120  37.437   2.778
32511W        W98942  37.198   9.372  12.018
32512W        W98943   7.447  44.257   1.343
32513W        W98944   1.427  21.911   1.237
32514W        W98945  44.877   3.775   0.866
32515W        W98946   9.845  11.364  14.912
32516W        W98947  30.456  40.136  12.131
32517W        W98948   4.689  23.510   0.848
32518W        W98949  25.535  29.658   0.535
32519W        W98950  13.286  19.939  14.004
32520W        W98951  36.364   9.798   1.815
32521W        W98952  41.650  10.461  11.623
32522W        W98953  39.052   9.764  13.811
32523W        W98954  36.941   8.590   0.915
32524W        W98955  44.492  39.932  12.857
32525W        W98956  29.228  26.528  14.842
32526W        W98957  26.096  19.576   4.060
32527W        W98958  13.325   4.936   3.595
32528W        W98959  35.629  37.195  14.428
32529W        W98960  35.390  25.483  14.777
32530W        W98961  20.878  11.541  10.758
32531W        W98962  34.551  40.164   4.504
32532W        W98963  13.731  21.861   1.360
32533W        W98964  26.474   8.136   4.313
32534W        W98965  30.483  10.751  14.292
32535W        W98966  23.649  32.116   3.471
32536W        W98967  32.215   9.056  13.426
32537W        W98968  16.225  28.677  12.252
32538W        W98969  17.680   5.216  14.467
32539W        W98970  39.059  44.351   2.767
32540W        W98971   3.936  23.614   0.322
32541W        W98972   6.368  40.448  10.059
32542W        W98973   0.987  37.905   0.244
32543W        W98974  19.223  44.967  14.854
32544W        W98975  21.598  30.476   4.138
32545W        W98976  10.971  44.227  13.972
32546W        W98977   7.686  44.578   3.313
32547W        W98978   0.010  11.201   2.258
32548W        W98979  12.447   9.618  10.999
32549W        W98980  30.685  14.802   1.724
32550W        W98981  36.309  21.748   1.716
32551W        W98982  44.033  21.142   3.370
32552W        W98983   6.646  18.260   2.730
32553W        W98984  42.067  42.715   3.304
32554W        W98985  30.595  16.666  12.296
32555W        W98986  11.733  36.032  12.190
32556W        W98987   1.721   9.150  12.166
32557W        W98988   4.320  22.732   4.835
32558W        W98989  43.743  25.142  13.437
32559W        W98990  15.769  25.989  12.150
32560W        W98991  37.956  29.483  10.709
32561W        W98992  24.714  17.358   3.173
32562W        W98993  35.275   7.284  11.237
32563W        W98994  15.779  43.274   1.151
32564W        W98995   8.246   4.254   2.024
32565W        W98996   7.253   7.304  13.077
32566W        W98997  13.095  37.899  12.676
32567W        W98998  25.384  39.483   0.479
32568W        W98999  37.151  18.067   4.145
32569W        W99000  44.453  32.209   4.535
32570W        W99001  17.872  34.242  10.889
32571W        W99002  22.180  39.599   2.565
32572W        W99003  14.763  30.090   3.641
32573W        W99004  20.659  31.025   3.211
32574W        W99005  22.516  10.431  10.686
32575W        W99006  26.610  14.363   0.850
32576W        W99007  16.625  11.643   4.521
32577W        W99008  27.369   9.756  11.078
32578W        W99009  31.521  22.305  14.562
32579W        W99010   6.422  34.906   1.357
32580W        W99011  34.033  38.981   2.313
32581W        W99012  34.151   9.538  11.683
32582W        W99013  16.120  43.709  12.115
32583W        W99014  39.427  37.792   3.303
32584W        W99015  27.024  41.438  13.290
32585W        W99016  28.899  25.193   4.139
32586W        W99017  28.838   3.077  10.411
32587W        W99018   4.455  23.641   0.372
32588W        W99019   5.920   6.728  11.514
32589W        W99020  22.023  15.501   4.154
32590W        W99021  40.686  37.006   1.959
32591W        W99022  16.520  41.253   4.164
32592W        W99023   4.169  35.968  12.859
32593W        W99024  12.271  25.293  10.199
32594W        W99025  12.789  43.306  13.272
32595W        W99026  12.906  38.830  13.977
32596W        W99027  16.639  44.717   3.695
32597W        W99028  16.128  44.826   4.366
32598W        W99029  37.988  19.734  14.559
32599W        W99030  18.795  11.623   2.585
32600W        W99031  23.919   4.524  11.072
32601W        W99032  39.543  30.465  13.440
32602W        W99033   1.293  42.389  12.950
32603W        W99034  12.768  37.018   0.835
32604W        W99035  17.178  28.483   4.748
32605W        W99036  39.809  16.588  13.298
32606W        W99037  39.435  37.269   3.311
32607W        W99038  42.224  32.140  14.436
32608W        W99039  33.706  32.718  13.588
32609W        W99040  22.383  14.220   4.339
32610W        W99041   7.253  41.073  14.812
32611W        W99042  41.871  44.289   0.214
32612W        W99043  17.832  23.397   5.074
32613W        W99044   5.902  22.302  13.543
32614W        W99045  31.807   3.177   4.306
32615W        W99046   6.305  36.060  10.444
32616W        W99047  38.901  13.670  11.180
32617W        W99048  35.574  10.644  13.671
32618W        W99049  25.651  37.308   2.582
32619W        W99050  10.852  22.639  12.936
32620W        W99051   7.477   8.916   1.194
32621W        W99052  42.899  43.797  12.178
32622W        W99053  29.359  17.691   3.253
32623W        W99054  40.362   1.357  10.570
32624W        W99055  19.094  38.987  10.187
32625W        W99056  37.375  23.019  14.191
32626W        W99057  19.585  41.484  10.529
32627W        W99058   8.174  37.636   3.701
32628W        W99059  19.523  34.989  12.165
32629W        W99060   6.296  32.037   1.529
32630W        W99061  12.241   9.978  10.702
32631W        W99062  13.557   5.167   3.987
32632W        W99063  23.683  19.589  10.292
32633W        W99064  32.566  16.634   1.712
32634W        W99065  30.714  27.480   4.372
32635W        W99066   5.829  31.050  13.087
32636W        W99067   9.554   9.011   4.220
32637W        W99068  40.489  16.749  14.722
32638W        W99069  20.746   8.545  14.318
32639W        W99070   6.360  27.672   4.814
32640W        W99071  15.618  10.176   0.537
32641W        W99072  35.755  12.670   0.264
32642W        W99073  15.746  20.460  11.606
32643W        W99074  35.915  18.907   4.125
32644W        W99075  12.398  32.723  12.829
32645W        W99076  25.904  37.504  14.430
32646W        W99077  10.707  23.721  11.973
32647W        W99078  30.400  16.746  11.333
32648W        W99079  13.374  43.908   4.616
32649W        W99080  22.686  14.140  13.482
32650W        W99081  13.334  26.025   3.125
32651W        W99082  27.483  17.203   4.334
32652W        W99083   9.693  13.946  11.600
32653W        W99084  21.655   3.348   0.240
32654W        W99085  13.297  38.873   0.874
32655W        W99086   6.179  15.604  11.489
32656W        W99087  24.224   9.318  12.297
32657W        W99088   3.075   0.635  14.819
32658W        W99089  29.144  43.546   3.417
32659W        W99090  40.558  22.341  11.192
32660W        W99091  24.453  29.176   2.543
32661W        W99092   8.240  36.623  11.166
32662W        W99093  29.188  10.720  13.839
32663W        W99094  20.585  42.784  10.645
32664W        W99095  11.707  40.038  10.159
32665W        W99096  41.488   7.827  14.310
32666W        W99097  39.851  36.312   0.514
32667W        W99098  31.175  23.072   3.779
32668W        W99099  28.016  26.986   3.658
32669W        W99100   3.285  15.582   3.180
32670W        W99101  18.672  27.155   4.560
32671W        W99102   9.629   1.904   1.836
32672W        W99103  37.914  16.715   3.556
32673W        W99104  19.969  17.864   0.902
32674W        W99105   5.347  11.290   4.818
32675W        W99106  42.920  27.636   1.036
32676W        W99107   8.648  32.197  12.060
32677W        W99108  13.588  42.759  13.691
32678W        W99109  24.955  43.190   2.847
32679W        W99110  29.513  24.686  13.519
32680W        W99111   6.277  36.450  12.194
32681W        W99112  17.756  34.146   2.267
32682W        W99113  21.347  15.810   1.386
32683W        W99114  18.711  30.950   0.266
32684W        W99115  13.217  20.968   1.339
32685W        W99116  14.631   6.912  14.853
32686W        W99117   9.095  40.456   2.136
32687W        W99118  22.966   2.084   2.405
32688W        W99119  36.844   6.246   0.346
32689W        W99120  38.456  18.796   0.971
32690W        W99121  43.789   0.732  12.449
32691W        W99122   3.792  38.325  12.499
32692W        W99123   9.860  26.728   3.699
32693W        W99124  41.646  27.105  13.706
32694W        W99125  10.769  32.471   1.266
32695W        W99126   5.730  40.242  13.974
32696W        W99127  36.067  33.314  14.809
32697W        W99128  20.981  16.886  14.116
32698W        W99129  31.543  42.286  12.463
32699W        W99130  44.910  22.942   4.235
32700W        W99131  42.575  18.062  12.994
32701W        W99132  19.759  32.036  11.944
32702W        W99133   9.584  28.145  14.528
32703W        W99134  28.449  23.222  12.913
32704W        W99135  20.639   2.498   1.442
32705W        W99136  29.855  27.858   1.870
32706W        W99137  31.804  37.291   2.936
32707W        W99138   5.804   3.034  11.106
32708W        W99139  29.387  42.454  13.575
32709W        W99140  36.905  42.877  14.392
32710W        W99141  14.477  42.433   4.820
32711W        W99142   6.134  28.229   2.467
32712W        W99143  17.201  33.459  12.524
32713W        W99144  12.764  38.657  14.820
32714W        W99145  16.712  31.385  11.415
32715W        W99146  20.755   1.783   4.576
32716W        W99147   1.952   6.719  12.455
32717W        W99148  33.484  16.359   2.841
32718W        W99149   6.376  16.073   3.872
32719W        W99150  31.425  44.262   2.679
32720W        W99151  42.873  27.051  13.086
32721W        W99152  24.604  43.048  11.292
32722W        W99153  18.209  28.922   2.726
32723W        W99154  35.010  40.541  14.572
32724W        W99155   1.867   7.316  11.395
32725W        W99156   4.257  34.824  14.016
32726W        W99157  20.687  23.736  13.935
32727W        W99158  14.177  22.912  14.973
32728W        W99159  19.977   0.439  13.158
32729W        W99160  39.542  13.796   5.114
32730W        W99161  22.620  24.435  10.553
32731W        W99162  12.317  12.301   4.078
32732W        W99163  26.034  36.014   1.843
32733W        W99164  34.412   2.231   2.701
32734W        W99165  32.994  39.860  14.253
32735W        W99166  35.356  43.487   3.822
32736W        W99167  30.749  37.380   5.005
32737W        W99168   9.912  42.324  14.344
32738W        W99169  16.300  44.573   0.094
32739W        W99170   1.277  14.761  12.079
32740W        W99171  22.445  31.225   4.955
32741W        W99172  20.943  42.417   2.286
32742W        W99173  27.235  16.152  14.005
32743W        W99174  21.008  16.144  12.461
32744W        W99175  38.947  35.514   0.096
32745W        W99176  12.662   5.438   0.109
32746W        W99177  17.593   5.252  12.358
32747W        W99178   9.838  26.901   2.339
32748W        W99179  13.875  38.303  14.976
32749W        W99180  35.838  13.568   3.226
32750W        W99181  29.954   4.720  11.981
32751W        W99182  43.267  30.521  11.642
32752W        W99183  27.172  29.919   2.593
32753W        W99184  31.402  12.194  14.518
32754W        W99185  38.645  23.113  13.462
32755W        W99186  25.710   9.579  11.214
32756W        W99187   4.674  40.518   1.270
32757W        W99188  22.043   6.330   0.257
32758W        W99189   5.332  33.326   1.738
32759W        W99190  44.832  21.807   2.684
32760W        W99191  13.899  29.879   3.247
32761W        W99192  44.763  40.535  13.886
32762W        W99193  11.111  14.779  13.639
32763W        W99194  35.932  30.495  12.164
32764W        W99195  16.894   4.173  13.221
32765W        W99196  26.913  20.101   4.116
32766W        W99197  13.258  44.910   0.933
32767W        W99198   6.308  40.294  10.572
32768W        W99199   6.415  20.822  11.629
32769W        W99200  43.756  34.151  12.959
32770W        W99201   6.871  35.481   4.751
32771W        W99202  12.957  31.592  14.744
32772W        W99203  20.507   6.675   2.837
32773W        W99204  33.802  34.392   1.906
32774W        W99205  26.008  19.519   3.561
32775W        W99206  18.685  20.758   0.872
32776W        W99207  15.653  10.106  13.918
32777W        W99208  19.253  28.278  12.016
32778W        W99209  15.130  26.936   3.512
32779W        W99210  44.215  38.630   0.525
32780W        W99211   1.638  40.886   1.268
32781W        W99212  22.673  21.185   1.994
32782W        W99213  28.482  33.979  11.545
32783W        W99214  20.626  15.673   2.082
32784W        W99215  16.327  41.910   0.518
32785W        W99216   5.110  33.794   1.802
32786W        W99217  10.244   8.643  11.163
32787W        W99218  21.482   7.107   3.470
32788W        W99219  22.675  41.615  11.669
32789W        W99220  14.723  32.620   4.595
32790W        W99221  31.207  27.397  11.584
32791W        W99222  35.470  37.369  10.802
32792W        W99223  44.457  10.646  12.512
32793W        W99224  32.828  37.907   1.236
32794W        W99225  27.635  29.305  12.952
32795W        W99226  21.722  24.608   0.095
32796W        W99227  30.985  13.271   2.820
32797W        W99228   0.768  44.437   1.363
32798W        W99229  15.244  19.649  10.742
32799W        W99230  18.135  44.848  12.701
32800W        W99231  31.005  10.343  13.485
32801W        W99232  40.975  42.268   2.831
32802W        W99233  40.636   3.539   1.838
32803W        W99234  16.374   0.788  12.569
32804W        W99235  22.412  35.647   0.482
32805W        W99236  30.396  39.793   2.279
32806W        W99237  27.940  22.020   2.221
32807W        W99238  17.737  32.340  11.889
32808W        W99239   8.632  21.633  11.662
32809W        W99240  32.626  11.665   1.710
32810W        W99241  35.820  29.044  11.110
32811W        W99242  23.280   0.244  10.606
32812W        W99243  22.924  32.418  14.838
32813W        W99244  33.080  20.207   2.212
32814W        W99245  39.981  11.697   4.605
32815W        W99246   2.341   5.706   3.599
32816W        W99247  13.344  14.223  11.576
32817W        W99248   1.476  35.083  12.178
32818W        W99249   3.029   4.347   2.535
32819W        W99250  36.090  34.267  10.743
32820W        W99251  28.230  40.258  14.284
32821W        W99252   5.381  36.216   4.640
32822W        W99253  26.914  17.434   0.396
32823W        W99254   4.455  40.854   2.666
32824W        W99255   2.899  21.579   4.691
32825W        W99256  33.335  40.511  14.754
32826W        W99257  11.958   7.844  12.497
32827W        W99258  35.067  43.757  13.878
32828W        W99259  24.457  38.077  13.510
32829W        W99260  31.925  41.001  14.936
32830W        W99261   0.120   5.871   1.447
32831W        W99262   7.183  23.289  12.387
32832W        W99263  41.767  43.659  13.897
32833W        W99264  23.138   0.232   1.755
32834W        W99265  36.389  43.979   3.631
32835W        W99266  34.397  43.520  10.865
32836W        W99267   4.264  42.924  14.312
32837W        W99268  41.553   1.942   1.418
32838W        W99269   7.872  32.399   2.430
32839W        W99270  14.711  27.013  14.444
32840W        W99271  37.023  32.598  13.413
32841W        W99272   9.171  18.091  12.535
32842W        W99273  43.662   8.356  14.778
32843W        W99274   4.627  12.597   2.309
32844W        W99275  28.040  22.201   2.695
32845W        W99276  32.924  24.450   3.727
32846W        W99277  19.138  39.966   4.637
32847W        W99278  28.893   1.727  11.067
32848W        W99279  35.377  32.179  14.461
32849W        W99280  37.576   9.239   4.028
32850W        W99281  12.382  19.465  14.654
32851W        W99282  33.640  38.910  13.713
32852W        W99283  39.110  11.990  11.668
32853W        W99284  16.216  40.250   2.013
32854W        W99285  34.818  28.823  14.010
32855W        W99286  23.138  15.092  12.968
32856W        W99287   2.552   3.409   2.646
32857W        W99288   5.065  17.118  13.890
32858W        W99289  42.228  30.618  12.473
32859W        W99290  29.981   4.638  14.329
32860W        W99291  34.282  32.662  12.451
32861W        W99292  39.485  42.058  10.642
32862W        W99293   5.398  20.232  12.023
32863W        W99294   7.813  31.145   1.011
32864W        W99295   7.253  31.105  11.588
32865W        W99296  16.507  35.459   4.177
32866W        W99297  18.143  32.543   0.256
32867W        W99298  40.395  30.335  12.947
32868W        W99299  32.404  27.916   0.606
32869W        W99300   9.025  21.055   1.083
32870W        W99301  28.388  16.648   0.876
32871W        W99302  29.635  14.381  13.317
32872W        W99303  24.225  40.449   4.167
32873W        W99304   1.014  17.634   0.835
32874W        W99305   3.661  22.772   2.135
32875W        W99306  44.814   1.788  12.983
32876W        W99307  13.734  40.310  11.175
32877W        W99308   6.822   7.439  10.905
32878W        W99309  22.017   6.222   4.179
32879W        W99310  22.686  39.381   3.206
32880W        W99311  24.775  17.663   2.279
32881W        W99312   1.731   1.789  12.171
32882W        W99313  38.474  32.253   4.680
32883W        W99314  11.910  12.389   3.683
32884W        W99315   3.006  38.386   3.592
32885W        W99316   4.776  28.939   3.328
32886W        W99317  41.848   2.197   4.213
32887W        W99318   7.902  11.448  12.291
32888W        W99319  17.077  41.381  14.221
32889W        W99320  40.463  25.509   4.959
32890W        W99321  40.802   2.331  13.409
32891W        W99322  11.756  22.720   0.972
32892W        W99323   7.496  21.019   0.389
32893W        W99324  20.848  29.147   2.800
32894W        W99325  15.733  10.788  10.935
32895W        W99326  17.704   1.166  12.522
32896W        W99327  18.826  43.794   3.778
32897W        W99328  13.028  44.736   3.128
32898W        W99329  37.901  19.880   3.320
32899W        W99330  14.225  40.355  14.233
32900W        W99331  23.931  35.979  14.242
32901W        W99332  19.545  42.804  14.591
32902W        W99333  29.477  14.825   3.826
32903W        W99334   1.938  27.075   4.051
32904W        W99335  19.292  23.405  12.321
32905W        W99336  31.100  19.969  12.661
32906W        W99337  30.611  20.179   3.376
32907W        W99338  38.114   8.598  13.485
32908W        W99339  27.007  25.076   3.261
32909W        W99340  15.196  10.899   3.417
32910W        W99341  31.901  21.680   2.305
32911W        W99342   5.014   7.216  14.304
32912W        W99343   9.418   0.201   3.779
32913W        W99344  12.616   0.295  13.010
32914W        W99345  20.149  24.700   0.270
32915W        W99346  34.621  44.683   1.883
32916W        W99347   9.323  19.011  11.214
32917W        W99348   1.131  33.896   1.597
32918W        W99349  16.078  36.548   1.401
32919W        W99350  13.236  10.590   2.842
32920W        W99351  16.323  31.956   3.795
32921W        W99352  36.887  37.058   4.173
32922W        W99353  11.435   8.478   3.028
32923W        W99354  21.740  14.743   3.737
32924W        W99355  23.605  12.335  12.908
32925W        W99356  28.557   7.775   0.282
32926W        W99357   3.174  44.358   0.463
32927W        W99358  30.123  28.673  11.183
32928W        W99359  31.735  24.475   4.692
32929W        W99360  22.075  32.305   2.960
32930W        W99361  42.223   4.030  12.997
32931W        W99362  38.380  29.032  11.583
32932W        W99363  22.624  32.906  13.451
32933W        W99364  40.878  17.633  10.409
32934W        W99365  11.065  13.063  13.951
32935W        W99366  25.744  26.144  11.613
32936W        W99367  28.469  14.869   0.942
32937W        W99368  19.573  42.748  14.073
32938W        W99369  22.528  29.982  11.448
32939W        W99370  30.118  43.691   0.981
32940W        W99371   2.632   7.693   4.098
32941W        W99372  23.431  19.003  12.111
32942W        W99373  21.205  39.703   3.297
32943W        W99374  12.137  25.980  12.413
32944W        W99375  16.932  20.071   3.124
32945W        W99376  18.213  16.218   5.428
32946W        W99377  35.757  42.528  13.938
32947W        W99378  40.660   0.071   2.838
32948W        W99379  35.587  41.917   0.372
32949W        W99380  25.522  17.293   3.045
32950W        W99381   6.358  10.165   4.527
32951W        W99382  20.149   7.778   2.832
32952W        W99383  26.053  35.501  10.926
32953W        W99384  43.793  44.526  14.411
32954W        W99385   2.705  26.404  13.032
32955W        W99386   9.041  37.870  13.908
32956W        W99387  20.668  19.717  10.651
32957W        W99388  19.579  15.999  14.314
32958W        W99389   3.313  43.952  11.425
32959W        W99390  39.825  22.646   2.400
32960W        W99391  26.950  18.035  12.462
32961W        W99392  36.035  25.406   0.449
32962W        W99393   7.878  42.298   1.157
32963W        W99394   8.148  14.620   0.682
32964W        W99395  22.724  34.159  13.975
32965W        W99396  22.998  39.223  13.975
32966W        W99397  41.473  35.818  12.092
32967W        W99398  27.253   8.328   0.892
32968W        W99399  28.454  41.405  14.366
32969W        W99400  11.799  21.485  12.880
32970W        W99401  21.008  22.265  13.209
32971W        W99402   5.218  32.964  11.231
32972W        W99403  42.231  33.895  12.989
32973W        W99404   7.670  35.862   1.214
32974W        W99405  29.432  16.755  12.029
32975W        W99406   3.495  38.808   1.239
32976W        W99407  34.861  17.990   1.841
32977W        W99408  29.457  40.009   3.400
32978W        W99409  24.653  28.111   2.149
32979W        W99410  33.669  23.385  11.048
32980W        W99411  25.426  12.046   0.455
32981W        W99412  16.259  41.848   4.691
32982W        W99413  28.570  30.040   0.406
32983W        W99414   7.407  22.707   0.598
32984W        W99415  16.260  39.848  13.033
32985W        W99416  19.582  24.547   4.427
32986W        W99417   0.317  25.987   2.660
32987W        W99418   7.768  29.271  10.318
32988W        W99419  25.150  14.373   4.614
32989W        W99420  16.592   5.321   4.552
32990W        W99421  14.278  39.515   4.765
32991W        W99422  42.448  21.497  10.569
32992W        W99423  18.583  29.973  11.205
32993W        W99424  42.067   4.375  14.414
32994W        W99425  32.202  39.865   0.071
32995W        W99426  21.995  16.195   0.297
32996W        W99427   9.206  29.127  12.586
32997W        W99428   2.937  28.713   2.263
32998W        W99429  41.534  23.786  14.586
32999W        W99430  28.618  36.691  14.344
33000W        W99431  13.001   4.641   2.684
33001W        W99432  42.461  17.648   4.419
33002W        W99433  34.610  22.519  10.698
33003W        W99434  26.359  31.181  14.703
33004W        W99435   4.946  24.034   4.581
33005W        W99436  33.162  36.909  12.022
33006W        W99437   8.607  22.861  11.117
33007W        W99438  32.494  42.181  12.843
33008W        W99439   7.671  38.875  13.872
33009W        W99440  24.991  33.135   1.213
33010W        W99441   1.489  12.357   4.145
33011W        W99442  13.466  37.575  11.996
33012W        W99443  23.606   2.480   2.200
33013W        W99444  33.855   3.552   3.427
33014W        W99445  20.064  40.068   0.754
33015W        W99446  13.712  38.917   4.632
33016W        W99447  25.107  20.762   4.693
33017W        W99448  41.617   5.209  13.827
33018W        W99449   8.401  17.335  11.436
33019W        W99450   2.837  13.229   4.103
33020W        W99451   3.696  11.901  10.823
33021W        W99452  30.189   2.949   1.947
33022W        W99453   1.670  38.820   3.677
33023W        W99454  16.525  43.029  13.391
33024W        W99455   6.458  18.121  12.038
33025W        W99456   1.299  37.468   3.439
33026W        W99457  42.417  30.153  12.561
33027W        W99458  22.218   6.686  12.026
33028W        W99459  30.953  10.809   0.526
33029W        W99460   0.253  27.496  10.499
33030W        W99461  34.059  26.983  13.575
33031W        W99462   3.011  34.604   0.875
33032W        W99463   2.472   3.714   4.950
33033W        W99464   8.211  23.220   2.327
33034W        W99465  20.569  44.236   0.343
33035W        W99466  43.894  41.033   3.131
33036W        W99467  32.148  43.958   0.883
33037W        W99468  37.371  23.762   4.002
33038W        W99469  44.880  38.903   4.840
33039W        W99470  21.299  12.757   2.474
33040W        W99471  42.618  11.043  11.010
33041W        W99472  31.934   3.414  11.167
33042W        W99473  11.081   8.948   1.136
33043W        W99474  15.177  29.048  10.895
33044W        W99475  17.860  31.437   3.366
33045W        W99476  29.214  43.823  12.059
33046W        W99477  30.242  39.347   3.639
33047W        W99478  31.211  25.117   4.452
33048W        W99479  39.070  20.494  11.454
33049W        W99480  25.948  14.056  12.561
33050W        W99481  29.218   7.442  12.059
33051W        W99482  44.791   1.351   0.576
33052W        W99483  27.308  12.931  11.951
33053W        W99484  14.539   9.741   2.854
33054W        W99485  24.498  12.493  14.830
33055W        W99486  42.450  33.457  14.512
33056W        W99487  30.415  34.853   0.260
33057W        W99488  35.671  11.329   0.375
33058W        W99489  24.930  25.219  14.306
33059W        W99490  20.705  40.934  14.398
33060W        W99491  44.067   5.864  14.471
33061W        W99492  33.126  16.085  10.976
33062W        W99493   4.383   0.229   1.395
33063W        W99494  27.815  15.294  14.815
33064W        W99495  12.300  27.186  11.696
33065W        W99496  38.558  26.789   3.314
33066W        W99497  23.084  37.151  13.066
33067W        W99498  24.613  12.586   2.306
33068W        W99499   7.860  26.532  13.864
33069W        W99500  30.512  22.466   1.279
33070W        W99501   0.004  39.380  11.210
33071W        W99502  42.767   6.207  12.365
33072W        W99503  13.154   5.037   1.380
33073W        W99504  29.064  32.554  14.680
33074W        W99505  40.804   6.724  11.537
33075W        W99506   3.822  32.938   3.567
33076W        W99507  25.074  29.156  13.228
33077W        W99508  29.931   0.336  10.687
33078W        W99509  14.734  29.109  11.208
33079W        W99510  15.929  29.865  12.269
33080W        W99511  34.561   4.657   3.272
33081W        W99512  28.870  17.796  10.692
33082W        W99513  42.492   0.424   3.863
33083W        W99514  26.919  23.579   4.900
33084W        W99515  14.865  23.635   1.560
33085W        W99516   6.890  38.576  10.651
33086W        W99517  42.125  34.826  10.290
33087W        W99518  20.735  21.988  11.739
33088W        W99519   6.721  10.228  12.563
33089W        W99520  43.962  24.095   1.471
33090W        W99521   1.865  12.835   2.079
33091W        W99522  41.488  12.323   3.203
33092W        W99523  28.931   0.404  10.778
33093W        W99524  20.697  12.656  13.504
33094W        W99525   1.458  44.480   3.340
33095W        W99526  23.547   9.640  14.305
33096W        W99527  28.629  20.629   0.650
33097W        W99528   5.884  40.676  12.707
33098W        W99529  41.336  31.587  14.386
33099W        W99530   7.391  31.424  11.965
33100W        W99531  43.451  41.733   4.685
33101W        W99532  20.716  25.166  14.407
33102W        W99533  41.410   1.236   3.713
33103W        W99534   4.522  43.414  12.656
33104W        W99535  30.667   7.900  14.412
33105W        W99536  10.942  21.634   1.318
33106W        W99537  18.138  34.745   2.858
33107W        W99538   5.827  28.531  11.690
33108W        W99539  43.726  31.064   1.220
33109W        W99540  25.098  42.567   2.203
33110W        W99541  40.385  14.134   1.418
33111W        W99542  25.109   0.266  10.711
33112W        W99543  11.210   7.003  13.293
33113W        W99544   5.447  26.645  10.727
33114W        W99545  38.627  15.730  12.487
33115W        W99546  10.636  42.601   2.294
33116W        W99547  12.481  36.971   3.773
33117W        W99548  31.428  44.021  14.460
33118W        W99549  31.873  21.717  11.104
33119W        W99550  41.893  42.390  13.385
33120W        W99551  23.249  44.992  12.586
33121W        W99552  18.945   3.213   0.997
33122W        W99553  25.360  33.212  11.799
33123W        W99554   8.484  33.870  12.370
33124W        W99555  26.569   6.337   4.217
33125W        W99556  23.835  25.115  14.712
33126W        W99557  13.843  27.585  11.132
33127W        W99558  14.391   0.619   3.670
33128W        W99559  38.811  25.908  13.726
33129W        W99560   8.191   8.311  14.939
33130W        W99561  28.965   6.412  10.651
33131W        W99562   2.972  33.508  12.980
33132W        W99563  17.292   1.774  11.223
33133W        W99564  39.049  15.918  14.448
33134W        W99565   6.793  12.254  10.883
33135W        W99566   4.823  13.729  10.704
33136W        W99567  20.055   6.419   3.066
33137W        W99568  32.143   4.772  14.033
33138W        W99569  25.449  13.202   4.186
33139W        W99570  33.045  11.701   2.459
33140W        W99571   6.764  30.570   2.321
33141W        W99572  16.893  16.825   0.527
33142W        W99573   5.880  19.140  13.002
33143W        W99574  41.259  35.391  12.473
33144W        W99575  24.247  41.835  11.872
33145W        W99576   8.493  37.923   2.115
33146W        W99577   0.930  34.386   1.637
33147W        W99578  42.593  43.833   1.779
33148W        W99579  11.624  32.032  13.974
33149W        W99580  13.616  40.617  12.511
33150W        W99581  26.109   5.347  10.214
33151W        W99582  34.466  39.044   2.036
33152W        W99583   0.680  28.212  10.732
33153W        W99584  14.098   5.598  11.489
33154W        W99585  18.029   1.243  14.767
33155W        W99586  11.881  14.244   2.983
33156W        W99587  42.497   9.841  13.536
33157W        W99588   8.800   2.280   0.441
33158W        W99589  37.140   8.215  10.719
33159W        W99590  29.795  17.704  12.880
33160W        W99591  26.768  41.858   1.229
33161W        W99592  34.238  15.045  11.613
33162W        W99593  14.809   9.748  13.372
33163W        W99594  17.650   2.732  13.523
33164W        W99595  30.311  30.441  14.440
33165W        W99596  16.253  20.975  13.321
33166W        W99597  39.213  14.597   1.382
33167W        W99598  38.499  20.834   4.315
33168W        W99599  20.164  11.252   1.645
33169W        W99600   6.316  15.631   0.200
33170W        W99601  44.908  19.073  14.531
33171W        W99602  27.074  20.070   1.448
33172W        W99603  42.909  37.371   4.612
33173W        W99604  43.874  39.857   1.619
33174W        W99605  13.890  23.258   4.049
33175W        W99606  39.016   9.198  12.493
33176W        W99607  17.196  21.581   4.685
33177W        W99608  10.789  21.581   1.810
33178W        W99609  10.123  26.593   4.152
33179W        W99610  42.555  37.098   0.888
33180W        W99611  19.458   8.399  13.850
33181W        W99612   1.250   4.480   3.649
33182W        W99613  41.408  37.822  12.440
33183W        W99614  44.749  23.987  10.723
33184W        W99615  12.093  17.294   2.635
33185W        W99616  10.267  39.984  10.667
33186W        W99617  26.129  44.582   2.643
33187W        W99618  30.429  19.171   3.867
33188W        W99619  25.180  41.284   2.876
33189W        W99620  12.810   4.276   0.764
33190W        W99621  21.486  24.556   1.592
33191W        W99622  40.995  16.784   4.677
33192W        W99623   1.454   7.602  13.862
33193W        W99624  14.456   0.012  14.491
33194W        W99625  12.306  14.174  13.472
33195W        W99626  24.504  25.912  11.852
33196W        W99627  36.185  25.599   4.983
33197W        W99628  17.336  20.646  14.950
33198W        W99629   9.043   7.709   0.318
33199W        W99630  31.957  29.045   3.905
33200W        W99631  41.193   3.253  11.515
33201W        W99632   5.025  43.978   1.550
33202W        W99633  34.863  37.512   1.661
33203W        W99634  44.984  21.751  12.133
33204W        W99635  37.870  15.160  14.842
33205W        W99636   7.836  39.358   0.686
33206W        W99637  32.086   2.542   0.685
33207W        W99638  29.986  37.411   3.311
33208W        W99639   4.749  17.094   3.307
33209W        W99640   6.794  40.060   1.840
33210W        W99641  10.293   9.282   0.656
33211W        W99642  12.445  31.907   2.159
33212W        W99643  17.374  26.009  14.932
33213W        W99644   1.309  18.752   3.999
33214W        W99645   2.427  25.648  12.971
33215W        W99646  44.000  20.730   1.886
33216W        W99647  22.228   1.538   2.433
33217W        W99648  31.927  13.629   4.540
33218W        W99649  27.896  14.583  14.247
33219W        W99650   7.363  19.092  11.012
33220W        W99651  22.191  44.931   3.689
33221W        W99652  24.585  38.467   1.773
33222W        W99653  17.064  44.800  10.769
33223W        W99654  19.519   5.291   4.162
33224W        W99655  25.227  23.981   0.911
33225W        W99656  11.928  35.948   3.549
33226W        W99657  43.334  14.366  10.600
33227W        W99658   1.366  36.840  13.547
33228W        W99659  34.129  39.761   1.823
33229W        W99660  11.853  28.148  11.682
33230W        W99661  25.506  21.758   2.848
33231W        W99662  42.077  13.358  13.853
33232W        W99663   4.482  30.664   0.911
33233W        W99664  13.693  25.423  12.467
33234W        W99665  29.586   8.310   0.285
33235W        W99666  11.831  30.291   5.100
33236W        W99667   6.777  12.110   3.650
33237W        W99668  20.653  42.801   5.027
33238W        W99669  42.954  30.602   1.026
33239W        W99670  32.429  37.139   0.969
33240W        W99671  26.640  41.329  13.972
33241W        W99672  22.784  29.756   2.223
33242W        W99673  30.618  34.558   0.740
33243W        W99674  44.998  16.009   0.868
33244W        W99675  33.350  25.452   2.528
33245W        W99676   9.219  11.546   1.470
33246W        W99677  32.136  22.760  12.487
33247W        W99678  27.744  41.783  13.109
33248W        W99679  14.189  43.198  12.111
33249W        W99680   9.041  43.378  14.563
33250W        W99681  11.321  23.085   2.994
33251W        W99682   3.014  26.623   3.304
33252W        W99683  29.020  25.449   0.539
33253W        W99684  18.591  42.343  13.604
33254W        W99685  38.282  13.680  11.405
33255W        W99686  28.631  14.825  12.453
33256W        W99687  20.996  22.485   2.342
33257W        W99688  37.918  16.104  11.864
33258W        W99689  22.732  42.332  14.723
33259W        W99690  42.225   0.364  13.793
33260W        W99691  28.406  37.566  14.613
33261W        W99692  38.925  20.219   0.857
33262W        W99693  12.825  23.276  14.797
33263W        W99694  44.666  44.025   3.149
33264W        W99695  20.649  27.536  13.370
33265W        W99696   2.336   9.642   1.956
33266W        W99697  26.143  31.562   4.066
33267W        W99698  16.879  35.452   3.020
33268W        W99699  38.339  14.603   0.424
33269W        W99700   0.158  22.534   1.765
33270W        W99701  29.887  28.364   1.733
33271W        W99702  42.735   0.897  11.211
33272W        W99703   6.862   5.399   3.982
33273W        W99704  40.951  34.094  12.086
33274W        W99705  36.601  29.617   2.748
33275W        W99706  26.463  36.922  14.148
33276W        W99707  23.054  38.527   1.670
33277W        W99708  29.753   3.756  11.192
33278W        W99709  36.819   9.734  10.623
33279W        W99710   1.877  22.317  11.479
33280W        W99711  12.663  36.480  14.133
33281W        W99712  26.395  18.888  12.356
33282W        W99713  13.265  43.495  13.721
33283W        W99714  33.043  40.975  12.143
33284W        W99715  43.438  38.001   4.209
33285W        W99716  19.695  35.062  14.544
33286W        W99717   8.485  16.572  11.587
33287W        W99718   7.960  44.358  14.075
33288W        W99719  36.806   9.570   1.883
33289W        W99720  29.507  20.773  12.489
33290W        W99721   5.299  39.852  14.702
33291W        W99722  14.223  21.092  10.985
33292W        W99723  14.654  33.546   1.157
33293W        W99724  17.622  22.230   3.427
33294W        W99725  29.083  39.628   0.823
33295W        W99726  40.503   2.330  11.489
33296W        W99727  20.894  35.909  13.433
33297W        W99728  10.122  36.019   3.093
33298W        W99729  26.429  39.252  12.783
33299W        W99730  42.050  11.857  13.551
33300W        W99731  19.244   1.325   3.255
33301W        W99732  19.950  18.093   3.635
33302W        W99733   9.592  16.513  11.185
33303W        W99734  32.638  24.610   3.119
33304W        W99735   6.075   2.544   4.158
33305W        W99736  39.010  12.336  14.731
33306W        W99737  40.573   5.122  11.643
33307W        W99738  26.657  26.512  13.569
33308W        W99739   0.391  27.200  13.519
33309W        W99740  43.966  11.559  11.650
33310W        W99741   9.674  44.193  13.964
33311W        W99742  42.853  35.722   4.094
33312W        W99743  13.707  27.935  13.898
33313W        W99744  42.894   0.377   0.932
33314W        W99745   9.937  13.298   1.758
33315W        W99746  42.440  14.849  14.482
33316W        W99747  17.048   4.045  12.737
33317W        W99748  39.055  38.450  12.691
33318W        W99749  22.143   8.249   3.400
33319W        W99750  31.856  34.372   4.627
33320W        W99751  37.151  32.809   3.848
33321W        W99752  34.957  21.111   2.724
33322W        W99753  29.887  34.150   2.198
33323W        W99754  32.617   2.865   0.198
33324W        W99755  13.762  13.600  10.600
33325W        W99756  15.065   9.282   4.169
33326W        W99757  29.866  22.937  14.076
33327W        W99758   0.655  30.050   3.641
33328W        W99759  28.684  24.660   1.684
33329W        W99760  19.794  27.058  12.239
33330W        W99761  40.875  10.153   0.967
33331W        W99762  24.525  43.762   0.953
33332W        W99763  30.964  42.278  14.912
33333W        W99764   3.151  26.666  13.265
33334W        W99765  26.229  34.011   1.713
33335W        W99766  28.040  35.209   5.108
33336W        W99767  14.120  33.123  13.926
33337W        W99768  24.678   7.566   1.340
33338W        W99769  11.285   3.695   2.728
33339W        W99770   3.722  27.135   0.425
33340W        W99771  37.614  40.367  14.789
33341W        W99772   5.414   8.282   2.071
33342W        W99773  20.553   5.399  13.627
33343W        W99774  17.807  28.689   1.555
33344W        W99775  24.146  30.303  12.315
33345W        W99776  34.219  16.877   4.232
33346W        W99777  40.127  10.144  11.652
33347W        W99778  39.375  11.222  14.880
33348W        W99779  11.980  25.425  13.850
33349W        W99780  14.589   7.271   4.512
33350W        W99781   2.844  12.399   3.810
33351W        W99782  19.027  37.430   0.793
33352W        W99783  20.068   9.203   2.731
33353W        W99784   4.754   0.873  10.225
33354W        W99785  33.288  25.962   3.224
33355W        W99786   1.399   8.804   1.714
33356W        W99787  35.461  28.690  11.417
33357W        W99788  12.004  13.340  13.125
33358W        W99789  24.792  36.548  11.578
33359W        W99790   5.910  32.419  11.511
33360W        W99791  38.466  20.228   0.534
33361W        W99792   0.745   4.749   5.179
33362W        W99793  34.538  13.022  12.562
33363W        W99794  34.458  38.971  11.983
33364W        W99795  25.477   3.792   0.308
33365W        W99796   7.865  23.130   3.082
33366W        W99797  30.863   4.740  12.107
33367W        W99798  11.835  44.714  13.397
33368W        W99799  42.679   2.879   2.695
33369W        W99800   1.849   8.245  11.073
33370W        W99801   9.930  38.958   3.561
33371W        W99802   9.051   4.539  14.828
33372W        W99803   7.311  21.026  13.893
33373W        W99804   2.109   4.741   1.801
33374W        W99805  33.528  11.861   3.898
33375W        W99806  33.008  15.284   0.936
33376W        W99807  20.056   1.316  12.691
33377W        W99808  29.386  10.891   3.620
33378W        W99809  22.087  32.857  10.352
33379W        W99810  14.760  37.049  14.866
33380W        W99811   3.149   8.010   2.320
33381W        W99812   8.223  33.627   2.815
33382W        W99813  17.841  10.336  12.925
33383W        W99814  31.158  37.344   0.830
33384W        W99815  36.506  25.537   0.923
33385W        W99816  44.965   0.083  12.447
33386W        W99817  10.133  44.911  10.874
33387W        W99818   7.996  19.548  12.588
33388W        W99819  27.621  41.274  11.411
33389W        W99820  31.679  34.604  13.821
33390W        W99821  20.684  17.268   0.971
33391W        W99822  37.868  16.633  11.070
33392W        W99823  40.008   9.864  13.042
33393W        W99824  22.558  19.914   3.485
33394W        W99825  37.953  15.850   3.951
33395W        W99826  26.473  18.716  12.838
33396W        W99827  11.081  10.925   4.706
33397W        W99828  27.201   3.291   3.282
33398W        W99829  18.782  35.492  12.048
33399W        W99830  13.675  18.168  13.527
33400W        W99831  37.934   0.360  14.507
33401W        W99832   6.625  33.527   3.518
33402W        W99833  29.923  40.018   3.164
33403W        W99834  16.590  32.394   2.931
33404W        W99835   9.716   6.257  14.312
33405W        W99836   2.700   8.259  14.907
33406W        W99837  42.020  23.529  14.798
33407W        W99838  27.652   5.150   5.322
33408W        W99839  27.506  28.023   0.425
33409W        W99840  31.561  31.955   4.193
33410W        W99841  12.126  44.388   4.537
33411W        W99842  40.977  18.258   0.332
33412W        W99843  21.969   6.166  12.635
33413W        W99844  14.307  11.343  14.485
33414W        W99845  40.606   6.707   4.210
33415W        W99846  44.500  43.019   1.520
33416W        W99847  18.219  38.851  11.566
33417W        W99848  14.248   4.975   0.522
33418W        W99849  37.694  35.925   4.650
33419W        W99850  36.508  26.475   4.465
33420W        W99851  44.311  14.030   0.010
33421W        W99852  30.563  26.614  10.970
33422W        W99853  31.857  25.912   2.772
33423W        W99854   1.108  26.500   3.159
33424W        W99855  23.973   8.112   1.726
33425W        W99856  24.151  13.684   1.926
33426W        W99857  23.631  22.497   4.101
33427W        W99858  32.775  18.442  11.233
33428W        W99859  27.535   5.010  12.369
33429W        W99860  15.064  19.894  11.600
33430W        W99861  30.579  12.691   1.834
33431W        W99862  23.447   8.817   5.057
33432W        W99863  44.507   1.738  11.757
33433W        W99864  17.245  26.785   0.785
33434W        W99865  35.892  17.575  12.394
33435W        W99866  13.162  37.626   2.692
33436W        W99867  13.755  22.161   9.866
33437W        W99868   1.739  19.837  11.639
33438W        W99869  31.240  12.595  10.325
33439W        W99870  39.931  13.098   0.796
33440W        W99871   8.909   6.811  14.317
33441W        W99872   3.188  20.720  10.974
33442W        W99873   9.702  28.397  11.023
33443W        W99874   8.900  25.652   0.754
33444W        W99875  10.637  11.189   4.631
33445W        W99876  32.828  29.131  13.385
33446W        W99877  13.121  39.361  11.646
33447W        W99878  17.536  32.419   2.615
33448W        W99879  33.294  27.148  14.707
33449W        W99880  25.477  36.425   1.361
33450W        W99881   3.038   8.350   0.305
33451W        W99882   8.296  28.729   1.912
33452W        W99883  29.579  36.138  11.542
33453W        W99884  44.636  20.770  13.747
33454W        W99885  21.370  25.162   1.953
33455W        W99886  24.610  14.940  11.509
33456W        W99887   3.520  35.070  13.461
33457W        W99888  23.788  37.387   2.064
33458W        W99889  13.685  11.813  14.034
33459W        W99890  18.420   4.952   1.673
33460W        W99891  23.778  31.111  13.832
33461W        W99892  20.703  33.473   4.531
33462W        W99893   9.582   1.911  10.715
33463W        W99894  17.521  13.194  14.510
33464W        W99895   7.805  39.839   3.674
33465W        W99896   8.459  10.253  11.921
33466W        W99897  39.020   9.259  13.070
33467W        W99898  13.422  38.440  11.564
33468W        W99899   9.442  20.973   0.770
33469W        W99900  31.186   1.297   4.224
33470W        W99901  33.507  41.987  10.783
33471W        W99902  38.831  27.491   0.197
33472W        W99903  36.268   5.736   0.753
33473W        W99904  36.010   2.908   0.950
33474W        W99905   3.175   6.255   1.200
33475W        W99906   6.668  33.336   1.955
33476W        W99907   8.318  36.804   4.677
33477W        W99908  20.002   2.071  14.385
33478W        W99909  17.712   9.935   1.897
33479W        W99910  23.599   9.227   0.233
33480W        W99911  41.610  43.888   4.075
33481W        W99912  10.211  21.525   0.563
33482W        W99913  13.448   0.357  10.726
33483W        W99914  24.191   8.395  10.283
33484W        W99915  23.457  27.653   2.696
33485W        W99916  40.798  22.956   3.278
33486W        W99917  36.623  32.776   2.569
33487W        W99918  32.638   3.435   4.659
33488W        W99919  13.944  11.495   1.639
33489W        W99920  40.452   7.710  11.586
33490W        W99921  34.480  29.864   5.027
33491W        W99922  11.212  26.192  14.327
33492W        W99923  43.562  32.949   3.170
33493W        W99924  43.262  33.507   0.233
33494W        W99925  27.911   7.323  14.819
33495W        W99926  21.105   7.901   3.301
33496W        W99927   4.562  12.763  12.826
33497W        W99928  30.676  32.828  12.919
33498W        W99929   9.765  18.281   2.325
33499W        W99930  25.332   0.684   1.495
33500W        W99931  12.021  22.477   3.604
33501W        W99932  22.927   6.882   2.310
33502W        W99933  23.094  30.826  13.907
33503W        W99934   6.365  18.210  10.759
33504W        W99935  21.174  41.862  14.311
33505W        W99936  41.772  37.519   1.010
33506W        W99937  17.196  37.054   2.531
33507W        W99938  15.687   0.771   1.237
33508W        W99939  16.610  43.985  13.546
33509W        W99940  27.549   3.460  13.416
33510W        W99941  41.040   6.438  10.949
33511W        W99942  16.174  36.694  13.886
33512W        W99943  24.808  28.944  11.917
33513W        W99944  38.497  36.400  12.194
33514W        W99945   9.908  18.172   0.287
33515W        W99946  28.352   1.908  10.150
33516W        W99947  24.151  17.393   1.309
33517W        W99948  10.264  38.346  13.929
33518W        W99949  32.016  32.974   4.369
33519W        W99950   8.383  27.138   4.489
33520W        W99951  16.554  16.918   4.846
33521W        W99952   7.235  27.051   0.046
33522W        W99953  36.638  27.222  12.146
33523W        W99954  14.627  37.755   3.662
33524W        W99955   5.244  10.791  12.909
33525W        W99956  15.123   6.721  14.851
33526W        W99957  17.802  21.048   2.262
33527W        W99958  25.033  12.920  13.810
33528W        W99959  18.702  28.662  12.989
33529W        W99960   0.706   3.591   1.490
33530W        W99961  44.761  10.372   1.815
33531W        W99962  15.100   9.466   0.727
33532W        W99963  43.518  36.486   4.182
33533W        W99964  17.556   3.428   0.924
33534W        W99965   0.901   7.267  12.537
33535W        W99966   5.670  12.185   3.628
33536W        W99967  38.734  15.505   5.188
33537W        W99968   5.662  22.926  10.680
33538W        W99969   9.736  27.693   2.811
33539W        W99970  42.388  36.304   3.294
33540W        W99971   6.264  38.077  13.334
33541W        W99972   5.266  31.577  10.664
33542W        W99973  37.314  35.149   2.261
33543W        W99974   6.494   9.737   3.750
33544W        W99975  15.742  28.882  10.221
33545W        W99976  15.048  29.018   1.258
33546W        W99977  42.685  26.511   2.317
33547W        W99978  26.546   9.667   4.777
33548W        W99979  36.909  27.445   4.534
33549W        W99980  40.303   9.011   4.005
33550W        W99981  31.049  22.190  11.179
33551W        W99982   9.367   1.114   4.407
33552W        W99983  38.858  17.622  13.125
33553W        W99984   0.772  30.081  11.019
33554W        W99985  11.019  18.711  12.644
33555W        W99986  42.390  40.614   0.149
33556W        W99987   9.585  34.940  13.040
33557W        W99988   3.444  44.619   3.356
33558W        W99989   1.513  36.147  14.400
33559W        W99990  31.478   3.641   2.828
33560W        W99991  37.531  14.635  11.823
33561W        W99992  42.801  27.248   0.446
33562W        W99993   7.375  13.765   1.391
33563W        W99994  34.794  26.054  14.805
33564W        W99995  38.443  26.609  11.587
33565W        W99996  37.145  43.480   0.884
33566W        W99997  23.469  33.360   4.152
33567W        W99998  28.508  18.454  12.872
33568W        W99999   7.103  13.142   1.344
33569W        W    0  42.702   7.260  11.554
33570W        W    1  25.073  19.175  12.316
33571W        W    2  17.758  15.539   3.152
33572W        W    3  11.339   6.565   0.349
33573W        W    4  31.946  27.375  14.866
33574W        W    5  20.986   0.573   0.969
33575W        W    6  42.754  41.827   1.679
33576W        W    7  36.050  28.212   2.863
33577W        W    8  42.534  38.865  12.438
33578W        W    9  10.682  24.773   0.260
33579W        W   10  16.766  35.787  13.636
33580W        W   11   0.955  35.408   3.801
33581W        W   12  32.942  44.034  14.472
33582W        W   13  24.675  42.003  12.682
33583W        W   14  34.589  26.828   0.806
33584W        W   15  12.372  23.923  12.519
33585W        W   16  27.051  38.835   2.713
33586W        W   17   6.275  19.820  11.566
33587W        W   18   9.235  44.826  10.932
33588W        W   19  37.720  10.837  11.581
33589W        W   20  15.117  44.929   0.303
33590W        W   21   9.265  40.947  11.060
33591W        W   22  24.994  24.793  11.636
33592W        W   23  22.041  26.517   2.770
33593W        W   24  20.151  16.317  14.007
33594W        W   25   8.421  15.591  13.564
33595W        W   26   4.852  12.989   4.930
33596W        W   27  33.461  44.748   2.791
33597W        W   28  36.191  42.846  10.431
33598W        W   29  24.444  30.640  12.039
33599W        W   30  41.037   8.243   2.559
33600W        W   31  17.823   6.127   3.333
33601W        W   32  13.153  23.799   3.706
33602W        W   33  35.120  15.801  14.883
33603W        W   34  28.441  36.569   1.359
33604W        W   35  34.943  33.494  11.149
33605W        W   36  16.231  10.646   0.893
33606W        W   37   7.722   4.847  12.512
33607W        W   38  29.798   7.910   4.947
33608W        W   39  14.847  13.274   3.261
33609W        W   40   4.906  21.330  14.304
33610W        W   41  22.929   7.261  12.152
33611W        W   42  21.273  24.235   2.853
33612W        W   43   9.890  33.964   0.523
33613W        W   44   7.165  24.489  13.525
33614W        W   45  24.087  10.832  14.906
33615W        W   46  42.974   5.474   3.304
33616W        W   47  22.247  39.185  12.883
33617W        W   48   7.368   4.011   0.908
33618W        W   49  36.075  22.000   0.330
33619W        W   50  21.493  12.232  12.665
33620W        W   51  44.869  44.460   3.328
33621W        W   52   7.752  31.469   1.720
33622W        W   53   0.064  27.841  11.463
33623W        W   54  12.189  13.366   1.313
33624W        W   55  12.145  38.165  13.436
33625W        W   56  36.395   1.014  11.584
33626W        W   57  32.413  41.973  11.431
33627W        W   58  31.352   5.250  12.046
33628W        W   59  22.046  37.878  14.485
33629W        W   60  20.717   2.026  12.310
33630W        W   61  32.831  42.474   4.517
33631W        W   62  25.534  28.618  14.293
33632W        W   63  41.524  18.652  11.985
33633W        W   64  14.331  26.823   1.718
33634W        W   65  18.859  24.490  10.786
33635W        W   66  15.598  11.097   2.076
33636W        W   67  25.958   0.694   3.742
33637W        W   68  26.211  41.042  14.694
33638W        W   69  34.081   2.576  13.308
33639W        W   70  38.950  42.096   4.175
33640W        W   71   8.130  21.001  11.293
33641W        W   72  44.978  14.014   1.014
33642W        W   73  13.643  24.658  12.190
33643W        W   74  13.768  36.059   3.875
33644W        W   75  37.870   0.163   4.211
33645W        W   76  37.405  36.281   4.853
33646W        W   77  11.187   5.200   1.224
33647W        W   78  26.611  31.550  12.441
33648W        W   79  41.244  37.318   3.188
33649W        W   80   0.799   2.292  10.753
33650W        W   81  11.537   1.430  13.966
33651W        W   82   8.677  34.692  11.873
33652W        W   83   3.018  14.909   3.944
33653W        W   84  33.612  40.341   3.714
33654W        W   85  31.962  40.275   4.666
33655W        W   86   2.892  19.701  11.154
33656W        W   87  25.677   8.281  11.212
33657W        W   88  21.148   6.264   0.329
33658W        W   89  38.403  42.597  10.601
33659W        W   90  40.043  28.217   5.170
33660W        W   91   1.260   3.854  11.673
33661W        W   92  15.276  26.708  13.993
33662W        W   93  10.353  14.730  11.674
33663W        W   94  23.961  32.697  12.862
33664W        W   95  24.583  20.134  11.901
33665W        W   96  34.355  44.895  12.938
33666W        W   97  18.764  22.558   4.382
33667W        W   98  41.719  42.930   1.804
33668W        W   99  33.673  22.518   2.355
33669W        W  100  24.005  25.594   3.620
33670W        W  101  26.540  25.413   3.288
33671W        W  102  34.472  23.434   3.606
33672W        W  103  30.735  21.254   0.880
33673W        W  104  33.175  19.134  14.022
33674W        W  105  19.428  33.444  13.741
33675W        W  106   5.313  23.984  12.389
33676W        W  107  37.813  29.651  14.781
33677W        W  108   6.655  38.398   3.202
33678W        W  109  11.492  40.809   2.345
33679W        W  110  22.558  26.610   2.650
33680W        W  111  17.515  39.975   1.198
33681W        W  112   0.223   8.330  13.800
33682W        W  113  12.639  17.104  13.430
33683W        W  114  31.762   5.877  10.638
33684W        W  115   2.482  21.000  14.948
33685W        W  116  27.826   0.225  13.159
33686W        W  117   8.289  27.794   1.296
33687W        W  118  11.740  39.291   3.166
33688W        W  119  41.350  20.782   3.183
33689W        W  120  40.538  30.614   4.534
33690W        W  121   1.253  23.699   3.188
33691W        W  122  23.114  32.154   0.282
33692W        W  123  38.125  15.177   2.845
33693W        W  124  13.125  11.824  12.921
33694W        W  125  34.538   1.218  14.876
33695W        W  126  41.405  32.200   1.878
33696W        W  127  41.941  35.498   3.246
33697W        W  128  22.461  25.938  12.464
33698W        W  129  28.674  27.591  11.592
33699W        W  130  39.761  28.617  13.012
33700W        W  131  37.048  28.947  14.512
33701W        W  132  28.048  12.527  11.498
33702W        W  133  24.699   5.235  14.084
33703W        W  134  39.330  25.621  11.292
33704W        W  135  12.074  36.915  11.218
33705W        W  136  37.082  26.664   2.747
33706W        W  137  14.842  45.000   0.815
33707W        W  138   4.774  27.439   4.081
33708W        W  139   1.232   1.829   2.631
33709W        W  140  37.006  14.879   4.045
33710W        W  141  38.646  38.122   0.967
33711W        W  142  41.228   0.199   3.646
33712W        W  143  14.731  34.455   1.138
33713W        W  144   6.017  11.637   5.142
33714W        W  145  19.255  11.844  14.830
33715W        W  146  18.057  25.476  14.905
33716W        W  147  39.041  34.592   1.850
33717W        W  148  42.487  21.007   3.315
33718W        W  149   5.335  14.848  12.203
33719W        W  150  37.610   6.810  12.056
33720W        W  151  38.873  38.508   2.177
33721W        W  152   0.489  25.066  12.063
33722W        W  153  16.913  21.113   1.462
33723W        W  154  34.966  26.278   1.240
33724W        W  155  36.104  31.138   1.160
33725W        W  156   1.809  15.009   4.580
33726W        W  157  30.102  14.665  13.198
33727W        W  158  29.599  19.348  14.589
33728W        W  159  28.853   7.158   3.483
33729W        W  160  40.362  41.100  12.423
33730W        W  161  14.333   2.497   0.488
33731W        W  162  31.715  39.901  14.897
33732W        W  163  39.062   6.459  12.018
33733W        W  164  18.938  17.786   0.795
33734W        W  165  43.079  22.807   2.015
33735W        W  166  15.296  21.091   4.552
33736W        W  167  20.696   1.532   3.188
33737W        W  168  38.134   6.400   1.851
33738W        W  169   6.285  20.638   1.045
33739W        W  170  20.009   4.574  13.560
33740W        W  171  36.999  26.182  10.695
33741W        W  172  10.460  35.897   1.670
33742W        W  173  31.165  36.325  11.275
33743W        W  174  31.494  24.291   4.256
33744W        W  175  10.460  40.385   1.050
33745W        W  176  20.038  21.515  11.667
33746W        W  177  30.048  34.373   3.804
33747W        W  178  31.247  28.021   2.618
33748W        W  179  22.747   7.426   2.593
33749W        W  180  12.617   9.287   4.671
33750W        W  181  29.031   3.606   0.453
33751W        W  182  17.365   2.301   3.199
33752W        W  183   4.930  19.064  13.518
33753W        W  184  10.716  15.623  10.222
33754W        W  185  19.290  12.896   4.613
33755W        W  186  43.566  20.968  14.405
33756W        W  187  18.546  41.287  13.617
33757W        W  188   8.166  38.611  13.039
33758W        W  189  13.798  18.048  14.747
33759W        W  190  43.958  30.440  11.934
33760W        W  191  31.054   0.256  12.569
33761W        W  192  27.316  32.599   2.367
33762W        W  193   0.817  44.483   0.503
33763W        W  194  37.392  26.991  12.593
33764W        W  195  27.228   5.289   2.350
33765W        W  196  14.634  40.846   0.654
33766W        W  197   9.126  43.531   0.943
33767W        W  198   7.249  32.032  10.556
33768W        W  199   0.272  42.010  12.180
33769W        W  200  31.483  19.638  10.463
33770W        W  201   3.146   2.484   4.156
33771W        W  202   9.670  42.587  13.978
33772W        W  203  30.311  25.964   1.718
33773W        W  204  27.892  25.735  14.920
33774W        W  205  34.122  17.688  11.412
33775W        W  206  38.870  22.719  11.908
33776W        W  207  28.097  28.428  14.969
33777W        W  208  15.423  11.710   4.944
33778W        W  209  11.644   2.001   1.614
33779W        W  210  26.325   9.697   1.914
33780W        W  211  33.036  19.490   1.815
33781W        W  212  39.473   5.965  14.349
33782W        W  213  41.110  27.571  11.594
33783W        W  214  12.376   1.247  14.381
33784W        W  215  33.853  33.489  10.368
33785W        W  216  33.877  41.372  14.441
33786W        W  217   9.535  13.819   0.317
33787W        W  218  36.458   8.298   1.857
33788W        W  219  33.936  28.724  13.060
33789W        W  220  23.289  11.551  10.665
33790W        W  221   0.455  43.386   4.532
33791W        W  222  16.093  22.398  12.569
33792W        W  223   8.664   0.849   2.835
33793W        W  224   8.202  36.409  14.440
33794W        W  225  23.031  11.214   0.775
33795W        W  226  37.854  14.903   3.274
33796W        W  227  44.870   2.351   3.189
33797W        W  228  40.571  13.908  12.055
33798W        W  229   5.183  44.442   1.765
33799W        W  230  35.874   8.967  13.824
33800W        W  231   8.355  23.894  11.198
33801W        W  232  32.196  30.221  13.003
33802W        W  233  40.427   2.919   3.155
33803W        W  234   3.923  24.719  13.877
33804W        W  235  35.117  37.277   2.572
33805W        W  236  15.200  25.782  14.855
33806W        W  237   9.584  42.871  13.105
33807W        W  238  29.859  20.464  10.978
33808W        W  239   7.640  24.482   0.956
33809W        W  240  29.032   7.120  11.676
33810W        W  241   7.876  21.560  13.423
33811W        W  242  29.532  32.636   4.545
33812W        W  243  17.540  43.369  11.634
33813W        W  244  44.320  28.899  10.279
33814W        W  245  30.469  22.046  13.965
33815W        W  246  20.372  34.832  11.529
33816W        W  247   7.755   4.174   2.895
33817W        W  248  38.664  12.267  13.467
33818W        W  249  34.595  40.288   2.839
33819W        W  250  15.629  10.934  13.587
33820W        W  251  20.198  37.849   1.441
33821W        W  252   1.377   7.978  13.503
33822W        W  253  16.142   1.608  14.041
33823W        W  254  14.728  23.334   3.184
33824W        W  255  30.624   3.357   1.394
33825W        W  256  22.888   7.250  14.871
33826W        W  257  16.170  40.304   2.527
33827W        W  258   7.248  21.021   1.903
33828W        W  259   3.872  19.617   0.302
33829W        W  260  15.679  10.305  11.550
33830W        W  261   8.748  20.981   1.909
33831W        W  262  34.321   7.642   2.272
33832W        W  263   4.828  19.227  14.092
33833W        W  264  37.147  34.514   2.164
33834W        W  265   4.568  20.052  13.730
33835W        W  266  22.099  14.244  14.837
33836W        W  267  16.962  23.139  10.262
33837W        W  268   5.750   6.275   1.844
33838W        W  269  13.595  20.546   2.844
33839W        W  270  27.223  25.016   1.898
33840W        W  271   9.307  18.231  13.914
33841W        W  272  16.684  40.020   4.532
33842W        W  273  33.469  25.060  11.844
33843W        W  274  19.527   5.167   3.119
33844W        W  275  42.869   6.655  13.560
33845W        W  276  33.528  31.181  13.282
33846W        W  277   9.194  25.705   1.981
33847W        W  278  41.993   7.185   2.073
33848W        W  279  31.459  15.305  11.382
33849W        W  280  21.672  29.116   2.236
33850W        W  281  42.200  29.565  11.597
33851W        W  282  27.470  37.048   3.736
33852W        W  283  26.054  27.491  13.579
33853W        W  284   8.548  40.417  11.920
33854W        W  285   9.659  16.288   5.521
33855W        W  286  25.923   7.015  12.657
33856W        W  287   1.249  40.477  11.534
33857W        W  288  26.550  31.338  12.910
33858W        W  289  18.052  10.397   3.714
33859W        W  290  29.208  16.453  14.149
33860W        W  291  40.982   4.711   1.356
33861W        W  292  40.666   8.221  14.307
33862W        W  293  21.445  19.451  10.255
33863W        W  294  31.961  33.392  14.440
33864W        W  295  15.742  28.480   3.266
33865W        W  296   5.236  25.184   4.554
33866W        W  297  35.384  23.775   0.733
33867W        W  298  24.140   1.383   1.191
33868W        W  299  26.688   1.504   0.311
33869W        W  300  16.850  23.031   4.937
33870W        W  301  44.788  19.197  12.996
33871W        W  302  25.335   9.633   2.889
33872W        W  303  31.189  17.569  13.103
33873W        W  304   6.907   3.472  13.943
33874W        W  305  17.274   1.066  13.891
33875W        W  306   0.263  38.915  11.141
33876W        W  307  17.366   0.200  13.484
33877W        W  308  32.656  28.446   0.485
33878W        W  309   7.731  34.548  13.422
33879W        W  310  40.963   2.040  12.449
33880W        W  311   1.721  37.524   0.705
33881W        W  312   4.789  41.983   1.300
33882W        W  313  18.048   5.875  10.453
33883W        W  314  21.756   5.352   4.200
33884W        W  315  26.815  27.610  12.862
33885W        W  316  28.729  25.674   4.590
33886W        W  317  33.276  17.124   1.958
33887W        W  318  25.596  19.984   4.597
33888W        W  319   2.992  18.058  14.556
33889W        W  320  13.393  30.572   2.231
33890W        W  321  28.886  32.132  10.769
33891W        W  322  38.008   1.833  12.140
33892W        W  323  42.215  24.572   2.672
33893W        W  324  30.056  26.019   4.181
33894W        W  325   7.690  32.125   0.038
33895W        W  326  26.625  37.027  12.447
33896W        W  327   6.961  39.634  12.103
33897W        W  328  43.613  24.123   0.563
33898W        W  329  33.595   4.725  12.011
33899W        W  330  43.693  25.656   0.267
33900W        W  331  12.699  29.165  12.035
33901W        W  332  43.627  36.821   3.682
33902W        W  333  17.834  27.473  14.827
33903W        W  334  24.097  13.181   1.797
33904W        W  335  43.880  42.493   3.739
33905W        W  336   0.408   4.054   3.237
33906W        W  337   3.341  20.287  12.928
33907W        W  338  33.774  38.838  12.775
33908W        W  339   8.925   2.969   2.676
33909W        W  340  35.028   0.199   3.778
33910W        W  341  28.677   3.294   4.593
33911W        W  342   1.709  15.642  12.151
33912W        W  343  26.240  17.305  14.990
33913W        W  344  33.813   9.225  11.895
33914W        W  345  11.524  18.114   3.260
33915W        W  346  10.434   7.249   2.034
33916W        W  347   8.468   8.240  12.033
33917W        W  348   4.198  44.429   0.413
33918W        W  349  18.845   4.885  12.306
33919W        W  350  27.342  41.816  14.018
33920W        W  351  24.650  43.118   3.284
33921W        W  352  10.935  42.918   0.965
33922W        W  353  10.257  40.032  12.165
33923W        W  354  28.513  39.362  11.710
33924W        W  355  41.504  16.596   2.674
33925W        W  356  16.900  34.664   4.027
33926W        W  357  18.332  44.251   2.173
33927W        W  358  43.254  15.288   4.400
33928W        W  359  10.566   8.542   1.269
33929W        W  360   0.337   3.953   3.733
33930W        W  361   3.340  27.485   4.052
33931W        W  362  34.632  44.288   4.336
33932W        W  363  12.120  10.880   1.583
33933W        W  364  15.159  12.347   0.154
33934W        W  365   6.900   1.802  12.151
33935W        W  366  18.807  21.217  12.156
33936W        W  367  17.361  28.092  10.169
33937W        W  368  28.417  24.563  14.447
33938W        W  369  18.117   4.321  11.435
33939W        W  370  21.054  20.442   4.676
33940W        W  371  32.418  42.367   0.848
33941W        W  372  27.947  25.840  10.766
33942W        W  373  24.199  27.746  13.059
33943W        W  374  40.387  14.307   3.739
33944W        W  375  41.750  25.756   4.181
33945W        W  376  12.393  35.163   2.608
33946W        W  377   6.692   4.893   4.064
33947W        W  378  10.098   9.821   2.807
33948W        W  379  38.066  34.167   5.212
33949W        W  380   6.465   8.326  13.414
33950W        W  381   7.653  30.291  12.618
33951W        W  382  43.410  21.744   4.074
33952W        W  383  19.239  43.505  14.149
33953W        W  384  33.499  20.242   2.645
33954W        W  385  33.501  31.085   2.617
33955W        W  386   5.792  40.437   4.566
33956W        W  387  12.647  43.604   0.427
33957W        W  388  42.591   9.545  13.976
33958W        W  389   6.373  20.734  12.638
33959W        W  390  44.752   3.640  13.403
33960W        W  391  17.449  17.226   1.262
33961W        W  392  20.707  13.687   9.731
33962W        W  393   4.322   4.657  14.429
33963W        W  394   0.739  19.803   0.422
33964W        W  395  32.957  38.803  11.024
33965W        W  396  38.930  30.673   2.332
33966W        W  397  12.003   8.922   2.245
33967W        W  398  29.445  27.442  12.005
33968W        W  399  33.960  43.238  10.753
33969W        W  400  12.723  19.975   2.716
33970W        W  401  26.907   5.319   1.198
33971W        W  402  15.729  10.451   1.465
33972W        W  403  39.752  26.636   1.684
33973W        W  404  36.949  36.798   1.637
33974W        W  405  36.553  27.020   4.261
33975W        W  406   5.609   5.863   1.033
33976W        W  407  39.772  15.655   0.846
33977W        W  408  17.193  25.131   5.025
33978W        W  409  29.197  29.612   4.294
33979W        W  410  42.858  42.306   4.394
33980W        W  411  34.865  23.989  12.100
33981W        W  412  21.889  23.600  13.071
33982W        W  413   9.967   0.892   3.937
33983W        W  414  40.396  29.888   4.114
33984W        W  415  33.356   5.137   4.209
33985W        W  416  15.299   2.147   3.094
33986W        W  417  35.307  17.132  13.210
33987W        W  418  42.868   0.964   3.907
33988W        W  419  36.652  41.759   0.362
33989W        W  420  38.341  23.010  11.151
33990W        W  421  15.108  29.758   0.941
33991W        W  422  30.703  35.617   4.517
33992W        W  423  39.522  26.889  11.126
33993W        W  424  33.145  14.846  14.824
33994W        W  425  23.961  40.865  12.061
33995W        W  426  40.006  15.210  11.293
33996W        W  427  44.297   1.234  14.766
33997W        W  428   1.658  40.611  13.969
33998W        W  429  41.003  20.194   3.299
33999W        W  430  41.004  10.705  14.928
34000W        W  431  14.042   2.104   1.829
34001W        W  432  31.367  20.115  13.082
34002W        W  433  42.077  14.337   2.829
34003W        W  434  13.214  40.929   0.818
34004W        W  435  41.359   0.203  13.332
34005W        W  436  29.175  24.025  13.081
34006W        W  437   4.103  15.185   3.104
34007W        W  438   0.019   0.460  12.095
34008W        W  439  38.609   0.566  12.840
34009W        W  440  40.983  27.921   2.212
34010W        W  441  43.901  16.936   0.927
34011W        W  442  41.962  22.090  11.026
34012W        W  443  10.820  20.602  14.873
34013W        W  444   4.728  36.517   2.591
34014W        W  445  18.154  30.070   3.846
34015W        W  446  27.320  14.012  12.048
34016W        W  447  23.089  14.624   1.237
34017W        W  448  22.996  33.497  12.251
34018W        W  449  15.677  44.720  11.031
34019W        W  450  16.193  20.337  10.740
34020W        W  451   4.294  18.437  11.914
34021W        W  452  21.070  39.300   1.242
34022W        W  453  30.691  27.441  11.568
34023W        W  454  26.691  21.379   5.083
34024W        W  455  13.752  33.628  14.278
34025W        W  456  13.805  26.502  14.193
34026W        W  457   1.237  10.166   3.843
34027W        W  458  30.739  42.765  12.021
34028W        W  459  31.425  35.810  12.171
34029W        W  460  32.514   1.892   3.911
34030W        W  461  28.838   4.701   1.773
34031W        W  462  40.355  18.591  14.397
34032W        W  463   2.887  14.743  12.393
34033W        W  464  11.742  20.740   0.199
34034W        W  465   7.367  23.709   0.313
34035W        W  466  23.351  23.742  14.307
34036W        W  467  37.170  12.928   0.315
34037W        W  468  35.219  24.623   2.424
34038W        W  469  28.418  31.857   3.247
34039W        W  470  29.464   8.672  12.954
34040W        W  471  22.901  25.629  14.826
34041W        W  472  19.118  26.056  12.347
34042W        W  473  15.472   2.553   4.110
34043W        W  474  33.022  20.615  13.117
34044W        W  475  25.134  25.681  13.423
34045W        W  476  33.686  28.287   4.180
34046W        W  477   0.029   9.834  10.585
34047W        W  478  31.654   1.895  14.336
34048W        W  479  14.293  17.241  10.596
34049W        W  480  35.251  39.687  10.557
34050W        W  481  10.275  43.532   0.135
34051W        W  482   3.178  15.330  10.188
34052W        W  483  41.381   2.819   0.717
34053W        W  484   3.339  39.840  14.836
34054W        W  485  29.064  43.512   0.066
34055W        W  486   2.045  16.236  10.886
34056W        W  487  17.103  23.864   0.788
34057W        W  488  18.393   3.291  12.969
34058W        W  489  38.824  31.480   5.472
34059W        W  490  44.858  25.162   0.817
34060W        W  491  29.552   4.388  11.854
34061W        W  492  24.387  25.486   4.416
34062W        W  493   9.737  29.573   1.077
34063W        W  494   3.198  40.055   1.176
34064W        W  495  16.966  40.967  14.519
34065W        W  496  28.890  10.387   2.274
34066W        W  497  14.366   7.541  13.827
34067W        W  498  29.681  22.068  10.748
34068W        W  499  24.686  23.600  10.470
34069W        W  500  18.734  35.132   1.569
34070W        W  501   2.453  10.829  13.413
34071W        W  502  19.740  28.393  13.956
34072W        W  503   0.258  25.964  14.027
34073W        W  504  17.374  36.544   4.118
34074W        W  505  35.101  30.942   0.547
34075W        W  506  21.522  21.015  11.901
34076W        W  507  32.372  11.258   2.391
34077W        W  508  44.783  19.001  11.183
34078W        W  509  14.809  17.188  11.596
34079W        W  510  38.799  23.668   2.771
34080W        W  511  15.538  28.028  14.757
34081W        W  512  43.053  35.865   0.915
34082W        W  513   5.837   9.908  10.694
34083W        W  514   7.281   6.299  13.478
34084W        W  515  10.266  11.917   4.785
34085W        W  516  19.589  34.020   3.573
34086W        W  517  21.153  11.313  12.595
34087W        W  518   3.833  43.848   1.376
34088W        W  519   7.646  26.361   3.361
34089W        W  520  44.667  27.765   2.109
34090W        W  521  39.406   6.197   4.266
34091W        W  522  41.045  32.997   3.399
34092W        W  523  16.333  24.130   3.227
34093W        W  524  35.588  17.791   0.436
34094W        W  525  33.884  11.338  11.953
34095W        W  526  26.646  20.668  11.412
34096W        W  527  26.923   9.716  11.520
34097W        W  528  29.643  24.625  11.122
34098W        W  529  20.518  36.443  14.463
34099W        W  530  29.564  31.851  10.259
34100W        W  531  36.351  44.695   2.662
34101W        W  532  30.911   8.339  14.275
34102W        W  533  31.051   5.427   9.612
34103W        W  534  28.890  10.599   2.775
34104W        W  535  21.267   8.218  11.638
34105W        W  536  40.169  17.060  10.789
34106W        W  537  28.892  42.862   1.744
34107W        W  538  33.398  12.736  12.161
34108W        W  539  27.025  20.721   0.480
34109W        W  540  44.825  44.742   4.516
34110W        W  541  24.116  15.645  14.518
34111W        W  542  11.782   5.793  13.451
34112W        W  543  12.786  29.590  12.364
34113W        W  544   6.319  43.075  13.890
34114W        W  545   2.547   8.999  14.810
34115W        W  546   3.459  11.799   2.112
34116W        W  547   0.871   8.756   1.820
34117W        W  548   2.579  32.538  12.331
34118W        W  549  16.757  21.637   1.801
34119W        W  550  30.556   3.351  13.769
34120W        W  551  14.661  23.035   3.605
34121W        W  552  30.598  33.478   1.714
34122W        W  553  40.266  19.609  13.520
34123W        W  554   9.077  30.040  11.075
34124W        W  555  27.760   5.298  11.578
34125W        W  556   8.905  33.073  11.979
34126W        W  557  42.956  44.335  12.184
34127W        W  558  10.692  27.272   1.872
34128W        W  559  26.027  42.150  13.883
34129W        W  560  38.895  19.565  12.439
34130W        W  561  20.703   4.661  13.805
34131W        W  562  24.903  44.519   3.008
34132W        W  563  12.096  10.121   2.305
34133W        W  564  15.337  16.743   1.386
34134W        W  565  25.492   8.683   2.320
34135W        W  566  19.441  24.649  14.451
34136W        W  567  37.182  13.798  14.788
34137W        W  568  14.566  22.547  14.876
34138W        W  569   2.836  41.835  12.272
34139W        W  570   8.298  19.131   1.680
34140W        W  571  38.353  29.039   4.591
34141W        W  572  10.281  26.473   1.865
34142W        W  573  26.430   8.168  14.475
34143W        W  574  26.957  43.882  11.949
34144W        W  575  22.638  26.094   2.872
34145W        W  576  17.607   5.380   4.376
34146W        W  577  19.330  23.550   0.952
34147W        W  578  20.310  36.240  12.462
34148W        W  579   6.674  39.560  12.522
34149W        W  580  18.176  44.353  12.912
34150W        W  581  22.307   7.424  10.584
34151W        W  582  20.295   8.346   4.809
34152W        W  583  42.850   5.787   0.881
34153W        W  584  37.687   7.828   2.234
34154W        W  585   9.293  29.157  13.950
34155W        W  586  41.447  19.275  13.910
34156W        W  587  18.432  40.335  11.112
34157W        W  588  10.465  23.140  12.070
34158W        W  589   3.630  19.792   3.199
34159W        W  590  41.889  26.479   3.655
34160W        W  591  31.417  38.108  14.858
34161W        W  592   6.966  18.204  11.996
34162W        W  593   8.451  10.179  12.410
34163W        W  594   5.580   2.483   4.285
34164W        W  595  10.688   2.736  12.700
34165W        W  596  35.588  39.860   1.669
34166W        W  597  34.137  14.277   4.820
34167W        W  598  39.937  43.742   3.753
34168W        W  599  37.636  19.278   4.488
34169W        W  600  43.345   1.918  13.753
34170W        W  601  44.236  33.081  14.769
34171W        W  602  17.270  36.132  13.935
34172W        W  603   3.695  20.037   3.882
34173W        W  604  34.006   7.845  13.182
34174W        W  605  44.453  14.604  11.300
34175W        W  606  29.359   9.723  10.665
34176W        W  607  11.810  37.851   4.312
34177W        W  608  26.949   1.159  11.091
34178W        W  609   9.881   2.083   0.895
34179W        W  610  43.795   5.220   4.453
34180W        W  611  41.028  21.560   1.282
34181W        W  612   3.355  32.665  13.515
34182W        W  613  13.864  12.975   0.822
34183W        W  614  13.382  43.181  11.605
34184W        W  615  41.847   1.990  13.545
34185W        W  616  38.998  26.537   1.235
34186W        W  617   0.905  24.249   4.083
34187W        W  618   7.326  20.653  14.560
34188W        W  619  43.749  43.776  10.685
34189W        W  620  24.573  42.716  14.893
34190W        W  621  30.903  28.027  13.578
34191W        W  622  20.136  16.912   5.214
34192W        W  623   3.337  13.734   0.791
34193W        W  624  19.276   2.975   1.322
34194W        W  625  10.184  23.722  11.805
34195W        W  626  22.588  26.471   1.641
34196W        W  627  25.853  14.298  13.498
34197W        W  628   1.468  18.773   2.202
34198W        W  629  25.215  24.983   1.802
34199W        W  630   0.464  24.967   2.787
34200W        W  631  34.478   7.934  12.335
34201W        W  632  26.134  14.550   0.737
34202W        W  633  26.028  25.591   2.098
34203W        W  634  38.881  18.750  11.146
34204W        W  635  38.453  26.448   2.912
34205W        W  636  39.441   8.868  11.124
34206W        W  637  31.558  15.372  10.698
34207W        W  638  27.653  24.101  14.525
34208W        W  639  16.621   5.200   2.045
34209W        W  640   4.310  11.657   0.664
34210W        W  641  24.418  33.160  10.720
34211W        W  642  10.465   3.501  11.444
34212W        W  643  20.196  31.949   0.760
34213W        W  644  18.187   7.224  11.091
34214W        W  645  34.532   3.829   3.804
34215W        W  646  28.234  33.010  12.032
34216W        W  647  28.085  41.791   1.244
34217W        W  648  26.967   8.979  10.265
34218W        W  649  36.933  42.414  13.135
34219W        W  650  42.478  30.495   1.204
34220W        W  651  33.454  15.289  11.780
34221W        W  652  10.889  35.403  12.929
34222W        W  653  17.159  32.430   2.152
34223W        W  654  32.337  12.679   1.959
34224W        W  655  14.661   0.041  13.602
34225W        W  656   5.340  18.141   4.491
34226W        W  657   2.808   5.126  13.785
34227W        W  658  27.231   7.246  10.332
34228W        W  659  44.223  35.493  12.144
34229W        W  660   5.781  43.605   2.147
34230W        W  661  40.320  21.393   2.840
34231W        W  662  38.436  35.874  11.746
34232W        W  663  23.175   8.006  12.562
34233W        W  664  31.496   0.980  12.469
34234W        W  665   6.302  34.088  10.528
34235W        W  666  11.778  44.890   0.704
34236W        W  667  12.564  24.117   1.888
34237W        W  668  30.883  43.308  14.103
34238W        W  669  37.633  42.651   2.950
34239W        W  670  43.764   3.378   1.319
34240W        W  671  12.200  20.871   5.060
34241W        W  672  33.051  39.746   3.731
34242W        W  673  22.528  32.074   2.425
34243W        W  674  29.074   0.191  11.221
34244W        W  675   7.336   4.507   4.066
34245W        W  676  29.557  43.050   2.178
34246W        W  677   4.318  21.239  11.132
34247W        W  678  44.364  14.798   3.702
34248W        W  679  34.305  12.538  12.713
34249W        W  680  20.956  43.518  13.997
34250W        W  681  41.147  36.481   3.100
34251W        W  682  44.810  28.526   1.514
34252W        W  683   5.880  43.437  14.879
34253W        W  684  33.399   3.940   1.789
34254W        W  685  37.809  35.094   1.182
34255W        W  686   6.092   8.629  10.791
34256W        W  687  37.910  31.103   3.586
34257W        W  688   0.738  26.198  13.902
34258W        W  689  16.740  15.243   0.035
34259W        W  690  29.671   2.485  11.949
34260W        W  691  11.226  42.304   3.958
34261W        W  692  20.955  15.593  13.463
34262W        W  693  41.329  20.499  12.960
34263W        W  694  18.875  39.441   3.361
34264W        W  695   5.306  11.877   3.831
34265W        W  696  15.133  35.205  11.650
34266W        W  697  44.239  35.019  10.499
34267W        W  698  25.884  23.570   1.460
34268W        W  699  31.045  42.540  14.433
34269W        W  700  33.769  13.650   1.769
34270W        W  701  34.324  12.292  14.345
34271W        W  702  27.046   5.653   0.307
34272W        W  703  33.874  27.723   2.583
34273W        W  704  24.479  10.108   0.916
34274W        W  705  38.816  35.000  13.328
34275W        W  706   5.976  38.451  13.574
34276W        W  707   0.748   6.865  13.915
34277W        W  708  29.407  24.038  12.023
34278W        W  709  34.188   9.239   3.179
34279W        W  710   3.888  39.098  10.225
34280W        W  711  34.935   9.401   0.804
34281W        W  712   6.188  29.647   2.751
34282W        W  713  17.173   5.441   3.667
34283W        W  714   1.246   8.044  10.824
34284W        W  715  37.786  21.269  11.256
34285W        W  716  29.623  32.946  14.398
34286W        W  717  29.636  20.473  14.897
34287W        W  718  28.616  39.499  10.234
34288W        W  719  39.358  16.120  12.058
34289W        W  720   9.335   0.846   2.986
34290W        W  721  25.315  33.759   3.825
34291W        W  722   9.254  28.214   4.126
34292W        W  723  35.191   0.551   4.153
34293W        W  724  18.960  42.183  14.785
34294W        W  725  33.302   6.986  12.499
34295W        W  726  31.998   6.251   2.800
34296W        W  727  25.259  24.417   3.272
34297W        W  728  12.406  12.272   2.125
34298W        W  729  25.042  15.811  13.791
34299W        W  730  44.784  31.546   3.140
34300W        W  731  25.309   1.752  13.054
34301W        W  732  14.830  20.588   1.669
34302W        W  733  13.096  43.985   3.040
34303W        W  734  35.880  40.714   2.087
34304W        W  735  21.821   9.470   1.371
34305W        W  736   9.664  39.865   3.158
34306W        W  737  31.797  20.764   2.424
34307W        W  738   0.852  24.999  11.252
34308W        W  739   5.293  13.366   0.354
34309W        W  740  17.911  25.240  12.433
34310W        W  741   9.177  33.355   1.892
34311W        W  742  29.559  41.839   0.444
34312W        W  743  10.778  17.256   4.407
34313W        W  744  37.381  29.930  13.862
34314W        W  745  42.283  35.363  12.344
34315W        W  746  36.678  36.870   4.594
34316W        W  747   9.705   9.883   4.875
34317W        W  748  40.197  44.245   3.210
34318W        W  749   5.360  31.603  14.849
34319W        W  750  23.544  18.733  14.379
34320W        W  751  20.060  42.915   1.085
34321W        W  752  35.001  43.212  12.031
34322W        W  753   5.440  17.298  14.936
34323W        W  754  37.579  15.667   3.617
34324W        W  755  34.913   3.717  11.652
34325W        W  756  24.243  25.031   1.921
34326W        W  757  26.475   9.171   3.164
34327W        W  758  29.422  35.700   2.207
34328W        W  759  33.596  41.768   3.632
34329W        W  760   3.543  12.369  12.102
34330W        W  761  41.910  16.510   4.819
34331W        W  762  14.721  17.125   2.287
34332W        W  763   6.467  35.736   3.515
34333W        W  764  25.534  40.864   2.153
34334W        W  765  36.125  18.733  11.982
34335W        W  766   3.480  35.917  11.514
34336W        W  767   7.373  22.236  14.537
34337W        W  768  37.662  33.261   4.568
34338W        W  769  32.977  31.338  14.348
34339W        W  770  33.976  10.553   2.688
34340W        W  771  26.446  29.017  12.536
34341W        W  772  20.274   8.677   1.334
34342W        W  773  14.070  15.041  11.051
34343W        W  774  29.432  28.257  14.593
34344W        W  775  27.729   4.376   0.953
34345W        W  776  25.637  41.543  10.182
34346W        W  777   2.808  30.595   4.749
34347W        W  778  27.417  35.253  13.994
34348W        W  779  17.694  26.485   0.809
34349W        W  780  32.229  30.884   2.365
34350W        W  781  17.083   7.484  12.242
34351W        W  782  20.657  10.751  13.611
34352W        W  783  34.150  28.041  14.884
34353W        W  784  14.378  31.960  12.341
34354W        W  785  39.082  42.289   4.670
34355W        W  786  27.639  23.690  10.737
34356W        W  787  20.184  10.138   4.049
34357W        W  788  26.019   1.321   3.199
34358W        W  789  15.304  13.593  12.017
34359W        W  790  10.452  38.833  13.918
34360W        W  791  27.621   1.190   2.269
34361W        W  792   4.258  20.370  14.526
34362W        W  793  18.466  41.022  10.641
34363W        W  794  24.016  24.745   2.505
34364W        W  795  19.715  35.605  10.964
34365W        W  796  10.643   2.997   3.677
34366W        W  797  27.629   4.344   4.246
34367W        W  798  17.301  22.601  12.911
34368W        W  799   2.795  26.778  12.088
34369W        W  800  36.265  13.894   3.303
34370W        W  801  25.077  40.465  10.070
34371W        W  802  23.244  26.940  13.837
34372W        W  803  24.795  13.764   0.303
34373W        W  804  30.425  35.596  12.974
34374W        W  805   9.877  14.172  10.628
34375W        W  806  11.734  24.573   3.619
34376W        W  807  29.552  34.859  12.095
34377W        W  808  40.606   6.227  10.733
34378W        W  809  26.064  14.244  10.565
34379W        W  810  23.128   0.461  11.051
34380W        W  811  43.656  32.230   4.303
34381W        W  812  43.376  24.578  11.080
34382W        W  813   9.987  17.174   3.678
34383W        W  814  13.649  31.454   3.464
34384W        W  815  34.982  44.206  10.784
34385W        W  816  20.804  29.176  13.873
34386W        W  817  13.084   5.346   3.778
34387W        W  818   5.903  17.969  11.229
34388W        W  819   3.485  38.447  10.730
34389W        W  820   0.029  34.837  13.969
34390W        W  821  29.430   5.924  14.788
34391W        W  822  36.957  21.061   3.896
34392W        W  823  18.150  33.771   3.802
34393W        W  824  29.225  19.266   4.653
34394W        W  825   4.571  31.438   2.403
34395W        W  826  19.233  21.182   3.122
34396W        W  827  39.013  38.582   3.546
34397W        W  828   8.369  18.460   0.695
34398W        W  829  32.548  11.574  13.661
34399W        W  830  36.980  21.481   1.206
34400W        W  831  36.456   6.221  14.012
34401W        W  832   6.633  33.991  14.059
34402W        W  833  26.265   7.864  13.868
34403W        W  834  40.384  38.600  13.451
34404W        W  835  33.413  32.881  14.936
34405W        W  836  24.221  13.964  14.356
34406W        W  837  19.386  36.562  10.589
34407W        W  838   2.691  27.931  10.759
34408W        W  839  30.095  24.688   4.623
34409W        W  840   8.169  12.682   4.745
34410W        W  841  38.601  11.105  14.323
34411W        W  842  16.185  36.800  13.053
34412W        W  843  28.674  25.180   1.534
34413W        W  844  20.222   2.206  12.287
34414W        W  845  34.850   0.392   2.352
34415W        W  846   7.782   7.420   3.738
34416W        W  847   0.935  27.272  13.603
34417W        W  848   7.124  38.814  14.931
34418W        W  849  29.909  14.763  11.159
34419W        W  850  12.997  24.060  12.035
34420W        W  851  17.739   7.025   3.376
34421W        W  852  33.201  42.460   4.164
34422W        W  853   1.218   3.928  14.792
34423W        W  854  15.200  22.643   3.842
34424W        W  855  40.198  41.359   0.990
34425W        W  856   0.140  18.682  14.873
34426W        W  857  19.648  10.920  10.808
34427W        W  858   6.180  16.589   1.342
34428W        W  859  30.552  33.602  13.458
34429W        W  860  34.392  32.333  12.916
34430W        W  861  22.780   0.819   0.347
34431W        W  862  33.536   2.287   0.253
34432W        W  863   9.703  24.616   1.621
34433W        W  864  38.279  24.862   4.357
34434W        W  865  36.659  21.762  10.769
34435W        W  866  40.827   1.732   1.211
34436W        W  867  36.428  21.669  11.220
34437W        W  868  37.057  18.054  11.585
34438W        W  869  34.644   6.167  12.890
34439W        W  870   4.111  23.577  11.100
34440W        W  871  20.270   7.913  13.184
34441W        W  872  35.367  17.356  11.511
34442W        W  873  21.994  28.415   0.686
34443W        W  874  22.570  25.523   1.932
34444W        W  875  19.595  10.358  10.814
34445W        W  876  30.164  10.236  12.482
34446W        W  877  14.171  41.889   0.813
34447W        W  878  27.001  32.224   0.712
34448W        W  879  34.962  13.101   1.767
34449W        W  880  21.015  16.434  14.992
34450W        W  881  16.634  32.664   3.361
34451W        W  882  35.027  37.584   4.007
34452W        W  883   9.108  27.843   1.845
34453W        W  884   9.929   3.665  11.086
34454W        W  885   5.362  27.091   1.720
34455W        W  886  32.040  40.249   0.452
34456W        W  887  16.193   1.916   3.422
34457W        W  888   4.853  22.352  14.442
34458W        W  889  34.868  15.806   5.168
34459W        W  890  43.470   1.875   0.421
34460W        W  891  30.871   6.274  12.044
34461W        W  892  40.778  19.568   2.776
34462W        W  893  30.092  39.920   1.071
34463W        W  894  34.992  13.284  12.427
34464W        W  895  12.139  13.559   2.383
34465W        W  896  30.122  12.486   1.846
34466W        W  897  26.443  16.322  14.868
34467W        W  898   0.349  17.773  12.582
34468W        W  899  36.165  10.363  11.119
34469W        W  900  20.201  29.019   4.024
34470W        W  901   5.429  24.466   0.353
34471W        W  902  30.199   6.169   2.387
34472W        W  903   4.347  33.574  12.317
34473W        W  904  39.217  25.951  14.064
34474W        W  905   3.242   1.375   4.642
34475W        W  906  22.230  15.317   0.783
34476W        W  907  42.373   7.588  11.374
34477W        W  908  16.241  37.652  12.599
34478W        W  909  36.564  25.092  10.131
34479W        W  910  36.119  41.866   1.275
34480W        W  911  14.167  22.661  12.127
34481W        W  912  15.502  11.521   3.783
34482W        W  913  35.748  29.132  13.889
34483W        W  914   6.771  21.828   3.808
34484W        W  915  18.347  43.783  14.701
34485W        W  916  16.096  17.041  12.444
34486W        W  917   3.630  32.885  10.190
34487W        W  918   0.385  44.409  13.597
34488W        W  919  20.774  23.638   0.020
34489W        W  920  20.958  10.851   0.702
34490W        W  921  41.518  44.454  14.709
34491W        W  922  34.572  19.462  13.923
34492W        W  923  36.058   1.261  12.572
34493W        W  924  36.378   2.738  12.922
34494W        W  925  34.090  42.720   3.691
34495W        W  926  14.909  36.000   4.871
34496W        W  927  15.323   1.988  11.157
34497W        W  928  11.653  16.710   1.418
34498W        W  929  43.962  38.218  14.403
34499W        W  930   2.528   6.649   1.517
34500W        W  931  31.904  44.878  14.228
34501W        W  932   4.416  33.038  12.064
34502W        W  933   5.725   3.270  11.937
34503W        W  934  21.485  16.826   3.166
34504W        W  935  22.154  44.353  11.217
34505W        W  936  26.134  20.318   4.528
34506W        W  937  31.960  36.947   3.354
34507W        W  938  43.046  15.242  14.030
34508W        W  939   6.992   2.357  13.308
34509W        W  940   1.867  41.895  11.718
34510W        W  941  31.111  34.535   3.223
34511W        W  942  39.833  33.338  11.144
34512W        W  943  23.085   6.737  13.348
34513W        W  944  11.156  20.373  11.038
34514W        W  945  13.800  37.501   5.105
34515W        W  946  25.157  36.029   0.976
34516W        W  947  23.168  26.178   4.912
34517W        W  948  20.982  26.860   0.874
34518W        W  949  22.525  28.417  11.166
34519W        W  950   4.868  36.291   4.706
34520W        W  951  20.173  18.472   2.274
34521W        W  952  40.057  13.023   4.080
34522W        W  953  36.348  29.574   1.342
34523W        W  954  10.750  41.901  13.878
34524W        W  955  29.100   0.831   0.748
34525W        W  956   3.815  21.451  13.471
34526W        W  957  22.097  44.935   4.619
34527W        W  958  40.568  28.353  11.396
34528W        W  959  25.963  32.414  14.471
34529W        W  960  10.619   4.440   2.288
34530W        W  961  22.680  18.247   2.010
34531W        W  962  41.543  31.809  12.356
34532W        W  963  34.856   6.868  14.738
34533W        W  964  32.405  36.788  10.785
34534W        W  965  22.213  36.599  12.482
34535W        W  966  39.940  25.576  12.515
34536W        W  967   4.389  19.887  13.177
34537W        W  968  25.105   9.840  12.035
34538W        W  969  40.966  17.690  12.923
34539W        W  970  24.456  14.095   4.205
34540W        W  971  29.836   3.817  14.573
34541W        W  972  16.475  12.653   5.263
34542W        W  973  28.913   6.444   1.212
34543W        W  974  17.768  13.218   0.440
34544W        W  975  35.554  39.452   0.717
34545W        W  976  13.339  33.441  11.567
34546W        W  977  36.280  24.962  12.060
34547W        W  978  33.132   0.506   1.787
34548W        W  979  20.601  20.292  12.673
34549W        W  980  30.526  32.527  12.523
34550W        W  981  12.682  35.694   4.121
34551W        W  982  28.989  19.020  13.460
34552W        W  983  18.686  10.701  11.997
34553W        W  984   3.193  11.212   0.381
34554W        W  985  44.229  40.169   0.322
34555W        W  986   6.193  15.340  11.032
34556W        W  987   2.041  35.673  12.110
34557W        W  988  42.516  28.665  14.309
34558W        W  989  26.226   7.812   3.934
34559W        W  990  30.402  36.062  13.772
34560W        W  991   5.707   2.773   2.198
34561W        W  992  32.972   7.193   3.771
34562W        W  993   6.027  43.262  12.418
34563W        W  994   7.667  37.567   2.126
34564W        W  995  39.948  11.153   3.745
34565W        W  996   8.221  33.192  11.832
34566W        W  997  20.220  17.413  10.616
34567W        W  998  20.724  18.611   0.498
34568W        W  999  41.439  30.415   0.974
34569W        W 1000  39.876  20.547  13.435
34570W        W 1001   1.117  36.263   3.610
34571W        W 1002  32.913  14.268  13.032
34572W        W 1003   9.192  35.372   1.451
34573W        W 1004   4.855  32.926  10.670
34574W        W 1005   9.922  32.771  11.187
34575W        W 1006   1.728  33.060   2.076
34576W        W 1007  28.514  40.565   4.274
34577W        W 1008   4.228  14.064   4.079
34578W        W 1009  29.061   3.949   5.071
34579W        W 1010  44.516  43.814  11.951
34580W        W 1011  24.639  18.829   3.329
34581W        W 1012  15.539  37.355  10.589
34582W        W 1013  43.928   3.196  14.192
34583W        W 1014  37.104  28.351  13.432
34584W        W 1015  20.289   0.476   0.281
34585W        W 1016  23.973  12.757  11.819
34586W        W 1017  27.198  41.445   4.604
34587W        W 1018  40.102  32.036   0.008
34588W        W 1019   4.536  38.295   2.799
34589W        W 1020   2.987  40.838  11.536
34590W        W 1021  23.120  39.049   1.572
34591W        W 1022  21.248   1.779  10.799
34592W        W 1023  27.798   4.393   4.733
34593W        W 1024  28.082  17.603  12.092
34594W        W 1025  21.626   2.278  14.283
34595W        W 1026   8.734  25.710  12.474
34596W        W 1027   3.229   9.385  13.029
34597W        W 1028  25.946  37.084   4.072
34598W        W 1029  36.171  15.448  12.568
34599W        W 1030   2.849   1.688  11.062
34600W        W 1031  24.252  11.811  11.470
34601W        W 1032  21.661  13.546  13.407
34602W        W 1033  24.234   2.485   0.271
34603W        W 1034  33.670  23.200  12.015
34604W        W 1035  14.206  28.716  12.411
34605W        W 1036  41.827  21.475  11.095
34606W        W 1037  17.266  40.012  13.420
34607W        W 1038  43.296  23.997  14.555
34608W        W 1039  17.087  24.583  14.257
34609W        W 1040  15.821  41.487  14.973
34610W        W 1041  42.215  20.107   1.843
34611W        W 1042  37.916  36.511  10.778
34612W        W 1043  24.033  21.752   5.306
34613W        W 1044  11.832   8.257   0.901
34614W        W 1045  44.279  28.861   3.757
34615W        W 1046  14.601  10.285  11.635
34616W        W 1047  40.947  13.367   1.866
34617W        W 1048  40.535  33.707   2.144
34618W        W 1049   1.258  16.437   0.981
34619W        W 1050   7.131  14.119  13.423
34620W        W 1051  10.880   0.336   2.736
34621W        W 1052  41.398  43.280  10.811
34622W        W 1053   2.741   8.459   3.676
34623W        W 1054  37.856   3.268  12.080
34624W        W 1055  28.540  13.371  11.231
34625W        W 1056  10.925  22.093   3.729
34626W        W 1057  11.375   6.983   3.523
34627W        W 1058  21.905  17.840   0.370
34628W        W 1059   2.908  41.380  13.096
34629W        W 1060  22.624  18.274  12.962
34630W        W 1061  32.424  15.770  10.671
34631W        W 1062  24.701  40.368  13.502
34632W        W 1063  42.995  13.143   3.026
34633W        W 1064  22.598  10.727  11.395
34634W        W 1065  41.408   7.416   2.773
34635W        W 1066  28.366  11.135  10.776
34636W        W 1067  41.761  22.573   4.457
34637W        W 1068  29.560   9.192  12.977
34638W        W 1069   0.486  29.801  12.392
34639W        W 1070   7.483  33.558   2.895
34640W        W 1071  31.305  39.924  12.445
34641W        W 1072  42.261  43.673  11.207
34642W        W 1073  18.524  22.802   2.713
34643W        W 1074  33.349  41.064  14.837
34644W        W 1075  14.810  33.702  13.104
34645W        W 1076  33.009  25.628   0.400
34646W        W 1077  21.545  35.780  11.418
34647W        W 1078  36.324  23.385  10.330
34648W        W 1079  37.524  23.577   1.788
34649W        W 1080  21.611  16.088   2.824
34650W        W 1081   5.868  10.432  10.636
34651W        W 1082   1.341   9.804  11.307
34652W        W 1083  20.805  42.501  14.748
34653W        W 1084  12.580  44.925  10.736
34654W        W 1085  14.893  34.390   0.643
34655W        W 1086  13.378  36.910  12.425
34656W        W 1087   6.483  32.035   5.223
34657W        W 1088  41.977   9.006   1.636
34658W        W 1089  20.682  42.931  13.540
34659W        W 1090   2.334  39.888  14.042
34660W        W 1091   1.784   1.785   3.197
34661W        W 1092   6.650   5.144   3.580
34662W        W 1093   9.788   7.428   3.305
34663W        W 1094  26.534   2.638  13.080
34664W        W 1095   3.323  33.327  11.404
34665W        W 1096  21.573  22.506  12.418
34666W        W 1097  19.340  14.276  14.166
34667W        W 1098  30.970   3.931  14.112
34668W        W 1099  10.328  16.200  10.864
34669W        W 1100  37.941  35.406   2.905
34670W        W 1101   8.891   2.528  14.915
34671W        W 1102  18.452  24.813  10.675
34672W        W 1103  25.954  32.942   3.505
34673W        W 1104  34.643  34.495   3.041
34674W        W 1105  34.038  26.467   4.161
34675W        W 1106   3.787  41.636   0.353
34676W        W 1107  10.828  26.426  12.483
34677W        W 1108  30.220  18.086   0.407
34678W        W 1109   0.633  22.889   5.071
34679W        W 1110  13.840  41.286  11.142
34680W        W 1111  31.848  40.542  13.846
34681W        W 1112  21.146  22.085  10.663
34682W        W 1113  21.266   8.102  12.157
34683W        W 1114  31.203   7.482  12.561
34684W        W 1115   4.429   9.336   3.261
34685W        W 1116  24.780   5.691   4.215
34686W        W 1117  24.913  17.812  10.818
34687W        W 1118  21.683   9.675  14.547
34688W        W 1119  28.627  16.295   2.883
34689W        W 1120   9.210  23.680   2.359
34690W        W 1121  42.494   0.523   3.291
34691W        W 1122  27.269  20.882   3.221
34692W        W 1123  23.807   8.484  13.224
34693W        W 1124  13.737  37.682  11.154
34694W        W 1125   0.127  36.093  10.424
34695W        W 1126   4.706  23.021  10.741
34696W        W 1127  39.311  20.462  13.979
34697W        W 1128  41.867  24.748   1.765
34698W        W 1129   0.847   1.932   2.266
34699W        W 1130  33.422  28.088   1.708
34700W        W 1131  24.091  22.234   0.485
34701W        W 1132  23.251  12.116  13.719
34702W        W 1133   4.299  33.625  12.843
34703W        W 1134  12.055  13.432  14.128
34704W        W 1135  42.001  34.127   3.433
34705W        W 1136  12.200  11.707  11.349
34706W        W 1137  20.850   8.894  12.952
34707W        W 1138  36.607  19.058   0.987
34708W        W 1139  33.651  21.234  11.439
34709W        W 1140  23.752  21.062   3.948
34710W        W 1141  36.451   6.902  10.596
34711W        W 1142  42.543  13.311  14.473
34712W        W 1143  32.015  20.096  12.463
34713W        W 1144  18.613  34.727  10.770
34714W        W 1145   6.949  18.555   3.249
34715W        W 1146  36.069  26.720  14.277
34716W        W 1147  31.031   4.377   1.819
34717W        W 1148  40.708  22.538  14.401
34718W        W 1149   2.698  20.104  13.779
34719W        W 1150   0.300  36.634   3.732
34720W        W 1151  23.626  38.469  13.051
34721W        W 1152  33.037   4.482  14.096
34722W        W 1153  14.304  41.993   4.366
34723W        W 1154  17.497   7.940  11.614
34724W        W 1155  23.508  14.840   1.856
34725W        W 1156  19.500  31.915   4.995
34726W        W 1157  21.547  42.026  10.311
34727W        W 1158   7.821  41.265   0.679
34728W        W 1159  37.357  43.864  14.698
34729W        W 1160  42.634  23.021   1.846
34730W        W 1161  10.673  20.033  13.405
34731W        W 1162  26.607  39.354  13.236
34732W        W 1163  27.689  34.931  14.301
34733W        W 1164  19.779  17.245  13.848
34734W        W 1165   3.816   1.011   2.170
34735W        W 1166  43.847   3.835  13.764
34736W        W 1167  43.397  20.263   3.699
34737W        W 1168  13.874  19.768   3.288
34738W        W 1169  16.871  39.733   2.350
34739W        W 1170  39.286  18.177   2.833
34740W        W 1171   9.622  27.902  11.099
34741W        W 1172   9.734  10.382   2.051
34742W        W 1173  34.661  23.201   1.297
34743W        W 1174   4.497  16.766   9.921
34744W        W 1175  42.821  14.120   3.254
34745W        W 1176  42.889   6.874   4.468
34746W        W 1177  28.541  19.472  11.972
34747W        W 1178  23.065   8.339  11.209
34748W        W 1179  14.204  20.129   0.473
34749W        W 1180  23.383   5.133   2.623
34750W        W 1181  12.843  29.901   1.423
34751W        W 1182  44.438  26.238   3.164
34752W        W 1183  36.572   6.965  13.128
34753W        W 1184  19.007   2.812   1.745
34754W        W 1185  27.088   0.867  10.613
34755W        W 1186  20.765  14.323  12.990
34756W        W 1187  31.727  24.514  14.940
34757W        W 1188  40.793   9.668   2.339
34758W        W 1189   1.823  15.822   0.999
34759W        W 1190   7.631  36.578  10.728
34760W        W 1191  39.895  13.785   4.338
34761W        W 1192   4.779   3.667   0.527
34762W        W 1193   3.530   4.415  12.513
34763W        W 1194   0.159   9.667  12.396
34764W        W 1195  35.477  17.585  11.981
34765W        W 1196  21.176   6.326   4.594
34766W        W 1197  13.180  29.448   3.670
34767W        W 1198  14.779  38.207   4.589
34768W        W 1199  38.233  28.090   0.751
34769W        W 1200   8.001  14.531   1.626
34770W        W 1201  28.103   4.872   4.648
34771W        W 1202  41.443  10.808   1.310
34772W        W 1203  11.610   4.858   1.711
34773W        W 1204   4.809  44.306  12.510
34774W        W 1205  40.955  37.050  10.747
34775W        W 1206  41.958  43.331  14.724
34776W        W 1207  19.179  11.141   4.401
34777W        W 1208  34.683  44.577  12.548
34778W        W 1209  22.272   9.316  14.907
34779W        W 1210  31.081  13.413   3.308
34780W        W 1211  36.287  42.812  13.119
34781W        W 1212  38.794  23.041  12.968
34782W        W 1213  39.162  44.606  14.807
34783W        W 1214  41.830   2.265   2.635
34784W        W 1215  10.188  20.181  13.402
34785W        W 1216  24.111  20.767   1.314
34786W        W 1217  22.327   0.301  11.581
34787W        W 1218   8.378  30.164   1.757
34788W        W 1219  19.950  31.801  11.524
34789W        W 1220  28.933  34.262   1.157
34790W        W 1221  44.078  13.052  13.603
34791W        W 1222  26.831  30.959   5.117
34792W        W 1223  15.443  28.447   3.704
34793W        W 1224  30.489   5.709  13.986
34794W        W 1225  27.706   7.575   4.216
34795W        W 1226  35.164   9.285  12.992
34796W        W 1227   5.713   2.329   2.466
34797W        W 1228   7.751  43.442  13.995
34798W        W 1229  12.421  30.057   4.178
34799W        W 1230   3.572  22.229   3.211
34800W        W 1231  17.469  13.573   1.822
34801W        W 1232   9.939  16.462   0.751
34802W        W 1233  34.216  36.884  14.761
34803W        W 1234  43.835  42.499   2.231
34804W        W 1235  44.426  40.539  11.385
34805W        W 1236  27.695  41.835  12.621
34806W        W 1237  33.924  10.593  12.502
34807W        W 1238  17.028  10.540   2.185
34808W        W 1239  30.174   9.740   1.025
34809W        W 1240  40.946  29.206   0.469
34810W        W 1241  28.404   1.388  14.386
34811W        W 1242  22.087   2.594   4.843
34812W        W 1243  43.243  26.403  13.358
34813W        W 1244  40.948  29.836  10.611
34814W        W 1245  19.818   9.309   3.208
34815W        W 1246   0.862  23.440  13.953
34816W        W 1247  44.351   6.615   4.666
34817W        W 1248  37.996  21.122   2.128
34818W        W 1249   1.366  19.535  11.418
34819W        W 1250   5.955  22.894  12.139
34820W        W 1251  21.017  42.938  14.497
34821W        W 1252  42.082   2.932  14.452
34822W        W 1253  40.505  31.395   1.838
34823W        W 1254  41.162  42.926  14.889
34824W        W 1255   3.904  33.966  12.976
34825W        W 1256  23.245  29.055  11.925
34826W        W 1257   0.494  19.594   0.866
34827W        W 1258  43.903  20.488  11.607
34828W        W 1259  44.992  17.118  14.472
34829W        W 1260  13.414  34.093  12.494
34830W        W 1261  21.157  24.766   2.870
34831W        W 1262  30.613   3.298   1.935
34832W        W 1263  29.018   5.168   0.465
34833W        W 1264   2.448  30.871  12.962
34834W        W 1265  23.562  43.770  12.580
34835W        W 1266  25.693  18.116   2.708
34836W        W 1267  35.941  28.640  13.889
34837W        W 1268  40.002  16.777   1.080
34838W        W 1269  42.556  39.550   3.379
34839W        W 1270  12.016  11.323  11.600
34840W        W 1271  28.120   8.690   0.795
34841W        W 1272   9.991  14.210   3.620
34842W        W 1273  33.464   7.200   1.280
34843W        W 1274  16.761   0.984  13.829
34844W        W 1275  39.668  29.278   3.136
34845W        W 1276  26.139  26.724   0.419
34846W        W 1277  22.901  25.671  12.583
34847W        W 1278  34.984  40.001   1.307
34848W        W 1279  15.024  40.805   2.086
34849W        W 1280   1.274  44.961   1.819
34850W        W 1281  24.630  32.421   1.257
34851W        W 1282  44.531  42.723  12.049
34852W        W 1283  14.653  25.000  14.512
34853W        W 1284   6.312  16.661  14.500
34854W        W 1285  25.597  22.442   1.124
34855W        W 1286  32.348  18.681   1.827
34856W        W 1287   7.862   4.998  14.128
34857W        W 1288  38.875  35.122  14.672
34858W        W 1289  17.189  22.507   3.341
34859W        W 1290  10.717  38.581  14.331
34860W        W 1291  17.753  37.278  13.962
34861W        W 1292   5.296  10.216  12.890
34862W        W 1293   2.528  21.858  13.822
34863W        W 1294  29.379   7.357   2.849
34864W        W 1295  38.847  16.789   4.817
34865W        W 1296  43.020  43.047  14.735
34866W        W 1297  38.914  44.366  11.689
34867W        W 1298  31.928  22.661   2.341
34868W        W 1299   2.823  24.149  12.780
34869W        W 1300  23.262  29.579  12.507
34870W        W 1301   4.528  20.178   3.345
34871W        W 1302  30.661  44.490  13.467
34872W        W 1303   9.663  24.078   3.726
34873W        W 1304  30.523  37.034   0.441
34874W        W 1305  44.901  41.000   2.382
34875W        W 1306  20.681  27.747   3.091
34876W        W 1307  42.016   1.434  14.381
34877W        W 1308  34.329  41.658  13.516
34878W        W 1309  43.850  21.659   1.805
34879W        W 1310   8.408  41.545  11.122
34880W        W 1311  19.642  10.139  13.907
34881W        W 1312   9.751  15.950  12.902
34882W        W 1313  13.376  16.714  13.173
34883W        W 1314  13.167   3.422   1.325
34884W        W 1315  44.997  32.156   0.402
34885W        W 1316  19.179  16.203   2.276
34886W        W 1317  23.738  15.062  12.301
34887W        W 1318  18.244  26.940   4.347
34888W        W 1319   5.119  24.483   1.365
34889W        W 1320  26.563  22.716  12.640
34890W        W 1321  42.482  22.624   0.811
34891W        W 1322   5.967   3.191   3.887
34892W        W 1323   5.406   7.079  12.953
34893W        W 1324  37.038  29.763   1.439
34894W        W 1325   0.369  26.334   4.869
34895W        W 1326  19.059  36.701   5.664
34896W        W 1327  19.553   0.370  10.932
34897W        W 1328   4.224  20.458  11.557
34898W        W 1329  36.250  29.586  14.491
34899W        W 1330  33.925   7.238   3.395
34900W        W 1331  39.912   3.361   1.186
34901W        W 1332  17.280  22.870   0.839
34902W        W 1333  24.968  11.900   1.088
34903W        W 1334  23.282  42.847   2.740
34904W        W 1335  28.161  18.279   4.546
34905W        W 1336  31.048  44.034  10.665
34906W        W 1337  11.394   0.256   0.712
34907W        W 1338  22.231  33.031  14.409
34908W        W 1339   1.255  28.960  10.494
34909W        W 1340  24.679  12.984  11.920
34910W        W 1341  19.100  19.492   0.305
34911W        W 1342   8.460   6.125  12.769
34912W        W 1343  40.428  38.568   9.925
34913W        W 1344   9.969  16.143   1.147
34914W        W 1345   6.820  19.754  13.657
34915W        W 1346  27.858  28.470  12.480
34916W        W 1347   3.924  10.919  12.356
34917W        W 1348   8.893  30.166  12.375
34918W        W 1349  28.107  14.665  11.561
34919W        W 1350  14.712  17.639  11.868
34920W        W 1351  26.780  29.959   0.336
34921W        W 1352  36.662  31.693  13.374
34922W        W 1353  42.575  41.338   4.728
34923W        W 1354  40.992  21.488  14.365
34924W        W 1355   1.971  14.901  12.595
34925W        W 1356   4.935  38.833   4.968
34926W        W 1357   6.392  31.555   0.770
34927W        W 1358   0.423  24.385   4.225
34928W        W 1359   9.782  27.972  12.558
34929W        W 1360  16.771  34.043  13.739
34930W        W 1361   0.262   8.860  14.442
34931W        W 1362  22.237  39.734  12.067
34932W        W 1363  41.940  35.021  12.194
34933W        W 1364   9.360  40.380  10.035
34934W        W 1365   0.857  37.537   3.702
34935W        W 1366   4.848  15.207  14.255
34936W        W 1367  42.582  23.515   9.985
34937W        W 1368  14.273   7.370  12.407
34938W        W 1369  36.073  12.044   2.943
34939W        W 1370  31.881  30.545   4.778
34940W        W 1371   8.550  12.931   4.471
34941W        W 1372   8.894  17.054   1.197
34942W        W 1373  30.631  35.872  13.360
34943W        W 1374  19.712  29.943   3.227
34944W        W 1375   4.485  34.639   1.598
34945W        W 1376  29.842  34.022  13.022
34946W        W 1377   3.854  18.331  14.027
34947W        W 1378  37.426  16.275   3.269
34948W        W 1379  43.023  31.227  14.931
34949W        W 1380   8.303   4.943   2.852
34950W        W 1381  34.924  21.006   4.701
34951W        W 1382  19.357  39.375   9.972
34952W        W 1383  33.298  28.339  12.167
34953W        W 1384  40.905  34.007   2.386
34954W        W 1385  12.879  18.618   0.948
34955W        W 1386  21.648  20.252   1.213
34956W        W 1387  17.071   2.487   2.743
34957W        W 1388   8.571  40.214   1.372
34958W        W 1389   0.004  25.610  14.914
34959W        W 1390  17.669  23.400  13.938
34960W        W 1391  37.314  20.550   2.421
34961W        W 1392  16.644  39.868   1.431
34962W        W 1393   0.081  34.779   2.593
34963W        W 1394  40.315  34.876  13.334
34964W        W 1395  21.727  23.602  11.603
34965W        W 1396   8.832  21.556  14.412
34966W        W 1397  10.691  25.428   2.385
34967W        W 1398  19.218   9.707  12.269
34968W        W 1399  34.321  17.374   3.517
34969W        W 1400  39.251  23.575  14.887
34970W        W 1401   9.341  33.433  12.219
34971W        W 1402  18.294  12.007   3.979
34972W        W 1403  15.361  15.735  13.551
34973W        W 1404   0.270  14.696  11.052
34974W        W 1405  25.100  18.554  14.047
34975W        W 1406  35.511  29.408   4.227
34976W        W 1407  16.537  28.232   2.673
34977W        W 1408  25.666   3.124  13.050
34978W        W 1409   0.931   8.119  11.239
34979W        W 1410  34.390  12.372  11.417
34980W        W 1411  44.778  34.853  10.477
34981W        W 1412   6.953  11.531   4.100
34982W        W 1413  40.359  33.612  14.190
34983W        W 1414  14.125  13.865  14.766
34984W        W 1415  40.396   7.503  12.052
34985W        W 1416  15.290  25.239  12.064
34986W        W 1417  41.825  24.913   0.916
34987W        W 1418  15.237  11.089  13.927
34988W        W 1419   2.852   7.878   1.425
34989W        W 1420  43.998  19.536  11.978
34990W        W 1421  10.453  28.382  14.769
34991W        W 1422  22.353  21.751   0.748
34992W        W 1423  39.890  17.784   3.646
34993W        W 1424  30.029   7.502   0.993
34994W        W 1425  20.401   2.645   4.212
34995W        W 1426  30.916  12.786   5.050
34996W        W 1427  42.004  32.995   1.955
34997W        W 1428  36.488  25.071   0.276
34998W        W 1429  15.339  28.610   0.800
34999W        W 1430   0.897  28.182   0.579
35000W        W 1431  10.786   8.775  12.992
35001W        W 1432  13.597   8.181  14.828
35002W        W 1433  31.221  36.961   1.647
35003W        W 1434   4.176  23.599   0.799
35004W        W 1435  26.474  35.397   2.525
35005W        W 1436  22.358  39.836  13.399
35006W        W 1437  41.326  18.957  13.071
35007W        W 1438   1.762  32.524  12.036
35008W        W 1439  13.317  19.642  11.380
35009W        W 1440  22.001  10.029   4.059
35010W        W 1441  27.954  31.381  13.245
35011W        W 1442  43.520   5.413   1.216
35012W        W 1443  28.668   1.493  11.488
35013W        W 1444  20.087   8.792  10.347
35014W        W 1445  11.602   5.063   0.932
35015W        W 1446  30.483  28.700   4.312
35016W        W 1447  24.275  21.154   2.667
35017W        W 1448  16.184  40.585   1.314
35018W        W 1449  32.960  11.202  10.640
35019W        W 1450  19.641  40.008  14.432
35020W        W 1451  17.762  19.974   4.143
35021W        W 1452  21.610   0.924  10.752
35022W        W 1453  17.063  24.009   3.631
35023W        W 1454  35.578   6.660  10.720
35024W        W 1455  39.545  26.709  14.497
35025W        W 1456   3.550  21.596  11.420
35026W        W 1457   7.341  24.192   0.492
35027W        W 1458  26.673   4.431   2.549
35028W        W 1459   0.638  21.543  11.090
35029W        W 1460  17.549  41.053  11.457
35030W        W 1461  19.853  25.194   2.124
35031W        W 1462  30.957  39.706  11.148
35032W        W 1463  22.927  16.635   4.311
35033W        W 1464   9.729  44.710  13.959
35034W        W 1465  22.010   1.269   2.839
35035W        W 1466  39.249  12.231   3.972
35036W        W 1467   8.918   4.824  13.645
35037W        W 1468  38.939   6.318  14.103
35038W        W 1469  23.839  38.990   0.002
35039W        W 1470  20.023  36.893  11.205
35040W        W 1471   1.486  34.312  10.750
35041W        W 1472   4.944  35.394  11.915
35042W        W 1473  14.614  21.066   1.697
35043W        W 1474  10.892   3.233  13.056
35044W        W 1475  41.053  20.303  10.774
35045W        W 1476  17.568   5.749  10.696
35046W        W 1477  28.608  15.949  10.608
35047W        W 1478  38.956  43.798  11.650
35048W        W 1479  43.960  16.665   2.460
35049W        W 1480  40.410  19.069  11.707
35050W        W 1481  26.017  40.258   4.666
35051W        W 1482  24.022  16.923  14.917
35052W        W 1483  14.388   2.629   0.984
35053W        W 1484  27.126  39.978  13.312
35054W        W 1485  20.819  41.384   2.758
35055W        W 1486  44.387   9.977  13.565
35056W        W 1487  11.744  35.549  14.003
35057W        W 1488  30.941   5.934  14.876
35058W        W 1489  18.086  33.792  10.767
35059W        W 1490  24.893  10.351   0.708
35060W        W 1491  22.279  34.121  12.359
35061W        W 1492  24.558  12.811   4.728
35062W        W 1493  37.585  32.488  11.888
35063W        W 1494  15.598  21.098   2.882
35064W        W 1495  16.922  12.687   4.024
35065W        W 1496   0.911  27.959  11.148
35066W        W 1497   3.403  25.161  13.875
35067W        W 1498  19.955  34.895  11.854
35068W        W 1499  39.851   8.198   1.919
35069W        W 1500  34.438   7.628   0.970
35070W        W 1501   9.911  42.003   1.817
35071W        W 1502  32.132  27.686  12.077
35072W        W 1503  28.863  15.627   0.891
35073W        W 1504   4.394   1.258   1.251
35074W        W 1505  31.145  36.554   3.176
35075W        W 1506  39.331  25.645   1.765
35076W        W 1507   6.198   4.853  11.240
35077W        W 1508  43.861  26.997  13.521
35078W        W 1509  30.596  34.367  12.836
35079W        W 1510  19.458   8.518  10.969
35080W        W 1511  44.944  33.560  13.434
35081W        W 1512  25.340   4.972  13.518
35082W        W 1513  17.395  17.840  12.245
35083W        W 1514   7.088  19.227   4.394
35084W        W 1515  15.355   0.875   2.129
35085W        W 1516  23.460   4.529   0.834
35086W        W 1517   5.374  15.690   3.134
35087W        W 1518   7.497  18.257   0.569
35088W        W 1519  41.191   3.906  11.939
35089W        W 1520  29.595   7.110   2.356
35090W        W 1521  42.561  36.340  10.723
35091W        W 1522  33.602   4.910   4.628
35092W        W 1523  44.923   7.933  14.787
35093W        W 1524   7.220  12.169  14.353
35094W        W 1525  25.465  23.944  14.161
35095W        W 1526  34.956  15.668   0.706
35096W        W 1527  21.561  38.032   0.676
35097W        W 1528  21.578  17.246   4.527
35098W        W 1529  25.707  29.687  13.654
35099W        W 1530  28.288  21.008   0.471
35100W        W 1531  31.986  21.973   0.871
35101W        W 1532  13.832  13.156  13.966
35102W        W 1533  25.965  38.921   2.839
35103W        W 1534  41.357  33.131   0.027
35104W        W 1535  33.245  35.169   0.273
35105W        W 1536  32.041  25.684   5.080
35106W        W 1537  22.930   1.968  12.335
35107W        W 1538   3.984  31.651  11.683
35108W        W 1539  31.959  22.473  14.762
35109W        W 1540  26.554  10.337   1.291
35110W        W 1541  29.720  37.727   2.808
35111W        W 1542   8.597  31.428   4.010
35112W        W 1543  35.119  28.403  12.956
35113W        W 1544   5.737  26.761   1.580
35114W        W 1545  29.026  32.545   1.821
35115W        W 1546   3.772   8.295   4.288
35116W        W 1547  28.264   9.137   0.483
35117W        W 1548   9.720  36.627  12.064
35118W        W 1549  30.489  20.938   3.997
35119W        W 1550   2.193  22.019  12.059
35120W        W 1551  31.085  43.242   2.229
35121W        W 1552  39.280   8.194   4.129
35122W        W 1553  33.361  23.012   0.806
35123W        W 1554  39.003  41.725   1.299
35124W        W 1555  13.874   8.522   3.419
35125W        W 1556  37.563  44.613  14.066
35126W        W 1557  11.976  40.098  12.758
35127W        W 1558  28.934  36.401   1.346
35128W        W 1559   3.388  39.642   1.977
35129W        W 1560  36.916  17.291   2.812
35130W        W 1561   9.893  16.927   0.965
35131W        W 1562   2.829  21.128  10.884
35132W        W 1563   8.699  22.073  11.410
35133W        W 1564   3.438  17.141   0.886
35134W        W 1565  27.145  16.731  12.513
35135W        W 1566  30.640  10.804   3.291
35136W        W 1567  40.237  27.149   0.328
35137W        W 1568  38.552  27.983  13.325
35138W        W 1569   9.380   1.197   2.630
35139W        W 1570  11.837  18.809  13.578
35140W        W 1571   0.892  33.974  10.851
35141W        W 1572  34.500  19.147   2.246
35142W        W 1573  31.658  19.713   2.655
35143W        W 1574  17.231   9.446   4.705
35144W        W 1575  31.138  36.552   4.501
35145W        W 1576  22.676  23.502  11.511
35146W        W 1577   1.811  33.105  10.450
35147W        W 1578   2.813  38.156  10.723
35148W        W 1579  30.781  17.104  11.320
35149W        W 1580  38.687  16.470   2.478
35150W        W 1581   2.468  14.383   0.683
35151W        W 1582  18.252   0.278   4.135
35152W        W 1583  26.939   2.240  11.069
35153W        W 1584  33.923   6.866  11.790
35154W        W 1585  32.580   1.373   3.774
35155W        W 1586  19.624  33.660   0.521
35156W        W 1587  23.913  20.294   5.590
35157W        W 1588  41.558  36.066   2.667
35158W        W 1589  28.548  21.042   3.174
35159W        W 1590   6.249  23.373  13.088
35160W        W 1591   7.842  25.258   4.978
35161W        W 1592   3.505  18.058  11.588
35162W        W 1593  42.188  29.007  14.939
35163W        W 1594   6.143  32.371  11.974
35164W        W 1595   1.670  28.559   1.189
35165W        W 1596  27.928   9.884   0.389
35166W        W 1597  30.273  11.869   0.444
35167W        W 1598  33.509  36.373   4.055
35168W        W 1599  37.855   6.485  11.656
35169W        W 1600   3.048   0.446  14.346
35170W        W 1601  42.252  17.151  12.616
35171W        W 1602   3.702  20.539  10.899
35172W        W 1603  33.918   0.821  14.092
35173W        W 1604  26.027   1.046  12.079
35174W        W 1605  11.165  26.229   3.718
35175W        W 1606   6.254  14.110   2.016
35176W        W 1607  25.422   3.702  11.534
35177W        W 1608   8.195  14.260   3.095
35178W        W 1609  23.079  34.511   3.640
35179W        W 1610  36.001  34.306  11.627
35180W        W 1611  17.878  38.414   1.696
35181W        W 1612   1.223  23.109   0.311
35182W        W 1613  40.137  25.147  11.855
35183W        W 1614   0.441   5.410  14.545
35184W        W 1615  26.940  22.359   1.375
35185W        W 1616  18.171  44.772   0.021
35186W        W 1617  13.873   6.290   2.503
35187W        W 1618  27.513  41.799   0.999
35188W        W 1619   3.660  30.562   0.255
35189W        W 1620  34.397  11.694  12.814
35190W        W 1621  40.837   7.880   4.077
35191W        W 1622  30.128  16.606  12.552
35192W        W 1623  33.928  21.461   4.252
35193W        W 1624  23.127  27.231   1.542
35194W        W 1625   6.745  44.260  10.643
35195W        W 1626  17.368  16.086   2.697
35196W        W 1627   8.379   8.909   1.485
35197W        W 1628  39.942  41.502   2.776
35198W        W 1629  22.361  43.099   0.344
35199W        W 1630  34.509  19.532   1.423
35200W        W 1631   5.902  28.723   1.315
35201W        W 1632  37.581  12.353  14.905
35202W        W 1633  37.994  43.917  13.158
35203W        W 1634  10.831  22.078   4.532
35204W        W 1635  11.885  18.363  13.973
35205W        W 1636  25.703  39.861   2.274
35206W        W 1637  39.453  24.184   0.806
35207W        W 1638  19.463  15.073   0.884
35208W        W 1639  20.246  37.332   1.387
35209W        W 1640  31.648   6.095   3.193
35210W        W 1641  41.477   8.948   2.862
35211W        W 1642  44.572  13.337  11.188
35212W        W 1643  29.681  34.397  13.770
35213W        W 1644  12.780   2.563   3.952
35214W        W 1645  35.550   9.794  13.353
35215W        W 1646  36.347  14.239  14.730
35216W        W 1647  16.788  40.982  13.304
35217W        W 1648   1.008  42.844   2.902
35218W        W 1649  34.441   1.397  12.789
35219W        W 1650  17.986  35.625   2.543
35220W        W 1651  32.632  24.722  12.251
35221W        W 1652  28.541  15.629   2.266
35222W        W 1653  22.258  19.503   3.125
35223W        W 1654  44.191  37.880  11.228
35224W        W 1655   8.711  18.019   3.713
35225W        W 1656  34.877  43.003  10.347
35226W        W 1657   1.578  25.017  13.665
35227W        W 1658   8.709  15.629  10.319
35228W        W 1659  23.208   4.523  12.117
35229W        W 1660   6.944  41.512  14.804
35230W        W 1661  24.624  44.767  13.739
35231W        W 1662   4.391  36.856  11.564
35232W        W 1663  12.933  13.349  14.334
35233W        W 1664  19.276  10.609   4.209
35234W        W 1665  27.966  18.525   3.233
35235W        W 1666  12.713  17.364  13.859
35236W        W 1667  25.981  35.050   1.705
35237W        W 1668  28.314  36.948  12.920
35238W        W 1669  31.582   7.658   1.242
35239W        W 1670  14.770  44.196   1.272
35240W        W 1671  23.112  36.618   2.190
35241W        W 1672   4.789   1.273   0.838
35242W        W 1673  21.179   4.265  11.092
35243W        W 1674  15.676  20.640   3.142
35244W        W 1675  21.723   8.905  12.878
35245W        W 1676  23.703  42.376   3.311
35246W        W 1677  32.885  27.574  10.892
35247W        W 1678  28.702  19.684  13.362
35248W        W 1679  20.658   7.282   1.883
35249W        W 1680  41.908  37.311  14.018
35250W        W 1681  37.839  16.111  12.877
35251W        W 1682  44.854  14.499   0.952
35252W        W 1683  23.575  13.224   0.295
35253W        W 1684  38.623   0.284   0.264
35254W        W 1685  38.356  31.267   5.400
35255W        W 1686  30.800  32.298  12.971
35256W        W 1687  29.761  22.578  10.757
35257W        W 1688   8.561   2.514  12.282
35258W        W 1689  15.798  20.633   1.634
35259W        W 1690  41.306   0.036  12.377
35260W        W 1691  38.869  37.526  12.480
35261W        W 1692  23.705  27.580  13.021
35262W        W 1693  16.642  21.663  14.845
35263W        W 1694  20.231  22.754  11.286
35264W        W 1695  13.925  41.843  13.288
35265W        W 1696   3.361   8.650   3.650
35266W        W 1697  30.266   7.872  12.571
35267W        W 1698  44.327  26.692   0.364
35268W        W 1699  36.514   7.364   4.888
35269W        W 1700  27.734  35.826  14.722
35270W        W 1701   2.254  44.267   3.208
35271W        W 1702  18.572  37.809  13.882
35272W        W 1703   5.548  26.013   2.562
35273W        W 1704  29.711   2.882   3.793
35274W        W 1705  11.785  25.004   3.311
35275W        W 1706   6.394  17.746   1.798
35276W        W 1707  30.253   5.675   3.077
35277W        W 1708  34.911  12.416   2.239
35278W        W 1709  17.715  42.564   4.553
35279W        W 1710   0.432  14.536  11.911
35280W        W 1711  42.497  13.413  13.042
35281W        W 1712  41.767   7.688  13.020
35282W        W 1713  22.162   3.235   4.145
35283W        W 1714  36.513  16.403   4.458
35284W        W 1715   1.350  29.065   0.352
35285W        W 1716  37.668  18.637  14.848
35286W        W 1717  17.789  42.913  14.107
35287W        W 1718  26.811  29.418  12.590
35288W        W 1719  11.982  30.933  11.034
35289W        W 1720   7.612  24.809   4.864
35290W        W 1721  13.766  26.316   4.054
35291W        W 1722  17.099   1.527   1.292
35292W        W 1723  33.116  37.445   0.203
35293W        W 1724   2.844   1.472   3.864
35294W        W 1725  36.753  34.534   1.802
35295W        W 1726   5.754  41.016   0.040
35296W        W 1727  25.511  12.212  14.961
35297W        W 1728  20.188  30.215   0.192
35298W        W 1729  32.575  31.515   3.726
35299W        W 1730  14.622  27.006   1.329
35300W        W 1731  35.479  22.900  13.444
35301W        W 1732  10.795  30.871  14.403
35302W        W 1733  29.805   4.807   3.548
35303W        W 1734  27.149   7.166  11.897
35304W        W 1735  21.855  21.088   1.301
35305W        W 1736   6.664   9.225  10.505
35306W        W 1737  40.000   6.950   1.408
35307W        W 1738  24.422  13.365  13.364
35308W        W 1739  13.052  39.213   1.808
35309W        W 1740   4.998  15.640   0.513
35310W        W 1741  22.649  33.131  12.572
35311W        W 1742   0.087  30.903  14.872
35312W        W 1743  28.953  28.878   0.801
35313W        W 1744   0.751  36.014  11.035
35314W        W 1745  43.520   6.881   1.384
35315W        W 1746  32.393  43.877  12.529
35316W        W 1747  31.115  31.377   0.739
35317W        W 1748  34.065  29.072  12.604
35318W        W 1749  14.328   0.426   1.301
35319W        W 1750  26.420  18.613   2.378
35320W        W 1751  18.097   7.728   2.282
35321W        W 1752  20.855   3.878   3.347
35322W        W 1753  35.615  41.939   2.761
35323W        W 1754  43.845  39.334  11.588
35324W        W 1755  19.025  42.228  12.453
35325W        W 1756  21.523  21.187   4.403
35326W        W 1757  17.915  27.166  14.413
35327W        W 1758  26.144  15.173   4.086
35328W        W 1759  33.572  15.142  14.742
35329W        W 1760  20.179  30.292  10.573
35330W        W 1761  41.530  20.015  10.773
35331W        W 1762   8.319  17.914   3.379
35332W        W 1763  18.038  34.163   4.198
35333W        W 1764   3.192  11.747  13.930
35334W        W 1765   7.858  11.428  14.429
35335W        W 1766  27.103  24.425  10.670
35336W        W 1767   4.163  15.674   0.846
35337W        W 1768  20.189  23.233   2.370
35338W        W 1769  17.910  10.870  12.611
35339W        W 1770  25.697  42.599   2.636
35340W        W 1771  21.495  26.664   0.399
35341W        W 1772  28.064   8.274   0.272
35342W        W 1773  39.920  31.880   3.191
35343W        W 1774   8.325  42.591   3.223
35344W        W 1775  14.831  29.562  13.963
35345W        W 1776  14.500  15.567   2.776
35346W        W 1777  12.289  31.482   1.914
35347W        W 1778  18.809  11.278  10.146
35348W        W 1779  41.448  44.647  11.102
35349W        W 1780  43.186  13.371  10.725
35350W        W 1781  19.965  40.316  13.955
35351W        W 1782  24.049  31.216  13.091
35352W        W 1783   0.793   9.309   1.395
35353W        W 1784  15.923  22.784  11.504
35354W        W 1785  24.616   2.612  11.816
35355W        W 1786  41.239  33.197   0.854
35356W        W 1787  20.257  22.184   3.410
35357W        W 1788  31.013   3.368  12.398
35358W        W 1789  13.584   1.114  13.421
35359W        W 1790   4.532  30.042  11.273
35360W        W 1791   3.922  11.671   1.850
35361W        W 1792  19.727  28.602   4.499
35362W        W 1793   5.910  20.194   4.661
35363W        W 1794  23.761  21.211  10.718
35364W        W 1795  43.805   7.354   0.275
35365W        W 1796  44.996  35.857  14.275
35366W        W 1797   9.345  24.733  14.856
35367W        W 1798   9.696  15.405  12.617
35368W        W 1799  12.912  42.766  11.559
35369W        W 1800  37.647   9.288   3.151
35370W        W 1801  20.117  13.842   0.889
35371W        W 1802  33.006  36.809  14.233
35372W        W 1803  20.619  10.271   4.658
35373W        W 1804  44.288  27.042   2.678
35374W        W 1805  23.739  30.035  13.011
35375W        W 1806   9.976  16.782  12.470
35376W        W 1807   9.676  18.045   3.706
35377W        W 1808  34.959  34.416  12.401
35378W        W 1809  13.845  16.536   1.556
35379W        W 1810  42.375  32.487   4.369
35380W        W 1811  39.850  21.164   0.068
35381W        W 1812  44.868   6.220   4.567
35382W        W 1813  22.615  30.093   0.336
35383W        W 1814  18.235   9.180   4.413
35384W        W 1815  42.715  30.226   4.253
35385W        W 1816  44.230  19.730  13.699
35386W        W 1817  43.116  34.379   0.908
35387W        W 1818  21.515  27.529   0.236
35388W        W 1819   3.189  32.440  13.984
35389W        W 1820  29.556   7.627   2.351
35390W        W 1821  10.485  23.977  14.920
35391W        W 1822   4.459  39.569   3.800
35392W        W 1823  36.832  23.560   0.885
35393W        W 1824  31.479  31.148   2.737
35394W        W 1825  34.427  12.084   4.054
35395W        W 1826  13.543  22.845   2.428
35396W        W 1827   1.726   1.357   0.547
35397W        W 1828  13.654   5.824  11.657
35398W        W 1829  41.343  16.256  13.900
35399W        W 1830  25.325   5.837  13.419
35400W        W 1831  12.371  31.127   3.390
35401W        W 1832  34.110  29.643  11.346
35402W        W 1833  22.160  24.766  14.305
35403W        W 1834  25.100  21.026  13.954
35404W        W 1835  40.549  35.062  13.964
35405W        W 1836  29.875  35.922   1.200
35406W        W 1837   4.770  24.255   2.868
35407W        W 1838  34.738  33.941   0.742
35408W        W 1839   5.228  34.376   3.082
35409W        W 1840   6.232  16.050  13.854
35410W        W 1841  42.858  27.394   1.964
35411W        W 1842  19.496  10.130   2.767
35412W        W 1843  10.193  37.026  12.934
35413W        W 1844  19.275   2.150   2.245
35414W        W 1845   1.859   3.250  14.438
35415W        W 1846  29.925  34.917  12.959
35416W        W 1847  15.731   3.708  14.378
35417W        W 1848  26.719  42.588   2.791
35418W        W 1849  16.897  23.097   3.008
35419W        W 1850  21.540  14.551  13.456
35420W        W 1851  40.795   5.464   0.993
35421W        W 1852  36.534  43.550  10.401
35422W        W 1853  39.725   8.395  14.568
35423W        W 1854  15.429  14.087   1.440
35424W        W 1855   5.042  26.775  12.992
35425W        W 1856  39.360  37.977   3.777
35426W        W 1857  13.329  34.229   1.359
35427W        W 1858  27.154   8.174  12.859
35428W        W 1859   5.236  31.089   0.766
35429W        W 1860  40.422   1.310  14.885
35430W        W 1861  34.626  29.325   4.114
35431W        W 1862   3.359  33.214   2.384
35432W        W 1863  43.933  32.553  14.782
35433W        W 1864  36.130  12.544   4.423
35434W        W 1865  11.152  21.652  13.174
35435W        W 1866   7.803   6.720  12.425
35436W        W 1867  19.252  28.497   4.681
35437W        W 1868  42.669  17.855  13.472
35438W        W 1869  20.357  39.934  13.951
35439W        W 1870  15.282   4.954  10.718
35440W        W 1871   8.774   5.949   4.551
35441W        W 1872  42.709  29.979   3.407
35442W        W 1873  14.915   9.719  14.485
35443W        W 1874  13.366  18.843   4.852
35444W        W 1875  30.032  38.568   1.251
35445W        W 1876   0.458   9.813   2.462
35446W        W 1877  28.255  40.281  11.172
35447W        W 1878   0.301  37.633   0.445
35448W        W 1879  37.365  24.077  14.740
35449W        W 1880  27.854  28.325   4.571
35450W        W 1881  28.438   1.330   1.687
35451W        W 1882  23.112   0.201   3.492
35452W        W 1883  16.049  31.752  13.636
35453W        W 1884   2.308  21.965  14.953
35454W        W 1885   3.365  21.969  14.982
35455W        W 1886  10.647  41.310   0.077
35456W        W 1887  10.879   3.689  11.692
35457W        W 1888   7.713   5.345   2.268
35458W        W 1889   1.490  33.632  14.850
35459W        W 1890  23.807  12.716   1.174
35460W        W 1891   5.228   2.216   1.388
35461W        W 1892   4.265   8.655   3.885
35462W        W 1893   8.398   0.792  13.526
35463W        W 1894  43.896  43.286  13.002
35464W        W 1895   6.931  16.449   1.896
35465W        W 1896  34.777  23.560  11.264
35466W        W 1897  29.055  12.282   0.536
35467W        W 1898  19.234  13.156  10.680
35468W        W 1899  33.705  21.235   3.672
35469W        W 1900  41.365  44.943   3.209
35470W        W 1901   1.310  32.342   4.765
35471W        W 1902  39.518  24.177  13.471
35472W        W 1903   7.396   4.557  12.818
35473W        W 1904  17.790   0.234  12.584
35474W        W 1905  26.499   1.235   1.762
35475W        W 1906  35.166  25.050  14.963
35476W        W 1907  11.243  27.996  13.154
35477W        W 1908  44.117  19.614  14.171
35478W        W 1909  33.652  41.230  11.190
35479W        W 1910  10.531  15.019  13.325
35480W        W 1911  11.222  12.276  12.601
35481W        W 1912   8.345  26.185  10.658
35482W        W 1913   0.667  13.673  11.748
35483W        W 1914  44.242  17.322  12.410
35484W        W 1915  43.553  25.930   2.875
35485W        W 1916  16.506  23.424   3.108
35486W        W 1917  29.074  14.780   1.310
35487W        W 1918  33.975  38.994   0.019
35488W        W 1919  26.473   7.378  12.932
35489W        W 1920  10.755  15.503   3.642
35490W        W 1921  36.726  44.249  11.090
35491W        W 1922  10.754   1.893  13.796
35492W        W 1923   8.370  20.638  14.503
35493W        W 1924  23.805  15.535   1.371
35494W        W 1925  20.513  28.737  12.464
35495W        W 1926  15.388  26.501  10.035
35496W        W 1927  13.384  31.386   4.708
35497W        W 1928  10.845  29.866  13.483
35498W        W 1929   1.506  31.880   0.548
35499W        W 1930  18.520   5.205  13.042
35500W        W 1931  41.722  14.247  11.539
35501W        W 1932  32.838   6.389  14.260
35502W        W 1933   9.450  44.349  11.081
35503W        W 1934   0.809  28.654   2.329
35504W        W 1935  33.818  44.005  10.542
35505W        W 1936  34.940  41.077   2.692
35506W        W 1937   3.865  15.412  11.650
35507W        W 1938  12.132   8.912   3.182
35508W        W 1939  11.967  32.616  10.717
35509W        W 1940  15.934  20.127  13.424
35510W        W 1941  38.735  26.211   3.352
35511W        W 1942  15.592  14.689  13.318
35512W        W 1943  23.571  25.503  10.559
35513W        W 1944   1.926  40.868  13.140
35514W        W 1945  36.856  38.908  12.773
35515W        W 1946  31.505   5.759   1.593
35516W        W 1947  39.577  14.736   3.674
35517W        W 1948  34.856  36.370   0.581
35518W        W 1949  12.989   6.668   4.139
35519W        W 1950  30.626  14.186   1.203
35520W        W 1951  10.775  42.850  14.149
35521W        W 1952   4.140  17.167  13.462
35522W        W 1953  36.329  28.851   4.599
35523W        W 1954  24.635   6.817  10.467
35524W        W 1955  38.333  14.380   2.700
35525W        W 1956  11.438   8.181  11.985
35526W        W 1957  30.252   0.167   2.934
35527W        W 1958  35.374  30.729   3.215
35528W        W 1959   6.936  39.400   0.492
35529W        W 1960   8.708  27.643  10.719
35530W        W 1961  21.942  27.188  11.626
35531W        W 1962   4.246  15.517   4.072
35532W        W 1963  43.798  26.930  13.012
35533W        W 1964  11.954  20.344   0.498
35534W        W 1965  35.806  37.980  12.397
35535W        W 1966   0.689  10.802  14.403
35536W        W 1967  17.654  30.399  12.218
35537W        W 1968  12.705  38.152  12.897
35538W        W 1969  31.843  12.234   3.150
35539W        W 1970  39.960  16.306  14.588
35540W        W 1971  16.147  41.390  11.598
35541W        W 1972  37.106   2.926   0.808
35542W        W 1973  12.035  40.030   3.772
35543W        W 1974  21.654  43.451  12.485
35544W        W 1975  39.668  44.393   1.285
35545W        W 1976  34.153  11.328   1.903
35546W        W 1977  42.436   7.636   3.362
35547W        W 1978   7.921  29.061  13.395
35548W        W 1979  34.927   4.834  13.201
35549W        W 1980  18.110  36.447  14.785
35550W        W 1981  34.468  26.412   1.108
35551W        W 1982   5.438   8.920  13.448
35552W        W 1983  36.271  33.740  10.634
35553W        W 1984  27.480  31.323  13.045
35554W        W 1985   8.957  22.462  14.439
35555W        W 1986  38.956  38.776   0.860
35556W        W 1987  35.529  11.299   1.724
35557W        W 1988  39.604  28.167   2.256
35558W        W 1989  24.697  11.622   2.844
35559W        W 1990  31.270   3.240   4.262
35560W        W 1991  25.461  27.477  12.031
35561W        W 1992  16.565  32.466  13.358
35562W        W 1993  31.843  15.142  11.044
35563W        W 1994  21.184  28.161   3.622
35564W        W 1995  21.096   2.545  12.990
35565W        W 1996  29.401  38.015   2.245
35566W        W 1997  38.465   8.839   4.196
35567W        W 1998   6.821  37.055   2.771
35568W        W 1999  29.649  40.475   0.356
35569W        W 2000   2.219   0.492  11.722
35570W        W 2001  24.568  35.442  12.138
35571W        W 2002  10.889  16.481   1.905
35572W        W 2003  16.867  40.535   4.553
35573W        W 2004  20.504  32.795   9.554
35574W        W 2005  21.453   6.182   1.362
35575W        W 2006  37.799   7.580  12.046
35576W        W 2007   3.795  26.983  10.647
35577W        W 2008  24.100   6.319   9.955
35578W        W 2009   7.908   8.830  12.617
35579W        W 2010  19.216   0.789  13.067
35580W        W 2011  14.660   4.906   1.351
35581W        W 2012  26.813  12.926  12.081
35582W        W 2013  26.065  38.118  12.938
35583W        W 2014   5.827  32.240   2.299
35584W        W 2015   0.488  18.987  11.606
35585W        W 2016  29.159  25.614  13.905
35586W        W 2017  26.982  18.588   0.666
35587W        W 2018  33.020  15.104   4.592
35588W        W 2019  10.246  20.186   1.704
35589W        W 2020  36.814  16.220  14.971
35590W        W 2021   8.348   9.829   4.288
35591W        W 2022  27.956  30.463   2.271
35592W        W 2023  44.708   1.439  10.769
35593W        W 2024   5.050  42.348   4.691
35594W        W 2025  39.237  26.592   1.678
35595W        W 2026  39.859   7.303  13.613
35596W        W 2027   7.107  13.540  11.991
35597W        W 2028  27.750  15.071   2.581
35598W        W 2029  16.897  31.114  13.418
35599W        W 2030  24.449  30.768  13.109
35600W        W 2031  18.168  10.177  13.881
35601W        W 2032  28.273   2.739  12.062
35602W        W 2033  33.012   7.265  12.143
35603W        W 2034  25.028  22.747   4.278
35604W        W 2035  37.782  36.899   9.856
35605W        W 2036  15.826  38.873  14.437
35606W        W 2037  12.555  24.759   0.458
35607W        W 2038  27.972  36.546  12.995
35608W        W 2039  18.191  41.034  10.206
35609W        W 2040  19.140  43.747  11.072
35610W        W 2041  29.585   3.198   5.051
35611W        W 2042  29.047  10.387   5.015
35612W        W 2043   6.702  44.331   2.882
35613W        W 2044  30.182  43.329  11.560
35614W        W 2045  16.098   2.790   0.402
35615W        W 2046  33.672   6.502   4.514
35616W        W 2047  18.908  13.295  13.519
35617W        W 2048  23.293  14.790   4.575
35618W        W 2049  43.555   9.090  13.784
35619W        W 2050  31.203  11.543  11.887
35620W        W 2051  44.256  10.785  12.992
35621W        W 2052  36.967  35.677  13.482
35622W        W 2053  34.116   1.196  12.087
35623W        W 2054   3.126  13.183  11.624
35624W        W 2055   2.282  32.795   3.221
35625W        W 2056  17.573   9.731  12.173
35626W        W 2057  35.891  39.528  11.101
35627W        W 2058  18.474  41.748   0.404
35628W        W 2059  14.450  29.847   3.300
35629W        W 2060  11.627  37.041   0.337
35630W        W 2061   7.419   8.249   4.306
35631W        W 2062  33.081  24.756   4.111
35632W        W 2063  11.749   7.280   3.306
35633W        W 2064   7.493  17.335   3.494
35634W        W 2065  42.391  21.690   1.422
35635W        W 2066  12.997  13.537   1.856
35636W        W 2067  41.810   9.166  14.298
35637W        W 2068  16.591  18.232   2.643
35638W        W 2069  32.335  12.097  14.276
35639W        W 2070  11.930  15.334  13.115
35640W        W 2071  44.919  33.836  11.980
35641W        W 2072  30.964  22.844  12.905
35642W        W 2073  24.176   9.408  11.797
35643W        W 2074   5.321  36.061   2.623
35644W        W 2075  14.662   3.733   1.975
35645W        W 2076  36.558  38.822   3.290
35646W        W 2077  31.172   1.777   1.958
35647W        W 2078  29.663  38.483   2.235
35648W        W 2079   0.582  43.979  13.366
35649W        W 2080  27.139   4.526  12.991
35650W        W 2081  42.949  25.061  10.562
35651W        W 2082  33.907  24.733  12.481
35652W        W 2083  42.479   4.857   0.021
35653W        W 2084  26.760  37.060   2.171
35654W        W 2085  43.345  16.281   3.481
35655W        W 2086  37.758  18.828   2.322
35656W        W 2087  19.222  31.342  12.984
35657W        W 2088  26.494  30.847  13.827
35658W        W 2089  36.940  43.263   4.166
35659W        W 2090  10.126  35.099   0.196
35660W        W 2091  15.250  41.085   1.296
35661W        W 2092   7.613  28.862   0.408
35662W        W 2093  12.117  11.802   2.220
35663W        W 2094  28.215  37.064   1.353
35664W        W 2095  19.354  31.883  10.818
35665W        W 2096   9.409   2.121   1.416
35666W        W 2097  42.798  11.847   4.420
35667W        W 2098  38.267  29.444   2.098
35668W        W 2099  30.271  37.148  11.437
35669W        W 2100  31.605  26.606   0.435
35670W        W 2101  41.927  37.191  14.792
35671W        W 2102  20.760  12.228   4.744
35672W        W 2103  12.264   1.853   4.035
35673W        W 2104  11.851  28.590  13.734
35674W        W 2105  37.826   2.456  13.760
35675W        W 2106  13.985  30.547  14.005
35676W        W 2107  19.341  22.283   3.182
35677W        W 2108  29.952  34.486   0.365
35678W        W 2109   0.013   2.981  13.929
35679W        W 2110  18.695  14.253   0.388
35680W        W 2111  10.679  42.832  13.138
35681W        W 2112  32.380  45.000   2.292
35682W        W 2113  43.828  17.104  14.950
35683W        W 2114  44.506  24.553   0.690
35684W        W 2115  33.993  38.751  11.886
35685W        W 2116  11.262  44.245   1.185
35686W        W 2117  28.868   8.173  13.384
35687W        W 2118  44.425  27.552  13.548
35688W        W 2119   6.869  36.447   3.944
35689W        W 2120  20.470  28.976   3.603
35690W        W 2121  13.138  15.812  10.669
35691W        W 2122   5.328  11.455   0.772
35692W        W 2123  28.867  23.989   2.453
35693W        W 2124  36.642   3.374  11.243
35694W        W 2125  35.901   1.940   2.633
35695W        W 2126  11.797  30.647   4.494
35696W        W 2127  23.554  30.176   4.585
35697W        W 2128   5.247  12.964  13.596
35698W        W 2129  12.885  19.276   2.322
35699W        W 2130   8.770  40.496   1.762
35700W        W 2131  15.685  20.701   3.657
35701W        W 2132  38.870   1.874  11.105
35702W        W 2133  34.419  10.667   1.717
35703W        W 2134  18.774  20.031  10.824
35704W        W 2135  27.994   6.704   0.339
35705W        W 2136  21.053  24.577   4.547
35706W        W 2137  19.847  35.155   2.808
35707W        W 2138  14.615  12.201   1.533
35708W        W 2139   5.747  13.044  11.419
35709W        W 2140  36.401  41.554  11.284
35710W        W 2141  27.457   9.267  14.759
35711W        W 2142  44.035  13.782   0.832
35712W        W 2143  39.795  11.303   1.357
35713W        W 2144  35.898  31.139  13.932
35714W        W 2145   5.390   4.221  10.308
35715W        W 2146   8.742  26.902  10.987
35716W        W 2147  10.699  34.356  11.382
35717W        W 2148  20.163   9.973  12.715
35718W        W 2149  26.971  20.582  14.054
35719W        W 2150  25.943  39.080  12.803
35720W        W 2151  27.226  20.587  14.567
35721W        W 2152   6.424   1.236  14.751
35722W        W 2153  15.993  20.652  11.151
35723W        W 2154  23.509  11.367  13.882
35724W        W 2155  14.483  28.449   3.308
35725W        W 2156   9.121  20.574   0.864
35726W        W 2157  26.572   3.692   4.609
35727W        W 2158  24.011  31.604   1.395
35728W        W 2159  24.068  33.514   4.383
35729W        W 2160  28.995  42.739  11.145
35730W        W 2161  44.251  38.176   2.159
35731W        W 2162  20.277   7.267   2.647
35732W        W 2163  33.621  10.243   2.383
35733W        W 2164  21.844   7.137  13.431
35734W        W 2165  18.736  32.118   4.174
35735W        W 2166   4.903  30.533   4.908
35736W        W 2167  19.693  20.707   1.858
35737W        W 2168  36.773   4.807  14.359
35738W        W 2169  23.814  32.056   1.185
35739W        W 2170  40.237  27.752  10.467
35740W        W 2171  38.710  24.495  13.300
35741W        W 2172  19.740  41.771   0.350
35742W        W 2173  29.911  40.891   3.048
35743W        W 2174  31.999  40.299   3.804
35744W        W 2175   0.436  16.529   3.095
35745W        W 2176  28.758  29.925   0.887
35746W        W 2177  16.030  13.988  11.695
35747W        W 2178   2.809  20.263   2.760
35748W        W 2179  34.115   0.671   3.389
35749W        W 2180  12.744  33.981  11.036
35750W        W 2181  40.874  34.173  12.983
35751W        W 2182   0.088  36.194   3.973
35752W        W 2183  16.091  40.819  12.694
35753W        W 2184  23.509  38.951  13.197
35754W        W 2185  41.111  44.629   4.116
35755W        W 2186  23.698  44.782  12.670
35756W        W 2187  14.582  18.548  11.551
35757W        W 2188  14.234  28.564   2.307
35758W        W 2189  24.590  26.215  14.968
35759W        W 2190  27.405  12.146  10.953
35760W        W 2191   6.405  17.343  13.689
35761W        W 2192  28.680  38.465  13.372
35762W        W 2193  35.270  26.078   4.601
35763W        W 2194  15.215  22.633   3.325
35764W        W 2195  41.934   5.424  11.406
35765W        W 2196  30.584  39.006   2.640
35766W        W 2197  30.781  32.042  12.502
35767W        W 2198  20.059   7.450  13.073
35768W        W 2199  25.780  39.447   3.600
35769W        W 2200   8.944  16.319   1.670
35770W        W 2201  16.990   8.086   2.851
35771W        W 2202   4.717  37.775   1.864
35772W        W 2203  21.371  30.504  10.991
35773W        W 2204  23.018   8.733   1.268
35774W        W 2205  41.264  37.682   4.577
35775W        W 2206   4.214  25.017  14.426
35776W        W 2207  31.564  40.634   1.791
35777W        W 2208  15.278  15.091  12.706
35778W        W 2209  12.802   0.427   1.429
35779W        W 2210  41.952   9.111  10.752
35780W        W 2211  29.077  24.757  12.692
35781W        W 2212  11.250  36.802   3.734
35782W        W 2213  30.218  31.965   3.879
35783W        W 2214  13.264  30.630   3.178
35784W        W 2215  12.755  32.663   4.470
35785W        W 2216  35.569   6.166  13.753
35786W        W 2217  13.069  26.021  13.849
35787W        W 2218   7.117  14.192  14.323
35788W        W 2219  23.504   7.798   1.477
35789W        W 2220  17.280  23.910  11.544
35790W        W 2221  11.226  34.089  12.950
35791W        W 2222   8.755   6.604  12.011
35792W        W 2223  41.168  23.222  10.792
35793W        W 2224  30.079   6.220   1.438
35794W        W 2225  40.177  42.926   0.807
35795W        W 2226  35.889  22.459   1.512
35796W        W 2227  24.458  13.842   3.755
35797W        W 2228  37.496  28.591  13.006
35798W        W 2229  36.203  44.856   3.126
35799W        W 2230  12.016  14.341   4.845
35800W        W 2231  13.455  44.336   9.844
35801W        W 2232  18.165  32.875  13.372
35802W        W 2233  23.609  27.214  14.943
35803W        W 2234  15.367  33.930   2.863
35804W        W 2235  35.543  31.667   4.735
35805W        W 2236  19.035  28.085  12.481
35806W        W 2237  36.079   0.367   2.103
35807W        W 2238  39.905  37.826   1.817
35808W        W 2239  29.649  19.533   3.272
35809W        W 2240  32.461  22.156   1.784
35810W        W 2241  31.866   3.396   2.253
35811W        W 2242  37.464  42.927   5.274
35812W        W 2243  16.075  24.200  14.239
35813W        W 2244   9.820   3.806   3.268
35814W        W 2245  28.581  27.232  11.981
35815W        W 2246  15.186  32.806  14.487
35816W        W 2247   7.721  19.971  14.538
35817W        W 2248   8.633  20.239  12.485
35818W        W 2249  42.453  41.190   2.313
35819W        W 2250  24.056   5.399   2.924
35820W        W 2251  21.598  39.819   1.735
35821W        W 2252  20.160  42.315   3.348
35822W        W 2253  16.954   4.706  11.958
35823W        W 2254  25.657  14.080   3.898
35824W        W 2255  41.847  34.274  14.967
35825W        W 2256  43.786  35.586  12.944
35826W        W 2257  44.041  31.174   2.209
35827W        W 2258  22.600  24.569   4.729
35828W        W 2259  26.353  38.523   1.852
35829W        W 2260   5.265  41.011  12.904
35830W        W 2261  28.957  41.042  11.949
35831W        W 2262  27.172  28.992   4.696
35832W        W 2263  35.474   1.672   4.833
35833W        W 2264  41.956  20.649   0.889
35834W        W 2265  22.713  16.436  13.886
35835W        W 2266  41.118  42.863  10.155
35836W        W 2267  32.964  36.936   2.399
35837W        W 2268  44.532  22.954   4.577
35838W        W 2269  19.805  20.817   0.295
35839W        W 2270   1.239  43.521   1.019
35840W        W 2271  11.066  38.945  12.050
35841W        W 2272   3.706  33.841   0.730
35842W        W 2273  32.890  44.727  12.544
35843W        W 2274  21.998  12.200  12.500
35844W        W 2275   1.732  37.323   2.684
35845W        W 2276  42.546  11.992  13.494
35846W        W 2277  39.758  16.140  10.727
35847W        W 2278  24.874  21.556   5.156
35848W        W 2279  40.362  23.046   4.722
35849W        W 2280  11.805  15.980   2.804
35850W        W 2281   3.057  23.405  14.505
35851W        W 2282   0.769  31.035  14.452
35852W        W 2283   4.705   5.164  12.791
35853W        W 2284  36.085   3.474  12.037
35854W        W 2285  11.343  41.070   4.439
35855W        W 2286  22.076  23.265   0.213
35856W        W 2287  29.140  33.333   0.522
35857W        W 2288  24.643  11.615  13.699
35858W        W 2289   8.414  29.826   4.646
35859W        W 2290   0.650  24.461  13.884
35860W        W 2291  22.746   0.811  14.492
35861W        W 2292  38.889  18.214  10.782
35862W        W 2293   9.307   7.227   1.683
35863W        W 2294  29.786  27.621  12.579
35864W        W 2295  30.529  10.780   0.216
35865W        W 2296  12.178  43.873   1.754
35866W        W 2297  37.872  21.418   2.687
35867W        W 2298  31.034  20.733  14.980
35868W        W 2299  33.375   7.313  12.918
35869W        W 2300  12.302  31.683  12.046
35870W        W 2301  31.139  20.696  14.457
35871W        W 2302   8.544   3.428  10.013
35872W        W 2303  12.426   9.171   1.038
35873W        W 2304  42.295   7.993  10.575
35874W        W 2305  34.872   5.482   3.179
35875W        W 2306  19.772   4.451   1.429
35876W        W 2307   5.053  41.900  12.686
35877W        W 2308   7.452  37.152   1.850
35878W        W 2309  31.882   7.927  14.900
35879W        W 2310  37.865   9.609   1.787
35880W        W 2311  13.265  23.237   2.697
35881W        W 2312  36.604  26.966  11.696
35882W        W 2313   0.878  35.182   1.371
35883W        W 2314  22.263  33.487   2.236
35884W        W 2315   7.439  34.432  13.947
35885W        W 2316  41.758  36.100   1.746
35886W        W 2317  26.033  22.188   3.650
35887W        W 2318  15.712  22.231  14.135
35888W        W 2319  17.265  23.168  12.933
35889W        W 2320  14.617  14.990  10.246
35890W        W 2321  31.855  17.049   3.678
35891W        W 2322  19.949  12.393  11.516
35892W        W 2323  43.478   6.061  14.086
35893W        W 2324  40.246  43.454  11.607
35894W        W 2325  42.130  26.544  10.818
35895W        W 2326  18.563  31.060  10.627
35896W        W 2327  26.617   2.011   0.390
35897W        W 2328  38.489  33.584  13.747
35898W        W 2329  34.911  39.386  10.833
35899W        W 2330  35.526   2.639   2.253
35900W        W 2331  41.106  30.802  14.494
35901W        W 2332  38.254  24.912  10.971
35902W        W 2333   7.186  23.578   1.922
35903W        W 2334  15.063  39.428  13.503
35904W        W 2335  10.635   4.402  11.183
35905W        W 2336  21.676   8.047   3.236
35906W        W 2337  37.965   4.776  14.435
35907W        W 2338   1.770  23.705   3.272
35908W        W 2339  26.751  33.129  11.988
35909W        W 2340  17.512  43.176  12.549
35910W        W 2341  13.604   8.171   3.669
35911W        W 2342   3.393  35.023  11.585
35912W        W 2343   4.730   1.489   2.397
35913W        W 2344   6.218   5.890  12.843
35914W        W 2345  39.238  41.998  12.993
35915W        W 2346  39.298  23.499  12.060
35916W        W 2347   5.586  40.154  11.181
35917W        W 2348   8.630   0.875  13.058
35918W        W 2349  10.728  38.458  11.290
35919W        W 2350  30.930  28.443  12.940
35920W        W 2351  20.690   7.664  13.035
35921W        W 2352  23.946  42.838   1.053
35922W        W 2353  36.041  43.385  12.009
35923W        W 2354  42.245  33.560  12.585
35924W        W 2355  29.705  41.849  10.757
35925W        W 2356  25.976   8.279  12.018
35926W        W 2357  26.274   6.843   4.296
35927W        W 2358   4.845  12.878  11.412
35928W        W 2359   2.846  38.330  11.910
35929W        W 2360   7.144   1.176   4.092
35930W        W 2361   3.392  42.124  11.496
35931W        W 2362  16.945  37.460   4.033
35932W        W 2363  30.239  38.986  13.465
35933W        W 2364  11.091  36.288  11.493
35934W        W 2365  38.621  34.117  13.665
35935W        W 2366   0.738  27.066  13.157
35936W        W 2367  17.743  24.256   1.926
35937W        W 2368  37.377  24.043   2.741
35938W        W 2369  20.277   1.251   3.318
35939W        W 2370  42.775   8.108   4.611
35940W        W 2371  34.974   8.988   2.290
35941W        W 2372  33.593  40.253  13.396
35942W        W 2373  11.081  25.628  14.902
35943W        W 2374  10.074  38.444  10.130
35944W        W 2375  14.753   6.793   4.612
35945W        W 2376  17.552  36.737   0.589
35946W        W 2377  25.402  22.148  12.453
35947W        W 2378  10.828  10.057   0.261
35948W        W 2379  30.375  41.435   4.842
35949W        W 2380  36.692   4.745  11.209
35950W        W 2381  23.754   3.215  11.964
35951W        W 2382  29.214  28.415   0.937
35952W        W 2383  10.387  22.694   0.350
35953W        W 2384  32.964  25.261   4.115
35954W        W 2385  43.522   9.656   1.271
35955W        W 2386  28.938   1.260   1.719
35956W        W 2387  15.198  18.844   4.797
35957W        W 2388  37.099   2.628  14.948
35958W        W 2389  17.046  39.885   2.855
35959W        W 2390  11.359  42.388   2.359
35960W        W 2391  24.917  18.628   2.452
35961W        W 2392   0.305  27.911  12.534
35962W        W 2393  18.806  19.634  10.499
35963W        W 2394  19.722  44.778  14.825
35964W        W 2395  29.967  36.107  11.871
35965W        W 2396   0.843  12.662   4.222
35966W        W 2397   9.113  25.551  13.421
35967W        W 2398   1.690  37.943  12.972
35968W        W 2399  12.265  27.084   4.618
35969W        W 2400  38.878  12.949  12.954
35970W        W 2401  19.514  34.730  10.861
35971W        W 2402  22.008  18.904   1.719
35972W        W 2403  18.898  15.878   4.560
35973W        W 2404   9.354   3.224   1.899
35974W        W 2405   4.187  17.962  14.124
35975W        W 2406  34.842  12.651  12.040
35976W        W 2407  22.623  21.414   2.917
35977W        W 2408   0.564  36.468   2.870
35978W        W 2409  15.067   6.636  13.143
35979W        W 2410   0.752   0.988   3.312
35980W        W 2411   6.939  33.937   3.542
35981W        W 2412  11.766  43.301  10.629
35982W        W 2413   6.217  23.003  12.562
35983W        W 2414  33.596  10.491   3.328
35984W        W 2415   0.246  34.550  14.353
35985W        W 2416  28.355  31.557  13.944
35986W        W 2417  17.818   9.932  14.363
35987W        W 2418   5.233  32.021   2.895
35988W        W 2419  16.291  31.659  11.229
35989W        W 2420  27.056  13.542   0.766
35990W        W 2421  43.420  41.428  11.489
35991W        W 2422  28.932  34.404   2.442
35992W        W 2423   8.943   9.772   0.013
35993W        W 2424  22.118  44.396   4.604
35994W        W 2425  13.680  19.688  13.396
35995W        W 2426  14.560  19.751   5.071
35996W        W 2427  44.917  15.682   0.395
35997W        W 2428  26.190  15.126   1.269
35998W        W 2429  23.428  23.601   2.411
35999W        W 2430  23.853  13.820   4.645
36000W        W 2431   0.661  17.149   1.057
36001W        W 2432  27.088   1.784   0.499
36002W        W 2433   5.174   3.824  14.964
36003W        W 2434  38.777  37.746  13.960
36004W        W 2435   6.699  30.352   1.857
36005W        W 2436  25.542   6.536   4.962
36006W        W 2437   0.522  29.455   0.174
36007W        W 2438  42.433   7.984   4.211
36008W        W 2439  18.186  24.104   1.133
36009W        W 2440   2.857   2.749   3.210
36010W        W 2441  41.271  17.266  14.962
36011W        W 2442  34.954   2.569   0.203
36012W        W 2443  15.702  42.210   2.746
36013W        W 2444  36.946  13.731  14.286
36014W        W 2445  42.037  32.980  14.514
36015W        W 2446  18.002  20.675   4.887
36016W        W 2447  33.408  26.674   1.457
36017W        W 2448  11.064  25.317   5.089
36018W        W 2449  20.142  34.971   4.912
36019W        W 2450  21.643  15.795  12.030
36020W        W 2451  20.524  15.555   0.092
36021W        W 2452  17.663  26.175   0.371
36022W        W 2453  18.644  43.251  13.480
36023W        W 2454  21.129  24.893  11.943
36024W        W 2455   9.827  42.329   4.545
36025W        W 2456   4.768  33.421  13.871
36026W        W 2457   0.957  22.299  11.638
36027W        W 2458  36.012  32.688   4.595
36028W        W 2459  19.020  20.085   1.415
36029W        W 2460  31.096  38.890   2.611
36030W        W 2461  10.479  43.610  13.470
36031W        W 2462  22.526  38.049  12.466
36032W        W 2463   8.393  28.914   0.559
36033W        W 2464  40.535  24.244   4.112
36034W        W 2465  37.504  11.719   3.712
36035W        W 2466  24.674  14.686  13.782
36036W        W 2467  13.056   2.202   3.671
36037W        W 2468  25.764   1.415  10.218
36038W        W 2469  25.890  26.200   1.253
36039W        W 2470  16.275   7.411  14.637
36040W        W 2471  31.004  14.282   2.779
36041W        W 2472  15.762  38.575  14.009
36042W        W 2473   1.690  28.738  12.919
36043W        W 2474  33.323  17.654   0.334
36044W        W 2475  40.957  36.397  11.542
36045W        W 2476  13.064  31.407  11.694
36046W        W 2477  39.379  28.016   2.708
36047W        W 2478  34.954   8.430  11.888
36048W        W 2479  11.906  32.504  12.022
36049W        W 2480  32.883  31.564   3.325
36050W        W 2481  20.786  14.609  10.640
36051W        W 2482  25.632   3.533  12.119
36052W        W 2483   5.712  40.847   1.900
36053W        W 2484  30.863  41.236   4.922
36054W        W 2485  38.998  35.100   1.831
36055W        W 2486   9.230  30.776   3.754
36056W        W 2487  16.020  44.377  10.113
36057W        W 2488  15.325  34.488  13.975
36058W        W 2489  10.237   1.777  12.414
36059W        W 2490  20.247   0.054   4.063
36060W        W 2491   2.682  41.012   4.336
36061W        W 2492  27.953  38.840   0.839
36062W        W 2493  14.082  37.514   4.377
36063W        W 2494  40.888  14.235   1.386
36064W        W 2495  16.968  22.948  11.565
36065W        W 2496  13.314  31.104   1.889
36066W        W 2497  38.092  26.568   4.565
36067W        W 2498  30.029   6.117  14.114
36068W        W 2499  20.700  37.574   0.289
36069W        W 2500  44.427  34.080  11.963
36070W        W 2501  22.584  37.376  10.532
36071W        W 2502  29.052  32.623  10.702
36072W        W 2503   1.446   9.528   2.184
36073W        W 2504  38.366   4.913   0.719
36074W        W 2505   4.639  24.807   5.070
36075W        W 2506   1.158  21.565  13.041
36076W        W 2507  11.015   0.547  13.865
36077W        W 2508  14.661  39.594   4.058
36078W        W 2509  40.344   4.754   4.545
36079W        W 2510  28.510   7.679   1.343
36080W        W 2511  17.948  22.154  12.388
36081W        W 2512  32.162  40.404   1.379
36082W        W 2513   2.159  38.760   2.748
36083W        W 2514  10.885  16.014  12.400
36084W        W 2515  38.078   9.738   0.720
36085W        W 2516  15.428  18.996  12.478
36086W        W 2517  14.260  34.795   1.394
36087W        W 2518  24.477  44.341   1.777
36088W        W 2519  14.916   5.831   1.829
36089W        W 2520   9.275  27.890  11.465
36090W        W 2521  35.337  33.198  12.997
36091W        W 2522  43.495  19.708  14.844
36092W        W 2523  29.638   7.831  14.498
36093W        W 2524   3.770   8.460   1.415
36094W        W 2525  39.356  40.470   0.061
36095W        W 2526  36.560  17.568  13.013
36096W        W 2527   0.434  34.432  11.179
36097W        W 2528  14.584  36.183   4.507
36098W        W 2529  23.782   0.929   0.414
36099W        W 2530  42.066  28.111   4.519
36100W        W 2531  29.844  12.213   2.181
36101W        W 2532  40.232  22.783  14.384
36102W        W 2533  36.527   5.417   4.798
36103W        W 2534   3.543  39.796  10.728
36104W        W 2535   4.684   8.284  14.543
36105W        W 2536  36.421  35.610  14.291
36106W        W 2537   8.681   8.202  13.943
36107W        W 2538  22.773  36.904   3.669
36108W        W 2539  16.820  37.852   2.404
36109W        W 2540  26.484  44.792   3.772
36110W        W 2541  10.319  18.620   2.975
36111W        W 2542   3.467  40.807   4.536
36112W        W 2543  17.406   8.971  13.376
36113W        W 2544  33.488  12.345  12.487
36114W        W 2545  15.777  29.515   2.964
36115W        W 2546  43.854   2.464   0.236
36116W        W 2547  26.646  31.068  14.274
36117W        W 2548  19.080   0.449   1.598
36118W        W 2549   6.354  25.527   3.377
36119W        W 2550  11.296  39.817  14.438
36120W        W 2551  35.736  12.639   4.759
36121W        W 2552   1.448   0.293  13.823
36122W        W 2553   7.923  27.414   3.240
36123W        W 2554  36.401  37.449   0.901
36124W        W 2555  33.520   1.954  10.996
36125W        W 2556  37.820  18.814   0.386
36126W        W 2557  42.842   9.272  13.416
36127W        W 2558   2.184   0.123  12.071
36128W        W 2559  35.069   1.772   0.502
36129W        W 2560  14.241   5.899   4.463
36130W        W 2561  42.766  30.851   1.480
36131W        W 2562   1.892  12.765  14.849
36132W        W 2563  18.790  20.792   4.487
36133W        W 2564  36.872  26.955  13.428
36134W        W 2565  28.575  28.439  14.688
36135W        W 2566   6.336  13.724   4.161
36136W        W 2567  32.280  40.212  13.835
36137W        W 2568  26.768  11.854   2.858
36138W        W 2569  14.766  31.036  12.463
36139W        W 2570  23.626  33.978   5.010
36140W        W 2571  10.397  35.315  14.808
36141W        W 2572  40.014  24.692   3.355
36142W        W 2573  13.773  18.625  13.267
36143W        W 2574   0.955  35.302   1.883
36144W        W 2575  10.477  26.333  11.106
36145W        W 2576   1.145   1.514   2.223
36146W        W 2577   0.316  28.635  14.614
36147W        W 2578  15.705  31.712  10.521
36148W        W 2579  37.589  43.871   3.818
36149W        W 2580  24.608  18.609  14.285
36150W        W 2581  40.511   4.925   3.649
36151W        W 2582  25.249  12.822  12.008
36152W        W 2583   9.108  30.142  10.585
36153W        W 2584   1.242  13.871  11.053
36154W        W 2585  44.428  35.830  11.190
36155W        W 2586  43.703  11.665   1.306
36156W        W 2587  37.435  36.529   3.068
36157W        W 2588  25.906  27.956  10.763
36158W        W 2589   2.281   6.173  10.794
36159W        W 2590  21.674  18.355  12.884
36160W        W 2591   9.212   2.092   2.292
36161W        W 2592  37.473  14.191  12.546
36162W        W 2593  42.800  16.379   2.845
36163W        W 2594  14.793  22.730  12.298
36164W        W 2595  15.274   2.470   0.979
36165W        W 2596   2.711  29.541  12.952
36166W        W 2597  17.185   4.157  11.365
36167W        W 2598  21.586  44.411   2.939
36168W        W 2599  30.570  40.977  10.690
36169W        W 2600  23.601  26.196   4.610
36170W        W 2601   1.176   6.789  11.163
36171W        W 2602   9.139  22.477  11.682
36172W        W 2603   8.490  31.959  13.425
36173W        W 2604   8.669  37.913  12.932
36174W        W 2605  37.060   4.683   5.062
36175W        W 2606   0.460   0.970   4.107
36176W        W 2607  41.316  24.626  14.536
36177W        W 2608  28.971  11.110   0.042
36178W        W 2609  11.247   1.673   1.764
36179W        W 2610  30.528  41.892   2.051
36180W        W 2611  10.258  13.711  12.906
36181W        W 2612  32.643  41.372  11.009
36182W        W 2613   9.142  36.949   3.322
36183W        W 2614  42.410  29.877   0.769
36184W        W 2615   5.557  22.065  14.884
36185W        W 2616  17.547   1.046   4.652
36186W        W 2617  34.561   6.108   4.822
36187W        W 2618  32.701   8.888  11.152
36188W        W 2619  21.568  22.714   4.568
36189W        W 2620  22.134  27.068  11.154
36190W        W 2621  10.198  12.965   0.450
36191W        W 2622  12.408  21.235   3.206
36192W        W 2623  40.401  36.546   1.940
36193W        W 2624  34.415  20.535  13.599
36194W        W 2625   3.891  21.313  12.778
36195W        W 2626  38.259  23.024  13.986
36196W        W 2627  23.924  14.586   0.376
36197W        W 2628  30.888  19.696  14.229
36198W        W 2629  17.837  35.440  11.946
36199W        W 2630  40.066  16.177  11.643
36200W        W 2631  28.993  32.950   2.452
36201W        W 2632  27.997  44.836   2.276
36202W        W 2633   6.071   5.954  12.006
36203W        W 2634  30.565  26.961   1.715
36204W        W 2635  22.917  40.213  10.673
36205W        W 2636   5.428  10.591  14.821
36206W        W 2637   9.604   0.209  11.861
36207W        W 2638   0.033  18.439   3.868
36208W        W 2639  37.001   5.702   0.366
36209W        W 2640  41.240  27.596  10.744
36210W        W 2641  43.947  20.001   4.517
36211W        W 2642  38.914   3.423  14.713
36212W        W 2643  38.779  15.877   3.307
36213W        W 2644  18.567  37.794   4.681
36214W        W 2645  21.730  13.077   4.860
36215W        W 2646  29.885  38.711  12.194
36216W        W 2647  15.265   1.691   3.966
36217W        W 2648  13.262  21.011  12.351
36218W        W 2649  14.799  19.701  12.302
36219W        W 2650  38.034  11.361  12.952
36220W        W 2651   6.475  42.276   0.962
36221W        W 2652   6.973  23.582   2.530
36222W        W 2653  28.713  44.260  14.815
36223W        W 2654  38.001  30.336   2.491
36224W        W 2655  41.860  18.678  10.749
36225W        W 2656  38.387  42.774  12.513
36226W        W 2657  23.454  36.549  11.880
36227W        W 2658  24.770  27.962  14.316
36228W        W 2659  11.170  32.452   3.756
36229W        W 2660   2.496  35.867   3.363
36230W        W 2661  27.942  26.579  12.858
36231W        W 2662  37.323   9.424   2.772
36232W        W 2663  21.608  12.370  14.971
36233W        W 2664  38.720  24.590  13.807
36234W        W 2665  21.707  34.522   3.707
36235W        W 2666  43.104  26.511  11.020
36236W        W 2667  10.739   3.046   1.778
36237W        W 2668  34.646   6.180  10.730
36238W        W 2669  32.076  40.589   4.240
36239W        W 2670   2.940   8.585  11.526
36240W        W 2671  19.580  43.472  13.344
36241W        W 2672  18.276  36.840   1.112
36242W        W 2673  17.234  16.045  11.572
36243W        W 2674   5.855  44.943  14.316
36244W        W 2675   3.835   7.878  12.668
36245W        W 2676  39.818  25.712  11.433
36246W        W 2677  16.764  23.337   0.137
36247W        W 2678  24.440  12.025  14.626
36248W        W 2679   9.055  32.234   4.679
36249W        W 2680  31.042  10.525  12.101
36250W        W 2681  36.945   7.137   4.669
36251W        W 2682  17.780  22.595  14.493
36252W        W 2683   4.801  35.114   0.374
36253W        W 2684  14.172   2.881   2.322
36254W        W 2685  19.547  17.195  14.328
36255W        W 2686  27.555  20.599  12.162
36256W        W 2687  32.562  38.387  12.619
36257W        W 2688  17.313   8.404  14.413
36258W        W 2689  39.929  14.239   0.389
36259W        W 2690  30.348  19.958   4.904
36260W        W 2691  29.992  36.597  12.046
36261W        W 2692  43.587  21.015  10.228
36262W        W 2693  16.340  14.853  12.922
36263W        W 2694  13.306  28.742   2.736
36264W        W 2695   6.114  23.131  11.719
36265W        W 2696  23.982   2.283   3.189
36266W        W 2697  28.012   8.878   3.819
36267W        W 2698  21.948   7.781   4.708
36268W        W 2699   7.031  38.952  11.616
36269W        W 2700  39.080  25.687  14.476
36270W        W 2701  20.650  19.740   3.707
36271W        W 2702  16.198  37.718   0.804
36272W        W 2703  18.636  23.635   2.099
36273W        W 2704   1.784  36.255  13.768
36274W        W 2705  37.143  11.245  11.085
36275W        W 2706  28.950   2.428   3.793
36276W        W 2707   5.315  35.385  14.880
36277W        W 2708  44.780   1.504  13.423
36278W        W 2709   2.888  13.483  13.121
36279W        W 2710  35.523   7.217  12.167
36280W        W 2711   5.084   3.322   1.672
36281W        W 2712  44.587   6.258   0.691
36282W        W 2713  10.267  19.834  12.495
36283W        W 2714  36.860  22.198  11.960
36284W        W 2715   2.256  19.653  14.524
36285W        W 2716  16.423   7.305   3.709
36286W        W 2717  38.396  20.952  13.314
36287W        W 2718  27.764  29.756  12.026
36288W        W 2719   3.605  35.841  10.769
36289W        W 2720  11.377  24.559  14.031
36290W        W 2721  29.057  11.824   1.411
36291W        W 2722  44.344  23.191  10.618
36292W        W 2723  30.931  40.355  10.566
36293W        W 2724  42.898  38.093  12.052
36294W        W 2725  17.074   7.407   4.594
36295W        W 2726  27.627  23.152   1.567
36296W        W 2727   5.683  14.226  11.183
36297W        W 2728  36.587  40.012   1.511
36298W        W 2729  39.219  15.229  11.681
36299W        W 2730  19.536  37.234   0.788
36300W        W 2731  40.341  20.306   0.860
36301W        W 2732  15.199  37.878   3.156
36302W        W 2733  37.122  14.582  13.514
36303W        W 2734  18.615   3.238   2.405
36304W        W 2735   5.381   1.755  11.241
36305W        W 2736  23.540  32.377  14.523
36306W        W 2737  38.251  15.037   3.847
36307W        W 2738  32.428  20.493  13.849
36308W        W 2739  44.448   1.666   1.135
36309W        W 2740   8.135  24.700   4.513
36310W        W 2741   7.323  34.473  12.110
36311W        W 2742  36.800  37.938   5.375
36312W        W 2743  14.190  14.482  13.783
36313W        W 2744  27.799  38.298   4.111
36314W        W 2745  42.769  22.644   4.567
36315W        W 2746  24.216  14.329   0.727
36316W        W 2747  26.139  10.527   1.705
36317W        W 2748  31.552  26.550  13.947
36318W        W 2749  39.818   9.429  13.346
36319W        W 2750  11.752  40.468  14.505
36320W        W 2751   2.322   6.255   2.703
36321W        W 2752  17.818  26.056  12.275
36322W        W 2753  17.218  13.137  11.006
36323W        W 2754  23.807  44.879   3.299
36324W        W 2755  42.830  30.186   0.765
36325W        W 2756  19.791  21.627  13.098
36326W        W 2757  36.798  37.712  10.985
36327W        W 2758   0.345  23.276  11.449
36328W        W 2759  21.204  29.808  11.222
36329W        W 2760  27.906  36.478  11.428
36330W        W 2761   7.070   2.218   2.114
36331W        W 2762  32.588  43.429   4.336
36332W        W 2763  44.397  33.831   0.471
36333W        W 2764   5.264  28.068  14.901
36334W        W 2765   1.446  35.368   4.621
36335W        W 2766  20.078  16.368   3.234
36336W        W 2767  26.445  37.500   4.903
36337W        W 2768  16.332  39.511  13.994
36338W        W 2769   7.181  39.016  13.682
36339W        W 2770   9.165  36.933  13.916
36340W        W 2771  43.925   6.903   4.578
36341W        W 2772  39.388  22.498   1.183
36342W        W 2773   6.358  11.121  12.920
36343W        W 2774  22.086  14.262   4.775
36344W        W 2775  16.114  29.983   0.812
36345W        W 2776  29.421  28.220   3.862
36346W        W 2777  35.359  42.005   3.664
36347W        W 2778  19.591  33.939  12.546
36348W        W 2779   9.480   1.044   0.410
36349W        W 2780   6.312  44.343   1.269
36350W        W 2781  31.976  44.231  10.574
36351W        W 2782  13.112  13.865   1.492
36352W        W 2783  32.564  34.909   0.762
36353W        W 2784  33.928  37.549  14.047
36354W        W 2785  42.577   9.169  12.965
36355W        W 2786  34.056  13.302   1.253
36356W        W 2787  19.405  43.845   4.467
36357W        W 2788  34.400  17.435   2.605
36358W        W 2789   4.315  15.158  12.977
36359W        W 2790  29.596  13.553  14.337
36360W        W 2791  36.637  44.877   1.895
36361W        W 2792  15.402  34.273  13.507
36362W        W 2793  30.969  18.200   2.911
36363W        W 2794   5.937  38.428   1.678
36364W        W 2795  10.867  40.088  14.526
36365W        W 2796   6.852  38.286  11.101
36366W        W 2797  28.897  26.690  12.602
36367W        W 2798  27.554   1.929  10.765
36368W        W 2799  42.002  29.548   0.292
36369W        W 2800  14.121  37.054  13.446
36370W        W 2801   2.211  36.134  11.989
36371W        W 2802  41.737  39.435  13.871
36372W        W 2803  11.679   5.597   0.905
36373W        W 2804  35.858  39.213   2.133
36374W        W 2805  15.990  16.512  14.473
36375W        W 2806   0.811  41.533  10.281
36376W        W 2807  35.593  36.058   4.643
36377W        W 2808  29.781  40.039  10.451
36378W        W 2809  19.569   6.589  12.513
36379W        W 2810   9.335  34.790   1.244
36380W        W 2811  21.309   9.151  11.891
36381W        W 2812  26.997  27.893  13.837
36382W        W 2813  28.635  36.122  14.327
36383W        W 2814   3.074  35.755   1.848
36384W        W 2815  27.188  10.355   3.187
36385W        W 2816  12.276   3.700   4.190
36386W        W 2817   5.724  34.925   1.885
36387W        W 2818  30.362  28.114   3.524
36388W        W 2819  23.717  22.262  10.747
36389W        W 2820  12.289  34.866  12.544
36390W        W 2821   4.685  42.430  12.516
36391W        W 2822  38.855  27.048   3.688
36392W        W 2823   7.067  33.455  13.457
36393W        W 2824  34.577   2.273  10.824
36394W        W 2825  38.984   8.793  14.310
36395W        W 2826   8.702  43.814  14.825
36396W        W 2827  42.076  41.474  11.424
36397W        W 2828   6.278  24.042   0.974
36398W        W 2829  34.883  40.582  10.796
36399W        W 2830  43.196  34.110  13.255
36400W        W 2831   3.810  35.929   1.500
36401W        W 2832  15.324  11.605  13.919
36402W        W 2833  30.883  20.145   0.666
36403W        W 2834  31.530   0.863   4.098
36404W        W 2835  32.357  21.758  14.370
36405W        W 2836   5.643  43.515  11.512
36406W        W 2837  14.416  29.695  14.274
36407W        W 2838  29.849  25.576  10.619
36408W        W 2839   4.471  30.636   4.207
36409W        W 2840  25.129   4.983   0.650
36410W        W 2841   2.783  19.051   3.377
36411W        W 2842  41.488   0.519   0.531
36412W        W 2843  42.108   7.220   1.562
36413W        W 2844  23.253  31.593  10.751
36414W        W 2845  19.073   1.356  14.880
36415W        W 2846  32.075  21.691   4.703
36416W        W 2847  38.936   0.352   3.209
36417W        W 2848  27.650  19.041  10.405
36418W        W 2849  22.225  29.125   0.905
36419W        W 2850   5.079  30.550  12.439
36420W        W 2851  27.886  31.107  12.782
36421W        W 2852   0.139  15.872   1.590
36422W        W 2853  21.240  21.691  14.670
36423W        W 2854  32.526  20.025   4.628
36424W        W 2855   4.737  17.978   4.519
36425W        W 2856  36.988   9.920   1.551
36426W        W 2857  30.186  34.038  12.115
36427W        W 2858  21.589   9.573   0.424
36428W        W 2859  21.596   9.866   3.738
36429W        W 2860  24.034   8.948  11.962
36430W        W 2861  43.057  10.381  14.409
36431W        W 2862  43.655  25.225   3.809
36432W        W 2863  44.610   9.175   1.272
36433W        W 2864  18.134  38.351   3.328
36434W        W 2865  39.088  18.161   4.892
36435W        W 2866  25.544   4.942   2.250
36436W        W 2867  44.695  41.109   3.696
36437W        W 2868  41.562   1.775   3.725
36438W        W 2869  24.958  31.975   4.260
36439W        W 2870   9.464  33.883   0.259
36440W        W 2871  43.168  35.584   1.336
36441W        W 2872  13.615   6.771   1.941
36442W        W 2873  38.485  11.280   4.667
36443W        W 2874  15.385  21.439  11.066
36444W        W 2875   9.679  18.070  11.018
36445W        W 2876  33.066  11.751  14.931
36446W        W 2877  18.647  22.704  13.283
36447W        W 2878  40.053   6.213  11.382
36448W        W 2879  34.635  38.897   0.523
36449W        W 2880   7.355  32.372   0.815
36450W        W 2881  21.595   0.807  12.655
36451W        W 2882  14.288   1.400  13.013
36452W        W 2883   9.585  23.546  10.783
36453W        W 2884  11.791  19.105   3.887
36454W        W 2885  11.543   9.786  12.315
36455W        W 2886  40.772   9.341  13.575
36456W        W 2887  20.129  23.157  14.506
36457W        W 2888  20.393  16.908   0.721
36458W        W 2889  20.640  29.311  12.378
36459W        W 2890  36.501  36.289  13.000
36460W        W 2891  26.355  10.735   4.073
36461W        W 2892  38.886  39.769  11.053
36462W        W 2893   0.884   0.572   3.034
36463W        W 2894  19.140  13.393  11.199
36464W        W 2895  30.857  15.985   3.563
36465W        W 2896  42.010  42.472   3.779
36466W        W 2897  36.360  11.545  12.295
36467W        W 2898  21.135   2.425   2.694
36468W        W 2899  24.695  35.417  11.635
36469W        W 2900  43.329  30.877  14.495
36470W        W 2901  28.087  39.249   3.131
36471W        W 2902  16.353  15.728  12.046
36472W        W 2903  30.122  25.166  10.822
36473W        W 2904   3.466  30.912  10.534
36474W        W 2905   6.891   5.257  12.541
36475W        W 2906  42.147  11.308  10.935
36476W        W 2907  23.976  35.250   0.313
36477W        W 2908   1.516  18.948   2.951
36478W        W 2909  20.322  10.569  11.172
36479W        W 2910   4.720  24.330   1.842
36480W        W 2911  33.492  18.768  10.683
36481W        W 2912  13.666  16.326   2.397
36482W        W 2913  18.514   9.177   1.353
36483W        W 2914  18.625  17.951  14.941
36484W        W 2915  22.637  34.906   0.940
36485W        W 2916  25.076  28.241  14.001
36486W        W 2917  38.428   2.235  11.477
36487W        W 2918  23.447  37.133   3.279
36488W        W 2919  43.918   4.492  12.986
36489W        W 2920  20.702  30.006  14.007
36490W        W 2921  14.136  12.270  14.940
36491W        W 2922   7.351  39.039   0.567
36492W        W 2923  37.033  14.101  13.380
36493W        W 2924  31.900  20.963   1.483
36494W        W 2925  35.364  20.422  13.448
36495W        W 2926   0.889  23.510   2.261
36496W        W 2927  35.534   2.882  12.372
36497W        W 2928  44.292   1.556  12.598
36498W        W 2929  22.798   8.658   2.566
36499W        W 2930  28.927  13.095  14.754
36500W        W 2931  14.091  28.105  12.938
36501W        W 2932   1.463  11.390  12.877
36502W        W 2933  41.595  13.367  13.649
36503W        W 2934   1.258  14.147   1.391
36504W        W 2935  20.020  40.769   2.932
36505W        W 2936  35.519  35.531  13.050
36506W        W 2937  22.237   9.114  12.365
36507W        W 2938  31.134  35.344  14.697
36508W        W 2939   4.689  44.781  12.696
36509W        W 2940  24.460  11.271   3.306
36510W        W 2941  30.233  23.171   2.932
36511W        W 2942  36.426  36.513   2.685
36512W        W 2943   4.649  26.093  14.715
36513W        W 2944   9.636  30.678  12.067
36514W        W 2945  22.618   8.652  12.943
36515W        W 2946  32.500   6.894   3.823
36516W        W 2947  35.869   0.276  10.759
36517W        W 2948  14.123  22.957   4.400
36518W        W 2949  40.808  23.392   4.130
36519W        W 2950  26.088   4.702   1.453
36520W        W 2951  38.958  17.349  14.917
36521W        W 2952  27.991   3.199  13.487
36522W        W 2953  34.729  44.095  11.938
36523W        W 2954  23.187   8.394   2.785
36524W        W 2955  25.529   7.754   2.144
36525W        W 2956  34.516  30.114   4.580
36526W        W 2957   7.495  41.529  14.774
36527W        W 2958  38.776  22.066  11.118
36528W        W 2959  38.891  37.363   4.882
36529W        W 2960   1.832  18.571   0.308
36530W        W 2961  13.607   7.155   0.472
36531W        W 2962  21.063  34.697  10.958
36532W        W 2963   9.696  13.180  12.626
36533W        W 2964  13.616  20.077  14.699
36534W        W 2965  24.476  28.623  11.619
36535W        W 2966  14.155  21.292   1.774
36536W        W 2967  24.148  42.317   2.725
36537W        W 2968  16.776  24.856   4.806
36538W        W 2969  35.357  30.108  11.240
36539W        W 2970  16.995  22.239  12.579
36540W        W 2971  29.522  26.867   5.091
36541W        W 2972  19.720  29.615   2.825
36542W        W 2973  15.461   3.386   2.780
36543W        W 2974  27.026  29.767   3.588
36544W        W 2975  17.280  17.096   4.517
36545W        W 2976  30.432   4.889  14.268
36546W        W 2977  18.235  28.426   1.427
36547W        W 2978  32.390  13.887   4.699
36548W        W 2979   1.866  42.252   3.695
36549W        W 2980  11.650  10.465  11.145
36550W        W 2981  42.050  33.399  10.315
36551W        W 2982  30.326  31.155  10.809
36552W        W 2983  19.999  20.196   2.701
36553W        W 2984  14.301  31.520   2.782
36554W        W 2985  25.977   5.391   9.706
36555W        W 2986   9.285  30.918  11.179
36556W        W 2987  35.998  12.477  12.479
36557W        W 2988  28.730  19.649   2.361
36558W        W 2989  33.539  28.497  14.492
36559W        W 2990  34.977   4.740   2.739
36560W        W 2991  34.019  20.263   0.935
36561W        W 2992   4.972   0.423  12.645
36562W        W 2993  14.411  41.464  11.948
36563W        W 2994  41.414  22.829  12.608
36564W        W 2995  41.812   8.840   0.216
36565W        W 2996  35.203  23.602   3.002
36566W        W 2997  33.226   0.257   1.330
36567W        W 2998  30.322  26.491   2.739
36568W        W 2999   7.956  38.392  14.698
36569W        W 3000  32.473  16.982  10.115
36570W        W 3001  17.013  12.873   1.420
36571W        W 3002  27.089  35.539   2.336
36572W        W 3003  33.769  43.832  14.202
36573W        W 3004   8.071  43.285   0.807
36574W        W 3005   8.910   9.890   3.623
36575W        W 3006   7.724  18.222  13.400
36576W        W 3007   5.298   4.151   1.432
36577W        W 3008  40.490  24.959  12.155
36578W        W 3009  21.994  28.886   3.713
36579W        W 3010  36.486  44.706  11.236
36580W        W 3011  10.596  25.046   5.097
36581W        W 3012  42.993   1.879   3.289
36582W        W 3013  30.055  39.607   4.052
36583W        W 3014   2.652   3.831  11.718
36584W        W 3015  35.181   9.738  12.129
36585W        W 3016   7.601   1.603  11.677
36586W        W 3017  34.961  31.166   2.204
36587W        W 3018  24.738   0.152   0.505
36588W        W 3019  21.558   8.716   2.158
36589W        W 3020  37.789   9.595   0.295
36590W        W 3021  18.779  12.901   4.660
36591W        W 3022  20.063  44.924  12.926
36592W        W 3023  36.908  13.515  12.446
36593W        W 3024  16.711   2.772   2.407
36594W        W 3025   3.016  15.184   0.952
36595W        W 3026  26.201  11.233  11.936
36596W        W 3027  11.266  22.952   0.799
36597W        W 3028  41.814  44.912   4.805
36598W        W 3029  30.403  42.373  11.488
36599W        W 3030  12.362  33.492   3.132
36600W        W 3031  13.425   3.693  12.328
36601W        W 3032  23.694  41.915  12.966
36602W        W 3033  44.011   9.319  13.765
36603W        W 3034  37.315  11.223   3.706
36604W        W 3035  18.589  28.692   0.216
36605W        W 3036   2.802  42.536  14.960
36606W        W 3037  11.683  37.039  10.467
36607W        W 3038   9.399  32.952   3.920
36608W        W 3039  28.375  21.542   0.661
36609W        W 3040  10.622  32.960   1.975
36610W        W 3041   3.721  30.456  14.407
36611W        W 3042  14.603   5.003  14.462
36612W        W 3043  25.814  25.606  12.912
36613W        W 3044  25.220  26.190   3.395
36614W        W 3045  32.866  44.504   0.871
36615W        W 3046  31.177   6.984   4.011
36616W        W 3047   7.168  25.454   3.390
36617W        W 3048  12.581  35.750  12.404
36618W        W 3049  26.763   4.601  13.833
36619W        W 3050   9.145   4.691  10.636
36620W        W 3051  16.897  14.160   3.815
36621W        W 3052   1.163  23.232  11.155
36622W        W 3053  18.093  37.877   0.838
36623W        W 3054   7.346  23.236   0.489
36624W        W 3055  36.373  24.720  13.969
36625W        W 3056  36.533  38.602   2.121
36626W        W 3057  16.469  38.612  13.460
36627W        W 3058  36.382  38.753  11.890
36628W        W 3059   5.778   6.253   4.539
36629W        W 3060  22.481  23.602  14.272
36630W        W 3061  41.122  44.822   1.978
36631W        W 3062  41.900  29.870  10.714
36632W        W 3063  37.533  18.716   3.630
36633W        W 3064   9.750   6.902  11.710
36634W        W 3065  39.174   2.775   2.878
36635W        W 3066  16.261  17.826  12.278
36636W        W 3067   0.257  21.072  10.299
36637W        W 3068   6.300  21.595  14.340
36638W        W 3069  12.752   1.139   1.019
36639W        W 3070   9.734  34.823  13.544
36640W        W 3071  41.351  25.565   2.858
36641W        W 3072  24.591  36.648  13.498
36642W        W 3073  35.961   8.629   3.370
36643W        W 3074  26.021  24.248  12.974
36644W        W 3075   7.808  27.733  13.519
36645W        W 3076   4.640  38.630  10.215
36646W        W 3077  12.943  12.068  11.166
36647W        W 3078  23.193   6.727   1.412
36648W        W 3079  16.289  26.162   2.256
36649W        W 3080  42.375  14.174  12.467
36650W        W 3081  32.186   0.443   3.723
36651W        W 3082  27.101  35.591  11.608
36652W        W 3083   3.018   6.747  14.911
36653W        W 3084   2.732  42.391  11.433
36654W        W 3085  15.210  28.608  11.162
36655W        W 3086   8.887  27.914  12.021
36656W        W 3087  39.398  15.264  11.145
36657W        W 3088  15.551   3.916  13.934
36658W        W 3089  34.071  18.765  14.981
36659W        W 3090   0.975  38.582   2.574
36660W        W 3091  25.005  26.592   0.702
36661W        W 3092  28.063  24.929   0.029
36662W        W 3093   8.315   9.486   1.730
36663W        W 3094   2.766  22.532   2.214
36664W        W 3095  37.460   8.451   5.098
36665W        W 3096  22.535  42.987  11.821
36666W        W 3097   6.796  25.117  11.607
36667W        W 3098  39.501  39.648   0.338
36668W        W 3099  34.838   9.902   0.918
36669W        W 3100  14.777   9.991   2.017
36670W        W 3101  16.590  33.951  14.247
36671W        W 3102  24.889   4.670  13.429
36672W        W 3103  34.990  26.120   2.806
36673W        W 3104  26.997   1.847   3.557
36674W        W 3105  20.998  32.006  11.668
36675W        W 3106  27.297   7.304  12.359
36676W        W 3107   1.758   4.734  11.531
36677W        W 3108  42.603   3.473   0.834
36678W        W 3109  35.122  25.143   2.333
36679W        W 3110   8.875  42.921  13.896
36680W        W 3111   5.096  40.934  12.404
36681W        W 3112  36.396  36.594   1.191
36682W        W 3113  21.504  22.783  10.270
36683W        W 3114   1.496  30.588   1.735
36684W        W 3115  30.747  35.596  13.774
36685W        W 3116   7.613  32.032   1.518
36686W        W 3117  21.502  41.014  12.944
36687W        W 3118   7.335  37.304   3.995
36688W        W 3119  41.509   0.247   1.953
36689W        W 3120  32.749  40.818   1.252
36690W        W 3121  13.818  44.461   1.132
36691W        W 3122   2.516   8.297   2.910
36692W        W 3123  27.458   9.806  14.592
36693W        W 3124  24.651   2.349   1.003
36694W        W 3125  13.832  20.946   0.037
36695W        W 3126  28.273   3.351   4.917
36696W        W 3127  20.529  16.086  14.290
36697W        W 3128  41.901   8.473  14.821
36698W        W 3129   7.033   8.790  12.632
36699W        W 3130  23.954   0.621  12.085
36700W        W 3131  19.462  37.302  14.873
36701W        W 3132   9.529  30.303   0.374
36702W        W 3133  13.560  24.203   2.228
36703W        W 3134   5.329   0.396   0.761
36704W        W 3135  39.602  14.900   1.410
36705W        W 3136   2.171  13.174   0.942
36706W        W 3137  39.755  19.568   0.275
36707W        W 3138  17.518   5.254   1.887
36708W        W 3139  26.109   2.897  12.977
36709W        W 3140  37.592  11.092  12.957
36710W        W 3141  37.761  23.158  13.017
36711W        W 3142   6.391  38.621   5.103
36712W        W 3143   7.445  20.864  11.620
36713W        W 3144  16.837  42.435  14.817
36714W        W 3145  40.016  11.184  10.545
36715W        W 3146  17.061  25.955   4.620
36716W        W 3147  24.335   2.206  11.670
36717W        W 3148  31.042   2.219   1.413
36718W        W 3149  30.182  22.707  11.005
36719W        W 3150   3.431   9.100  13.422
36720W        W 3151  21.493  17.529  12.512
36721W        W 3152  10.008  18.811   4.101
36722W        W 3153  16.668  31.024  10.784
36723W        W 3154  29.403   1.499  11.111
36724W        W 3155  26.631  35.428  11.425
36725W        W 3156  26.039  42.529   3.837
36726W        W 3157   1.459  44.511  11.516
36727W        W 3158  30.270  23.126   4.999
36728W        W 3159  11.803   5.928   2.433
36729W        W 3160   4.219   1.115  11.787
36730W        W 3161   4.219  13.770  14.049
36731W        W 3162  33.545   8.332   2.154
36732W        W 3163  30.062  38.508  13.590
36733W        W 3164   7.894  39.448   3.989
36734W        W 3165  20.451   7.110   0.384
36735W        W 3166  36.411  34.353   3.781
36736W        W 3167  10.552   1.428  13.980
36737W        W 3168  31.194   9.896   1.955
36738W        W 3169  43.735  17.153  12.789
36739W        W 3170  41.562  34.667   0.916
36740W        W 3171   1.429  17.346   3.777
36741W        W 3172   3.837   1.470  12.671
36742W        W 3173  33.488  16.092   0.198
36743W        W 3174  33.237  44.589   4.976
36744W        W 3175  25.710  40.487   1.817
36745W        W 3176   9.984  33.772  11.910
36746W        W 3177  13.725   4.502   1.683
36747W        W 3178  32.004   1.767   2.211
36748W        W 3179  16.732  34.072   1.507
36749W        W 3180  35.035  26.726  12.514
36750W        W 3181  12.164  26.447  12.617
36751W        W 3182  18.918   1.760   2.213
36752W        W 3183   6.372   2.979   4.139
36753W        W 3184   3.571  40.031   0.308
36754W        W 3185  12.158  23.112   1.143
36755W        W 3186  13.247  32.934   4.414
36756W        W 3187  28.492  37.201  14.257
36757W        W 3188   1.346  24.265  13.000
36758W        W 3189  25.435  30.575   0.406
36759W        W 3190  24.399  29.860  12.217
36760W        W 3191   9.275  15.195   1.397
36761W        W 3192  39.173  10.188   0.927
36762W        W 3193  22.536  33.063  13.938
36763W        W 3194  10.122   0.390  13.550
36764W        W 3195  34.958   4.220   2.769
36765W        W 3196  19.453   1.249  12.905
36766W        W 3197  14.713  44.737   2.192
36767W        W 3198  42.097   2.007   4.699
36768W        W 3199   7.773  11.354  13.390
36769W        W 3200  38.025  21.705  11.495
36770W        W 3201  25.546  38.071   4.305
36771W        W 3202  23.090   3.231  14.968
36772W        W 3203  33.848  39.470  14.314
36773W        W 3204  34.785  21.487  12.046
36774W        W 3205   8.294  31.417  14.028
36775W        W 3206  38.425  31.285  13.446
36776W        W 3207  21.333  42.840  12.276
36777W        W 3208  18.520  31.640   0.432
36778W        W 3209  39.380  18.450  11.995
36779W        W 3210  18.589  38.434   2.369
36780W        W 3211  39.294  23.345   2.261
36781W        W 3212   3.000  12.308  14.979
36782W        W 3213  11.657   7.360  14.390
36783W        W 3214  24.486  22.659   0.739
36784W        W 3215   3.010  29.049  11.978
36785W        W 3216  36.156  13.284  10.991
36786W        W 3217  12.514   8.835  13.420
36787W        W 3218  38.833  37.051   1.348
36788W        W 3219  10.380  13.042   1.866
36789W        W 3220  29.053  11.914  12.119
36790W        W 3221  15.277  32.043  13.893
36791W        W 3222  41.463   0.966   2.454
36792W        W 3223  34.701  38.054   1.645
36793W        W 3224  26.401  39.093  11.292
36794W        W 3225  24.287  38.771  12.061
36795W        W 3226  33.628   5.154   0.318
36796W        W 3227   7.956  26.530  14.754
36797W        W 3228  42.328  14.205   2.347
36798W        W 3229   6.739  17.022   3.992
36799W        W 3230  30.627  26.540   0.937
36800W        W 3231   6.499  40.122   3.494
36801W        W 3232  38.085  18.078   1.361
36802W        W 3233  37.118  21.742  10.524
36803W        W 3234   4.961  22.152   4.146
36804W        W 3235  36.829  12.279  14.644
36805W        W 3236  18.614  32.476  14.520
36806W        W 3237  33.893  15.174  13.954
36807W        W 3238   0.089   1.169  13.930
36808W        W 3239  34.548  14.105   0.384
36809W        W 3240  22.095  22.643  11.442
36810W        W 3241  15.365  42.888   3.477
36811W        W 3242  27.917   5.475   3.320
36812W        W 3243  30.092  19.668  12.988
36813W        W 3244   4.241  16.822  10.988
36814W        W 3245  26.242  41.588   1.281
36815W        W 3246  36.378   2.424   3.863
36816W        W 3247  33.185  31.366  11.546
36817W        W 3248  34.636  37.962   2.336
36818W        W 3249  29.356  36.223   2.230
36819W        W 3250  13.378  29.786  12.998
36820W        W 3251  37.857  17.027  14.933
36821W        W 3252  33.425  13.697  14.705
36822W        W 3253  38.871  14.417  11.722
36823W        W 3254  25.246  35.199   3.713
36824W        W 3255  44.141  20.805  13.580
36825W        W 3256  19.748  20.541   4.777
36826W        W 3257  35.772  29.109  13.060
36827W        W 3258  43.060  29.280  11.658
36828W        W 3259   3.973  39.439  14.446
36829W        W 3260   7.680  34.578   4.954
36830W        W 3261  19.434  19.440   5.245
36831W        W 3262  12.274  42.706   0.157
36832W        W 3263  19.223  10.379  12.530
36833W        W 3264  21.279  37.710   9.816
36834W        W 3265  43.818  23.464   3.676
36835W        W 3266  34.357  18.751  12.849
36836W        W 3267  27.387  25.610  14.816
36837W        W 3268  35.392   2.124   4.613
36838W        W 3269  16.316  25.465   1.701
36839W        W 3270  12.122  14.366  10.550
36840W        W 3271   7.215  24.217  13.100
36841W        W 3272  18.468  38.990  13.412
36842W        W 3273   6.909  30.711  13.017
36843W        W 3274  10.259  11.209  12.034
36844W        W 3275  36.371  23.774   1.060
36845W        W 3276   1.457  24.194   3.256
36846W        W 3277   9.394  17.098  14.816
36847W        W 3278  43.810   6.469  11.150
36848W        W 3279  21.188  10.032   3.468
36849W        W 3280  32.662  35.439  10.705
36850W        W 3281  42.704  38.452   0.417
36851W        W 3282  32.660  31.089   3.196
36852W        W 3283  13.091  40.969   2.311
36853W        W 3284  43.561  36.580  13.795
36854W        W 3285  28.963  41.576  13.333
36855W        W 3286   2.923   9.296  13.522
36856W        W 3287  37.384  31.845   1.859
36857W        W 3288  33.921   3.351   1.479
36858W        W 3289  28.730  22.436  13.384
36859W        W 3290  13.902  31.400  11.216
36860W        W 3291   8.213  22.998  13.964
36861W        W 3292  31.519   4.337   1.639
36862W        W 3293  25.146  19.273  11.796
36863W        W 3294  37.768  39.948  14.253
36864W        W 3295  19.041  24.456  13.261
36865W        W 3296  37.663  13.597  12.925
36866W        W 3297   4.144  42.718  12.547
36867W        W 3298  12.550  40.044   1.197
36868W        W 3299  33.638   0.816   3.206
36869W        W 3300  33.856   9.543   2.842
36870W        W 3301  34.051  13.901   4.459
36871W        W 3302   5.188   7.734   3.443
36872W        W 3303  41.868  36.276  11.467
36873W        W 3304  38.798  36.076   3.118
36874W        W 3305  36.768  15.473   0.461
36875W        W 3306  23.164  41.857  11.141
36876W        W 3307  23.117  41.488  12.298
36877W        W 3308  29.101  17.227   3.239
36878W        W 3309  39.417  30.354  11.677
36879W        W 3310  12.187  32.719   0.851
36880W        W 3311  19.312  12.061   1.930
36881W        W 3312   7.490  38.632  13.467
36882W        W 3313  32.216  29.066   3.428
36883W        W 3314  42.845   7.123  13.387
36884W        W 3315   7.953  23.509  14.439
36885W        W 3316  21.090  37.901   0.447
36886W        W 3317  20.264  24.459  11.498
36887W        W 3318  28.100  13.073  11.439
36888W        W 3319   2.770  17.681  14.280
36889W        W 3320  33.987  15.530   0.477
36890W        W 3321  31.016   6.678   3.078
36891W        W 3322   2.472  27.051   4.828
36892W        W 3323  21.487   6.212  12.143
36893W        W 3324   2.738  27.872  11.658
36894W        W 3325  41.732  12.675   0.951
36895W        W 3326  38.072   7.349  11.466
36896W        W 3327   5.675  36.931  10.697
36897W        W 3328  10.589  30.950   3.742
36898W        W 3329   6.977  26.562  14.861
36899W        W 3330  16.274  10.356  13.063
36900W        W 3331  38.810  28.928  13.092
36901W        W 3332   0.064  41.613   0.932
36902W        W 3333  27.420   8.267   3.872
36903W        W 3334  18.526  19.563  13.106
36904W        W 3335  12.209  37.339  11.469
36905W        W 3336  33.397  27.544   2.882
36906W        W 3337  14.778  24.824   3.121
36907W        W 3338  20.529  43.482   2.655
36908W        W 3339  27.000  33.413   3.371
36909W        W 3340  22.744   3.847   0.698
36910W        W 3341   1.923   7.494  10.534
36911W        W 3342  31.648   4.803   2.308
36912W        W 3343   5.511  27.623  14.889
36913W        W 3344  41.348  33.277  13.292
36914W        W 3345   3.951  30.710  13.683
36915W        W 3346   4.944  39.070   3.117
36916W        W 3347   7.825  11.116  12.947
36917W        W 3348  28.521  26.228   4.614
36918W        W 3349   4.194  12.802   0.376
36919W        W 3350  15.076   5.879  14.152
36920W        W 3351  19.363  26.116   2.339
36921W        W 3352  24.659  31.415   1.785
36922W        W 3353   5.215  10.947  11.994
36923W        W 3354  21.556   2.555   1.861
36924W        W 3355  39.588  16.458  12.851
36925W        W 3356  42.250  28.685   3.189
36926W        W 3357  44.264  44.839   3.603
36927W        W 3358  39.286  10.419  13.076
36928W        W 3359   6.921  42.406   3.266
36929W        W 3360  11.223   7.571   2.329
36930W        W 3361  37.492  35.105   3.959
36931W        W 3362  13.190   6.105  13.358
36932W        W 3363   1.115  35.075   0.888
36933W        W 3364   9.761  13.712  13.822
36934W        W 3365   5.841  10.735   1.051
36935W        W 3366  40.709  38.845   4.011
36936W        W 3367   1.293  38.857  14.173
36937W        W 3368  13.731  43.999   0.877
36938W        W 3369  21.325  33.118   3.055
36939W        W 3370  21.753   5.206   0.784
36940W        W 3371  22.810   6.435  14.049
36941W        W 3372  44.097  27.411  12.272
36942W        W 3373  12.850  22.591   1.935
36943W        W 3374   2.123  36.422   2.694
36944W        W 3375  14.520  12.769   2.451
36945W        W 3376  32.667  36.802  13.432
36946W        W 3377  16.800   1.681  13.396
36947W        W 3378  40.442  41.459  12.045
36948W        W 3379   2.140  32.213   3.361
36949W        W 3380  24.188  15.183  11.646
36950W        W 3381  37.873  11.390   1.530
36951W        W 3382  41.505  22.108  10.753
36952W        W 3383  20.124   2.660  12.480
36953W        W 3384   4.904   3.210  13.753
36954W        W 3385  19.995  14.697   4.269
36955W        W 3386  32.956  24.120   2.314
36956W        W 3387  38.572  15.066  10.906
36957W        W 3388  15.507  13.291   4.060
36958W        W 3389  38.049  41.853   2.534
36959W        W 3390  21.501   8.372   0.647
36960W        W 3391  19.707  31.126   1.862
36961W        W 3392  11.740  31.667   4.603
36962W        W 3393  24.559  28.998  12.467
36963W        W 3394  35.422  32.028   2.783
36964W        W 3395  14.844  35.878  11.703
36965W        W 3396  30.152  40.617   0.234
36966W        W 3397   0.131  20.916   0.986
36967W        W 3398   7.449   3.515  11.668
36968W        W 3399   4.169   7.571  12.974
36969W        W 3400  13.055   7.092   4.572
36970W        W 3401  32.943  11.641  13.040
36971W        W 3402   8.548  13.548   2.429
36972W        W 3403  42.767   0.392  11.447
36973W        W 3404  12.104   6.543   1.874
36974W        W 3405  25.491   9.678  13.455
36975W        W 3406  11.503  16.761   3.297
36976W        W 3407  28.278  15.991  11.473
36977W        W 3408  39.593   7.897   3.830
36978W        W 3409  30.543  18.624   2.351
36979W        W 3410  38.202  35.549  13.927
36980W        W 3411   5.936  23.618   1.379
36981W        W 3412  31.569  12.674   2.399
36982W        W 3413  38.665   4.734  12.600
36983W        W 3414  40.859  25.532  12.548
36984W        W 3415  11.826   0.253  13.451
36985W        W 3416  10.632   4.856   1.724
36986W        W 3417   1.503   4.795  13.493
36987W        W 3418   5.100  15.705   3.588
36988W        W 3419  26.619  36.647   1.851
36989W        W 3420   9.075   7.836   4.674
36990W        W 3421  14.894  13.753  10.211
36991W        W 3422  10.121  11.851  11.361
36992W        W 3423  43.445  41.227   4.667
36993W        W 3424  16.369  42.779  13.984
36994W        W 3425  10.622  36.078   2.801
36995W        W 3426  44.017   4.780  12.521
36996W        W 3427  36.394  19.341  13.561
36997W        W 3428   8.861   1.020  12.168
36998W        W 3429   8.597  36.418   0.326
36999W        W 3430  11.261  16.308   3.145
37000W        W 3431  18.911  35.468   4.137
37001W        W 3432  29.240  11.759  12.586
37002W        W 3433  15.085  36.613  11.933
37003W        W 3434   4.753  29.561   0.653
37004W        W 3435  24.756  22.507   2.176
37005W        W 3436  21.512  42.037  12.531
37006W        W 3437  10.731  41.111   1.550
37007W        W 3438   5.453  20.389   1.236
37008W        W 3439  11.179  10.248  14.925
37009W        W 3440   4.719   3.153   0.205
37010W        W 3441  14.543  10.905   2.160
37011W        W 3442  39.379   6.848   0.230
37012W        W 3443   7.934   2.886   4.846
37013W        W 3444   5.811  42.562   4.017
37014W        W 3445  33.815  42.813   1.860
37015W        W 3446  21.628  40.540   3.033
37016W        W 3447  38.254  21.223  14.438
37017W        W 3448  37.112  19.309   4.514
37018W        W 3449  44.865   8.201  12.574
37019W        W 3450  13.670  36.463  14.216
37020W        W 3451  24.440  30.928   0.788
37021W        W 3452  24.992  41.715  12.368
37022W        W 3453  30.732   3.909   0.809
37023W        W 3454  23.405  14.464  14.135
37024W        W 3455  24.248  26.050   3.393
37025W        W 3456  40.139  25.905  14.031
37026W        W 3457  10.361  21.068   3.270
37027W        W 3458   7.904  23.069  13.537
37028W        W 3459   8.608  36.555  12.676
37029W        W 3460  26.709  22.520   2.641
37030W        W 3461  32.337  23.874  14.929
37031W        W 3462  15.789   0.295   0.754
37032W        W 3463  43.788  14.818   4.409
37033W        W 3464  23.583  17.695   3.689
37034W        W 3465  43.434  22.735  10.330
37035W        W 3466  17.558   8.544   0.778
37036W        W 3467   3.162  29.989  11.836
37037W        W 3468  41.854  16.776  12.418
37038W        W 3469   7.971  31.939  13.358
37039W        W 3470   7.009  35.249  12.608
37040W        W 3471  43.505   7.899   0.722
37041W        W 3472  16.536  37.089   1.984
37042W        W 3473  11.721  27.664  12.468
37043W        W 3474   2.381  30.462  12.639
37044W        W 3475  22.486  27.467   2.730
37045W        W 3476  29.451   1.281   1.681
37046W        W 3477  32.196  28.238   1.453
37047W        W 3478  29.709   1.437  11.504
37048W        W 3479  12.688  16.209  11.450
37049W        W 3480  22.267  42.720  12.583
37050W        W 3481  13.779   6.956  12.127
37051W        W 3482  31.967  16.479   1.784
37052W        W 3483   9.982  22.372   1.808
37053W        W 3484   6.246  30.499   1.637
37054W        W 3485   7.436  16.687  12.472
37055W        W 3486   4.490  43.736   4.387
37056W        W 3487  21.003  26.160   3.709
37057W        W 3488  32.902  35.455   4.603
37058W        W 3489   4.868  10.040   2.630
37059W        W 3490  40.568  22.675  11.601
37060W        W 3491   1.819  20.753   2.371
37061W        W 3492   4.911  41.559   2.786
37062W        W 3493  24.661  26.331  13.053
37063W        W 3494  17.745   2.777   1.479
37064W        W 3495   0.938  11.344   1.487
37065W        W 3496  43.930  36.822  14.100
37066W        W 3497  41.960  21.654   2.346
37067W        W 3498  17.159   3.102  10.723
37068W        W 3499  37.373  32.623  12.947
37069W        W 3500  29.028   6.249  11.144
37070W        W 3501   9.123  27.754   3.727
37071W        W 3502  17.599  43.879   2.575
37072W        W 3503  10.207  28.568   4.650
37073W        W 3504  43.911  16.727  12.401
37074W        W 3505  29.071   6.692   3.609
37075W        W 3506  40.377   0.515   4.529
37076W        W 3507   0.826  32.274   3.889
37077W        W 3508  24.344  22.202   0.931
37078W        W 3509  22.644  15.621   5.228
37079W        W 3510   5.490  38.027  12.802
37080W        W 3511  32.827  28.529   4.193
37081W        W 3512  28.179  35.292   4.602
37082W        W 3513  38.131  30.625  12.167
37083W        W 3514   4.742   8.775  11.275
37084W        W 3515   1.042   6.806   4.917
37085W        W 3516   5.664  41.685   4.292
37086W        W 3517  44.424   5.432  10.456
37087W        W 3518  22.003  14.814  13.758
37088W        W 3519   8.754  10.733   1.965
37089W        W 3520   3.501   4.187   1.718
37090W        W 3521   7.934  11.372   2.303
37091W        W 3522  30.703  44.519   1.059
37092W        W 3523  28.890  41.789   2.222
37093W        W 3524  29.427   7.511  11.274
37094W        W 3525  34.226  16.833  11.543
37095W        W 3526   1.372  24.828   1.851
37096W        W 3527  15.248  28.099  14.288
37097W        W 3528   2.394  28.346  11.029
37098W        W 3529  33.172   4.434   3.183
37099W        W 3530   1.238  20.266  13.776
37100W        W 3531  23.892  40.171   1.941
37101W        W 3532  24.256  33.833  10.104
37102W        W 3533   1.735  26.661  14.531
37103W        W 3534  35.367  32.491  11.602
37104W        W 3535   6.750  20.079  12.439
37105W        W 3536  35.506  31.213  12.899
37106W        W 3537  29.599  10.878   0.241
37107W        W 3538  41.079  25.969  12.395
37108W        W 3539  23.620  44.105   3.875
37109W        W 3540  26.712  10.937   3.767
37110W        W 3541   5.795  41.343   4.672
37111W        W 3542  15.193  29.052   4.185
37112W        W 3543  15.909  21.128  10.038
37113W        W 3544  21.743  39.089  12.931
37114W        W 3545  26.728  26.026  11.937
37115W        W 3546  41.825  30.968   1.757
37116W        W 3547  16.597  18.105   3.548
37117W        W 3548  14.201  16.010  13.588
37118W        W 3549  12.899  31.621  11.218
37119W        W 3550  40.183  20.972   1.935
37120W        W 3551  37.099  25.307   1.204
37121W        W 3552  36.404   0.049   4.505
37122W        W 3553  25.593   2.800  11.454
37123W        W 3554  33.981  21.691   2.848
37124W        W 3555  21.488  39.034  11.615
37125W        W 3556  24.971  32.432  14.233
37126W        W 3557  42.198   4.772   3.029
37127W        W 3558  18.292  22.848   1.771
37128W        W 3559  25.066  12.870   4.015
37129W        W 3560  14.196   1.772  12.637
37130W        W 3561   0.155   8.703   4.925
37131W        W 3562  39.002  16.731   2.137
37132W        W 3563  12.197   3.859  13.776
37133W        W 3564   2.593  25.226   2.327
37134W        W 3565   6.746  43.878   3.152
37135W        W 3566   9.228   4.828   4.402
37136W        W 3567   8.660  23.314  13.086
37137W        W 3568  29.809  41.796  12.527
37138W        W 3569  38.447   6.442  14.383
37139W        W 3570  27.623  21.401   1.019
37140W        W 3571   3.995  10.277   4.103
37141W        W 3572  25.095   9.067  10.939
37142W        W 3573  13.151  11.286   0.544
37143W        W 3574  23.189   7.443   3.683
37144W        W 3575   1.998  42.836   2.617
37145W        W 3576  29.379  41.322  10.827
37146W        W 3577   2.278  15.669   2.235
37147W        W 3578  38.536  31.161   1.457
37148W        W 3579  41.213  43.887   3.265
37149W        W 3580  22.279  31.281  10.231
37150W        W 3581  38.029  23.953   4.512
37151W        W 3582  30.128   4.371  10.493
37152W        W 3583  25.713   6.617  14.014
37153W        W 3584  33.647  18.017  11.037
37154W        W 3585  17.061  30.429  12.571
37155W        W 3586  43.792  18.851   2.778
37156W        W 3587  13.383  13.595   4.692
37157W        W 3588  18.828  29.620   0.682
37158W        W 3589   3.561   8.303   0.199
37159W        W 3590  31.377   3.893  10.698
37160W        W 3591  37.295  23.266  12.771
37161W        W 3592  20.719  14.855  11.143
37162W        W 3593  25.311   0.976   3.207
37163W        W 3594  38.365  32.970  12.908
37164W        W 3595   8.241  43.498   2.884
37165W        W 3596   9.360   4.221   4.117
37166W        W 3597  36.107  44.673  11.602
37167W        W 3598  43.026  25.839   1.842
37168W        W 3599  11.604   3.691  14.237
37169W        W 3600  24.619  22.053   2.409
37170W        W 3601  34.057  16.647   0.416
37171W        W 3602  15.735  37.982  11.968
37172W        W 3603  17.015  25.509  13.308
37173W        W 3604  42.599  21.523   1.874
37174W        W 3605  24.054   8.169   4.958
37175W        W 3606  39.836  37.560  12.045
37176W        W 3607  24.851  41.239  12.516
37177W        W 3608  39.902  22.117  14.417
37178W        W 3609   9.186   3.229  14.434
37179W        W 3610  40.824  12.570  11.673
37180W        W 3611   2.505  10.863   4.391
37181W        W 3612  27.462  24.825   3.340
37182W        W 3613  44.948  14.413  12.406
37183W        W 3614  11.807  14.223  14.026
37184W        W 3615  17.959  24.231  12.406
37185W        W 3616  27.340  13.767   0.385
37186W        W 3617  36.718  38.055  14.273
37187W        W 3618  14.752  12.302  11.662
37188W        W 3619   8.766   4.847  10.311
37189W        W 3620  15.050  12.031   4.104
37190W        W 3621  22.577  26.791  11.084
37191W        W 3622  32.898  16.834  10.799
37192W        W 3623  29.858   0.055   4.248
37193W        W 3624  27.966  37.914  13.719
37194W        W 3625   0.404  19.038   4.672
37195W        W 3626  19.330  36.927   9.694
37196W        W 3627  30.637  30.231   0.453
37197W        W 3628   3.696  36.832   0.303
37198W        W 3629  25.630  13.853   0.759
37199W        W 3630  25.668  43.104   2.504
37200W        W 3631  27.503  11.299  14.721
37201W        W 3632  25.306  28.796   0.910
37202W        W 3633  44.981  11.814  11.665
37203W        W 3634  20.051   2.254   1.667
37204W        W 3635  44.255  12.130   4.043
37205W        W 3636   1.404  22.300   2.775
37206W        W 3637  39.155  33.125  11.053
37207W        W 3638  12.690  18.688   3.242
37208W        W 3639  16.604  30.200   1.033
37209W        W 3640  25.622  43.396  14.890
37210W        W 3641   7.631  38.331  13.861
37211W        W 3642   2.176   5.710   0.279
37212W        W 3643  11.791   7.919   4.100
37213W        W 3644  32.888  27.501   2.892
37214W        W 3645  37.415  24.697   3.480
37215W        W 3646  22.256   4.009  10.721
37216W        W 3647  28.440  26.676   3.687
37217W        W 3648   4.347  36.551  13.475
37218W        W 3649  40.915   1.330  11.821
37219W        W 3650  35.722  15.476   5.147
37220W        W 3651  35.070   6.814   0.230
37221W        W 3652   0.444   3.699  13.523
37222W        W 3653  32.674  37.363   1.364
37223W        W 3654   0.473  24.599   1.828
37224W        W 3655   1.269  23.736  14.814
37225W        W 3656  29.104   8.831  12.091
37226W        W 3657  19.280  18.246  12.903
37227W        W 3658   9.679  41.445   3.727
37228W        W 3659  30.595  42.532   0.350
37229W        W 3660  17.752  31.976  14.777
37230W        W 3661   8.820  30.023   3.479
37231W        W 3662  43.118  34.501   1.762
37232W        W 3663  42.194  18.413  10.444
37233W        W 3664   7.109  22.800   4.115
37234W        W 3665   6.468   8.431  11.130
37235W        W 3666   9.447  17.743   0.986
37236W        W 3667  33.631   9.899  13.051
37237W        W 3668   1.970   5.131  14.253
37238W        W 3669   7.519  35.911  12.873
37239W        W 3670  33.668  12.304   0.176
37240W        W 3671   5.841   7.540   1.230
37241W        W 3672  24.212   6.443   2.266
37242W        W 3673  41.552  32.916   2.354
37243W        W 3674   2.528   4.800   0.021
37244W        W 3675  10.225  13.372   1.220
37245W        W 3676  10.838  21.769  12.089
37246W        W 3677  44.616   1.698  10.065
37247W        W 3678  29.552  28.667  14.867
37248W        W 3679  41.801  27.747   4.812
37249W        W 3680  20.796   8.283   4.618
37250W        W 3681  14.657  40.672  13.560
37251W        W 3682  24.271   7.696   1.838
37252W        W 3683  10.940  33.606   3.335
37253W        W 3684  31.668   9.327  11.667
37254W        W 3685  16.536  22.784   1.211
37255W        W 3686   1.351  10.018  10.319
37256W        W 3687  32.007  44.904   0.843
37257W        W 3688  16.781  19.647  14.972
37258W        W 3689  44.449   4.784   3.317
37259W        W 3690  23.425  34.616   2.339
37260W        W 3691  39.824   0.702   0.361
37261W        W 3692  42.723   6.117  14.197
37262W        W 3693   5.838  18.692   1.826
37263W        W 3694  35.621  34.578  10.504
37264W        W 3695   4.169  25.011   3.925
37265W        W 3696  24.957   8.317  12.359
37266W        W 3697  15.393   1.923   9.902
37267W        W 3698  25.656   7.404  11.255
37268W        W 3699  18.336   2.593   3.130
37269W        W 3700  28.472   4.296  10.243
37270W        W 3701   5.132  34.471   4.818
37271W        W 3702  19.346  40.859   1.667
37272W        W 3703   8.626  28.208   1.256
37273W        W 3704  44.499   2.468   0.879
37274W        W 3705   8.912  20.201  12.922
37275W        W 3706  28.043   3.634  14.368
37276W        W 3707  10.903  43.062   5.017
37277W        W 3708  19.364  14.381  12.387
37278W        W 3709   0.905  35.080   0.426
37279W        W 3710  15.904  23.072   4.545
37280W        W 3711  37.598  23.972  14.297
37281W        W 3712  10.927  17.681  11.010
37282W        W 3713  24.309  20.204   0.430
37283W        W 3714  11.694  13.609   1.304
37284W        W 3715  18.713  16.255  11.904
37285W        W 3716  25.041  37.403  13.702
37286W        W 3717  40.795  11.065   2.316
37287W        W 3718  30.617  39.509   1.888
37288W        W 3719  29.881   3.562   4.806
37289W        W 3720  19.183  16.299  14.166
37290W        W 3721  38.721  19.751  11.184
37291W        W 3722  27.899  13.859   4.056
37292W        W 3723  25.176   0.125   2.280
37293W        W 3724  11.617  32.691   3.685
37294W        W 3725   0.232   8.966  13.546
37295W        W 3726   5.819   9.376  11.433
37296W        W 3727  32.185  40.546   3.381
37297W        W 3728   9.608   3.043  11.918
37298W        W 3729  41.368  28.745   2.363
37299W        W 3730  23.098  41.848   3.862
37300W        W 3731  34.817   7.880   3.211
37301W        W 3732  15.711  35.337  11.601
37302W        W 3733  18.914   8.172  12.930
37303W        W 3734  42.886  32.600   0.906
37304W        W 3735   1.936   6.494   1.802
37305W        W 3736  37.061  38.035  12.235
37306W        W 3737  27.505  41.208   4.966
37307W        W 3738   1.370  43.698  13.122
37308W        W 3739   0.317  37.363  14.469
37309W        W 3740   8.708   0.439  10.221
37310W        W 3741  25.250   8.655  10.126
37311W        W 3742  34.388  24.116   2.172
37312W        W 3743  38.097  25.710  14.753
37313W        W 3744   7.844  11.712   1.486
37314W        W 3745   6.107  27.946   2.908
37315W        W 3746  35.326  13.148   2.638
37316W        W 3747   8.787  21.616  11.152
37317W        W 3748  36.424  25.638  14.865
37318W        W 3749   6.300  13.541   4.664
37319W        W 3750  30.624  32.671   2.875
37320W        W 3751  38.296  32.430  12.913
37321W        W 3752  12.141  22.723   0.186
37322W        W 3753  25.825  23.415  12.083
37323W        W 3754  36.298  37.862  10.956
37324W        W 3755  33.180  37.988   1.621
37325W        W 3756  38.844  27.839   1.693
37326W        W 3757  14.571  30.853  11.480
37327W        W 3758  26.802   3.777  14.803
37328W        W 3759  34.466  13.119   4.822
37329W        W 3760  24.678  24.238  12.507
37330W        W 3761  27.162  11.902  11.311
37331W        W 3762  31.610  33.556   1.237
37332W        W 3763   7.796  16.529   3.858
37333W        W 3764  33.387  17.184   4.686
37334W        W 3765  32.934  11.335   1.313
37335W        W 3766  43.915  41.043  10.733
37336W        W 3767   3.375  17.008  12.557
37337W        W 3768  29.530  17.145  10.740
37338W        W 3769  28.202  13.621  12.339
37339W        W 3770  38.344  27.572   0.747
37340W        W 3771  27.745  15.216   2.064
37341W        W 3772  40.999  12.138  10.707
37342W        W 3773  35.931  31.918   2.127
37343W        W 3774  12.098   2.087  10.208
37344W        W 3775   0.483   1.731   3.253
37345W        W 3776  24.595   8.674   2.844
37346W        W 3777   2.416  30.861   4.509
37347W        W 3778  24.532  17.842   2.717
37348W        W 3779  33.078  38.419   4.860
37349W        W 3780  15.606  40.253   3.435
37350W        W 3781  38.819  36.013  12.062
37351W        W 3782  14.377  22.570  11.480
37352W        W 3783   0.304  26.509   2.647
37353W        W 3784  44.795   9.116  14.357
37354W        W 3785  12.629   0.963   3.244
37355W        W 3786  11.823  22.904  11.886
37356W        W 3787  24.061  32.250   3.776
37357W        W 3788   1.923  17.858  11.758
37358W        W 3789  30.260  25.129  13.639
37359W        W 3790   6.496  37.631  13.530
37360W        W 3791  41.996  40.986   0.281
37361W        W 3792  35.010   8.400  12.429
37362W        W 3793  18.982  16.361   0.535
37363W        W 3794  18.636   2.330   1.367
37364W        W 3795  16.079  21.389   1.778
37365W        W 3796  24.011  30.174   1.815
37366W        W 3797   9.948  31.472   0.616
37367W        W 3798  43.987   4.690   3.576
37368W        W 3799  15.587  13.309   5.335
37369W        W 3800  39.578   7.603  14.922
37370W        W 3801   7.697   4.913   1.031
37371W        W 3802  14.094  30.897   4.147
37372W        W 3803  40.333  27.652  10.984
37373W        W 3804  28.189   6.589  11.689
37374W        W 3805   8.242  29.527   2.170
37375W        W 3806  27.483  25.321   3.244
37376W        W 3807  35.260  25.184   0.902
37377W        W 3808  41.081  35.192   2.333
37378W        W 3809  25.975   8.960   3.973
37379W        W 3810   9.690   6.576   0.906
37380W        W 3811  38.594   2.496  11.063
37381W        W 3812  19.115  11.390   4.837
37382W        W 3813  38.774  34.884  14.236
37383W        W 3814  17.526  17.529  12.610
37384W        W 3815  11.835   4.207  12.577
37385W        W 3816  37.132  21.154   4.400
37386W        W 3817  19.528  18.256  12.453
37387W        W 3818  34.393  28.509  13.118
37388W        W 3819  22.401  43.957   1.582
37389W        W 3820  17.811  44.333   4.102
37390W        W 3821   6.112  19.437   4.475
37391W        W 3822   3.709   4.874   2.674
37392W        W 3823  11.750   5.818   0.441
37393W        W 3824  38.381   8.219  10.788
37394W        W 3825  44.906  21.856  14.771
37395W        W 3826  33.088  30.596  11.193
37396W        W 3827  20.179  23.538  10.725
37397W        W 3828  17.512  30.083  14.864
37398W        W 3829  13.680  19.629   2.399
37399W        W 3830  29.145  12.650  11.640
37400W        W 3831  36.355  11.610   1.871
37401W        W 3832   2.981  31.766  11.969
37402W        W 3833   6.386   5.888   3.259
37403W        W 3834   3.546   8.460   0.688
37404W        W 3835  42.890  41.155   0.807
37405W        W 3836  34.614  25.072   2.291
37406W        W 3837   1.074  24.125   2.796
37407W        W 3838  21.203  17.853   1.279
37408W        W 3839  16.583  39.399  10.488
37409W        W 3840  24.622  39.867   0.807
37410W        W 3841  42.108  43.337  12.011
37411W        W 3842  43.809  13.571   3.143
37412W        W 3843  42.747  20.343   2.757
37413W        W 3844  15.356  39.525   2.339
37414W        W 3845  35.496  28.236  11.119
37415W        W 3846  13.609  30.704   4.165
37416W        W 3847  29.181  16.021   2.611
37417W        W 3848  26.447  12.659  13.008
37418W        W 3849  42.800  29.685  10.718
37419W        W 3850  26.073  11.260   2.764
37420W        W 3851  13.896   9.073  11.494
37421W        W 3852  36.066  29.398  10.226
37422W        W 3853  13.395  25.710  14.786
37423W        W 3854  25.179   3.207  14.444
37424W        W 3855  43.843  38.023  14.882
37425W        W 3856   9.805  41.202  10.354
37426W        W 3857  22.717  12.885   5.091
37427W        W 3858  12.196  29.277   3.631
37428W        W 3859  10.725  42.601  14.618
37429W        W 3860  21.127  35.055   0.787
37430W        W 3861   1.326  20.887   1.409
37431W        W 3862  26.932  30.495   4.935
37432W        W 3863  19.793  31.952  11.078
37433W        W 3864  22.585  11.237  12.591
37434W        W 3865  34.591  44.847   0.458
37435W        W 3866  36.447  14.578   2.806
37436W        W 3867   7.304  14.667  14.452
37437W        W 3868  33.987  15.049  10.508
37438W        W 3869  38.844  30.940  13.958
37439W        W 3870  21.577   1.297  14.392
37440W        W 3871  26.537  43.373   3.903
37441W        W 3872   4.357   2.488  11.846
37442W        W 3873  41.735   9.388  14.744
37443W        W 3874  11.850  13.119  14.499
37444W        W 3875  35.613  18.507  13.520
37445W        W 3876   9.924  44.416  10.854
37446W        W 3877  13.633  12.694  14.122
37447W        W 3878  21.979  11.187   1.686
37448W        W 3879  13.131  11.576  11.087
37449W        W 3880  27.708  28.856  13.755
37450W        W 3881   8.315  10.295   1.459
37451W        W 3882  44.246  15.715  13.355
37452W        W 3883  10.896  41.345   1.108
37453W        W 3884  32.552  32.426  14.031
37454W        W 3885   6.065  29.052  12.081
37455W        W 3886  42.799  39.321  12.921
37456W        W 3887  27.777   2.812  12.005
37457W        W 3888  33.953   3.159   0.960
37458W        W 3889   2.300  40.407  11.930
37459W        W 3890  18.299  26.443   3.129
37460W        W 3891   3.936  29.023  13.525
37461W        W 3892  41.442  34.637  14.938
37462W        W 3893  16.646   3.939  12.444
37463W        W 3894  28.581  39.803  14.545
37464W        W 3895  20.976  31.219   0.051
37465W        W 3896  42.536  18.638   3.823
37466W        W 3897  23.127   0.034   4.855
37467W        W 3898  43.247  14.608   1.674
37468W        W 3899  40.968   7.280   3.026
37469W        W 3900  11.600  29.102  12.440
37470W        W 3901   6.422   0.717  14.798
37471W        W 3902  34.359   5.963  11.503
37472W        W 3903  11.116  28.863   0.678
37473W        W 3904   2.844   0.948  14.387
37474W        W 3905   7.363  16.348   2.798
37475W        W 3906   1.372  37.139  11.478
37476W        W 3907  15.309   5.934   3.967
37477W        W 3908  10.876   6.209  12.442
37478W        W 3909  38.295   5.638   2.267
37479W        W 3910  24.590  22.788  13.437
37480W        W 3911  35.563  16.819   4.462
37481W        W 3912  41.980  18.721  14.455
37482W        W 3913  35.147   7.700   5.087
37483W        W 3914   4.208  16.989   0.450
37484W        W 3915   2.695  34.598   2.311
37485W        W 3916   0.809  36.309  13.381
37486W        W 3917  33.885   5.356  13.898
37487W        W 3918  33.462  36.175  13.588
37488W        W 3919  19.226  30.338   1.643
37489W        W 3920  21.700  35.605   3.670
37490W        W 3921  20.313  33.541   1.365
37491W        W 3922  17.239  19.340  11.503
37492W        W 3923  20.693   0.916   3.365
37493W        W 3924  14.778  37.768   0.844
37494W        W 3925  37.010   3.829   4.054
37495W        W 3926  17.822   7.723   2.798
37496W        W 3927  40.032  19.188   1.511
37497W        W 3928  31.925  11.776  13.425
37498W        W 3929  34.556  29.623   2.694
37499W        W 3930   3.637  28.317  11.166
37500W        W 3931   4.763  18.465  11.697
37501W        W 3932  11.449  43.781  13.562
37502W        W 3933  19.922   7.902   0.932
37503W        W 3934  19.717  25.450  10.722
37504W        W 3935  23.598  13.804   4.196
37505W        W 3936   3.182  34.639   4.595
37506W        W 3937   5.421  21.770   3.647
37507W        W 3938  15.304  29.272   0.847
37508W        W 3939  36.986  21.980   1.310
37509W        W 3940  36.626  17.786  11.656
37510W        W 3941  22.323  42.570   2.852
37511W        W 3942   1.946  28.964   1.366
37512W        W 3943  23.162  43.169   3.662
37513W        W 3944  30.638  42.383  13.469
37514W        W 3945  19.280  11.598   0.306
37515W        W 3946  24.528  38.979   1.834
37516W        W 3947  42.412  39.828   2.902
37517W        W 3948  19.665  20.296  10.668
37518W        W 3949  40.618   0.013  11.133
37519W        W 3950   5.214  11.383   3.738
37520W        W 3951  29.755  34.487  11.206
37521W        W 3952   6.411  41.080  13.897
37522W        W 3953  11.913   8.809   3.655
37523W        W 3954  40.381  38.041  10.566
37524W        W 3955   0.524  34.808   1.424
37525W        W 3956  12.321   0.858   1.903
37526W        W 3957  15.361   4.525  10.163
37527W        W 3958  24.660  32.393  11.144
37528W        W 3959  26.387  21.797   4.976
37529W        W 3960   3.708   5.189  14.073
37530W        W 3961  41.393   6.742  13.026
37531W        W 3962  30.662  15.909   9.892
37532W        W 3963   6.819  41.217   4.690
37533W        W 3964  11.469   3.806  10.680
37534W        W 3965  38.513  23.070  14.926
37535W        W 3966   5.628  35.806  13.884
37536W        W 3967   2.995   1.032   1.242
37537W        W 3968  18.485   6.482  13.969
37538W        W 3969  25.485  13.876  11.202
37539W        W 3970  32.285  10.176   4.284
37540W        W 3971  38.601  27.090  10.672
37541W        W 3972  20.021   2.350  13.451
37542W        W 3973   8.100  24.282  13.373
37543W        W 3974  35.119   0.350   1.896
37544W        W 3975  19.510  25.141   2.521
37545W        W 3976  18.799   4.407  12.570
37546W        W 3977  37.436  11.326  13.413
37547W        W 3978  22.317   7.872  11.528
37548W        W 3979  11.886  21.320   3.242
37549W        W 3980  12.722  41.379  11.990
37550W        W 3981   7.913  39.098  14.298
37551W        W 3982  38.416  29.240   3.159
37552W        W 3983  16.628   1.637   4.604
37553W        W 3984  34.480   6.045   0.667
37554W        W 3985  12.351  36.463  11.216
37555W        W 3986  13.353  13.605  11.543
37556W        W 3987  32.055  14.184  11.436
37557W        W 3988  44.719   1.393   4.646
37558W        W 3989  28.982  27.558   2.019
37559W        W 3990  10.455  38.855  11.089
37560W        W 3991  37.940  41.397  13.282
37561W        W 3992  16.845   9.822  13.585
37562W        W 3993  41.013  12.407   1.446
37563W        W 3994  36.596   7.158   3.350
37564W        W 3995   4.354  36.607   3.185
37565W        W 3996  14.925  27.999  13.698
37566W        W 3997   0.586  33.117   3.731
37567W        W 3998  25.088  11.854   0.086
37568W        W 3999  37.399   4.734   2.893
37569W        W 4000   6.404  43.766  14.282
37570W        W 4001  37.812  16.713   4.042
37571W        W 4002  16.231   0.853  13.497
37572W        W 4003   2.423  23.843  13.475
37573W        W 4004  17.226  24.237   9.831
37574W        W 4005   5.635  16.654   3.038
37575W        W 4006   1.315   6.242  14.801
37576W        W 4007  14.817  30.069  12.393
37577W        W 4008  19.199  44.645  10.580
37578W        W 4009  37.323  33.965  12.512
37579W        W 4010  26.920   6.045   1.755
37580W        W 4011  35.542  12.348   1.953
37581W        W 4012  18.401  13.286  13.527
37582W        W 4013  40.334   9.137   0.624
37583W        W 4014  32.776  17.624  13.898
37584W        W 4015   2.888   8.843   1.701
37585W        W 4016  37.495   8.814   0.214
37586W        W 4017  22.488  15.663  11.859
37587W        W 4018   6.754  37.863   3.293
37588W        W 4019  21.510   5.748  14.961
37589W        W 4020  22.537   4.341   0.748
37590W        W 4021  42.959  14.265  14.338
37591W        W 4022   7.281  28.023  14.194
37592W        W 4023  15.363   9.066  10.754
37593W        W 4024  24.688  21.674  11.442
37594W        W 4025  29.023  37.553  14.958
37595W        W 4026  26.482  22.976  14.766
37596W        W 4027   2.352  24.948  11.882
37597W        W 4028  30.518  25.456  14.001
37598W        W 4029  39.047  29.483   3.835
37599W        W 4030  23.092  41.346  11.814
37600W        W 4031  17.067   5.951   3.705
37601W        W 4032  36.105  25.641  11.255
37602W        W 4033   8.263   0.734   0.733
37603W        W 4034  11.070  15.807   3.341
37604W        W 4035  17.862  24.723  11.632
37605W        W 4036   2.517  25.332   9.788
37606W        W 4037  44.499  16.541  10.805
37607W        W 4038  33.309  10.559   1.466
37608W        W 4039   3.769  16.913  14.213
37609W        W 4040  39.459  27.988  14.076
37610W        W 4041   5.255  23.127   1.235
37611W        W 4042  13.135  32.580   2.769
37612W        W 4043  32.590  21.280  11.569
37613W        W 4044  24.720  18.797  13.265
37614W        W 4045  30.200   7.864   3.488
37615W        W 4046  25.992  21.068  12.663
37616W        W 4047   4.837  30.502   2.216
37617W        W 4048  16.440  28.191  11.654
37618W        W 4049  25.291   0.935  14.429
37619W        W 4050  23.294   3.593   2.407
37620W        W 4051  29.938  11.246  12.330
37621W        W 4052  28.932  26.580  14.429
37622W        W 4053   6.797   6.372   1.160
37623W        W 4054  37.574  33.877  14.388
37624W        W 4055  37.584  40.141   3.606
37625W        W 4056   0.695  30.762   4.301
37626W        W 4057  13.076  29.984  10.702
37627W        W 4058  21.561  32.564  14.685
37628W        W 4059  32.525  34.465  12.928
37629W        W 4060   3.375   2.900   4.400
37630W        W 4061  16.979  19.027  13.535
37631W        W 4062  31.669  24.184  12.513
37632W        W 4063  10.610  22.442  12.466
37633W        W 4064  37.305  24.505  13.779
37634W        W 4065  28.961  22.219  12.005
37635W        W 4066  12.611  36.249   1.896
37636W        W 4067  27.417  22.660   2.265
37637W        W 4068  10.262  30.566  14.886
37638W        W 4069   5.338  38.605   3.846
37639W        W 4070  30.018   7.645  14.999
37640W        W 4071  35.932  43.476   4.337
37641W        W 4072  12.718  37.563  12.477
37642W        W 4073  37.523  21.509  10.308
37643W        W 4074  19.602  29.622  14.804
37644W        W 4075  12.307  25.969   2.201
37645W        W 4076  18.256  16.206   1.257
37646W        W 4077  20.070  23.229   0.514
37647W        W 4078  35.795   5.329  11.160
37648W        W 4079  11.619  24.583  11.104
37649W        W 4080  15.997  32.956  12.551
37650W        W 4081  10.602  12.732  11.011
37651W        W 4082  40.577  23.151   2.810
37652W        W 4083  32.662  26.664   4.670
37653W        W 4084  11.605   7.885  14.365
37654W        W 4085  43.220   2.347  10.834
37655W        W 4086  30.557  23.460  12.403
37656W        W 4087  27.240  19.024   0.913
37657W        W 4088  42.255  20.536  12.909
37658W        W 4089  12.762  10.215   0.139
37659W        W 4090  26.267  39.326   2.756
37660W        W 4091   5.218   9.643  12.926
37661W        W 4092  27.734  34.091  14.575
37662W        W 4093  39.592  36.946   0.921
37663W        W 4094  32.961  27.744  13.030
37664W        W 4095  34.261  35.763  13.936
37665W        W 4096  21.225  18.817  12.123
37666W        W 4097  18.807  18.118  13.045
37667W        W 4098   9.862   8.342   2.209
37668W        W 4099  25.650  15.794  14.938
37669W        W 4100  32.504  18.000  11.187
37670W        W 4101  15.087  30.107   1.714
37671W        W 4102  15.370  35.979  12.086
37672W        W 4103  40.750   2.314  12.060
37673W        W 4104  25.679  10.200  12.971
37674W        W 4105  13.917  38.335   2.332
37675W        W 4106  28.779  21.652  14.088
37676W        W 4107  38.471  12.305   2.671
37677W        W 4108  14.315  35.605   2.546
37678W        W 4109  18.508  17.643  13.805
37679W        W 4110  24.175  17.794  11.988
37680W        W 4111  27.788  31.191   3.320
37681W        W 4112  29.549  16.593  11.565
37682W        W 4113  25.428  43.849  14.709
37683W        W 4114   3.164  15.687   4.089
37684W        W 4115  28.177  11.738   2.894
37685W        W 4116  36.845  29.543   9.940
37686W        W 4117  39.723   5.208  14.920
37687W        W 4118  38.239  20.940  10.553
37688W        W 4119   6.179  11.254   2.956
37689W        W 4120  14.526   2.813   3.919
37690W        W 4121  34.633  41.073   2.252
37691W        W 4122   8.327  23.211   4.715
37692W        W 4123  10.784  23.044   0.180
37693W        W 4124  29.988  20.743   3.645
37694W        W 4125   0.487  20.598   1.859
37695W        W 4126   8.722  38.140   4.500
37696W        W 4127  19.029  11.852   3.757
37697W        W 4128  18.635  24.545  12.941
37698W        W 4129   1.246  34.872   3.627
37699W        W 4130   3.701  43.370   4.244
37700W        W 4131  21.108  10.100   1.264
37701W        W 4132  16.504  19.893   4.575
37702W        W 4133  33.278  24.124   0.303
37703W        W 4134  17.854   8.483   4.100
37704W        W 4135  29.491  17.203   2.660
37705W        W 4136  40.390  11.510  11.503
37706W        W 4137  17.433  15.704   3.979
37707W        W 4138  36.770  31.673  14.661
37708W        W 4139  27.620   6.688   3.236
37709W        W 4140  44.782   0.968  11.440
37710W        W 4141  37.395  44.246   5.149
37711W        W 4142  30.429  35.326   1.281
37712W        W 4143  43.939  35.328   3.085
37713W        W 4144  36.910  22.971   2.388
37714W        W 4145  22.074  26.935   4.630
37715W        W 4146   5.049  21.408   5.102
37716W        W 4147   4.770  31.189   0.003
37717W        W 4148   3.888  26.027   4.654
37718W        W 4149  14.880  36.146  12.133
37719W        W 4150   9.362  36.484   3.368
37720W        W 4151  30.421  19.624  13.974
37721W        W 4152  41.757  23.528   4.425
37722W        W 4153  13.554  29.803  12.089
37723W        W 4154   7.208  37.249   1.347
37724W        W 4155  17.205   1.885  13.106
37725W        W 4156  40.345  38.499  11.475
37726W        W 4157  40.463  28.336   3.642
37727W        W 4158  35.338  32.163  12.557
37728W        W 4159  15.585  33.768  13.405
37729W        W 4160  10.052   4.254  14.746
37730W        W 4161  15.026  30.397  11.132
37731W        W 4162  40.317  33.076  14.113
37732W        W 4163  34.437  37.614   1.388
37733W        W 4164   3.198   9.673  11.218
37734W        W 4165  29.445  11.139   2.096
37735W        W 4166  15.697  24.674  11.719
37736W        W 4167   2.230  33.966   0.371
37737W        W 4168  13.811   8.885  14.346
37738W        W 4169   3.248   4.662  14.433
37739W        W 4170   0.104  13.067  12.926
37740W        W 4171  17.631  19.304   0.817
37741W        W 4172   5.778  44.514   1.428
37742W        W 4173   7.463  12.345  12.446
37743W        W 4174  39.070  41.181  12.089
37744W        W 4175  21.476  30.178   3.742
37745W        W 4176  34.924   6.877   1.414
37746W        W 4177   5.255  33.947  11.464
37747W        W 4178   7.838  21.065  13.952
37748W        W 4179  34.107  38.943   0.513
37749W        W 4180  40.818  36.044   3.218
37750W        W 4181  36.406  16.599  12.945
37751W        W 4182  29.144  20.837   1.413
37752W        W 4183  23.230  17.334   4.941
37753W        W 4184  20.818  34.908   1.740
37754W        W 4185  17.074   6.851  11.125
37755W        W 4186  21.802  35.938   2.325
37756W        W 4187  39.982  13.689   4.850
37757W        W 4188  29.683  40.591   4.141
37758W        W 4189  26.099  30.145   0.052
37759W        W 4190  18.294  16.305  14.365
37760W        W 4191  30.961   1.009   2.545
37761W        W 4192  38.169   4.372   2.382
37762W        W 4193  16.783  12.652   9.764
37763W        W 4194   8.151  11.397   2.791
37764W        W 4195  18.436  21.591  10.399
37765W        W 4196  34.533  39.644  11.549
37766W        W 4197  27.527  20.516  10.901
37767W        W 4198  43.777  20.659  11.120
37768W        W 4199  39.875  31.491  13.428
37769W        W 4200  37.043  30.510  11.024
37770W        W 4201  24.318   5.888   4.337
37771W        W 4202   1.946  20.750   2.880
37772W        W 4203  31.152  11.766   0.903
37773W        W 4204   7.640  32.869   1.677
37774W        W 4205  21.204  31.613  10.541
37775W        W 4206   2.412  10.987   3.134
37776W        W 4207  39.592  39.061  13.554
37777W        W 4208  16.631  36.806  13.326
37778W        W 4209  32.671  29.230   3.270
37779W        W 4210   6.750  11.255  14.818
37780W        W 4211  43.486  38.790   4.571
37781W        W 4212  24.737  43.475   4.467
37782W        W 4213  39.845   1.245   0.217
37783W        W 4214  24.728  43.387  14.335
37784W        W 4215  35.577  23.100  13.926
37785W        W 4216  33.921   2.866  11.901
37786W        W 4217  32.036  32.947  14.765
37787W        W 4218  41.872  41.003   1.178
37788W        W 4219   7.961  10.705   0.834
37789W        W 4220  29.479  27.410  12.936
37790W        W 4221  44.928  33.090   3.279
37791W        W 4222  10.932  37.628  12.054
37792W        W 4223  24.250  32.042   5.012
37793W        W 4224  26.167  44.343  11.070
37794W        W 4225   3.800   1.253   1.720
37795W        W 4226  29.642   5.612   3.589
37796W        W 4227   5.265  27.884   3.957
37797W        W 4228  24.003  16.653   2.616
37798W        W 4229  43.074  37.993   2.675
37799W        W 4230  23.456  17.575  10.678
37800W        W 4231  35.217   3.470   2.135
37801W        W 4232  28.656  34.852  11.966
37802W        W 4233  26.654  18.803   1.835
37803W        W 4234   0.896   8.225  14.502
37804W        W 4235  10.810  43.340   1.792
37805W        W 4236   3.015  41.425   2.222
37806W        W 4237  35.999  13.247  12.337
37807W        W 4238  21.689  10.903   3.621
37808W        W 4239   4.514  30.584  13.944
37809W        W 4240  15.827  31.847   2.661
37810W        W 4241  29.527  20.819   1.785
37811W        W 4242  21.385  41.508   2.009
37812W        W 4243   4.925  41.648  11.337
37813W        W 4244   0.446   3.161   2.370
37814W        W 4245   8.352   1.313  13.410
37815W        W 4246  38.046  39.487  14.989
37816W        W 4247  39.868  28.192   1.806
37817W        W 4248  36.848  11.677  11.224
37818W        W 4249  16.728   7.209   2.310
37819W        W 4250  12.791  39.517   1.284
37820W        W 4251  29.112  17.574  11.084
37821W        W 4252   6.402  18.067   4.978
37822W        W 4253  29.488  29.197   4.020
37823W        W 4254   7.942   8.400   2.556
37824W        W 4255   0.823  35.826   4.582
37825W        W 4256  11.004   7.653   2.804
37826W        W 4257  18.253  15.850  13.118
37827W        W 4258   2.012  41.635   0.784
37828W        W 4259  19.335  15.434  11.131
37829W        W 4260  16.569  27.943  14.958
37830W        W 4261  16.557  12.107   0.909
37831W        W 4262  32.874  41.495   5.167
37832W        W 4263  17.320  20.460   3.214
37833W        W 4264  11.921  35.513   1.362
37834W        W 4265  36.142  38.617   3.530
37835W        W 4266  36.326  43.838   0.774
37836W        W 4267  21.491  16.351   2.253
37837W        W 4268  24.461   1.857  12.399
37838W        W 4269  44.660  32.048  13.468
37839W        W 4270   6.582  34.360   2.827
37840W        W 4271  30.147   7.519   5.017
37841W        W 4272  25.992  36.375   1.293
37842W        W 4273  34.770  36.151   4.106
37843W        W 4274  19.805   3.358   2.831
37844W        W 4275  21.306  33.889  10.647
37845W        W 4276   8.182  20.186  13.802
37846W        W 4277  37.376  41.895  14.933
37847W        W 4278  23.751   6.974   0.489
37848W        W 4279   3.568  44.961   0.492
37849W        W 4280  31.447  34.880   2.724
37850W        W 4281  21.948  39.805  11.199
37851W        W 4282  20.153  10.315   0.726
37852W        W 4283  30.597  27.801   1.748
37853W        W 4284   9.851  14.894   4.652
37854W        W 4285   5.858  22.606  12.595
37855W        W 4286   0.683  17.087   2.261
37856W        W 4287  25.542  12.753  14.943
37857W        W 4288  31.195  25.995  12.069
37858W        W 4289  12.730  39.050  14.425
37859W        W 4290  30.044   5.667   0.139
37860W        W 4291  39.220  36.906  14.941
37861W        W 4292  39.678   0.415   2.730
37862W        W 4293  39.139  15.157  13.531
37863W        W 4294  27.669  37.570  10.655
37864W        W 4295  37.980   2.677   2.013
37865W        W 4296  36.044  27.954  11.185
37866W        W 4297   1.380  14.859   3.468
37867W        W 4298  31.715   7.144   1.752
37868W        W 4299  15.537   4.253  12.161
37869W        W 4300  40.756   2.542  13.891
37870W        W 4301  24.118   8.591   2.605
37871W        W 4302  18.128  36.056  11.574
37872W        W 4303  28.518  18.117  14.249
37873W        W 4304  40.060  28.609   4.533
37874W        W 4305   3.642  16.315   2.262
37875W        W 4306   0.874  12.923  13.925
37876W        W 4307  23.508   8.312  14.242
37877W        W 4308  43.978   9.671   1.517
37878W        W 4309  14.417  15.816  11.598
37879W        W 4310  33.448  17.664  12.465
37880W        W 4311  39.445   4.970   1.694
37881W        W 4312  12.725  37.887   3.717
37882W        W 4313  23.258  38.333   3.644
37883W        W 4314   4.766  30.888  10.783
37884W        W 4315  40.962  16.053   0.186
37885W        W 4316   0.833  11.102   4.150
37886W        W 4317  35.895  16.737  13.027
37887W        W 4318  34.127   8.349  14.874
37888W        W 4319  18.111  18.855  10.566
37889W        W 4320  28.578  14.229  11.229
37890W        W 4321  41.634  16.518  14.470
37891W        W 4322  36.036  15.151   3.062
37892W        W 4323  10.867  43.545   3.153
37893W        W 4324  17.326  44.403  13.203
37894W        W 4325  26.555   5.430   2.813
37895W        W 4326   1.186  27.924   2.319
37896W        W 4327  24.270   6.399   1.678
37897W        W 4328   6.921  10.550  10.634
37898W        W 4329  15.279  20.006   1.236
37899W        W 4330  40.239  23.731   0.386
37900W        W 4331  37.644  23.310   1.347
37901W        W 4332  36.342   7.274  12.362
37902W        W 4333   3.918  34.523  11.693
37903W        W 4334  22.987  21.477  12.546
37904W        W 4335  20.359  15.192   0.553
37905W        W 4336  37.147  38.630   2.827
37906W        W 4337  43.454  21.964   1.612
37907W        W 4338  20.875  44.834   3.256
37908W        W 4339  34.824  11.796  12.526
37909W        W 4340  24.769   3.847   1.724
37910W        W 4341   4.800  42.848   3.131
37911W        W 4342  10.697  11.804  12.867
37912W        W 4343   6.259   9.661   1.686
37913W        W 4344  26.731  22.061   3.086
37914W        W 4345   1.284   6.795  14.475
37915W        W 4346   4.386  35.644   1.272
37916W        W 4347   5.706  25.226   0.880
37917W        W 4348  41.088  16.345  13.412
37918W        W 4349  44.473  22.758   0.173
37919W        W 4350  44.573  19.841  12.889
37920W        W 4351   2.927   1.764   2.926
37921W        W 4352   7.902   9.938  12.455
37922W        W 4353  30.050  15.641   3.243
37923W        W 4354  32.879  26.037   4.549
37924W        W 4355  12.403  13.968  14.936
37925W        W 4356  34.330  25.611  14.976
37926W        W 4357  15.279  37.919   0.752
37927W        W 4358  18.681  18.543  11.251
37928W        W 4359  40.814  27.874   1.402
37929W        W 4360   2.921  27.180   1.141
37930W        W 4361  23.751  27.166  10.642
37931W        W 4362  39.838   0.493   3.685
37932W        W 4363  29.109   8.273   2.783
37933W        W 4364  40.567   0.199  15.000
37934W        W 4365  29.938  31.091   4.193
37935W        W 4366   1.698  41.209   0.759
37936W        W 4367   2.650  12.368  14.527
37937W        W 4368  13.362   8.310   0.730
37938W        W 4369  32.235  30.101   0.404
37939W        W 4370   1.529  29.719  13.438
37940W        W 4371  14.668  35.322  12.880
37941W        W 4372  12.078  25.935  13.895
37942W        W 4373  41.417  13.773   0.751
37943W        W 4374   3.531   0.451   4.399
37944W        W 4375  44.313  24.677  11.438
37945W        W 4376  19.388  10.322   2.269
37946W        W 4377  39.899   3.183  12.931
37947W        W 4378  39.367  19.614   2.954
37948W        W 4379  28.825   0.343  12.882
37949W        W 4380  32.496  16.311  14.381
37950W        W 4381   1.154  28.158  12.578
37951W        W 4382  42.804   5.136   2.931
37952W        W 4383  38.947  27.009   0.965
37953W        W 4384  11.295  27.724   3.160
37954W        W 4385  35.088   8.870  11.656
37955W        W 4386  43.161  18.606   4.575
37956W        W 4387   1.794  19.218   4.916
37957W        W 4388  24.426   5.949  14.812
37958W        W 4389  25.357  40.709  14.901
37959W        W 4390  29.203  44.702  11.053
37960W        W 4391  22.370  38.007   4.084
37961W        W 4392  18.508  16.837   4.809
37962W        W 4393   4.085  28.115   1.266
37963W        W 4394  37.805  35.406  12.404
37964W        W 4395  31.636   0.854  14.284
37965W        W 4396  23.743  36.038   3.672
37966W        W 4397  27.254  30.650   5.320
37967W        W 4398  27.974  12.468  13.283
37968W        W 4399  38.282  12.862  14.135
37969W        W 4400  30.141  42.344  11.049
37970W        W 4401  40.109  29.216   2.822
37971W        W 4402  35.761  22.615  13.780
37972W        W 4403  31.448  18.971   2.235
37973W        W 4404   5.863  44.812  10.567
37974W        W 4405  14.263   6.391   4.098
37975W        W 4406   8.812  36.731   0.685
37976W        W 4407  44.359  27.071   3.589
37977W        W 4408  20.496  22.201  13.108
37978W        W 4409   1.537  12.584   3.668
37979W        W 4410   4.247   1.163  12.524
37980W        W 4411  43.252   7.804  11.502
37981W        W 4412  19.267  28.049  11.145
37982W        W 4413  26.012  36.454  11.909
37983W        W 4414   3.750  11.873   0.297
37984W        W 4415  37.155  42.944  13.343
37985W        W 4416  13.645  40.718   3.257
37986W        W 4417  13.128  22.201   1.733
37987W        W 4418  12.548  16.203   3.947
37988W        W 4419   6.763  12.474   0.811
37989W        W 4420  38.408  10.370   0.295
37990W        W 4421  43.399  38.399   2.735
37991W        W 4422  13.925   2.928   3.233
37992W        W 4423   1.118  39.396  14.448
37993W        W 4424  33.241   7.654  14.523
37994W        W 4425  24.166   6.838   4.486
37995W        W 4426  22.407  24.117   3.530
37996W        W 4427  20.635  15.161   4.730
37997W        W 4428  44.966  29.555   2.038
37998W        W 4429   6.642  43.326  14.183
37999W        W 4430  10.643  28.549   1.377
38000W        W 4431  11.110  37.119  11.108
38001W        W 4432  39.915  28.909  14.867
38002W        W 4433  44.265  35.308   4.915
38003W        W 4434  39.336   8.869   0.396
38004W        W 4435  15.320   9.794   2.202
38005W        W 4436  43.618  43.517  11.166
38006W        W 4437  18.296  22.685  12.505
38007W        W 4438   5.721  21.351   1.140
38008W        W 4439  37.710  11.764  11.543
38009W        W 4440  40.067  42.556   0.390
38010W        W 4441  44.286  16.204   2.414
38011W        W 4442   8.765  24.176  10.577
38012W        W 4443  12.113  41.813  13.438
38013W        W 4444  31.019  12.835   4.537
38014W        W 4445   5.426  32.629  13.884
38015W        W 4446  35.792  25.622  13.084
38016W        W 4447   9.159  22.563   3.339
38017W        W 4448  10.411  44.412   3.228
38018W        W 4449  17.403  40.986   1.922
38019W        W 4450  24.754  41.772   0.934
38020W        W 4451  14.243  12.614  11.175
38021W        W 4452   4.267  15.994   9.967
38022W        W 4453  34.387   8.757   3.058
38023W        W 4454  11.257  25.617   4.240
38024W        W 4455  30.315  40.259   0.703
38025W        W 4456  35.134  42.348  12.188
38026W        W 4457  30.734   2.152   3.699
38027W        W 4458  21.821  17.074  11.776
38028W        W 4459  33.825   5.242   3.318
38029W        W 4460  40.271  31.486   3.203
38030W        W 4461  39.778  14.668   4.149
38031W        W 4462  35.828  44.003  13.397
38032W        W 4463   3.883  44.975   2.210
38033W        W 4464  23.158  29.861   2.642
38034W        W 4465   6.330  14.799  13.482
38035W        W 4466  28.729  16.260   0.877
38036W        W 4467  29.942  31.550   0.106
38037W        W 4468  34.422  15.267  13.866
38038W        W 4469   7.723  22.254  13.880
38039W        W 4470  27.237  41.308  11.091
38040W        W 4471  13.940  28.587  11.557
38041W        W 4472  13.378   0.982   2.796
38042W        W 4473  19.639  30.376   2.346
38043W        W 4474  17.698   7.323  10.998
38044W        W 4475  13.496   9.619  12.795
38045W        W 4476  12.074  36.014  13.090
38046W        W 4477   2.296  40.367  10.892
38047W        W 4478  29.122   5.629  12.547
38048W        W 4479  29.586  29.623  11.261
38049W        W 4480  18.403   8.954  13.659
38050W        W 4481  32.115  24.815   0.830
38051W        W 4482  13.714  27.997   2.958
38052W        W 4483  17.184  11.384   0.442
38053W        W 4484  41.535  17.553   0.337
38054W        W 4485  34.749  13.742  13.677
38055W        W 4486  10.114   2.873  12.016
38056W        W 4487  37.130  40.386   4.067
38057W        W 4488  38.126   8.251  12.553
38058W        W 4489  22.140  39.353   3.940
38059W        W 4490  20.064  10.619   1.139
38060W        W 4491  43.003  20.545   0.957
38061W        W 4492  15.065  20.642  12.002
38062W        W 4493  25.120  19.299   1.274
38063W        W 4494  40.574   9.923  12.096
38064W        W 4495  26.487  36.363   1.416
38065W        W 4496  27.517  20.314  13.437
38066W        W 4497  44.051  44.900   3.130
38067W        W 4498  28.585  39.122   3.442
38068W        W 4499  25.198  36.521   4.042
38069W        W 4500  42.821  11.285   1.021
38070W        W 4501  16.278  10.756  14.314
38071W        W 4502  16.735  44.418   3.255
38072W        W 4503  12.513  13.756  14.227
38073W        W 4504  30.300  33.907   3.859
38074W        W 4505  14.643  14.030  10.539
38075W        W 4506  34.410  29.047   3.739
38076W        W 4507   0.889  22.537   2.226
38077W        W 4508  14.702  36.040  14.735
38078W        W 4509  21.633  14.310   0.058
38079W        W 4510  33.641  39.532   1.622
38080W        W 4511  43.078   8.041  11.024
38081W        W 4512  13.708  15.624  13.499
38082W        W 4513   1.531   4.779  14.051
38083W        W 4514  24.225  37.541  12.511
38084W        W 4515  40.983  11.188   0.852
38085W        W 4516  43.887  12.862   4.601
38086W        W 4517   7.483  42.922   3.742
38087W        W 4518  34.048  44.824  14.228
38088W        W 4519  41.328   9.825   4.999
38089W        W 4520  25.715  31.190   3.219
38090W        W 4521  28.096   7.220   0.321
38091W        W 4522  15.242  30.371  12.476
38092W        W 4523   7.433  20.477   2.768
38093W        W 4524  33.333  21.748  13.532
38094W        W 4525   6.590  18.543  12.851
38095W        W 4526  12.222  23.445  10.661
38096W        W 4527   8.880  43.100  11.559
38097W        W 4528  22.150  11.156   3.554
38098W        W 4529  28.164  20.563   2.428
38099W        W 4530   1.903  21.664   4.578
38100W        W 4531  41.141  39.059  10.660
38101W        W 4532  43.010  40.847  11.946
38102W        W 4533  14.700  16.965  10.230
38103W        W 4534   4.997  11.195   2.415
38104W        W 4535  24.298  36.548  11.631
38105W        W 4536  40.860  24.780  13.190
38106W        W 4537  18.748   1.963  10.484
38107W        W 4538  11.597   3.050  13.497
38108W        W 4539   5.495  21.718  11.077
38109W        W 4540  31.683  38.973  13.482
38110W        W 4541  42.866  18.508   4.179
38111W        W 4542   1.827  36.435   5.130
38112W        W 4543  33.928   6.021  12.144
38113W        W 4544  13.331  37.046  13.861
38114W        W 4545   3.441  18.356  10.742
38115W        W 4546   7.788  33.468   1.287
38116W        W 4547  27.092   9.121   2.526
38117W        W 4548  20.533  40.591  10.865
38118W        W 4549   0.189  15.058   2.709
38119W        W 4550  41.336  30.098   1.825
38120W        W 4551  19.148  44.459  12.205
38121W        W 4552  30.994  13.345   4.601
38122W        W 4553   0.713  31.312   4.343
38123W        W 4554  23.863  41.826   1.181
38124W        W 4555   8.202  11.151   4.896
38125W        W 4556  12.179   5.565   0.321
38126W        W 4557  33.331  42.395   4.688
38127W        W 4558  16.607  27.445   0.883
38128W        W 4559   8.335   4.835  13.455
38129W        W 4560  37.050  12.858  12.917
38130W        W 4561  38.841   7.580   3.112
38131W        W 4562  13.853  27.551   3.202
38132W        W 4563  24.615  15.850  14.446
38133W        W 4564  30.908   8.860  11.633
38134W        W 4565   1.884  36.345   3.140
38135W        W 4566  40.346  35.666   3.679
38136W        W 4567   8.689  34.921   2.763
38137W        W 4568   5.952  44.796  13.325
38138W        W 4569  37.022   7.902  13.005
38139W        W 4570   7.645  22.644   1.064
38140W        W 4571  18.651  29.485  11.918
38141W        W 4572  14.149   5.677  10.816
38142W        W 4573  10.518  32.685  12.867
38143W        W 4574  29.436  19.092   4.212
38144W        W 4575   7.490  13.902  12.014
38145W        W 4576  26.414  17.828  14.913
38146W        W 4577  28.125  12.799   3.831
38147W        W 4578  16.141  17.384  12.071
38148W        W 4579   5.161   3.335  12.579
38149W        W 4580  33.413   5.526  10.224
38150W        W 4581  33.140  25.474   3.378
38151W        W 4582  43.900  26.737  14.788
38152W        W 4583  43.798  30.887  13.462
38153W        W 4584  17.718  27.194   3.113
38154W        W 4585  42.658   4.646   2.794
38155W        W 4586  28.820  15.135  10.329
38156W        W 4587   9.683   0.973   1.862
38157W        W 4588   6.595  26.578   4.291
38158W        W 4589  24.306  34.923   0.563
38159W        W 4590  44.148   2.818  14.993
38160W        W 4591  16.362   4.637   3.572
38161W        W 4592   4.729   5.700  11.959
38162W        W 4593  44.464  43.796  14.933
38163W        W 4594   4.995   8.673  13.354
38164W        W 4595  19.183  21.144   4.467
38165W        W 4596   3.947   4.848   3.168
38166W        W 4597  13.541   5.886   0.888
38167W        W 4598  21.811  29.137  11.139
38168W        W 4599  17.015  42.911   2.048
38169W        W 4600  26.989  44.546  12.100
38170W        W 4601  40.419  25.309  10.427
38171W        W 4602   2.859  38.818  11.732
38172W        W 4603  41.874   1.365   0.786
38173W        W 4604  26.271  19.701  13.495
38174W        W 4605   5.047  36.807   3.766
38175W        W 4606  32.383   9.657   1.996
38176W        W 4607   4.304  36.637   2.330
38177W        W 4608   7.155  11.374  13.942
38178W        W 4609  39.498  15.802   4.609
38179W        W 4610   4.795   6.979  12.453
38180W        W 4611  28.069   8.367   1.750
38181W        W 4612   2.910  38.923  13.266
38182W        W 4613  19.460  31.965  11.503
38183W        W 4614  34.567   4.635   4.849
38184W        W 4615  37.550  40.882   1.257
38185W        W 4616  35.967  15.676   2.378
38186W        W 4617  37.698  28.886   2.361
38187W        W 4618  26.906   8.179   4.001
38188W        W 4619  42.393  11.835  10.716
38189W        W 4620  38.524  20.574   1.490
38190W        W 4621  16.622  12.543  12.547
38191W        W 4622  11.286   2.536   2.463
38192W        W 4623  41.881  36.637  14.825
38193W        W 4624   1.184   6.737   4.419
38194W        W 4625  33.397   0.520  14.593
38195W        W 4626  25.703  44.248  11.818
38196W        W 4627  41.973  13.322  13.315
38197W        W 4628   1.372  24.545   2.296
38198W        W 4629  19.479  17.634   1.421
38199W        W 4630  35.631  11.830   3.226
38200W        W 4631  27.129  36.746  13.551
38201W        W 4632   9.883  25.450   4.563
38202W        W 4633  30.484  33.487   4.093
38203W        W 4634  12.624  10.197   4.619
38204W        W 4635  36.337  24.195  13.204
38205W        W 4636  27.050  14.062   0.920
38206W        W 4637   7.888  26.662   3.771
38207W        W 4638  20.767  10.492   4.069
38208W        W 4639  20.613  32.168   0.969
38209W        W 4640  41.047  29.698   0.399
38210W        W 4641  29.480  24.914   2.158
38211W        W 4642  17.276  41.267   4.552
38212W        W 4643   4.292  44.427   1.795
38213W        W 4644  33.906  16.373  14.982
38214W        W 4645   6.512  23.633   2.742
38215W        W 4646  21.300  43.885  14.201
38216W        W 4647  21.123  25.821  14.999
38217W        W 4648   6.532  37.007   1.742
38218W        W 4649  38.458  43.206   2.755
38219W        W 4650   8.997  15.265   2.840
38220W        W 4651  32.345  24.564   2.274
38221W        W 4652  13.391  26.824  10.780
38222W        W 4653  44.792  19.705   3.856
38223W        W 4654  16.133  17.185   1.764
38224W        W 4655  36.625   8.776   3.660
38225W        W 4656  44.837  10.864  13.970
38226W        W 4657  39.043  37.819   5.130
38227W        W 4658  43.387  25.955   1.151
38228W        W 4659   8.199  40.920   5.022
38229W        W 4660  29.858  39.329  13.150
38230W        W 4661  40.807  30.949   2.701
38231W        W 4662   6.599   5.350  14.455
38232W        W 4663  28.655  29.501   0.315
38233W        W 4664  21.278   5.197   4.247
38234W        W 4665  40.481  34.229  11.917
38235W        W 4666  19.571   1.038   2.271
38236W        W 4667  25.874  32.442   3.564
38237W        W 4668   3.939  34.549   0.377
38238W        W 4669   0.381   8.810  11.492
38239W        W 4670   4.227  40.227   1.259
38240W        W 4671   6.239  16.877   2.197
38241W        W 4672  32.129  42.727   0.606
38242W        W 4673  27.430  10.364  12.458
38243W        W 4674  23.790  30.090  13.899
38244W        W 4675  13.240  26.772  11.769
38245W        W 4676  39.881  19.833   2.844
38246W        W 4677  15.387   8.776   1.554
38247W        W 4678  35.128  36.785   2.729
38248W        W 4679  23.056  19.577  14.448
38249W        W 4680   4.327  32.337   1.902
38250W        W 4681  31.706  35.770  10.182
38251W        W 4682  11.649   8.719  10.837
38252W        W 4683  11.058   8.799   2.847
38253W        W 4684  34.457  13.667   2.265
38254W        W 4685  37.827  40.710  11.567
38255W        W 4686  22.691  22.247  14.845
38256W        W 4687  27.516  42.743   1.920
38257W        W 4688  15.918  10.096  10.226
38258W        W 4689  41.243   3.784   3.550
38259W        W 4690  11.936  35.768  13.526
38260W        W 4691  31.158  40.459  14.556
38261W        W 4692  14.611  34.633  11.146
38262W        W 4693  27.964  26.458   1.158
38263W        W 4694  35.045  32.246   3.104
38264W        W 4695  34.543  27.331   0.690
38265W        W 4696   2.408  44.008  12.311
38266W        W 4697   7.321  16.995   2.200
38267W        W 4698  32.976   7.689   4.644
38268W        W 4699  37.858  19.940   3.820
38269W        W 4700  25.784  34.378  13.912
38270W        W 4701  12.284  33.402   2.634
38271W        W 4702  20.215  42.513   3.832
38272W        W 4703  41.529  34.053  14.611
38273W        W 4704  32.320  10.424   3.824
38274W        W 4705  23.990  20.627  10.982
38275W        W 4706  17.372   3.838   5.101
38276W        W 4707  37.147  19.855  12.142
38277W        W 4708  26.706  38.354  11.857
38278W        W 4709   8.449   5.477   0.737
38279W        W 4710  27.090  36.858   1.822
38280W        W 4711  20.225  20.632   3.884
38281W        W 4712  35.011  29.119   2.332
38282W        W 4713  17.205  29.826  13.946
38283W        W 4714  28.571  21.715   4.363
38284W        W 4715  24.982  29.512   3.131
38285W        W 4716  10.687  25.687   3.370
38286W        W 4717  36.629  42.855   4.900
38287W        W 4718  42.058   4.838   4.649
38288W        W 4719  28.643  21.266   2.731
38289W        W 4720  36.465  13.374  13.184
38290W        W 4721  31.008  30.633  10.507
38291W        W 4722  19.982  21.531   0.776
38292W        W 4723  27.852  42.606   2.829
38293W        W 4724  22.575  40.282  14.363
38294W        W 4725  14.904  26.549   5.443
38295W        W 4726   7.855  25.150  12.582
38296W        W 4727  13.287  27.727   0.967
38297W        W 4728  26.646  11.920  12.016
38298W        W 4729  12.038   6.366  13.580
38299W        W 4730  32.455  24.823   1.675
38300W        W 4731  35.140  22.932  10.774
38301W        W 4732   2.000  21.197   4.828
38302W        W 4733   5.268   7.465   4.695
38303W        W 4734   2.347  17.516  13.480
38304W        W 4735  13.769  19.846  11.149
38305W        W 4736   3.196  42.406   1.195
38306W        W 4737  22.936  28.092   2.746
38307W        W 4738  41.816  23.043   0.677
38308W        W 4739   9.554   7.835   0.516
38309W        W 4740  20.736   2.933  12.432
38310W        W 4741  40.323  43.336  10.710
38311W        W 4742  39.689  35.312  14.800
38312W        W 4743  42.765  20.024   4.117
38313W        W 4744  33.889  39.349   0.757
38314W        W 4745   8.948   8.909  14.819
38315W        W 4746  37.123  10.820  12.911
38316W        W 4747  37.013   1.030  11.160
38317W        W 4748  30.335  32.603   1.947
38318W        W 4749  25.580  42.459  12.011
38319W        W 4750  38.880  32.750   3.598
38320W        W 4751  31.067  12.913   3.266
38321W        W 4752   9.883  10.267  14.320
38322W        W 4753  15.315  33.573  11.476
38323W        W 4754  43.778  33.583   1.846
38324W        W 4755  31.022  20.000  11.657
38325W        W 4756  40.999  33.583  11.922
38326W        W 4757   3.469  41.456  11.871
38327W        W 4758  19.235  27.184  14.925
38328W        W 4759  42.494  43.080  13.377
38329W        W 4760  31.147  30.487  12.799
38330W        W 4761  32.143  34.140   2.413
38331W        W 4762  18.079   0.214   2.612
38332W        W 4763  38.662   6.857   2.870
38333W        W 4764  33.164  42.504  11.097
38334W        W 4765  44.495  15.703   5.077
38335W        W 4766  43.961  10.823  12.520
38336W        W 4767   0.505  33.319  11.148
38337W        W 4768   5.618  32.306  11.930
38338W        W 4769  11.740  37.868   3.406
38339W        W 4770   2.247  28.467   3.661
38340W        W 4771  12.467  18.498  14.998
38341W        W 4772  43.310  37.775   4.682
38342W        W 4773  41.404  31.556  11.116
38343W        W 4774  35.161   2.228  11.668
38344W        W 4775  29.549  33.499  12.171
38345W        W 4776   3.688  32.421  13.857
38346W        W 4777  12.561  41.404  11.504
38347W        W 4778  16.838  24.357  12.199
38348W        W 4779  21.717  36.169   2.805
38349W        W 4780   3.325   4.097  10.775
38350W        W 4781  31.568  10.339  12.409
38351W        W 4782  29.279  16.698  12.877
38352W        W 4783  10.870  30.225   3.627
38353W        W 4784   8.175  14.605   3.678
38354W        W 4785  28.020  25.709   4.154
38355W        W 4786  34.036  29.365   0.963
38356W        W 4787  30.312  25.107  11.543
38357W        W 4788  18.683  27.208  12.333
38358W        W 4789   5.503   8.414  13.397
38359W        W 4790   0.488   3.301   1.861
38360W        W 4791  32.452  14.396  10.662
38361W        W 4792  18.498  16.270   0.397
38362W        W 4793  43.526   6.366  13.629
38363W        W 4794  30.487  12.230  14.487
38364W        W 4795   3.656  22.756   2.653
38365W        W 4796  43.756  14.023   2.266
38366W        W 4797  30.000  31.304  14.601
38367W        W 4798  20.022  39.902   2.669
38368W        W 4799  36.355  36.940   2.147
38369W        W 4800  35.340  31.649   0.844
38370W        W 4801  11.794  22.732  10.506
38371W        W 4802  21.134  24.439  11.010
38372W        W 4803  11.864  11.080   4.189
38373W        W 4804  40.840   5.981   1.017
38374W        W 4805   4.249  27.751   1.619
38375W        W 4806   6.352  30.521   3.198
38376W        W 4807  25.958   6.395  10.115
38377W        W 4808  18.164  42.116   2.768
38378W        W 4809   4.144   7.973  12.108
38379W        W 4810  18.264  27.333   3.344
38380W        W 4811  26.786  30.632   4.180
38381W        W 4812  37.502  44.029  12.369
38382W        W 4813  27.164  34.371  12.546
38383W        W 4814  20.247  27.600   3.308
38384W        W 4815  33.667  17.832   3.997
38385W        W 4816  29.655  19.778  14.311
38386W        W 4817   6.635   4.268   0.442
38387W        W 4818  31.858  34.529   2.605
38388W        W 4819  26.442  28.624  11.293
38389W        W 4820  27.614   2.484   3.892
38390W        W 4821  36.541   7.490   0.739
38391W        W 4822  41.454   5.224  12.648
38392W        W 4823  41.546  42.168   5.028
38393W        W 4824   8.683  30.641  11.631
38394W        W 4825   1.048  10.791  13.445
38395W        W 4826   7.932  31.074  13.429
38396W        W 4827   4.676  25.018   4.598
38397W        W 4828  22.690  17.514  10.317
38398W        W 4829   4.736  27.919   4.458
38399W        W 4830  28.539  37.358   0.083
38400W        W 4831   1.815  25.710   3.386
38401W        W 4832  26.178  38.330   1.147
38402W        W 4833   4.191  27.426  13.545
38403W        W 4834   5.917  34.879  10.574
38404W        W 4835   0.349  40.491   3.655
38405W        W 4836  16.140   4.744   0.262
38406W        W 4837   3.168   9.422   3.999
38407W        W 4838   8.661  21.282   1.463
38408W        W 4839  43.761  33.543   0.374
38409W        W 4840  38.869   2.234   2.696
38410W        W 4841  11.343  17.511   1.228
38411W        W 4842  10.089  33.476  11.151
38412W        W 4843  38.027  21.563   4.080
38413W        W 4844  21.034  34.194  11.000
38414W        W 4845  22.150  25.676   2.210
38415W        W 4846  15.291   6.136   3.091
38416W        W 4847  39.397  24.536  12.103
38417W        W 4848  33.622  33.972  12.587
38418W        W 4849  35.101   0.937   4.549
38419W        W 4850   4.072   3.533  11.701
38420W        W 4851  13.283  37.040  14.738
38421W        W 4852  24.752  34.545  14.959
38422W        W 4853   0.989  43.260   1.454
38423W        W 4854  19.835  24.469  10.744
38424W        W 4855   2.469  18.603  13.471
38425W        W 4856  28.432  14.234   4.456
38426W        W 4857   2.962  42.306   2.175
38427W        W 4858  24.086  20.165  13.102
38428W        W 4859  39.287   6.652   2.349
38429W        W 4860  34.583   1.687   4.742
38430W        W 4861  44.610  33.615   2.745
38431W        W 4862  12.757   8.600   2.603
38432W        W 4863   2.506  38.512   1.388
38433W        W 4864  34.192  21.418   3.740
38434W        W 4865  19.345   9.630  13.425
38435W        W 4866  40.720  16.265  12.988
38436W        W 4867   3.536  37.130  11.129
38437W        W 4868  42.315   7.792  12.288
38438W        W 4869  42.678   6.723   1.778
38439W        W 4870  35.077  15.660   2.074
38440W        W 4871  11.481  44.774  11.220
38441W        W 4872  29.381  26.608  12.427
38442W        W 4873  19.017  26.733  14.847
38443W        W 4874  28.728  35.698   3.842
38444W        W 4875  25.184  26.954  12.830
38445W        W 4876  41.418  44.010   0.364
38446W        W 4877  14.243  15.255  13.115
38447W        W 4878  12.369   1.798   1.391
38448W        W 4879  15.176  23.117   3.191
38449W        W 4880  38.468  19.893  13.367
38450W        W 4881   2.711  28.168   4.147
38451W        W 4882  17.529  39.543   4.142
38452W        W 4883  43.720  24.570   4.462
38453W        W 4884  21.716  41.045   3.755
38454W        W 4885  30.084  16.570   3.279
38455W        W 4886  35.929  17.793  11.126
38456W        W 4887  44.875   7.109   4.124
38457W        W 4888  11.202  39.676   2.254
38458W        W 4889  40.381   8.298   1.804
38459W        W 4890  33.464  28.407  11.672
38460W        W 4891  27.868  16.764  11.299
38461W        W 4892  33.156  18.975   1.905
38462W        W 4893  44.534  12.556  14.885
38463W        W 4894   5.505  33.901   4.157
38464W        W 4895   6.164  12.385   3.638
38465W        W 4896  12.981  35.050  10.768
38466W        W 4897  42.359  41.485  10.998
38467W        W 4898  18.110  40.872   2.652
38468W        W 4899   9.559  42.815   4.590
38469W        W 4900   1.921  16.314   1.204
38470W        W 4901  22.693  24.544   0.758
38471W        W 4902  23.378  41.735  11.591
38472W        W 4903  33.604  28.624  12.523
38473W        W 4904  27.164  31.702   2.520
38474W        W 4905  43.393  35.713  11.129
38475W        W 4906  39.864   6.481   3.000
38476W        W 4907  13.785  13.602   4.320
38477W        W 4908  16.380  26.105  11.535
38478W        W 4909   9.725   4.764   4.214
38479W        W 4910  30.995   4.905   4.352
38480W        W 4911  23.779  21.167   4.461
38481W        W 4912  32.480  44.912   4.372
38482W        W 4913  31.993  25.282   3.880
38483W        W 4914   1.464  34.876  11.714
38484W        W 4915   9.058  43.454  10.792
38485W        W 4916  13.637  23.020   3.670
38486W        W 4917   0.139  13.643  12.153
38487W        W 4918  30.968  19.128   2.400
38488W        W 4919   0.358  26.953   2.955
38489W        W 4920  17.008  16.119  11.118
38490W        W 4921  37.780  25.371  14.939
38491W        W 4922  33.427  21.276  14.228
38492W        W 4923  11.785  29.667   4.544
38493W        W 4924   2.409   1.886  13.790
38494W        W 4925   6.374  12.549  10.790
38495W        W 4926  21.519  28.252   1.588
38496W        W 4927  22.718  40.511   2.646
38497W        W 4928  13.137   9.107   3.351
38498W        W 4929  22.815  25.316   2.941
38499W        W 4930  43.070   9.457  12.477
38500W        W 4931  19.585   1.707   3.278
38501W        W 4932  44.341  35.312  11.266
38502W        W 4933  23.449  17.404   0.618
38503W        W 4934  10.470  17.345   2.769
38504W        W 4935  15.627  24.653   1.728
38505W        W 4936  35.287  13.246  14.463
38506W        W 4937  15.136  14.898  13.192
38507W        W 4938  14.767  15.629   2.338
38508W        W 4939  12.624  13.191   1.741
38509W        W 4940   1.115  15.444   2.721
38510W        W 4941  25.648  28.996  11.544
38511W        W 4942  30.062   7.016   2.593
38512W        W 4943  35.882  30.840   2.368
38513W        W 4944  14.643  16.706  12.733
38514W        W 4945  20.272  14.884  13.098
38515W        W 4946  38.678   7.916  10.466
38516W        W 4947  39.783  39.491  11.918
38517W        W 4948  14.549   2.920  10.574
38518W        W 4949  10.461  13.517  13.361
38519W        W 4950  36.473  17.100  14.801
38520W        W 4951   8.462   8.287   1.499
38521W        W 4952  29.863   8.341  12.947
38522W        W 4953  21.827   4.859   1.189
38523W        W 4954  15.617  41.614  11.586
38524W        W 4955  36.842  35.422   0.597
38525W        W 4956  40.724   8.331  13.370
38526W        W 4957   1.390  30.598   4.539
38527W        W 4958   8.118  12.317  13.467
38528W        W 4959  38.823  18.510  11.615
38529W        W 4960  14.869  23.628   4.463
38530W        W 4961  30.825   1.918   2.928
38531W        W 4962  10.772  32.954   1.500
38532W        W 4963   4.446  19.743  11.096
38533W        W 4964  32.063  21.020   2.786
38534W        W 4965  18.637   8.643   0.528
38535W        W 4966  32.795  34.113  12.616
38536W        W 4967  38.604   3.673  13.896
38537W        W 4968  32.644  21.665  12.970
38538W        W 4969  21.715  44.784   3.827
38539W        W 4970  40.414  34.604  14.193
38540W        W 4971  27.523  39.122  13.975
38541W        W 4972  17.296   1.521   0.394
38542W        W 4973  36.075  19.967  14.404
38543W        W 4974   6.741   6.430   2.155
38544W        W 4975   5.626  32.916   0.829
38545W        W 4976  20.086  36.504   0.924
38546W        W 4977  39.721   5.710   0.032
38547W        W 4978   8.394  27.494   0.303
38548W        W 4979  27.544  27.993  12.506
38549W        W 4980   4.279   6.187   2.671
38550W        W 4981  40.452  17.010   2.674
38551W        W 4982   4.503  12.227  12.214
38552W        W 4983   3.978  44.723   3.849
38553W        W 4984  10.246  12.610  13.779
38554W        W 4985  16.115  16.145   3.064
38555W        W 4986  11.678   9.551  11.873
38556W        W 4987  39.433  17.208   3.239
38557W        W 4988  22.084  19.095  13.743
38558W        W 4989   1.135  29.631  14.397
38559W        W 4990  39.476  29.054   0.185
38560W        W 4991   2.947  36.137   3.230
38561W        W 4992  38.038  12.921   4.636
38562W        W 4993   1.446  25.631   3.035
38563W        W 4994  28.170  19.673   4.152
38564W        W 4995  17.346  12.441   4.136
38565W        W 4996   9.863  14.914  11.533
38566W        W 4997  22.591  39.170   3.682
38567W        W 4998   3.225  29.512  13.804
38568W        W 4999  27.333   3.068  11.121
38569W        W 5000  42.845  27.908  12.716
38570W        W 5001   7.770  33.441  10.163
38571W        W 5002  33.165  18.732   2.412
38572W        W 5003  30.848  23.782  11.109
38573W        W 5004   9.900  26.418  12.073
38574W        W 5005  32.942   7.765  12.330
38575W        W 5006  33.614  30.650   2.204
38576W        W 5007   0.772  25.835   2.333
38577W        W 5008  24.735  31.041   2.167
38578W        W 5009   0.778  30.115   2.797
38579W        W 5010  33.621  18.951   3.236
38580W        W 5011  20.599  31.976  14.019
38581W        W 5012  11.210  39.907   0.333
38582W        W 5013  15.903   7.452   1.938
38583W        W 5014  11.315   3.819   4.561
38584W        W 5015  10.383  17.111   4.022
38585W        W 5016  16.401  15.809   4.827
38586W        W 5017   2.337  25.672  10.552
38587W        W 5018  37.468   9.017  10.620
38588W        W 5019  32.046  20.838  11.139
38589W        W 5020   3.550  38.562   2.742
38590W        W 5021  19.518  34.418  13.972
38591W        W 5022  12.902  10.286  11.252
38592W        W 5023   8.455  38.495  14.686
38593W        W 5024  39.500  15.837   2.823
38594W        W 5025  13.380  42.521  10.711
38595W        W 5026  30.622  40.582  11.323
38596W        W 5027  31.455   3.745  14.005
38597W        W 5028  29.761  25.207  13.525
38598W        W 5029  39.778  40.050   4.516
38599W        W 5030   6.276  29.960  10.869
38600W        W 5031   0.782  29.003   0.018
38601W        W 5032   2.486  21.629  11.851
38602W        W 5033  10.772  15.821   4.196
38603W        W 5034  39.211  21.253  10.764
38604W        W 5035  16.837  39.020  11.164
38605W        W 5036  38.053  44.951   3.329
38606W        W 5037  22.184  24.129  13.084
38607W        W 5038  33.565  30.422  13.167
38608W        W 5039  30.585  41.337   2.291
38609W        W 5040  42.377   3.395   3.339
38610W        W 5041  34.025  15.113   3.687
38611W        W 5042  19.247  39.325  14.938
38612W        W 5043   7.872  34.579  12.068
38613W        W 5044  26.736  39.352  14.906
38614W        W 5045   3.770  42.001   4.733
38615W        W 5046  18.061   6.328   4.070
38616W        W 5047  34.341   3.331   5.125
38617W        W 5048   8.991  26.492   4.617
38618W        W 5049  40.422  43.892   3.634
38619W        W 5050  41.004  24.751  11.663
38620W        W 5051  29.953  19.126   3.059
38621W        W 5052  13.844  22.847   2.020
38622W        W 5053  31.505  32.682   3.621
38623W        W 5054  29.531  33.829  14.901
38624W        W 5055   3.487  34.588  14.029
38625W        W 5056   0.977  15.755  10.295
38626W        W 5057  34.504   0.965  10.958
38627W        W 5058  40.485  13.104  13.577
38628W        W 5059   6.300  10.181   0.789
38629W        W 5060   0.820  37.463   0.480
38630W        W 5061  12.545  15.513   1.675
38631W        W 5062  19.011  23.075   4.178
38632W        W 5063   1.361  21.647  12.517
38633W        W 5064  39.461   7.746  13.004
38634W        W 5065  11.413  27.035  14.883
38635W        W 5066   2.847  44.654  11.142
38636W        W 5067   7.687  10.397   9.922
38637W        W 5068  25.847  22.786   0.413
38638W        W 5069  33.614  26.499   0.377
38639W        W 5070  21.114  40.752  12.166
38640W        W 5071   3.549  12.383   3.201
38641W        W 5072  34.867   0.210  10.767
38642W        W 5073   2.256  29.851   4.488
38643W        W 5074  17.739  33.483  11.674
38644W        W 5075  34.926  15.757   4.084
38645W        W 5076  43.747  19.965  13.902
38646W        W 5077   6.416   0.705   3.138
38647W        W 5078  36.766  18.092  12.432
38648W        W 5079  11.234  19.328   1.740
38649W        W 5080  34.532  11.406  12.405
38650W        W 5081   5.552  41.411  12.116
38651W        W 5082  22.083  10.257   3.061
38652W        W 5083  44.378  20.283   4.539
38653W        W 5084  23.374  38.547  14.202
38654W        W 5085  13.039  34.419   2.648
38655W        W 5086  44.975  19.572   0.878
38656W        W 5087   2.717  33.547   4.269
38657W        W 5088   4.471   6.760  12.804
38658W        W 5089  10.733  13.285   1.294
38659W        W 5090  26.890  36.114  14.376
38660W        W 5091  41.999  38.860   3.714
38661W        W 5092  37.798  19.847   0.548
38662W        W 5093  22.457  41.746   1.026
38663W        W 5094  20.792  25.985  11.826
38664W        W 5095  33.307  11.759   4.871
38665W        W 5096   4.413  12.982   0.793
38666W        W 5097  44.850  33.182   4.526
38667W        W 5098  29.565  39.957   1.348
38668W        W 5099  25.311  13.103   1.738
38669W        W 5100  38.981  24.302  11.851
38670W        W 5101  11.434  31.158  13.971
38671W        W 5102  39.000  37.342  12.953
38672W        W 5103  28.551  43.044  11.114
38673W        W 5104  40.498  37.150  10.534
38674W        W 5105  35.138  10.365  11.120
38675W        W 5106  25.743  42.089   2.677
38676W        W 5107  34.169  37.962   0.836
38677W        W 5108  40.237  17.061   4.082
38678W        W 5109  15.555  35.588   3.164
38679W        W 5110  31.732  13.699   2.610
38680W        W 5111  32.518   0.027   3.316
38681W        W 5112  16.303  18.230   1.741
38682W        W 5113  13.344   6.970   4.971
38683W        W 5114  32.054  20.496   9.863
38684W        W 5115  26.147   2.935  14.673
38685W        W 5116   5.831   7.798   0.273
38686W        W 5117  22.335  40.558   1.676
38687W        W 5118  39.935  27.994   1.292
38688W        W 5119   9.926  19.144   4.494
38689W        W 5120  39.711  25.405  11.015
38690W        W 5121  44.098  11.875  12.036
38691W        W 5122  26.425  22.212  14.334
38692W        W 5123  31.494  44.507  12.148
38693W        W 5124  25.128  14.785  10.677
38694W        W 5125  37.324  11.794  11.207
38695W        W 5126   0.075  16.574  13.080
38696W        W 5127  37.686  19.482   3.624
38697W        W 5128  39.978  33.049  14.938
38698W        W 5129  23.277  39.088  11.125
38699W        W 5130   9.117   8.180   1.667
38700W        W 5131  26.094  25.748   3.952
38701W        W 5132   7.545   0.099  12.769
38702W        W 5133  23.397  28.441  13.011
38703W        W 5134   0.342  24.761   0.035
38704W        W 5135  13.349  36.084   3.581
38705W        W 5136  24.071  21.713   3.425
38706W        W 5137  44.488  12.322   0.804
38707W        W 5138  30.197  42.871  14.486
38708W        W 5139  33.361  37.385   0.670
38709W        W 5140  39.999  19.069  12.829
38710W        W 5141  26.754  24.934  11.596
38711W        W 5142  10.608  32.948   4.519
38712W        W 5143  20.021   9.691   4.758
38713W        W 5144  44.409  33.924   4.861
38714W        W 5145  23.824   4.766   4.336
38715W        W 5146   9.182   7.688   1.396
38716W        W 5147  14.082  12.602   0.477
38717W        W 5148   6.737  43.018  11.180
38718W        W 5149   0.345  13.682   1.204
38719W        W 5150  21.182  13.480  14.468
38720W        W 5151  38.805   9.383  14.078
38721W        W 5152   6.696   7.785  14.644
38722W        W 5153   1.265  32.578  14.990
38723W        W 5154  36.029   7.683  10.720
38724W        W 5155   2.968  22.561   1.379
38725W        W 5156   7.828  29.280  12.523
38726W        W 5157  39.372  31.960   4.600
38727W        W 5158   3.716  39.286  10.676
38728W        W 5159  20.659  30.934   4.869
38729W        W 5160   2.351  42.544   4.321
38730W        W 5161  15.273   3.751   1.846
38731W        W 5162  17.910  43.670  14.995
38732W        W 5163  38.127  16.092  14.526
38733W        W 5164   1.668  17.293   4.244
38734W        W 5165   0.416  14.617  13.896
38735W        W 5166  16.910  13.598  13.592
38736W        W 5167  36.009  32.110  13.183
38737W        W 5168  31.317   1.886  12.176
38738W        W 5169  33.998  15.906  12.912
38739W        W 5170   2.283  44.775  13.055
38740W        W 5171  20.076  22.587   4.813
38741W        W 5172  25.227   8.651   3.678
38742W        W 5173  40.915   4.938  10.885
38743W        W 5174  15.207  40.217   1.480
38744W        W 5175   0.323  30.823  14.317
38745W        W 5176  18.589   2.273   2.766
38746W        W 5177   8.642  44.784   1.332
38747W        W 5178   6.788  15.196   2.187
38748W        W 5179  36.543  23.726  13.036
38749W        W 5180   7.930  44.150   1.844
38750W        W 5181  27.699  41.897  13.593
38751W        W 5182  18.106  38.234   9.946
38752W        W 5183  24.018   2.193  11.263
38753W        W 5184  13.188  25.231  10.701
38754W        W 5185  37.271  20.604  10.672
38755W        W 5186  32.946  44.180   1.310
38756W        W 5187  41.579  15.339   2.240
38757W        W 5188   1.837  36.787   0.456
38758W        W 5189  28.664  10.719   4.871
38759W        W 5190  31.952  10.805  13.955
38760W        W 5191   8.922  39.787  12.080
38761W        W 5192  34.603  19.251   4.360
38762W        W 5193   0.932  20.777   4.139
38763W        W 5194  18.160   3.189  10.664
38764W        W 5195   7.290  21.128  14.889
38765W        W 5196   7.949  44.904   9.935
38766W        W 5197  29.009  34.444   3.391
38767W        W 5198   5.164   4.207  11.140
38768W        W 5199  28.697  25.611  14.134
38769W        W 5200  13.928  34.601   0.922
38770W        W 5201  35.395  33.248   0.362
38771W        W 5202  40.921   7.792   4.597
38772W        W 5203   2.780  28.528   3.795
38773W        W 5204  44.937  17.391  14.985
38774W        W 5205   7.054  34.882  13.671
38775W        W 5206  25.019   6.323   2.709
38776W        W 5207  29.509  40.154   2.900
38777W        W 5208  41.782  27.535  10.689
38778W        W 5209   0.774  38.778  11.063
38779W        W 5210  40.229  32.203  11.631
38780W        W 5211  17.743  33.641   2.363
38781W        W 5212   6.131  25.327  12.892
38782W        W 5213  41.988  13.073   3.176
38783W        W 5214  40.685  11.189   3.158
38784W        W 5215  29.535   8.421  10.816
38785W        W 5216   3.316   1.915  11.294
38786W        W 5217   1.764  36.652  10.641
38787W        W 5218  17.674  35.594  14.733
38788W        W 5219  12.901   4.849  13.844
38789W        W 5220  31.119  25.483   0.359
38790W        W 5221  16.660  39.842  11.212
38791W        W 5222  33.529  36.660  13.449
38792W        W 5223  15.581  21.624   1.708
38793W        W 5224  27.178  30.922   4.673
38794W        W 5225  11.843  41.969  11.389
38795W        W 5226  11.917  35.307   2.760
38796W        W 5227  16.250   7.639   2.778
38797W        W 5228  15.434   7.200   2.801
38798W        W 5229   7.314  27.859   2.394
38799W        W 5230  16.780  44.036   1.360
38800W        W 5231  40.477  28.824  11.563
38801W        W 5232  29.703   1.238   1.227
38802W        W 5233  18.291  18.623  12.187
38803W        W 5234  38.424   5.812  10.534
38804W        W 5235  32.090   1.422  13.874
38805W        W 5236  20.164  17.943   2.282
38806W        W 5237  24.509  21.133   1.932
38807W        W 5238  31.257  28.303  11.157
38808W        W 5239  40.875   4.867   4.046
38809W        W 5240  29.161  14.089  13.308
38810W        W 5241   3.373  17.662  13.503
38811W        W 5242  39.442   6.220   2.902
38812W        W 5243  44.332  43.381  10.706
38813W        W 5244  29.102  33.563   4.161
38814W        W 5245  20.701   7.223  13.946
38815W        W 5246  11.582  39.741  12.691
38816W        W 5247  36.979  14.037  12.471
38817W        W 5248   4.851  12.020   4.980
38818W        W 5249   4.353   4.139  11.417
38819W        W 5250   7.849  22.191   3.378
38820W        W 5251  31.916   3.788  12.512
38821W        W 5252  43.455  10.980  10.659
38822W        W 5253  10.682   8.225   4.019
38823W        W 5254  41.380   8.872  14.299
38824W        W 5255  22.660  36.401   1.915
38825W        W 5256  31.574   1.985  12.598
38826W        W 5257  35.105  17.947  12.122
38827W        W 5258  27.683  34.448  11.619
38828W        W 5259  37.158  17.311  10.685
38829W        W 5260  10.799  20.040   3.907
38830W        W 5261   6.315  40.453   4.473
38831W        W 5262   2.009  10.365   3.227
38832W        W 5263  40.858  16.767  12.501
38833W        W 5264  12.608   2.496  14.984
38834W        W 5265   7.372  24.161  10.990
38835W        W 5266  33.299  16.699  13.411
38836W        W 5267   2.631  32.161   4.401
38837W        W 5268  32.403  26.137   0.698
38838W        W 5269  15.552  37.568   2.793
38839W        W 5270  36.346  28.755  12.387
38840W        W 5271  44.881  12.563   1.051
38841W        W 5272  36.563  44.128  12.993
38842W        W 5273  30.933  38.588   3.875
38843W        W 5274   4.843  24.226   3.390
38844W        W 5275   9.227  16.947   0.804
38845W        W 5276  12.549  16.026  12.908
38846W        W 5277  20.839  33.425  12.647
38847W        W 5278  43.349  20.637  13.048
38848W        W 5279  15.302  43.848   3.287
38849W        W 5280  38.803  26.337  10.095
38850W        W 5281  21.028  43.763  11.160
38851W        W 5282  22.139  20.426   1.779
38852W        W 5283  18.542   1.357   2.291
38853W        W 5284  34.180   8.667  13.040
38854W        W 5285  24.039  16.671  14.463
38855W        W 5286  15.230  22.915  12.551
38856W        W 5287   7.451  42.817  10.471
38857W        W 5288   3.738  11.191   1.682
38858W        W 5289  43.598  23.723   4.212
38859W        W 5290  18.074  26.399  14.848
38860W        W 5291  34.846   5.960  13.328
38861W        W 5292  12.285  11.775   4.894
38862W        W 5293  26.679   4.134   3.373
38863W        W 5294  13.084  20.493  12.576
38864W        W 5295  20.805  18.266   3.342
38865W        W 5296  19.647  41.986  11.180
38866W        W 5297   1.861  27.614  10.518
38867W        W 5298  10.387  31.269   0.440
38868W        W 5299  28.515  16.218   1.368
38869W        W 5300  25.011  28.999  12.745
38870W        W 5301  29.105  26.975   3.392
38871W        W 5302  38.516  27.901   0.313
38872W        W 5303  41.904  30.492   5.036
38873W        W 5304  15.348  31.634   2.801
38874W        W 5305  29.540  28.010   1.168
38875W        W 5306  36.340  10.284  14.220
38876W        W 5307  44.864  44.441   0.364
38877W        W 5308  16.764  20.922   2.298
38878W        W 5309  13.681   6.461  14.182
38879W        W 5310  13.029  19.632   0.334
38880W        W 5311   0.438  32.577   3.142
38881W        W 5312  29.383  27.630  13.398
38882W        W 5313  11.105   1.930   0.354
38883W        W 5314   8.196  39.723  12.353
38884W        W 5315  42.935  37.440  13.320
38885W        W 5316  17.683  30.077  11.259
38886W        W 5317  20.749  27.317  13.827
38887W        W 5318  12.820   9.107   2.691
38888W        W 5319  14.560  24.048   3.691
38889W        W 5320  17.300  21.316  10.410
38890W        W 5321  28.912  13.594  14.944
38891W        W 5322  25.880  14.613  14.781
38892W        W 5323  32.576   8.089  13.488
38893W        W 5324  35.403  38.699  10.465
38894W        W 5325   6.606  38.587   0.002
38895W        W 5326   8.720   9.155   1.819
38896W        W 5327  29.425  16.558  11.054
38897W        W 5328  32.832   5.260  14.858
38898W        W 5329  44.280  12.365   4.904
38899W        W 5330   9.366  36.080   4.102
38900W        W 5331  38.236  17.894   4.305
38901W        W 5332  19.747  11.882   4.488
38902W        W 5333  12.550  39.374   1.803
38903W        W 5334  26.745  35.226  13.393
38904W        W 5335  41.039  24.760   3.351
38905W        W 5336  40.038  25.518   1.423
38906W        W 5337   2.846  25.207  14.750
38907W        W 5338  33.332   2.334   3.852
38908W        W 5339   7.887  19.498   4.004
38909W        W 5340  43.259  44.215  14.952
38910W        W 5341  43.485  13.773  11.242
38911W        W 5342  33.122  19.072   2.840
38912W        W 5343   6.893   0.956  14.785
38913W        W 5344  35.604  28.476   3.801
38914W        W 5345  12.764   7.479  13.240
38915W        W 5346  42.071   8.403  12.562
38916W        W 5347  35.642   0.455   2.808
38917W        W 5348  12.366   7.370   0.821
38918W        W 5349   7.507  11.877  13.919
38919W        W 5350  35.450  42.245   1.833
38920W        W 5351   1.943  26.688   0.481
38921W        W 5352  17.442   8.314   2.273
38922W        W 5353  40.894  34.554   0.089
38923W        W 5354  29.943  26.139   2.770
38924W        W 5355  33.536  11.817   5.348
38925W        W 5356  26.223  41.487   1.833
38926W        W 5357  31.407  42.551  12.909
38927W        W 5358  23.224  42.262  13.458
38928W        W 5359   3.889  27.956  11.585
38929W        W 5360  29.112   1.467  10.676
38930W        W 5361   7.379  14.821  10.708
38931W        W 5362  17.759  31.379  12.064
38932W        W 5363   5.854  44.407  14.140
38933W        W 5364  27.510  20.551  10.392
38934W        W 5365  16.585  29.283   0.970
38935W        W 5366  28.009  33.465  12.099
38936W        W 5367  44.357   6.013   2.816
38937W        W 5368  31.082  27.862   0.075
38938W        W 5369  22.191  38.877   1.188
38939W        W 5370  44.071   0.488   0.211
38940W        W 5371  22.189  33.472  11.027
38941W        W 5372  22.204  25.070   4.668
38942W        W 5373  26.630   9.292  11.502
38943W        W 5374   3.981  34.892   2.274
38944W        W 5375  24.244  12.907   0.807
38945W        W 5376  32.993  30.477  14.437
38946W        W 5377   5.531  41.812   3.514
38947W        W 5378  18.707  19.093  13.024
38948W        W 5379  32.457   6.054   3.157
38949W        W 5380  43.869  15.104   0.319
38950W        W 5381  17.663  14.843  12.580
38951W        W 5382  43.574  12.454  13.079
38952W        W 5383  29.848  33.401  10.756
38953W        W 5384  41.264  42.984   0.907
38954W        W 5385  28.089  44.312  11.639
38955W        W 5386  16.516  42.091   3.306
38956W        W 5387  21.335  41.583   2.526
38957W        W 5388  27.422  43.781   3.203
38958W        W 5389  21.969   9.372  11.126
38959W        W 5390  33.972   0.962   2.819
38960W        W 5391   7.855  36.481   4.692
38961W        W 5392  31.136  23.636  13.552
38962W        W 5393  15.042  11.154  13.047
38963W        W 5394  20.508  35.405  14.242
38964W        W 5395  16.390  26.962  13.491
38965W        W 5396  18.537  41.430   1.714
38966W        W 5397   7.908  29.657   0.856
38967W        W 5398   1.363  18.999  11.403
38968W        W 5399  36.540  35.925   5.080
38969W        W 5400  38.769   9.670  12.499
38970W        W 5401  30.530  16.866  13.513
38971W        W 5402  44.421  21.921  11.125
38972W        W 5403  18.732  21.289   0.791
38973W        W 5404  28.579  31.145  14.873
38974W        W 5405  14.894  25.845   5.114
38975W        W 5406  25.612  35.289  11.071
38976W        W 5407  42.671   1.392  11.019
38977W        W 5408  15.562  40.283   3.936
38978W        W 5409  21.923  26.485   3.705
38979W        W 5410  43.603  25.695   4.318
38980W        W 5411  36.038   2.505   1.898
38981W        W 5412   6.281  14.088   4.515
38982W        W 5413   5.144  25.262  14.879
38983W        W 5414  15.531   0.778  14.363
38984W        W 5415  31.661  12.415  12.049
38985W        W 5416  14.878  27.935   2.355
38986W        W 5417  22.765  31.269   1.286
38987W        W 5418  17.138  38.790   2.008
38988W        W 5419  27.098  43.426  11.147
38989W        W 5420  42.438   4.226  12.036
38990W        W 5421  28.872  10.360  13.613
38991W        W 5422  41.426  13.350  10.612
38992W        W 5423  31.455  11.195  14.400
38993W        W 5424  19.128   1.861  11.164
38994W        W 5425  23.558   6.960  14.943
38995W        W 5426  19.833  34.020  12.079
38996W        W 5427  39.534  21.201   3.617
38997W        W 5428  24.541  27.234  14.925
38998W        W 5429   9.674  44.324  13.071
38999W        W 5430  19.731  43.541   4.097
39000W        W 5431  37.925  18.250  14.532
39001W        W 5432   3.766  22.706   9.940
39002W        W 5433  21.103  23.958  11.595
39003W        W 5434  42.562  37.877   1.327
39004W        W 5435  30.104  10.757   5.029
39005W        W 5436  18.082   4.925  13.069
39006W        W 5437  15.495   4.243  13.522
39007W        W 5438  17.582  28.969  11.853
39008W        W 5439  10.088  35.616   1.896
39009W        W 5440   6.842   8.802  11.247
39010W        W 5441  39.760  27.426   0.676
39011W        W 5442  38.516  13.206  14.974
39012W        W 5443  34.419  31.801  12.853
39013W        W 5444   2.357   4.586  11.848
39014W        W 5445  26.957  22.241  14.276
39015W        W 5446  39.907   7.354   4.372
39016W        W 5447  15.649  22.624   4.572
39017W        W 5448  16.616  16.154   2.208
39018W        W 5449   6.244  42.823  14.826
39019W        W 5450  12.896  40.096  14.308
39020W        W 5451  39.795  40.986   3.128
39021W        W 5452  15.598  41.313   3.216
39022W        W 5453  26.196   9.936  13.827
39023W        W 5454  38.418  43.600  10.298
39024W        W 5455  24.044  13.654  13.168
39025W        W 5456  31.521   8.685   0.312
39026W        W 5457  39.251   9.806  11.667
39027W        W 5458   1.405  42.360  14.129
39028W        W 5459  40.282   9.209  13.456
39029W        W 5460  43.060  15.698  11.585
39030W        W 5461  41.265  42.089   3.202
39031W        W 5462   4.843  22.880  14.503
39032W        W 5463  41.466  18.175   1.205
39033W        W 5464  42.400  18.076   4.728
39034W        W 5465  30.354  10.420  11.151
39035W        W 5466  20.694  23.670  12.872
39036W        W 5467  40.072  36.422   3.282
39037W        W 5468  23.517   7.999   2.802
39038W        W 5469  25.099   9.934  14.774
39039W        W 5470  13.815   9.785  13.599
39040W        W 5471  29.395  38.060  12.530
39041W        W 5472   6.296  21.692  10.768
39042W        W 5473  34.063   4.476  13.056
39043W        W 5474  21.662  13.052  13.270
39044W        W 5475   8.398  28.027  11.564
39045W        W 5476  30.745   0.716  11.932
39046W        W 5477  14.474  31.048   2.918
39047W        W 5478  29.919  40.816  11.431
39048W        W 5479  27.496  32.213   0.871
39049W        W 5480  11.411   2.822   1.465
39050W        W 5481  28.471  23.253   2.616
39051W        W 5482  28.431  40.051   2.953
39052W        W 5483  15.427  19.085  13.390
39053W        W 5484  36.537  29.115   5.011
39054W        W 5485   5.718  30.623  13.381
39055W        W 5486  21.663  23.505   3.928
39056W        W 5487  13.915  31.108   1.244
39057W        W 5488  33.633  44.590   4.562
39058W        W 5489  11.210  36.159  12.954
39059W        W 5490  39.715  40.491   2.950
39060W        W 5491   6.149   1.441  12.054
39061W        W 5492   0.532   9.234  14.962
39062W        W 5493  40.998  25.127   0.439
39063W        W 5494  41.011  38.825  11.093
39064W        W 5495  27.110   1.974  12.866
39065W        W 5496   9.657  37.493   1.318
39066W        W 5497  39.998  16.830  12.875
39067W        W 5498  41.460   2.876  12.186
39068W        W 5499   2.821  16.666   3.483
39069W        W 5500  40.303  28.637  10.626
39070W        W 5501  33.407   1.840   2.409
39071W        W 5502  44.880  44.573  12.470
39072W        W 5503  20.898  36.349   3.752
39073W        W 5504  20.181  34.625   2.138
39074W        W 5505  42.659  28.963  13.890
39075W        W 5506  31.578  11.251  13.513
39076W        W 5507  31.623  30.064   4.719
39077W        W 5508  39.440  13.814   0.192
39078W        W 5509  26.219   9.948  12.996
39079W        W 5510   8.329  44.899  10.896
39080W        W 5511  43.488  16.678   2.232
39081W        W 5512   1.322  41.501  12.961
39082W        W 5513   8.402  13.907   4.079
39083W        W 5514   4.076   3.214   3.710
39084W        W 5515  29.519   2.828   0.931
39085W        W 5516   6.777  22.778  12.450
39086W        W 5517   9.120  22.538  10.313
39087W        W 5518  42.937  39.766  12.116
39088W        W 5519  42.375   2.368   4.469
39089W        W 5520  29.626  24.283  10.746
39090W        W 5521  26.295   3.925   1.773
39091W        W 5522  22.665  40.354  12.486
39092W        W 5523  26.566  41.821   0.767
39093W        W 5524  25.827  32.428   0.335
39094W        W 5525  22.056  43.794   3.948
39095W        W 5526  28.374  14.696  11.127
39096W        W 5527  43.511   7.669   4.188
39097W        W 5528  42.880  32.900   4.495
39098W        W 5529  16.284  34.942  14.518
39099W        W 5530  21.702  22.264  13.808
39100W        W 5531  35.948   7.778  14.129
39101W        W 5532  26.961  12.745   4.715
39102W        W 5533  32.950  23.974   2.814
39103W        W 5534  20.729  31.449   2.228
39104W        W 5535  14.550  37.754   0.349
39105W        W 5536   1.026  30.870  11.376
39106W        W 5537   8.856   6.938  11.651
39107W        W 5538  41.279  16.132  12.988
39108W        W 5539   8.740  21.018   3.703
39109W        W 5540  38.363  32.381   0.292
39110W        W 5541  20.241  41.034  12.039
39111W        W 5542  31.828  13.211   2.772
39112W        W 5543  44.088  31.219   3.946
39113W        W 5544  16.115  20.786  12.856
39114W        W 5545  11.905  24.260   0.048
39115W        W 5546  11.388  41.960  11.631
39116W        W 5547  39.983  19.804   3.750
39117W        W 5548  37.844  42.471   1.772
39118W        W 5549  26.975  41.974  11.990
39119W        W 5550  27.892  21.313  13.154
39120W        W 5551  13.218  37.433  12.458
39121W        W 5552  20.770   8.137  12.025
39122W        W 5553  41.368   8.016   0.315
39123W        W 5554  28.456  43.956   3.155
39124W        W 5555  21.127  44.350   3.265
39125W        W 5556  13.125  32.926  11.688
39126W        W 5557  32.167   9.668  12.099
39127W        W 5558   5.041  38.269  10.991
39128W        W 5559  35.467  21.276   3.929
39129W        W 5560   4.857  30.165  12.044
39130W        W 5561  22.767  40.614  11.516
39131W        W 5562  43.035   9.263   0.261
39132W        W 5563  39.159  20.211   2.329
39133W        W 5564   8.221  39.597  12.966
39134W        W 5565  41.076  25.930  14.056
39135W        W 5566  11.042  40.999  14.897
39136W        W 5567   8.447   8.948  11.427
39137W        W 5568   8.488  29.158   1.645
39138W        W 5569  23.987  36.672  12.826
39139W        W 5570  32.288  37.144  13.419
39140W        W 5571  38.390   3.908   0.246
39141W        W 5572  22.478   4.456   1.856
39142W        W 5573  40.477  12.592   2.199
39143W        W 5574  21.282  21.636   3.251
39144W        W 5575  42.722   4.396  12.405
39145W        W 5576  22.418   0.233   1.008
39146W        W 5577   3.964   6.521  11.147
39147W        W 5578  13.149  35.825  11.211
39148W        W 5579  31.096   5.467   5.158
39149W        W 5580  24.511  15.450   1.983
39150W        W 5581  25.681  31.736  14.751
39151W        W 5582   4.208   3.692   4.566
39152W        W 5583  11.266  12.721  13.372
39153W        W 5584   8.256   7.244   4.651
39154W        W 5585   1.956   8.423   1.320
39155W        W 5586  12.616  33.560   1.272
39156W        W 5587  32.673  20.062  13.978
39157W        W 5588  44.735   2.381   2.289
39158W        W 5589  34.067   8.542  14.397
39159W        W 5590   7.401  28.997  14.016
39160W        W 5591   6.150  21.316  13.350
39161W        W 5592   5.029  17.274   0.869
39162W        W 5593   2.765  30.320  11.949
39163W        W 5594  39.455   7.196   0.806
39164W        W 5595  35.257  33.883   0.815
39165W        W 5596  25.867  26.598   0.886
39166W        W 5597  12.737   5.380   2.793
39167W        W 5598  18.156  37.214  14.502
39168W        W 5599   4.075  42.491   3.854
39169W        W 5600   0.792   2.785   3.745
39170W        W 5601  35.800  37.295   1.284
39171W        W 5602  33.951   7.184  11.372
39172W        W 5603   2.181  28.186   4.133
39173W        W 5604  36.102   5.621   1.755
39174W        W 5605  22.155  29.987  13.626
39175W        W 5606  15.038   3.834  12.877
39176W        W 5607  33.775   4.637   5.047
39177W        W 5608   4.026  36.408  13.090
39178W        W 5609  19.742  18.316   3.132
39179W        W 5610  16.927  43.374  10.802
39180W        W 5611  35.688   8.819   1.917
39181W        W 5612  36.883  15.890   4.281
39182W        W 5613  27.958  40.575  13.913
39183W        W 5614   0.166  27.678  11.925
39184W        W 5615  19.000  28.981   4.613
39185W        W 5616   6.266  28.580  11.425
39186W        W 5617  23.240  44.368  12.136
39187W        W 5618  16.322  31.955   2.852
39188W        W 5619   2.769  38.796  14.131
39189W        W 5620  10.271  26.298  14.505
39190W        W 5621  20.514  15.256   3.414
39191W        W 5622   1.398  20.175  13.284
39192W        W 5623  37.889   2.943   2.924
39193W        W 5624  24.557  43.426   1.921
39194W        W 5625  37.157  38.563   4.053
39195W        W 5626  17.738  28.570  12.978
39196W        W 5627  12.966  13.159   0.306
39197W        W 5628  19.861   4.047  11.578
39198W        W 5629  22.948  23.062   3.716
39199W        W 5630  22.556  14.621   4.050
39200W        W 5631  28.443  33.234  13.432
39201W        W 5632  13.135  20.801  13.066
39202W        W 5633   9.142  29.125   4.582
39203W        W 5634   4.128  36.420  10.769
39204W        W 5635  21.518  18.690  13.358
39205W        W 5636   4.311   1.425   3.553
39206W        W 5637  33.556  22.523   4.525
39207W        W 5638  24.013  24.472   2.075
39208W        W 5639  30.691  25.165  11.962
39209W        W 5640   7.236  34.650  11.637
39210W        W 5641   0.299  11.125  11.475
39211W        W 5642   4.256   3.033  10.465
39212W        W 5643  13.661  12.674   2.463
39213W        W 5644  39.980  40.868   4.264
39214W        W 5645  29.700   8.562   4.011
39215W        W 5646  41.340  33.729   0.832
39216W        W 5647  37.061  13.642   1.209
39217W        W 5648  21.764  37.524  14.950
39218W        W 5649  39.941  40.197  10.370
39219W        W 5650   1.205  12.177   1.689
39220W        W 5651  18.865   9.988  12.545
39221W        W 5652  15.178  39.980  11.907
39222W        W 5653  20.668   4.655  14.810
39223W        W 5654   2.719  27.224  14.793
39224W        W 5655  19.256  41.894  11.631
39225W        W 5656   4.491  42.394   4.734
39226W        W 5657  12.424  39.838  14.446
39227W        W 5658  35.902  17.270   0.806
39228W        W 5659  23.068  18.478   1.261
39229W        W 5660  39.251   7.873   1.210
39230W        W 5661  39.362  24.019  12.039
39231W        W 5662  30.245  17.472  12.529
39232W        W 5663  13.837  32.852  11.388
39233W        W 5664  38.140  11.147   1.947
39234W        W 5665  44.586  35.202   1.411
39235W        W 5666   9.366  40.453  10.592
39236W        W 5667  34.458  28.985  10.721
39237W        W 5668  27.588  15.431  12.400
39238W        W 5669  23.988   8.818   4.363
39239W        W 5670  21.785  22.961  14.730
39240W        W 5671   8.252   0.977  14.375
39241W        W 5672  16.504  42.876   2.803
39242W        W 5673  40.467   2.360   4.391
39243W        W 5674  30.967   4.328   3.186
39244W        W 5675  15.687   5.107   0.973
39245W        W 5676  37.308  26.452   0.382
39246W        W 5677  41.019   1.202   4.222
39247W        W 5678  23.475  32.166  10.342
39248W        W 5679  13.186   0.687   3.757
39249W        W 5680  30.601  42.109  10.995
39250W        W 5681  25.149  38.081   1.422
39251W        W 5682  16.339  35.104   1.411
39252W        W 5683  30.893   3.597  10.048
39253W        W 5684  22.995  20.268  10.121
39254W        W 5685  32.275   8.254   1.333
39255W        W 5686  41.496   0.919  12.382
39256W        W 5687  12.890  13.437   0.732
39257W        W 5688   8.668  15.238   4.127
39258W        W 5689  36.619  24.476  12.552
39259W        W 5690  17.524  35.692  11.616
39260W        W 5691   3.790  38.845  12.595
39261W        W 5692   9.187   2.206  12.850
39262W        W 5693  12.859  36.277  13.643
39263W        W 5694  40.784  14.137  10.753
39264W        W 5695  40.064  29.039   1.368
39265W        W 5696  38.647  25.927  14.207
39266W        W 5697   5.771  35.486  13.499
39267W        W 5698   5.286   3.226   3.178
39268W        W 5699  19.803  25.967  10.585
39269W        W 5700  38.992  25.018   0.826
39270W        W 5701   2.479  21.442  13.383
39271W        W 5702  25.690  33.992   4.086
39272W        W 5703  40.734  24.688  10.808
39273W        W 5704  34.507  32.245  13.792
39274W        W 5705   1.150  16.323   2.323
39275W        W 5706   6.417  21.542   3.518
39276W        W 5707  35.324  15.719  13.750
39277W        W 5708  10.884  40.006   4.026
39278W        W 5709  26.618  31.617  13.367
39279W        W 5710   8.189  26.603   2.782
39280W        W 5711  29.994  28.197  11.549
39281W        W 5712  32.059  10.895   1.968
39282W        W 5713  26.243   6.765  11.119
39283W        W 5714  23.804  16.426  14.021
39284W        W 5715  39.810  42.123   0.590
39285W        W 5716  35.154  33.664   4.645
39286W        W 5717  20.487   9.416  10.806
39287W        W 5718  14.712  29.875   2.570
39288W        W 5719  32.987  37.874  14.272
39289W        W 5720  26.822  35.928  11.934
39290W        W 5721  24.564  29.009   1.257
39291W        W 5722  39.843  36.013   4.567
39292W        W 5723   1.337  22.194   4.061
39293W        W 5724  18.534  42.684   1.180
39294W        W 5725  24.457  36.304   2.134
39295W        W 5726  29.040  30.056  14.546
39296W        W 5727   1.478  23.444  12.032
39297W        W 5728  32.656  39.774   4.502
39298W        W 5729   6.989  11.862  14.008
39299W        W 5730   8.352  22.516  10.364
39300W        W 5731  42.932  27.975  11.797
39301W        W 5732  20.956  21.576  12.416
39302W        W 5733  35.100  19.248  11.170
39303W        W 5734  35.916  23.118  11.048
39304W        W 5735  37.643  26.134   1.208
39305W        W 5736   6.695  33.579   4.047
39306W        W 5737  13.621  44.288  14.765
39307W        W 5738  32.867  28.558  13.440
39308W        W 5739  39.206  43.686   2.201
39309W        W 5740  34.937  18.284   4.589
39310W        W 5741   7.709  32.702   0.959
39311W        W 5742  31.195  22.752  13.349
39312W        W 5743  18.448   2.253   9.946
39313W        W 5744  42.982  23.755   0.347
39314W        W 5745  27.537  21.327   2.588
39315W        W 5746  21.845  21.706   0.845
39316W        W 5747  18.187   9.514  14.494
39317W        W 5748  23.614  15.775  11.501
39318W        W 5749  13.874  23.179  11.237
39319W        W 5750  16.869  36.327  13.423
39320W        W 5751   7.740  44.307  13.470
39321W        W 5752  41.143  17.541  14.406
39322W        W 5753  19.088   7.225   4.637
39323W        W 5754   4.953  11.853  14.289
39324W        W 5755  38.330   5.733  14.653
39325W        W 5756  41.815  30.311  14.820
39326W        W 5757  28.000  43.802  10.760
39327W        W 5758  17.251   0.784   4.989
39328W        W 5759  34.092  30.648   4.030
39329W        W 5760  28.513  25.582  11.688
39330W        W 5761  42.330  14.674  12.662
39331W        W 5762  31.992  31.472  11.187
39332W        W 5763   9.116  21.121  12.547
39333W        W 5764  29.168   1.991  10.675
39334W        W 5765  29.423  32.185  12.242
39335W        W 5766  30.105  40.985   4.558
39336W        W 5767   0.570  40.309   4.568
39337W        W 5768   4.243  28.784   4.814
39338W        W 5769  30.520  31.878  14.339
39339W        W 5770  10.717  20.229   2.872
39340W        W 5771  39.541  13.842   2.883
39341W        W 5772  43.918   1.355   2.690
39342W        W 5773  15.213  36.039  12.989
39343W        W 5774  22.249   5.804   3.143
39344W        W 5775  41.049  37.515  12.930
39345W        W 5776   4.750  25.687   2.945
39346W        W 5777   8.635  13.679   0.639
39347W        W 5778  35.517  35.460   1.688
39348W        W 5779   0.764  25.660  14.504
39349W        W 5780   1.670   7.765  12.100
39350W        W 5781  26.246  22.482  13.915
39351W        W 5782  25.217  19.998  10.446
39352W        W 5783   3.949  14.252   2.711
39353W        W 5784  22.450   2.662  13.834
39354W        W 5785  32.396  13.742   1.696
39355W        W 5786   6.340   7.931   0.256
39356W        W 5787  43.381  23.240   4.920
39357W        W 5788  19.020  13.730   0.201
39358W        W 5789  21.915  14.675   3.256
39359W        W 5790   8.599   3.872   0.345
39360W        W 5791  40.445  31.967   0.397
39361W        W 5792   9.814  29.216  14.604
39362W        W 5793  19.117  27.248  13.786
39363W        W 5794  20.663  14.140   2.268
39364W        W 5795  10.191  38.872   0.570
39365W        W 5796  41.105  19.786   4.209
39366W        W 5797   8.570  11.670  14.887
39367W        W 5798  41.583   4.689   3.867
39368W        W 5799  22.647  12.996  12.251
39369W        W 5800  34.138  17.602   3.080
39370W        W 5801  17.703  29.399   4.310
39371W        W 5802  18.997  25.083  10.711
39372W        W 5803  15.585  36.772  14.217
39373W        W 5804   0.722   3.946   2.375
39374W        W 5805  36.862  10.626  14.293
39375W        W 5806  20.970  13.844  13.073
39376W        W 5807  28.810  40.073   0.934
39377W        W 5808  29.653   5.931   1.700
39378W        W 5809   3.305  35.553   4.211
39379W        W 5810  42.284  27.062  12.487
39380W        W 5811  31.761   2.166   2.740
39381W        W 5812   6.282  11.844   1.910
39382W        W 5813  25.241  19.222   0.789
39383W        W 5814  38.529  15.396  12.966
39384W        W 5815  43.046  41.417   4.894
39385W        W 5816   1.121  38.852   2.169
39386W        W 5817  42.252  30.026   3.687
39387W        W 5818  30.116  26.394   0.926
39388W        W 5819   5.630  21.864   1.147
39389W        W 5820  37.565   7.876  12.973
39390W        W 5821  24.780  40.464   1.523
39391W        W 5822  27.983  28.897  10.289
39392W        W 5823  19.815  15.153  14.877
39393W        W 5824  15.325  18.080  11.495
39394W        W 5825  12.409  42.349  12.070
39395W        W 5826  22.682  13.714   2.136
39396W        W 5827  30.502  12.175   0.076
39397W        W 5828  44.361  15.340   0.188
39398W        W 5829  40.804  44.395  12.325
39399W        W 5830  31.055   4.328  10.712
39400W        W 5831  12.152  34.047  11.843
39401W        W 5832  19.514  30.522   4.556
39402W        W 5833  31.952  18.234  14.060
39403W        W 5834  41.357  31.580  12.940
39404W        W 5835  31.176   3.840  14.969
39405W        W 5836  24.109   2.354  12.143
39406W        W 5837  34.903  30.622  13.378
39407W        W 5838   5.212  24.651   4.481
39408W        W 5839  41.436  32.215   3.170
39409W        W 5840  38.479  42.292  14.416
39410W        W 5841  24.071  18.637   0.687
39411W        W 5842  29.681  22.291  13.323
39412W        W 5843  24.449  41.092  14.348
39413W        W 5844   4.285  31.067   0.167
39414W        W 5845  22.344  39.432  11.670
39415W        W 5846  28.162  23.208  14.299
39416W        W 5847  44.448   6.516   2.942
39417W        W 5848  29.597  38.235  10.946
39418W        W 5849  15.032  32.428   0.148
39419W        W 5850  12.671   0.241   1.907
39420W        W 5851  29.217  31.648   1.417
39421W        W 5852  35.487   8.383  14.565
39422W        W 5853  32.108  12.938  11.077
39423W        W 5854  24.296  43.351  14.009
39424W        W 5855   2.126   3.688   2.588
39425W        W 5856  14.670  42.469  12.556
39426W        W 5857  32.646  13.900  10.986
39427W        W 5858   2.868   5.488  14.223
39428W        W 5859  23.527   0.779   2.394
39429W        W 5860   8.998   6.147   4.117
39430W        W 5861  16.305  36.088   0.339
39431W        W 5862  13.710  19.512   1.049
39432W        W 5863  28.735  34.020   0.725
39433W        W 5864  37.505  29.044  12.057
39434W        W 5865   4.017  20.483  13.566
39435W        W 5866   6.845  24.037   4.163
39436W        W 5867  29.836  44.382   1.376
39437W        W 5868  17.162  35.405   3.487
39438W        W 5869   0.341  29.708  13.722
39439W        W 5870  24.701  18.893   1.780
39440W        W 5871  19.950  27.052  13.237
39441W        W 5872   1.631  29.935  14.013
39442W        W 5873  17.627  11.659   1.303
39443W        W 5874  12.785  11.214   3.148
39444W        W 5875   9.750  18.325  14.796
39445W        W 5876  28.386  42.755   1.779
39446W        W 5877  17.565   9.527  12.658
39447W        W 5878   4.321   0.231   2.237
39448W        W 5879  36.696  19.296  11.618
39449W        W 5880   1.249   3.075  11.166
39450W        W 5881  19.223  38.058   1.282
39451W        W 5882  17.565   0.393   1.833
39452W        W 5883  21.716  26.517   1.321
39453W        W 5884  41.327  36.453  14.889
39454W        W 5885  33.518  34.882   1.010
39455W        W 5886  38.136  20.203   2.980
39456W        W 5887  22.774  42.608   5.013
39457W        W 5888  34.304  37.920   4.441
39458W        W 5889   1.423  13.378  10.718
39459W        W 5890   9.274  34.378   4.065
39460W        W 5891   4.768  13.474   5.174
39461W        W 5892  19.418   3.107   9.994
39462W        W 5893  28.541  25.606   0.466
39463W        W 5894  20.548  34.640  13.088
39464W        W 5895  39.410  17.588  14.975
39465W        W 5896   3.533  28.473  10.669
39466W        W 5897   8.372  15.193  14.818
39467W        W 5898  20.921  42.925   0.534
39468W        W 5899  32.620  21.865  14.845
39469W        W 5900  18.127  35.855   3.401
39470W        W 5901   9.165  32.914   2.192
39471W        W 5902  40.950  20.376  14.321
39472W        W 5903  15.050  38.030  13.846
39473W        W 5904  27.670  11.751  11.206
39474W        W 5905   3.400  37.145   1.712
39475W        W 5906  37.477  41.574  10.753
39476W        W 5907  42.854  24.755  11.114
39477W        W 5908  37.730  31.244  11.304
39478W        W 5909  35.389  34.977  13.881
39479W        W 5910  25.331  27.469   2.075
39480W        W 5911  41.036  12.648  10.817
39481W        W 5912  37.787  16.295   2.370
39482W        W 5913  12.563  11.308  11.430
39483W        W 5914  18.047  16.603  13.951
39484W        W 5915  30.491  18.393   1.886
39485W        W 5916  34.426  10.485   2.253
39486W        W 5917   8.901  10.660   0.418
39487W        W 5918  36.872  33.161  13.070
39488W        W 5919  39.012  37.994  14.365
39489W        W 5920  14.773  27.548  13.012
39490W        W 5921  29.217  27.955   0.709
39491W        W 5922  11.710  34.558  12.902
39492W        W 5923  36.105  33.064  13.592
39493W        W 5924  13.718  10.094  11.499
39494W        W 5925   4.499  43.436  13.536
39495W        W 5926  44.723   5.600   1.226
39496W        W 5927  40.827  42.806  14.261
39497W        W 5928  23.665  13.119   1.468
39498W        W 5929  10.411  35.483  13.116
39499W        W 5930  20.353  15.040   3.882
39500W        W 5931   1.802  18.252   3.428
39501W        W 5932   5.609  42.091  13.910
39502W        W 5933   1.485   5.363   3.704
39503W        W 5934   9.389  11.249  13.082
39504W        W 5935  10.322  28.512   2.324
39505W        W 5936  42.972   2.762   0.249
39506W        W 5937  22.915  19.368  13.516
39507W        W 5938  37.220  39.004  12.424
39508W        W 5939  42.757  10.826  14.400
39509W        W 5940   1.158  29.121   1.866
39510W        W 5941  19.653  11.706   2.131
39511W        W 5942  22.261  42.856   1.733
39512W        W 5943  13.102   0.803   0.373
39513W        W 5944  25.136  26.970  13.857
39514W        W 5945  22.224  44.989  14.661
39515W        W 5946  27.091  10.697   0.663
39516W        W 5947  24.500  39.591  11.083
39517W        W 5948  34.092  39.983  10.755
39518W        W 5949  29.706   4.336   1.709
39519W        W 5950  27.944  42.459  10.978
39520W        W 5951  42.009  22.595  13.938
39521W        W 5952   6.165  31.941   1.023
39522W        W 5953  21.976  26.181  10.855
39523W        W 5954  39.943   6.221   0.044
39524W        W 5955  23.717   6.848  13.449
39525W        W 5956  33.454   6.719   0.332
39526W        W 5957  36.498   9.754   3.848
39527W        W 5958  13.826   5.456  12.028
39528W        W 5959   2.350  16.762  14.847
39529W        W 5960  39.301  32.554  14.769
39530W        W 5961  35.379  25.321   3.351
39531W        W 5962  26.823  35.060   3.763
39532W        W 5963  19.499  24.947  14.891
39533W        W 5964  25.621  24.952   4.168
39534W        W 5965  30.670  22.258   0.847
39535W        W 5966  41.763  44.388   1.206
39536W        W 5967  16.659  17.175   1.958
39537W        W 5968  37.717  42.290  14.812
39538W        W 5969  22.138  32.441   2.414
39539W        W 5970  24.798  24.021  10.762
39540W        W 5971  19.266  18.803   1.785
39541W        W 5972  14.863  10.401  13.011
39542W        W 5973  39.343  21.224  12.533
39543W        W 5974  27.947  35.778  12.630
39544W        W 5975  33.679  10.717   1.157
39545W        W 5976  43.437  36.583  14.289
39546W        W 5977  39.038   9.256   1.430
39547W        W 5978  36.161  21.225  13.901
39548W        W 5979  26.466  28.986   5.012
39549W        W 5980   0.039   4.971   4.727
39550W        W 5981  44.777  24.933   1.269
39551W        W 5982  44.080   4.735   1.896
39552W        W 5983  21.561   6.683  10.326
39553W        W 5984  19.267  19.775   1.786
39554W        W 5985  24.086  17.608  12.812
39555W        W 5986  38.052  38.707   2.790
39556W        W 5987  30.961  28.312   0.962
39557W        W 5988  32.091  40.373  14.294
39558W        W 5989  38.463   2.775  10.629
39559W        W 5990  35.928  41.010   4.579
39560W        W 5991  30.969  11.146  13.845
39561W        W 5992  19.728  38.831  12.888
39562W        W 5993   5.232  36.320   0.332
39563W        W 5994  38.288  34.040   0.781
39564W        W 5995   5.225  20.367   3.113
39565W        W 5996  26.045   6.396   4.264
39566W        W 5997  16.551  35.844   4.800
39567W        W 5998   5.917  42.054   4.527
39568W        W 5999  24.252  10.362  11.941
39569W        W 6000  32.701  31.973   0.333
39570W        W 6001  32.470  38.913  12.715
39571W        W 6002  33.854   2.086  12.983
39572W        W 6003   1.840  17.032  13.021
39573W        W 6004  16.833  39.346  13.954
39574W        W 6005  13.670  22.738  10.642
39575W        W 6006  39.290   7.176  14.827
39576W        W 6007  21.101  10.324   4.439
39577W        W 6008   7.836  33.528  11.160
39578W        W 6009  23.820   2.967   0.620
39579W        W 6010  30.173  36.867  13.397
39580W        W 6011  27.441  38.645  10.052
39581W        W 6012  16.058  29.238  11.039
39582W        W 6013  14.825   9.311   1.463
39583W        W 6014  21.617   8.461   1.131
39584W        W 6015  13.351   0.919  12.589
39585W        W 6016  43.996   9.158   3.359
39586W        W 6017  18.053  22.493  12.029
39587W        W 6018  16.585   2.084   0.732
39588W        W 6019  27.874  32.582  12.042
39589W        W 6020  12.625  22.537  13.452
39590W        W 6021  36.611  17.463   0.436
39591W        W 6022  32.999  29.656   3.338
39592W        W 6023  24.183  42.526  12.539
39593W        W 6024  25.868  29.329   2.761
39594W        W 6025   1.530  18.588   1.192
39595W        W 6026   9.895  39.455   0.018
39596W        W 6027  15.694  22.721   1.441
39597W        W 6028   3.893  27.594   1.940
39598W        W 6029  32.626   2.887   4.154
39599W        W 6030   1.512  21.184   1.830
39600W        W 6031  28.643  10.840   2.160
39601W        W 6032  17.432  44.456   4.990
39602W        W 6033  38.064  17.930   2.197
39603W        W 6034  18.077  18.694  12.649
39604W        W 6035  24.169  14.603  13.850
39605W        W 6036  11.827  30.713   0.891
39606W        W 6037   1.751  12.310  11.905
39607W        W 6038  42.430  12.936   1.784
39608W        W 6039  23.047   8.431   3.293
39609W        W 6040  29.080  35.394  14.485
39610W        W 6041   8.120  22.961  11.045
39611W        W 6042  32.853  10.651   2.708
39612W        W 6043  38.459  32.906   0.225
39613W        W 6044   4.279  35.535   3.118
39614W        W 6045  26.563  41.213  11.584
39615W        W 6046  35.046   8.184  14.365
39616W        W 6047  24.087  38.799  11.187
39617W        W 6048   6.365   3.947   1.788
39618W        W 6049  23.094   8.247  13.933
39619W        W 6050  35.653  30.321   3.149
39620W        W 6051   2.888  27.586   4.788
39621W        W 6052   4.807  21.553  13.848
39622W        W 6053  17.144  35.636   2.630
39623W        W 6054  13.621  37.958  11.635
39624W        W 6055  42.483  30.897  13.812
39625W        W 6056  30.960  11.742  10.078
39626W        W 6057  19.701   5.661   3.111
39627W        W 6058  11.149  32.922   3.270
39628W        W 6059  43.363  44.672  12.214
39629W        W 6060  12.049  31.446  13.554
39630W        W 6061  40.371  38.894   2.289
39631W        W 6062  17.262   7.150   0.918
39632W        W 6063   8.346  31.498   1.497
39633W        W 6064  34.132  16.666  12.181
39634W        W 6065  20.947  38.907  14.970
39635W        W 6066  24.772   7.347   4.524
39636W        W 6067  23.311   5.908   4.273
39637W        W 6068  35.004  11.338   0.218
39638W        W 6069  24.985  35.022   4.526
39639W        W 6070   9.261  24.469   3.268
39640W        W 6071  15.045  33.571   3.646
39641W        W 6072   1.425  33.100  14.891
39642W        W 6073  41.564  17.378  11.890
39643W        W 6074  11.559  27.107   2.741
39644W        W 6075  11.376  35.310   4.765
39645W        W 6076  31.925  44.698  12.408
39646W        W 6077  22.704  44.906  14.254
39647W        W 6078  29.668   1.400   4.199
39648W        W 6079   2.072   3.799   1.695
39649W        W 6080  26.491  38.958   4.629
39650W        W 6081  19.267  43.496   1.249
39651W        W 6082  27.512  34.891   0.317
39652W        W 6083   6.475  18.205  14.852
39653W        W 6084  37.529  26.146  10.627
39654W        W 6085  14.895  32.747  10.930
39655W        W 6086  15.703  24.410   2.183
39656W        W 6087  30.093  35.433  10.666
39657W        W 6088  32.608  41.904   0.663
39658W        W 6089  37.127  32.447  12.129
39659W        W 6090  35.593   8.660   1.426
39660W        W 6091  27.997  12.396   4.296
39661W        W 6092  37.862  41.457  11.053
39662W        W 6093  39.850  18.269   1.963
39663W        W 6094  39.944   8.045  12.086
39664W        W 6095  25.801  15.809  10.297
39665W        W 6096  43.077  38.300  13.363
39666W        W 6097  25.507  17.762   4.659
39667W        W 6098   5.725  25.535   1.300
39668W        W 6099  13.622  42.926   1.845
39669W        W 6100   5.320   5.128   0.135
39670W        W 6101  40.467   0.514   0.412
39671W        W 6102  24.555   4.853   2.708
39672W        W 6103  20.339  27.464  11.461
39673W        W 6104  23.655  30.299   2.173
39674W        W 6105  25.186  43.556  10.740
39675W        W 6106   7.803  28.671   4.066
39676W        W 6107  42.802  23.653   3.766
39677W        W 6108  20.760  21.073   1.442
39678W        W 6109  34.705  31.459  11.557
39679W        W 6110  34.510  31.537   2.708
39680W        W 6111  31.128  12.893  14.200
39681W        W 6112  32.135  32.618  10.646
39682W        W 6113  23.650  43.036   0.266
39683W        W 6114  33.842  40.874   4.493
39684W        W 6115  43.855  18.809  11.547
39685W        W 6116  42.519   7.870  14.748
39686W        W 6117   1.521  36.886   4.377
39687W        W 6118  17.848   6.441  10.344
39688W        W 6119   5.644  17.523   1.268
39689W        W 6120   3.440  30.133   0.464
39690W        W 6121   9.561  34.793   3.638
39691W        W 6122  11.155   1.679   0.795
39692W        W 6123   6.441   4.673   3.642
39693W        W 6124  22.682  16.152   1.181
39694W        W 6125  25.571  21.989   2.387
39695W        W 6126  17.655  37.575   3.292
39696W        W 6127   6.807   9.937   1.822
39697W        W 6128   4.659  38.928  11.972
39698W        W 6129  28.339  11.802   0.555
39699W        W 6130   1.403  32.918   2.967
39700W        W 6131  19.003  14.407   3.142
39701W        W 6132  17.096  37.580   0.784
39702W        W 6133  38.594   8.133   3.149
39703W        W 6134  25.230  30.085   0.319
39704W        W 6135  18.805  18.727  12.141
39705W        W 6136   8.479  22.750  12.824
39706W        W 6137  14.434   5.382  11.131
39707W        W 6138   1.264  25.930  13.874
39708W        W 6139  29.704  34.817  14.065
39709W        W 6140  22.766  15.312   0.819
39710W        W 6141  14.654  32.426  11.250
39711W        W 6142  15.022  32.037   2.849
39712W        W 6143  22.760  26.897   3.332
39713W        W 6144  21.698  43.862  10.828
39714W        W 6145  38.863  24.091  11.063
39715W        W 6146   2.513  18.547   1.275
39716W        W 6147  32.177   1.243   1.193
39717W        W 6148  14.883   3.553  12.467
39718W        W 6149  32.616  11.793   0.192
39719W        W 6150   3.356  13.227  10.634
39720W        W 6151   2.828  44.656   1.826
39721W        W 6152  15.201  34.939  10.713
39722W        W 6153  43.204  10.798  12.954
39723W        W 6154  25.034   9.086  14.011
39724W        W 6155  36.016  30.626  13.943
39725W        W 6156  39.021  21.178   1.533
39726W        W 6157   6.146  39.397   3.170
39727W        W 6158   5.183  43.187   3.294
39728W        W 6159  37.928  29.856  12.408
39729W        W 6160   8.575  35.986   4.190
39730W        W 6161  39.930  24.585  14.509
39731W        W 6162  20.187   4.848   9.583
39732W        W 6163  11.201   8.868   0.639
39733W        W 6164  23.919  10.046  11.119
39734W        W 6165  21.598  27.203   4.412
39735W        W 6166  29.518  27.924   9.931
39736W        W 6167  36.912  23.121   0.610
39737W        W 6168  26.455  33.078   3.389
39738W        W 6169  15.728   9.215  10.409
39739W        W 6170  34.494  21.928   0.787
39740W        W 6171  12.241  41.849   1.373
39741W        W 6172  27.163  34.118  11.172
39742W        W 6173  27.138  29.595   4.045
39743W        W 6174  10.295  13.609  14.751
39744W        W 6175  41.670  25.832   0.996
39745W        W 6176  19.610   1.257   4.673
39746W        W 6177  31.484  10.060   3.796
39747W        W 6178   7.395  43.474  11.813
39748W        W 6179  28.020   2.745  14.482
39749W        W 6180  26.494  26.870   5.223
39750W        W 6181  32.484  32.925   3.207
39751W        W 6182  31.057  40.106  13.760
39752W        W 6183   1.444  18.743  12.041
39753W        W 6184  10.635   8.104   1.540
39754W        W 6185  30.844  14.136  13.885
39755W        W 6186  10.603  27.920  13.924
39756W        W 6187  35.623  12.403  14.307
39757W        W 6188   7.676  16.294   1.329
39758W        W 6189  15.584  22.113   0.232
39759W        W 6190  24.100  34.239   1.471
39760W        W 6191  13.218  43.475  11.994
39761W        W 6192   0.796  27.173  14.082
39762W        W 6193  27.448  17.436   2.409
39763W        W 6194   3.225  22.449  14.828
39764W        W 6195  29.970  15.065   3.919
39765W        W 6196   4.699  29.109   2.321
39766W        W 6197  44.717  10.249   4.244
39767W        W 6198  34.963  20.083   4.237
39768W        W 6199  43.777  33.567   3.416
39769W        W 6200  31.950   9.845  10.748
39770W        W 6201  11.287  31.232  11.457
39771W        W 6202  41.127  32.170  13.066
39772W        W 6203  31.086  19.265   1.882
39773W        W 6204  23.218  17.639  12.889
39774W        W 6205  14.577  36.351   2.836
39775W        W 6206   8.391   1.950  12.062
39776W        W 6207  23.004   0.249   2.671
39777W        W 6208   1.796  20.567   3.865
39778W        W 6209  41.032  17.153   4.308
39779W        W 6210  34.034  43.975   2.937
39780W        W 6211   2.283   4.084  11.922
39781W        W 6212  10.954  24.645  14.410
39782W        W 6213  34.289  28.546   3.900
39783W        W 6214   5.139  13.933  11.948
39784W        W 6215  20.074  35.187  11.030
39785W        W 6216  27.920   6.435  14.925
39786W        W 6217  44.959   7.332  13.867
39787W        W 6218  35.086  25.132  12.920
39788W        W 6219  41.562  14.206   4.592
39789W        W 6220  30.013  13.637   0.264
39790W        W 6221   9.812  24.956   4.460
39791W        W 6222  41.821  33.274  14.862
39792W        W 6223   5.010  27.367   2.524
39793W        W 6224  10.153   1.933   0.468
39794W        W 6225  18.125  39.665  10.529
39795W        W 6226  27.556   5.494  13.501
39796W        W 6227  18.467   3.815  13.049
39797W        W 6228  10.727  16.208   4.523
39798W        W 6229  26.571  34.579  11.811
39799W        W 6230   6.996  38.534  12.404
39800W        W 6231   3.547  38.004   0.684
39801W        W 6232  14.241  13.343  11.855
39802W        W 6233  35.270  36.373  10.682
39803W        W 6234  44.309  43.652   3.137
39804W        W 6235  21.103  36.160  12.966
39805W        W 6236  33.004   7.966   3.260
39806W        W 6237  29.644  21.636   1.850
39807W        W 6238  17.086  37.299  10.931
39808W        W 6239   2.370  34.194   2.267
39809W        W 6240  40.827  24.564  12.176
39810W        W 6241   6.640  18.663  14.641
39811W        W 6242  39.345  30.817  11.894
39812W        W 6243  13.239  22.273  12.455
39813W        W 6244   5.636  31.496   2.666
39814W        W 6245  17.324  42.990  10.526
39815W        W 6246  40.559  37.858   0.697
39816W        W 6247  36.819  29.130  11.203
39817W        W 6248  18.333  30.114  10.597
39818W        W 6249  16.023  18.544   0.347
39819W        W 6250  36.766   5.663   2.906
39820W        W 6251  13.413  30.239   1.401
39821W        W 6252  15.683  32.606  10.447
39822W        W 6253  26.577  32.907   3.878
39823W        W 6254  22.135  37.893  13.414
39824W        W 6255  30.772  23.429   4.875
39825W        W 6256  24.823  23.965   4.622
39826W        W 6257   8.417  24.396  11.096
39827W        W 6258  38.439  28.618   1.926
39828W        W 6259  38.288  34.476   2.841
39829W        W 6260   5.346  19.005   2.811
39830W        W 6261  16.280  34.135  13.876
39831W        W 6262  17.818  10.714   4.919
39832W        W 6263  18.144  32.580  10.994
39833W        W 6264  38.821   6.443   2.256
39834W        W 6265  28.904  12.210  11.703
39835W        W 6266  22.087  11.171   2.493
39836W        W 6267  41.885  20.282   1.288
39837W        W 6268  42.650  44.520   3.754
39838W        W 6269   6.601  43.877  11.613
39839W        W 6270  19.187   5.926   1.278
39840W        W 6271  41.427  13.909  13.298
39841W        W 6272  28.462  33.935  13.918
39842W        W 6273  25.008  18.830   1.081
39843W        W 6274  37.531  14.814  12.837
39844W        W 6275   6.828  35.418  11.548
39845W        W 6276   3.573  17.775   2.045
39846W        W 6277  32.157   0.483  11.175
39847W        W 6278   5.746  14.355  12.622
39848W        W 6279  10.450  17.663  10.754
39849W        W 6280  21.505  37.481  13.966
39850W        W 6281  20.183  43.219  14.386
39851W        W 6282  20.627  13.036  11.639
39852W        W 6283  44.427  25.196  13.892
39853W        W 6284  44.494  25.610  10.422
39854W        W 6285  42.639  25.697  10.818
39855W        W 6286  10.584  19.217   0.751
39856W        W 6287  10.449  10.377  13.546
39857W        W 6288  39.990   2.577   0.017
39858W        W 6289   8.187  34.112  12.009
39859W        W 6290  24.971  25.986  12.079
39860W        W 6291  17.539  40.078   1.759
39861W        W 6292  43.539  41.433   1.740
39862W        W 6293  26.427  23.942  11.963
39863W        W 6294   5.826   7.710  10.891
39864W        W 6295  34.393  41.075  14.865
39865W        W 6296  41.437   3.928   1.206
39866W        W 6297  15.626  17.201  12.096
39867W        W 6298  35.633  18.028  12.173
39868W        W 6299  10.176  25.566   3.282
39869W        W 6300  25.020  17.099  14.228
39870W        W 6301  13.047  40.970  11.958
39871W        W 6302  15.871   2.740  11.150
39872W        W 6303  38.588  33.932  10.654
39873W        W 6304   6.403   7.230  14.149
39874W        W 6305   2.677   6.618   4.136
39875W        W 6306  17.770  32.413  14.315
39876W        W 6307   3.338  34.403   1.534
39877W        W 6308  39.344  10.114  14.971
39878W        W 6309  22.888   5.891  13.249
39879W        W 6310  10.314  33.269  10.721
39880W        W 6311  44.969  30.191   4.228
39881W        W 6312  26.865  34.294   0.513
39882W        W 6313  22.494  34.490  12.724
39883W        W 6314  20.290  28.121   2.983
39884W        W 6315  33.450  21.506  11.068
39885W        W 6316  30.877  18.806  14.363
39886W        W 6317  27.094  28.968   0.555
39887W        W 6318  19.748  20.252  12.625
39888W        W 6319  21.002  30.995   2.266
39889W        W 6320   3.525  34.638   0.085
39890W        W 6321  13.345  11.668   4.508
39891W        W 6322  24.088  30.523   2.846
39892W        W 6323  34.308   2.461   3.707
39893W        W 6324   8.775  21.993  12.917
39894W        W 6325   1.928  43.695  10.706
39895W        W 6326  26.340  19.047   2.763
39896W        W 6327  33.353  40.337  13.836
39897W        W 6328  13.171  16.325  11.572
39898W        W 6329  18.543  11.075  10.534
39899W        W 6330  33.290  17.608  13.867
39900W        W 6331  10.692  20.322   1.237
39901W        W 6332  14.216  15.227  10.010
39902W        W 6333  28.094  27.503   3.520
39903W        W 6334   3.676   8.233   3.788
39904W        W 6335  39.648   6.751   0.652
39905W        W 6336   1.288  26.728  12.587
39906W        W 6337  18.605  10.582  10.548
39907W        W 6338  28.206  32.604  12.926
39908W        W 6339  19.278  13.629  13.768
39909W        W 6340  20.816  18.219   4.233
39910W        W 6341  39.914   1.382   1.202
39911W        W 6342  28.449  40.018  11.871
39912W        W 6343  18.216   0.541   1.296
39913W        W 6344  23.007  19.712   2.739
39914W        W 6345   6.056  33.836   4.171
39915W        W 6346  25.114   2.262  12.422
39916W        W 6347  32.111   9.858   3.393
39917W        W 6348  39.743  32.757  12.854
39918W        W 6349  11.213  13.901  14.377
39919W        W 6350  19.618  19.191  12.661
39920W        W 6351  31.871  15.898   5.084
39921W        W 6352  30.006  11.681   2.261
39922W        W 6353   8.632  20.639   2.343
39923W        W 6354   4.690  11.658  13.863
39924W        W 6355   0.934  14.375  12.057
39925W        W 6356  10.121   1.667   4.783
39926W        W 6357   7.989  15.195   2.745
39927W        W 6358  23.967  23.264   0.375
39928W        W 6359  22.695  23.700  13.268
39929W        W 6360  23.651  22.848   2.755
39930W        W 6361   8.161  36.352   0.595
39931W        W 6362  14.826   6.334   2.946
39932W        W 6363  28.025  12.078   3.297
39933W        W 6364  22.559  24.754  14.656
39934W        W 6365  38.867  24.210   2.763
39935W        W 6366  34.851   1.053  14.228
39936W        W 6367  15.141  39.280   1.958
39937W        W 6368  19.188  42.745  12.440
39938W        W 6369  31.857  28.834   0.788
39939W        W 6370  28.340  39.470  13.021
39940W        W 6371  23.410  37.137   1.534
39941W        W 6372   1.697  39.620   2.758
39942W        W 6373  41.941   9.839  12.800
39943W        W 6374  15.325  34.649   0.527
39944W        W 6375  11.266  23.957   4.495
39945W        W 6376  18.673  42.829  13.803
39946W        W 6377  30.823  44.208  13.878
39947W        W 6378   6.333  15.536  13.831
39948W        W 6379  37.107  12.749   2.633
39949W        W 6380  41.964   0.830   2.712
39950W        W 6381  24.109  29.941   0.045
39951W        W 6382   4.748  27.185  12.973
39952W        W 6383  27.840  39.542   3.471
39953W        W 6384  27.576   2.142  11.252
39954W        W 6385  13.228  43.271   1.870
39955W        W 6386  28.451  26.989  13.948
39956W        W 6387  13.378  23.159  11.064
39957W        W 6388  41.961  10.592  13.886
39958W        W 6389  32.942  21.065   3.760
39959W        W 6390  40.168  28.039  12.592
39960W        W 6391  32.681   6.836  12.946
39961W        W 6392   1.344  12.237  13.409
39962W        W 6393  22.897  24.803   3.057
39963W        W 6394   2.276  34.041  10.510
39964W        W 6395  19.962  14.655  12.186
39965W        W 6396  29.127  21.079   0.455
39966W        W 6397  12.354   7.811   1.226
39967W        W 6398  37.452  35.657   1.780
39968W        W 6399  39.072  39.031   1.283
39969W        W 6400  39.331  20.161  14.412
39970W        W 6401  38.704  29.948   3.610
39971W        W 6402  10.176  29.964   2.399
39972W        W 6403  31.115  12.210  13.372
39973W        W 6404  38.517  13.299  11.167
39974W        W 6405  31.573  19.248  14.870
39975W        W 6406   7.132  28.887  13.582
39976W        W 6407  11.419  26.412   2.770
39977W        W 6408  21.142  24.658  11.472
39978W        W 6409  23.599  20.586   0.888
39979W        W 6410  31.449  36.015  14.028
39980W        W 6411   7.704   9.897  13.450
39981W        W 6412  38.578  39.332  12.868
39982W        W 6413  15.211  41.259  11.594
39983W        W 6414   5.327   7.100   5.045
39984W        W 6415  39.102  19.267  12.053
39985W        W 6416  27.227  37.799  12.481
39986W        W 6417  31.036   2.529  13.851
39987W        W 6418  41.974  21.732  10.661
39988W        W 6419  42.785   4.288   3.720
39989W        W 6420   4.997  20.413  11.164
39990W        W 6421   1.258  13.884  13.054
39991W        W 6422  35.807  39.609  13.147
39992W        W 6423  31.417  24.130  13.412
39993W        W 6424   5.518  10.093   0.372
39994W        W 6425   6.870  39.248  12.895
39995W        W 6426   2.802   7.960  10.737
39996W        W 6427  40.450  17.306  11.198
39997W        W 6428  25.998  17.656   4.821
39998W        W 6429  24.175  22.795  10.089
39999W        W 6430   8.349   9.437  11.177
40000W        W 6431  38.968  17.386   3.287
40001W        W 6432  35.647   8.754   0.501
40002W        W 6433  18.412   0.058   0.381
40003W        W 6434  23.764  32.042  13.543
40004W        W 6435  30.507   7.768  14.912
40005W        W 6436  36.157  28.203   5.075
40006W        W 6437  24.733  21.062  12.937
40007W        W 6438  20.745  44.444   3.630
40008W        W 6439   1.479   6.805  10.743
40009W        W 6440  28.047   2.926   2.825
40010W        W 6441  36.913   4.607  13.890
40011W        W 6442  27.114  29.336   2.269
40012W        W 6443  35.273  20.575  12.133
40013W        W 6444  35.816  41.003   1.636
40014W        W 6445  14.068   2.838   3.723
40015W        W 6446   3.837  18.043   1.376
40016W        W 6447  36.026   4.296  12.281
40017W        W 6448   2.282  39.870   3.595
40018W        W 6449   5.996  21.929   4.230
40019W        W 6450  40.285   0.904   2.907
40020W        W 6451  17.064   1.552  13.880
40021W        W 6452  39.693  34.505  12.830
40022W        W 6453  27.648  35.879   4.503
40023W        W 6454  11.094  25.173  14.538
40024W        W 6455  17.943  11.418  14.398
40025W        W 6456  23.561   8.256   0.708
40026W        W 6457   7.764  23.500   4.592
40027W        W 6458  34.905   2.334   4.684
40028W        W 6459  34.296  41.116  11.741
40029W        W 6460  40.413  18.483   3.777
40030W        W 6461   6.232  40.834  12.369
40031W        W 6462  36.676  32.883  10.921
40032W        W 6463  11.140  26.559  13.935
40033W        W 6464  12.209  40.722  14.502
40034W        W 6465  22.715   5.976   9.971
40035W        W 6466   7.818   0.001   3.033
40036W        W 6467  36.651  13.594   2.746
40037W        W 6468  21.254  26.248   1.297
40038W        W 6469  43.497  14.269  11.083
40039W        W 6470  13.508  23.839  12.005
40040W        W 6471  20.554  34.328  13.909
40041W        W 6472  34.450   1.468   3.748
40042W        W 6473  18.358  15.726   5.360
40043W        W 6474  22.577   2.121  11.097
40044W        W 6475  32.634  19.790   5.087
40045W        W 6476   0.242  27.882   3.216
40046W        W 6477  39.881  15.008  12.579
40047W        W 6478  36.560  19.607  12.902
40048W        W 6479  11.398  25.540   0.320
40049W        W 6480  21.198   8.159   1.041
40050W        W 6481  20.186  35.854  12.074
40051W        W 6482  26.678   4.505  10.387
40052W        W 6483  31.452  29.191  14.971
40053W        W 6484  36.736  22.539   3.615
40054W        W 6485  24.460  22.563   3.082
40055W        W 6486  29.564  18.936   0.035
40056W        W 6487  19.707  23.539   4.581
40057W        W 6488   5.162   1.465   3.920
40058W        W 6489  18.205  22.062   2.608
40059W        W 6490  12.090  14.719   3.094
40060W        W 6491  37.894  36.939  13.530
40061W        W 6492  28.683  22.064   1.243
40062W        W 6493  40.831  32.139   1.779
40063W        W 6494   0.744  19.507   1.304
40064W        W 6495  19.166  44.311   4.775
40065W        W 6496  18.129  44.218   3.718
40066W        W 6497  23.000  35.730   0.866
40067W        W 6498  18.907  32.829  10.638
40068W        W 6499  21.141  24.510  13.552
40069W        W 6500   3.676   4.927  14.511
40070W        W 6501   0.108  27.984   2.343
40071W        W 6502  26.668  16.013  10.716
40072W        W 6503  35.664  36.845   4.459
40073W        W 6504  40.782  12.900   1.282
40074W        W 6505  29.661   2.221  13.821
40075W        W 6506   6.917  31.870  14.995
40076W        W 6507  28.503  30.542  12.091
40077W        W 6508  34.071   1.083   3.761
40078W        W 6509  37.449  39.922   0.991
40079W        W 6510   3.577   0.773  14.799
40080W        W 6511  33.571  36.459  11.166
40081W        W 6512  26.986  16.189   2.568
40082W        W 6513  13.038   0.523  13.316
40083W        W 6514  24.519  38.976   4.781
40084W        W 6515  30.145  16.296  12.044
40085W        W 6516  42.521   3.959   0.632
40086W        W 6517  31.988  30.977  11.324
40087W        W 6518  29.858  42.026   1.894
40088W        W 6519  10.226  23.873   4.936
40089W        W 6520   5.890  30.609   1.280
40090W        W 6521   7.666  10.822   4.868
40091W        W 6522  34.868  39.337   4.881
40092W        W 6523  25.050  44.631   2.509
40093W        W 6524  17.661  14.894   4.603
40094W        W 6525  25.128  17.076   3.314
40095W        W 6526  21.567  36.760   4.145
40096W        W 6527  10.931   2.558   1.774
40097W        W 6528  28.117  38.383   3.698
40098W        W 6529  23.436  20.366   4.938
40099W        W 6530   6.278  26.689  11.265
40100W        W 6531   5.735   8.815   3.289
40101W        W 6532  23.164  11.168  11.670
40102W        W 6533  27.620  32.626  11.055
40103W        W 6534  19.042   7.653   2.325
40104W        W 6535   1.959   3.811  12.198
40105W        W 6536  36.933  33.331   5.135
40106W        W 6537  31.096  14.083  13.429
40107W        W 6538   4.445  25.935  13.461
40108W        W 6539  28.573  12.086  12.084
40109W        W 6540  26.223  25.864   0.459
40110W        W 6541  42.705   6.225  10.782
40111W        W 6542  32.543  27.753  10.570
40112W        W 6543  19.280   5.734  12.339
40113W        W 6544  21.502  40.534   3.519
40114W        W 6545  25.124  44.007   0.367
40115W        W 6546  14.939  35.326   1.801
40116W        W 6547  23.179  26.396  12.961
40117W        W 6548  11.249  18.204   4.158
40118W        W 6549  34.606  18.271   2.294
40119W        W 6550  22.958  10.926   2.181
40120W        W 6551  10.935  29.387   2.406
40121W        W 6552  22.594   7.827   4.223
40122W        W 6553  19.060  43.229  12.215
40123W        W 6554  10.340  12.226   3.534
40124W        W 6555  12.762  11.407   2.647
40125W        W 6556  12.336  41.691  14.775
40126W        W 6557  26.109  18.665   0.038
40127W        W 6558  17.688  22.896  14.056
40128W        W 6559  14.095   7.208   0.618
40129W        W 6560  39.437  35.551  10.594
40130W        W 6561  29.132  12.637   1.854
40131W        W 6562   5.896  19.511  11.644
40132W        W 6563  22.094  29.510  10.872
40133W        W 6564   3.485  34.150  14.744
40134W        W 6565  33.459  13.754   0.223
40135W        W 6566  10.659   9.968  12.452
40136W        W 6567  36.413  10.371  10.219
40137W        W 6568  35.615  23.666  12.020
40138W        W 6569  14.679  28.569  11.983
40139W        W 6570   5.939  18.837   3.214
40140W        W 6571  15.858  31.572  12.885
40141W        W 6572  23.088  22.411   3.205
40142W        W 6573  16.592  27.258   1.714
40143W        W 6574  41.894   4.321   2.345
40144W        W 6575  19.130  32.370  10.727
40145W        W 6576   6.227  39.354  12.729
40146W        W 6577  43.009   5.180  10.763
40147W        W 6578  12.389  43.809   1.275
40148W        W 6579  32.223   3.346   9.956
40149W        W 6580  33.923  17.609   2.280
40150W        W 6581  19.000  10.643  14.424
40151W        W 6582   7.834  15.643   3.045
40152W        W 6583  26.054  17.306   3.316
40153W        W 6584  27.885  11.433  11.621
40154W        W 6585  32.054  31.402  14.170
40155W        W 6586   9.279  26.554  13.900
40156W        W 6587  21.069  17.878  12.466
40157W        W 6588  23.717  40.406   0.012
40158W        W 6589   0.548  29.647   2.673
40159W        W 6590  41.763   8.329   4.714
40160W        W 6591   6.310  38.399   1.325
40161W        W 6592  21.095   9.768   2.180
40162W        W 6593   1.041  26.259   0.345
40163W        W 6594  27.459  33.903  12.533
40164W        W 6595  40.055  22.098  11.580
40165W        W 6596  24.479   7.328   4.098
40166W        W 6597  40.865  13.576  13.899
40167W        W 6598  19.788   7.338   1.901
40168W        W 6599  23.316  44.919   3.133
40169W        W 6600  16.853  21.827  12.305
40170W        W 6601  42.301  19.969   4.329
40171W        W 6602   6.492  17.271  14.978
40172W        W 6603  16.510   7.175   2.794
40173W        W 6604  12.869  37.391   3.821
40174W        W 6605  33.395  40.818  10.733
40175W        W 6606  10.878  11.002   4.199
40176W        W 6607   0.340  30.777   0.557
40177W        W 6608   5.125   8.181   1.617
40178W        W 6609  18.419   8.234  12.918
40179W        W 6610  36.648  25.206  12.978
40180W        W 6611  23.107  12.224   4.462
40181W        W 6612  13.493  37.930   1.717
40182W        W 6613  24.723  15.883  11.038
40183W        W 6614  36.133   6.905  14.625
40184W        W 6615  24.038  38.973  13.362
40185W        W 6616  30.425  39.234  12.339
40186W        W 6617   3.008   3.249   0.270
40187W        W 6618  36.775  36.555  11.653
40188W        W 6619  37.443  27.460   1.851
40189W        W 6620  35.409  26.205   3.606
40190W        W 6621  30.540  17.686   0.286
40191W        W 6622  32.663   4.819  14.016
40192W        W 6623  30.590  19.047  11.470
40193W        W 6624  25.437   7.723   0.895
40194W        W 6625  17.494   9.179   2.286
40195W        W 6626  40.650  13.914   4.738
40196W        W 6627  40.460  21.335   3.340
40197W        W 6628   1.977   6.281  13.389
40198W        W 6629  14.443  35.172   2.291
40199W        W 6630  35.180  38.666   0.986
40200W        W 6631  10.420  27.243   1.419
40201W        W 6632  27.035  21.732  11.979
40202W        W 6633  44.693  19.977  12.420
40203W        W 6634  27.737  20.917  10.680
40204W        W 6635  31.485  23.201  11.559
40205W        W 6636  37.533  41.440  13.602
40206W        W 6637  25.905  13.734   4.184
40207W        W 6638   8.229  43.072  11.155
40208W        W 6639  15.554  25.774  12.580
40209W        W 6640   4.362  41.754   4.206
40210W        W 6641  35.603   2.497  11.612
40211W        W 6642  20.612  24.686   1.487
40212W        W 6643  34.809   2.695  13.871
40213W        W 6644   0.598  20.904   0.763
40214W        W 6645  14.407  42.352  12.129
40215W        W 6646  15.347  20.543  12.424
40216W        W 6647  26.500  42.997  13.038
40217W        W 6648  22.062   3.238   2.326
40218W        W 6649  10.396  32.792   0.345
40219W        W 6650  31.967  30.359  14.328
40220W        W 6651  23.326  33.677   2.359
40221W        W 6652  41.362  43.427   4.153
40222W        W 6653  43.790  17.533   1.341
40223W        W 6654  15.683  38.483  10.275
40224W        W 6655  33.513   1.942  14.334
40225W        W 6656  36.647   8.006   4.195
40226W        W 6657   3.961  23.511  12.538
40227W        W 6658   8.440  16.028  12.838
40228W        W 6659  38.541  42.344   2.831
40229W        W 6660  35.453  27.562   2.326
40230W        W 6661  21.559  41.070  11.524
40231W        W 6662  19.584  38.431   1.351
40232W        W 6663  31.010  36.870  13.120
40233W        W 6664  37.843   3.357  14.116
40234W        W 6665  26.754  43.270   0.947
40235W        W 6666  32.204   2.779   2.246
40236W        W 6667  21.207  29.689  12.646
40237W        W 6668   0.068  43.962  13.298
40238W        W 6669  12.851  14.103   0.134
40239W        W 6670  12.287  30.579  12.987
40240W        W 6671  16.732  16.804  13.820
40241W        W 6672  32.099  38.348  11.722
40242W        W 6673  29.733   7.157   3.196
40243W        W 6674  24.915  42.532  11.647
40244W        W 6675  27.533  36.526   3.650
40245W        W 6676  43.476  10.593   4.012
40246W        W 6677  28.504  25.561  12.206
40247W        W 6678  33.055  15.086  13.497
40248W        W 6679   6.601   3.406   3.236
40249W        W 6680  41.105  31.989  13.546
40250W        W 6681  24.698  32.603  11.626
40251W        W 6682   9.735  13.562   2.163
40252W        W 6683  10.733  40.822   1.979
40253W        W 6684  20.216  16.679  11.113
40254W        W 6685  43.968   6.688  14.895
40255W        W 6686  18.602  33.147  13.458
40256W        W 6687  31.869   5.795   0.360
40257W        W 6688  37.878  19.871   2.481
40258W        W 6689  14.691   3.438   1.206
40259W        W 6690   2.922  38.199  14.906
40260W        W 6691  29.952  11.161   2.217
40261W        W 6692  23.021   3.183   0.960
40262W        W 6693  23.456  19.026   3.533
40263W        W 6694  18.192  29.208  14.286
40264W        W 6695  17.057  34.391  10.683
40265W        W 6696  43.336  37.036  13.984
40266W        W 6697  42.844  44.453   2.165
40267W        W 6698  12.483  35.707  12.919
40268W        W 6699  27.432  41.533  10.642
40269W        W 6700  20.647   5.919  14.512
40270W        W 6701  28.894  15.594  12.052
40271W        W 6702  20.662  23.560  11.977
40272W        W 6703  19.223  25.430   1.447
40273W        W 6704  21.321  32.201  12.626
40274W        W 6705  19.719  12.890   0.682
40275W        W 6706  38.469  28.437  10.955
40276W        W 6707  15.713  13.780   4.125
40277W        W 6708  15.890  28.161   4.249
40278W        W 6709   2.224   8.346   0.850
40279W        W 6710  15.609  23.006  13.159
40280W        W 6711  21.711  36.331   2.003
40281W        W 6712  38.619  13.273  14.020
40282W        W 6713  10.249   6.047   1.424
40283W        W 6714  36.141  18.665  14.479
40284W        W 6715  25.928  37.945   3.141
40285W        W 6716  38.490  44.033  14.884
40286W        W 6717  36.316  12.533   2.231
40287W        W 6718  36.624  25.117  11.719
40288W        W 6719  36.098  32.904  14.487
40289W        W 6720  10.784   4.852   1.201
40290W        W 6721  28.715  12.977  13.867
40291W        W 6722  27.602  13.103  11.149
40292W        W 6723  14.373  15.584   4.617
40293W        W 6724  44.712  44.315   1.408
40294W        W 6725   6.066   1.199   3.815
40295W        W 6726   6.368   6.174   1.437
40296W        W 6727  34.336  27.687   1.267
40297W        W 6728  35.891  17.668   4.748
40298W        W 6729   3.854   7.813   4.110
40299W        W 6730  37.923  19.391   4.066
40300W        W 6731  22.095  12.732  13.410
40301W        W 6732   6.039  42.149  14.906
40302W        W 6733  24.626  28.260  14.691
40303W        W 6734  37.070  37.090  12.832
40304W        W 6735  28.023  42.784   0.247
40305W        W 6736  21.757  36.670   1.062
40306W        W 6737   3.265  30.787   4.517
40307W        W 6738  27.226  12.618  14.362
40308W        W 6739   3.446  32.458  10.435
40309W        W 6740  34.062  29.174  11.658
40310W        W 6741  21.294  26.135  10.618
40311W        W 6742   2.261  37.580   0.493
40312W        W 6743  15.373  19.324   0.331
40313W        W 6744  43.370   3.660  11.107
40314W        W 6745  29.546  43.837   3.219
40315W        W 6746  11.074   9.779   1.044
40316W        W 6747  44.923  16.308  14.955
40317W        W 6748  16.404   1.292  14.390
40318W        W 6749   1.878  43.582   3.698
40319W        W 6750  39.841  33.122  10.678
40320W        W 6751   2.390  24.395  12.615
40321W        W 6752  35.111  24.162   0.950
40322W        W 6753   3.485   2.907   4.903
40323W        W 6754  11.519  29.442  10.293
40324W        W 6755  14.749  13.602   1.963
40325W        W 6756   8.912  43.261  12.589
40326W        W 6757  44.833   0.578  10.642
40327W        W 6758  22.058  28.423  14.753
40328W        W 6759  31.319  43.241  12.587
40329W        W 6760  28.478  39.577   3.177
40330W        W 6761  34.598  10.033   3.195
40331W        W 6762  28.354  28.980   3.315
40332W        W 6763  33.940  30.391  10.862
40333W        W 6764  19.101  19.003  14.980
40334W        W 6765  14.273  38.169   0.274
40335W        W 6766  19.515  29.373  13.924
40336W        W 6767  27.662  41.436   2.379
40337W        W 6768   1.083  42.105  11.065
40338W        W 6769  25.975  44.468  14.994
40339W        W 6770  23.047  23.763   1.455
40340W        W 6771  25.557  40.273   9.996
40341W        W 6772   2.072  33.429   3.562
40342W        W 6773  18.476  10.881   2.830
40343W        W 6774  11.657   1.355  11.521
40344W        W 6775   0.964  38.427   0.430
40345W        W 6776  10.906  27.096  14.971
40346W        W 6777  19.946   7.200   0.259
40347W        W 6778   2.789  16.366  11.540
40348W        W 6779  10.791  15.551   1.993
40349W        W 6780  15.877   1.271  14.309
40350W        W 6781   2.972  22.517   4.899
40351W        W 6782  23.507  35.550  11.689
40352W        W 6783  14.736  25.036   0.023
40353W        W 6784  12.227  33.983  10.911
40354W        W 6785  13.906  20.439   1.435
40355W        W 6786   2.890   7.528  13.469
40356W        W 6787   4.251   0.521   1.811
40357W        W 6788  24.339  15.034  14.043
40358W        W 6789  26.663  10.621   1.929
40359W        W 6790  22.854  24.291   1.190
40360W        W 6791  16.613  42.021  12.464
40361W        W 6792   1.729  33.714   3.308
40362W        W 6793  11.797  15.462   2.673
40363W        W 6794  40.904  11.602  11.560
40364W        W 6795   7.154  38.056  13.911
40365W        W 6796   7.087  23.629   0.739
40366W        W 6797  38.306  12.986   2.600
40367W        W 6798  33.981  38.551  12.352
40368W        W 6799  35.857  15.185   4.076
40369W        W 6800  44.750  27.936  14.915
40370W        W 6801  23.244  41.393   2.837
40371W        W 6802   6.718  10.762  14.987
40372W        W 6803   3.317  12.569   2.772
40373W        W 6804  42.470  11.515   0.097
40374W        W 6805  11.408  21.575  10.730
40375W        W 6806  18.621   5.238   1.303
40376W        W 6807  10.616  33.504  11.098
40377W        W 6808  24.709  25.055   2.670
40378W        W 6809  16.598  25.406   2.405
40379W        W 6810  36.339  44.519   3.545
40380W        W 6811  21.171   6.669  10.680
40381W        W 6812  33.672  19.539   0.430
40382W        W 6813  31.313   6.296  12.993
40383W        W 6814   4.019   5.887   4.208
40384W        W 6815   1.288   6.167  12.875
40385W        W 6816  12.946   4.381   4.235
40386W        W 6817  35.349  15.406   2.414
40387W        W 6818   8.084  23.574   0.992
40388W        W 6819  19.203  23.964  13.036
40389W        W 6820   4.342   9.173  12.994
40390W        W 6821  14.988  28.499   0.327
40391W        W 6822  38.306   1.034   1.664
40392W        W 6823  12.750  10.527  12.108
40393W        W 6824   4.653  38.293   1.864
40394W        W 6825  22.593  34.947  12.461
40395W        W 6826  36.465  21.201  10.557
40396W        W 6827  40.438   7.447   4.231
40397W        W 6828  36.524  35.128  10.783
40398W        W 6829   4.979  19.943   3.288
40399W        W 6830  39.469  36.552   0.264
40400W        W 6831   2.870  35.009  12.822
40401W        W 6832  37.583  12.596   2.793
40402W        W 6833  13.601  17.534   2.677
40403W        W 6834  20.601  25.503   0.843
40404W        W 6835   8.287  33.393  12.306
40405W        W 6836  23.005  10.452   0.369
40406W        W 6837  37.474  44.143  13.853
40407W        W 6838   8.271  34.040  13.095
40408W        W 6839  27.173  10.421  11.182
40409W        W 6840   1.142  27.528   3.640
40410W        W 6841   3.436  33.873  14.286
40411W        W 6842  11.209  38.371  14.123
40412W        W 6843  13.266  17.270   4.685
40413W        W 6844  14.141  40.523   4.477
40414W        W 6845  43.429  32.875   4.520
40415W        W 6846  27.361   6.434   3.673
40416W        W 6847  22.250  20.082   9.881
40417W        W 6848  15.630   7.623  13.347
40418W        W 6849  18.065   7.121  14.000
40419W        W 6850   3.969  28.044   3.707
40420W        W 6851  44.813  38.446   4.557
40421W        W 6852  32.654  18.683  10.431
40422W        W 6853  25.147  18.499   1.457
40423W        W 6854  20.748   1.792   3.930
40424W        W 6855  27.527  28.316  12.100
40425W        W 6856  43.903  21.526  13.050
40426W        W 6857   7.651  23.414  10.696
40427W        W 6858   5.020  37.124   5.024
40428W        W 6859   0.439   9.275   0.982
40429W        W 6860  25.121   7.254   3.561
40430W        W 6861  15.183   7.487   4.148
40431W        W 6862  26.576  32.190   3.305
40432W        W 6863  17.575  23.259   1.681
40433W        W 6864  38.775  21.426   3.648
40434W        W 6865  25.559  25.698   1.837
40435W        W 6866  18.254  17.719  14.473
40436W        W 6867  20.671   4.801  11.530
40437W        W 6868  24.771   4.872  14.441
40438W        W 6869   3.219   5.858  11.177
40439W        W 6870   3.317  28.502  14.549
40440W        W 6871   5.387  27.548  13.012
40441W        W 6872  30.399  37.948  12.444
40442W        W 6873  37.372  27.880  13.372
40443W        W 6874   9.708  20.211   4.223
40444W        W 6875  26.049  26.365   2.562
40445W        W 6876  16.281  28.933   0.739
40446W        W 6877  18.864  13.234  10.335
40447W        W 6878  21.713  11.592  12.583
40448W        W 6879  13.053  29.979  12.047
40449W        W 6880  10.281  21.753  14.324
40450W        W 6881  18.730  27.974  11.209
40451W        W 6882  27.439   3.558   2.729
40452W        W 6883  26.047  10.794  10.688
40453W        W 6884  13.328   2.898  12.036
40454W        W 6885  41.890  28.712   2.186
40455W        W 6886  11.282  37.543   3.290
40456W        W 6887  14.234  25.668   2.759
40457W        W 6888  22.921   6.454   3.503
40458W        W 6889  41.361   7.434  11.281
40459W        W 6890  18.003  23.069  14.465
40460W        W 6891  25.610  28.099   4.633
40461W        W 6892  23.543  42.588   1.306
40462W        W 6893  33.853  20.483  14.496
40463W        W 6894   9.575  23.061   3.703
40464W        W 6895   4.560  41.609   3.747
40465W        W 6896  14.391  32.883   3.675
40466W        W 6897  12.441  25.508   1.204
40467W        W 6898   1.728  27.046   0.829
40468W        W 6899   9.347  13.821   1.879
40469W        W 6900  14.585  44.151   4.148
40470W        W 6901  32.987  17.202  10.412
40471W        W 6902  25.232  13.165  14.726
40472W        W 6903  38.120   1.716   2.203
40473W        W 6904  27.010  12.875   1.176
40474W        W 6905  44.765  27.270   1.945
40475W        W 6906  33.987  32.471  12.082
40476W        W 6907  37.617  44.682   3.438
40477W        W 6908  21.104  35.985   0.218
40478W        W 6909  18.718  17.651  10.893
40479W        W 6910  39.641  34.863   4.027
40480W        W 6911  37.324  18.695   0.303
40481W        W 6912  27.175  10.916   3.153
40482W        W 6913  19.269  25.632  12.092
40483W        W 6914  38.246   4.386   0.916
40484W        W 6915  24.041   0.896  13.947
40485W        W 6916  30.909  43.321  14.801
40486W        W 6917  43.222  12.070  11.551
40487W        W 6918   6.691  16.046   1.147
40488W        W 6919  15.560  12.225   2.747
40489W        W 6920  30.514  33.839  11.031
40490W        W 6921  11.719  33.068  10.844
40491W        W 6922  30.613  25.666   0.362
40492W        W 6923  21.481  36.240  12.082
40493W        W 6924   7.732  22.533  13.454
40494W        W 6925  24.448  26.482   3.786
40495W        W 6926  21.852  24.810   1.849
40496W        W 6927  20.590  37.320   0.815
40497W        W 6928   2.313   3.216  13.005
40498W        W 6929   3.346  30.210   2.604
40499W        W 6930  22.216  10.076   0.744
40500W        W 6931  25.717   0.053  11.658
40501W        W 6932  34.537  14.406  11.155
40502W        W 6933  12.075   8.843  14.225
40503W        W 6934  33.015  11.637  13.926
40504W        W 6935  26.014   9.908  10.964
40505W        W 6936  36.170   7.384   3.534
40506W        W 6937  23.985   8.534  11.633
40507W        W 6938  22.336  34.049   3.225
40508W        W 6939  31.291  43.259  11.250
40509W        W 6940  41.829  14.237  13.317
40510W        W 6941  17.316  38.072  11.956
40511W        W 6942  25.610   0.400   2.321
40512W        W 6943  34.254   3.390   3.715
40513W        W 6944  11.673  19.722  14.021
40514W        W 6945   3.754   2.232  10.734
40515W        W 6946  43.344  26.861   0.644
40516W        W 6947  22.604  43.490  13.396
40517W        W 6948  33.778  20.190   3.802
40518W        W 6949  31.642  30.482  13.494
40519W        W 6950  24.250   7.229  11.461
40520W        W 6951  21.321  42.547  13.911
40521W        W 6952  39.647   6.899   4.102
40522W        W 6953   6.822  22.759  13.699
40523W        W 6954  34.135   1.971   4.682
40524W        W 6955  28.255  10.412  12.446
40525W        W 6956   7.013  26.083   2.633
40526W        W 6957  31.191   5.747  11.853
40527W        W 6958  18.524  24.629   2.361
40528W        W 6959  12.338  15.578   0.919
40529W        W 6960  13.073   0.763   0.915
40530W        W 6961  42.134  32.768  11.608
40531W        W 6962  33.344   8.187  10.669
40532W        W 6963  43.386   5.912   1.606
40533W        W 6964  29.158   0.709  11.179
40534W        W 6965  41.237  29.374   1.424
40535W        W 6966  17.810  14.522  11.648
40536W        W 6967  23.263  40.723   0.782
40537W        W 6968  43.858  27.023   2.310
40538W        W 6969  15.685  40.452  10.577
40539W        W 6970  12.086  36.485  11.642
40540W        W 6971  41.767  14.762   1.433
40541W        W 6972   7.912   4.702   1.959
40542W        W 6973  16.611  17.142  11.186
40543W        W 6974  34.163  16.805  14.363
40544W        W 6975  20.371   7.895  10.642
40545W        W 6976   4.557  22.150  14.914
40546W        W 6977   3.552  12.336   2.173
40547W        W 6978  10.744  12.545   4.364
40548W        W 6979  10.408  30.955  11.934
40549W        W 6980   7.130   4.351  14.527
40550W        W 6981  44.358  39.532  11.673
40551W        W 6982   9.201  13.660  12.925
40552W        W 6983  24.154  14.229   1.238
40553W        W 6984   5.607   5.175   1.765
40554W        W 6985  15.274   4.507  10.994
40555W        W 6986  30.172  28.069   4.850
40556W        W 6987  32.158  28.575   2.382
40557W        W 6988  24.090   2.794   3.205
40558W        W 6989  36.712  24.458  13.502
40559W        W 6990  19.568  31.384   0.853
40560W        W 6991  18.298  21.588  14.933
40561W        W 6992   0.401  41.610  13.262
40562W        W 6993  31.957  40.355   2.429
40563W        W 6994   9.121  41.244   3.078
40564W        W 6995  30.477  42.683   2.419
40565W        W 6996  34.659  31.263   0.358
40566W        W 6997  27.226  38.456  10.952
40567W        W 6998  43.632   5.504   3.713
40568W        W 6999   5.986  44.567  12.828
40569W        W 7000  17.211  18.304   4.976
40570W        W 7001  37.628  20.274   3.097
40571W        W 7002   3.361  37.620  12.404
40572W        W 7003  34.178   3.857   1.374
40573W        W 7004   1.074   7.940   3.306
40574W        W 7005  42.742  32.217  14.440
40575W        W 7006  34.359  27.042   2.400
40576W        W 7007  22.039   9.292  13.002
40577W        W 7008  36.970  31.689  11.542
40578W        W 7009  40.763   0.892   4.574
40579W        W 7010  21.111  25.691  11.545
40580W        W 7011   5.760  25.181   0.017
40581W        W 7012  20.138  41.853   1.145
40582W        W 7013   8.879  18.037   2.823
40583W        W 7014  11.121  11.436   4.650
40584W        W 7015  40.886  10.145   2.795
40585W        W 7016  44.859   1.005  13.485
40586W        W 7017  21.982  40.689   3.358
40587W        W 7018   4.937  10.681   0.477
40588W        W 7019  27.430  14.143  13.454
40589W        W 7020  17.163   0.797   0.903
40590W        W 7021  27.113  27.552   2.587
40591W        W 7022   5.716  32.109  11.164
40592W        W 7023   7.947  18.542  12.543
40593W        W 7024  23.174  33.345   2.755
40594W        W 7025   4.194  20.774   2.181
40595W        W 7026  18.543  33.424   4.568
40596W        W 7027   9.906  19.007  12.435
40597W        W 7028  24.075   9.230   3.373
40598W        W 7029  44.696   7.613   3.248
40599W        W 7030  40.882   9.171   2.512
40600W        W 7031  29.577  25.353   1.808
40601W        W 7032   3.857   8.708   0.313
40602W        W 7033  36.767  10.354   5.066
40603W        W 7034  19.674  44.287   0.007
40604W        W 7035  22.576  18.237   1.121
40605W        W 7036  20.059  41.839   4.377
40606W        W 7037  36.866  14.393  11.498
40607W        W 7038  13.624  34.836  14.030
40608W        W 7039  13.909   9.055   3.594
40609W        W 7040  44.034   2.385   2.679
40610W        W 7041  13.221   8.136  12.015
40611W        W 7042  34.977  23.490   4.496
40612W        W 7043  22.805   2.321  13.706
40613W        W 7044  23.775  31.840   2.207
40614W        W 7045  36.531  41.702   3.749
40615W        W 7046  16.666   2.893  10.695
40616W        W 7047  26.381  13.412   4.076
40617W        W 7048   9.245   1.407   0.718
40618W        W 7049  41.509  40.919   0.499
40619W        W 7050  30.962  21.220  14.482
40620W        W 7051  31.830  44.405   0.710
40621W        W 7052  18.930   8.423  13.755
40622W        W 7053  27.093   1.251   0.523
40623W        W 7054  28.996  19.988   2.633
40624W        W 7055  21.326  36.524  13.615
40625W        W 7056   2.368  22.985   0.050
40626W        W 7057  26.600  38.998   0.282
40627W        W 7058  16.530   0.918  12.037
40628W        W 7059   1.437  24.015  14.350
40629W        W 7060  17.837  38.877  14.291
40630W        W 7061  29.543  17.035   4.103
40631W        W 7062  44.358  23.811  13.997
40632W        W 7063   5.402  28.445  11.983
40633W        W 7064  34.755   7.654  13.511
40634W        W 7065  35.399  37.365  13.063
40635W        W 7066   1.793  15.498   4.429
40636W        W 7067  22.086  15.333  14.389
40637W        W 7068  11.263  34.625  14.336
40638W        W 7069   6.292   4.239   2.222
40639W        W 7070  31.744  16.589   0.357
40640W        W 7071  25.734   4.195   2.243
40641W        W 7072  24.266  34.683   0.053
40642W        W 7073  22.768  38.103   1.851
40643W        W 7074   2.319  15.681   5.141
40644W        W 7075  34.037  39.248   1.844
40645W        W 7076  36.995  18.704   0.844
40646W        W 7077  21.423  16.872   2.266
40647W        W 7078  39.316  24.642  12.636
40648W        W 7079  20.752  14.313  14.435
40649W        W 7080  17.118  41.100  11.743
40650W        W 7081  40.048  38.970   1.322
40651W        W 7082  27.735  13.713  13.355
40652W        W 7083  19.872  10.368   2.488
40653W        W 7084  40.254  36.788  14.888
40654W        W 7085   7.892  40.613  14.810
40655W        W 7086  28.125  16.125  12.853
40656W        W 7087  32.788  37.329  13.396
40657W        W 7088   6.182  26.051   1.813
40658W        W 7089  14.735   7.970   1.511
40659W        W 7090  15.667  32.169  10.766
40660W        W 7091  24.706  41.792   3.621
40661W        W 7092  41.423  22.327  12.541
40662W        W 7093  30.441  15.318   4.893
40663W        W 7094  24.119   1.913   1.707
40664W        W 7095   0.390   5.810   2.358
40665W        W 7096  36.559  19.554  14.797
40666W        W 7097   9.784  31.163   1.762
40667W        W 7098   2.213  19.312  12.556
40668W        W 7099  39.485  30.541   3.655
40669W        W 7100  23.018  17.543  11.519
40670W        W 7101   4.284   8.216   3.614
40671W        W 7102   6.283  27.955   0.069
40672W        W 7103  33.094   6.230   3.871
40673W        W 7104  38.051  31.817  12.117
40674W        W 7105   3.963  37.594   2.284
40675W        W 7106  14.353  33.143  13.450
40676W        W 7107   0.278   1.332  13.478
40677W        W 7108  13.696  16.255  12.086
40678W        W 7109   4.406  23.066   1.937
40679W        W 7110  35.839  20.462  14.319
40680W        W 7111  44.238  11.684   4.329
40681W        W 7112  41.832  30.612   2.429
40682W        W 7113  29.442  28.888  10.042
40683W        W 7114   7.879   7.703  11.652
40684W        W 7115  23.215  25.271   2.633
40685W        W 7116  37.476   3.983  13.637
40686W        W 7117   3.736  40.513   0.457
40687W        W 7118  31.440  43.448   1.368
40688W        W 7119  42.048  12.570   4.004
40689W        W 7120  32.068  29.196   4.907
40690W        W 7121  43.950  24.527  12.148
40691W        W 7122   8.573  20.566  13.014
40692W        W 7123   1.537  14.836  10.716
40693W        W 7124  15.671  26.450  13.759
40694W        W 7125  22.267  41.065   0.954
40695W        W 7126  40.498  22.318  12.585
40696W        W 7127   3.360  33.494  13.325
40697W        W 7128  12.336  34.854   3.864
40698W        W 7129  28.509   3.520   3.785
40699W        W 7130   2.204  40.301   2.677
40700W        W 7131  24.409  36.026   3.299
40701W        W 7132  29.001   1.513  12.477
40702W        W 7133  29.996  25.182   1.538
40703W        W 7134  30.750  30.636  13.514
40704W        W 7135   3.787  10.861  14.494
40705W        W 7136   4.942  37.365  13.867
40706W        W 7137  41.725  37.220  13.226
40707W        W 7138  31.795  38.578   3.217
40708W        W 7139  40.580  40.450   2.223
40709W        W 7140   4.990  26.465  14.939
40710W        W 7141  31.050   8.138  11.127
40711W        W 7142   4.345   5.431   1.246
40712W        W 7143  25.930  20.310  13.331
40713W        W 7144  38.113  28.323  14.602
40714W        W 7145   9.759   1.229   1.412
40715W        W 7146  16.407  42.595   3.251
40716W        W 7147  30.159  13.192   1.331
40717W        W 7148  13.633  21.115  14.572
40718W        W 7149  12.680  40.922  10.679
40719W        W 7150  43.439  32.602   3.517
40720W        W 7151  29.285  38.951   5.132
40721W        W 7152  13.079  11.087   3.689
40722W        W 7153   4.368   1.513  13.864
40723W        W 7154  37.976  23.857  11.536
40724W        W 7155  11.621  18.036   2.742
40725W        W 7156  42.813   9.893   2.434
40726W        W 7157   0.331   3.247   1.253
40727W        W 7158  34.670  14.812  13.774
40728W        W 7159   5.299  12.129  13.996
40729W        W 7160  33.655  33.989  12.067
40730W        W 7161  26.678  26.800  11.654
40731W        W 7162  15.831  38.807   5.047
40732W        W 7163  33.867   3.366  14.527
40733W        W 7164  42.355  11.247  12.276
40734W        W 7165  37.319  29.174  11.176
40735W        W 7166   4.621  19.327   1.834
40736W        W 7167  23.669  17.312  14.361
40737W        W 7168  29.448  18.512  13.001
40738W        W 7169  24.620  33.551  12.057
40739W        W 7170   3.227  17.321  12.950
40740W        W 7171  12.100  24.588  12.025
40741W        W 7172  12.570  22.537   2.922
40742W        W 7173  24.306  19.544   2.632
40743W        W 7174  44.866  43.191  13.766
40744W        W 7175  13.751  37.355  13.749
40745W        W 7176  30.048  28.649   0.755
40746W        W 7177  33.439   1.042  14.605
40747W        W 7178  26.547  16.265  11.138
40748W        W 7179  30.639  41.618  14.168
40749W        W 7180  19.321  41.202   2.093
40750W        W 7181   5.557  30.134  12.887
40751W        W 7182  32.889  31.575   2.100
40752W        W 7183  30.152  10.924   1.794
40753W        W 7184  26.958  28.538   4.521
40754W        W 7185   0.284   3.665   2.182
40755W        W 7186  33.562  13.865   0.754
40756W        W 7187  35.454  36.452  12.909
40757W        W 7188  41.263  23.582  12.979
40758W        W 7189  43.930  41.529   2.887
40759W        W 7190   5.800   9.228  12.395
40760W        W 7191  17.196   6.466   3.705
40761W        W 7192  18.701  11.553  10.598
40762W        W 7193   2.932  13.676   2.155
40763W        W 7194  15.037  38.862   1.217
40764W        W 7195  34.603  17.302   2.142
40765W        W 7196  19.778   7.007  11.623
40766W        W 7197  30.708  35.269  14.994
40767W        W 7198  24.793  38.585   4.514
40768W        W 7199  14.073  13.870   3.124
40769W        W 7200  19.125  32.603   0.705
40770W        W 7201  19.562  18.162  11.651
40771W        W 7202   3.852  36.048   4.733
40772W        W 7203  18.523  35.147   2.621
40773W        W 7204   6.089   9.715   4.674
40774W        W 7205  17.292  16.379  14.399
40775W        W 7206   5.789  30.211   4.281
40776W        W 7207   9.705   1.197  11.206
40777W        W 7208  26.466  41.081  11.079
40778W        W 7209  24.907  39.847  14.856
40779W        W 7210   5.903  17.068   1.314
40780W        W 7211  25.888  12.247   1.321
40781W        W 7212  33.873  37.645  13.085
40782W        W 7213  18.815   5.714  14.910
40783W        W 7214  35.087  23.105   1.630
40784W        W 7215  17.759  15.088  10.485
40785W        W 7216   8.223  38.691  14.293
40786W        W 7217  12.248  13.096   2.708
40787W        W 7218  31.238  14.550  10.859
40788W        W 7219   1.314  32.577   1.865
40789W        W 7220  26.010  20.691   1.064
40790W        W 7221  41.223   6.649   2.411
40791W        W 7222  30.391   7.529   0.390
40792W        W 7223  37.227  43.426   1.713
40793W        W 7224   4.246   1.002  13.930
40794W        W 7225  28.073  19.565   0.464
40795W        W 7226   7.412   1.874  12.081
40796W        W 7227  36.049  17.005   1.815
40797W        W 7228  24.122  41.436   3.793
40798W        W 7229  42.235   7.345   0.058
40799W        W 7230  26.888  22.719  11.850
40800W        W 7231  25.662  12.535  10.929
40801W        W 7232   2.886   2.123  13.717
40802W        W 7233  17.258  16.329   1.456
40803W        W 7234  27.510   0.562   3.871
40804W        W 7235   1.275  26.100   2.860
40805W        W 7236  44.949  27.344  13.793
40806W        W 7237  26.088  13.612   0.679
40807W        W 7238  40.664   7.014   0.293
40808W        W 7239   3.169  25.592  14.006
40809W        W 7240   9.772  36.623  14.719
40810W        W 7241  33.576  23.676  11.520
40811W        W 7242  44.404  27.160  11.920
40812W        W 7243  27.078  25.959  10.620
40813W        W 7244   1.332  40.528   0.196
40814W        W 7245  15.406  22.413   0.674
40815W        W 7246  44.456   3.020   4.190
40816W        W 7247   2.922  11.828   2.232
40817W        W 7248  23.175  24.268   2.884
40818W        W 7249  10.422   9.743  10.968
40819W        W 7250  24.674  26.941   3.103
40820W        W 7251  26.532  19.751   4.424
40821W        W 7252  33.422  22.848   4.177
40822W        W 7253  25.934  33.067  14.947
40823W        W 7254   1.264  11.937  14.762
40824W        W 7255  35.946  34.991   4.156
40825W        W 7256  44.437  33.569  12.077
40826W        W 7257  16.309   5.391   5.061
40827W        W 7258   7.628  28.720  13.626
40828W        W 7259  23.056  14.129  13.854
40829W        W 7260  25.538  35.429  13.072
40830W        W 7261   1.884  23.767   2.414
40831W        W 7262  42.664  12.066  12.946
40832W        W 7263  27.507   6.379  13.382
40833W        W 7264   4.899  10.344   3.076
40834W        W 7265  13.367  14.536  10.757
40835W        W 7266  43.320   1.680   1.762
40836W        W 7267  42.664  10.838   2.320
40837W        W 7268  13.677   2.791  13.955
40838W        W 7269  21.713  26.535   2.323
40839W        W 7270  37.075   3.781   2.648
40840W        W 7271  16.696  36.951   0.538
40841W        W 7272  20.944  36.237   4.570
40842W        W 7273  30.900  28.551  13.459
40843W        W 7274  33.639  17.173   2.301
40844W        W 7275  26.789  31.015  12.584
40845W        W 7276  14.742  31.538   0.860
40846W        W 7277  30.716   7.818   3.616
40847W        W 7278   7.760   2.774  14.794
40848W        W 7279   7.793  22.163  10.981
40849W        W 7280  42.863  32.136  12.867
40850W        W 7281  40.402  36.893  12.685
40851W        W 7282  18.855   7.768  12.114
40852W        W 7283  41.635  36.044  11.070
40853W        W 7284  44.048  42.095  14.111
40854W        W 7285  34.009  32.112  14.063
40855W        W 7286  38.379  20.627  10.972
40856W        W 7287  13.421  44.429   4.517
40857W        W 7288  35.977   8.480  12.051
40858W        W 7289  41.957  33.153   3.352
40859W        W 7290  26.158  43.437   4.700
40860W        W 7291   3.358  22.518   5.229
40861W        W 7292  25.244  23.057   4.664
40862W        W 7293  43.249  34.458   2.783
40863W        W 7294  37.522  33.350   0.159
40864W        W 7295  23.696  44.946   2.789
40865W        W 7296  29.941  23.735  11.185
40866W        W 7297  33.824  25.401  14.880
40867W        W 7298  12.729  33.185  11.476
40868W        W 7299  13.908  30.660  13.255
40869W        W 7300  15.359  24.502   1.228
40870W        W 7301  16.994  38.452   4.209
40871W        W 7302  42.442  43.220   2.368
40872W        W 7303   2.182  24.710   1.686
40873W        W 7304  22.612  15.077  13.523
40874W        W 7305  26.838   6.460  10.142
40875W        W 7306  11.758  36.560   1.406
40876W        W 7307  21.522  19.129   0.054
40877W        W 7308   6.722  38.295  14.080
40878W        W 7309  29.502  40.461  10.614
40879W        W 7310   5.698  21.186   4.614
40880W        W 7311   8.002  29.206   0.380
40881W        W 7312  42.552  14.311   0.456
40882W        W 7313  19.752   7.734   1.527
40883W        W 7314  26.942  19.122   4.362
40884W        W 7315  35.052  24.736  14.292
40885W        W 7316  11.116   2.645   3.796
40886W        W 7317  29.047  43.675   3.905
40887W        W 7318   1.505  21.089  10.389
40888W        W 7319  29.604  22.162   3.498
40889W        W 7320  18.244  31.391  12.947
40890W        W 7321  16.603   6.295   1.010
40891W        W 7322   1.539  27.277   1.254
40892W        W 7323  36.753   7.310   1.669
40893W        W 7324  38.846   0.310  14.380
40894W        W 7325  40.264  40.729   3.795
40895W        W 7326  30.129  22.228  11.211
40896W        W 7327   3.367  31.009   0.320
40897W        W 7328  38.792  31.434  11.236
40898W        W 7329   7.371  14.210  13.879
40899W        W 7330   2.308  15.055   3.235
40900W        W 7331  30.549  28.034   0.773
40901W        W 7332   2.571  36.048   0.438
40902W        W 7333  11.092  43.707  14.064
40903W        W 7334  15.600   2.823   5.059
40904W        W 7335  18.217  10.650   3.205
40905W        W 7336  24.453  23.426  12.050
40906W        W 7337  44.994  18.376   2.187
40907W        W 7338  32.544  44.619  13.099
40908W        W 7339   2.129  25.633   4.169
40909W        W 7340   7.566  31.125   0.490
40910W        W 7341  31.001  23.768   1.799
40911W        W 7342  41.984  22.995  14.796
40912W        W 7343   4.720   3.521   4.525
40913W        W 7344  42.101  25.626   4.561
40914W        W 7345   5.214  35.364   3.008
40915W        W 7346  16.015  28.317  11.939
40916W        W 7347  29.751   7.945  12.595
40917W        W 7348  44.281  31.867  11.139
40918W        W 7349  42.240  21.174  14.674
40919W        W 7350  37.965  38.095  12.067
40920W        W 7351  32.812  27.916   3.556
40921W        W 7352  15.101  14.273  10.651
40922W        W 7353  26.082  33.431   3.463
40923W        W 7354  40.745  10.222   3.709
40924W        W 7355  14.065  39.481   2.678
40925W        W 7356   8.942  34.155  10.628
40926W        W 7357   4.990  33.998   4.246
40927W        W 7358  18.556  16.578  14.744
40928W        W 7359  16.436  28.272  13.110
40929W        W 7360  43.442   0.519  14.348
40930W        W 7361  43.256  33.220  11.154
40931W        W 7362  27.400  14.432   1.810
40932W        W 7363  28.874  44.266  13.183
40933W        W 7364  17.622  39.730  11.783
40934W        W 7365  22.567  40.321   4.695
40935W        W 7366  32.290  27.833   1.113
40936W        W 7367  44.359  18.598   0.326
40937W        W 7368  32.230  28.108  11.161
40938W        W 7369  42.004  20.701   2.697
40939W        W 7370  42.110  37.103   3.126
40940W        W 7371  35.142  37.922   1.850
40941W        W 7372   6.466  29.645  12.601
40942W        W 7373  36.263  39.934   2.467
40943W        W 7374   1.435   7.245   0.753
40944W        W 7375  38.010  16.527  13.582
40945W        W 7376  42.820  36.412   3.919
40946W        W 7377  30.586  38.367  14.414
40947W        W 7378  19.206  16.715  12.543
40948W        W 7379   5.648  41.090  12.519
40949W        W 7380   0.578  10.160  14.914
40950W        W 7381  27.974   0.775   2.065
40951W        W 7382  31.898  11.407  10.577
40952W        W 7383  21.750  37.270  10.392
40953W        W 7384  24.498  21.195  14.566
40954W        W 7385  26.644  38.810   0.912
40955W        W 7386  42.276  37.518   2.633
40956W        W 7387  18.698  35.824  14.691
40957W        W 7388  31.514  28.899   4.170
40958W        W 7389  33.138  29.344  12.983
40959W        W 7390  13.811  10.183  12.211
40960W        W 7391  43.069  12.783  12.186
40961W        W 7392  36.695  19.075  14.571
40962W        W 7393  29.456  41.937   0.960
40963W        W 7394   2.370  20.555   2.683
40964W        W 7395   8.723   4.924  10.827
40965W        W 7396   2.254  31.569  14.985
40966W        W 7397  44.369  11.535  11.317
40967W        W 7398  34.317   0.929   4.178
40968W        W 7399  42.012  17.717   4.691
40969W        W 7400   5.112  36.863   0.407
40970W        W 7401   5.454   4.211  14.717
40971W        W 7402  12.734  26.436   2.834
40972W        W 7403   2.496  39.414  13.874
40973W        W 7404   6.313  44.920  12.968
40974W        W 7405   7.302   6.219  14.002
40975W        W 7406   8.447  41.330  12.512
40976W        W 7407  31.114  10.580  10.708
40977W        W 7408  37.096  26.752  14.694
40978W        W 7409   7.649  29.167  14.430
40979W        W 7410  24.619   9.210   0.944
40980W        W 7411  15.755   2.721  14.412
40981W        W 7412   1.838  35.987   1.930
40982W        W 7413   1.948  18.707   3.151
40983W        W 7414   6.088  40.630  11.911
40984W        W 7415  20.577  37.257  11.915
40985W        W 7416   8.328  31.549   0.497
40986W        W 7417  41.502  23.994  11.665
40987W        W 7418  37.759   5.337  13.347
40988W        W 7419  37.378   1.738   3.157
40989W        W 7420  17.790  39.114  12.411
40990W        W 7421  16.271   2.125   4.869
40991W        W 7422  30.990  40.497  14.078
40992W        W 7423   3.802  22.277   1.229
40993W        W 7424   7.606   7.392  11.153
40994W        W 7425  14.631  14.247  13.929
40995W        W 7426  36.824  42.003   1.720
40996W        W 7427  15.320   8.967  11.490
40997W        W 7428  36.895  12.303   4.375
40998W        W 7429  18.605  17.628  10.392
40999W        W 7430  23.493  38.526   0.102
41000W        W 7431  16.955  30.138   3.894
41001W        W 7432  40.525   2.528   1.355
41002W        W 7433  23.939  25.775  11.277
41003W        W 7434  26.132  17.621   2.318
41004W        W 7435  15.862  16.274  11.596
41005W        W 7436  20.742   4.851   4.808
41006W        W 7437  35.314   1.783   0.027
41007W        W 7438  22.076  25.261   1.351
41008W        W 7439  15.704   6.204   4.170
41009W        W 7440  15.368   5.761   0.145
41010W        W 7441  19.507  37.434   1.723
41011W        W 7442  19.067  22.029  14.625
41012W        W 7443   1.536  20.087   3.848
41013W        W 7444  15.700   4.809   2.411
41014W        W 7445   8.405   2.249  13.112
41015W        W 7446  33.554   1.498   2.036
41016W        W 7447  12.271  25.422   4.673
41017W        W 7448  38.927  21.117   4.443
41018W        W 7449  40.754   3.926  12.885
41019W        W 7450  31.269  26.213  14.258
41020W        W 7451   8.831  43.293   1.287
41021W        W 7452  32.099  25.231  10.498
41022W        W 7453  34.260  27.200  14.248
41023W        W 7454   2.361  22.910   3.262
41024W        W 7455  15.624  23.733   1.710
41025W        W 7456   5.313   5.175   4.125
41026W        W 7457  34.071   7.211   3.879
41027W        W 7458  21.605  10.826  14.102
41028W        W 7459   3.590  30.489   4.789
41029W        W 7460  18.790  30.894   4.534
41030W        W 7461  14.340   4.149   2.701
41031W        W 7462  36.189   8.895   2.063
41032W        W 7463  11.260  35.001   0.926
41033W        W 7464  19.282  29.630   2.061
41034W        W 7465  21.286  23.116   1.898
41035W        W 7466  16.132  37.374   4.430
41036W        W 7467   2.366  31.562  12.474
41037W        W 7468  36.665  27.184   1.173
41038W        W 7469   0.360  10.367  14.416
41039W        W 7470  30.138  33.103   4.215
41040W        W 7471  42.989  41.299   4.400
41041W        W 7472  15.073  10.810  11.197
41042W        W 7473  30.196  18.827  11.699
41043W        W 7474  13.340  31.570   1.638
41044W        W 7475  28.407  11.719   0.042
41045W        W 7476  21.337   2.854   4.422
41046W        W 7477   6.692  21.247   3.833
41047W        W 7478  29.365   3.123  14.818
41048W        W 7479  26.025  27.640   4.974
41049W        W 7480  30.554   5.365   2.793
41050W        W 7481  16.158  26.791  11.121
41051W        W 7482  18.186   5.181   3.362
41052W        W 7483  17.903  13.724  11.073
41053W        W 7484  35.464  15.859   0.794
41054W        W 7485   8.959   9.256  12.005
41055W        W 7486   8.214  34.418  13.530
41056W        W 7487  23.144  34.098  14.924
41057W        W 7488  36.144  22.645  10.918
41058W        W 7489  30.964  44.059   1.787
41059W        W 7490  20.750  24.585   1.002
41060W        W 7491  39.850   4.907  13.417
41061W        W 7492  22.260  27.984  11.313
41062W        W 7493  12.795  19.989   3.713
41063W        W 7494  16.600  29.911   4.751
41064W        W 7495   9.296  32.174  11.012
41065W        W 7496  36.834  22.014   4.402
41066W        W 7497  32.580  28.708   3.330
41067W        W 7498  21.331  15.619  12.861
41068W        W 7499  16.134   7.467  14.139
41069W        W 7500  11.668  26.389   3.726
41070W        W 7501   6.843  32.101  12.525
41071W        W 7502  18.515   0.517  12.922
41072W        W 7503  12.597  39.356  11.617
41073W        W 7504  18.700  44.241   2.579
41074W        W 7505   3.778  24.936  11.551
41075W        W 7506   1.942   5.719  11.438
41076W        W 7507  18.356  43.789  10.845
41077W        W 7508  19.205   3.709   2.156
41078W        W 7509  14.104  20.039   4.190
41079W        W 7510   5.461  32.491   1.092
41080W        W 7511  40.196   0.454   2.650
41081W        W 7512   3.455  33.191   4.131
41082W        W 7513  36.055   7.415   2.131
41083W        W 7514   5.682  30.967   0.991
41084W        W 7515  14.151  29.624   3.651
41085W        W 7516  37.090  12.502   0.021
41086W        W 7517  23.636   1.415  14.006
41087W        W 7518   8.240  22.671  13.502
41088W        W 7519  27.505   3.447   4.522
41089W        W 7520   1.038  18.519   1.311
41090W        W 7521  10.762   4.700   3.133
41091W        W 7522  28.572   9.641   1.231
41092W        W 7523  15.287  40.754  11.716
41093W        W 7524  35.714  30.501  12.628
41094W        W 7525   6.383  27.255   4.511
41095W        W 7526  33.726  34.609  11.564
41096W        W 7527  25.436   4.110  11.177
41097W        W 7528  30.647  43.552  11.471
41098W        W 7529  11.908  31.804  14.899
41099W        W 7530  35.527   0.866  10.506
41100W        W 7531  10.375  28.758  11.505
41101W        W 7532  41.877  19.728  10.463
41102W        W 7533  35.533  12.765  13.888
41103W        W 7534  32.342  14.739  12.582
41104W        W 7535  19.838  27.719  14.653
41105W        W 7536   0.925  35.030   2.315
41106W        W 7537  27.591  11.686   2.439
41107W        W 7538  27.580   3.948  11.186
41108W        W 7539  30.566  30.462  11.543
41109W        W 7540   1.760  30.209  10.595
41110W        W 7541  39.914  37.467   2.210
41111W        W 7542  43.976  23.456  14.030
41112W        W 7543  19.855  21.546   2.370
41113W        W 7544  34.558  42.093   4.748
41114W        W 7545   2.476   7.601  14.902
41115W        W 7546  16.323  42.579  11.404
41116W        W 7547   1.500  13.430  11.217
41117W        W 7548  21.770   2.788   0.880
41118W        W 7549   3.469  24.667  10.901
41119W        W 7550  16.742  26.127  11.124
41120W        W 7551  43.527  18.232  13.854
41121W        W 7552   2.035  31.883   2.888
41122W        W 7553   0.774  12.915  13.386
41123W        W 7554  43.752  11.301  13.350
41124W        W 7555  33.023  39.254   2.794
41125W        W 7556  34.056  26.743   0.489
41126W        W 7557   6.118  28.951  13.585
41127W        W 7558  13.950  16.720  10.730
41128W        W 7559  40.421  36.506  12.312
41129W        W 7560  11.463  37.955  13.862
41130W        W 7561  34.643  34.578  10.751
41131W        W 7562  25.395  10.209  13.451
41132W        W 7563  26.995  24.377   1.367
41133W        W 7564   7.391  22.524  11.703
41134W        W 7565  39.951  37.289   0.203
41135W        W 7566  34.854  25.712  10.756
41136W        W 7567  34.145  41.324  11.084
41137W        W 7568  21.927  44.762   3.258
41138W        W 7569  30.101  15.331  13.786
41139W        W 7570  14.435   9.094   4.931
41140W        W 7571  24.951  29.751   2.633
41141W        W 7572  13.349  27.867   1.899
41142W        W 7573  44.990   8.180   1.309
41143W        W 7574  35.602   7.887   0.467
41144W        W 7575  23.753  25.954   0.780
41145W        W 7576  24.582   9.679   1.159
41146W        W 7577  44.093  10.396  12.251
41147W        W 7578  15.864  11.388  13.459
41148W        W 7579  31.590  24.914   1.892
41149W        W 7580   5.699  19.530  14.921
41150W        W 7581   4.030  17.008   9.887
41151W        W 7582  43.052  39.062   2.651
41152W        W 7583  27.224   9.597   2.665
41153W        W 7584  18.150  24.562   4.366
41154W        W 7585  42.318   7.633   1.934
41155W        W 7586  31.404  10.848   2.936
41156W        W 7587  24.417   4.653  10.839
41157W        W 7588  28.118   7.880   4.491
41158W        W 7589  16.506  20.224  14.955
41159W        W 7590  25.776  23.075   3.989
41160W        W 7591  39.396   2.068  11.347
41161W        W 7592   7.211  29.653  13.807
41162W        W 7593  13.618   1.411   2.924
41163W        W 7594  30.132   3.406  13.127
41164W        W 7595  30.017  43.337  11.049
41165W        W 7596  38.781  26.360  10.723
41166W        W 7597  36.797  32.323   2.420
41167W        W 7598  24.524  21.686   3.167
41168W        W 7599  22.557   4.758   2.351
41169W        W 7600  24.623  13.343   0.580
41170W        W 7601  36.634  32.619  14.356
41171W        W 7602  22.111  20.434  13.902
41172W        W 7603  44.888   3.286  11.926
41173W        W 7604  42.737  18.583  14.891
41174W        W 7605  33.902  15.692  10.176
41175W        W 7606  36.059  10.274   4.555
41176W        W 7607  34.663  16.565   0.835
41177W        W 7608  31.637  22.513   2.749
41178W        W 7609  30.411  20.355  11.013
41179W        W 7610   4.246   3.401   3.249
41180W        W 7611   3.004  44.374  11.531
41181W        W 7612  12.407  10.882  10.738
41182W        W 7613  27.712  39.122  12.430
41183W        W 7614  39.296  15.723   4.151
41184W        W 7615  33.560   1.638  11.380
41185W        W 7616  19.897  40.987   1.564
41186W        W 7617  34.373   1.798   1.269
41187W        W 7618   2.747  31.887  11.501
41188W        W 7619   6.701  34.860   2.738
41189W        W 7620  36.232  25.103  14.810
41190W        W 7621  23.539  18.277  12.969
41191W        W 7622  41.706  18.512   1.521
41192W        W 7623  23.779   0.433  10.445
41193W        W 7624  18.151   4.704   0.366
41194W        W 7625  29.534  14.279   2.942
41195W        W 7626  25.072  12.821   2.335
41196W        W 7627  27.865  28.940   3.189
41197W        W 7628   8.359  21.362  13.087
41198W        W 7629  29.404  33.029   1.281
41199W        W 7630  24.133  11.306   3.737
41200W        W 7631  41.159  36.786   3.526
41201W        W 7632  29.189   5.399   0.900
41202W        W 7633  42.629  26.561  10.885
41203W        W 7634   7.719  15.101  12.484
41204W        W 7635  37.229  37.428  10.264
41205W        W 7636  21.436  26.412   3.821
41206W        W 7637  11.809   9.812  14.415
41207W        W 7638  17.936  17.158  12.503
41208W        W 7639  20.055  35.604   2.185
41209W        W 7640   6.221  13.379   3.297
41210W        W 7641  29.989   4.697   0.317
41211W        W 7642  38.997  10.290  13.987
41212W        W 7643   4.702   6.728  11.966
41213W        W 7644  23.519   8.713  12.848
41214W        W 7645  30.922  11.108  10.657
41215W        W 7646  41.112  39.899   2.425
41216W        W 7647   7.175  17.008  13.666
41217W        W 7648  19.399   1.456  11.330
41218W        W 7649   0.721   1.044  13.526
41219W        W 7650  23.587  20.728   1.467
41220W        W 7651  25.769   2.290  13.613
41221W        W 7652  28.922  29.879  13.375
41222W        W 7653  41.640  26.574   1.331
41223W        W 7654  25.990  38.319   3.507
41224W        W 7655  41.540   8.888  14.777
41225W        W 7656  34.805  14.232  10.716
41226W        W 7657   6.250  17.667  11.502
41227W        W 7658  32.078  36.055  12.532
41228W        W 7659  27.571   2.252  12.338
41229W        W 7660  10.174  30.220  12.433
41230W        W 7661  19.249  10.150   1.379
41231W        W 7662  22.967  17.288   5.376
41232W        W 7663  40.882  29.493   2.765
41233W        W 7664  33.354   7.784   2.867
41234W        W 7665  33.406  18.567   0.372
41235W        W 7666  17.095   8.827   1.631
41236W        W 7667   0.194  30.449   0.147
41237W        W 7668   7.255  34.501   4.002
41238W        W 7669   6.460  37.654   4.620
41239W        W 7670  20.039   1.247   4.379
41240W        W 7671  26.394  39.948  12.062
41241W        W 7672   6.939  36.500   3.449
41242W        W 7673   5.910  32.455  12.918
41243W        W 7674  18.062  43.335   3.528
41244W        W 7675  28.015  36.918  11.668
41245W        W 7676   7.486  17.953   4.515
41246W        W 7677  39.366  33.675   0.826
41247W        W 7678  27.892   6.712  14.497
41248W        W 7679  39.010  16.825  14.748
41249W        W 7680  36.902  16.297   1.415
41250W        W 7681  35.880  16.808  12.020
41251W        W 7682  42.349   5.256  13.467
41252W        W 7683  35.852  28.557   3.293
41253W        W 7684  29.473  41.817   3.566
41254W        W 7685   6.293  25.031   0.020
41255W        W 7686  35.375  25.758  10.676
41256W        W 7687  42.815   1.432   3.630
41257W        W 7688  37.879  20.959  13.844
41258W        W 7689  11.097  40.420   0.271
41259W        W 7690  12.722   8.348  11.768
41260W        W 7691   4.973  38.700   1.006
41261W        W 7692   2.255  12.277   3.190
41262W        W 7693   3.704   2.583   0.483
41263W        W 7694  11.308  17.504  11.317
41264W        W 7695  13.609  24.081   0.555
41265W        W 7696  36.572  22.803   4.011
41266W        W 7697  44.935   2.641  10.879
41267W        W 7698  41.897  19.754   4.554
41268W        W 7699  31.007  24.578   2.162
41269W        W 7700  24.915  26.597  12.489
41270W        W 7701   9.162  28.538  12.444
41271W        W 7702  41.286  44.437  12.512
41272W        W 7703   9.431  30.113   1.786
41273W        W 7704  16.297  35.281  12.778
41274W        W 7705   8.664  19.990  13.747
41275W        W 7706  42.969  13.554   2.700
41276W        W 7707  20.527  41.315  12.869
41277W        W 7708  37.782  17.121  14.396
41278W        W 7709   5.272  29.416  13.320
41279W        W 7710   4.947  14.415  13.533
41280W        W 7711   0.655  28.110   4.118
41281W        W 7712  19.051  20.743  12.874
41282W        W 7713  41.746   3.899  12.841
41283W        W 7714  42.983  20.595   1.871
41284W        W 7715  20.619  34.856  14.102
41285W        W 7716   2.720  27.112   2.581
41286W        W 7717  18.916  26.114   1.083
41287W        W 7718  29.916  38.688   3.238
41288W        W 7719  10.393  10.115   3.117
41289W        W 7720  16.293  14.109   2.026
41290W        W 7721  10.904  17.562  12.541
41291W        W 7722  42.947  26.238   2.729
41292W        W 7723  22.139  29.181   3.253
41293W        W 7724  30.854  42.376  13.961
41294W        W 7725  13.783  10.913   1.149
41295W        W 7726  39.410  29.050   4.496
41296W        W 7727  28.620  12.867  14.376
41297W        W 7728  17.076  18.725   3.257
41298W        W 7729  21.626  42.420  12.176
41299W        W 7730  36.099  20.971  10.157
41300W        W 7731  40.838  41.705  11.801
41301W        W 7732  16.547  22.350  11.118
41302W        W 7733   4.484  39.927   0.210
41303W        W 7734  12.306  12.701  12.656
41304W        W 7735  35.376   6.981   4.054
41305W        W 7736   6.953   8.240   2.366
41306W        W 7737  29.088  28.492   3.614
41307W        W 7738  23.370  35.496  12.718
41308W        W 7739  14.898  20.594  13.937
41309W        W 7740  39.377   4.326   1.541
41310W        W 7741   8.459  20.701   0.430
41311W        W 7742  38.880   2.788   0.374
41312W        W 7743  24.944  23.151  14.209
41313W        W 7744  18.995   9.813  13.048
41314W        W 7745  34.287  37.793   3.566
41315W        W 7746  41.424  19.582  13.306
41316W        W 7747  21.581   3.694  14.876
41317W        W 7748  35.095  23.807  11.642
41318W        W 7749  28.429  30.474   3.881
41319W        W 7750  36.828  20.553   4.815
41320W        W 7751  27.177  13.310  13.941
41321W        W 7752  26.172   4.463   2.389
41322W        W 7753  40.748   5.327  11.214
41323W        W 7754  41.378  24.536   4.599
41324W        W 7755  40.853   5.636   1.863
41325W        W 7756  25.937  27.138  14.864
41326W        W 7757  33.511  31.954  11.474
41327W        W 7758  34.599  15.804   2.233
41328W        W 7759   0.833  20.079  14.582
41329W        W 7760  31.925   3.707  11.600
41330W        W 7761  18.796   9.666   2.653
41331W        W 7762  20.704  27.294   3.319
41332W        W 7763  43.353  40.168  13.968
41333W        W 7764  14.162  22.195  11.861
41334W        W 7765   8.900   3.322  11.409
41335W        W 7766  18.121  39.964   0.254
41336W        W 7767  28.625   0.149  13.295
41337W        W 7768  18.823  42.304   1.390
41338W        W 7769   8.850   6.800   0.499
41339W        W 7770  13.045  24.903  11.306
41340W        W 7771  37.778  22.160  11.258
41341W        W 7772  13.548  34.531   2.661
41342W        W 7773  12.388  35.740   1.238
41343W        W 7774   2.481  30.660   5.166
41344W        W 7775  11.990  10.499  12.581
41345W        W 7776   3.391  31.438   3.710
41346W        W 7777  41.041  34.120  14.345
41347W        W 7778  44.048  34.965  10.980
41348W        W 7779  33.395  17.608   2.190
41349W        W 7780  12.539  30.152  12.055
41350W        W 7781  34.518  41.419  12.101
41351W        W 7782   5.148  15.044  11.121
41352W        W 7783  25.252   8.382  13.276
41353W        W 7784  38.410  44.545   1.852
41354W        W 7785  20.329  26.050  11.587
41355W        W 7786  20.090  28.200   2.535
41356W        W 7787   4.178  31.089  14.662
41357W        W 7788  37.442  17.439  14.604
41358W        W 7789  14.529  20.805  14.398
41359W        W 7790  23.503  17.124   1.515
41360W        W 7791   8.839  36.522  13.660
41361W        W 7792   7.671  37.295  13.882
41362W        W 7793  40.811   9.238   4.381
41363W        W 7794   5.366   3.001   0.721
41364W        W 7795  21.549  40.996   3.273
41365W        W 7796  36.421  15.167   3.688
41366W        W 7797  17.206  32.965   4.570
41367W        W 7798  40.327  17.615  12.311
41368W        W 7799  27.185  27.453  14.021
41369W        W 7800   0.813   8.238   1.861
41370W        W 7801   6.369  28.730  12.842
41371W        W 7802  41.370   8.378  14.908
41372W        W 7803  37.044  31.427  12.074
41373W        W 7804  13.126  44.510  11.214
41374W        W 7805   4.551  37.355   5.077
41375W        W 7806   8.242  43.847   1.523
41376W        W 7807  26.987  44.215   4.148
41377W        W 7808   0.838  22.491  13.817
41378W        W 7809   3.346   1.369  13.427
41379W        W 7810   7.837  22.217  14.793
41380W        W 7811  24.031  38.355   4.095
41381W        W 7812  21.983  19.503  13.395
41382W        W 7813  40.029  25.995  14.662
41383W        W 7814  19.569  31.128   1.339
41384W        W 7815  19.765  24.846  12.626
41385W        W 7816  23.465   3.955  14.796
41386W        W 7817   7.385  21.241   3.258
41387W        W 7818  12.742  21.771  13.939
41388W        W 7819  26.171  23.498   3.207
41389W        W 7820  32.426   4.944   2.833
41390W        W 7821  20.188  35.683  11.136
41391W        W 7822   6.446  28.220   4.176
41392W        W 7823   2.306  16.728   3.354
41393W        W 7824   1.172  35.969  12.103
41394W        W 7825  36.545   1.478  12.456
41395W        W 7826   1.437  35.446  13.702
41396W        W 7827  23.456  23.962   0.463
41397W        W 7828   3.452  26.637  11.085
41398W        W 7829  35.916   4.708   4.614
41399W        W 7830  39.058   4.674  14.551
41400W        W 7831  42.823  29.870  14.125
41401W        W 7832   8.798  29.752   0.511
41402W        W 7833  31.694  40.891  13.483
41403W        W 7834  36.782  25.721  13.019
41404W        W 7835   6.045  43.409   3.422
41405W        W 7836  11.573  14.286  10.414
41406W        W 7837  41.584  44.239  12.153
41407W        W 7838  32.704  43.378   3.302
41408W        W 7839  21.937   8.417   2.440
41409W        W 7840  23.549  24.093  11.179
41410W        W 7841   4.370  24.551  13.210
41411W        W 7842  13.291  23.045  14.657
41412W        W 7843   3.808   5.021   3.626
41413W        W 7844   9.860  21.950  14.564
41414W        W 7845  19.998   6.890   2.859
41415W        W 7846  15.993  19.320  14.904
41416W        W 7847  40.044  23.871   3.660
41417W        W 7848  42.284  17.856  11.565
41418W        W 7849  21.903  13.557   0.538
41419W        W 7850   3.804  15.951  11.600
41420W        W 7851  39.338   0.833   2.726
41421W        W 7852  34.025   5.308   1.650
41422W        W 7853  12.516  14.532  12.893
41423W        W 7854   3.778   2.948   2.230
41424W        W 7855  36.463  18.549   2.724
41425W        W 7856  19.305  41.238   3.687
41426W        W 7857  14.555  24.712  12.918
41427W        W 7858  10.326  23.076  14.941
41428W        W 7859  12.238  11.328   2.397
41429W        W 7860  24.197  37.405   0.564
41430W        W 7861  44.768   0.751  13.027
41431W        W 7862  22.234  36.249  11.631
41432W        W 7863  25.882  38.040   0.195
41433W        W 7864   5.409   8.135   3.236
41434W        W 7865   3.253   4.488   2.061
41435W        W 7866  17.791  28.822   0.835
41436W        W 7867  41.680  41.308  10.462
41437W        W 7868  39.401  44.673  11.928
41438W        W 7869  34.186   4.978   3.057
41439W        W 7870  19.231  42.293   3.613
41440W        W 7871  24.923   7.718   0.907
41441W        W 7872  15.135  30.170  11.980
41442W        W 7873  15.277  44.048   1.188
41443W        W 7874   8.768  11.126  11.887
41444W        W 7875  13.662  34.380  13.797
41445W        W 7876  14.735  12.249  13.535
41446W        W 7877   5.854  17.838   1.764
41447W        W 7878  34.574  31.135  14.757
41448W        W 7879   3.382   5.347   4.279
41449W        W 7880   3.986  14.425   5.431
41450W        W 7881   1.489  17.806  12.026
41451W        W 7882  35.063  13.206   1.270
41452W        W 7883   5.829  32.520   1.852
41453W        W 7884  32.480   1.373  13.383
41454W        W 7885  30.909  36.453   3.614
41455W        W 7886  24.735  33.886   2.685
41456W        W 7887   3.486  15.093  14.757
41457W        W 7888  26.128   7.479  14.842
41458W        W 7889  30.560  25.795  11.174
41459W        W 7890  35.778  32.134  11.690
41460W        W 7891   0.371   5.082   0.529
41461W        W 7892  25.657  35.495   0.762
41462W        W 7893  24.709   9.974   4.104
41463W        W 7894  22.634  40.862  14.604
41464W        W 7895  37.952  28.568  10.821
41465W        W 7896  37.889  10.113  13.546
41466W        W 7897   5.741  34.755  13.611
41467W        W 7898  37.899  23.044   3.872
41468W        W 7899   5.432   4.662   4.033
41469W        W 7900   8.791  14.773  11.301
41470W        W 7901  24.515  17.895  12.744
41471W        W 7902  40.522  19.416   4.980
41472W        W 7903   3.919  40.544  10.729
41473W        W 7904  43.751  30.390  12.574
41474W        W 7905  19.183  29.594  13.602
41475W        W 7906  28.818  41.751  14.453
41476W        W 7907  21.747  22.014  11.602
41477W        W 7908  36.091   8.777   1.547
41478W        W 7909  32.503  24.901  12.933
41479W        W 7910  21.058   4.228  14.356
41480W        W 7911  35.961   4.459   1.002
41481W        W 7912  30.890  20.474  11.467
41482W        W 7913  36.417  33.120   4.182
41483W        W 7914  13.083  20.041   1.400
41484W        W 7915  17.723  13.231  11.115
41485W        W 7916  22.070   7.940   1.304
41486W        W 7917  42.905   2.852   4.980
41487W        W 7918  25.406  27.175  13.254
41488W        W 7919  27.134  23.656  14.834
41489W        W 7920  13.407  31.716  11.169
41490W        W 7921  24.254  33.640  10.567
41491W        W 7922  41.838   2.906  10.512
41492W        W 7923   0.006   4.465  11.647
41493W        W 7924  34.010  10.081  12.487
41494W        W 7925  36.515  10.709   2.342
41495W        W 7926  25.498  32.619   4.365
41496W        W 7927  30.382  23.990  11.045
41497W        W 7928  27.650  37.314  11.699
41498W        W 7929  22.584  25.296   3.666
41499W        W 7930  13.371  35.115   4.629
41500W        W 7931   5.712  21.313  12.106
41501W        W 7932  17.612  33.394  14.424
41502W        W 7933   0.215  42.081   0.483
41503W        W 7934  16.949  32.329  10.735
41504W        W 7935  13.125   7.840   0.746
41505W        W 7936  12.132  24.586  11.169
41506W        W 7937  27.576  14.098  14.918
41507W        W 7938  21.571  25.690  13.026
41508W        W 7939  40.864  31.231   3.744
41509W        W 7940  25.189  16.526  12.555
41510W        W 7941   0.897   8.796   1.292
41511W        W 7942  10.201  12.339  12.546
41512W        W 7943   6.792   1.088   3.230
41513W        W 7944   7.699  34.518  14.404
41514W        W 7945  23.842   9.707   3.873
41515W        W 7946  26.514  44.575  12.290
41516W        W 7947  21.677  34.708   0.291
41517W        W 7948  44.529  14.298   4.574
41518W        W 7949  17.009  12.577  14.738
41519W        W 7950  27.557   1.676  11.593
41520W        W 7951  32.937  33.590   4.634
41521W        W 7952  35.848  16.994   3.630
41522W        W 7953  39.433  15.585   1.835
41523W        W 7954  32.859   6.538   4.549
41524W        W 7955  25.756  19.831  13.472
41525W        W 7956  22.213  29.470  13.478
41526W        W 7957  26.383  41.961  14.737
41527W        W 7958  34.485   6.381  12.447
41528W        W 7959  32.881  18.287   2.389
41529W        W 7960   9.657  17.783   3.268
41530W        W 7961  17.130  20.602  13.485
41531W        W 7962  42.704  33.030   0.069
41532W        W 7963  40.750  31.988  13.908
41533W        W 7964  29.821  41.527   1.700
41534W        W 7965   6.382   1.179   2.937
41535W        W 7966  13.916  29.670  14.312
41536W        W 7967   6.007  24.411  13.810
41537W        W 7968  31.695  40.606  11.160
41538W        W 7969  18.612   0.853   3.572
41539W        W 7970  19.293  27.139   2.351
41540W        W 7971   1.725  33.101   0.697
41541W        W 7972  18.209  19.728   4.274
41542W        W 7973  26.450  29.050  13.455
41543W        W 7974   9.435  20.641  11.687
41544W        W 7975  15.214  31.199   2.587
41545W        W 7976  11.676  18.669  13.130
41546W        W 7977  33.955  33.564   0.274
41547W        W 7978   6.259  44.764  12.424
41548W        W 7979  32.122   5.848  14.845
41549W        W 7980  33.867  32.393   0.909
41550W        W 7981  27.957  34.077  10.788
41551W        W 7982   3.974  34.335  13.336
41552W        W 7983  43.207  19.660   1.350
41553W        W 7984  13.186  29.922  14.981
41554W        W 7985  30.680  16.247  12.014
41555W        W 7986   9.558  31.153   0.706
41556W        W 7987  15.812  33.034  10.694
41557W        W 7988  44.355  37.571   0.806
41558W        W 7989  15.036  15.030   5.146
41559W        W 7990  36.510  40.309  12.354
41560W        W 7991  15.023  30.795   0.338
41561W        W 7992  36.322  41.480  10.741
41562W        W 7993  44.941  34.650   3.073
41563W        W 7994  14.718  41.042   4.197
41564W        W 7995  12.786  17.082  11.554
41565W        W 7996  28.474  44.848   1.937
41566W        W 7997  22.093  14.207   3.380
41567W        W 7998  40.071   7.237  11.658
41568W        W 7999  24.390  31.598  12.920
41569W        W 8000  17.714   4.052   2.021
41570W        W 8001  13.779  10.397   1.810
41571W        W 8002  13.348  15.933   2.227
41572W        W 8003  34.439  38.793  14.825
41573W        W 8004  40.019  18.635  14.792
41574W        W 8005  30.119  12.726   3.663
41575W        W 8006  10.650   8.894  12.488
41576W        W 8007  10.610  19.558   4.032
41577W        W 8008  41.350  27.371   4.711
41578W        W 8009  24.192  26.231   0.692
41579W        W 8010  37.083   6.359  13.431
41580W        W 8011   3.229   4.000  11.743
41581W        W 8012  39.094  22.206  13.321
41582W        W 8013   7.440   5.164  12.811
41583W        W 8014   6.137  10.116  12.920
41584W        W 8015  18.673   0.289  14.032
41585W        W 8016   9.829   8.616  14.268
41586W        W 8017   1.491  32.830   2.458
41587W        W 8018  15.055  16.668   1.884
41588W        W 8019  41.913  28.001   3.637
41589W        W 8020  22.864  42.369   0.586
41590W        W 8021  40.199  39.941  10.795
41591W        W 8022   2.989  15.795  12.425
41592W        W 8023   9.781   0.210  13.914
41593W        W 8024  20.669  42.537   3.212
41594W        W 8025  14.713  13.659   4.558
41595W        W 8026  40.170  20.135  13.528
41596W        W 8027  33.418  20.228  12.481
41597W        W 8028   7.174  30.172  13.819
41598W        W 8029  18.622  30.463   0.478
41599W        W 8030   1.905  12.210   3.857
41600W        W 8031  14.965   0.169  10.058
41601W        W 8032  20.802  21.561   4.194
41602W        W 8033   3.998  17.166   0.022
41603W        W 8034   7.598   1.311   2.312
41604W        W 8035  41.992  24.186   1.214
41605W        W 8036  37.817  14.161  13.210
41606W        W 8037  21.788  41.451  13.013
41607W        W 8038  38.034  17.561  10.301
41608W        W 8039  33.478  44.219   2.842
41609W        W 8040  30.742  42.252   2.352
41610W        W 8041   5.071  44.279   5.105
41611W        W 8042  43.927  43.968  12.059
41612W        W 8043  15.496   0.124  10.015
41613W        W 8044  30.241  42.748  12.134
41614W        W 8045  27.691  30.207   1.336
41615W        W 8046  43.249  40.660  13.024
41616W        W 8047   6.920  43.284  13.232
41617W        W 8048  10.784  10.568   0.502
41618W        W 8049  42.479  23.654   2.191
41619W        W 8050  36.374  35.062  12.149
41620W        W 8051  32.961   2.415   0.257
41621W        W 8052  14.571  21.440  13.553
41622W        W 8053  34.673  30.172  12.862
41623W        W 8054  29.663  21.002   3.205
41624W        W 8055  13.546  18.626  10.622
41625W        W 8056  41.366   8.311   1.538
41626W        W 8057  20.444  10.848   1.446
41627W        W 8058  23.711   7.503  13.384
41628W        W 8059  34.112  16.086  13.891
41629W        W 8060   3.118   5.068  10.638
41630W        W 8061   6.642  29.095   2.233
41631W        W 8062  18.620  39.477  14.599
41632W        W 8063  41.629  17.028   0.340
41633W        W 8064  42.357  40.319   2.744
41634W        W 8065  15.053   3.774   1.344
41635W        W 8066   7.377  27.594   0.208
41636W        W 8067  23.278  31.337  13.813
41637W        W 8068   9.185   5.684   4.292
41638W        W 8069  10.347  27.442   3.092
41639W        W 8070  28.177   9.289  11.471
41640W        W 8071   2.741   8.315   0.917
41641W        W 8072  24.005   6.308  11.591
41642W        W 8073  19.541  16.010  13.376
41643W        W 8074  25.799  32.900  14.457
41644W        W 8075   6.519  30.232   3.615
41645W        W 8076  40.480  36.250  13.311
41646W        W 8077  40.496  16.545   1.774
41647W        W 8078  41.722  10.320   3.535
41648W        W 8079  34.479  13.298   4.323
41649W        W 8080  27.193  43.972   2.785
41650W        W 8081  16.617  44.935   3.239
41651W        W 8082   2.126  44.482  13.924
41652W        W 8083  21.465   8.094   0.219
41653W        W 8084  41.490  32.916  13.648
41654W        W 8085  10.143  24.145   3.534
41655W        W 8086  15.119  30.756   3.347
41656W        W 8087  27.412  24.551  13.657
41657W        W 8088   9.769   1.475   4.441
41658W        W 8089  28.022  15.216  12.604
41659W        W 8090  21.307   3.477  11.726
41660W        W 8091   6.881  13.660  13.343
41661W        W 8092  33.916  11.867  12.053
41662W        W 8093  26.592  27.385  12.405
41663W        W 8094  44.916  18.916   3.941
41664W        W 8095  24.659  35.133  11.165
41665W        W 8096  37.485  17.548  11.899
41666W        W 8097  15.744  41.859   4.619
41667W        W 8098  36.032  12.026   0.787
41668W        W 8099  32.656  18.388   4.933
41669W        W 8100   1.683  11.809  13.876
41670W        W 8101  35.990   8.313  14.801
41671W        W 8102  30.453  15.262  12.480
41672W        W 8103  24.179  23.474  14.828
41673W        W 8104  31.983  33.464   1.628
41674W        W 8105  22.024  42.624   2.424
41675W        W 8106  41.376  44.148  11.240
41676W        W 8107  32.777  23.575   0.883
41677W        W 8108  14.626   5.620  12.457
41678W        W 8109  44.571  35.061  13.098
41679W        W 8110  18.650  28.993  12.097
41680W        W 8111  40.352  37.997   3.648
41681W        W 8112  31.626  13.740  12.007
41682W        W 8113   7.339   4.808  11.991
41683W        W 8114  24.066  23.916   5.135
41684W        W 8115   1.588  27.518   4.526
41685W        W 8116  16.314   8.787  10.919
41686W        W 8117  39.979  38.359  10.620
41687W        W 8118  34.096  27.692  11.015
41688W        W 8119  44.887  19.669  10.593
41689W        W 8120  41.752  19.671  14.502
41690W        W 8121  20.803  18.706  14.656
41691W        W 8122   1.836  30.366  14.255
41692W        W 8123  37.433   0.035  14.344
41693W        W 8124  32.056  12.700   9.928
41694W        W 8125  35.882  11.722  11.205
41695W        W 8126  26.474  20.231  11.625
41696W        W 8127  25.799  25.308  13.784
41697W        W 8128  20.008   7.932   4.654
41698W        W 8129  42.092  13.702  14.992
41699W        W 8130  32.424  18.203   3.203
41700W        W 8131  17.027   1.400  11.484
41701W        W 8132  26.575  20.425   0.415
41702W        W 8133  41.178  21.955  14.758
41703W        W 8134  24.702  41.967  12.040
41704W        W 8135  13.555  23.156  13.779
41705W        W 8136  40.365   6.988  12.060
41706W        W 8137  28.168  25.732  14.136
41707W        W 8138  15.610  41.852   3.156
41708W        W 8139  42.550  10.280   3.228
41709W        W 8140  11.417  43.741  11.242
41710W        W 8141  38.044  16.823   1.892
41711W        W 8142  41.835  36.909   2.729
41712W        W 8143  28.327  37.317   9.796
41713W        W 8144   2.608  31.511   0.369
41714W        W 8145  29.996   0.880   2.473
41715W        W 8146  37.070  24.264  10.659
41716W        W 8147  34.542  35.963  14.329
41717W        W 8148  24.397  27.696  14.016
41718W        W 8149  14.589  23.142  11.474
41719W        W 8150  40.547  32.505   3.121
41720W        W 8151  38.469   9.456  11.544
41721W        W 8152  20.308   0.393  11.663
41722W        W 8153   7.299  42.488  12.839
41723W        W 8154  13.510   9.641  13.983
41724W        W 8155  20.235  31.090   0.480
41725W        W 8156  33.055  23.697  14.424
41726W        W 8157   3.733  35.141  11.213
41727W        W 8158  10.628  32.773  14.025
41728W        W 8159   0.869  34.135  14.192
41729W        W 8160  22.087  30.630   1.418
41730W        W 8161  41.422   4.317  13.322
41731W        W 8162  26.132   6.212   1.445
41732W        W 8163  38.523  16.476   1.928
41733W        W 8164  12.298  10.142   0.319
41734W        W 8165  37.974  43.566   0.368
41735W        W 8166  30.215  33.914  14.312
41736W        W 8167   8.681  42.348   1.395
41737W        W 8168  36.360  24.227   2.175
41738W        W 8169  42.282  43.840  12.995
41739W        W 8170   3.316   0.173  14.745
41740W        W 8171   3.537   8.974   0.620
41741W        W 8172  14.746  13.071   3.726
41742W        W 8173  23.235   4.459  13.428
41743W        W 8174  29.016   3.456   3.619
41744W        W 8175  25.262  21.031   0.634
41745W        W 8176  13.032  38.672   2.088
41746W        W 8177  16.103  43.518   0.820
41747W        W 8178  38.384  24.653  10.555
41748W        W 8179   7.386  14.618  12.562
41749W        W 8180  44.739  20.466  12.605
41750W        W 8181   4.955  33.581  10.701
41751W        W 8182   3.963  41.509  12.000
41752W        W 8183   7.241   0.238  14.463
41753W        W 8184  25.180  43.538   4.171
41754W        W 8185  13.214   7.943  12.967
41755W        W 8186  11.680  27.128  11.114
41756W        W 8187   2.840  24.250   2.176
41757W        W 8188   6.684  36.436  10.409
41758W        W 8189  17.817   3.703   0.515
41759W        W 8190  10.337  36.106  11.929
41760W        W 8191  18.187  31.231   1.064
41761W        W 8192   6.267  42.731   1.174
41762W        W 8193   0.213  43.518  10.690
41763W        W 8194  33.773  25.834   0.802
41764W        W 8195  43.981  36.112   1.207
41765W        W 8196  35.559  22.096   0.408
41766W        W 8197  39.040   8.337   1.282
41767W        W 8198  40.258   5.268  14.766
41768W        W 8199   4.188  19.432   4.950
41769W        W 8200  18.282  14.360  11.820
41770W        W 8201  41.562  40.789   1.979
41771W        W 8202  28.693  32.199   3.632
41772W        W 8203  31.465  37.049  12.965
41773W        W 8204  43.564  27.922  13.438
41774W        W 8205  24.764   5.858  12.503
41775W        W 8206  35.279  43.009   1.422
41776W        W 8207  16.381  22.088   4.663
41777W        W 8208  43.925  35.336  11.695
41778W        W 8209  20.625  13.358  12.052
41779W        W 8210  44.790  30.703   0.526
41780W        W 8211  32.288   8.682   3.903
41781W        W 8212  17.135   2.102  12.620
41782W        W 8213  36.935  11.416   1.342
41783W        W 8214  29.641  28.548   2.388
41784W        W 8215  24.515   7.027   4.818
41785W        W 8216  32.986  33.205  14.812
41786W        W 8217  23.167  20.587  10.818
41787W        W 8218  28.983  24.718   2.118
41788W        W 8219   5.394  11.844   3.332
41789W        W 8220  16.854   2.330   3.174
41790W        W 8221  27.008  14.265   4.491
41791W        W 8222  26.668   9.368  10.574
41792W        W 8223   8.876  25.650  11.439
41793W        W 8224   8.168  15.783   4.646
41794W        W 8225  23.147  31.487   3.678
41795W        W 8226  30.476   6.113   1.783
41796W        W 8227  11.132  16.064   1.663
41797W        W 8228  11.437  24.224  11.562
41798W        W 8229  27.455  28.497   2.854
41799W        W 8230  23.997  38.860   4.824
41800W        W 8231  27.142  40.405   3.047
41801W        W 8232  26.511  44.012   0.409
41802W        W 8233  18.581  17.231  11.996
41803W        W 8234  25.691   1.107   0.309
41804W        W 8235  35.947  33.804  11.655
41805W        W 8236  40.598  19.156  13.572
41806W        W 8237  20.682  27.938  11.943
41807W        W 8238  27.221  37.211   4.889
41808W        W 8239  26.992  40.331  10.741
41809W        W 8240  42.022  34.058  10.649
41810W        W 8241  17.540   0.796  14.241
41811W        W 8242  12.611   8.238   1.423
41812W        W 8243  27.227  28.412   3.331
41813W        W 8244   5.213   0.266   3.264
41814W        W 8245  15.065   7.627   3.193
41815W        W 8246  15.234  16.994   2.230
41816W        W 8247  15.212  31.133  14.987
41817W        W 8248  14.048   4.148   1.832
41818W        W 8249  19.832  43.816  12.484
41819W        W 8250   7.229  31.173  13.998
41820W        W 8251  19.276  34.489   2.858
41821W        W 8252  43.219  41.905   3.207
41822W        W 8253  27.627  29.853   2.863
41823W        W 8254   8.285  22.642   4.720
41824W        W 8255  28.725  31.944  11.209
41825W        W 8256  22.182  27.706  13.924
41826W        W 8257  32.609  37.461  13.867
41827W        W 8258  38.584   5.530  14.239
41828W        W 8259  18.240  23.817  10.789
41829W        W 8260   6.357  25.607   2.793
41830W        W 8261  22.084  20.555   3.170
41831W        W 8262  11.794  32.348  13.312
41832W        W 8263  19.984   3.765   3.104
41833W        W 8264  18.352  32.005  13.921
41834W        W 8265  18.312  30.247   4.288
41835W        W 8266  25.788   5.894   2.623
41836W        W 8267  27.594  23.661  12.529
41837W        W 8268  30.151   3.256   1.553
41838W        W 8269  32.402  32.169  13.570
41839W        W 8270  18.822  44.290   3.980
41840W        W 8271  21.140  29.056  13.071
41841W        W 8272  17.548  44.790   4.167
41842W        W 8273  29.002  20.972   3.907
41843W        W 8274  44.372  13.107  12.489
41844W        W 8275  27.767  17.540  12.513
41845W        W 8276  36.117  15.607  10.985
41846W        W 8277  44.378  32.376   2.317
41847W        W 8278  30.223  21.022  11.499
41848W        W 8279   8.688  22.666   4.358
41849W        W 8280  10.760  19.169  12.802
41850W        W 8281  32.114  34.876  11.154
41851W        W 8282  38.608   3.365   4.238
41852W        W 8283  20.452  42.821   0.787
41853W        W 8284  32.211  36.849   1.805
41854W        W 8285  23.686  26.805  14.558
41855W        W 8286  35.101  38.696   3.129
41856W        W 8287  38.121  25.577  12.569
41857W        W 8288   9.845  34.024  11.465
41858W        W 8289  19.288  37.390   0.347
41859W        W 8290   7.442  30.209   5.159
41860W        W 8291  32.942  26.556  14.971
41861W        W 8292   1.284   4.284  10.728
41862W        W 8293  27.984  44.527   4.479
41863W        W 8294   1.474   7.830   2.698
41864W        W 8295  12.905  29.609   4.096
41865W        W 8296   8.210   9.939  11.209
41866W        W 8297  31.942  33.453   4.573
41867W        W 8298  27.711  11.181   2.452
41868W        W 8299   3.453   4.443   2.816
41869W        W 8300   1.327  18.373   3.642
41870W        W 8301  30.061  36.602  14.450
41871W        W 8302   4.607  15.169   3.212
41872W        W 8303  12.868  30.989  13.998
41873W        W 8304  16.039   0.911  12.168
41874W        W 8305  34.123  21.609   2.211
41875W        W 8306  23.049  43.889  13.441
41876W        W 8307   5.298  22.284   3.745
41877W        W 8308  26.985  19.719  12.069
41878W        W 8309  18.775  33.142  11.981
41879W        W 8310  37.338  16.140   4.164
41880W        W 8311  29.647   9.578  14.548
41881W        W 8312  42.089  24.213   0.314
41882W        W 8313   9.197  40.261   2.589
41883W        W 8314  40.846   4.777   1.843
41884W        W 8315  11.143  29.106  10.470
41885W        W 8316  31.595  22.104  11.936
41886W        W 8317  42.542   4.981  11.604
41887W        W 8318  15.320  19.781  14.446
41888W        W 8319  18.968  31.914   5.045
41889W        W 8320  27.697  28.142   0.890
41890W        W 8321  43.406  22.124  13.396
41891W        W 8322  33.439  12.086  14.777
41892W        W 8323   1.479  38.568  12.331
41893W        W 8324  19.133  19.028   4.485
41894W        W 8325  29.080  22.068   4.710
41895W        W 8326  24.395  22.092   2.882
41896W        W 8327  34.635  29.616   0.206
41897W        W 8328  13.203  22.254   1.226
41898W        W 8329  22.300  32.961  13.037
41899W        W 8330  37.465  28.432   2.334
41900W        W 8331  13.132  27.729  10.607
41901W        W 8332   9.086  40.091  10.866
41902W        W 8333  29.292  12.181   4.892
41903W        W 8334  27.709  12.185  12.903
41904W        W 8335  19.457  15.410   4.183
41905W        W 8336   8.719   9.196  13.884
41906W        W 8337  37.021   5.373   3.235
41907W        W 8338   2.980   8.532   2.143
41908W        W 8339   7.159  18.656  11.208
41909W        W 8340  12.222  41.045   3.318
41910W        W 8341  30.846  42.049  14.445
41911W        W 8342  13.203  30.623   1.075
41912W        W 8343  44.754  30.494  13.581
41913W        W 8344   4.695   5.689   3.715
41914W        W 8345  25.401   9.402   2.402
41915W        W 8346  23.044  36.564  14.382
41916W        W 8347  36.575  17.977  10.716
41917W        W 8348  36.111  27.178   0.318
41918W        W 8349   2.692  12.744   2.210
41919W        W 8350  11.009   2.879   2.202
41920W        W 8351   3.852  16.139  14.949
41921W        W 8352  39.552  42.955   4.910
41922W        W 8353   9.810  40.968   4.169
41923W        W 8354  21.042  34.188   3.526
41924W        W 8355  11.300  43.298  11.971
41925W        W 8356   1.867  26.197  14.716
41926W        W 8357  21.422  28.723  12.007
41927W        W 8358  23.616  32.809   2.215
41928W        W 8359  20.047  30.654   2.118
41929W        W 8360   3.170  27.965   2.309
41930W        W 8361  44.073  27.443   1.360
41931W        W 8362  24.396  30.811  13.958
41932W        W 8363  42.990  27.548  13.043
41933W        W 8364  16.083  13.554   4.862
41934W        W 8365   6.626  43.405   2.704
41935W        W 8366  41.924  36.880   0.276
41936W        W 8367  12.443   8.487   3.255
41937W        W 8368  42.744  34.028  12.085
41938W        W 8369  22.729   4.919  12.122
41939W        W 8370  12.662  44.854  12.228
41940W        W 8371  29.707  21.344   0.217
41941W        W 8372  15.289  44.331   4.291
41942W        W 8373   6.174  26.563   1.882
41943W        W 8374  32.861  30.905  11.582
41944W        W 8375  11.894  12.101   3.252
41945W        W 8376  22.537  14.764  10.796
41946W        W 8377  42.057  10.522  10.144
41947W        W 8378  32.808  44.836   0.478
41948W        W 8379  44.356  14.134  12.591
41949W        W 8380  29.417  12.538   2.295
41950W        W 8381  24.260  34.378   0.474
41951W        W 8382  44.546   8.340  11.837
41952W        W 8383  41.041  19.468  12.380
41953W        W 8384  33.899  29.912   1.765
41954W        W 8385  40.438  39.541   4.384
41955W        W 8386  14.943  26.969   2.314
41956W        W 8387   1.941   3.229   2.789
41957W        W 8388   8.671  22.669  11.586
41958W        W 8389  18.223  18.294   3.032
41959W        W 8390  44.936  24.499   4.083
41960W        W 8391   8.204  33.390  10.470
41961W        W 8392   9.583  41.726   1.504
41962W        W 8393   3.481   8.896   3.205
41963W        W 8394  32.132  40.757   0.368
41964W        W 8395   7.694  31.437   2.247
41965W        W 8396  40.561  26.911  12.021
41966W        W 8397  37.132  26.190  13.864
41967W        W 8398  20.785  25.119  12.924
41968W        W 8399  38.736  13.585  14.526
41969W        W 8400  40.424  26.469   2.324
41970W        W 8401  42.557  44.242   4.690
41971W        W 8402  25.562  35.398  13.992
41972W        W 8403  39.539   8.639  14.976
41973W        W 8404  25.438  10.653  13.022
41974W        W 8405   2.467   5.806  14.371
41975W        W 8406  18.877  26.360   1.951
41976W        W 8407   4.808   5.240   3.428
41977W        W 8408  11.615  43.527   2.704
41978W        W 8409  41.453  14.545  11.225
41979W        W 8410  20.213   5.520  11.458
41980W        W 8411  39.266  34.793  14.076
41981W        W 8412  43.453  23.437  13.908
41982W        W 8413  14.122  31.331   3.219
41983W        W 8414  14.354  14.329  14.871
41984W        W 8415  44.983  31.355   0.773
41985W        W 8416  13.061  16.111   0.332
41986W        W 8417  26.923  28.529  11.408
41987W        W 8418  41.527  22.549  10.461
41988W        W 8419  40.588  19.008  10.813
41989W        W 8420  37.416  13.906   2.230
41990W        W 8421  42.485   2.293  11.591
41991W        W 8422   5.645  11.202  12.167
41992W        W 8423  44.978  23.712   0.996
41993W        W 8424  43.835  19.105  11.075
41994W        W 8425  14.696  30.060  13.806
41995W        W 8426  42.143  29.045  14.036
41996W        W 8427  30.356  44.025  10.691
41997W        W 8428  18.639  26.187   4.567
41998W        W 8429  42.447  19.852   3.633
41999W        W 8430  29.436  11.819   4.541
42000W        W 8431  42.570  28.681  13.404
42001W        W 8432  35.167  18.903  10.766
42002W        W 8433  18.940  26.862  12.959
42003W        W 8434  44.617   4.548   0.974
42004W        W 8435  31.164   9.315  11.603
42005W        W 8436  10.640  13.427  13.958
42006W        W 8437  28.039  34.887  10.619
42007W        W 8438  24.919  19.599  14.483
42008W        W 8439   2.254  37.258   1.982
42009W        W 8440   1.914  15.381   3.148
42010W        W 8441  22.776   3.506  11.948
42011W        W 8442  11.835   3.007   1.921
42012W        W 8443  39.444  41.010   2.742
42013W        W 8444  10.123  42.294   4.986
42014W        W 8445   7.881  12.486  11.945
42015W        W 8446  40.470  42.986  13.384
42016W        W 8447  43.024  41.103  10.556
42017W        W 8448  38.146   0.386   2.511
42018W        W 8449  12.377  25.492  11.022
42019W        W 8450  31.650   2.661   2.765
42020W        W 8451  15.864  37.407   0.317
42021W        W 8452  19.539  18.029  13.273
42022W        W 8453  12.597  31.659  11.632
42023W        W 8454  20.239   7.335   4.653
42024W        W 8455  24.305  33.090   0.752
42025W        W 8456  20.055  14.575  13.498
42026W        W 8457  42.784   5.855  13.182
42027W        W 8458  36.105  43.550  13.988
42028W        W 8459   6.350  30.181  12.581
42029W        W 8460  13.088  32.404  11.646
42030W        W 8461  26.898  40.947  11.297
42031W        W 8462  32.766  12.910   3.699
42032W        W 8463  26.625  21.485  12.167
42033W        W 8464  36.587  13.635   3.620
42034W        W 8465  41.764   8.875  13.866
42035W        W 8466  40.206  29.981   3.652
42036W        W 8467  41.327  38.593  10.521
42037W        W 8468  11.290  18.939   2.719
42038W        W 8469  15.828  24.187   3.161
42039W        W 8470  36.397  37.870  13.897
42040W        W 8471  10.708  17.766   4.572
42041W        W 8472  15.403  17.706  11.120
42042W        W 8473  42.897   1.478   4.140
42043W        W 8474  43.238  31.437  11.816
42044W        W 8475   3.964  35.358  13.535
42045W        W 8476  23.694  40.691  13.905
42046W        W 8477  37.554  16.225   4.659
42047W        W 8478  16.262  11.567  13.748
42048W        W 8479  25.784  29.364  12.696
42049W        W 8480   1.841  21.176  13.414
42050W        W 8481  34.359  34.950   0.435
42051W        W 8482  22.374  41.063  10.697
42052W        W 8483  39.798  17.639   0.921
42053W        W 8484  41.332  29.158   1.870
42054W        W 8485  24.734  22.725  10.054
42055W        W 8486  28.035  20.664  11.069
42056W        W 8487  32.740  10.757  12.707
42057W        W 8488  19.856  21.757   1.886
42058W        W 8489  44.810   7.386  12.978
42059W        W 8490   7.875  41.325   1.214
42060W        W 8491   2.837  32.984  12.407
42061W        W 8492   4.593  19.540  11.542
42062W        W 8493  31.941  29.358   1.643
42063W        W 8494  19.632  30.631   0.176
42064W        W 8495   5.838  18.196  10.776
42065W        W 8496   0.866  19.019  12.535
42066W        W 8497  23.676  21.106  12.964
42067W        W 8498  18.701  25.213  11.514
42068W        W 8499  27.114  12.554   0.794
42069W        W 8500  28.497  20.678  11.310
42070W        W 8501  20.047  36.994   2.142
42071W        W 8502  14.075  23.180  12.101
42072W        W 8503  31.644   7.140   3.322
42073W        W 8504  41.048  36.689  14.465
42074W        W 8505  30.551  29.956  11.515
42075W        W 8506  30.135  17.732  11.142
42076W        W 8507  24.578   5.218   4.385
42077W        W 8508  21.250  37.530   0.103
42078W        W 8509   2.911   2.844  10.673
42079W        W 8510  43.935  20.305   1.426
42080W        W 8511   2.542  40.275  13.063
42081W        W 8512   9.373   0.761  14.989
42082W        W 8513   5.322  42.966  11.441
42083W        W 8514  18.592  31.298   2.318
42084W        W 8515  21.830  24.995  12.981
42085W        W 8516  21.014   6.850   4.629
42086W        W 8517  33.458  13.367  10.920
42087W        W 8518  25.724  36.255  11.469
42088W        W 8519  25.585  21.941   3.757
42089W        W 8520  10.511  34.084  12.706
42090W        W 8521   9.177   9.151  12.473
42091W        W 8522  18.276  16.701   3.370
42092W        W 8523  35.500  14.073   1.407
42093W        W 8524  14.242  36.501  12.577
42094W        W 8525  40.017   9.326  11.502
42095W        W 8526  20.784   1.781   0.497
42096W        W 8527  39.822  29.385  11.535
42097W        W 8528  32.019  10.469   1.660
42098W        W 8529  38.306   2.951  11.988
42099W        W 8530  21.109  36.675  14.065
42100W        W 8531  22.411  33.689   4.961
42101W        W 8532  10.181  28.183  11.049
42102W        W 8533  34.642  28.094   1.298
42103W        W 8534  43.341  39.050   4.132
42104W        W 8535  35.071  23.077   3.796
42105W        W 8536  16.815   1.292   0.933
42106W        W 8537  17.922  44.739   3.775
42107W        W 8538   2.441   0.487  13.765
42108W        W 8539   2.370   8.158  12.381
42109W        W 8540  28.558  35.321  11.191
42110W        W 8541  19.860  32.604   4.717
42111W        W 8542  21.697  38.303   1.831
42112W        W 8543   5.887   6.950   4.017
42113W        W 8544  42.448  40.037   4.302
42114W        W 8545   3.376  31.988   3.622
42115W        W 8546  35.305  28.911   3.664
42116W        W 8547   4.441   0.341   4.933
42117W        W 8548  12.955  39.356   3.543
42118W        W 8549   4.587  43.076   5.056
42119W        W 8550   6.229  16.138   0.247
42120W        W 8551   4.344  11.593  11.585
42121W        W 8552  40.369   5.675   4.075
42122W        W 8553  32.617  38.576  14.613
42123W        W 8554  27.759  16.843  11.798
42124W        W 8555  15.655   3.112   0.920
42125W        W 8556  18.848   5.684  11.607
42126W        W 8557  26.098  14.685   3.826
42127W        W 8558   1.592  11.728   2.726
42128W        W 8559  34.478  25.006   1.781
42129W        W 8560  20.562   5.251  13.145
42130W        W 8561   2.984  32.465   4.149
42131W        W 8562   4.432  26.975  11.587
42132W        W 8563  28.608   9.991   4.201
42133W        W 8564   1.789  18.688  14.406
42134W        W 8565  18.719  28.542   4.771
42135W        W 8566  29.076  37.364  10.486
42136W        W 8567  42.924  33.939  11.596
42137W        W 8568  42.046  37.819  14.022
42138W        W 8569  34.353  13.617   0.464
42139W        W 8570  35.385  43.748  13.395
42140W        W 8571  44.408  25.594   0.377
42141W        W 8572  23.002   5.378   3.268
42142W        W 8573  42.479  16.261  14.364
42143W        W 8574  33.125  21.484  13.095
42144W        W 8575  26.266  16.515  13.907
42145W        W 8576  41.937  12.264   0.072
42146W        W 8577  41.817  41.842   0.161
42147W        W 8578  21.627  14.978   0.208
42148W        W 8579   1.355  41.491  10.467
42149W        W 8580  16.593  34.936  13.098
42150W        W 8581  11.833  42.496  11.216
42151W        W 8582  25.735  28.824  12.034
42152W        W 8583  23.284  19.510   3.321
42153W        W 8584  15.726   1.227   1.468
42154W        W 8585  44.552  12.556   3.188
42155W        W 8586   0.250  21.616   0.514
42156W        W 8587  27.707  22.623   0.743
42157W        W 8588   8.349  39.646   3.780
42158W        W 8589   0.481  25.185  12.945
42159W        W 8590   6.773   7.874  14.126
42160W        W 8591  11.070   9.015   2.365
42161W        W 8592  20.920  38.908  13.456
42162W        W 8593  10.965  34.881  10.588
42163W        W 8594  35.889  39.025   2.756
42164W        W 8595  28.441   7.402  12.481
42165W        W 8596  38.561  13.329   2.912
42166W        W 8597  24.164  27.259  13.726
42167W        W 8598  18.499  37.287  14.890
42168W        W 8599  23.177  40.100  13.572
42169W        W 8600   7.352  32.086   4.987
42170W        W 8601  34.609  30.596   1.194
42171W        W 8602  15.108  34.509  11.466
42172W        W 8603  21.959  12.703   3.265
42173W        W 8604  42.231  23.621   2.664
42174W        W 8605  32.716  30.080  13.140
42175W        W 8606  20.453  29.572  13.964
42176W        W 8607   9.792  28.658  14.402
42177W        W 8608  40.075  26.118   4.000
42178W        W 8609   3.548  29.783   1.170
42179W        W 8610  41.698  18.796  13.967
42180W        W 8611  38.949  14.113   0.723
42181W        W 8612  20.864  34.590  14.473
42182W        W 8613  34.945  37.414  12.146
42183W        W 8614  41.403  40.158  13.377
42184W        W 8615  16.522  29.451   0.383
42185W        W 8616  17.148   7.321  11.770
42186W        W 8617  10.896  11.325   3.806
42187W        W 8618   7.246   7.203   0.860
42188W        W 8619  33.992  34.576   0.337
42189W        W 8620  10.328   6.355  11.128
42190W        W 8621  24.658   9.367  13.003
42191W        W 8622  10.678  14.741   0.385
42192W        W 8623  11.887  42.995  14.457
42193W        W 8624  22.991  15.331   3.559
42194W        W 8625  12.128  37.707  14.289
42195W        W 8626  16.780  10.379   3.276
42196W        W 8627  31.654   8.699  12.118
42197W        W 8628   8.805   0.931  11.194
42198W        W 8629  38.335  12.242   0.291
42199W        W 8630  21.054  20.975   4.562
42200W        W 8631  28.563  26.156  11.054
42201W        W 8632  39.229   6.143   2.422
42202W        W 8633  13.291  19.795   4.568
42203W        W 8634  38.011  42.335   2.743
42204W        W 8635  25.455   6.369   4.004
42205W        W 8636  44.915   8.476   1.820
42206W        W 8637  15.046  14.998  14.253
42207W        W 8638  40.277  26.621   1.729
42208W        W 8639  40.090  31.266   5.743
42209W        W 8640  36.561  42.052  11.437
42210W        W 8641   8.357  11.806  11.111
42211W        W 8642  44.894  43.321   4.384
42212W        W 8643  13.665  16.199   1.900
42213W        W 8644  28.565  36.097   1.134
42214W        W 8645  16.016   7.806   9.945
42215W        W 8646  29.455  30.758  12.123
42216W        W 8647  37.767   4.770  14.939
42217W        W 8648   8.849  40.812   3.230
42218W        W 8649   9.439   6.439   4.140
42219W        W 8650  37.343  23.999  13.861
42220W        W 8651   7.182  32.773  14.571
42221W        W 8652   7.207  21.672  12.063
42222W        W 8653  13.120   8.746   0.946
42223W        W 8654  19.972  12.689   3.534
42224W        W 8655  24.921   5.124  11.719
42225W        W 8656  15.049  19.687  13.864
42226W        W 8657  37.978  37.571   2.238
42227W        W 8658  29.961   1.843   3.105
42228W        W 8659  42.969  39.103  13.468
42229W        W 8660  39.845  42.813  14.051
42230W        W 8661   2.614   2.666  11.979
42231W        W 8662   2.425   2.324  13.503
42232W        W 8663  37.411  38.038  13.509
42233W        W 8664  41.333  44.990  13.815
42234W        W 8665  35.003  26.643   4.534
42235W        W 8666  22.462  24.402  11.527
42236W        W 8667  19.122  15.683  13.504
42237W        W 8668  18.232   2.019   1.494
42238W        W 8669  34.280  33.531   2.193
42239W        W 8670   8.842   9.273  11.140
42240W        W 8671  21.163  32.118  14.048
42241W        W 8672   4.001  26.526  12.904
42242W        W 8673  16.571  30.563  12.495
42243W        W 8674  16.538  23.572  13.299
42244W        W 8675  32.203  20.847  10.656
42245W        W 8676  36.728  26.572   3.203
42246W        W 8677  12.303   1.463  12.384
42247W        W 8678  40.319   7.772   3.180
42248W        W 8679  37.771  15.197   3.709
42249W        W 8680  20.118  27.045  14.428
42250W        W 8681  31.865  24.142   1.282
42251W        W 8682  20.652   9.807  14.944
42252W        W 8683  13.216  38.028   3.644
42253W        W 8684  17.227  24.617   4.877
42254W        W 8685  42.342   7.506   2.867
42255W        W 8686  31.294  12.812  10.800
42256W        W 8687  17.110  18.263  12.390
42257W        W 8688   8.404  38.284   0.655
42258W        W 8689  11.114  17.298   1.758
42259W        W 8690  30.677   0.498  13.485
42260W        W 8691  36.953   1.387   2.280
42261W        W 8692  36.912  39.960  12.297
42262W        W 8693   1.374  21.549   0.834
42263W        W 8694  15.726  25.662   2.370
42264W        W 8695  28.773  17.764   1.287
42265W        W 8696  26.248  28.609  10.793
42266W        W 8697   4.241   6.471  11.937
42267W        W 8698   5.488  24.431  13.860
42268W        W 8699   7.021   2.938  14.421
42269W        W 8700  37.806  12.733   3.306
42270W        W 8701  20.763  33.548   2.550
42271W        W 8702  30.741   4.402   4.608
42272W        W 8703  10.238   8.842   5.366
42273W        W 8704  37.770  15.114   1.103
42274W        W 8705  15.160  36.776   1.303
42275W        W 8706  33.979  27.814  12.009
42276W        W 8707  38.695  42.923  13.248
42277W        W 8708  23.464  36.515  12.884
42278W        W 8709  20.099  16.269   4.042
42279W        W 8710   4.688  36.697  12.659
42280W        W 8711  10.540  30.655   4.747
42281W        W 8712  36.072  11.128   2.611
42282W        W 8713  12.054  41.305  11.374
42283W        W 8714  28.019  19.479   2.825
42284W        W 8715  21.537  18.605   0.130
42285W        W 8716  23.703   6.417   2.238
42286W        W 8717   8.639  38.844  10.551
42287W        W 8718   4.631  35.522   0.641
42288W        W 8719  32.436   3.831   4.259
42289W        W 8720  42.303  34.412  12.999
42290W        W 8721  22.916  33.702   0.388
42291W        W 8722  34.976  39.908  11.674
42292W        W 8723   1.013   9.113  13.466
42293W        W 8724  13.711  21.349  14.091
42294W        W 8725  23.084  41.001   4.427
42295W        W 8726  32.488  40.534  11.558
42296W        W 8727  42.100  31.358  10.795
42297W        W 8728   5.261  40.885  14.955
42298W        W 8729  26.804  28.720   9.546
42299W        W 8730  19.791   4.851  12.608
42300W        W 8731  20.135  21.409  11.136
42301W        W 8732  31.400   7.257  13.012
42302W        W 8733  33.009  20.019  12.732
42303W        W 8734  11.949  18.242   2.119
42304W        W 8735  12.184  24.724  13.337
42305W        W 8736  12.642  17.337  11.974
42306W        W 8737   3.129  23.758  11.220
42307W        W 8738  11.566  18.801  10.332
42308W        W 8739  11.912  33.177   4.590
42309W        W 8740   5.270   6.187  11.464
42310W        W 8741  31.371  27.672   1.424
42311W        W 8742  30.153  36.372   3.125
42312W        W 8743   7.432  13.344  13.970
42313W        W 8744  31.836  41.609   4.213
42314W        W 8745  40.384  43.467   1.205
42315W        W 8746  42.763  12.376   0.225
42316W        W 8747  37.925  17.578   2.573
42317W        W 8748  28.074  37.552   2.282
42318W        W 8749  26.995  15.139   0.267
42319W        W 8750   6.188  27.596  13.526
42320W        W 8751  23.311  37.535   1.201
42321W        W 8752  10.396  11.298   3.614
42322W        W 8753  24.596   5.354   2.961
42323W        W 8754  42.846   1.933  13.385
42324W        W 8755  26.717  32.561   2.970
42325W        W 8756  43.402   1.250   0.772
42326W        W 8757   4.003  32.322   4.147
42327W        W 8758   6.458  44.595   3.676
42328W        W 8759  34.638  10.924  12.519
42329W        W 8760  44.435   7.163   9.883
42330W        W 8761  26.095  23.025  12.401
42331W        W 8762  19.984   3.292   3.302
42332W        W 8763  44.814   9.425   1.690
42333W        W 8764  16.500  30.934   1.856
42334W        W 8765   3.355  38.658   1.777
42335W        W 8766  21.116  27.130  12.225
42336W        W 8767  43.456  18.745  11.114
42337W        W 8768  18.515  38.675  10.705
42338W        W 8769  11.280  25.191   1.642
42339W        W 8770  30.294  36.911  14.874
42340W        W 8771  10.340  35.590   0.270
42341W        W 8772  10.375   8.192   2.338
42342W        W 8773  12.256   6.269   3.647
42343W        W 8774  40.559  27.195  13.855
42344W        W 8775  30.364  25.610  10.738
42345W        W 8776  27.176   4.476  11.670
42346W        W 8777  12.135  38.810   4.518
42347W        W 8778  13.570  44.858   1.350
42348W        W 8779  21.340   8.259   2.340
42349W        W 8780   5.984  11.245  12.589
42350W        W 8781  27.665  42.553  13.488
42351W        W 8782  38.405   0.574  14.421
42352W        W 8783  10.408  26.969  13.224
42353W        W 8784   7.541  21.606  14.707
42354W        W 8785  17.306  32.851  14.022
42355W        W 8786  21.253  26.771   1.327
42356W        W 8787  37.969   7.382   4.773
42357W        W 8788   0.375  35.247   1.196
42358W        W 8789   4.309  22.701  10.618
42359W        W 8790  41.737  41.869   3.234
42360W        W 8791  28.395  22.039   0.800
42361W        W 8792  36.622  31.000   1.198
42362W        W 8793  35.265   4.277  12.491
42363W        W 8794  26.657  32.165   1.520
42364W        W 8795  37.917   0.900   1.199
42365W        W 8796  30.150  22.508  13.398
42366W        W 8797  42.824  10.358   5.022
42367W        W 8798  40.811  40.886   4.609
42368W        W 8799  37.002  21.000   2.443
42369W        W 8800  27.893  18.118   4.076
42370W        W 8801  44.826  10.225   2.855
42371W        W 8802  36.107   9.495  12.581
42372W        W 8803  35.141  18.125   0.478
42373W        W 8804   5.027   3.312  14.790
42374W        W 8805  10.136  23.027  10.165
42375W        W 8806   7.397  44.881   2.339
42376W        W 8807  25.068  17.275  11.894
42377W        W 8808   2.681  30.866  13.830
42378W        W 8809   9.666  16.341  12.135
42379W        W 8810  44.865  33.467  12.379
42380W        W 8811  14.649  39.197   1.285
42381W        W 8812  44.760  29.809  14.796
42382W        W 8813   1.382   6.758   3.930
42383W        W 8814   6.713  29.977   2.203
42384W        W 8815  23.914  22.403  13.363
42385W        W 8816   3.809   2.955  12.501
42386W        W 8817  27.066  42.475   1.713
42387W        W 8818  15.012   8.860  14.356
42388W        W 8819   2.052  38.271  11.529
42389W        W 8820  28.470  35.796  13.904
42390W        W 8821   5.801   4.765  13.522
42391W        W 8822   0.418  31.629   0.036
42392W        W 8823   7.433  41.715   3.291
42393W        W 8824  15.845   2.915   4.116
42394W        W 8825  33.630  36.956   3.722
42395W        W 8826  42.245   8.723  13.815
42396W        W 8827   8.723  26.393   4.173
42397W        W 8828  24.996  22.462  12.267
42398W        W 8829   9.486  39.296   0.999
42399W        W 8830  39.711  44.427  10.884
42400W        W 8831  39.221  43.284  14.806
42401W        W 8832   9.855  19.502  11.615
42402W        W 8833   1.527  19.944   1.355
42403W        W 8834   8.259  12.770   1.705
42404W        W 8835  22.565   7.385  13.059
42405W        W 8836   2.499  15.319   4.548
42406W        W 8837  14.006   1.822  13.128
42407W        W 8838  42.586  33.829   4.090
42408W        W 8839  39.330   1.729  12.352
42409W        W 8840  34.395  32.094   2.737
42410W        W 8841  40.707  17.294   1.441
42411W        W 8842   2.527  41.525  14.975
42412W        W 8843   2.486  43.049   2.202
42413W        W 8844  37.971  20.045  10.766
42414W        W 8845  17.634  15.071   0.733
42415W        W 8846   9.537  25.898   4.236
42416W        W 8847  29.449  42.282   3.771
42417W        W 8848  14.140  34.601  12.413
42418W        W 8849  19.590  20.516  13.060
42419W        W 8850  18.331  41.897   3.759
42420W        W 8851  20.203  26.150   3.326
42421W        W 8852   2.402  28.502  12.390
42422W        W 8853   1.686   0.132   2.693
42423W        W 8854  13.551   3.426  11.912
42424W        W 8855   1.821  40.975  14.501
42425W        W 8856  27.514  22.584  13.068
42426W        W 8857   9.801  37.285   2.779
42427W        W 8858   0.031  40.115   1.408
42428W        W 8859  21.131  26.555   3.413
42429W        W 8860  24.704  25.201   4.115
42430W        W 8861  11.357   5.196  14.685
42431W        W 8862  37.023  29.052  10.749
42432W        W 8863  30.134  14.122   1.373
42433W        W 8864  23.337  15.391  12.216
42434W        W 8865  19.703  28.021  11.969
42435W        W 8866  16.753  19.244   0.361
42436W        W 8867  42.629  33.309   1.369
42437W        W 8868  44.861  41.954   3.626
42438W        W 8869  18.520  36.782   4.823
42439W        W 8870  27.321  39.547   3.586
42440W        W 8871  23.630  25.460  12.918
42441W        W 8872  24.263  33.062   4.239
42442W        W 8873  31.159   3.015   3.694
42443W        W 8874  36.620  22.133   3.919
42444W        W 8875  29.617  20.703  14.409
42445W        W 8876  29.202  41.002   0.950
42446W        W 8877   3.936  17.623   1.707
42447W        W 8878  38.035   5.475   2.754
42448W        W 8879  34.385   3.236   2.693
42449W        W 8880  19.604  39.352  13.237
42450W        W 8881  36.841  43.935   0.888
42451W        W 8882  34.714  28.933  10.291
42452W        W 8883  43.508  38.482   3.270
42453W        W 8884  31.307  21.188   1.676
42454W        W 8885  36.121  23.454  12.106
42455W        W 8886  32.590  24.287   2.651
42456W        W 8887  14.965  22.879   9.780
42457W        W 8888  42.403  36.021   0.492
42458W        W 8889   7.320   7.671   3.939
42459W        W 8890   2.235  20.051  11.551
42460W        W 8891  38.899  20.605  10.998
42461W        W 8892   6.401  20.487  13.463
42462W        W 8893   9.352  21.697  14.392
42463W        W 8894  37.176  12.655  13.365
42464W        W 8895  13.280  23.300  14.188
42465W        W 8896  31.859  44.267   3.356
42466W        W 8897  26.231   8.818  10.756
42467W        W 8898  26.667  30.821  12.117
42468W        W 8899  12.036  33.906   3.164
42469W        W 8900  26.418  41.495   4.271
42470W        W 8901  13.940  10.271   2.405
42471W        W 8902  19.311  23.642   0.403
42472W        W 8903  26.407   8.878  13.910
42473W        W 8904  20.871  35.452   1.911
42474W        W 8905  39.876  27.660   2.666
42475W        W 8906  33.487  44.955   2.262
42476W        W 8907  39.447  37.795   4.800
42477W        W 8908   3.809   5.532   3.408
42478W        W 8909  38.871   5.141   3.499
42479W        W 8910  38.115  37.965   1.281
42480W        W 8911  10.576   9.900   0.897
42481W        W 8912   1.464  42.005  12.652
42482W        W 8913  17.260   6.970   2.365
42483W        W 8914  21.125   9.640   4.514
42484W        W 8915  16.002  13.089   5.113
42485W        W 8916  11.399  22.346  13.866
42486W        W 8917  15.070  18.267  13.073
42487W        W 8918  14.144  20.345  12.965
42488W        W 8919  32.826  19.017  11.549
42489W        W 8920   0.188  36.337  14.953
42490W        W 8921   7.322  26.985   2.962
42491W        W 8922  10.227  18.501  13.052
42492W        W 8923   9.850   4.463  10.771
42493W        W 8924  23.527  39.369   2.287
42494W        W 8925   4.542  41.369   2.458
42495W        W 8926  22.255  24.190  12.565
42496W        W 8927  34.322  38.580   1.097
42497W        W 8928  11.580  23.118   4.726
42498W        W 8929  20.457   5.398  14.499
42499W        W 8930  10.953   9.631   0.537
42500W        W 8931  10.329  44.439   0.181
42501W        W 8932   3.754  39.061  13.069
42502W        W 8933  37.346  11.811  13.280
42503W        W 8934  33.426  44.387  14.982
42504W        W 8935  33.251  38.540   3.259
42505W        W 8936   9.669   1.367  12.860
42506W        W 8937  15.852  22.119  12.215
42507W        W 8938  14.604  11.790   2.146
42508W        W 8939  21.621  22.525  14.421
42509W        W 8940  15.687  36.921   3.854
42510W        W 8941  13.843   7.625   0.408
42511W        W 8942  20.254  16.576   0.372
42512W        W 8943  18.112  33.618  14.400
42513W        W 8944   1.451  25.282  14.617
42514W        W 8945  39.504  23.790   3.102
42515W        W 8946  21.193  16.271  11.934
42516W        W 8947  40.507  43.952   1.962
42517W        W 8948  38.448  21.684  13.847
42518W        W 8949  10.211  33.956   4.528
42519W        W 8950  35.742  25.714   3.380
42520W        W 8951   7.194  39.674  14.331
42521W        W 8952  10.045  10.412   3.390
42522W        W 8953  41.461  33.668  14.972
42523W        W 8954  25.591   6.784  10.549
42524W        W 8955  18.954  21.192  13.585
42525W        W 8956  26.275  33.887   3.575
42526W        W 8957  35.303  42.481  12.649
42527W        W 8958  14.400  30.130   2.864
42528W        W 8959  44.414  16.667   1.632
42529W        W 8960   3.546   5.919   3.148
42530W        W 8961  23.284   5.860  13.590
42531W        W 8962  34.613   7.201  12.058
42532W        W 8963  38.776  34.109   3.235
42533W        W 8964  24.452  36.927  12.885
42534W        W 8965  15.159  28.891  12.623
42535W        W 8966  27.719  41.520  14.853
42536W        W 8967  10.896  12.734  11.460
42537W        W 8968  13.605   6.973   1.441
42538W        W 8969  39.181  40.939   0.273
42539W        W 8970   2.601   6.809  13.875
42540W        W 8971  30.891  42.984   0.368
42541W        W 8972  25.983  20.616   1.787
42542W        W 8973  16.926  33.964   0.210
42543W        W 8974  25.787   3.878   1.822
42544W        W 8975   1.830  31.446  13.854
42545W        W 8976  24.199  21.014   3.646
42546W        W 8977  29.220  43.078  14.365
42547W        W 8978   4.695  36.150  14.832
42548W        W 8979  41.521   0.774   1.984
42549W        W 8980   2.209  12.085   1.792
42550W        W 8981  44.459  33.590  12.658
42551W        W 8982  19.597  17.855  12.762
42552W        W 8983  19.177  21.641  14.302
42553W        W 8984   6.373  36.178   9.912
42554W        W 8985  23.739  28.755   2.809
42555W        W 8986  26.238  23.177   4.569
42556W        W 8987  38.185  36.789   2.819
42557W        W 8988  31.634  21.565   0.326
42558W        W 8989  10.856  10.246   2.924
42559W        W 8990  19.188  12.562   1.948
42560W        W 8991  19.002  31.669   2.101
42561W        W 8992  14.754  42.215  13.900
42562W        W 8993   0.634   3.508  13.065
42563W        W 8994  13.888  32.328   3.237
42564W        W 8995  19.694  31.743   2.684
42565W        W 8996  19.929   2.073   3.460
42566W        W 8997  19.666   4.426  12.344
42567W        W 8998  44.408  43.275  14.949
42568W        W 8999  34.183  39.067   1.065
42569W        W 9000  33.075  17.246   1.218
42570W        W 9001  33.404  20.461  11.145
42571W        W 9002  24.692   4.994  14.950
42572W        W 9003  11.733  32.012   1.491
42573W        W 9004  17.724  33.190  12.096
42574W        W 9005  37.158  34.744   4.120
42575W        W 9006   7.158  18.234  11.505
42576W        W 9007  37.505  13.623  13.465
42577W        W 9008  21.548  21.493  13.313
42578W        W 9009  21.529  15.558   2.715
42579W        W 9010  32.652  36.547  11.164
42580W        W 9011  36.598  25.570  13.498
42581W        W 9012  17.257  11.789  10.537
42582W        W 9013   0.777  41.223   3.315
42583W        W 9014  27.663  11.540  13.456
42584W        W 9015  28.089  27.552  12.872
42585W        W 9016   1.997  26.086  10.564
42586W        W 9017  37.178  35.265   3.127
42587W        W 9018   9.788  34.635   1.887
42588W        W 9019  19.206  44.498  14.171
42589W        W 9020  36.300  34.091   1.109
42590W        W 9021  32.000  40.824   3.777
42591W        W 9022   4.746  10.705  12.003
42592W        W 9023   5.215  15.223   2.411
42593W        W 9024   6.656   0.445  11.240
42594W        W 9025  24.607  12.814   2.838
42595W        W 9026  30.600  38.514  12.506
42596W        W 9027  20.178  29.512   4.179
42597W        W 9028   0.638  19.200  10.802
42598W        W 9029  34.096  15.617  14.087
42599W        W 9030   1.083   3.261   1.690
42600W        W 9031  41.438  41.719   1.310
42601W        W 9032  14.126  27.685   3.610
42602W        W 9033   4.902  29.800   1.631
42603W        W 9034   0.447  35.023  12.956
42604W        W 9035   5.858  25.557   3.587
42605W        W 9036  12.107  40.967   1.370
42606W        W 9037  12.129  22.158   0.426
42607W        W 9038   3.296   3.026  12.390
42608W        W 9039   6.193  43.868   3.618
42609W        W 9040   6.219  23.772   2.303
42610W        W 9041  39.028   6.306   0.154
42611W        W 9042  28.227   3.247   1.757
42612W        W 9043  14.056   8.285   2.936
42613W        W 9044  27.488  39.180   1.465
42614W        W 9045  23.678  38.989  14.185
42615W        W 9046  22.447  16.652   0.992
42616W        W 9047   0.457  42.342  12.554
42617W        W 9048  25.234  18.731   0.613
42618W        W 9049  24.970   6.631  12.112
42619W        W 9050  17.075  36.128   2.761
42620W        W 9051  37.038   3.353   2.963
42621W        W 9052  12.047   1.453   0.693
42622W        W 9053  17.738  26.901  12.334
42623W        W 9054  34.887  21.187   0.799
42624W        W 9055   2.498  34.481  10.715
42625W        W 9056  19.213   8.188  10.654
42626W        W 9057  37.286  18.149  12.421
42627W        W 9058  24.466  32.940   2.927
42628W        W 9059  17.102  37.289  10.062
42629W        W 9060  24.481  11.242  14.083
42630W        W 9061  13.267   7.329   0.823
42631W        W 9062  26.509  20.680   1.808
42632W        W 9063  31.008  34.457   1.669
42633W        W 9064  41.022   5.828  12.194
42634W        W 9065  23.460   0.948  12.829
42635W        W 9066  41.043  39.141   1.404
42636W        W 9067  15.275  19.152   3.048
42637W        W 9068  33.885  29.449   2.010
42638W        W 9069  23.989   0.330   1.208
42639W        W 9070   7.013  16.567   4.153
42640W        W 9071  37.824  36.012   1.782
42641W        W 9072   6.255   3.651   2.887
42642W        W 9073   7.394  34.090   2.857
42643W        W 9074  12.197   2.383  13.381
42644W        W 9075  26.278   9.030   0.307
42645W        W 9076  34.027  38.221   1.694
42646W        W 9077  10.553  31.653   0.043
42647W        W 9078   7.828  30.453   4.657
42648W        W 9079  21.493  39.888  13.097
42649W        W 9080  22.285   0.955   1.465
42650W        W 9081  43.756  12.813   0.013
42651W        W 9082  33.844  31.097   4.981
42652W        W 9083  10.287  15.279   1.217
42653W        W 9084  19.477  22.648   2.798
42654W        W 9085   5.815   0.191   0.813
42655W        W 9086  11.763  23.105  14.467
42656W        W 9087  36.973  38.175   1.951
42657W        W 9088  36.739  25.219  14.783
42658W        W 9089  40.746  41.998   4.842
42659W        W 9090  30.537  34.074  13.726
42660W        W 9091  28.125  43.911   2.309
42661W        W 9092  41.948   7.916   4.398
42662W        W 9093  16.705  15.319   1.475
42663W        W 9094  24.496  36.608   0.015
42664W        W 9095  38.086  22.777  14.972
42665W        W 9096  28.149  23.812   3.727
42666W        W 9097  24.357  43.834   2.760
42667W        W 9098   2.300  41.268  10.733
42668W        W 9099  41.853  10.682   0.909
42669W        W 9100  18.520  17.097   4.068
42670W        W 9101  36.671   4.401   1.366
42671W        W 9102  36.878  31.646   1.228
42672W        W 9103  15.599   0.693   5.042
42673W        W 9104   2.971  22.228   4.019
42674W        W 9105   3.736  22.514  11.315
42675W        W 9106  30.069  12.612  13.285
42676W        W 9107  28.057  34.880  13.198
42677W        W 9108  33.937   4.724  12.634
42678W        W 9109  24.584  34.278   0.889
42679W        W 9110   9.275  22.050   3.816
42680W        W 9111   8.229  17.092   0.456
42681W        W 9112  34.569   0.870   0.971
42682W        W 9113  14.822  10.765   0.497
42683W        W 9114  28.368  43.690  12.399
42684W        W 9115   6.257   8.188  10.574
42685W        W 9116  35.863   0.097  13.338
42686W        W 9117  40.401   0.628  12.225
42687W        W 9118   5.607  22.172   0.673
42688W        W 9119  43.280  19.304  12.246
42689W        W 9120  34.449  21.729   2.614
42690W        W 9121   6.854  20.814   4.068
42691W        W 9122  41.954  17.879   0.476
42692W        W 9123  34.106  28.719   0.301
42693W        W 9124  26.600  26.464   0.537
42694W        W 9125  12.202  19.042  14.425
42695W        W 9126   1.025  14.219  14.009
42696W        W 9127  42.823  26.061  14.974
42697W        W 9128  14.414   7.702   3.294
42698W        W 9129  36.264   6.027  11.179
42699W        W 9130  14.831  18.709  12.024
42700W        W 9131   3.835  37.514  14.957
42701W        W 9132  30.065  13.283  14.443
42702W        W 9133  23.145  15.306   4.532
42703W        W 9134  14.309   1.436   1.167
42704W        W 9135   5.464   5.653   4.173
42705W        W 9136  33.898  31.392   3.310
42706W        W 9137  30.392   6.447  12.245
42707W        W 9138   0.663   1.339   2.137
42708W        W 9139  21.439  39.959   4.423
42709W        W 9140  18.270  42.945  11.485
42710W        W 9141   0.389   4.191  11.424
42711W        W 9142  18.013  16.850   1.966
42712W        W 9143  15.779  25.472  12.108
42713W        W 9144  26.262  21.084   0.826
42714W        W 9145  15.410  40.260  11.087
42715W        W 9146  44.300  33.227  11.629
42716W        W 9147  16.640   8.577   1.731
42717W        W 9148  14.657  28.248   1.591
42718W        W 9149  28.841   7.190   5.081
42719W        W 9150   9.365  23.674  14.976
42720W        W 9151  20.030  27.947  10.624
42721W        W 9152   0.697  22.650   3.306
42722W        W 9153  28.508  40.529   2.788
42723W        W 9154  31.454  44.239   1.792
42724W        W 9155  11.676  14.954   2.682
42725W        W 9156  23.178  16.102  10.274
42726W        W 9157  36.465   4.293  13.841
42727W        W 9158  39.064  42.403   1.174
42728W        W 9159  33.947   7.077  13.540
42729W        W 9160  36.290  33.213  10.543
42730W        W 9161  32.430   0.877   3.599
42731W        W 9162  11.387   4.603   0.824
42732W        W 9163  31.614  36.008  14.906
42733W        W 9164  43.949   8.342   0.242
42734W        W 9165   1.988   9.621  13.509
42735W        W 9166   6.885  16.172   2.768
42736W        W 9167  19.772   7.009   2.403
42737W        W 9168  19.333   4.299  14.899
42738W        W 9169  42.048  14.260  12.864
42739W        W 9170   5.391  34.974  14.553
42740W        W 9171   8.376  20.644   3.662
42741W        W 9172  37.654   8.829   3.735
42742W        W 9173  17.221   2.211  11.465
42743W        W 9174  26.438  17.098  14.485
42744W        W 9175  11.334  29.139  10.946
42745W        W 9176  16.338  41.998  14.354
42746W        W 9177  33.847  23.225   0.865
42747W        W 9178   0.819  36.331  12.065
42748W        W 9179  31.583   7.187   4.291
42749W        W 9180  44.863  24.099   3.145
42750W        W 9181   4.170  24.045   1.967
42751W        W 9182  18.054  31.839  11.698
42752W        W 9183  30.728  11.765   3.172
42753W        W 9184   9.042   9.555  13.678
42754W        W 9185  43.363  18.429  13.298
42755W        W 9186  12.799  44.246  13.623
42756W        W 9187  16.371  28.221   1.890
42757W        W 9188  25.721  20.022   0.895
42758W        W 9189  17.739  23.324   3.134
42759W        W 9190  43.548  32.456  13.615
42760W        W 9191  40.088  21.027  11.605
42761W        W 9192   9.115  30.580   2.910
42762W        W 9193   7.442  19.484   4.648
42763W        W 9194  23.519  43.480   1.653
42764W        W 9195  29.584  35.786  14.759
42765W        W 9196  15.686  18.010   1.016
42766W        W 9197  34.910  35.792   2.831
42767W        W 9198  34.570   9.297   2.401
42768W        W 9199  19.380  39.843   9.725
42769W        W 9200  43.508  11.309  14.177
42770W        W 9201  13.489  38.765  10.503
42771W        W 9202  29.515  42.593  12.026
42772W        W 9203   0.175   1.029   0.729
42773W        W 9204  34.271  30.914   0.365
42774W        W 9205   1.622   7.967   5.428
42775W        W 9206  43.367  18.781  10.589
42776W        W 9207  39.121   3.503   2.725
42777W        W 9208   1.952  43.162  10.668
42778W        W 9209  23.989  42.867  13.507
42779W        W 9210  20.046  26.494   2.587
42780W        W 9211  22.038   4.296   0.929
42781W        W 9212  34.062   7.373  11.881
42782W        W 9213  12.567  15.742  11.603
42783W        W 9214  33.022  36.014  11.667
42784W        W 9215  41.101  34.634   1.814
42785W        W 9216  21.139  25.036  14.759
42786W        W 9217  26.063  39.807   2.706
42787W        W 9218  20.074  12.865  12.955
42788W        W 9219  27.442  34.794  12.339
42789W        W 9220  25.240  31.684  11.243
42790W        W 9221  44.381  37.322   2.683
42791W        W 9222  44.894  31.836  13.917
42792W        W 9223  26.665  31.315  11.991
42793W        W 9224  11.395  32.212  11.231
42794W        W 9225   2.992   4.443  14.833
42795W        W 9226  38.950   5.166  12.549
42796W        W 9227  37.822  32.019   2.143
42797W        W 9228  31.568  14.571   0.517
42798W        W 9229  30.458  19.653   3.662
42799W        W 9230  24.683  11.614  12.398
42800W        W 9231   2.280  40.763  14.348
42801W        W 9232  11.260   9.329   0.854
42802W        W 9233   0.955  20.527   0.849
42803W        W 9234  36.827  18.829   0.366
42804W        W 9235  37.166   3.817  14.190
42805W        W 9236   5.973  13.793  11.075
42806W        W 9237  39.992  43.031   1.869
42807W        W 9238  35.139  10.895  12.391
42808W        W 9239  19.021  33.927  14.406
42809W        W 9240  19.229  43.419   4.213
42810W        W 9241  43.946  32.918   3.905
42811W        W 9242  14.345  30.416  12.075
42812W        W 9243  41.616  23.238   1.625
42813W        W 9244  30.469  42.493   3.696
42814W        W 9245   4.967   1.251  13.059
42815W        W 9246  21.564  19.303  11.566
42816W        W 9247   0.033  26.068  11.453
42817W        W 9248  43.247  26.213  14.703
42818W        W 9249  19.546  10.178  11.294
42819W        W 9250  23.039  33.568  10.391
42820W        W 9251  35.058  38.539  14.967
42821W        W 9252  38.815  30.010   4.581
42822W        W 9253  36.348   7.670   2.445
42823W        W 9254  34.262  34.084   0.959
42824W        W 9255  40.503  39.595   0.247
42825W        W 9256  25.739  15.683   2.872
42826W        W 9257   2.287  13.762  14.520
42827W        W 9258  23.311  10.242  11.980
42828W        W 9259  10.230  12.189  14.479
42829W        W 9260  27.556  42.749   0.505
42830W        W 9261  12.130  32.306  12.684
42831W        W 9262   1.847  27.099   2.550
42832W        W 9263  26.586  42.842   4.644
42833W        W 9264  28.557   0.790   3.296
42834W        W 9265  19.136   6.786   0.263
42835W        W 9266   6.338  12.371  11.640
42836W        W 9267   4.399  35.134  14.425
42837W        W 9268  31.080  20.805  13.561
42838W        W 9269   5.492  20.761   2.922
42839W        W 9270  38.725   2.071  12.955
42840W        W 9271  25.788  16.582  14.716
42841W        W 9272   9.852  35.506  12.221
42842W        W 9273  35.447   8.614   0.026
42843W        W 9274  33.967  37.971  10.483
42844W        W 9275  35.509  28.646  12.518
42845W        W 9276   0.370  33.023   0.377
42846W        W 9277  12.887   8.284   0.978
42847W        W 9278  42.556  24.337  14.789
42848W        W 9279  10.226   8.550  11.659
42849W        W 9280   9.927   5.977  11.570
42850W        W 9281  23.721   9.253   1.660
42851W        W 9282   1.031  24.611   0.895
42852W        W 9283  42.055  43.232  13.061
42853W        W 9284  36.207  17.597  10.701
42854W        W 9285   9.173   4.658  11.494
42855W        W 9286  27.964  26.465   3.684
42856W        W 9287  17.734  36.365  12.946
42857W        W 9288  25.346  16.062   2.832
42858W        W 9289  23.569  33.509   3.637
42859W        W 9290  26.662  43.929  10.071
42860W        W 9291   9.835  20.829   2.103
42861W        W 9292  36.345  34.717   1.521
42862W        W 9293  41.381  37.407  10.118
42863W        W 9294  39.918  42.281  11.199
42864W        W 9295  39.229  41.980   3.688
42865W        W 9296  17.230  24.649   3.196
42866W        W 9297  32.003  22.549   0.287
42867W        W 9298  32.157  38.082  13.315
42868W        W 9299  21.702  12.727   3.776
42869W        W 9300   7.983  31.966   4.293
42870W        W 9301  13.843   7.045  10.760
42871W        W 9302  34.603  38.490   0.209
42872W        W 9303  10.381   2.944  10.673
42873W        W 9304  19.819  38.423   1.833
42874W        W 9305  26.477  40.494   2.262
42875W        W 9306  38.331   0.715   2.907
42876W        W 9307  28.020  44.942  14.933
42877W        W 9308  11.850  22.305   0.026
42878W        W 9309  17.167  26.336   0.472
42879W        W 9310   8.764  27.542  14.795
42880W        W 9311  33.527  11.567  13.879
42881W        W 9312   9.321  34.784   0.361
42882W        W 9313   2.954  29.148   0.830
42883W        W 9314  10.240  34.148  13.241
42884W        W 9315  44.863  31.041  14.388
42885W        W 9316  19.092  16.354   1.050
42886W        W 9317  23.796  29.190   0.838
42887W        W 9318   1.674  37.449  14.160
42888W        W 9319  22.118   3.500  13.966
42889W        W 9320  13.073  19.254  11.081
42890W        W 9321  38.241  23.408   0.740
42891W        W 9322  32.000  42.505   1.637
42892W        W 9323  38.100  35.477   0.272
42893W        W 9324  32.740  22.093   1.345
42894W        W 9325   5.899  14.685   3.325
42895W        W 9326   6.800  15.526  14.473
42896W        W 9327  39.258   2.497   3.335
42897W        W 9328  44.464  12.189   1.696
42898W        W 9329  20.519   8.722   4.517
42899W        W 9330  29.369  44.049   4.042
42900W        W 9331  30.102  28.130   0.470
42901W        W 9332  37.348  14.260  14.991
42902W        W 9333   7.774   6.120   0.267
42903W        W 9334  17.406  28.441   1.366
42904W        W 9335  38.382  11.926   2.244
42905W        W 9336  43.280  39.313   9.742
42906W        W 9337  11.643  20.763   5.056
42907W        W 9338  15.336  26.201   1.622
42908W        W 9339  15.015  33.312  14.879
42909W        W 9340  25.079  24.171  13.249
42910W        W 9341  34.476  24.557   3.609
42911W        W 9342   6.643  42.087   2.418
42912W        W 9343  37.349  38.232  10.733
42913W        W 9344  14.832  13.332  11.096
42914W        W 9345   3.385   2.500   2.486
42915W        W 9346  18.679  44.638   4.944
42916W        W 9347  29.537  15.027   1.441
42917W        W 9348  27.063  29.974  10.516
42918W        W 9349  35.427  15.821   3.314
42919W        W 9350   2.939  19.463  11.600
42920W        W 9351   5.975  28.213   1.324
42921W        W 9352   9.782  17.611  10.278
42922W        W 9353  40.167  14.197  12.897
42923W        W 9354   5.193  17.701   3.506
42924W        W 9355  22.280  10.243  13.859
42925W        W 9356  11.789  23.765   3.993
42926W        W 9357   0.207  37.401   1.465
42927W        W 9358  23.885  18.816   2.253
42928W        W 9359  24.046  36.745  14.802
42929W        W 9360  44.986  29.565   0.207
42930W        W 9361  41.392  13.110  14.873
42931W        W 9362  29.026  43.918  13.938
42932W        W 9363   0.990  10.258  13.974
42933W        W 9364   4.696  33.162  14.356
42934W        W 9365  20.730   6.629  13.116
42935W        W 9366   2.193  15.817  12.084
42936W        W 9367  18.539   1.877   3.112
42937W        W 9368  38.116  14.691  14.930
42938W        W 9369  43.025  24.172  13.057
42939W        W 9370  33.428  32.946   4.196
42940W        W 9371   0.465  44.382   2.820
42941W        W 9372   6.269  17.662   3.568
42942W        W 9373  15.623   5.187  11.627
42943W        W 9374  44.000   8.106  12.397
42944W        W 9375  14.757  37.688   1.458
42945W        W 9376   2.699   9.198  10.699
42946W        W 9377  24.467  37.331  12.100
42947W        W 9378  13.715  30.992   3.223
42948W        W 9379  25.019  19.135   0.332
42949W        W 9380  42.957  33.924   0.092
42950W        W 9381   7.739  34.140   4.647
42951W        W 9382  33.069  33.623   0.309
42952W        W 9383   2.479  12.262  14.990
42953W        W 9384  36.915  44.449   1.765
42954W        W 9385   0.806  20.611   3.634
42955W        W 9386   7.401  44.447   4.093
42956W        W 9387  27.890  44.653  14.544
42957W        W 9388  35.640  42.410  12.074
42958W        W 9389  32.199   3.248   3.150
42959W        W 9390  35.902  12.304   2.493
42960W        W 9391   4.226   2.383  12.989
42961W        W 9392  36.443  37.382   2.893
42962W        W 9393  25.549  37.382   3.867
42963W        W 9394  22.009  25.146  12.452
42964W        W 9395  30.731  19.590   4.097
42965W        W 9396  23.308   9.311  13.904
42966W        W 9397  26.439   9.200  12.357
42967W        W 9398  10.230  18.233   2.082
42968W        W 9399  44.272  21.248  11.730
42969W        W 9400  19.900  13.808   0.020
42970W        W 9401  28.683  20.269   0.276
42971W        W 9402  10.829  32.944   0.044
42972W        W 9403   6.281   7.875   2.815
42973W        W 9404   2.179  42.850  13.589
42974W        W 9405  14.498  30.553   3.627
42975W        W 9406  44.327  18.287  11.153
42976W        W 9407  36.371  41.897  14.872
42977W        W 9408  19.974  17.770  13.086
42978W        W 9409   2.812   3.327   4.405
42979W        W 9410  13.735  11.825  13.517
42980W        W 9411  36.430  23.673   4.968
42981W        W 9412  39.296  17.755  13.394
42982W        W 9413  44.956  13.552   2.659
42983W        W 9414   3.347  18.148   4.821
42984W        W 9415  33.907  28.400   3.584
42985W        W 9416  35.083   6.439  10.684
42986W        W 9417  11.578  30.704  12.147
42987W        W 9418  37.709  41.704  12.295
42988W        W 9419  32.992  43.798  10.737
42989W        W 9420  21.613  13.837  11.982
42990W        W 9421  44.976   6.626   0.856
42991W        W 9422   9.903  35.829  11.826
42992W        W 9423  34.269  38.601   3.304
42993W        W 9424  42.790  13.497  12.589
42994W        W 9425  20.125  30.212   0.730
42995W        W 9426  44.061  36.776  12.401
42996W        W 9427  20.941  26.312  14.900
42997W        W 9428  25.026   4.418  12.939
42998W        W 9429  30.063   1.383   4.563
42999W        W 9430  34.117  42.412  14.794
43000W        W 9431  31.615  10.343  14.779
43001W        W 9432  37.926  41.136  13.775
43002W        W 9433   4.420  36.795  14.937
43003W        W 9434  20.763  24.189  14.360
43004W        W 9435  39.563  23.642   3.595
43005W        W 9436  21.590  25.995  12.602
43006W        W 9437  19.822  41.095   0.678
43007W        W 9438  14.612  16.095  11.968
43008W        W 9439  43.987   2.432   0.746
43009W        W 9440  22.695  29.413  14.327
43010W        W 9441  17.613  42.774  12.282
43011W        W 9442  30.273   0.338   4.118
43012W        W 9443  28.188  17.621   4.031
43013W        W 9444  27.108  31.223  10.730
43014W        W 9445  20.759   8.871   1.436
43015W        W 9446  22.575  44.895   2.001
43016W        W 9447  26.194  10.912   0.078
43017W        W 9448  18.860  29.147  14.470
43018W        W 9449  23.814  18.223  13.426
43019W        W 9450   0.449  34.422   1.833
43020W        W 9451  30.057   2.415   3.152
43021W        W 9452  15.634  13.271   0.875
43022W        W 9453   6.377  43.715  12.453
43023W        W 9454  26.913  43.812  12.448
43024W        W 9455   9.660  37.323   1.829
43025W        W 9456  19.311  38.951  13.147
43026W        W 9457   3.734   1.690  10.724
43027W        W 9458  25.277  36.058  10.985
43028W        W 9459  20.276   8.961  10.781
43029W        W 9460  31.667  11.777   0.793
43030W        W 9461  33.466  21.326  12.706
43031W        W 9462  28.850  21.877   2.157
43032W        W 9463  29.053  25.394   3.442
43033W        W 9464  43.947  24.079   3.193
43034W        W 9465  25.144  13.490  11.164
43035W        W 9466  42.494  31.893   1.122
43036W        W 9467   1.079   5.299   0.733
43037W        W 9468  14.222   2.799   2.832
43038W        W 9469   9.582  43.566  10.716
43039W        W 9470  22.399  40.968  12.849
43040W        W 9471  33.592  39.754  11.440
43041W        W 9472  11.905  29.140   0.377
43042W        W 9473   0.624  14.298   4.686
43043W        W 9474  11.251  23.178  14.438
43044W        W 9475   2.247  14.969   1.823
43045W        W 9476   8.113  20.374   4.885
43046W        W 9477  14.545  16.795   4.211
43047W        W 9478  37.514  17.485   0.998
43048W        W 9479  15.940  13.582  11.206
43049W        W 9480  32.534  33.427   3.348
43050W        W 9481  41.823  15.624  10.512
43051W        W 9482  19.753  19.285   2.315
43052W        W 9483  36.481   3.234   2.240
43053W        W 9484  26.516  37.895   2.436
43054W        W 9485   8.417  28.649  14.648
43055W        W 9486  38.579   0.437   4.193
43056W        W 9487   5.197  27.445  13.940
43057W        W 9488  38.772  33.379  12.365
43058W        W 9489   1.025  12.164   4.284
43059W        W 9490  15.142  10.170  10.750
43060W        W 9491  26.639   8.397  11.667
43061W        W 9492  31.663  13.102   3.249
43062W        W 9493  37.599  41.478   1.862
43063W        W 9494   3.482  18.141   0.798
43064W        W 9495  37.473  27.566   1.267
43065W        W 9496  43.251  44.861   3.644
43066W        W 9497  20.551  11.277  14.902
43067W        W 9498  17.200  41.393  14.720
43068W        W 9499  37.267   7.853  12.512
43069W        W 9500  31.257   9.212   2.737
43070W        W 9501  25.674  37.877  11.102
43071W        W 9502  11.149   4.489  11.170
43072W        W 9503  34.138  20.630  10.488
43073W        W 9504  39.972  31.173  13.031
43074W        W 9505  36.490   9.419  12.984
43075W        W 9506  44.387   7.151   1.945
43076W        W 9507  40.800   1.153  10.297
43077W        W 9508  43.765  20.244   1.909
43078W        W 9509  26.641  40.038  14.495
43079W        W 9510  20.798   0.434  10.330
43080W        W 9511  23.691  39.348   3.703
43081W        W 9512  11.836  17.222   2.174
43082W        W 9513  22.988  41.867   0.970
43083W        W 9514  43.341  18.266  12.294
43084W        W 9515  20.612  27.180  14.309
43085W        W 9516  33.485  12.321  11.294
43086W        W 9517  23.859  31.839   3.095
43087W        W 9518  32.990  15.320   1.859
43088W        W 9519  22.609   5.011  14.080
43089W        W 9520   3.036   2.306  12.460
43090W        W 9521   9.481   0.690  11.149
43091W        W 9522  29.198  27.135   1.849
43092W        W 9523  14.582  33.932   2.389
43093W        W 9524  40.005   5.503   2.777
43094W        W 9525  37.442  27.905   4.061
43095W        W 9526   3.638  20.305   3.119
43096W        W 9527  14.932  15.256  14.802
43097W        W 9528  18.896   8.872  13.493
43098W        W 9529  40.573  33.770  11.694
43099W        W 9530  25.955  16.471   3.181
43100W        W 9531  26.005   2.691   2.938
43101W        W 9532  26.183   2.473   1.294
43102W        W 9533  18.040  12.810   1.263
43103W        W 9534   3.167  17.398  12.059
43104W        W 9535  20.465  24.474   4.454
43105W        W 9536  34.357  15.327  12.945
43106W        W 9537  27.974  30.217  11.209
43107W        W 9538  43.822   8.377   3.839
43108W        W 9539  30.572  36.934   3.809
43109W        W 9540   1.008   7.918   4.287
43110W        W 9541  36.808   1.319   3.687
43111W        W 9542  37.140  11.884   3.146
43112W        W 9543  20.773  12.065  11.630
43113W        W 9544  20.061   1.890   4.517
43114W        W 9545   0.352  11.062   3.078
43115W        W 9546  26.360  31.120   4.969
43116W        W 9547  29.503  43.810  10.619
43117W        W 9548  36.462   0.513  14.255
43118W        W 9549  15.334  11.700  10.507
43119W        W 9550  41.045   6.568  14.649
43120W        W 9551   5.275  26.898   2.197
43121W        W 9552   4.357   0.348  14.711
43122W        W 9553  37.819  13.788   4.171
43123W        W 9554   5.508  33.585  10.670
43124W        W 9555  25.000  39.909   3.666
43125W        W 9556  31.819  32.644  11.508
43126W        W 9557   7.408   5.338   2.776
43127W        W 9558  30.083  37.914   0.567
43128W        W 9559  36.468  19.445   3.237
43129W        W 9560  15.101  43.899  11.112
43130W        W 9561  14.601  11.182  11.670
43131W        W 9562   8.923   8.991   3.510
43132W        W 9563  20.066  38.984   3.048
43133W        W 9564   9.759   9.264  13.070
43134W        W 9565  38.880  15.766  12.945
43135W        W 9566  25.632  13.376   3.349
43136W        W 9567  36.198  37.812   0.219
43137W        W 9568  16.999  24.083  14.298
43138W        W 9569  32.144  20.781   4.375
43139W        W 9570  31.565   3.292  12.973
43140W        W 9571  18.553  21.742   4.670
43141W        W 9572  11.655  27.359   3.444
43142W        W 9573   0.202   0.849   3.280
43143W        W 9574  44.189  10.337  13.268
43144W        W 9575   4.998  37.405  10.979
43145W        W 9576   8.688  36.406   3.691
43146W        W 9577  15.925  42.895  13.193
43147W        W 9578   3.186  35.600  13.928
43148W        W 9579  11.754   5.421  12.130
43149W        W 9580  33.169  20.686   1.303
43150W        W 9581  33.264  32.035   4.587
43151W        W 9582  34.160  38.817   5.007
43152W        W 9583  38.044  24.292  10.736
43153W        W 9584  19.463  16.651  11.678
43154W        W 9585  25.582  11.765  12.656
43155W        W 9586   6.318  20.808   4.183
43156W        W 9587  28.575  10.647   1.259
43157W        W 9588  30.855  21.002   0.436
43158W        W 9589   2.237  44.430   4.017
43159W        W 9590  33.592  21.711  13.075
43160W        W 9591   5.688  13.572   3.253
43161W        W 9592   4.635  31.824   5.108
43162W        W 9593  37.912  16.618   2.732
43163W        W 9594  12.347  35.198  12.945
43164W        W 9595  14.325  39.784  11.618
43165W        W 9596  14.388  43.916  14.757
43166W        W 9597  22.032  12.082  14.880
43167W        W 9598  44.691  32.624   1.906
43168W        W 9599  33.469  20.209  11.947
43169W        W 9600  33.894   3.932   0.401
43170W        W 9601  21.266  23.526   0.925
43171W        W 9602  36.046  22.701   0.790
43172W        W 9603  10.455   7.447   3.632
43173W        W 9604   1.740  18.528  10.699
43174W        W 9605  44.674  21.299   1.805
43175W        W 9606  35.471  44.265   4.660
43176W        W 9607  29.577   0.015   2.398
43177W        W 9608   0.333  23.521   4.882
43178W        W 9609   8.769  22.004   3.647
43179W        W 9610   0.237   0.184  13.753
43180W        W 9611  13.350  38.239  12.020
43181W        W 9612  17.810   3.591   1.736
43182W        W 9613   4.949  16.645  14.137
43183W        W 9614  24.231  20.096   3.613
43184W        W 9615  24.510  43.810  14.139
43185W        W 9616  25.265  10.382   2.303
43186W        W 9617  20.233  42.036   0.667
43187W        W 9618  25.466  29.125  10.694
43188W        W 9619  14.176  10.803  11.089
43189W        W 9620  17.595   7.221  12.890
43190W        W 9621  26.075  24.925   4.969
43191W        W 9622  39.551  26.042   2.252
43192W        W 9623  17.757  34.092  12.123
43193W        W 9624  44.034  33.433  14.420
43194W        W 9625  41.482  27.057  12.964
43195W        W 9626  11.593  15.239   2.237
43196W        W 9627  18.061  14.928  14.417
43197W        W 9628   0.440  17.255  14.701
43198W        W 9629  20.134  29.926  12.854
43199W        W 9630  28.150  30.863   0.939
43200W        W 9631  17.332  29.532  12.978
43201W        W 9632  41.938  19.099   3.319
43202W        W 9633   2.286  32.657   0.027
43203W        W 9634  11.832  42.762   0.466
43204W        W 9635  42.090  40.078  10.433
43205W        W 9636   9.109  30.637  14.038
43206W        W 9637  40.575   7.733   1.845
43207W        W 9638  13.208  10.312  12.462
43208W        W 9639  44.277  14.783  10.808
43209W        W 9640  25.573   1.257  12.298
43210W        W 9641  11.946   2.935   4.592
43211W        W 9642  39.570   7.761   4.337
43212W        W 9643  40.570  37.052   3.694
43213W        W 9644   9.778  31.975  12.820
43214W        W 9645   9.902   2.446   2.633
43215W        W 9646  10.182  35.074  13.369
43216W        W 9647  35.653   0.747   3.219
43217W        W 9648  17.751   6.849   2.247
43218W        W 9649  17.890  20.120  11.978
43219W        W 9650  13.064  31.117   0.908
43220W        W 9651  18.741  40.307   2.328
43221W        W 9652  26.962  14.228   0.398
43222W        W 9653  27.953  10.574  14.544
43223W        W 9654  17.445  17.342  14.333
43224W        W 9655  13.863  16.654   0.266
43225W        W 9656  13.340  24.944  11.781
43226W        W 9657  20.677   1.350  14.419
43227W        W 9658  10.404  15.226  14.870
43228W        W 9659  23.712  12.377  13.795
43229W        W 9660  13.363  44.396  12.930
43230W        W 9661  43.806  43.261  10.768
43231W        W 9662  43.922  29.618   4.222
43232W        W 9663  42.474  23.109  14.762
43233W        W 9664  31.991  15.517   2.883
43234W        W 9665  35.870  43.624  10.795
43235W        W 9666  41.903  43.891   3.657
43236W        W 9667   5.367   7.155  11.691
43237W        W 9668  24.626  39.505  11.991
43238W        W 9669  25.297   1.945  10.733
43239W        W 9670  23.065  32.589   4.555
43240W        W 9671   7.393  43.959   0.541
43241W        W 9672  35.642  40.058  12.008
43242W        W 9673  33.988  11.695   4.130
43243W        W 9674  34.039  17.945  10.700
43244W        W 9675  21.477  29.938   2.418
43245W        W 9676  39.801  35.992   3.208
43246W        W 9677  28.294  24.258  11.004
43247W        W 9678  11.787   9.996  13.517
43248W        W 9679  12.106  26.156   4.653
43249W        W 9680   4.466  11.168   2.413
43250W        W 9681  40.923  41.868   0.111
43251W        W 9682  32.952  32.272   5.265
43252W        W 9683  35.407   2.978  11.624
43253W        W 9684   5.411  29.736   0.483
43254W        W 9685  36.654  17.075  12.932
43255W        W 9686  40.388  25.467   0.320
43256W        W 9687  32.496  28.208   3.266
43257W        W 9688  31.571   4.336   3.971
43258W        W 9689  16.127  39.311   3.627
43259W        W 9690  10.607   2.076   0.242
43260W        W 9691   8.011   2.392  11.050
43261W        W 9692  32.814  18.901  14.331
43262W        W 9693  17.398  23.581  11.118
43263W        W 9694  36.111  24.508   2.642
43264W        W 9695  18.977  21.162   3.997
43265W        W 9696  21.816  42.963   0.797
43266W        W 9697   9.169   3.431   0.941
43267W        W 9698  27.738  40.218  11.141
43268W        W 9699  14.731  14.088   0.185
43269W        W 9700  43.030   7.153  12.882
43270W        W 9701  19.123  16.162  13.687
43271W        W 9702  40.867  42.233   4.390
43272W        W 9703  10.393  11.284   3.059
43273W        W 9704  12.388   6.500   1.424
43274W        W 9705  13.178  28.454  12.009
43275W        W 9706   4.602  17.495   2.483
43276W        W 9707  41.839  37.597  14.435
43277W        W 9708  39.950  32.613  10.661
43278W        W 9709  30.017  11.235   3.521
43279W        W 9710  14.699  37.695  11.996
43280W        W 9711  31.568  23.834  14.412
43281W        W 9712  10.304  21.782  10.885
43282W        W 9713  35.047   6.962  10.508
43283W        W 9714  34.138  40.979  12.957
43284W        W 9715  22.716  27.634   4.600
43285W        W 9716   7.367   1.219   1.025
43286W        W 9717  44.058  12.639   3.307
43287W        W 9718   3.798  43.723  14.366
43288W        W 9719   5.124  29.433   2.321
43289W        W 9720  40.046   2.117   4.558
43290W        W 9721  15.749   4.707   1.896
43291W        W 9722   0.538  34.361   0.804
43292W        W 9723  16.562  43.462  14.350
43293W        W 9724  12.776  33.796  14.647
43294W        W 9725  16.353   4.860   3.100
43295W        W 9726  17.569  37.160  14.793
43296W        W 9727   7.875  12.141  13.042
43297W        W 9728   4.307  43.903   1.865
43298W        W 9729   8.448  30.988  14.310
43299W        W 9730   2.713  14.508   4.048
43300W        W 9731  33.968  13.998   0.249
43301W        W 9732  33.155  38.435   2.333
43302W        W 9733  31.645  20.854  14.378
43303W        W 9734  34.046  33.229   1.157
43304W        W 9735  29.492  20.825   3.789
43305W        W 9736  10.859  17.857  10.519
43306W        W 9737   9.448   1.383  12.374
43307W        W 9738  31.021  19.883  10.197
43308W        W 9739  31.011  12.162   1.229
43309W        W 9740  22.763  38.574   2.819
43310W        W 9741  11.432   4.175   1.956
43311W        W 9742  11.974  39.163  12.102
43312W        W 9743  15.650  39.795   3.177
43313W        W 9744  36.902  41.145   2.179
43314W        W 9745   6.989  26.457   0.811
43315W        W 9746  12.571  26.994  10.424
43316W        W 9747  31.968  12.602   4.065
43317W        W 9748  30.234  11.460   1.841
43318W        W 9749  13.685  20.452   0.140
43319W        W 9750   0.506  16.736  14.803
43320W        W 9751  22.066  39.274  14.307
43321W        W 9752  24.133  41.366  12.022
43322W        W 9753   8.798  43.560   3.726
43323W        W 9754   4.485   1.763  12.538
43324W        W 9755  42.514  31.435  13.765
43325W        W 9756  21.121  44.819   4.561
43326W        W 9757  36.935  14.354   4.074
43327W        W 9758  23.666   4.310   4.561
43328W        W 9759  17.526  11.743   3.631
43329W        W 9760   1.772  23.208   4.902
43330W        W 9761   6.595   7.119  11.983
43331W        W 9762   3.004  11.421   1.710
43332W        W 9763  16.838   3.311  13.019
43333W        W 9764  18.807   2.012  13.759
43334W        W 9765  32.759   1.443  13.808
43335W        W 9766  16.286   0.374  10.808
43336W        W 9767   7.234  40.784   4.852
43337W        W 9768   9.488   9.774   0.136
43338W        W 9769  30.121   8.577   4.682
43339W        W 9770  32.654  14.122  13.458
43340W        W 9771  24.443  41.557  12.454
43341W        W 9772  29.602  18.866   1.860
43342W        W 9773  27.733   2.853   0.924
43343W        W 9774  37.311  44.595  13.610
43344W        W 9775   0.051  26.234  10.960
43345W        W 9776  26.365  15.339  14.840
43346W        W 9777   1.191  40.200  12.693
43347W        W 9778  33.167   6.789  14.390
43348W        W 9779  37.470  33.303  12.298
43349W        W 9780  13.596   7.322  13.405
43350W        W 9781   6.136  36.956  10.410
43351W        W 9782  31.982  18.687   0.449
43352W        W 9783  18.565   4.333  11.706
43353W        W 9784  20.223  41.554  11.981
43354W        W 9785   9.872  18.709  13.366
43355W        W 9786  38.848  18.060  13.422
43356W        W 9787  37.391   7.130  14.320
43357W        W 9788  21.939  17.534  13.905
43358W        W 9789   9.437  12.648   3.281
43359W        W 9790  37.922  35.604   1.235
43360W        W 9791  36.368  16.027  14.159
43361W        W 9792  38.244  12.845  11.153
43362W        W 9793   4.931   0.767   0.625
43363W        W 9794  17.730  33.828  11.178
43364W        W 9795  28.477   2.983  13.491
43365W        W 9796   7.473  21.797  11.170
43366W        W 9797  24.507   5.728  12.001
43367W        W 9798  11.379   4.238   0.422
43368W        W 9799  21.673  44.020   3.234
43369W        W 9800  41.111  23.010  13.407
43370W        W 9801  16.601  38.533  14.801
43371W        W 9802  35.051   9.730   3.139
43372W        W 9803  24.535  28.633  10.742
43373W        W 9804   9.826  21.523  14.240
43374W        W 9805  44.801  37.522  10.720
43375W        W 9806  18.128  25.967   0.206
43376W        W 9807  33.835  20.728  11.291
43377W        W 9808  19.044   2.287  14.470
43378W        W 9809  11.959  39.551  13.389
43379W        W 9810  30.161  18.740   3.775
43380W        W 9811  24.753  42.724   3.627
43381W        W 9812  20.311   2.258  10.673
43382W        W 9813  30.130  16.182   2.493
43383W        W 9814   5.628  29.084  13.478
43384W        W 9815  38.996  24.492   0.880
43385W        W 9816   6.068  21.089  10.589
43386W        W 9817  38.405   3.318  10.691
43387W        W 9818  10.780   7.121  11.501
43388W        W 9819  36.440  35.362   2.152
43389W        W 9820  28.188  36.915   0.196
43390W        W 9821  36.039  27.904  12.606
43391W        W 9822   9.121  26.530  10.313
43392W        W 9823  44.453  18.793  14.394
43393W        W 9824  25.940  12.669  13.022
43394W        W 9825  17.582  31.149  10.762
43395W        W 9826  30.111  34.978   4.579
43396W        W 9827  35.571  10.160  13.835
43397W        W 9828  21.471  33.989  11.151
43398W        W 9829  11.117  27.379  14.501
43399W        W 9830  42.934  31.918   3.704
43400W        W 9831   7.840   1.014   3.251
43401W        W 9832   2.670  40.037  11.109
43402W        W 9833  33.571  26.845  13.827
43403W        W 9834  11.350  39.158   0.808
43404W        W 9835  24.016  20.041  14.724
43405W        W 9836  30.919  32.009   0.055
43406W        W 9837   9.355  42.581  12.069
43407W        W 9838  19.856  29.907  12.412
43408W        W 9839  35.026  19.134   2.336
43409W        W 9840  15.542   8.996  14.333
43410W        W 9841  40.537  35.089  12.236
43411W        W 9842  40.362  24.617  12.513
43412W        W 9843  29.033  25.662   3.004
43413W        W 9844  30.608   8.704  13.043
43414W        W 9845  20.730  30.500  13.107
43415W        W 9846  44.298  19.111   1.131
43416W        W 9847  10.227  10.734  11.830
43417W        W 9848  41.987  44.781   4.030
43418W        W 9849  36.894  41.072  12.911
43419W        W 9850  19.734  28.382  10.632
43420W        W 9851  22.378  30.028  12.337
43421W        W 9852  19.462   9.195   0.427
43422W        W 9853  39.494  40.909   0.928
43423W        W 9854   5.944  10.226  13.556
43424W        W 9855  41.972  12.625  10.713
43425W        W 9856  10.227  41.007  11.513
43426W        W 9857  23.457  30.066   3.564
43427W        W 9858  11.271   8.206  13.963
43428W        W 9859   0.839  32.171  10.863
43429W        W 9860  28.554   0.780  10.794
43430W        W 9861  29.646  34.989   4.352
43431W        W 9862   0.793  24.050  11.510
43432W        W 9863  29.391  32.024  10.730
43433W        W 9864  23.161  31.398  13.036
43434W        W 9865  27.226  12.409   2.318
43435W        W 9866  20.459  13.451   0.733
43436W        W 9867  32.456   8.940  12.598
43437W        W 9868  31.980  31.619  11.979
43438W        W 9869  43.529  32.563   0.384
43439W        W 9870   2.393  32.423  10.549
43440W        W 9871   1.611   7.815   0.829
43441W        W 9872  17.792   9.775  11.679
43442W        W 9873  18.842  10.137  14.388
43443W        W 9874  35.962  15.772   0.913
43444W        W 9875  44.384  12.307  12.948
43445W        W 9876  41.560  27.141   4.056
43446W        W 9877   5.888  10.391   0.558
43447W        W 9878  23.626  27.960   0.679
43448W        W 9879  31.126  21.734  10.850
43449W        W 9880   5.184   2.116  14.538
43450W        W 9881  22.991  37.553   0.236
43451W        W 9882  18.929  39.945  10.602
43452W        W 9883   4.115  32.097  13.048
43453W        W 9884  38.313  10.465   2.219
43454W        W 9885  19.291  17.611   2.762
43455W        W 9886  15.146  17.648   3.557
43456W        W 9887  34.826   6.420   3.194
43457W        W 9888  37.303  37.374   4.970
43458W        W 9889  19.694  12.742   4.904
43459W        W 9890  40.856  12.206   4.710
43460W        W 9891  14.105  30.928  12.864
43461W        W 9892  14.059  12.968   2.603
43462W        W 9893  29.702  40.882   0.063
43463W        W 9894   1.630  20.537  14.022
43464W        W 9895  15.791  18.778   4.114
43465W        W 9896  14.269  33.078   0.523
43466W        W 9897   1.621  13.635   3.693
43467W        W 9898  29.525  43.076   4.236
43468W        W 9899  37.768  12.706  12.473
43469W        W 9900  40.435  21.288   0.531
43470W        W 9901  11.575  14.538   5.068
43471W        W 9902  28.054  18.230  13.037
43472W        W 9903  37.477   5.477   0.466
43473W        W 9904   4.686  42.281   0.881
43474W        W 9905  37.596  37.917   1.298
43475W        W 9906  40.663  16.676  12.041
43476W        W 9907  35.229  28.291   2.852
43477W        W 9908  27.482  32.982   1.233
43478W        W 9909  19.169  10.664   1.292
43479W        W 9910  36.080  21.077   2.395
43480W        W 9911   8.255  35.785  11.513
43481W        W 9912  24.436   4.298  14.917
43482W        W 9913  39.533  17.517  12.136
43483W        W 9914   1.644  30.424  11.048
43484W        W 9915   4.622  20.913  12.420
43485W        W 9916   7.360  13.300  14.472
43486W        W 9917   3.065  28.146   3.602
43487W        W 9918  11.346  33.336   2.315
43488W        W 9919  44.564  37.822   0.415
43489W        W 9920   3.621  10.298   0.242
43490W        W 9921  10.330  35.346   4.785
43491W        W 9922  34.017   6.197  12.623
43492W        W 9923   8.305  19.864   4.854
43493W        W 9924   3.985   2.335   3.753
43494W        W 9925   4.855  33.389   1.981
43495W        W 9926  32.753  41.146   4.453
43496W        W 9927   0.985   3.883   4.655
43497W        W 9928  16.125  17.052   2.289
43498W        W 9929   8.358  39.247   1.609
43499W        W 9930  18.736  43.118  12.966
43500W        W 9931  41.600  10.080  12.463
43501W        W 9932  36.939  33.567  14.474
43502W        W 9933  22.457  40.498   2.202
43503W        W 9934  22.997   5.004   2.249
43504W        W 9935  23.127  28.025   0.919
43505W        W 9936   4.784   8.794   0.340
43506W        W 9937   1.243   9.561  10.714
43507W        W 9938   2.294   1.793   9.997
43508W        W 9939  16.001  14.517  14.702
43509W        W 9940  16.132  36.840   3.619
43510W        W 9941   1.441   0.969   4.102
43511W        W 9942  28.963  36.323  12.947
43512W        W 9943  32.321  30.786   1.858
43513W        W 9944  28.748   6.694   0.720
43514W        W 9945  17.227  16.717   0.144
43515W        W 9946   2.692  15.815  10.660
43516W        W 9947  43.466  21.254   4.228
43517W        W 9948  33.533  20.276   0.735
43518W        W 9949   3.902  28.099   1.760
43519W        W 9950  14.284  23.639  14.443
43520W        W 9951  40.801  11.701   3.097
43521W        W 9952  10.710  12.323   0.336
43522W        W 9953  21.276   7.229   0.656
43523W        W 9954  44.834  35.798   4.261
43524W        W 9955  38.758  34.423  10.723
43525W        W 9956  17.378  20.576  11.124
43526W        W 9957   9.364  15.079   4.643
43527W        W 9958  22.927   3.919   1.277
43528W        W 9959  10.219  36.531   0.403
43529W        W 9960  18.069  22.572   2.648
43530W        W 9961   1.940  28.176  14.383
43531W        W 9962  16.912  26.986  13.390
43532W        W 9963  19.119  32.165   1.026
43533W        W 9964  41.406   6.155  11.673
43534W        W 9965  31.649  22.106   2.231
43535W        W 9966   1.777  40.504   0.450
43536W        W 9967  24.097   2.240  14.827
43537W        W 9968  44.771   2.505   3.718
43538W        W 9969  11.851  10.568   1.200
43539W        W 9970  44.372  42.040   3.774
43540W        W 9971  39.870  44.111  12.955
43541W        W 9972  32.166  37.399  11.711
43542W        W 9973  19.251  40.559  11.267
43543W        W 9974  22.112   9.698  14.278
43544W        W 9975  17.439   9.136  13.949
43545W        W 9976  11.224  21.075   4.634
43546W        W 9977  44.314  39.202  13.411
43547W        W 9978  14.189  30.808   3.284
43548W        W 9979   1.240   4.232   0.218
43549W        W 9980   6.023  15.276   1.722
43550W        W 9981  37.595   6.294  13.403
43551W        W 9982  34.253  37.519  10.623
43552W        W 9983  32.778  33.033   1.737
43553W        W 9984  27.173   4.654  12.169
43554W        W 9985  30.146  37.254   4.144
43555W        W 9986  22.557  12.195  14.123
43556W        W 9987  38.499   2.115   0.478
43557W        W 9988  36.490  43.158  12.729
43558W        W 9989  12.299  34.520  12.144
43559W        W 9990   4.901  22.591   4.778
43560W        W 9991   3.792  12.720   4.084
43561W        W 9992   0.643  27.442   1.795
43562W        W 9993   1.975  42.854  11.680
43563W        W 9994  43.487   0.890  13.525
43564W        W 9995  13.703  35.032   1.313
43565W        W 9996   9.771  44.773  11.658
43566W        W 9997   6.245  17.161  14.555
43567W        W 9998  42.487   0.174   4.914
43568W        W 9999  18.664  41.519  10.664
43569W        W10000  18.860  32.999   3.667
43570W        W10001  16.390  31.717  14.401
43571W        W10002  40.595   9.567   0.826
43572W        W10003   4.206   5.005  12.553
43573W        W10004  26.128  31.931  14.389
43574W        W10005  18.083  16.989  12.021
43575W        W10006  41.689  41.392   0.356
43576W        W10007   1.072  26.665   2.201
43577W        W10008  36.592  28.499  10.255
43578W        W10009  28.886  42.579   4.574
43579W        W10010  37.605   6.319  10.959
43580W        W10011  40.564  43.921  12.463
43581W        W10012  19.582  19.391   2.804
43582W        W10013  24.031  28.326  11.656
43583W        W10014  29.538  30.527   4.717
43584W        W10015   3.155  27.542  12.535
43585W        W10016   3.166  19.471   2.735
43586W        W10017   1.762  40.909   2.209
43587W        W10018  32.891   7.341  12.645
43588W        W10019  11.952  21.168  12.001
43589W        W10020   3.534   8.237  11.026
43590W        W10021  30.645   7.808  11.143
43591W        W10022  32.939   8.378   2.957
43592W        W10023  15.323  34.978   4.615
43593W        W10024  28.451  15.043   3.278
43594W        W10025   5.844  30.163   2.077
43595W        W10026   6.193  43.366   1.938
43596W        W10027  15.687  29.734  14.041
43597W        W10028   7.455   2.589  12.948
43598W        W10029   5.470  31.112  13.861
43599W        W10030   2.367   1.462  12.413
43600W        W10031  19.326  30.080  13.458
43601W        W10032  12.215  15.809  12.530
43602W        W10033   4.305  24.940   2.942
43603W        W10034  10.571  25.592  14.994
43604W        W10035  19.399  17.284   2.367
43605W        W10036  25.588  29.938   1.450
43606W        W10037  30.754  28.436  12.415
43607W        W10038  16.661  11.825   0.052
43608W        W10039  37.048   7.991   3.304
43609W        W10040  40.012  34.950  10.616
43610W        W10041   8.207  44.083   4.360
43611W        W10042  35.203  34.532  11.951
43612W        W10043  21.339  34.976   5.056
43613W        W10044  40.589  17.196  12.577
43614W        W10045  41.262   9.434  11.167
43615W        W10046  31.975  17.378  13.487
43616W        W10047  20.022  38.011  12.837
43617W        W10048  22.054  30.153  14.995
43618W        W10049  23.231  40.135   4.978
43619W        W10050  28.755  40.006  11.075
43620W        W10051  26.548  34.400  12.868
43621W        W10052  34.718  39.510   5.351
43622W        W10053   6.948  41.888   3.335
43623W        W10054   7.180  30.642  14.050
43624W        W10055  24.743  12.301   3.375
43625W        W10056  41.756  36.986  11.339
43626W        W10057  16.795  19.207  11.274
43627W        W10058  22.691  11.869  12.281
43628W        W10059  43.867  23.976   3.700
43629W        W10060  38.913  32.639   4.107
43630W        W10061  23.117  12.221   2.903
43631W        W10062   5.284  19.630   0.217
43632W        W10063  21.463  16.228   5.652
43633W        W10064  19.266  16.583  13.435
43634W        W10065  38.480  31.552  14.485
43635W        W10066   6.452  26.102   4.116
43636W        W10067   2.361  42.003   2.191
43637W        W10068   8.800  11.307   1.675
43638W        W10069  15.782  12.469  14.105
43639W        W10070   4.283  42.651   5.124
43640W        W10071  28.716  43.047   4.769
43641W        W10072  26.694   0.545   3.182
43642W        W10073  22.206  16.930  11.487
43643W        W10074  18.763  21.929  13.913
43644W        W10075   3.447  40.510   4.104
43645W        W10076  17.336  24.695   4.133
43646W        W10077  15.867  25.391   1.942
43647W        W10078  33.228  10.095   2.087
43648W        W10079  42.549  24.103   3.856
43649W        W10080  12.758  43.504  10.872
43650W        W10081   8.430  27.370   3.477
43651W        W10082  38.331  10.269  13.300
43652W        W10083  18.487  24.217  12.397
43653W        W10084  11.669   5.710  14.283
43654W        W10085  24.307  40.807  14.784
43655W        W10086  12.860  20.651   4.461
43656W        W10087  20.252  10.252  13.535
43657W        W10088  22.774  41.425   4.164
43658W        W10089  38.406  24.334   4.512
43659W        W10090  33.233   3.879  14.527
43660W        W10091  10.291  16.298  13.508
43661W        W10092  11.105  44.890  10.550
43662W        W10093  34.060  16.830   2.707
43663W        W10094  32.316  20.745   2.313
43664W        W10095  12.241  31.191   0.292
43665W        W10096  21.523  18.280  10.192
43666W        W10097   3.869  42.058   1.256
43667W        W10098  17.876  24.118   4.574
43668W        W10099  25.199  12.231   2.192
43669W        W10100  44.045   7.793   1.249
43670W        W10101  33.601   1.220  11.962
43671W        W10102  16.023   8.277  13.789
43672W        W10103   3.530   4.699   1.670
43673W        W10104  10.638  30.946   4.266
43674W        W10105  23.404  24.507  12.915
43675W        W10106  17.647   1.940   2.939
43676W        W10107  28.698  23.329  11.084
43677W        W10108  39.142  30.910   2.753
43678W        W10109  24.184   3.344  13.051
43679W        W10110  27.030   2.522  14.973
43680W        W10111  29.439  22.027  12.036
43681W        W10112   1.190  12.766   2.472
43682W        W10113  19.001  14.863  12.373
43683W        W10114  18.306   6.948   0.927
43684W        W10115   9.756  30.455  11.618
43685W        W10116  31.327  15.678  14.380
43686W        W10117  28.669   2.311   3.087
43687W        W10118  12.950   5.189  14.255
43688W        W10119  16.024  13.870  13.026
43689W        W10120  12.864  11.649   1.854
43690W        W10121  16.724   8.259   0.529
43691W        W10122  21.529  43.870   2.756
43692W        W10123  15.184   8.860   3.888
43693W        W10124   5.210   8.839   1.445
43694W        W10125  11.512  33.661  12.805
43695W        W10126  43.284  35.753   0.452
43696W        W10127   5.925  30.009  14.746
43697W        W10128  31.285   9.361  14.568
43698W        W10129   6.088  22.043   0.765
43699W        W10130  31.820  10.683  12.698
43700W        W10131  35.090  29.378  14.840
43701W        W10132  44.508  33.899   3.395
43702W        W10133   4.923   7.729  14.221
43703W        W10134   4.146  19.665   2.622
43704W        W10135   7.355  29.950  12.352
43705W        W10136  35.861  21.462  12.019
43706W        W10137  38.316  31.123  12.086
43707W        W10138   1.235  22.734  14.965
43708W        W10139  21.886  28.407   4.411
43709W        W10140  19.999  18.818  12.823
43710W        W10141  12.202   2.226  11.522
43711W        W10142  22.114   5.001  13.956
43712W        W10143  34.854   3.459   5.049
43713W        W10144  35.196  10.692  14.456
43714W        W10145  11.844   9.299  14.485
43715W        W10146  43.477  38.386   1.751
43716W        W10147  35.868  12.058   4.282
43717W        W10148  35.631  36.987   3.592
43718W        W10149   6.885  36.007   3.669
43719W        W10150  36.059  31.118  11.645
43720W        W10151  33.100   4.020  13.854
43721W        W10152   6.101   0.880   0.201
43722W        W10153  11.989  13.396  13.623
43723W        W10154  16.802  35.609  14.862
43724W        W10155  18.745   9.740  12.039
43725W        W10156  22.001   0.676  11.026
43726W        W10157  42.935  28.976  14.349
43727W        W10158  11.862  40.610  12.626
43728W        W10159  15.127  17.314   2.609
43729W        W10160   7.253  38.003  11.202
43730W        W10161  40.332   6.739  13.173
43731W        W10162  14.348  27.701  14.778
43732W        W10163  42.351  31.252  11.964
43733W        W10164   0.772   8.935  10.570
43734W        W10165   6.794  42.917   3.217
43735W        W10166  10.384  16.465   1.058
43736W        W10167   4.898  21.344   3.222
43737W        W10168  18.536  42.493   2.695
43738W        W10169  36.486  20.128   2.139
43739W        W10170  32.941  33.000  11.996
43740W        W10171   3.783  25.375  12.984
43741W        W10172  16.060   4.752   0.899
43742W        W10173  15.718   3.394  14.833
43743W        W10174  34.555   4.803  11.126
43744W        W10175  16.184  17.316  12.893
43745W        W10176  32.826   4.330   3.611
43746W        W10177  23.521   9.741   0.189
43747W        W10178  35.845  12.152  14.915
43748W        W10179  36.225  35.860  12.894
43749W        W10180  32.362  44.058  10.889
43750W        W10181   7.100  40.081  14.855
43751W        W10182  40.484  33.348   2.815
43752W        W10183  20.223  13.054   4.633
43753W        W10184   9.690  44.949  13.472
43754W        W10185  38.606  19.201  12.071
43755W        W10186  32.076  12.269  13.286
43756W        W10187  13.313  30.590  12.797
43757W        W10188  31.816  26.341  12.540
43758W        W10189   9.746  44.493  10.351
43759W        W10190  28.907   5.902  14.816
43760W        W10191  15.231   9.234   4.687
43761W        W10192   3.678  38.005   2.236
43762W        W10193  24.206  19.142   0.514
43763W        W10194  27.283  32.536  13.997
43764W        W10195  44.489  19.176   1.655
43765W        W10196  17.063  38.051   1.618
43766W        W10197  14.803  21.931  13.591
43767W        W10198  14.528  12.237   2.877
43768W        W10199  22.137  20.060   1.251
43769W        W10200  17.381   0.923  12.978
43770W        W10201  26.061   1.562  12.078
43771W        W10202  34.541  40.124  13.553
43772W        W10203  31.488  30.714   0.181
43773W        W10204   1.836   0.350   2.139
43774W        W10205   0.828  30.483  14.308
43775W        W10206   9.223  19.570  14.678
43776W        W10207  31.422   6.206  11.169
43777W        W10208  12.769   6.372  11.123
43778W        W10209  21.128  35.064   0.282
43779W        W10210  23.591  19.747  14.895
43780W        W10211  20.135   3.446  12.713
43781W        W10212  14.765  38.451   1.951
43782W        W10213  26.722   8.064  13.796
43783W        W10214  41.732   5.664   0.961
43784W        W10215  41.518  16.567   2.144
43785W        W10216  40.484  23.209  11.544
43786W        W10217  28.994  10.182  11.329
43787W        W10218  14.213  14.225  10.744
43788W        W10219  10.202  31.061  13.518
43789W        W10220  24.119  25.530  10.490
43790W        W10221  20.603  20.593   3.356
43791W        W10222  11.151  40.290  12.095
43792W        W10223  19.994  33.534  10.421
43793W        W10224   6.819  28.591  12.630
43794W        W10225  14.494  30.487  14.100
43795W        W10226  23.651   7.171  13.006
43796W        W10227  29.962   5.288   1.926
43797W        W10228  26.645  24.813   0.992
43798W        W10229  19.183  43.771   1.681
43799W        W10230   8.995  34.526  14.783
43800W        W10231  40.958  19.797  11.973
43801W        W10232   2.999  38.037   3.219
43802W        W10233  36.298  25.595  13.060
43803W        W10234   4.014  20.889   3.549
43804W        W10235  20.723   9.809  13.564
43805W        W10236  37.331  18.820  13.880
43806W        W10237   1.808  12.084  14.294
43807W        W10238  20.243   2.873   1.037
43808W        W10239   2.825  16.804   4.456
43809W        W10240  18.056  42.248   1.013
43810W        W10241  20.016   7.943   0.022
43811W        W10242  32.413  44.780  14.071
43812W        W10243  14.202  35.690  14.051
43813W        W10244  30.895  27.503  10.721
43814W        W10245  19.021   7.092   1.646
43815W        W10246  17.133  35.085  13.118
43816W        W10247  25.098   1.515  11.043
43817W        W10248  25.952  13.213   4.312
43818W        W10249  10.853  31.080   2.719
43819W        W10250  42.192  28.836   0.804
43820W        W10251  14.174  17.627   1.195
43821W        W10252  11.909  25.038  11.127
43822W        W10253  16.349  23.444   3.685
43823W        W10254  34.380  24.111  11.915
43824W        W10255  25.389  12.221   2.708
43825W        W10256   8.962  33.409   3.296
43826W        W10257  13.943  32.945   3.965
43827W        W10258  33.420  17.511   3.556
43828W        W10259  33.426  27.546  13.117
43829W        W10260   4.669  20.191   1.828
43830W        W10261  16.020  43.897  11.310
43831W        W10262  32.586  36.493  11.657
43832W        W10263  12.732   4.251   4.695
43833W        W10264   6.674  33.914  14.901
43834W        W10265  22.106   6.960  10.673
43835W        W10266  33.603  13.752  10.607
43836W        W10267  34.974  36.119  12.481
43837W        W10268  37.394   0.524   1.822
43838W        W10269  14.603  35.993  14.182
43839W        W10270  31.624  22.899  10.661
43840W        W10271  16.595  28.974   1.410
43841W        W10272  13.326  16.881   3.362
43842W        W10273   7.742  23.775  11.540
43843W        W10274  42.507  24.584   0.506
43844W        W10275  28.028  27.709   2.474
43845W        W10276  35.656  18.168  13.885
43846W        W10277  13.164  19.058   0.985
43847W        W10278  43.733  17.687  12.160
43848W        W10279  37.336  14.669   0.309
43849W        W10280  17.778   1.297  14.305
43850W        W10281   8.633   9.915   3.193
43851W        W10282  10.262  31.484  10.070
43852W        W10283  20.105  31.071  10.744
43853W        W10284  19.204  22.996  14.682
43854W        W10285  16.752  32.419   4.576
43855W        W10286  25.289  13.159   3.666
43856W        W10287  34.623  21.801   2.140
43857W        W10288   5.967  11.945  10.937
43858W        W10289  25.077  38.646  14.514
43859W        W10290  40.234  31.809   2.773
43860W        W10291  31.721  27.540   1.776
43861W        W10292  17.744  37.757  10.554
43862W        W10293  22.559  32.794   3.535
43863W        W10294   7.872  26.696   5.336
43864W        W10295  44.204  36.007  12.040
43865W        W10296  37.501  37.780  12.095
43866W        W10297  14.093   8.185  12.024
43867W        W10298  31.610  41.549  11.168
43868W        W10299   5.367  26.631  11.753
43869W        W10300  12.358  23.508  14.865
43870W        W10301  37.024   7.636   4.736
43871W        W10302  30.531  24.220  11.826
43872W        W10303  32.903  24.197   3.262
43873W        W10304  29.505   9.360   5.629
43874W        W10305   6.763  17.977  10.046
43875W        W10306  20.539  28.359   2.340
43876W        W10307  37.413  10.807  13.353
43877W        W10308  40.611  31.683  10.314
43878W        W10309  20.993  33.417  10.581
43879W        W10310  17.140  37.460  14.373
43880W        W10311   9.176  26.894  11.252
43881W        W10312  44.672  28.778  12.532
43882W        W10313   1.363  30.029   0.492
43883W        W10314  32.841  15.879  12.616
43884W        W10315  16.910  24.212  11.704
43885W        W10316  22.552  10.435   2.963
43886W        W10317  19.644  27.132  13.869
43887W        W10318  20.783  16.631   1.660
43888W        W10319  31.989   2.083   0.864
43889W        W10320   1.839  39.283  14.906
43890W        W10321  33.504   1.601  12.348
43891W        W10322  42.256  14.294  11.525
43892W        W10323  31.464  12.388   1.418
43893W        W10324   3.910  29.421  11.545
43894W        W10325  31.991   3.507   2.736
43895W        W10326  13.646  20.598  14.643
43896W        W10327  26.925  12.343  14.941
43897W        W10328  27.875  22.143   0.850
43898W        W10329  34.105  43.029   4.571
43899W        W10330   1.376   0.461  12.290
43900W        W10331  10.027  10.878  14.897
43901W        W10332   5.701   6.114  14.700
43902W        W10333  44.447  37.329   0.295
43903W        W10334  13.833   5.984   1.298
43904W        W10335  35.087  10.709  13.479
43905W        W10336  20.118  31.831  13.894
43906W        W10337   2.424  25.203  10.916
43907W        W10338  34.920  44.632  14.297
43908W        W10339  19.009  37.245   1.616
43909W        W10340   8.733  29.290  11.668
43910W        W10341  42.397  34.023   2.382
43911W        W10342   8.853  26.999   4.688
43912W        W10343  41.251  15.841  13.515
43913W        W10344  20.295   8.383  14.157
43914W        W10345  12.605  33.415   3.834
43915W        W10346   7.788   5.352  10.645
43916W        W10347  30.662  26.664  13.835
43917W        W10348  31.941  40.999   2.493
43918W        W10349   6.315  20.636   1.542
43919W        W10350  32.201  28.563  12.662
43920W        W10351  20.491  41.632  10.711
43921W        W10352   5.111  33.308   4.162
43922W        W10353  24.449  28.534  13.477
43923W        W10354  32.862  28.037   0.797
43924W        W10355  41.415  23.388   2.094
43925W        W10356  19.591   7.223  12.048
43926W        W10357   8.843  19.349   4.505
43927W        W10358   7.636   2.356   1.336
43928W        W10359  12.614   7.929  11.114
43929W        W10360  23.902  19.386   1.366
43930W        W10361  18.979  38.958  13.527
43931W        W10362  23.001  39.458   0.298
43932W        W10363  33.843  37.186   0.664
43933W        W10364   1.501  24.962   3.625
43934W        W10365  31.080  10.554  12.632
43935W        W10366  26.271  36.829   2.193
43936W        W10367   6.720  27.727  14.394
43937W        W10368  25.724   7.580   4.548
43938W        W10369  14.653  32.022   0.653
43939W        W10370  18.315  14.283   0.956
43940W        W10371  32.177   5.675   0.834
43941W        W10372  11.804  17.055  12.417
43942W        W10373  17.732  19.578   1.244
43943W        W10374  20.838  15.235   0.342
43944W        W10375   5.189  22.168   4.599
43945W        W10376  10.088  18.730   2.367
43946W        W10377  19.563  25.984   3.673
43947W        W10378  18.211  32.633  14.225
43948W        W10379  37.857  15.905   3.262
43949W        W10380  29.056  22.943  14.188
43950W        W10381   4.392  15.772  11.123
43951W        W10382  41.300   4.186   0.772
43952W        W10383  11.428  24.232  13.478
43953W        W10384  35.035  44.680   0.219
43954W        W10385  44.799   6.332  13.915
43955W        W10386  12.119  25.622  13.353
43956W        W10387  31.607  16.238  13.142
43957W        W10388   9.355  44.241   4.640
43958W        W10389  25.594   7.896   1.626
43959W        W10390  35.577  11.336  12.360
43960W        W10391  30.475   5.732  14.865
43961W        W10392  32.153  22.021  12.024
43962W        W10393   1.842   5.736   3.794
43963W        W10394  33.573  16.576   1.699
43964W        W10395   2.393   8.211  11.845
43965W        W10396  33.041  32.051  13.010
43966W        W10397  14.598  39.419   2.659
43967W        W10398  40.988  34.561   4.334
43968W        W10399  13.705  39.898   2.734
43969W        W10400  11.173  18.613  13.121
43970W        W10401  20.097  12.433   2.278
43971W        W10402  34.443  13.060   1.910
43972W        W10403  21.717  10.704  10.886
43973W        W10404  38.295   5.653   3.198
43974W        W10405  20.614  14.555  11.562
43975W        W10406  43.976  30.597  11.012
43976W        W10407   3.187   5.649  10.702
43977W        W10408  29.726  34.691  12.540
43978W        W10409  39.448   3.724  13.351
43979W        W10410   5.316  30.227   4.993
43980W        W10411   8.362  39.417   3.213
43981W        W10412  38.163  29.760  14.383
43982W        W10413  32.376  24.428  10.779
43983W        W10414  27.148   0.958  13.062
43984W        W10415  13.662  11.912   2.902
43985W        W10416   9.150  24.015   0.397
43986W        W10417  28.464  40.338  14.748
43987W        W10418   3.855  20.771  11.712
43988W        W10419  33.055  37.887  12.028
43989W        W10420  31.928  16.839   4.152
43990W        W10421  39.288   7.551  12.554
43991W        W10422  18.688  33.451   0.960
43992W        W10423  16.541  30.101   2.909
43993W        W10424  40.318  39.365  10.615
43994W        W10425  41.048   3.160   5.122
43995W        W10426  32.353  42.267  14.761
43996W        W10427   6.360  18.059   2.336
43997W        W10428  32.477  26.013   1.966
43998W        W10429   4.360  18.218   2.663
43999W        W10430  35.009  21.874   3.192
44000W        W10431  25.643  10.610  14.538
44001W        W10432  10.477  38.003   3.765
44002W        W10433   3.439  13.734   2.203
44003W        W10434   3.666  38.549  10.247
44004W        W10435  23.338  13.582   4.581
44005W        W10436  32.502  34.578  10.993
44006W        W10437  21.360  18.535   4.631
44007W        W10438  24.746   0.442   2.227
44008W        W10439  39.786   4.412   1.217
44009W        W10440  31.655  16.690   4.563
44010W        W10441  40.041  44.371  11.833
44011W        W10442  29.935  19.146   4.087
44012W        W10443   7.749  31.804  11.764
44013W        W10444  15.655  15.083   1.289
44014W        W10445  16.803  16.733  12.952
44015W        W10446   4.894  15.655   2.224
44016W        W10447  17.670   5.818  12.437
44017W        W10448  33.623  43.097  14.522
44018W        W10449  37.425  17.613  11.013
44019W        W10450   8.259  10.766   4.175
44020W        W10451  12.665  43.397  14.505
44021W        W10452  43.177   1.859  10.484
44022W        W10453  29.292  42.331  11.219
44023W        W10454  12.535  13.599   2.057
44024W        W10455  39.628  18.926  13.998
44025W        W10456  10.868  29.248   4.580
44026W        W10457  10.756  18.379   4.167
44027W        W10458  44.491  19.499  12.059
44028W        W10459  43.328   4.574  14.604
44029W        W10460  23.748  43.845   1.964
44030W        W10461  16.999  24.625   2.303
44031W        W10462  12.143  15.793   1.911
44032W        W10463  29.718  43.969  12.202
44033W        W10464  35.517  41.323  11.245
44034W        W10465  22.788  41.838  12.118
44035W        W10466  33.091  32.876   4.583
44036W        W10467   6.581   1.299  11.148
44037W        W10468  18.273   9.119  13.126
44038W        W10469  42.497   7.875   4.986
44039W        W10470  24.021  17.308  11.513
44040W        W10471  29.979  17.021   3.795
44041W        W10472  22.095   4.698   4.079
44042W        W10473  31.169  36.395   0.799
44043W        W10474  44.605  19.359   4.961
44044W        W10475  37.787  42.822   1.352
44045W        W10476  20.802  26.809  11.036
44046W        W10477  40.038   5.371   0.291
44047W        W10478  43.256   2.912  11.577
44048W        W10479  42.278  25.012   3.873
44049W        W10480  12.309  39.354  14.268
44050W        W10481  33.291  41.559  11.010
44051W        W10482   0.867  40.840  13.388
44052W        W10483   3.394  33.828  12.906
44053W        W10484   1.171   9.265   3.729
44054W        W10485  16.240  21.400  11.927
44055W        W10486  21.916   4.218   4.164
44056W        W10487  10.247  21.085   2.295
44057W        W10488  35.997  41.893   3.127
44058W        W10489   9.438  33.435   4.775
44059W        W10490  35.791  41.804  12.980
44060W        W10491  41.296  30.972   0.299
44061W        W10492   6.874  23.889   1.636
44062W        W10493   8.660  40.255   2.317
44063W        W10494  13.012  37.065  10.843
44064W        W10495  28.416  27.996  14.435
44065W        W10496  20.555  31.445   0.273
44066W        W10497  36.763  30.483  12.408
44067W        W10498  34.060  23.682  11.219
44068W        W10499   1.917  38.039  14.839
44069W        W10500  40.067  11.817   1.244
44070W        W10501  39.079   1.987   1.339
44071W        W10502  33.696  33.807  14.783
44072W        W10503  40.453  30.214  14.946
44073W        W10504  44.107  42.906  13.512
44074W        W10505  13.297  33.109  14.621
44075W        W10506  34.113   4.468   3.094
44076W        W10507  14.606  27.619   2.673
44077W        W10508  44.744  41.952  10.461
44078W        W10509  16.758  23.343  11.999
44079W        W10510  26.508  13.562   2.269
44080W        W10511  27.131  34.143   4.692
44081W        W10512  30.510  11.545   2.298
44082W        W10513  17.609  26.162  10.708
44083W        W10514  33.573  32.226  13.363
44084W        W10515   9.749  19.711  10.843
44085W        W10516  25.456  39.663  12.348
44086W        W10517   0.850  39.783   3.022
44087W        W10518  43.952   9.205   2.850
44088W        W10519  29.719  10.442  11.796
44089W        W10520  41.579  11.139  14.524
44090W        W10521  42.929  10.651   3.172
44091W        W10522  30.059  26.949   1.819
44092W        W10523  26.309  30.124   0.528
44093W        W10524  17.069  22.146   1.354
44094W        W10525  17.669  25.673   0.189
44095W        W10526  18.626   1.398   2.821
44096W        W10527  28.084  12.259  10.170
44097W        W10528  25.595  10.819   3.637
44098W        W10529  21.112  41.521  10.752
44099W        W10530  30.409  29.585   4.589
44100W        W10531  27.871  38.814   1.340
44101W        W10532   3.036  33.004  13.741
44102W        W10533   6.278  43.368   4.655
44103W        W10534  35.525   5.748   2.405
44104W        W10535  26.507  36.801   4.558
44105W        W10536  43.660  37.522  12.919
44106W        W10537  37.864   5.735   3.489
44107W        W10538  18.095  16.325  12.884
44108W        W10539  20.514  24.990   0.706
44109W        W10540   2.899  44.225   0.890
44110W        W10541  28.106  34.033  13.386
44111W        W10542   1.420   8.207  14.534
44112W        W10543   7.630  18.283  12.857
44113W        W10544  37.083  14.108   1.820
44114W        W10545  33.124  12.655  14.994
44115W        W10546  11.633  14.788  13.346
44116W        W10547  43.857   8.707   2.951
44117W        W10548   9.780   8.930   3.210
44118W        W10549  25.570   9.498   3.341
44119W        W10550  16.613   6.406   0.002
44120W        W10551   8.012  29.166   1.881
44121W        W10552  35.102  18.724  12.666
44122W        W10553  15.125  43.322   3.350
44123W        W10554  34.469   8.270   1.472
44124W        W10555  20.145   9.605   2.397
44125W        W10556  37.501   3.890   4.588
44126W        W10557   6.201  38.955  10.329
44127W        W10558  33.326  12.315   3.134
44128W        W10559  12.101  17.295   1.729
44129W        W10560   0.191  25.566  11.377
44130W        W10561  17.635  39.369  14.447
44131W        W10562  18.632  10.958  12.884
44132W        W10563  19.969  16.625  13.000
44133W        W10564  11.838  11.660   0.029
44134W        W10565  29.131  28.646  12.949
44135W        W10566   1.663  28.509  14.695
44136W        W10567   4.472  31.393   3.274
44137W        W10568  41.347   2.788  11.699
44138W        W10569  26.831  43.158   3.103
44139W        W10570   3.059   8.516   5.004
44140W        W10571   1.442   6.354  11.036
44141W        W10572   5.770  18.714   2.730
44142W        W10573  32.648  44.454  14.398
44143W        W10574  33.164  33.757  12.560
44144W        W10575  23.315  22.880   5.032
44145W        W10576  10.092  41.388   3.390
44146W        W10577  31.889  15.750   2.388
44147W        W10578  36.049   1.773   3.138
44148W        W10579  27.672  31.149   0.936
44149W        W10580   7.805  40.324   3.897
44150W        W10581  18.132  24.034   0.135
44151W        W10582  19.228  18.593   0.410
44152W        W10583  28.699  22.020  11.573
44153W        W10584  22.489  16.629   2.850
44154W        W10585  27.209   6.951   3.014
44155W        W10586  37.338  10.795   2.117
44156W        W10587   6.034  15.869  11.078
44157W        W10588  44.267   5.301   4.229
44158W        W10589  33.987  37.106  14.335
44159W        W10590  42.380   0.716  10.595
44160W        W10591  16.389  25.002   4.440
44161W        W10592  44.429  25.980   2.727
44162W        W10593  39.089   6.801   1.417
44163W        W10594  38.893  41.676  12.131
44164W        W10595   9.722   5.934  13.410
44165W        W10596  44.308  22.746   4.128
44166W        W10597  40.121  40.998  13.394
44167W        W10598  27.767  15.963   2.925
44168W        W10599  39.517   9.803  11.213
44169W        W10600  13.250   0.365   0.647
44170W        W10601  13.866  14.595  10.709
44171W        W10602  22.008  19.895   5.019
44172W        W10603  12.318  12.706   4.462
44173W        W10604  28.434  25.417   3.290
44174W        W10605  26.579  36.135  14.808
44175W        W10606  44.936  14.866   1.479
44176W        W10607  16.282  15.334   4.654
44177W        W10608  10.728   7.681   1.270
44178W        W10609   7.872  31.638   1.246
44179W        W10610  16.311  23.354   2.159
44180W        W10611  42.363  43.316   0.922
44181W        W10612  17.011  10.348  11.023
44182W        W10613  35.952  27.224   2.935
44183W        W10614  21.654  36.022   9.904
44184W        W10615  38.515  39.454   0.231
44185W        W10616  16.515   6.322  12.429
44186W        W10617  44.029   4.301  11.659
44187W        W10618  26.250  28.424   0.949
44188W        W10619   0.810   6.455   4.135
44189W        W10620  10.238  14.364  12.057
44190W        W10621  32.114   4.729  14.986
44191W        W10622  22.551   1.760   0.391
44192W        W10623  35.970  24.872  14.414
44193W        W10624  31.813   5.339   5.032
44194W        W10625   3.312  36.508   3.182
44195W        W10626  14.348  35.241  12.157
44196W        W10627  40.472  39.122  13.452
44197W        W10628  26.017  38.389  12.485
44198W        W10629  36.141  28.152  13.859
44199W        W10630  25.720  21.473   4.542
44200W        W10631  14.426  10.053   2.424
44201W        W10632  17.208  32.167  11.153
44202W        W10633  22.595  30.633  12.964
44203W        W10634   9.169  22.331   2.891
44204W        W10635  37.588  31.267  10.796
44205W        W10636  35.582   6.733   0.385
44206W        W10637  16.158   2.421   3.635
44207W        W10638  29.586  42.757   3.854
44208W        W10639   8.889  21.256   3.249
44209W        W10640  27.228  31.460   0.013
44210W        W10641  44.329  13.620  12.482
44211W        W10642   4.083  19.987  13.580
44212W        W10643   1.006  33.062  10.936
44213W        W10644  31.385  37.043   4.566
44214W        W10645  17.437  17.196  13.409
44215W        W10646  15.294  42.532   2.682
44216W        W10647  11.073   5.016   0.757
44217W        W10648  21.233   8.642  12.186
44218W        W10649  11.721  32.677   2.817
44219W        W10650  24.635  15.146  11.969
44220W        W10651   3.220  34.182  13.781
44221W        W10652   9.385  24.191  14.939
44222W        W10653  34.090  33.153   3.905
44223W        W10654  16.799  30.939   4.591
44224W        W10655  11.860  42.896  12.369
44225W        W10656  31.225  37.587   5.276
44226W        W10657  33.451   2.487  14.300
44227W        W10658  23.711  17.494   4.996
44228W        W10659  13.060  24.609   0.418
44229W        W10660  32.330  29.070   2.402
44230W        W10661  27.470  25.730  11.642
44231W        W10662   2.894  38.380   0.426
44232W        W10663  41.103  33.078   3.936
44233W        W10664  32.044  23.809  12.593
44234W        W10665  30.591   8.157   3.992
44235W        W10666  41.305  20.240  14.764
44236W        W10667  11.212  10.086   2.240
44237W        W10668   5.886   9.437  13.891
44238W        W10669   9.416  32.884   0.323
44239W        W10670  42.045   3.243  14.023
44240W        W10671  27.006  26.747  13.273
44241W        W10672  20.677  35.692  10.971
44242W        W10673  28.567  36.061   0.621
44243W        W10674  36.988  10.881   2.505
44244W        W10675  43.450  10.346  10.181
44245W        W10676  23.176  10.982   1.293
44246W        W10677  10.024  32.787   2.218
44247W        W10678  22.722  23.188   0.997
44248W        W10679  42.863  39.993   4.646
44249W        W10680   1.475  33.907   1.188
44250W        W10681   3.215  41.880   2.359
44251W        W10682  37.569  16.081   1.974
44252W        W10683  18.683  42.380  14.115
44253W        W10684   2.009  29.469   2.737
44254W        W10685  27.417  18.591  10.513
44255W        W10686  34.293  30.754  14.444
44256W        W10687  11.247  16.200   3.648
44257W        W10688  43.512   3.282  13.243
44258W        W10689  34.989   9.868  11.170
44259W        W10690  38.405  24.115   1.485
44260W        W10691  41.579  17.488   1.748
44261W        W10692  42.070  43.870   1.870
44262W        W10693  20.221   9.448  12.379
44263W        W10694  35.290  24.097  14.776
44264W        W10695   4.497   2.325   3.710
44265W        W10696   5.461  30.016  14.573
44266W        W10697  41.136  17.216   0.465
44267W        W10698  17.451  43.685   2.127
44268W        W10699  20.618  22.190   0.802
44269W        W10700  35.833  20.175  14.817
44270W        W10701  37.878   0.841  14.297
44271W        W10702  24.806   8.658  10.450
44272W        W10703   2.823  33.167   1.193
44273W        W10704   9.727  41.485  13.067
44274W        W10705  26.927  33.905  11.607
44275W        W10706  30.036  17.157   4.700
44276W        W10707  42.439  32.038  13.625
44277W        W10708   3.365   6.972   2.253
44278W        W10709  38.023  29.217   0.016
44279W        W10710  10.817  31.473   2.364
44280W        W10711  28.542  12.848  12.669
44281W        W10712  11.836  31.173   2.479
44282W        W10713   8.626  29.154   2.156
44283W        W10714  28.096   4.267   0.538
44284W        W10715   5.310   9.148  11.604
44285W        W10716  35.010  16.069   2.446
44286W        W10717  44.626  36.861   3.608
44287W        W10718  30.772  13.547  14.952
44288W        W10719   1.675  35.351  11.746
44289W        W10720  17.981  27.451  13.967
44290W        W10721  20.774  31.029   0.525
44291W        W10722  26.564  23.530  12.909
44292W        W10723  11.085  22.064   0.429
44293W        W10724   3.515  26.034   2.684
44294W        W10725  23.101  28.532  14.848
44295W        W10726  26.846  42.498  14.536
44296W        W10727   4.121  22.456  13.360
44297W        W10728  23.671  23.580  11.266
44298W        W10729  21.021  17.136   3.706
44299W        W10730  12.621  33.501   2.217
44300W        W10731   9.576  22.450  14.933
44301W        W10732  10.110  21.003   2.816
44302W        W10733  34.524  43.432   2.456
44303W        W10734  42.108  23.059   2.854
44304W        W10735  26.744  18.076   0.247
44305W        W10736  23.036  40.546  14.402
44306W        W10737   3.583  32.026   2.572
44307W        W10738  30.067  17.909   2.611
44308W        W10739  38.459  20.634   3.163
44309W        W10740  35.694  21.313   3.427
44310W        W10741  14.651  28.032  11.857
44311W        W10742  18.783   8.812  14.959
44312W        W10743  33.386  19.045  14.482
44313W        W10744  14.591  15.147  14.427
44314W        W10745  26.607   9.166  12.838
44315W        W10746  40.091  40.420  11.565
44316W        W10747   0.556  40.358  14.240
44317W        W10748   2.845   6.394   3.710
44318W        W10749  43.311  12.538   1.379
44319W        W10750  13.396  17.098   2.892
44320W        W10751  29.983  23.525   0.323
44321W        W10752  16.461  31.574   3.435
44322W        W10753  11.303   9.293  13.746
44323W        W10754  22.413  25.193  11.146
44324W        W10755  22.548  36.037   2.372
44325W        W10756   0.597  11.356  12.992
44326W        W10757  15.544  10.813  11.404
44327W        W10758  44.359  36.980  13.123
44328W        W10759  40.291   6.770  11.597
44329W        W10760  29.679   3.024   1.912
44330W        W10761  44.586  27.474  10.161
44331W        W10762  40.098  31.542  14.795
44332W        W10763  16.572  35.642   0.319
44333W        W10764   9.087   2.270   4.008
44334W        W10765  44.401  11.762   1.996
44335W        W10766  19.991  44.495  13.978
44336W        W10767  11.159   5.878   4.622
44337W        W10768  12.819  40.233   0.817
44338W        W10769  28.684  23.499  14.966
44339W        W10770  44.498   7.850   4.032
44340W        W10771  20.167   9.638   1.078
44341W        W10772  42.876  12.161   3.094
44342W        W10773  16.843  15.574  12.073
44343W        W10774  42.854  31.175  12.122
44344W        W10775  27.775   9.723   3.585
44345W        W10776  24.149   5.363   0.519
44346W        W10777  18.744  37.918   4.213
44347W        W10778  14.223  36.624  14.926
44348W        W10779  23.702  37.293   4.511
44349W        W10780  19.994  43.538   1.796
44350W        W10781  27.096  19.158  13.861
44351W        W10782  33.907  32.296   2.852
44352W        W10783  16.180   9.208  11.185
44353W        W10784  36.412  26.907   4.751
44354W        W10785  17.614  24.150   2.820
44355W        W10786   3.344   0.888  14.342
44356W        W10787  42.285  22.024  14.687
44357W        W10788  15.175  26.285   5.080
44358W        W10789  37.983  18.978   3.720
44359W        W10790  27.477  38.364   2.227
44360W        W10791   8.376  31.618   3.034
44361W        W10792  22.842  20.239  10.620
44362W        W10793  30.621  37.021  11.940
44363W        W10794   7.344  30.183  11.391
44364W        W10795  32.703  40.499  11.072
44365W        W10796  18.503  40.782   2.307
44366W        W10797  18.967  18.760   0.847
44367W        W10798  30.144   5.055   4.801
44368W        W10799  41.904   1.382   3.682
44369W        W10800  37.975   8.196   1.598
44370W        W10801  44.528  38.061  14.512
44371W        W10802  30.062  25.580  14.477
44372W        W10803   0.376  29.926  10.689
44373W        W10804  40.854   8.835   4.690
44374W        W10805  37.673  12.767   0.304
44375W        W10806   4.663  11.437   3.706
44376W        W10807  17.273  28.714   0.950
44377W        W10808  37.458  35.831   4.193
44378W        W10809   5.022  29.149  11.160
44379W        W10810  22.760  22.866   0.229
44380W        W10811  44.336  27.074   1.717
44381W        W10812  19.704  21.244  14.980
44382W        W10813  22.815  13.766   0.201
44383W        W10814  10.743  33.920   4.556
44384W        W10815  24.273  37.326  10.757
44385W        W10816   1.908  11.593  13.039
44386W        W10817  34.411  13.053  13.080
44387W        W10818  36.601  26.201  12.945
44388W        W10819   8.357  20.105  13.322
44389W        W10820  19.642  32.661  12.902
44390W        W10821  22.150   1.029   2.367
44391W        W10822  18.421  41.219   9.772
44392W        W10823  19.262   4.676  12.543
44393W        W10824   1.161   6.897  13.382
44394W        W10825  34.000  33.194   3.359
44395W        W10826  10.964  39.395  12.260
44396W        W10827  10.518   7.654  11.595
44397W        W10828  31.906  25.004   2.907
44398W        W10829  41.309  26.690   1.732
44399W        W10830  26.854  14.372   2.471
44400W        W10831  28.903  40.257   4.504
44401W        W10832  22.051   7.451  11.607
44402W        W10833  43.781   1.301  14.768
44403W        W10834  21.045  41.301   3.313
44404W        W10835   2.641  12.908   1.683
44405W        W10836  41.221  10.144  11.619
44406W        W10837  26.043   2.970  11.637
44407W        W10838  26.418  42.934  14.740
44408W        W10839   3.401  44.416   0.988
44409W        W10840  18.502  38.399  11.130
44410W        W10841   4.133  27.784  10.425
44411W        W10842  39.275   6.272   3.399
44412W        W10843  20.886   5.580   0.839
44413W        W10844  30.066  36.539   4.531
44414W        W10845  14.284  39.849   4.309
44415W        W10846  43.844  28.847  13.508
44416W        W10847  22.993  21.720   1.575
44417W        W10848  10.485  16.470   4.120
44418W        W10849  25.501  40.221   4.630
44419W        W10850   1.740  26.166   3.606
44420W        W10851  34.936  22.568  12.062
44421W        W10852   2.772   8.557  13.487
44422W        W10853   7.192   1.015   3.579
44423W        W10854  26.593  25.649  13.667
44424W        W10855  24.590  37.095   4.594
44425W        W10856  36.403  44.430   0.297
44426W        W10857  32.867   0.950   1.761
44427W        W10858   3.184   1.426  11.491
44428W        W10859  40.543  37.592  10.797
44429W        W10860  14.880   0.897   1.927
44430W        W10861  13.521   6.573   2.862
44431W        W10862  34.868  31.565   4.227
44432W        W10863   2.929  44.028  12.860
44433W        W10864  42.992  12.931   1.234
44434W        W10865  33.920  37.734  12.110
44435W        W10866  12.662  38.001  11.885
44436W        W10867  44.952  15.408  13.129
44437W        W10868  20.250  39.842   3.620
44438W        W10869  13.935  19.436   1.505
44439W        W10870  30.871  20.189   0.154
44440W        W10871   6.370   5.545   0.684
44441W        W10872  25.284  24.887  14.522
44442W        W10873  24.242   5.407  11.665
44443W        W10874  43.731  10.726  12.965
44444W        W10875  16.885  41.388  10.401
44445W        W10876  24.681  37.293  12.557
44446W        W10877   4.297  30.869  11.131
44447W        W10878   8.661  14.766  13.874
44448W        W10879  13.179  28.426  11.141
44449W        W10880  38.469  41.346   4.604
44450W        W10881  25.334  42.226  11.613
44451W        W10882  19.724  23.074  14.845
44452W        W10883  40.968   6.348  11.897
44453W        W10884  20.669  35.386   3.728
44454W        W10885  11.850   1.454   1.467
44455W        W10886  21.403  39.239   3.178
44456W        W10887   9.655  26.607   0.322
44457W        W10888  44.213  44.823  12.033
44458W        W10889  16.158  31.920  13.136
44459W        W10890  11.062  25.480  11.115
44460W        W10891   8.887   1.280   2.668
44461W        W10892   8.812  31.246  14.827
44462W        W10893  11.353  21.946  14.994
44463W        W10894  24.885  35.513  13.499
44464W        W10895  42.054  38.331   4.093
44465W        W10896  43.905  22.948  10.439
44466W        W10897  36.837   9.288  13.916
44467W        W10898   1.415  44.215  14.326
44468W        W10899   5.839  14.289   1.738
44469W        W10900   3.972  11.677  13.367
44470W        W10901  40.971  13.572  13.034
44471W        W10902  34.975  28.903  10.764
44472W        W10903   8.105  28.221   1.067
44473W        W10904  14.883   5.641   3.229
44474W        W10905  13.838  14.679   1.645
44475W        W10906  31.798  36.530  12.008
44476W        W10907  22.265  36.107   0.199
44477W        W10908  15.532  40.031  14.864
44478W        W10909  29.001   4.087   3.350
44479W        W10910  30.434  20.347   0.938
44480W        W10911   9.257  33.899   3.872
44481W        W10912  33.741  19.123   0.767
44482W        W10913  28.072  38.589  11.322
44483W        W10914  19.255   6.822   2.435
44484W        W10915  41.552  23.504   0.763
44485W        W10916   1.912   1.708  11.254
44486W        W10917  29.186   0.991   1.319
44487W        W10918   9.226  35.007  10.776
44488W        W10919  16.999  33.919  12.393
44489W        W10920  29.120   9.830   0.923
44490W        W10921   5.847  23.329   0.888
44491W        W10922   3.433  37.910  14.245
44492W        W10923  23.454  12.777  11.918
44493W        W10924  15.590  22.705  13.870
44494W        W10925  25.919  12.211   0.324
44495W        W10926  30.195  31.204   3.770
44496W        W10927  34.056   5.439   0.246
44497W        W10928  26.021  18.788  14.071
44498W        W10929  39.934  36.707  13.454
44499W        W10930  22.265  42.691  10.114
44500W        W10931  37.731  20.178   1.320
44501W        W10932  25.878  26.649  11.180
44502W        W10933   6.882  28.003  13.857
44503W        W10934   3.233  11.640   2.871
44504W        W10935   6.259  41.418   0.628
44505W        W10936   1.778  39.039  14.200
44506W        W10937  10.092  12.908   1.408
44507W        W10938   8.668  43.549  12.975
44508W        W10939  15.226  43.427   0.875
44509W        W10940   9.616  32.533   4.145
44510W        W10941  22.256  18.174  14.271
44511W        W10942  20.232  22.682  14.288
44512W        W10943   3.689   1.020  13.983
44513W        W10944  14.360  44.413   0.424
44514W        W10945  43.997  37.094   0.358
44515W        W10946  32.527  10.069  13.340
44516W        W10947  41.079  23.750  11.935
44517W        W10948  34.864  36.642   3.189
44518W        W10949  22.956  30.967  14.819
44519W        W10950  36.048  26.538   4.676
44520W        W10951  37.763  43.386   4.595
44521W        W10952  34.507  30.578   1.700
44522W        W10953   6.430  38.764  10.751
44523W        W10954  18.182  17.839   3.967
44524W        W10955   3.246   6.489  12.980
44525W        W10956  28.251  37.038  11.242
44526W        W10957  14.651  33.135   1.792
44527W        W10958  11.813  36.252   0.755
44528W        W10959  16.561  31.568   1.187
44529W        W10960   6.248  25.132   0.932
44530W        W10961   4.273  22.284   1.023
44531W        W10962  35.589  20.804  13.871
44532W        W10963  42.138   6.269   4.550
44533W        W10964   9.160  43.681  13.432
44534W        W10965  19.264  28.659  11.608
44535W        W10966  15.704   8.590  13.476
44536W        W10967   4.660  33.013  11.566
44537W        W10968  10.264  37.898  10.136
44538W        W10969  38.809  36.334  10.478
44539W        W10970  40.135   4.025   2.860
44540W        W10971   2.867  37.082  13.330
44541W        W10972  30.405  28.519  14.423
44542W        W10973  42.492  18.150   4.243
44543W        W10974  19.598  17.064  12.024
44544W        W10975  41.906   3.202   1.300
44545W        W10976  21.648  19.093  12.037
44546W        W10977  31.776   7.229   4.829
44547W        W10978   5.312  30.932  13.394
44548W        W10979  32.891  23.105   3.103
44549W        W10980  38.354  20.318   4.380
44550W        W10981  14.942  13.653  12.374
44551W        W10982  34.542  16.028   0.796
44552W        W10983  30.223  27.933   2.708
44553W        W10984  23.148  15.172  13.516
44554W        W10985   1.847   6.079   2.801
44555W        W10986   3.247  32.052  11.611
44556W        W10987  29.701   2.366   1.227
44557W        W10988   1.278  22.731  13.669
44558W        W10989  37.915  22.671   3.190
44559W        W10990  38.673  28.696  11.360
44560W        W10991  44.308  10.900  10.594
44561W        W10992  38.803   5.907   0.443
44562W        W10993  11.295   6.748  13.767
44563W        W10994  18.568   3.877  13.601
44564W        W10995   6.300  42.824   9.871
44565W        W10996   9.400  30.023  12.401
44566W        W10997  13.783  37.099   4.321
44567W        W10998  36.963  15.828  10.606
44568W        W10999  40.102  32.021   2.291
44569W        W11000  43.314  14.197  12.855
44570W        W11001   9.441  39.893  11.988
44571W        W11002  10.188   8.804   1.486
44572W        W11003  10.385   7.848  14.894
44573W        W11004  42.374  19.657  13.267
44574W        W11005  36.379   6.907   4.345
44575W        W11006  39.911  33.388  10.231
44576W        W11007  43.965   6.196   4.152
44577W        W11008   5.800  15.346  12.265
44578W        W11009  37.418  21.151  12.578
44579W        W11010  42.087  19.204  11.637
44580W        W11011  15.759  44.015  14.460
44581W        W11012  11.233  20.909  14.769
44582W        W11013  28.380  35.630   4.953
44583W        W11014  29.260  22.568  13.440
44584W        W11015  38.771  39.906  14.399
44585W        W11016   8.489  43.349   4.238
44586W        W11017   7.914  24.056   0.896
44587W        W11018  10.161  23.376  11.433
44588W        W11019  12.208  31.805  12.548
44589W        W11020  15.673  22.450   3.226
44590W        W11021  21.136  35.042   1.289
44591W        W11022  31.559   8.493   2.894
44592W        W11023  17.087  11.321   1.798
44593W        W11024  42.883  37.041   4.200
44594W        W11025   3.705  35.473  11.616
44595W        W11026  36.364  41.299   4.630
44596W        W11027  33.876  14.855   1.830
44597W        W11028  12.306  26.976   3.566
44598W        W11029  20.689  32.474  12.795
44599W        W11030  12.793  36.670  11.080
44600W        W11031  16.078  22.509  13.916
44601W        W11032   9.990  31.704  11.036
44602W        W11033  32.129  13.387  12.495
44603W        W11034  21.746   5.786  12.370
44604W        W11035  44.012  24.893  13.821
44605W        W11036  13.360  26.682  11.273
44606W        W11037  27.084  15.714  10.710
44607W        W11038   7.685  43.092  12.098
44608W        W11039   8.858  10.443  12.715
44609W        W11040   1.356  39.463  14.921
44610W        W11041  20.006  32.443   3.407
44611W        W11042  19.674  18.037  13.781
44612W        W11043  14.833  17.233  10.655
44613W        W11044  37.448  19.229   3.247
44614W        W11045  30.576  30.417  10.695
44615W        W11046  35.186   2.923  14.247
44616W        W11047   5.672  40.065   1.453
44617W        W11048  26.216  20.168  12.058
44618W        W11049  26.293  15.234  13.447
44619W        W11050  35.036   1.408   4.770
44620W        W11051  20.218  15.441  12.461
44621W        W11052  36.572  11.142  12.055
44622W        W11053   0.034  18.179   4.835
44623W        W11054  15.145  21.236   4.098
44624W        W11055  22.534  30.489   3.170
44625W        W11056  20.017  15.301  12.932
44626W        W11057  27.132  30.085  14.058
44627W        W11058  41.995  35.030   4.639
44628W        W11059   3.435  19.802   2.385
44629W        W11060  33.768   9.872   0.801
44630W        W11061  10.983  41.837  11.945
44631W        W11062  11.254  37.086   2.706
44632W        W11063  18.131  15.614   0.033
44633W        W11064  22.139  27.066   0.024
44634W        W11065  10.822   2.505   0.384
44635W        W11066  23.144  40.152  13.044
44636W        W11067  41.300  27.459   2.772
44637W        W11068  29.421  24.059   4.810
44638W        W11069   8.397  31.140   0.146
44639W        W11070   7.391  40.792   1.686
44640W        W11071  27.953   9.027  12.862
44641W        W11072  28.753  26.730   1.631
44642W        W11073  35.035  39.235   1.882
44643W        W11074  31.631   0.513  10.487
44644W        W11075  29.749  17.885  11.480
44645W        W11076  41.020   8.317   3.579
44646W        W11077  36.529   5.744  11.532
44647W        W11078   5.207   1.737   3.212
44648W        W11079   5.283  43.590  13.035
44649W        W11080  27.679  37.969   0.949
44650W        W11081  17.415  40.702  14.540
44651W        W11082  37.152  27.151  12.149
44652W        W11083   9.679  31.968  10.738
44653W        W11084  13.436   7.215   2.384
44654W        W11085  17.162  15.965   0.714
44655W        W11086   4.107  39.875   2.780
44656W        W11087  17.058  43.059   1.559
44657W        W11088  31.967   1.231  12.387
44658W        W11089  40.488  37.501  13.161
44659W        W11090  34.968  29.359   4.495
44660W        W11091  40.981  32.346   1.249
44661W        W11092  33.259  28.203  11.085
44662W        W11093  37.070  28.864   4.100
44663W        W11094  16.475  14.258  11.713
44664W        W11095  15.792   0.998  14.776
44665W        W11096   7.940  14.683   3.218
44666W        W11097  39.503  30.063  12.499
44667W        W11098   6.840  10.194   0.168
44668W        W11099  13.329  21.951  12.070
44669W        W11100  20.779  18.169   0.752
44670W        W11101  42.270  34.101   0.841
44671W        W11102  31.904  39.431   3.865
44672W        W11103  16.361  38.133  12.476
44673W        W11104  35.481  13.566  13.335
44674W        W11105  36.879  25.480   0.193
44675W        W11106  29.971   9.148   5.667
44676W        W11107  25.494  36.839   3.150
44677W        W11108  19.223  42.563   2.298
44678W        W11109  14.331  30.596  10.326
44679W        W11110  20.513   6.934   0.885
44680W        W11111  10.310  41.326   1.332
44681W        W11112  39.344  31.899   2.725
44682W        W11113  33.491  34.870  12.812
44683W        W11114  39.412   3.312  14.901
44684W        W11115  41.116  30.459   1.406
44685W        W11116   3.475  28.221   4.488
44686W        W11117  40.650  22.223   2.840
44687W        W11118  38.291  43.550  14.921
44688W        W11119   7.837  25.122   4.484
44689W        W11120  28.902  15.548   2.614
44690W        W11121   5.227  14.350  14.268
44691W        W11122  29.921  32.551   0.268
44692W        W11123   1.453  11.183  14.300
44693W        W11124  28.605  37.830   1.792
44694W        W11125  22.017  34.483  11.118
44695W        W11126  12.607  32.528  14.114
44696W        W11127  23.464  16.595   4.786
44697W        W11128  32.056  32.835   0.672
44698W        W11129  14.715  43.207  14.836
44699W        W11130  28.185  37.455  13.009
44700W        W11131   1.296   2.733   2.236
44701W        W11132  23.805  42.800   4.010
44702W        W11133  36.892  32.694  10.337
44703W        W11134  17.630  21.077   0.075
44704W        W11135   6.329  33.198  12.979
44705W        W11136  40.919  38.008   3.666
44706W        W11137  11.536  15.596  12.917
44707W        W11138  24.947  29.988  13.231
44708W        W11139  27.568  16.772   0.391
44709W        W11140  12.074  28.893  14.936
44710W        W11141  37.708   5.127  14.118
44711W        W11142  43.913  44.033   3.146
44712W        W11143  44.548  16.415  14.423
44713W        W11144  11.160  38.588   4.057
44714W        W11145  16.114  33.933  12.608
44715W        W11146   4.231  39.949  11.609
44716W        W11147  12.370   2.575  13.803
44717W        W11148   7.187   4.056  12.525
44718W        W11149  35.976  38.607  12.915
44719W        W11150  36.026   7.657  13.064
44720W        W11151  11.150  34.686   0.492
44721W        W11152  31.931  30.124  10.427
44722W        W11153  36.992  12.498  11.616
44723W        W11154  32.836  43.784  12.792
44724W        W11155   4.806  22.803  11.211
44725W        W11156  32.947   6.680   3.665
44726W        W11157  12.896  25.096  12.055
44727W        W11158   6.707  20.037   0.727
44728W        W11159  29.019   4.671   4.756
44729W        W11160  20.242  30.108  11.484
44730W        W11161   5.820   3.206   2.495
44731W        W11162  22.148  33.089  11.844
44732W        W11163  32.577  43.703  12.053
44733W        W11164  21.736  29.671  13.466
44734W        W11165  36.591   8.760   1.703
44735W        W11166  16.182  12.363   1.354
44736W        W11167  34.713  12.633   0.164
44737W        W11168  39.375   0.777   4.020
44738W        W11169  29.168  34.601   1.496
44739W        W11170  24.700   8.535  13.507
44740W        W11171   7.316  21.745   1.300
44741W        W11172   9.665  23.240  13.308
44742W        W11173  27.489  36.033  12.578
44743W        W11174  44.506  37.118  10.029
44744W        W11175  11.945  38.915  13.798
44745W        W11176  23.036  14.646  13.783
44746W        W11177  32.610  14.376  11.710
44747W        W11178   9.211  44.701  13.434
44748W        W11179  20.302  39.990   1.258
44749W        W11180  12.479  16.965   2.388
44750W        W11181  37.361  24.927  11.107
44751W        W11182  39.343  37.196  14.479
44752W        W11183  16.499  20.627  11.084
44753W        W11184  31.775  40.204   3.331
44754W        W11185  41.243  10.801  14.320
44755W        W11186  16.674  32.932   4.543
44756W        W11187  44.539  11.263  12.966
44757W        W11188   8.337  36.285  13.650
44758W        W11189  24.240  26.674   4.217
44759W        W11190   7.696   6.364   0.711
44760W        W11191  40.073  27.937   3.163
44761W        W11192   5.962   1.748   0.342
44762W        W11193  34.148  28.207   1.222
44763W        W11194  29.793  18.110  11.935
44764W        W11195   3.420  28.897   0.803
44765W        W11196   3.761   5.716  14.073
44766W        W11197  16.448  18.242  13.125
44767W        W11198  17.731  13.316  14.068
44768W        W11199   7.404   1.215  13.460
44769W        W11200  11.690  37.532  10.202
44770W        W11201  16.211  27.239   2.993
44771W        W11202  44.239   6.757  14.445
44772W        W11203  21.824  37.718   3.317
44773W        W11204   7.176  37.700  11.946
44774W        W11205  12.556  31.732   0.672
44775W        W11206  36.046  17.802  11.963
44776W        W11207  32.429  17.914   4.177
44777W        W11208   3.656   3.801  14.911
44778W        W11209   9.808   8.329   0.357
44779W        W11210  20.038  29.572   1.293
44780W        W11211  27.887  33.093  11.499
44781W        W11212  22.478  44.749  13.816
44782W        W11213  11.348  23.055  10.437
44783W        W11214  44.895  26.677  12.972
44784W        W11215  29.544  40.325   2.410
44785W        W11216  18.391  41.518  10.223
44786W        W11217  23.312  38.514  11.689
44787W        W11218  22.229  17.668   4.025
44788W        W11219  16.965  31.641  13.446
44789W        W11220  43.320  14.304   3.250
44790W        W11221  24.034   1.736   4.867
44791W        W11222  29.183  27.258  10.777
44792W        W11223  39.468  15.753   0.395
44793W        W11224  22.102  37.062   1.160
44794W        W11225   6.482  31.825   2.426
44795W        W11226   9.775  32.871  12.366
44796W        W11227  40.077  14.285  11.072
44797W        W11228   7.603   4.849   2.380
44798W        W11229  18.706   9.359   4.107
44799W        W11230   1.687  16.716   0.961
44800W        W11231   1.047   7.701  11.515
44801W        W11232  33.009  23.164  14.347
44802W        W11233   8.813  20.838  13.519
44803W        W11234  39.008  41.922  13.450
44804W        W11235   8.776   7.962  11.692
44805W        W11236   6.291  33.115  13.904
44806W        W11237  19.870  15.190   1.859
44807W        W11238  42.687  24.718  11.593
44808W        W11239  24.262   1.946  14.435
44809W        W11240  18.534   9.552  12.950
44810W        W11241  43.011   6.792  14.031
44811W        W11242   6.913   4.652   0.671
44812W        W11243  38.987  29.884   1.788
44813W        W11244  19.626   9.315   3.703
44814W        W11245  12.338  11.893  12.133
44815W        W11246  10.209  17.223  12.533
44816W        W11247  17.163  10.014  13.958
44817W        W11248   3.997   5.246  11.202
44818W        W11249  12.747  20.972   1.752
44819W        W11250  30.603  43.754  14.011
44820W        W11251  17.007  30.449  11.240
44821W        W11252  40.602  11.891   1.224
44822W        W11253   1.888  25.117   1.798
44823W        W11254   1.488  19.521   1.842
44824W        W11255  36.446   4.982   4.377
44825W        W11256  28.342  38.275   1.987
44826W        W11257  35.826  14.223  12.046
44827W        W11258  39.584  18.197   2.414
44828W        W11259  31.884  17.088   0.441
44829W        W11260  24.001  19.447   4.063
44830W        W11261  11.506  27.836  13.559
44831W        W11262  24.214   1.253   4.865
44832W        W11263  23.717  23.230  10.404
44833W        W11264  40.765  29.688   2.272
44834W        W11265  43.521  28.385   2.732
44835W        W11266   4.822   7.967   2.590
44836W        W11267   2.125  14.109  10.690
44837W        W11268   1.472  40.345  14.753
44838W        W11269   6.909  16.646  12.420
44839W        W11270  41.334   4.218  14.947
44840W        W11271   4.794  20.198   2.854
44841W        W11272  43.586  38.770  12.747
44842W        W11273  42.537  41.070  12.105
44843W        W11274   9.334  34.951   1.798
44844W        W11275  44.927  13.116  12.077
44845W        W11276  15.429  44.365   3.790
44846W        W11277  21.190  20.870   2.627
44847W        W11278  17.680   1.832  14.239
44848W        W11279   9.236  22.867   0.846
44849W        W11280  42.093  34.923   0.359
44850W        W11281  15.140  31.741   3.266
44851W        W11282  36.412  36.118   0.265
44852W        W11283   9.401  44.199   2.292
44853W        W11284  24.336  20.271   1.370
44854W        W11285   5.036  25.581   1.865
44855W        W11286  10.911   0.362   0.843
44856W        W11287   8.833  15.057  13.315
44857W        W11288   3.424  23.501  13.439
44858W        W11289  25.589   4.622  12.955
44859W        W11290  39.174  25.377  10.877
44860W        W11291  33.081   1.672  14.496
44861W        W11292  20.703   8.320  13.852
44862W        W11293   2.543  26.428   3.186
44863W        W11294  33.371  27.987   0.236
44864W        W11295  32.605   1.757  10.637
44865W        W11296  18.038  28.193  10.756
44866W        W11297  36.747  24.698  13.036
44867W        W11298  18.062  12.245  12.637
44868W        W11299  28.563  41.309   3.169
44869W        W11300  39.843  20.014  14.371
44870W        W11301  31.297  24.282  14.338
44871W        W11302  38.224   2.466   3.848
44872W        W11303  42.916  25.592   4.109
44873W        W11304  43.538   3.902  10.676
44874W        W11305  14.353  44.079  12.915
44875W        W11306   0.755  23.331   4.126
44876W        W11307  23.777  33.067  14.312
44877W        W11308  27.565  15.250  12.910
44878W        W11309   4.662  44.142  10.707
44879W        W11310  41.238  10.796   2.275
44880W        W11311  22.636  44.882  11.444
44881W        W11312   8.405  30.427  12.305
44882W        W11313   1.747   2.856   1.416
44883W        W11314  38.881  28.358   0.189
44884W        W11315  10.797  18.494  12.168
44885W        W11316   1.726   2.192  11.205
44886W        W11317   3.925   5.498  11.680
44887W        W11318   0.952   4.691  10.677
44888W        W11319   8.764   5.676  12.037
44889W        W11320  31.981  18.010  12.383
44890W        W11321  41.812  35.876   1.277
44891W        W11322  36.452  34.321  11.158
44892W        W11323  29.701  30.978   2.385
44893W        W11324  38.434  14.862  13.088
44894W        W11325  30.467  18.719  13.023
44895W        W11326   2.452  29.550  12.436
44896W        W11327  30.656  42.091  12.898
44897W        W11328   5.993  43.818   4.131
44898W        W11329  29.097   4.161   1.097
44899W        W11330   7.440   4.147   1.420
44900W        W11331  17.555  39.146  13.377
44901W        W11332  20.755  13.122   4.674
44902W        W11333  27.490  41.035  12.099
44903W        W11334  16.798  35.143   3.883
44904W        W11335  29.716  21.848   0.443
44905W        W11336  11.904  21.223  14.391
44906W        W11337  28.231  36.407   0.884
44907W        W11338  35.983  35.192  14.815
44908W        W11339   2.216  36.346  10.606
44909W        W11340  10.710   3.465  14.418
44910W        W11341  42.967  25.346   4.959
44911W        W11342  17.681   6.237   4.426
44912W        W11343  20.428   4.705   1.754
44913W        W11344   0.756   3.080  12.514
44914W        W11345  43.367   0.541  10.632
44915W        W11346   6.601  36.893  10.669
44916W        W11347  37.241   2.473   2.745
44917W        W11348  21.735  23.740  12.075
44918W        W11349  42.252  26.203  12.122
44919W        W11350   0.299  11.302  11.003
44920W        W11351  21.319  33.210  10.929
44921W        W11352  20.120  22.161   2.157
44922W        W11353  25.399  26.798   0.945
44923W        W11354  34.060  40.287   1.846
44924W        W11355   0.988  41.837   1.194
44925W        W11356  19.955  31.587   1.779
44926W        W11357  15.806  31.737  11.029
44927W        W11358  10.210  44.808  12.589
44928W        W11359   5.095  41.740   0.023
44929W        W11360  27.565  44.121   0.405
44930W        W11361  33.852  27.268  13.941
44931W        W11362   5.242  21.048   4.770
44932W        W11363  13.397  14.368  14.701
44933W        W11364   4.796  32.966  12.969
44934W        W11365  14.688  43.248  13.985
44935W        W11366  13.041  27.943  11.170
44936W        W11367  29.192  11.249   4.254
44937W        W11368  35.779  19.109  11.995
44938W        W11369  33.101  30.083  11.395
44939W        W11370  30.904  32.746   1.421
44940W        W11371  31.872  38.502  14.926
44941W        W11372   2.463  39.578  11.341
44942W        W11373  14.292  17.024   2.572
44943W        W11374  10.800  35.968   1.289
44944W        W11375  42.402  20.290  12.455
44945W        W11376  16.574  32.675   0.501
44946W        W11377  13.657  41.958   0.778
44947W        W11378  25.718   6.002   4.258
44948W        W11379  34.127  39.710   2.620
44949W        W11380  27.505  13.579  14.932
44950W        W11381  36.766  42.338   3.308
44951W        W11382  11.357  35.982  14.859
44952W        W11383  23.280  25.231  12.608
44953W        W11384  16.748  25.490   0.338
44954W        W11385  29.041  24.866  12.178
44955W        W11386  44.434  21.098   4.213
44956W        W11387  17.440  18.099   0.266
44957W        W11388  12.645  31.965  10.912
44958W        W11389   6.394  43.592  13.768
44959W        W11390  29.300   7.902  13.521
44960W        W11391   0.739   2.432  11.243
44961W        W11392  12.504  23.002  11.492
44962W        W11393   3.319   5.707  14.330
44963W        W11394  44.431  44.440  13.169
44964W        W11395  34.561  16.317  13.965
44965W        W11396  12.168  15.632  13.537
44966W        W11397   7.353  24.907  11.919
44967W        W11398  30.636  39.159  13.780
44968W        W11399   7.925   4.408  10.678
44969W        W11400  31.845  10.310  13.798
44970W        W11401  16.856   7.433   1.832
44971W        W11402  12.359  18.368   3.499
44972W        W11403  35.881   2.452  11.194
44973W        W11404  33.032  31.575  13.906
44974W        W11405  21.162  27.229  14.942
44975W        W11406  31.600   0.348   0.681
44976W        W11407  44.948   6.739  12.371
44977W        W11408  18.962  42.458   4.015
44978W        W11409  10.819  15.108   3.289
44979W        W11410  41.093   0.841   1.687
44980W        W11411  17.733  44.521   4.571
44981W        W11412  23.946  43.063  14.349
44982W        W11413  31.142  34.888   1.383
44983W        W11414   6.884  25.557   5.018
44984W        W11415  21.134   4.856  11.716
44985W        W11416  16.826  27.586   1.347
44986W        W11417  16.784  12.693   2.724
44987W        W11418   7.442   3.083  10.282
44988W        W11419  26.099   1.326  13.458
44989W        W11420   4.933  19.073   0.874
44990W        W11421   2.763  11.871   2.761
44991W        W11422  41.541   7.939  11.184
44992W        W11423  16.028  39.809   0.722
44993W        W11424  14.373  22.236   3.586
44994W        W11425  33.723  29.893   1.265
44995W        W11426  15.723  32.521  14.360
44996W        W11427  31.659  12.859  14.758
44997W        W11428  12.245  18.720  13.835
44998W        W11429  11.026  37.468   0.362
44999W        W11430  33.170  10.101  12.934
45000W        W11431  24.098  29.347  10.909
45001W        W11432  26.712  39.145  12.382
45002W        W11433  31.097  15.127  14.025
45003W        W11434   5.171  25.997  14.751
45004W        W11435   2.447  36.073   1.337
45005W        W11436   0.972  25.112   0.949
45006W        W11437  28.451  36.072   4.140
45007W        W11438  21.363  24.037  12.264
45008W        W11439  22.079  22.404   1.865
45009W        W11440  26.712  25.147   3.685
45010W        W11441   2.168  41.603   2.932
45011W        W11442  25.430  32.561   0.660
45012W        W11443  36.081  28.262   1.962
45013W        W11444  39.535  29.900   2.294
45014W        W11445  12.266  30.949   0.754
45015W        W11446   9.617   6.692   2.835
45016W        W11447   7.199  41.660  11.609
45017W        W11448  14.602  19.152  13.064
45018W        W11449  33.131  21.615   2.419
45019W        W11450  28.419   1.674  13.463
45020W        W11451  31.962  33.134  12.708
45021W        W11452  37.866  28.675   0.295
45022W        W11453  22.982  12.494   1.461
45023W        W11454  28.766   0.206   2.794
45024W        W11455  37.136  15.022   1.689
45025W        W11456  30.641  40.626   1.867
45026W        W11457  34.945  10.334  12.595
45027W        W11458  42.635  24.130   0.308
45028W        W11459  15.195   0.017   2.242
45029W        W11460   4.219  43.276   4.315
45030W        W11461  39.099  25.026  13.913
45031W        W11462  17.591  33.625   4.625
45032W        W11463  25.253  24.285   4.684
45033W        W11464  38.619  16.712   1.033
45034W        W11465   1.791  44.057  14.014
45035W        W11466  41.856  10.673   4.352
45036W        W11467   4.370  36.263  11.191
45037W        W11468  17.815   9.463   0.770
45038W        W11469   2.052  37.659  13.874
45039W        W11470  11.847  16.349   3.179
45040W        W11471  43.579  42.324   1.784
45041W        W11472  33.457  36.266  10.712
45042W        W11473  14.576  24.195   2.380
45043W        W11474  42.769  20.767   1.429
45044W        W11475  19.806  18.312  12.926
45045W        W11476  12.727   8.411  12.776
45046W        W11477  24.961  11.756  11.960
45047W        W11478  23.653  33.687  12.869
45048W        W11479   7.149  38.969  12.165
45049W        W11480  39.549  19.107   0.301
45050W        W11481  11.287  17.180   3.047
45051W        W11482  24.040  21.894   4.817
45052W        W11483  41.863   6.172   4.955
45053W        W11484   4.748  35.181  11.076
45054W        W11485  30.128   8.746  12.178
45055W        W11486  16.018  12.117   0.928
45056W        W11487  38.105  33.619   0.448
45057W        W11488   4.219  13.885  10.748
45058W        W11489  40.367  42.815  10.645
45059W        W11490  12.766  30.182   2.295
45060W        W11491   7.930  16.915   0.037
45061W        W11492  24.863   3.254   1.217
45062W        W11493  37.963  27.623   2.623
45063W        W11494  16.089  12.110   3.529
45064W        W11495  24.473   1.142   3.695
45065W        W11496  18.859  44.422  11.755
45066W        W11497  16.248  18.268  13.965
45067W        W11498   5.539   8.677   0.267
45068W        W11499  26.969   0.312  10.745
45069W        W11500  41.061  10.100   4.629
45070W        W11501  23.270  42.879   1.854
45071W        W11502  21.625   1.459  11.035
45072W        W11503  30.139  19.280  11.498
45073W        W11504   3.011   4.725  11.027
45074W        W11505  32.138  23.644   2.358
45075W        W11506  23.482  37.629   1.702
45076W        W11507  28.683  34.942   2.707
45077W        W11508  14.700  38.604  13.018
45078W        W11509  41.296  24.543  13.991
45079W        W11510   0.665  37.906   4.052
45080W        W11511   0.801  42.927   0.274
45081W        W11512  37.074  16.658   3.264
45082W        W11513   0.116  32.857   3.705
45083W        W11514  15.838  20.637  12.456
45084W        W11515  23.971  39.558  14.231
45085W        W11516   3.497  24.429   3.227
45086W        W11517  10.576  29.100   1.406
45087W        W11518   8.925  19.038   3.677
45088W        W11519  30.007  18.747   4.764
45089W        W11520   0.827  16.096  10.689
45090W        W11521   5.026  26.046   2.684
45091W        W11522  31.448  26.981  11.747
45092W        W11523  31.929  42.310   2.850
45093W        W11524   1.441   6.726   0.976
45094W        W11525  19.506   4.378  11.850
45095W        W11526  10.728  12.282   4.805
45096W        W11527  19.016  43.949  12.971
45097W        W11528   5.244  22.005   2.762
45098W        W11529  23.937  22.910  13.361
45099W        W11530  26.660  28.922   3.691
45100W        W11531  23.834   7.680   4.493
45101W        W11532   4.914  36.798  11.790
45102W        W11533  42.244   9.096   2.356
45103W        W11534  18.780  35.751   0.688
45104W        W11535   4.350  22.983   4.370
45105W        W11536  32.985  38.911   2.401
45106W        W11537   1.992  17.697   0.559
45107W        W11538  24.565  24.189  13.396
45108W        W11539  38.802  29.127  11.079
45109W        W11540  19.120   6.088  14.709
45110W        W11541  19.543   2.830   1.766
45111W        W11542   8.255   4.800  10.157
45112W        W11543  13.715   8.848   4.462
45113W        W11544  42.714   9.789   3.398
45114W        W11545  22.906  24.042   3.664
45115W        W11546  29.122  25.472   1.520
45116W        W11547   8.262  29.512  12.371
45117W        W11548  17.267  19.588   1.815
45118W        W11549  19.667  15.847   1.364
45119W        W11550  22.789  41.428   0.787
45120W        W11551  32.844  20.709   2.198
45121W        W11552  42.858  17.971   0.659
45122W        W11553  21.235   2.369  12.022
45123W        W11554  37.664  31.271   1.086
45124W        W11555  15.335  15.020   2.836
45125W        W11556  38.266  13.681  14.758
45126W        W11557  35.977  25.538   0.967
45127W        W11558   5.879  24.918  13.652
45128W        W11559   3.906   6.956  10.867
45129W        W11560  30.613   0.984  12.350
45130W        W11561  43.296  39.843  14.364
45131W        W11562  21.481   4.407   3.224
45132W        W11563  37.865   4.440   1.939
45133W        W11564  27.026  25.960   3.538
45134W        W11565  21.650   0.206  12.035
45135W        W11566  13.634  14.879  14.441
45136W        W11567   7.066  20.207  12.852
45137W        W11568  24.089  12.958   2.704
45138W        W11569   5.301  19.087   1.467
45139W        W11570  30.981  25.964   4.214
45140W        W11571  21.053  23.554  10.344
45141W        W11572   2.665   4.852   1.146
45142W        W11573   9.056   1.727   1.330
45143W        W11574  39.993  29.010   0.457
45144W        W11575  15.103  25.403   4.896
45145W        W11576  38.387  40.775  12.923
45146W        W11577  41.918  25.020   0.011
45147W        W11578  17.765  40.086  13.852
45148W        W11579  30.526  12.180   1.032
45149W        W11580  14.727  19.695   4.592
45150W        W11581   9.182  27.824   2.785
45151W        W11582  28.642  19.723   0.300
45152W        W11583  41.098  44.193  11.951
45153W        W11584  30.014  42.938   4.119
45154W        W11585  13.453  34.213   3.634
45155W        W11586   5.921  26.860  13.560
45156W        W11587  29.637  19.470   0.065
45157W        W11588  43.314   2.314   1.287
45158W        W11589  37.427   4.407  12.987
45159W        W11590  37.236  11.334   0.413
45160W        W11591   3.910  18.766  12.067
45161W        W11592   0.947   1.052   3.798
45162W        W11593   4.629  34.714  11.225
45163W        W11594   7.442  41.952   1.749
45164W        W11595  24.740  38.225   0.319
45165W        W11596  12.406   8.590   2.224
45166W        W11597  44.780  40.972   3.194
45167W        W11598  17.504  14.005  11.524
45168W        W11599  35.670   5.187   3.659
45169W        W11600  42.504   6.537   4.340
45170W        W11601  43.785  35.477   3.915
45171W        W11602  44.319  41.555   0.371
45172W        W11603  29.369  39.285   4.613
45173W        W11604  37.139  40.342  13.826
45174W        W11605  37.990  36.535   0.346
45175W        W11606  43.298  20.588  10.973
45176W        W11607  40.984  31.887  11.087
45177W        W11608   8.838  15.238  10.664
45178W        W11609  42.910  18.331   2.650
45179W        W11610  14.252  33.068  14.501
45180W        W11611  11.380  25.191  10.285
45181W        W11612  34.731  12.590   5.019
45182W        W11613  18.856   5.194  14.988
45183W        W11614   9.267  30.324  11.981
45184W        W11615  20.564  35.384   3.220
45185W        W11616   2.769  34.151   0.915
45186W        W11617  44.932   9.753   4.135
45187W        W11618  31.388  28.717  13.647
45188W        W11619  21.468   0.235   3.806
45189W        W11620   7.459  33.934   0.315
45190W        W11621  36.846   8.298   3.725
45191W        W11622  36.603  42.202   3.763
45192W        W11623  40.523  30.137   2.384
45193W        W11624  13.089  16.532  14.026
45194W        W11625  41.434  18.048  13.527
45195W        W11626  13.108   6.469   0.357
45196W        W11627  27.650  12.445   3.611
45197W        W11628   6.780  41.853   1.035
45198W        W11629  18.740   2.492  10.522
45199W        W11630   6.886  20.683  11.428
45200W        W11631  25.641  17.834   3.653
45201W        W11632  12.958  42.640  13.798
45202W        W11633  24.302  35.961  12.811
45203W        W11634  27.205  20.652   9.694
45204W        W11635  24.439  29.317   1.657
45205W        W11636  39.962  34.466   2.322
45206W        W11637  36.335  24.213  13.900
45207W        W11638   6.619  16.831  12.835
45208W        W11639  31.026  31.472   2.069
45209W        W11640  32.032  28.959  11.403
45210W        W11641  25.872   3.304   3.566
45211W        W11642   2.072   3.229   3.689
45212W        W11643  22.145  24.798   0.360
45213W        W11644   8.344   7.740  11.917
45214W        W11645  39.088  19.792  12.019
45215W        W11646  38.534  37.871   4.906
45216W        W11647  43.606  27.958  11.677
45217W        W11648  15.318  42.376   0.865
45218W        W11649   7.360  17.226  11.582
45219W        W11650   8.569  15.192  11.111
45220W        W11651   5.240   5.469   1.975
45221W        W11652  24.209  41.929  11.363
45222W        W11653  28.617  10.132   0.246
45223W        W11654  35.881  18.258  12.552
45224W        W11655   8.298  19.648  11.166
45225W        W11656  38.145  20.181  12.647
45226W        W11657  41.929  27.433  12.476
45227W        W11658  27.959  28.512   1.912
45228W        W11659   4.191  11.884  13.804
45229W        W11660  26.048  40.676  13.775
45230W        W11661   0.418  20.754  14.577
45231W        W11662  43.011  29.081   3.245
45232W        W11663  43.858  25.941   1.420
45233W        W11664   6.285  19.511  12.009
45234W        W11665  36.382   4.399  10.520
45235W        W11666  28.393   9.240   2.229
45236W        W11667  23.275  12.864   1.195
45237W        W11668  25.588  25.365   0.988
45238W        W11669  15.402  20.446   0.879
45239W        W11670   7.856  22.998   4.625
45240W        W11671   8.303  23.423  12.053
45241W        W11672   6.856   5.737   4.362
45242W        W11673   2.129  12.355  14.625
45243W        W11674  38.024  11.945  14.017
45244W        W11675  22.173  21.980  13.008
45245W        W11676   3.834  17.730  12.954
45246W        W11677   6.447  24.555  13.585
45247W        W11678  40.114  36.117   1.908
45248W        W11679  44.830  33.880   3.923
45249W        W11680  28.035  40.918  12.078
45250W        W11681  27.230  40.396   1.644
45251W        W11682  41.040  33.078  11.975
45252W        W11683  41.046  24.222  10.802
45253W        W11684   2.355  16.099  11.662
45254W        W11685  13.093   7.670  14.382
45255W        W11686  10.217  27.506   1.821
45256W        W11687  33.053  26.058  11.622
45257W        W11688  36.602  30.919   1.715
45258W        W11689  22.004  41.658  14.792
45259W        W11690   4.966  13.599   2.335
45260W        W11691   3.831  15.501   2.258
45261W        W11692  13.903   4.886  13.983
45262W        W11693  26.996  21.702  13.048
45263W        W11694  16.769   0.366  12.705
45264W        W11695  27.130  30.218  10.997
45265W        W11696  14.620  42.063   1.711
45266W        W11697  35.882  41.572  12.023
45267W        W11698   9.400  27.469  14.483
45268W        W11699  26.925  38.910   1.759
45269W        W11700  11.348  36.398  13.385
45270W        W11701  10.332  38.904  10.066
45271W        W11702   5.678  13.868  14.858
45272W        W11703  20.268  20.384  13.050
45273W        W11704   5.793   8.027   1.406
45274W        W11705   2.866  11.730  13.512
45275W        W11706  43.006  12.570  11.729
45276W        W11707  13.988  43.492   1.390
45277W        W11708   9.396  16.088  10.710
45278W        W11709  40.142   9.380  12.947
45279W        W11710  33.698  42.474  13.957
45280W        W11711  36.446  18.549  13.128
45281W        W11712  10.565   4.371   2.794
45282W        W11713   8.743  38.361  14.266
45283W        W11714  41.641  17.576  13.547
45284W        W11715  39.630  33.190   3.217
45285W        W11716  23.478   3.173   0.293
45286W        W11717   6.936  37.485   4.704
45287W        W11718  26.517  14.229   3.307
45288W        W11719  19.066   7.263  10.729
45289W        W11720  40.259  32.072  13.829
45290W        W11721  40.641  15.880   4.468
45291W        W11722   0.551  34.889   4.831
45292W        W11723   7.195  35.469   0.485
45293W        W11724  33.958  34.090   0.127
45294W        W11725  23.236   2.414   4.221
45295W        W11726  12.808  13.645   4.649
45296W        W11727   8.908  12.450  11.114
45297W        W11728   4.196  39.371   2.872
45298W        W11729  44.788   8.914  10.665
45299W        W11730  23.959  10.842   2.254
45300W        W11731  29.927  41.137  12.884
45301W        W11732  20.136   0.230   0.731
45302W        W11733  42.368  34.430  14.831
45303W        W11734  41.484   6.450   0.261
45304W        W11735   5.143  12.500   0.683
45305W        W11736  23.926  40.337  10.769
45306W        W11737  29.592  41.273  13.824
45307W        W11738   3.791   6.631  12.139
45308W        W11739   9.137  36.071  11.524
45309W        W11740   5.876  30.221  11.031
45310W        W11741  34.455  38.702   3.775
45311W        W11742  41.433  26.765  13.382
45312W        W11743  20.573  29.803   4.008
45313W        W11744  25.893   2.908   2.282
45314W        W11745  36.874  20.883  10.479
45315W        W11746  17.594   6.237   2.879
45316W        W11747  29.498  12.034  10.721
45317W        W11748  18.104   2.480   3.954
45318W        W11749  29.402   5.162   3.693
45319W        W11750   9.715  35.315  13.372
45320W        W11751  32.308  17.533  11.200
45321W        W11752  24.989  44.498  12.433
45322W        W11753  37.861  15.403   3.237
45323W        W11754  31.465  44.796   2.693
45324W        W11755  39.205  27.365   3.927
45325W        W11756  30.356   3.739  10.718
45326W        W11757   7.861  32.526   3.687
45327W        W11758  11.594  34.544  11.162
45328W        W11759  33.055  29.217  14.829
45329W        W11760  24.786  41.338  10.726
45330W        W11761   4.394  26.680   3.745
45331W        W11762  36.672   2.426   2.845
45332W        W11763  28.490  24.293   2.733
45333W        W11764   5.118  41.997  14.013
45334W        W11765  18.752  36.595  13.122
45335W        W11766  16.581  11.814  14.059
45336W        W11767  26.415  14.634  10.580
45337W        W11768  29.889  29.682   2.869
45338W        W11769  28.492  33.478  10.823
45339W        W11770  12.830   2.481  12.304
45340W        W11771  20.591  43.356   4.898
45341W        W11772  12.154  33.689  14.914
45342W        W11773  16.003  13.135   4.585
45343W        W11774  30.868   0.052   1.906
45344W        W11775  10.503  17.459  11.205
45345W        W11776  17.113  25.125  12.933
45346W        W11777   6.489   6.758   3.235
45347W        W11778  23.890   2.709   1.365
45348W        W11779   0.332  25.872   3.159
45349W        W11780   0.925  39.726  10.806
45350W        W11781  21.394  29.576   5.091
45351W        W11782  19.794  39.450   2.796
45352W        W11783  27.165  25.919  12.827
45353W        W11784  41.092  23.127   2.893
45354W        W11785  10.503  34.849  11.567
45355W        W11786  38.795  22.208   0.030
45356W        W11787   5.254   1.484   0.824
45357W        W11788   3.546   3.738  13.898
45358W        W11789  17.054   9.384  12.643
45359W        W11790  36.907  35.510   4.995
45360W        W11791  28.491  33.933   3.583
45361W        W11792  12.476   7.944  12.450
45362W        W11793  13.243  28.669   4.563
45363W        W11794  39.851  12.763  14.123
45364W        W11795  18.683  16.275  13.985
45365W        W11796  28.541  13.351  13.560
45366W        W11797  33.208   2.438   4.556
45367W        W11798  24.063  32.622   1.413
45368W        W11799  24.693   7.293   2.643
45369W        W11800  13.620  27.658   4.292
45370W        W11801   1.899   5.490  12.911
45371W        W11802  36.298  18.130  14.833
45372W        W11803   5.892   8.301   0.411
45373W        W11804  11.389  19.592  13.060
45374W        W11805  41.835  36.567  11.067
45375W        W11806   0.624  18.024  13.433
45376W        W11807  35.973  30.623   1.306
45377W        W11808  14.612   8.564  13.892
45378W        W11809  27.926  40.369   4.667
45379W        W11810  15.145  29.147  13.056
45380W        W11811  42.274   3.853  10.752
45381W        W11812  12.825   6.327  12.518
45382W        W11813  36.087  20.718  12.517
45383W        W11814  38.345  42.256   1.828
45384W        W11815   3.182   8.180   3.686
45385W        W11816  29.257  10.603  10.630
45386W        W11817  13.847  43.436  10.745
45387W        W11818   9.893  26.393   2.205
45388W        W11819  33.814  38.766   5.398
45389W        W11820  30.933  39.548   4.867
45390W        W11821  41.073  33.560  14.379
45391W        W11822  31.697   1.344   1.361
45392W        W11823   4.517   9.092   2.823
45393W        W11824  29.601  24.249   1.873
45394W        W11825   3.979  10.885   0.317
45395W        W11826  15.571   4.564   3.167
45396W        W11827   1.679  28.101   4.086
45397W        W11828  13.758  31.073  10.413
45398W        W11829   8.335  41.096   1.375
45399W        W11830  31.891   8.661  13.413
45400W        W11831   2.860   7.133  12.644
45401W        W11832  39.995  15.155   0.134
45402W        W11833  26.172  19.830  10.257
45403W        W11834   8.987  33.753  11.882
45404W        W11835  40.119  12.310   3.109
45405W        W11836  22.207  12.232   3.224
45406W        W11837  31.669   5.694  11.997
45407W        W11838  15.588  14.136   0.370
45408W        W11839  17.724  28.712   2.615
45409W        W11840   0.349  18.853  14.403
45410W        W11841  17.212  15.825   0.070
45411W        W11842  25.453  35.957   3.234
45412W        W11843  27.725   3.673  14.836
45413W        W11844  44.408  10.081  10.160
45414W        W11845  35.232  31.716  12.851
45415W        W11846  38.332  17.071   0.178
45416W        W11847  23.220  23.106  10.524
45417W        W11848   0.494  41.883   4.588
45418W        W11849  20.695  44.716   0.170
45419W        W11850  17.014   9.549  14.780
45420W        W11851  38.807  20.452   4.596
45421W        W11852  23.547  44.465   4.849
45422W        W11853  30.018  10.764  12.543
45423W        W11854  22.718   8.522   1.625
45424W        W11855  41.205  34.689   3.172
45425W        W11856  38.001  36.024  11.501
45426W        W11857  20.734   8.457   4.129
45427W        W11858  10.140   3.166   2.235
45428W        W11859  31.556  13.739  13.000
45429W        W11860  33.881  18.447  12.763
45430W        W11861  36.362  37.605   1.816
45431W        W11862  17.731  23.893  12.088
45432W        W11863  27.820   9.200   4.174
45433W        W11864  37.424  32.520   5.404
45434W        W11865  41.272  44.295  10.058
45435W        W11866   3.193  35.503  11.676
45436W        W11867  40.293  18.191  13.340
45437W        W11868  42.353  13.800   4.910
45438W        W11869  43.071  18.239   2.165
45439W        W11870  16.547  12.688   0.215
45440W        W11871   5.364  32.829   1.902
45441W        W11872  20.647  22.731   2.634
45442W        W11873  37.041  28.061  12.980
45443W        W11874   4.858  19.007  14.561
45444W        W11875  43.471  32.732   4.021
45445W        W11876   8.253  43.643   4.614
45446W        W11877  13.459   1.109   3.761
45447W        W11878  41.243  38.957  12.991
45448W        W11879  26.864  40.860   3.215
45449W        W11880   9.214   3.556   3.600
45450W        W11881  23.046  24.330   0.459
45451W        W11882  23.038  31.362  11.203
45452W        W11883  39.511   9.045  13.903
45453W        W11884  33.504  15.230  11.264
45454W        W11885  37.152   1.565   2.718
45455W        W11886  27.997  28.551  11.990
45456W        W11887   8.594  34.483   0.756
45457W        W11888  30.813  32.187   2.760
45458W        W11889   1.929  22.870  11.512
45459W        W11890   4.406  32.653   2.844
45460W        W11891  34.931  10.293   0.567
45461W        W11892  15.768  43.455   2.128
45462W        W11893  27.474   5.341   0.327
45463W        W11894   8.040  32.514   0.085
45464W        W11895  35.423   4.438   2.749
45465W        W11896  10.321   3.614   2.399
45466W        W11897  13.010  43.189   2.332
45467W        W11898   6.170  36.019   3.193
45468W        W11899  20.136   7.499  11.289
45469W        W11900   6.168  10.959   2.041
45470W        W11901  19.543  20.369   0.179
45471W        W11902  27.880  21.471   3.745
45472W        W11903  14.248  41.924  11.854
45473W        W11904  41.625   5.424  10.453
45474W        W11905  26.125  42.852   2.467
45475W        W11906  22.292  20.563   2.264
45476W        W11907  37.622   0.355   2.322
45477W        W11908  32.283  10.867  12.485
45478W        W11909  40.277  44.426   5.109
45479W        W11910  18.707  26.810  14.402
45480W        W11911   5.515   8.808  12.535
45481W        W11912  23.607  24.180  14.353
45482W        W11913  43.338  34.557   4.661
45483W        W11914  28.979  32.451  12.066
45484W        W11915  44.000  38.791  10.594
45485W        W11916   6.708   1.882  13.603
45486W        W11917  39.050  38.267  10.652
45487W        W11918  21.579   2.170  12.391
45488W        W11919  16.626  41.857   2.776
45489W        W11920   3.143   5.480   1.813
45490W        W11921  24.385  16.203   4.005
45491W        W11922  43.278  27.927  10.336
45492W        W11923   4.084   3.724  13.953
45493W        W11924  18.073  23.340   1.886
45494W        W11925  16.714  27.161  13.844
45495W        W11926  12.814  26.736  11.398
45496W        W11927  18.671   9.939  14.836
45497W        W11928  11.222  25.767   0.784
45498W        W11929   2.838  43.439   3.593
45499W        W11930  14.871  23.678  12.662
45500W        W11931   7.122  13.244  13.524
45501W        W11932  33.507   5.980   3.711
45502W        W11933  21.315  16.242  13.881
45503W        W11934   1.433  29.048  11.497
45504W        W11935   3.501  27.211   3.640
45505W        W11936   9.641  22.939  14.130
45506W        W11937  32.836  19.736  10.614
45507W        W11938  11.697  12.248  10.765
45508W        W11939   9.096  14.154   2.259
45509W        W11940  33.938  31.810  12.661
45510W        W11941  35.675  27.865   2.701
45511W        W11942  39.561  21.568   3.237
45512W        W11943   1.903  29.408   0.497
45513W        W11944  20.284  28.135  11.030
45514W        W11945  27.787  40.904   2.347
45515W        W11946   4.023  41.456   2.419
45516W        W11947   1.890   8.658   1.870
45517W        W11948   1.206  41.412   2.479
45518W        W11949   4.905  14.483  12.942
45519W        W11950   8.358  17.467  13.423
45520W        W11951  16.673  10.392  11.428
45521W        W11952  13.031  27.202  10.613
45522W        W11953  25.960   0.857   4.561
45523W        W11954   9.378  39.368  11.493
45524W        W11955  14.513  38.436   2.834
45525W        W11956  23.067  25.732  11.725
45526W        W11957  27.965  38.420   9.956
45527W        W11958  10.184  22.210  12.650
45528W        W11959  31.990   3.400   0.658
45529W        W11960   9.064   4.159  12.580
45530W        W11961  23.502  40.023  11.193
45531W        W11962  30.905  24.120  13.452
45532W        W11963  29.418  17.341   0.267
45533W        W11964  43.414  27.987   0.415
45534W        W11965  13.686  30.413   1.813
45535W        W11966  42.692   2.193  14.373
45536W        W11967  18.527  41.306   2.250
45537W        W11968  24.671  40.978   2.691
45538W        W11969  39.539  41.453   4.292
45539W        W11970  30.615   4.751  12.963
45540W        W11971  37.108  22.610  14.806
45541W        W11972  16.829  44.235  13.148
45542W        W11973  18.224  32.875   1.695
45543W        W11974   6.966  20.245  10.253
45544W        W11975  13.908   1.825   2.799
45545W        W11976   4.655  42.759   2.251
45546W        W11977  17.626  29.619   0.564
45547W        W11978  33.630   1.749   4.671
45548W        W11979  22.866  30.669   3.547
45549W        W11980  26.410   3.326   2.318
45550W        W11981  37.605  33.105  10.288
45551W        W11982  20.580  31.634   0.969
45552W        W11983  32.755   4.541   2.728
45553W        W11984   8.725  35.147  10.725
45554W        W11985  25.210  39.534   1.908
45555W        W11986   9.681  44.503  14.451
45556W        W11987   5.475  28.232   3.550
45557W        W11988  16.579  16.471   2.622
45558W        W11989   1.499  28.925   2.396
45559W        W11990  15.238  34.980   3.265
45560W        W11991  11.674  23.567   0.373
45561W        W11992   8.232   2.984   2.658
45562W        W11993  12.126  29.967   3.331
45563W        W11994  20.232  14.829   2.653
45564W        W11995  21.553  42.722   2.853
45565W        W11996   4.652  37.489  13.038
45566W        W11997  24.222  18.604   3.604
45567W        W11998  22.969   3.848  13.393
45568W        W11999  20.581  16.307  11.085
45569W        W12000   8.089   0.435   3.260
45570W        W12001  34.063  34.147  12.394
45571W        W12002  14.226  23.995   2.735
45572W        W12003  39.478  29.431  11.921
45573W        W12004   8.473  36.973  11.909
45574W        W12005   0.271  41.843   2.208
45575W        W12006   6.306  26.167  11.423
45576W        W12007  28.481  17.545   1.690
45577W        W12008  33.451  10.192  11.032
45578W        W12009  20.614  13.864  12.024
45579W        W12010   4.187  36.047  12.046
45580W        W12011   5.927  29.687   4.294
45581W        W12012  42.449   2.913   2.221
45582W        W12013  14.221  17.731   2.813
45583W        W12014   5.801   1.974   1.189
45584W        W12015   4.510  34.629  13.362
45585W        W12016  33.357  29.699  11.094
45586W        W12017   5.751   5.083   2.766
45587W        W12018  18.161  31.291  11.637
45588W        W12019  43.845   6.206   1.293
45589W        W12020  43.934  12.747  12.220
45590W        W12021  31.966  42.078   3.344
45591W        W12022  11.584  35.988   3.174
45592W        W12023  26.458  21.983   0.193
45593W        W12024   4.240  13.817   2.705
45594W        W12025  14.264  26.885   3.722
45595W        W12026  33.051  38.404  14.855
45596W        W12027  12.410  17.323   1.327
45597W        W12028  32.175   1.958  10.843
45598W        W12029   4.352  11.416  13.574
45599W        W12030  18.984  18.576   4.339
45600W        W12031  21.990   6.193   1.343
45601W        W12032   1.518  37.904  11.128
45602W        W12033   8.361  40.805   1.804
45603W        W12034  28.130  32.809  14.373
45604W        W12035  38.244  26.589   1.664
45605W        W12036  41.703  32.529   0.683
45606W        W12037   6.269   6.852   2.785
45607W        W12038  14.634  16.972   3.732
45608W        W12039  39.966  36.858   1.286
45609W        W12040  32.361  22.531   3.290
45610W        W12041   4.317  25.256   4.974
45611W        W12042  30.033  35.388   3.088
45612W        W12043  35.050  26.065  12.995
45613W        W12044  34.029  32.695   3.155
45614W        W12045   9.831  35.986  10.972
45615W        W12046  42.566  42.586  13.316
45616W        W12047  22.744  14.188  10.102
45617W        W12048  24.681  10.972  11.085
45618W        W12049  40.289  40.015   4.557
45619W        W12050  37.443  25.989  13.495
45620W        W12051   3.750  12.435  11.488
45621W        W12052  36.319  15.503  14.019
45622W        W12053  16.057  27.549   0.817
45623W        W12054  27.331  13.726   2.035
45624W        W12055   9.787  23.623   4.625
45625W        W12056  28.989  37.402   3.176
45626W        W12057  24.308   4.054   2.672
45627W        W12058  36.450   6.495  12.998
45628W        W12059  24.105  20.758   1.846
45629W        W12060  14.858  43.054   5.441
45630W        W12061  39.773  11.327   3.286
45631W        W12062  19.678  24.497   3.893
45632W        W12063   5.127   7.857   3.934
45633W        W12064  11.688  36.843   3.482
45634W        W12065   8.186  38.792   1.388
45635W        W12066  20.211  38.145   2.768
45636W        W12067  24.011  16.110  12.774
45637W        W12068  29.676  10.204   2.703
45638W        W12069  40.283   7.854  12.441
45639W        W12070  32.080  13.079   4.233
45640W        W12071   9.666  42.073   4.096
45641W        W12072  40.349  42.949  11.527
45642W        W12073  21.229  33.035  11.436
45643W        W12074  26.090   8.708   0.698
45644W        W12075  42.575  28.430   4.545
45645W        W12076  24.116   7.681  14.348
45646W        W12077  33.880  15.650   1.392
45647W        W12078  29.674   9.244  11.415
45648W        W12079  40.537  23.951  14.968
45649W        W12080  40.047  40.962  10.614
45650W        W12081  41.134  10.555   9.860
45651W        W12082  26.669  30.865   4.624
45652W        W12083  18.932   6.467  12.154
45653W        W12084  21.180  32.109   0.466
45654W        W12085  41.897  21.540  12.415
45655W        W12086  21.834  30.025  14.530
45656W        W12087   0.435  30.326   3.267
45657W        W12088  42.885  14.750  14.179
45658W        W12089  21.109   4.908  14.981
45659W        W12090  12.674  23.614   4.482
45660W        W12091  14.327  21.008   2.227
45661W        W12092  37.635  19.777   4.258
45662W        W12093  22.492  39.982  14.976
45663W        W12094  30.683  23.724   3.703
45664W        W12095  16.833  39.825   0.406
45665W        W12096  22.985  25.767   2.643
45666W        W12097   2.816  12.333  12.319
45667W        W12098  43.591   3.124  11.955
45668W        W12099  37.781   4.018  10.756
45669W        W12100  25.583  10.546  12.092
45670W        W12101  11.481  22.346  14.679
45671W        W12102  40.748  41.008  11.096
45672W        W12103  17.140  42.837   0.666
45673W        W12104  33.664  37.485  11.465
45674W        W12105  28.047  18.327  14.368
45675W        W12106  40.257  30.412   4.163
45676W        W12107   0.039  12.656  14.015
45677W        W12108  36.973  30.630  11.537
45678W        W12109  40.470   4.550   0.291
45679W        W12110  16.610  33.479   1.215
45680W        W12111   4.747  41.897  13.668
45681W        W12112  18.971  27.878  10.775
45682W        W12113  21.810  20.358   4.915
45683W        W12114   1.598   6.313   0.217
45684W        W12115  38.967  23.636   4.688
45685W        W12116  33.974  32.947   1.820
45686W        W12117  22.770  20.020  13.416
45687W        W12118  36.837  15.141   0.888
45688W        W12119  18.646  16.111   3.601
45689W        W12120  42.643  34.896  11.575
45690W        W12121   3.752   4.199  14.071
45691W        W12122  28.170  40.170   1.977
45692W        W12123  35.413  10.285   2.343
45693W        W12124   7.844  15.203  11.531
45694W        W12125  10.810  29.303  14.369
45695W        W12126  25.085  42.900   4.051
45696W        W12127   3.621  34.066  12.478
45697W        W12128  22.723  20.369   4.407
45698W        W12129  10.752   6.627  11.230
45699W        W12130  44.152   8.297  13.853
45700W        W12131   8.700  39.253   2.365
45701W        W12132  39.796  15.226   1.752
45702W        W12133  19.527   9.781   4.680
45703W        W12134  17.117  25.300   2.484
45704W        W12135  29.049  33.477   3.231
45705W        W12136  14.421  16.316   1.304
45706W        W12137  12.839  32.870  14.477
45707W        W12138  19.572  17.416   1.894
45708W        W12139  17.766  43.813  13.566
45709W        W12140  35.512  32.268   1.340
45710W        W12141  12.872  37.866   4.625
45711W        W12142  25.295  31.069  11.933
45712W        W12143  24.825  42.219  14.903
45713W        W12144  26.923  12.221  12.433
45714W        W12145  28.151  41.004   4.416
45715W        W12146   1.787  27.729   1.263
45716W        W12147  20.510  19.491  11.076
45717W        W12148   1.798   3.534  14.015
45718W        W12149   7.943  34.964  11.678
45719W        W12150   9.485  22.617  10.705
45720W        W12151  20.777   6.479   0.930
45721W        W12152   3.991  12.072   3.202
45722W        W12153   2.782  21.335   0.195
45723W        W12154  21.273  27.442  14.020
45724W        W12155   4.421   4.883   4.122
45725W        W12156  19.913  36.479  10.449
45726W        W12157  42.276  21.603  14.390
45727W        W12158   0.677  38.348   0.833
45728W        W12159  38.389   4.308   1.914
45729W        W12160  41.930  34.068   4.455
45730W        W12161  14.723  43.803  10.588
45731W        W12162  22.809   2.826   2.163
45732W        W12163  35.338  27.523  10.786
45733W        W12164  31.110   4.853  13.033
45734W        W12165  42.984  18.094  14.015
45735W        W12166   7.746  38.375  11.135
45736W        W12167  24.473  24.487  10.751
45737W        W12168  28.012  27.075  12.631
45738W        W12169  23.814  13.678   0.437
45739W        W12170  10.203  34.665   1.559
45740W        W12171  33.640  29.516  13.135
45741W        W12172  20.209  16.698  14.365
45742W        W12173  27.113  41.782   0.303
45743W        W12174  31.270  22.542  13.805
45744W        W12175  29.343  24.525  13.066
45745W        W12176  25.555  33.594   4.730
45746W        W12177  32.114   1.282   2.065
45747W        W12178  28.426  27.977   3.251
45748W        W12179  27.944  14.999   9.948
45749W        W12180  36.840  43.483  12.495
45750W        W12181  37.496   7.268   3.360
45751W        W12182  33.611  32.944  11.355
45752W        W12183  24.783  28.285  13.130
45753W        W12184  41.790  10.058   4.988
45754W        W12185   5.958  27.728  12.342
45755W        W12186   6.483  33.671  11.775
45756W        W12187  28.114  25.012  13.116
45757W        W12188  43.225  27.917  11.325
45758W        W12189  34.028  38.615   4.532
45759W        W12190  20.546  43.352  14.927
45760W        W12191  20.590  21.146  10.308
45761W        W12192  20.711  12.836  11.180
45762W        W12193  17.259  32.135  12.202
45763W        W12194   1.961  38.169  13.943
45764W        W12195   9.265  23.196  14.772
45765W        W12196  14.801  41.480   1.654
45766W        W12197  39.502  35.590   3.321
45767W        W12198  20.614  16.711  10.764
45768W        W12199  25.070  44.040   4.130
45769W        W12200  15.939  33.449   3.519
45770W        W12201  30.949  43.309   3.745
45771W        W12202  25.222  25.032   3.836
45772W        W12203   4.333  34.113   2.828
45773W        W12204  16.364   1.861   0.043
45774W        W12205  24.510  41.391   2.418
45775W        W12206  19.653  23.639  11.618
45776W        W12207  39.814  39.035  14.939
45777W        W12208  31.109   9.831  13.436
45778W        W12209  23.991  13.635  13.997
45779W        W12210  40.220  12.237   0.885
45780W        W12211  31.944  41.234   0.383
45781W        W12212  35.018  34.818   1.778
45782W        W12213  11.682  37.263   3.165
45783W        W12214  11.776  38.169   3.906
45784W        W12215   0.251  21.105  12.903
45785W        W12216  15.355   2.245  13.119
45786W        W12217  24.691  12.669  11.197
45787W        W12218  31.941  12.911  12.610
45788W        W12219  30.147  24.048  12.769
45789W        W12220  27.587  14.920  12.485
45790W        W12221   4.649  13.470  13.823
45791W        W12222  21.092   5.437  14.909
45792W        W12223  39.245  18.573  13.976
45793W        W12224  43.786  14.738  10.633
45794W        W12225  41.913  21.622  13.525
45795W        W12226  27.045  42.297  10.811
45796W        W12227  13.256  27.904  12.683
45797W        W12228  30.451  25.096   1.291
45798W        W12229   6.712  21.105  11.167
45799W        W12230  27.617  23.852  13.018
45800W        W12231  34.717   6.313   3.997
45801W        W12232  22.111  33.032   4.753
45802W        W12233   9.414  15.105   0.896
45803W        W12234  35.134   7.675   0.412
45804W        W12235  22.114  33.679  10.106
45805W        W12236  18.415  37.731   0.177
45806W        W12237  27.218  23.179   0.440
45807W        W12238  20.919  24.675  14.452
45808W        W12239  20.709  14.760   0.195
45809W        W12240  43.060  33.694  12.929
45810W        W12241   4.250  10.420  11.343
45811W        W12242  37.153  22.483   4.580
45812W        W12243  13.919   1.004   2.840
45813W        W12244   1.666  39.501  13.266
45814W        W12245  14.735  30.467  10.677
45815W        W12246  31.151  42.489  12.145
45816W        W12247  10.420  27.182  11.582
45817W        W12248  31.019  18.426   3.390
45818W        W12249   2.873  38.186   1.211
45819W        W12250  21.226  40.415  13.609
45820W        W12251  38.602  18.290   3.158
45821W        W12252  42.427  15.579  11.106
45822W        W12253  38.628   9.853   2.818
45823W        W12254  24.464  29.859   1.858
45824W        W12255  32.808  34.513   1.480
45825W        W12256  20.570  44.977  12.125
45826W        W12257  36.180  10.075   0.879
45827W        W12258  12.789   9.116   1.705
45828W        W12259  30.670  37.377   4.095
45829W        W12260  12.809  21.244  12.489
45830W        W12261  35.127  39.451  13.827
45831W        W12262  19.617  11.346   4.562
45832W        W12263  19.399  38.684   4.119
45833W        W12264  41.256  33.666  10.486
45834W        W12265  36.436  35.098  14.384
45835W        W12266  36.749  34.047   3.102
45836W        W12267  43.267  42.846   0.149
45837W        W12268   9.314   7.643   3.303
45838W        W12269  30.727  13.850   2.570
45839W        W12270  41.126   7.680   1.762
45840W        W12271  31.010   1.180  13.580
45841W        W12272   0.687  25.107   4.990
45842W        W12273  37.155  33.457   4.243
45843W        W12274   9.620   1.844   0.483
45844W        W12275  30.500   2.010   1.736
45845W        W12276  32.459  22.663   2.384
45846W        W12277  14.870  20.301   2.137
45847W        W12278  27.315  27.482  12.843
45848W        W12279  22.685  11.796   4.087
45849W        W12280  24.573  35.735  13.856
45850W        W12281  28.804  44.522   3.725
45851W        W12282  31.916   2.406   0.207
45852W        W12283  33.164  29.032   2.013
45853W        W12284  34.824  33.510   2.023
45854W        W12285   0.429  39.737  11.581
45855W        W12286   8.271  42.058  12.837
45856W        W12287  33.862   7.500  12.354
45857W        W12288   9.594  17.517   3.733
45858W        W12289  17.641  23.138  11.433
45859W        W12290  18.459   4.955   0.890
45860W        W12291  37.592  12.084  12.625
45861W        W12292  44.454  38.796   1.838
45862W        W12293  18.654  34.642  11.690
45863W        W12294  40.861   8.236  10.528
45864W        W12295  27.001   9.004  14.798
45865W        W12296  34.920  12.746   0.647
45866W        W12297  10.912  35.665   2.898
45867W        W12298   1.809  14.113   3.626
45868W        W12299  20.471  31.116   0.953
45869W        W12300   2.325  11.687  12.728
45870W        W12301  27.687  40.467  13.450
45871W        W12302   8.421   9.785  14.962
45872W        W12303  38.567  24.625   2.829
45873W        W12304  16.322  36.554   2.389
45874W        W12305   2.680  44.803   4.063
45875W        W12306  15.286   5.475  10.733
45876W        W12307   3.185  27.855  11.410
45877W        W12308  10.355  25.960   0.934
45878W        W12309  41.471  23.497  11.598
45879W        W12310  30.833  32.492   1.866
45880W        W12311  10.584  34.979  12.970
45881W        W12312   6.130  23.618  14.710
45882W        W12313  30.236  19.631  12.227
45883W        W12314  15.732   1.899   3.222
45884W        W12315  24.936  12.543   1.859
45885W        W12316   9.330   6.717   3.596
45886W        W12317   2.800  44.160  11.093
45887W        W12318  34.339  36.484   0.559
45888W        W12319   1.521  41.873  14.041
45889W        W12320  21.032  19.843  11.899
45890W        W12321  27.799  10.906  10.139
45891W        W12322  30.749  27.095  13.489
45892W        W12323  26.182  28.234  11.115
45893W        W12324  14.301  37.403  11.866
45894W        W12325   3.448  42.904  14.894
45895W        W12326  15.644   1.391  10.994
45896W        W12327  34.355   3.320  14.697
45897W        W12328  20.722  20.948   2.854
45898W        W12329  28.394   0.787   4.170
45899W        W12330  10.436  44.385  11.440
45900W        W12331  10.250  41.311  11.092
45901W        W12332  34.533  40.526  11.224
45902W        W12333  17.748   1.901  11.496
45903W        W12334  33.542  38.932   3.428
45904W        W12335  39.741  41.485   3.267
45905W        W12336  25.249  38.658   3.554
45906W        W12337  41.429  44.138   3.655
45907W        W12338   4.384   1.818   4.425
45908W        W12339  32.694  18.970   0.869
45909W        W12340   1.843   5.634   4.982
45910W        W12341  43.586  13.159  13.617
45911W        W12342  19.213  13.664  10.759
45912W        W12343  32.998  27.056   3.125
45913W        W12344  31.685  16.703   2.954
45914W        W12345   5.437  12.764  11.717
45915W        W12346   1.860   4.471  13.785
45916W        W12347  30.711  34.822  12.601
45917W        W12348  41.333   4.700  12.822
45918W        W12349  13.242  37.544  13.855
45919W        W12350  18.892   5.970  12.049
45920W        W12351  39.118  19.112  10.791
45921W        W12352  37.340  17.579   4.250
45922W        W12353   3.389  43.361   3.786
45923W        W12354  28.112   6.450   1.846
45924W        W12355  24.915  23.444   3.131
45925W        W12356   9.756   2.377  11.551
45926W        W12357  28.625   7.813   3.786
45927W        W12358  43.095   1.986   4.923
45928W        W12359  25.215  15.228   4.611
45929W        W12360  41.868  41.549   9.937
45930W        W12361   0.808  26.477   3.577
45931W        W12362   7.896   0.791  11.765
45932W        W12363  26.101  41.346  10.446
45933W        W12364  25.735  17.387   0.162
45934W        W12365  42.042   1.799   9.590
45935W        W12366  14.599  10.717  12.413
45936W        W12367   6.881   6.429  10.598
45937W        W12368  12.892  21.581   4.168
45938W        W12369   0.850  11.868   4.684
45939W        W12370  41.022  30.369  10.697
45940W        W12371  44.256  27.629   0.391
45941W        W12372  38.267  39.462  10.267
45942W        W12373  37.479  43.335   4.127
45943W        W12374  29.549   3.515   2.137
45944W        W12375  32.947  44.059  12.007
45945W        W12376  18.781  34.897  14.597
45946W        W12377  25.995  39.035  13.318
45947W        W12378  39.622  40.471  10.685
45948W        W12379  27.225  42.919  14.371
45949W        W12380   1.461  43.969   3.720
45950W        W12381   8.635  11.403   3.605
45951W        W12382  23.804   1.791  11.050
45952W        W12383  25.593   2.272   1.817
45953W        W12384  38.265  41.522   2.909
45954W        W12385  24.115  26.260   0.173
45955W        W12386  25.868  44.449   4.979
45956W        W12387   8.707  33.570   1.696
45957W        W12388  39.377  44.648   2.177
45958W        W12389  33.124  24.370  13.493
45959W        W12390  18.328  32.953   3.861
45960W        W12391  21.636   8.620   1.642
45961W        W12392  21.100  16.057   4.950
45962W        W12393   5.891   5.797   0.552
45963W        W12394   6.008  25.121   0.474
45964W        W12395   3.977  44.379   4.541
45965W        W12396  36.566  10.309   4.613
45966W        W12397   3.081  19.026  14.409
45967W        W12398  42.492  11.345  14.130
45968W        W12399  27.307  34.099  14.895
45969W        W12400  13.302  35.982  13.740
45970W        W12401  26.400  37.302   0.687
45971W        W12402  43.758  36.959   3.184
45972W        W12403  22.648  31.155  12.997
45973W        W12404   3.974   6.036  13.180
45974W        W12405  33.957  29.484   1.462
45975W        W12406  35.964  19.268   3.285
45976W        W12407  43.553   1.404  11.100
45977W        W12408  13.786  27.114  13.332
45978W        W12409   0.447   4.163  13.749
45979W        W12410  11.626  18.095   1.738
45980W        W12411  21.138  20.853  11.023
45981W        W12412  26.800   7.803   1.536
45982W        W12413  11.422  41.231   3.548
45983W        W12414  20.240  30.468   2.564
45984W        W12415  12.509  27.123   3.078
45985W        W12416  34.972  28.075   0.674
45986W        W12417  34.927   3.204  11.594
45987W        W12418  14.207   1.266  11.513
45988W        W12419  37.353  15.295   0.824
45989W        W12420  34.278  33.696   1.301
45990W        W12421  18.982  21.724   0.453
45991W        W12422  37.993   0.370  10.741
45992W        W12423   5.397  30.218  11.947
45993W        W12424  44.120   5.622   4.606
45994W        W12425   5.802  33.751  13.442
45995W        W12426  40.305   6.985  14.494
45996W        W12427  21.316  21.500  14.185
45997W        W12428  34.306  41.962   2.700
45998W        W12429  31.446  28.285  12.904
45999W        W12430  16.238  35.691   2.461
46000W        W12431   7.880  21.645   4.638
46001W        W12432  10.129  19.680  12.015
46002W        W12433  38.514  11.222   0.827
46003W        W12434  29.278  23.773   2.167
46004W        W12435  44.941  43.572   3.148
46005W        W12436  39.137  36.397   2.866
46006W        W12437  20.239  16.213  12.985
46007W        W12438  22.696  39.061   1.878
46008W        W12439  39.288  16.575   1.694
46009W        W12440  11.399  20.776   3.305
46010W        W12441  44.426  13.317  13.912
46011W        W12442  23.288  33.941  10.666
46012W        W12443  30.297  44.191   1.246
46013W        W12444  39.387  18.208  10.706
46014W        W12445  37.485   9.741   4.790
46015W        W12446  37.238  31.735  12.516
46016W        W12447   5.343   2.550   0.985
46017W        W12448  41.815  42.922  14.438
46018W        W12449  32.090  44.263  11.485
46019W        W12450   4.677  26.943  10.785
46020W        W12451   3.485  11.812  14.364
46021W        W12452  26.165  21.705  14.312
46022W        W12453  37.806  22.592  11.567
46023W        W12454  41.914   6.291  10.887
46024W        W12455  11.112  15.818  11.523
46025W        W12456  33.080  19.221  11.970
46026W        W12457  23.473  32.436   0.022
46027W        W12458  31.183  43.078   4.384
46028W        W12459  13.909  21.676   4.222
46029W        W12460  21.616  11.412   2.606
46030W        W12461  12.876  43.793  11.648
46031W        W12462  14.424  44.764   4.384
46032W        W12463  24.791  39.926  10.751
46033W        W12464   9.127  36.122   3.658
46034W        W12465  22.693  40.824  14.104
46035W        W12466   9.821  15.384   2.775
46036W        W12467  27.020   2.664   2.661
46037W        W12468  31.382  38.529  10.604
46038W        W12469  40.589  38.073  10.070
46039W        W12470   4.434  13.998   0.873
46040W        W12471  30.658   0.503   1.784
46041W        W12472  23.772  44.997  10.767
46042W        W12473  43.481  18.201   3.095
46043W        W12474  22.547   4.403  11.475
46044W        W12475  44.852  20.113  14.909
46045W        W12476  23.248  33.888  12.480
46046W        W12477   9.600  17.168  14.328
46047W        W12478  15.655  11.864   4.112
46048W        W12479  44.862  31.568  14.382
46049W        W12480   8.046   1.744   4.607
46050W        W12481  33.831  19.191  11.578
46051W        W12482  18.266   9.410   1.745
46052W        W12483  12.056  15.783  10.614
46053W        W12484  22.259  27.199  14.065
46054W        W12485   9.193  11.110  11.468
46055W        W12486  36.827  36.164   2.756
46056W        W12487   3.932  39.794   4.501
46057W        W12488  10.589  33.987   3.246
46058W        W12489   2.262  36.430   4.261
46059W        W12490  40.354  22.043  12.996
46060W        W12491   2.123  40.249   1.765
46061W        W12492  33.429  26.143   4.339
46062W        W12493  40.635  28.270  12.431
46063W        W12494  33.588  36.654  11.619
46064W        W12495  11.533   6.222  13.600
46065W        W12496  12.750  14.009  10.711
46066W        W12497  17.704   4.978  10.321
46067W        W12498  17.053   4.355   0.404
46068W        W12499  34.930  21.664  14.286
46069W        W12500  37.894  23.995   4.025
46070W        W12501  26.025   8.510  10.408
46071W        W12502  41.517  36.332  13.979
46072W        W12503  40.066  30.502   1.250
46073W        W12504  34.811  34.089   4.666
46074W        W12505  16.147   3.453  12.102
46075W        W12506  28.473  11.695  12.945
46076W        W12507   9.386   8.130   1.226
46077W        W12508  32.486  15.335   2.873
46078W        W12509  40.741  13.760   1.562
46079W        W12510  37.012  32.217   1.975
46080W        W12511  37.699   0.228  12.021
46081W        W12512  27.129  10.464  13.827
46082W        W12513  24.155  17.185  14.445
46083W        W12514  12.156  30.387  13.995
46084W        W12515  34.432  44.442   2.339
46085W        W12516  15.652  21.646  14.952
46086W        W12517  43.491  14.981   4.811
46087W        W12518   9.610  27.690  12.160
46088W        W12519  28.200   1.269  12.247
46089W        W12520  26.610  26.057   0.175
46090W        W12521  19.261  29.849  10.581
46091W        W12522   9.647  36.319  13.327
46092W        W12523  30.189  35.980   3.832
46093W        W12524   3.919  10.419  12.943
46094W        W12525  27.185   2.196   4.771
46095W        W12526  37.908  36.688  14.859
46096W        W12527   9.285  17.767   2.929
46097W        W12528   5.432  18.977  13.412
46098W        W12529  18.606  16.321   0.905
46099W        W12530  23.909  33.650   3.247
46100W        W12531  27.621  32.436   4.646
46101W        W12532   4.738  28.983  14.986
46102W        W12533  40.922  22.463   3.214
46103W        W12534  12.216   4.348   2.153
46104W        W12535  39.281  16.218   0.325
46105W        W12536  17.578  40.832   0.449
46106W        W12537  18.263  40.961   1.007
46107W        W12538  17.655  18.585   4.175
46108W        W12539  24.423   8.832   4.100
46109W        W12540  43.708  43.977   2.267
46110W        W12541  44.945  10.394   2.365
46111W        W12542   2.284  40.039   1.312
46112W        W12543  28.116  33.568   1.948
46113W        W12544  37.884  35.841   9.993
46114W        W12545  18.122  11.074  14.061
46115W        W12546  24.221  25.880  14.179
46116W        W12547  11.501   7.792   2.684
46117W        W12548  20.637  32.842   0.388
46118W        W12549  27.967  37.961  10.765
46119W        W12550   8.523  35.486   4.106
46120W        W12551  15.991  11.625  10.252
46121W        W12552   8.391  19.621   0.028
46122W        W12553  27.915  21.169  11.093
46123W        W12554  24.546  35.273   0.921
46124W        W12555   9.619  21.205  10.862
46125W        W12556  41.803  41.943   4.592
46126W        W12557  21.046   7.487  14.874
46127W        W12558  44.183   5.725  13.488
46128W        W12559  23.886   5.403  14.249
46129W        W12560   6.456  24.886  11.181
46130W        W12561  37.618  13.782  12.027
46131W        W12562  30.753  36.661   5.114
46132W        W12563   3.848  32.036   3.407
46133W        W12564  10.194  42.529   2.005
46134W        W12565  13.825  42.947   3.364
46135W        W12566  12.150  19.932  14.754
46136W        W12567  18.495  31.605   1.932
46137W        W12568  34.046  42.217  10.785
46138W        W12569  44.472   5.393  13.099
46139W        W12570  24.086  24.536   4.576
46140W        W12571   8.338  41.919   0.607
46141W        W12572  26.577  16.276   3.822
46142W        W12573  23.402  22.032   3.101
46143W        W12574  18.768  17.159   4.506
46144W        W12575  23.986   7.408   3.263
46145W        W12576  31.993  18.108   2.576
46146W        W12577  23.400  35.077  11.899
46147W        W12578  21.674  43.450  14.784
46148W        W12579  27.962  28.237   0.432
46149W        W12580  17.629  17.376  12.114
46150W        W12581  16.673  20.759   4.538
46151W        W12582  11.432  42.786   4.177
46152W        W12583   0.756  21.680   0.296
46153W        W12584  26.080  36.101   0.024
46154W        W12585  21.221   0.937   2.808
46155W        W12586  37.499  19.425  11.246
46156W        W12587  40.307  40.026  14.268
46157W        W12588  40.923  33.649  12.978
46158W        W12589  39.935  29.629  11.966
46159W        W12590  35.066  34.531   4.427
46160W        W12591  43.300  21.297   3.740
46161W        W12592   4.900  20.539  14.972
46162W        W12593  22.213  10.613  12.582
46163W        W12594   7.233   4.244   0.458
46164W        W12595   2.973  23.105   4.244
46165W        W12596   7.176   5.776   3.751
46166W        W12597  19.366  32.831  10.861
46167W        W12598  11.319  44.537   3.797
46168W        W12599   8.320  41.788  11.575
46169W        W12600  28.690  10.472   4.057
46170W        W12601   2.053  38.830  10.675
46171W        W12602  15.409  37.277  12.666
46172W        W12603  42.078   3.471  14.520
46173W        W12604   9.780   4.800   3.668
46174W        W12605  22.550  13.041  13.349
46175W        W12606  18.645  10.408   0.069
46176W        W12607  23.640  18.716   5.213
46177W        W12608  23.977  23.083   3.700
46178W        W12609   4.580  31.978  14.760
46179W        W12610  36.326   0.749  13.018
46180W        W12611   7.593  22.710   2.911
46181W        W12612  43.775  42.267  11.589
46182W        W12613   4.822  22.023   3.686
46183W        W12614  33.142  27.544   0.403
46184W        W12615  36.334  27.029  14.875
46185W        W12616  21.494  37.432  11.121
46186W        W12617  37.461  22.056  10.300
46187W        W12618   1.886  11.350   0.779
46188W        W12619  10.768  37.711  13.507
46189W        W12620  16.270  28.521   4.168
46190W        W12621  13.159  19.854  14.892
46191W        W12622  33.714  32.051   1.265
46192W        W12623  25.465  44.802   3.734
46193W        W12624  43.937  41.833   0.566
46194W        W12625  20.713  25.425  11.233
46195W        W12626  31.024  31.330   2.569
46196W        W12627   8.495  15.020   0.715
46197W        W12628  40.044   5.153   3.633
46198W        W12629  18.620  29.177  13.010
46199W        W12630   3.033  37.312  14.705
46200W        W12631  21.890  10.727   3.180
46201W        W12632  25.742  30.916  13.410
46202W        W12633  17.209  39.863   3.422
46203W        W12634   1.046  10.741   1.663
46204W        W12635  15.911  21.226  13.633
46205W        W12636   8.736  16.843   0.364
46206W        W12637  20.777  26.236   4.164
46207W        W12638  11.820  15.410   1.799
46208W        W12639  29.263  24.061   3.788
46209W        W12640   4.734  40.440   4.754
46210W        W12641  15.212   7.889   0.743
46211W        W12642   0.941  34.374   4.986
46212W        W12643  18.468  42.321  13.071
46213W        W12644   0.911   7.783  14.781
46214W        W12645  22.313  11.741  14.320
46215W        W12646  38.544  42.418  11.657
46216W        W12647  40.346  42.662   1.879
46217W        W12648  42.418   4.835  12.423
46218W        W12649  13.603   4.103   3.033
46219W        W12650   6.900  11.602   3.585
46220W        W12651  12.517  38.376   3.761
46221W        W12652  24.191  13.906   2.824
46222W        W12653  38.519  36.188   1.158
46223W        W12654   5.942  41.058  14.566
46224W        W12655  12.859  14.529  10.738
46225W        W12656  31.494  20.701   1.707
46226W        W12657  22.307   4.211   0.247
46227W        W12658   2.413   3.033  12.296
46228W        W12659   3.744  23.752  14.842
46229W        W12660  43.637   8.573   3.400
46230W        W12661  41.862  36.385  12.354
46231W        W12662   0.609   3.390  11.103
46232W        W12663  19.803  33.145  13.949
46233W        W12664  11.248  27.886   0.320
46234W        W12665  23.231   7.829  14.275
46235W        W12666   9.456  41.920  11.354
46236W        W12667  28.758  14.848   2.894
46237W        W12668  25.935  12.623  13.978
46238W        W12669  43.080  30.686   3.668
46239W        W12670  19.286  16.034   1.700
46240W        W12671  11.319  30.350   3.272
46241W        W12672  32.457  40.824  13.070
46242W        W12673  30.557  44.738  12.086
46243W        W12674   2.156  13.231  14.896
46244W        W12675  31.874   4.945  14.489
46245W        W12676   8.401  38.805  12.636
46246W        W12677  22.191  36.498   0.780
46247W        W12678  25.193  25.643   1.188
46248W        W12679   0.498  18.606  11.989
46249W        W12680  34.012  16.137   0.485
46250W        W12681  30.606  37.864  14.225
46251W        W12682  44.821   4.784  11.161
46252W        W12683  17.811   8.789   4.611
46253W        W12684   3.205   8.899   4.674
46254W        W12685   7.518   8.417   1.798
46255W        W12686  25.206  28.679  10.665
46256W        W12687   8.807  44.469   4.018
46257W        W12688  15.111  20.161  10.699
46258W        W12689   1.565  15.554  13.978
46259W        W12690  23.977  13.575   5.077
46260W        W12691  18.743   5.514  11.119
46261W        W12692   8.769  10.651  10.368
46262W        W12693  29.671  14.096   3.407
46263W        W12694  41.964   0.739   1.649
46264W        W12695  42.485  34.329   4.116
46265W        W12696   8.109  26.462   4.212
46266W        W12697   2.241  44.538   2.671
46267W        W12698  37.555  18.327   3.221
46268W        W12699  14.431  37.527  12.412
46269W        W12700  32.188   7.196  13.617
46270W        W12701   0.265  13.641   3.720
46271W        W12702   5.654   6.362   3.172
46272W        W12703  14.843  26.181  13.298
46273W        W12704  18.628  27.599  11.533
46274W        W12705  38.054  20.679   0.775
46275W        W12706  36.956  19.358  13.412
46276W        W12707   2.213  24.672   4.038
46277W        W12708  23.424  40.888   4.016
46278W        W12709  18.058  21.144   3.613
46279W        W12710   5.760  23.124   1.360
46280W        W12711  15.261  30.636  14.831
46281W        W12712  28.558  29.025   2.437
46282W        W12713  19.627   3.389   4.411
46283W        W12714  21.577   9.879  11.230
46284W        W12715  31.623  15.617   1.701
46285W        W12716   9.962   4.761  13.982
46286W        W12717  29.249  17.063   1.702
46287W        W12718  28.050  25.044  11.436
46288W        W12719  44.918   1.857  11.479
46289W        W12720  20.818  22.108   3.318
46290W        W12721  36.954   8.914  12.153
46291W        W12722  28.553  21.528  14.849
46292W        W12723  39.540  12.418  13.371
46293W        W12724  28.661  32.668   0.783
46294W        W12725  38.835  33.520   2.734
46295W        W12726  23.028  44.564  11.717
46296W        W12727   7.799  19.950   1.784
46297W        W12728  34.549  14.939  11.198
46298W        W12729   6.412  26.998  12.083
46299W        W12730  20.440  23.638   3.018
46300W        W12731  29.411  38.437  11.869
46301W        W12732  29.414  22.942  13.788
46302W        W12733   6.280  39.513  13.758
46303W        W12734   4.350  36.328   0.710
46304W        W12735  11.675  19.642   1.875
46305W        W12736   4.704  26.372   4.103
46306W        W12737  16.621  36.315   4.585
46307W        W12738  26.746   0.747   2.724
46308W        W12739  17.161   7.719  11.024
46309W        W12740  29.892  22.296   2.866
46310W        W12741  35.940  35.334   2.899
46311W        W12742  13.054   3.290  10.265
46312W        W12743  25.580  41.325   2.443
46313W        W12744  18.363  38.922  14.433
46314W        W12745   8.492  23.890   3.038
46315W        W12746   5.864  34.565  12.962
46316W        W12747  44.208  30.579  14.863
46317W        W12748  10.446  40.931   4.203
46318W        W12749  17.527  31.972  14.314
46319W        W12750  41.805   2.640  11.891
46320W        W12751  13.138  16.397   3.374
46321W        W12752  33.909   7.448   0.441
46322W        W12753  27.963  21.894  11.829
46323W        W12754   0.355  23.240  11.946
46324W        W12755  36.989  42.718  11.306
46325W        W12756  41.101  26.707  10.745
46326W        W12757  32.371  14.263  13.047
46327W        W12758  24.463  35.409   0.438
46328W        W12759  34.045  18.448  11.958
46329W        W12760  44.477  18.836   4.909
46330W        W12761  37.966  35.964  13.149
46331W        W12762  38.927  38.863   1.772
46332W        W12763  20.826   1.606  11.049
46333W        W12764  35.740  43.671  14.348
46334W        W12765   7.280  31.729   2.435
46335W        W12766   2.346  11.131  13.966
46336W        W12767   4.963  18.042   3.219
46337W        W12768  30.644  39.591   0.237
46338W        W12769   9.932   2.372  13.141
46339W        W12770  39.278  19.716  13.535
46340W        W12771   7.022   8.267   1.846
46341W        W12772  42.069  34.480  10.986
46342W        W12773  20.334  32.079  12.651
46343W        W12774   7.719  38.567   3.127
46344W        W12775  17.923  44.554  14.288
46345W        W12776  42.866  24.037   2.221
46346W        W12777   0.284   7.638  12.972
46347W        W12778  14.954  32.172  10.332
46348W        W12779   0.924   1.897  12.061
46349W        W12780  20.467  25.451   2.779
46350W        W12781  18.232  22.611   3.144
46351W        W12782  11.140  16.201  13.362
46352W        W12783  26.629  24.983   4.187
46353W        W12784   6.833  28.232  14.398
46354W        W12785  35.482   3.669  13.528
46355W        W12786  42.602  25.514   2.439
46356W        W12787  13.728  12.588  12.952
46357W        W12788  25.455  20.749   3.135
46358W        W12789  24.907  29.617   3.674
46359W        W12790  30.061  42.417   2.620
46360W        W12791  40.185   3.941  10.795
46361W        W12792  36.515  39.854   2.919
46362W        W12793  31.479   3.833   3.798
46363W        W12794  32.925  33.929  14.420
46364W        W12795   2.713  22.330   2.723
46365W        W12796  36.466   9.946  10.990
46366W        W12797  37.234  39.984  12.728
46367W        W12798  27.620  36.970  14.403
46368W        W12799  22.301  14.353   2.732
46369W        W12800   0.579   4.593  12.498
46370W        W12801   2.901  34.314   2.769
46371W        W12802  24.127  10.713  12.357
46372W        W12803  17.074  31.511   2.706
46373W        W12804   9.233  20.448  11.259
46374W        W12805   9.299  11.752  13.332
46375W        W12806  24.118   7.893   4.116
46376W        W12807  36.434  22.989  12.550
46377W        W12808   4.247   7.771  10.693
46378W        W12809  39.080  33.249   1.926
46379W        W12810  25.001  17.493   4.241
46380W        W12811  30.894  36.115   1.163
46381W        W12812  26.753   9.428   2.821
46382W        W12813  25.194  42.777   4.573
46383W        W12814   8.279  30.677   3.161
46384W        W12815  18.608   0.241  12.090
46385W        W12816  20.670  14.105  12.480
46386W        W12817  39.693  38.821  10.952
46387W        W12818  24.600  43.647   3.190
46388W        W12819  38.401  36.862  11.121
46389W        W12820  17.695   3.176  13.819
46390W        W12821   6.952   6.236   3.830
46391W        W12822  14.355   7.300   1.647
46392W        W12823   9.375  15.459   3.135
46393W        W12824  25.242  25.537  12.034
46394W        W12825  33.062  27.506  12.259
46395W        W12826   6.363   1.989   4.220
46396W        W12827  13.985   5.465   3.224
46397W        W12828  19.468  37.945   3.630
46398W        W12829  10.584  24.729  11.947
46399W        W12830  38.434  22.224   0.509
46400W        W12831  16.552   7.126   1.371
46401W        W12832  25.843  40.836   3.299
46402W        W12833  18.608  18.049  11.573
46403W        W12834  28.999  22.720  13.009
46404W        W12835   0.380  36.580   1.849
46405W        W12836   5.959  40.161  14.422
46406W        W12837  26.056   3.112   0.749
46407W        W12838   4.569  36.951   1.354
46408W        W12839   3.349  30.184  14.957
46409W        W12840   1.960   2.306  13.146
46410W        W12841  31.656  32.612   0.930
46411W        W12842  32.109  21.538   2.759
46412W        W12843  44.533  40.958   0.915
46413W        W12844  36.939  25.732  14.742
46414W        W12845  17.094   0.302  10.888
46415W        W12846   5.401   5.375   1.043
46416W        W12847  10.594  37.373  12.340
46417W        W12848   3.947   4.711  14.083
46418W        W12849  20.984   0.832  12.461
46419W        W12850  10.256  43.365   1.117
46420W        W12851  24.936  34.546   2.652
46421W        W12852  20.909  35.936   4.113
46422W        W12853  23.735  34.096   3.008
46423W        W12854  16.040   6.269   9.909
46424W        W12855  30.574  28.673   2.012
46425W        W12856  33.054  20.531   2.634
46426W        W12857  22.940  24.490  13.128
46427W        W12858  20.692  34.128  14.792
46428W        W12859  38.087  10.741   3.180
46429W        W12860  28.554   6.799  13.032
46430W        W12861  24.784   5.882  13.397
46431W        W12862   0.410  20.829  12.088
46432W        W12863   5.620   2.722  12.163
46433W        W12864   2.024  40.951   0.420
46434W        W12865  44.229  34.828   1.503
46435W        W12866  10.617  11.894  10.929
46436W        W12867  43.576  29.456   0.197
46437W        W12868  24.676  23.136   4.324
46438W        W12869  25.626  12.608   1.029
46439W        W12870  35.973  14.814   4.428
46440W        W12871  11.270  10.576  10.797
46441W        W12872  43.333   7.244   3.325
46442W        W12873  41.968  36.714   2.219
46443W        W12874  37.612  16.075   2.830
46444W        W12875  36.617  14.286  10.288
46445W        W12876  22.564   4.032   3.843
46446W        W12877  24.518  31.628   4.985
46447W        W12878  19.662   9.599   1.859
46448W        W12879  10.678  14.561  10.841
46449W        W12880  20.587  40.543   2.202
46450W        W12881  24.975  16.552  10.807
46451W        W12882  40.865  27.547   0.985
46452W        W12883  25.879  18.611   2.324
46453W        W12884  27.411   2.134   3.563
46454W        W12885  44.504  32.530  13.529
46455W        W12886  24.741   9.394  11.127
46456W        W12887  19.098  41.148  14.856
46457W        W12888  34.847  38.709   9.810
46458W        W12889   8.264  33.110   4.782
46459W        W12890  15.127  14.369   0.437
46460W        W12891  15.659  44.179   4.624
46461W        W12892  38.789   5.750   4.848
46462W        W12893   4.263  41.066  11.890
46463W        W12894   7.862  31.011   2.492
46464W        W12895  32.708  16.077  10.350
46465W        W12896  20.159   3.275   0.126
46466W        W12897   5.287  28.666  13.558
46467W        W12898  12.743  14.363  13.654
46468W        W12899  44.961  33.631   4.771
46469W        W12900  19.049  31.661   2.636
46470W        W12901  38.553  40.493   4.518
46471W        W12902   7.858  26.998  12.915
46472W        W12903   4.310   1.863   1.323
46473W        W12904  27.688  18.259   2.252
46474W        W12905  33.473   3.861   4.673
46475W        W12906  35.883  19.764   0.851
46476W        W12907  10.057   9.887  13.006
46477W        W12908  28.974  19.334   1.285
46478W        W12909  11.646  39.462   4.134
46479W        W12910  41.919  44.825   0.270
46480W        W12911  21.196  33.122  12.038
46481W        W12912   2.426   3.719  12.910
46482W        W12913  32.988  42.751   2.236
46483W        W12914  32.567  19.162   2.926
46484W        W12915  13.672  15.916   3.642
46485W        W12916  26.456  36.789  13.614
46486W        W12917  22.036  23.218  14.337
46487W        W12918   8.349  26.920   1.711
46488W        W12919  33.133  35.330   1.455
46489W        W12920  25.004  40.312   4.597
46490W        W12921   6.364  35.636   0.913
46491W        W12922  16.859  13.220   2.291
46492W        W12923  27.637   7.899  11.613
46493W        W12924  13.130  15.136   3.786
46494W        W12925  18.809  40.166  13.999
46495W        W12926  19.061  10.177  12.072
46496W        W12927  37.292  21.165   0.272
46497W        W12928   5.292  40.235   3.358
46498W        W12929  22.423   9.637   4.668
46499W        W12930  33.844  43.858  12.764
46500W        W12931  29.832  31.560   3.935
46501W        W12932  31.607  32.624   2.201
46502W        W12933  16.175  26.561   0.496
46503W        W12934  11.809   0.784   1.811
46504W        W12935  27.478  11.271   0.760
46505W        W12936  25.689   5.406   2.443
46506W        W12937  25.406  35.907  13.969
46507W        W12938   8.978  38.366   0.327
46508W        W12939   5.799  28.048  14.837
46509W        W12940  31.468  26.119   0.261
46510W        W12941  15.327  25.171  12.921
46511W        W12942  44.646  17.203   0.811
46512W        W12943  18.429   3.654   2.644
46513W        W12944  10.087  22.630  14.906
46514W        W12945  17.123   3.430  14.981
46515W        W12946  14.525  18.262  11.971
46516W        W12947  26.627  23.713  12.397
46517W        W12948  34.623  18.158   1.383
46518W        W12949  20.715  25.772  10.811
46519W        W12950  13.586   0.180  14.397
46520W        W12951  34.015  13.716  10.926
46521W        W12952  21.057  28.187   1.359
46522W        W12953  13.861  34.762   4.642
46523W        W12954  15.652  44.978   3.142
46524W        W12955  44.880   2.501   4.734
46525W        W12956  42.401   0.697   4.805
46526W        W12957  33.781  37.851   3.634
46527W        W12958  44.442  44.733  15.000
46528W        W12959  44.417  41.438   1.322
46529W        W12960   8.296  20.129   2.990
46530W        W12961  20.181  43.455   2.282
46531W        W12962  10.303  40.508  11.560
46532W        W12963  33.306  37.589   5.167
46533W        W12964  12.231  41.848   1.891
46534W        W12965   3.768   7.775  13.718
46535W        W12966  17.839  23.100  10.440
46536W        W12967  22.738  12.066  13.642
46537W        W12968  42.912  29.284   0.356
46538W        W12969  41.558  24.242   0.351
46539W        W12970   5.952  11.145  14.433
46540W        W12971   9.844  10.104   3.748
46541W        W12972  19.985   4.179  10.688
46542W        W12973  37.056  29.031   5.051
46543W        W12974  26.343  23.669  14.411
46544W        W12975  22.558  21.454   1.575
46545W        W12976  44.155  18.675   4.507
46546W        W12977   2.476  18.776   3.073
46547W        W12978  10.800  34.404  10.441
46548W        W12979  13.329  13.256  13.883
46549W        W12980  16.638  38.490   2.826
46550W        W12981   6.723  29.839  11.093
46551W        W12982  10.355  30.668   3.225
46552W        W12983  40.074  38.917  14.260
46553W        W12984   3.822  44.223   4.081
46554W        W12985  22.027  31.122  11.882
46555W        W12986  21.543  41.760  14.989
46556W        W12987   3.399  19.946  12.545
46557W        W12988  20.875  39.334   2.262
46558W        W12989  19.904  28.117   1.326
46559W        W12990  35.464  43.486   3.301
46560W        W12991  40.237  40.056   1.286
46561W        W12992  17.746  27.444  11.511
46562W        W12993  39.185   3.754   0.080
46563W        W12994  26.149   1.881  12.829
46564W        W12995  16.456   1.356  11.682
46565W        W12996  43.992  44.253  10.734
46566W        W12997  15.797  18.499  14.108
46567W        W12998  11.373   7.690  13.939
46568W        W12999  33.837  28.225   0.327
46569W        W13000  25.480  37.300   1.636
46570W        W13001  10.530   2.167  14.756
46571W        W13002  33.523  37.953  10.746
46572W        W13003  31.639  17.523   3.624
46573W        W13004  40.054  30.253   1.707
46574W        W13005  22.072  35.132  11.279
46575W        W13006   2.173   3.460  11.213
46576W        W13007  11.882  17.380  13.835
46577W        W13008  20.942  24.939  11.109
46578W        W13009   9.141  36.665   3.801
46579W        W13010  22.362  38.943  11.923
46580W        W13011  42.902  18.691  11.825
46581W        W13012  23.662   4.431  10.599
46582W        W13013  43.382  35.133   3.397
46583W        W13014   1.530  21.177  12.980
46584W        W13015  28.093  35.930   1.839
46585W        W13016  27.149  19.297  12.940
46586W        W13017  33.989  12.821   2.975
46587W        W13018   9.225  43.971  12.460
46588W        W13019  40.099   6.888   2.721
46589W        W13020  16.872  35.029   2.228
46590W        W13021   4.691  22.849   5.191
46591W        W13022  39.884  21.268  12.020
46592W        W13023   1.505  20.337   2.340
46593W        W13024  39.486  22.465  11.167
46594W        W13025  19.630  32.660   4.255
46595W        W13026   0.980  38.502  13.611
46596W        W13027  38.785  10.413  12.323
46597W        W13028   5.185  22.515   2.915
46598W        W13029  33.933  39.558   4.795
46599W        W13030  13.624  27.550   0.196
46600W        W13031   7.846  33.409   0.293
46601W        W13032  19.048  34.463  10.813
46602W        W13033  32.328   2.665  11.090
46603W        W13034   6.091  30.977  12.092
46604W        W13035  10.126  29.772  11.610
46605W        W13036  32.061  39.884  14.502
46606W        W13037   7.671  18.782  13.007
46607W        W13038  43.096  24.303   0.548
46608W        W13039  35.126  42.970   4.520
46609W        W13040  20.528  29.599   1.931
46610W        W13041  11.148  19.813  12.665
46611W        W13042   5.394  20.195   4.572
46612W        W13043  26.063  41.543  14.726
46613W        W13044  44.366  37.520  11.573
46614W        W13045  35.912  28.502   4.672
46615W        W13046   5.266  19.713   4.742
46616W        W13047  44.876   7.215  12.505
46617W        W13048  32.535  25.684  14.796
46618W        W13049  14.204  22.707  10.664
46619W        W13050  38.270  12.813   1.433
46620W        W13051   8.370  21.212   0.401
46621W        W13052  37.575  16.772   3.117
46622W        W13053  32.796  14.193   4.188
46623W        W13054  19.761  44.059  10.698
46624W        W13055  40.608  28.544  14.233
46625W        W13056   2.986   8.964   3.790
46626W        W13057  21.722  23.655  13.579
46627W        W13058   4.148  37.238   1.498
46628W        W13059  20.876  36.715  11.064
46629W        W13060  14.789  37.700   4.567
46630W        W13061  27.644  39.952  13.353
46631W        W13062   5.418  37.805   0.213
46632W        W13063  37.925  12.725  14.469
46633W        W13064   3.866  18.189  12.758
46634W        W13065  33.211   9.777  12.107
46635W        W13066  19.558   4.809  13.517
46636W        W13067  37.987  10.868  12.035
46637W        W13068   3.993   0.315   2.627
46638W        W13069   8.744  40.023   2.776
46639W        W13070   1.310  19.736  12.932
46640W        W13071  17.926  33.032   0.401
46641W        W13072  21.663   9.711  13.413
46642W        W13073  27.062   1.410   2.380
46643W        W13074  35.022   0.036   4.288
46644W        W13075  32.810  40.297  13.868
46645W        W13076   0.372   1.685   1.323
46646W        W13077  22.250  34.678  11.530
46647W        W13078  31.123  30.120   2.096
46648W        W13079  28.013   3.052  11.130
46649W        W13080  34.944  29.035   4.912
46650W        W13081  11.988   5.651   4.189
46651W        W13082  28.019  20.531   0.579
46652W        W13083  21.513   6.775  14.748
46653W        W13084  30.192   4.856  13.474
46654W        W13085   6.371  36.205   3.672
46655W        W13086  32.484  14.277   1.590
46656W        W13087  32.511  37.559  12.044
46657W        W13088  13.701  39.505  13.239
46658W        W13089   3.799   3.796  14.401
46659W        W13090  17.299   1.783  11.740
46660W        W13091  12.613  37.075  12.983
46661W        W13092  24.495  32.918   1.302
46662W        W13093  15.158  31.370  10.730
46663W        W13094   4.183  18.563   4.136
46664W        W13095  37.089   9.336  14.723
46665W        W13096  20.945  29.628  10.342
46666W        W13097   3.816  35.285   4.215
46667W        W13098  29.123  13.830  10.652
46668W        W13099  31.639  21.246   2.532
46669W        W13100  10.115  39.160   4.685
46670W        W13101  37.042   2.713  12.556
46671W        W13102   3.964  16.265   1.846
46672W        W13103  20.027  26.162   3.801
46673W        W13104  40.282  30.599   2.384
46674W        W13105  32.998  29.248   3.667
46675W        W13106   1.882  33.021  12.372
46676W        W13107  23.142  40.722   2.353
46677W        W13108  22.013  34.062   2.321
46678W        W13109  24.542  31.513  14.336
46679W        W13110  43.906  18.040   3.329
46680W        W13111  41.471   8.510   0.495
46681W        W13112  18.029  33.355   4.589
46682W        W13113  37.050  35.613  13.996
46683W        W13114  22.263  34.692  14.510
46684W        W13115  40.542   2.004  12.759
46685W        W13116   8.626   9.734  13.051
46686W        W13117  20.476  17.819   3.200
46687W        W13118   7.812  23.002  14.381
46688W        W13119  30.279  11.925   4.097
46689W        W13120  25.404   8.325   4.092
46690W        W13121  33.587  36.312  14.056
46691W        W13122  17.648  27.950  13.556
46692W        W13123  26.057  39.515  12.050
46693W        W13124  11.216  16.324  10.936
46694W        W13125  21.668  21.561   1.312
46695W        W13126  26.148  21.256   4.351
46696W        W13127   6.678  15.828  14.066
46697W        W13128  39.944  38.790  12.525
46698W        W13129  19.517  12.767   0.116
46699W        W13130  37.881  29.514  12.813
46700W        W13131  21.299  32.472  11.438
46701W        W13132  33.118  17.017   2.420
46702W        W13133  37.351  25.116   1.614
46703W        W13134  20.718  11.188   3.368
46704W        W13135  19.500   5.522   0.411
46705W        W13136  40.339  29.404   2.140
46706W        W13137  36.484   3.898   1.424
46707W        W13138   5.720  27.008  11.775
46708W        W13139  38.691  41.818   1.736
46709W        W13140  40.074  33.091   4.397
46710W        W13141  37.958  25.365  10.255
46711W        W13142  32.553   6.333   1.373
46712W        W13143   8.818   9.087   1.214
46713W        W13144   0.272  44.065  10.426
46714W        W13145  17.236   7.192  10.777
46715W        W13146  11.339  10.282   3.694
46716W        W13147   9.694  28.615  11.892
46717W        W13148  34.860  13.059  13.887
46718W        W13149   5.265   5.563  13.109
46719W        W13150  19.821  16.293   0.435
46720W        W13151  35.502  12.029  13.322
46721W        W13152  33.856  25.165   3.551
46722W        W13153  33.461  21.976  10.849
46723W        W13154  15.560  12.167  12.152
46724W        W13155  38.874  27.124  12.268
46725W        W13156   9.867   0.363   2.300
46726W        W13157  35.303  23.042  14.837
46727W        W13158  13.215  10.526   3.770
46728W        W13159   8.035   2.490   5.195
46729W        W13160  22.169  17.655  14.920
46730W        W13161  44.808  35.054  11.372
46731W        W13162   4.777  38.603  11.294
46732W        W13163   6.833  38.911   0.869
46733W        W13164  23.463  28.881   2.222
46734W        W13165  26.634  40.416  14.941
46735W        W13166  26.081   2.374  10.454
46736W        W13167  25.429  12.882   3.260
46737W        W13168   0.776  13.695  12.810
46738W        W13169   2.228   9.599   4.136
46739W        W13170  43.977   4.259   2.043
46740W        W13171  23.471  42.819  14.417
46741W        W13172  42.973  33.032  10.684
46742W        W13173   1.479  15.274  14.816
46743W        W13174  16.671  19.386  14.526
46744W        W13175  20.520   8.125   0.215
46745W        W13176  44.931   0.866   0.284
46746W        W13177   5.809  33.397  12.962
46747W        W13178  22.167  29.095   0.012
46748W        W13179   1.496  13.151   2.265
46749W        W13180   9.811  39.950  12.919
46750W        W13181  39.323  30.670  14.878
46751W        W13182  34.530   9.940  13.336
46752W        W13183  43.474  43.075  12.724
46753W        W13184  10.147  15.268   0.369
46754W        W13185  34.134  35.470  10.492
46755W        W13186   7.585  16.109  13.659
46756W        W13187  12.925  37.369  12.040
46757W        W13188  39.086  15.392   0.453
46758W        W13189  13.438   6.907  13.117
46759W        W13190  25.702  31.087  11.127
46760W        W13191  32.544  34.334   0.230
46761W        W13192  15.034  26.271  14.925
46762W        W13193  21.168  11.130  11.648
46763W        W13194  19.156  31.159  14.956
46764W        W13195  32.672   3.465  10.754
46765W        W13196  44.997  31.309  13.919
46766W        W13197  30.535  33.694  14.821
46767W        W13198  23.061  16.346  14.266
46768W        W13199   4.317  28.140   4.164
46769W        W13200   1.522  15.612   3.379
46770W        W13201  28.665  42.723  12.483
46771W        W13202   0.806  11.336   2.913
46772W        W13203  23.990  27.246  10.040
46773W        W13204  23.594  23.776  13.492
46774W        W13205   2.886  43.241  13.474
46775W        W13206  20.698  35.895   3.620
46776W        W13207  13.857  36.882   0.834
46777W        W13208  44.259  31.138   5.033
46778W        W13209  10.115   4.918  10.656
46779W        W13210  42.108  15.892   4.437
46780W        W13211  38.347  40.995   1.704
46781W        W13212  33.932  24.999   1.133
46782W        W13213  32.119   9.336  14.947
46783W        W13214   2.477  16.240   0.264
46784W        W13215  42.212   7.499   4.205
46785W        W13216  11.889  20.804  12.573
46786W        W13217  10.303   3.317  11.902
46787W        W13218  24.194  14.842   3.755
46788W        W13219  21.631  27.042   0.062
46789W        W13220  19.525   8.825  14.407
46790W        W13221   6.862  23.503  12.057
46791W        W13222  16.462  42.732   1.882
46792W        W13223   2.977  43.789   2.191
46793W        W13224   6.931   8.107  12.003
46794W        W13225  28.704  36.566   4.165
46795W        W13226   7.618   5.205  12.149
46796W        W13227  43.060   9.742   1.517
46797W        W13228  38.753   0.761  12.377
46798W        W13229  37.557   2.442   0.171
46799W        W13230  38.410  30.387   0.266
46800W        W13231  19.618  24.707   5.018
46801W        W13232  11.665   7.813   2.144
46802W        W13233  13.842  31.045  13.960
46803W        W13234   1.986  13.612  12.108
46804W        W13235  22.242  26.516   0.893
46805W        W13236  44.703  27.993   0.814
46806W        W13237  20.249  39.540  14.939
46807W        W13238  28.543  20.256   1.761
46808W        W13239  27.205  38.066  11.720
46809W        W13240  10.859   1.242  10.720
46810W        W13241  29.700  30.051   2.379
46811W        W13242  19.147  19.577   1.250
46812W        W13243  16.178  39.731  10.418
46813W        W13244  41.370  26.626   0.797
46814W        W13245  16.719  36.460   0.927
46815W        W13246   4.395   1.422   4.070
46816W        W13247  20.615  41.988   2.281
46817W        W13248  40.298   7.684  12.930
46818W        W13249  17.839   0.687  12.367
46819W        W13250  20.655  38.003   4.483
46820W        W13251  13.636   3.167  12.903
46821W        W13252  27.013   8.516  10.513
46822W        W13253  19.669  25.357   3.342
46823W        W13254   0.898  37.152   3.334
46824W        W13255   2.072  35.093   3.193
46825W        W13256   6.020  10.887   1.531
46826W        W13257  13.332  10.441  14.453
46827W        W13258  25.629  38.384  11.834
46828W        W13259   3.686  37.955   3.929
46829W        W13260  13.122  28.463   2.153
46830W        W13261  28.985  40.384  10.422
46831W        W13262  32.839  43.665   2.311
46832W        W13263  24.662  28.636   2.226
46833W        W13264   2.293  14.827   4.517
46834W        W13265  25.514  21.229  12.424
46835W        W13266  12.351   3.067   4.882
46836W        W13267  29.956  35.027   2.046
46837W        W13268  12.401  33.431   1.748
46838W        W13269  27.169   6.945  10.759
46839W        W13270  26.732  33.536   1.570
46840W        W13271   4.485   6.752   4.662
46841W        W13272  36.595  23.218   0.173
46842W        W13273  36.905  30.949   3.161
46843W        W13274  26.929  41.994   3.730
46844W        W13275  26.073  43.820   4.352
46845W        W13276  40.473  41.278  10.688
46846W        W13277  24.423  23.665   2.255
46847W        W13278  31.434  42.479  14.811
46848W        W13279   2.507  24.485  11.654
46849W        W13280  42.898  39.780  11.579
46850W        W13281  38.358   5.843   0.710
46851W        W13282   9.929  21.168   0.836
46852W        W13283  32.486  44.871  13.560
46853W        W13284  44.826  40.508  12.610
46854W        W13285   8.870   2.964   4.616
46855W        W13286   6.187   5.625  11.570
46856W        W13287  13.965  12.314   4.624
46857W        W13288  33.628   2.969  14.272
46858W        W13289  22.237  43.290  14.335
46859W        W13290  14.844  16.172   1.015
46860W        W13291  44.306   3.857   1.741
46861W        W13292  27.256  26.993   0.864
46862W        W13293   7.340  20.200  14.268
46863W        W13294  42.328  43.787  10.708
46864W        W13295  35.960  41.188   2.341
46865W        W13296  21.738  25.827   3.167
46866W        W13297  14.370  33.020   3.162
46867W        W13298  38.788  14.332  10.388
46868W        W13299  23.098  43.490   4.082
46869W        W13300   5.938   0.728   1.861
46870W        W13301   8.825  10.339   1.232
46871W        W13302  22.107   4.543  10.707
46872W        W13303  12.011  23.241   4.435
46873W        W13304  13.296  33.438   2.652
46874W        W13305  12.292  19.384  12.147
46875W        W13306  31.525  32.963  12.948
46876W        W13307  22.468  13.462  14.277
46877W        W13308  10.843  14.560   3.662
46878W        W13309  30.019  37.130  10.605
46879W        W13310  43.603  34.504  12.610
46880W        W13311  37.122  29.357   0.570
46881W        W13312  28.359  27.696  11.982
46882W        W13313  17.362   0.451  11.298
46883W        W13314   0.833  37.428  14.462
46884W        W13315   5.930  28.229   4.113
46885W        W13316   9.583   9.937   2.837
46886W        W13317  26.254  10.466   3.218
46887W        W13318  38.539  22.156   1.010
46888W        W13319  29.176   2.188   2.349
46889W        W13320  28.486  11.826   2.251
46890W        W13321  16.295  42.767  12.861
46891W        W13322  31.663  16.249   2.266
46892W        W13323  16.262  34.015   3.897
46893W        W13324   6.084  41.460   2.157
46894W        W13325  33.586   5.672   0.230
46895W        W13326  12.152  22.258   3.127
46896W        W13327  20.783  44.758   2.769
46897W        W13328  33.834  12.691   4.439
46898W        W13329  40.299  22.983   1.828
46899W        W13330  34.981  27.539   0.530
46900W        W13331  38.928   8.357  13.073
46901W        W13332  34.026  33.186  11.520
46902W        W13333  34.298  20.056  12.863
46903W        W13334  14.691  17.963  14.837
46904W        W13335  10.317  12.266   2.159
46905W        W13336  33.422  11.307  14.372
46906W        W13337  42.292  21.256   2.186
46907W        W13338  32.466  40.809   1.739
46908W        W13339  18.241  18.121  13.833
46909W        W13340  44.181   4.942  12.985
46910W        W13341   9.725  31.111   2.744
46911W        W13342  32.549  30.403   5.001
46912W        W13343  19.628  40.141  10.103
46913W        W13344  33.486  35.373  12.084
46914W        W13345  38.999  40.491   4.884
46915W        W13346   2.708  34.408  12.394
46916W        W13347  31.893  42.302  11.605
46917W        W13348  27.041   6.410   3.272
46918W        W13349   3.429  30.915   3.734
46919W        W13350   0.757  36.670  12.446
46920W        W13351  24.061  12.779   3.699
46921W        W13352  38.502  23.556   1.507
46922W        W13353  31.694   9.581  14.327
46923W        W13354  10.813  44.439  10.574
46924W        W13355  25.513  21.961  12.954
46925W        W13356  39.306  18.247  13.553
46926W        W13357  32.302  31.087  14.505
46927W        W13358   5.994  20.710   2.802
46928W        W13359  14.446  32.016  11.499
46929W        W13360  32.072  29.114  13.679
46930W        W13361   9.687  27.076   0.531
46931W        W13362  39.955   6.012   2.831
46932W        W13363  33.036  13.193   1.369
46933W        W13364  24.306  11.153  14.559
46934W        W13365  27.135  16.908  14.518
46935W        W13366   4.490  13.238   0.337
46936W        W13367  39.420   8.928  14.551
46937W        W13368  40.123  29.807  11.519
46938W        W13369  24.772  11.622  11.518
46939W        W13370   0.469   1.834   0.153
46940W        W13371  31.340  43.946   4.260
46941W        W13372  26.684  10.609  11.207
46942W        W13373  15.168  32.375  13.491
46943W        W13374  17.554  26.207   2.864
46944W        W13375  18.179  20.660   0.908
46945W        W13376   7.267  35.423  14.026
46946W        W13377  10.776  11.262   0.316
46947W        W13378  14.864  23.958   4.894
46948W        W13379  44.911  37.670  12.468
46949W        W13380  26.122  16.303  10.843
46950W        W13381  27.688  11.946   3.666
46951W        W13382  33.121  41.304  10.600
46952W        W13383  17.653  25.579  11.505
46953W        W13384   6.390  38.528  11.188
46954W        W13385  22.882  25.993   1.855
46955W        W13386  40.502   5.957  12.071
46956W        W13387  16.367  39.381  12.156
46957W        W13388  30.410   2.284   0.382
46958W        W13389  21.494  22.515   5.043
46959W        W13390  25.126  17.166  14.717
46960W        W13391   4.149   8.339   1.866
46961W        W13392  10.841  33.525  13.482
46962W        W13393  34.965  30.209  14.413
46963W        W13394  32.382  19.587  14.819
46964W        W13395  10.290   8.207  12.903
46965W        W13396  13.985   7.848  12.408
46966W        W13397  16.086  39.362   2.737
46967W        W13398  21.266   6.229  10.333
46968W        W13399  38.487  25.735   0.711
46969W        W13400  25.525  30.455   1.390
46970W        W13401  41.461  20.297  12.507
46971W        W13402  23.601  21.324  14.380
46972W        W13403  43.882  30.179   2.736
46973W        W13404   5.727   0.207  10.880
46974W        W13405  28.044  15.834   2.234
46975W        W13406   0.942   8.478  10.827
46976W        W13407  10.510  23.312   3.495
46977W        W13408  28.610  32.974  12.993
46978W        W13409   3.851   2.260  14.116
46979W        W13410  43.841  12.424   1.356
46980W        W13411  37.426  38.029   1.776
46981W        W13412  39.724  12.099   0.985
46982W        W13413  32.573  23.118  14.054
46983W        W13414  17.087  34.878   1.771
46984W        W13415   3.875  36.107  10.374
46985W        W13416  33.048  36.445  13.360
46986W        W13417  22.181  25.159  13.360
46987W        W13418  32.578  21.171  13.028
46988W        W13419  11.859  25.578  12.616
46989W        W13420   7.576  25.666   4.748
46990W        W13421  24.243  38.544  13.662
46991W        W13422  25.130  40.774   2.826
46992W        W13423  26.919  26.391   3.299
46993W        W13424  32.127  10.780   2.461
46994W        W13425  10.255  21.152   1.223
46995W        W13426  10.438  24.583  13.053
46996W        W13427  21.639   0.716  12.176
46997W        W13428  33.527  33.368   0.021
46998W        W13429  33.666  29.395  11.414
46999W        W13430  36.043  41.392   0.944
47000W        W13431  35.593  21.045  12.090
47001W        W13432  12.337  12.117  13.397
47002W        W13433  30.918  14.688   3.168
47003W        W13434  18.442  30.469  11.687
47004W        W13435   1.185  14.123   0.436
47005W        W13436  22.574  35.346   3.620
47006W        W13437  35.364  16.598  13.059
47007W        W13438   7.256  44.285   3.090
47008W        W13439  39.888   5.019   4.626
47009W        W13440  26.558  39.619   1.377
47010W        W13441  34.469   4.830  12.490
47011W        W13442  17.970  42.186   4.237
47012W        W13443  41.854   9.367   3.879
47013W        W13444  30.104  27.446   0.932
47014W        W13445  32.927  38.497  13.358
47015W        W13446  34.645  36.934   2.781
47016W        W13447  19.279  35.763  11.182
47017W        W13448  21.040  36.471  12.009
47018W        W13449  29.111   0.039  11.716
47019W        W13450  14.340  29.607  13.790
47020W        W13451  18.695   6.203  13.560
47021W        W13452  10.343  16.820   0.674
47022W        W13453  20.000  10.883   2.484
47023W        W13454   4.020  28.526  10.922
47024W        W13455  34.711  15.850  11.229
47025W        W13456  23.625  29.786   2.358
47026W        W13457  24.435   8.241  11.067
47027W        W13458   0.381  32.112   1.808
47028W        W13459  12.715  13.150  14.848
47029W        W13460  44.876  18.336   3.188
47030W        W13461  12.318  24.725  14.304
47031W        W13462  11.270  20.298   3.488
47032W        W13463  36.096  20.700  13.916
47033W        W13464  28.668  38.617   2.885
47034W        W13465   7.829  30.917   3.009
47035W        W13466  33.035   4.744   3.998
47036W        W13467  10.923   5.201  11.128
47037W        W13468  42.339  12.420   1.774
47038W        W13469  41.623   2.773  14.845
47039W        W13470  33.223  10.191  13.845
47040W        W13471  22.674  12.144  13.127
47041W        W13472   6.271   9.106   9.944
47042W        W13473  22.971   7.202   4.106
47043W        W13474  13.208  40.107   2.819
47044W        W13475  15.039  27.305  10.576
47045W        W13476   6.955  14.597   5.122
47046W        W13477   4.921   8.456   2.397
47047W        W13478  43.588  31.140   2.443
47048W        W13479  13.898  44.336  12.885
47049W        W13480  28.559  19.743  12.446
47050W        W13481  12.353  16.620  11.459
47051W        W13482  16.822   8.715  10.997
47052W        W13483   2.670  10.269   3.636
47053W        W13484  35.409  10.078  11.518
47054W        W13485  27.026  28.870   3.346
47055W        W13486   5.190  31.344   0.298
47056W        W13487  35.843  13.979  14.834
47057W        W13488  40.860  29.884  14.861
47058W        W13489  33.097   4.365   1.772
47059W        W13490  29.943  15.863  14.309
47060W        W13491  34.959   3.864  10.758
47061W        W13492  35.587  42.285   0.877
47062W        W13493   7.845  23.280   3.585
47063W        W13494   4.748   5.178  11.920
47064W        W13495  26.539   6.696  14.861
47065W        W13496  12.261  33.805   0.948
47066W        W13497  35.316  27.671   3.251
47067W        W13498  13.967  33.088   3.470
47068W        W13499  29.084   8.344   1.272
47069W        W13500   2.762  36.975   4.562
47070W        W13501  28.921  10.283   1.055
47071W        W13502  35.330   2.473   3.784
47072W        W13503   5.727  44.825   1.891
47073W        W13504  31.435  15.283   4.549
47074W        W13505  37.058  33.958   2.701
47075W        W13506  42.207  35.530   3.776
47076W        W13507  27.228   6.944   0.774
47077W        W13508  42.453  32.265  12.565
47078W        W13509   2.674  17.714  14.793
47079W        W13510   3.167  39.127  14.250
47080W        W13511  30.518  24.614   2.797
47081W        W13512  13.172  39.120   0.374
47082W        W13513  15.181  22.719  13.026
47083W        W13514  24.175  26.151  11.518
47084W        W13515  23.771   0.901  11.095
47085W        W13516  11.347  18.852   3.706
47086W        W13517   0.088  11.204  12.963
47087W        W13518  41.004   4.940  12.504
47088W        W13519  14.025  12.625   1.209
47089W        W13520   8.199  21.206   4.815
47090W        W13521  34.572  29.654  11.132
47091W        W13522   4.221   8.179   1.372
47092W        W13523  34.571  20.045  14.679
47093W        W13524   3.362   0.578  13.917
47094W        W13525  28.465  29.479   4.809
47095W        W13526  30.183   2.596   3.641
47096W        W13527   6.178  33.711   0.511
47097W        W13528  34.993   0.716   3.707
47098W        W13529   9.675   5.873  12.002
47099W        W13530  19.335  19.991   1.006
47100W        W13531  36.985  34.566  10.637
47101W        W13532  40.353  41.995  13.888
47102W        W13533  43.480  28.202   3.616
47103W        W13534  14.645  20.419  10.746
47104W        W13535  19.074  22.825  11.663
47105W        W13536  40.574  13.702   2.959
47106W        W13537  25.979  44.517   1.778
47107W        W13538  18.267  12.766  13.532
47108W        W13539  41.822  15.856  14.751
47109W        W13540   4.133  39.641   0.454
47110W        W13541  42.837  11.027  13.911
47111W        W13542  21.460  44.310   2.457
47112W        W13543  16.121  29.665  14.437
47113W        W13544  28.019  18.647   1.204
47114W        W13545  43.237  39.636   1.324
47115W        W13546  11.616  25.892   1.086
47116W        W13547  20.004  33.384  10.919
47117W        W13548  38.991  21.785   2.357
47118W        W13549  21.166   3.932  11.948
47119W        W13550   2.034  44.359  12.867
47120W        W13551   3.494   1.776   2.734
47121W        W13552  14.896   5.647   0.001
47122W        W13553  23.380   3.891  12.455
47123W        W13554  21.920  41.200  13.477
47124W        W13555  14.368  10.924  10.574
47125W        W13556  31.936  12.772  14.001
47126W        W13557  43.941  16.296  13.135
47127W        W13558  31.460   0.981   3.118
47128W        W13559  40.181   8.714  11.559
47129W        W13560   8.684  31.227   1.182
47130W        W13561  22.103  13.287  13.479
47131W        W13562  29.784  35.711  10.351
47132W        W13563  37.627  15.111   0.361
47133W        W13564  25.334  13.890   4.774
47134W        W13565   7.848  30.171   0.783
47135W        W13566  21.030  13.628  13.968
47136W        W13567   2.879  13.562  11.218
47137W        W13568   8.418  42.371  13.315
47138W        W13569  40.702  24.651   2.688
47139W        W13570  41.953  12.366  12.377
47140W        W13571  11.634  38.678   3.772
47141W        W13572  43.381   1.676   4.222
47142W        W13573   8.801  32.953   2.592
47143W        W13574  44.873   8.854  14.815
47144W        W13575   2.655  29.802   3.669
47145W        W13576  38.922  38.062   3.552
47146W        W13577  37.007  23.638  12.012
47147W        W13578  11.573  23.319  14.911
47148W        W13579  32.572  42.560  10.696
47149W        W13580  36.969   7.630   1.001
47150W        W13581  44.290  18.874  12.918
47151W        W13582  29.536   4.119  14.916
47152W        W13583  14.074  37.718  13.996
47153W        W13584   8.823  24.544   2.533
47154W        W13585   4.438  33.574   1.272
47155W        W13586  41.082   5.196  12.994
47156W        W13587   1.001  31.965  12.095
47157W        W13588  31.647   7.260  13.497
47158W        W13589  39.130   9.817   2.815
47159W        W13590  40.756  38.202  12.570
47160W        W13591   8.314  23.441   0.091
47161W        W13592  33.302   1.367  10.669
47162W        W13593  21.498  20.994  10.670
47163W        W13594   6.855  13.793   1.416
47164W        W13595   3.689  11.243  11.133
47165W        W13596  34.092  31.882   1.699
47166W        W13597  36.286  10.712   4.421
47167W        W13598  19.343  42.845   0.461
47168W        W13599  16.786  15.182  12.900
47169W        W13600   3.745  21.406  10.412
47170W        W13601  37.175  40.997  14.405
47171W        W13602  37.935  30.567  12.962
47172W        W13603  35.829  38.462   2.596
47173W        W13604  26.988  33.047  14.883
47174W        W13605  28.464  34.849   4.679
47175W        W13606  39.032  29.461   3.326
47176W        W13607  37.926   8.306  11.012
47177W        W13608   9.370  35.263   3.317
47178W        W13609  27.590  25.586   3.893
47179W        W13610  36.269  23.221  11.678
47180W        W13611  23.444  41.793  13.529
47181W        W13612  19.590   8.790   2.077
47182W        W13613   4.573  35.582   3.548
47183W        W13614  40.803  18.843  14.497
47184W        W13615  43.786  35.415   4.693
47185W        W13616  21.464  23.224   2.770
47186W        W13617  41.329  40.533   3.155
47187W        W13618   8.651   4.423   2.854
47188W        W13619  38.244   9.227   1.874
47189W        W13620   6.404  14.580  14.697
47190W        W13621   8.612  23.145   0.399
47191W        W13622  15.243  41.250   1.816
47192W        W13623  13.383  24.500   0.843
47193W        W13624  35.580  39.410  14.763
47194W        W13625  36.953  17.717  11.187
47195W        W13626  11.788  19.247   4.394
47196W        W13627  18.033   3.406   3.609
47197W        W13628  23.230  34.549  11.133
47198W        W13629  32.083  44.741   3.356
47199W        W13630  22.476   5.445  14.992
47200W        W13631  39.458  12.594  13.845
47201W        W13632  28.585  11.298   4.097
47202W        W13633  39.846  22.393  14.867
47203W        W13634  25.895  37.077  14.977
47204W        W13635   3.571  32.051  14.735
47205W        W13636  36.525  13.306   0.927
47206W        W13637  44.709  33.499  11.465
47207W        W13638   9.271  41.223   0.332
47208W        W13639  27.698  19.826  12.502
47209W        W13640  18.727   6.393  14.920
47210W        W13641   5.740  43.266   1.649
47211W        W13642  28.337  42.368   0.332
47212W        W13643  26.747   3.735  12.056
47213W        W13644  22.067  37.678   1.841
47214W        W13645  24.931  13.578  14.833
47215W        W13646  30.122  13.351  11.181
47216W        W13647  26.753  15.176   2.285
47217W        W13648   6.284  38.041  13.854
47218W        W13649  18.255  15.876   3.902
47219W        W13650   4.234   8.672   1.212
47220W        W13651   0.796  33.218  11.559
47221W        W13652  19.255  17.481  10.670
47222W        W13653  24.506  22.759  10.504
47223W        W13654  34.018  27.257   4.673
47224W        W13655  20.556  26.742   4.189
47225W        W13656  43.973  35.925   4.775
47226W        W13657  30.042  11.713   4.534
47227W        W13658  40.832   7.333  11.224
47228W        W13659  40.274  28.610   4.048
47229W        W13660  15.293  30.671  12.055
47230W        W13661  41.892  11.192   0.811
47231W        W13662  44.135  29.036  10.748
47232W        W13663   8.458   3.824   2.301
47233W        W13664  24.542  42.447  12.149
47234W        W13665  37.033  43.321  12.021
47235W        W13666  32.132  16.280   0.518
47236W        W13667   2.127   5.622  14.743
47237W        W13668  10.304  34.814  11.088
47238W        W13669  20.722  43.080   3.352
47239W        W13670  42.950  33.449  11.471
47240W        W13671  19.416  19.451  14.887
47241W        W13672  29.463   5.340   2.767
47242W        W13673   4.273   7.270   4.708
47243W        W13674  35.982  38.068   2.902
47244W        W13675  41.864  24.716  11.294
47245W        W13676  43.966  21.382   2.243
47246W        W13677   6.690  38.354  13.116
47247W        W13678  19.737  19.857  14.184
47248W        W13679  19.583   1.438  13.372
47249W        W13680  28.167   3.454  10.273
47250W        W13681   7.240  20.715   1.459
47251W        W13682   4.945   9.133  13.603
47252W        W13683  38.705  36.124   1.642
47253W        W13684  21.014  15.901   0.339
47254W        W13685   6.911   5.904  10.586
47255W        W13686  28.431   4.842  14.035
47256W        W13687  14.563  37.876  13.917
47257W        W13688  39.814  21.704   4.474
47258W        W13689  16.318   6.242  10.357
47259W        W13690  35.864  20.951   1.595
47260W        W13691  12.576  23.991   4.058
47261W        W13692   7.413  29.138  12.226
47262W        W13693   0.828  12.314   1.177
47263W        W13694  37.872  14.659   2.811
47264W        W13695  13.644   2.159  13.309
47265W        W13696  24.248   0.258   2.168
47266W        W13697   9.618  29.097   4.366
47267W        W13698  35.142  38.351  10.753
47268W        W13699  35.403   8.362   1.860
47269W        W13700  15.793  18.038  12.491
47270W        W13701  31.092  39.452   3.837
47271W        W13702  26.235  29.685   2.609
47272W        W13703   7.340  33.759  12.052
47273W        W13704  28.997   9.503  13.059
47274W        W13705  27.123  31.194   0.870
47275W        W13706  41.573  22.032  11.663
47276W        W13707  20.072  42.928   5.099
47277W        W13708  25.730   5.269  14.427
47278W        W13709  34.798  11.791  12.003
47279W        W13710   3.366  40.523  10.695
47280W        W13711  30.644  34.914  14.342
47281W        W13712  27.557  29.551   3.299
47282W        W13713   5.286  27.603  11.661
47283W        W13714  10.685  27.946   4.294
47284W        W13715  30.598  11.091   4.188
47285W        W13716  32.879  44.661   4.609
47286W        W13717   9.611  29.472   0.578
47287W        W13718  32.075  27.722   0.261
47288W        W13719  26.996  27.063  13.706
47289W        W13720  12.635  41.820  13.502
47290W        W13721  14.823  37.736  13.469
47291W        W13722  21.038  33.143   1.330
47292W        W13723   0.313  40.298   2.707
47293W        W13724  21.869  22.230   4.389
47294W        W13725  43.966  22.371   4.163
47295W        W13726  14.210  32.412  12.527
47296W        W13727   0.402   8.960   4.043
47297W        W13728   6.844  22.480  10.633
47298W        W13729  44.517   2.343  14.585
47299W        W13730  12.089  40.962  12.133
47300W        W13731  21.140  21.923   1.924
47301W        W13732  23.204   3.722  12.938
47302W        W13733  12.154  12.557  11.695
47303W        W13734  43.807   7.871  14.919
47304W        W13735  22.751   0.188   1.417
47305W        W13736  28.424  29.539   2.286
47306W        W13737  18.959  28.430  11.282
47307W        W13738   2.466  14.824   1.375
47308W        W13739  29.053  41.423   0.365
47309W        W13740  14.421  41.448   2.297
47310W        W13741  25.233  36.768   2.228
47311W        W13742  37.977  10.317   3.469
47312W        W13743  29.737  13.030  13.076
47313W        W13744   4.390   9.464   0.488
47314W        W13745   2.239  28.489   4.609
47315W        W13746  18.726  35.929  13.739
47316W        W13747  32.523  23.640  14.493
47317W        W13748  12.404  33.989  11.407
47318W        W13749  41.266  13.580  11.072
47319W        W13750   4.565   6.349   1.105
47320W        W13751  21.590   5.823  10.851
47321W        W13752  18.674   7.223   3.807
47322W        W13753   5.408  18.435  14.160
47323W        W13754  31.639  20.987   3.503
47324W        W13755  27.671  43.270   0.665
47325W        W13756  18.655   7.345  14.807
47326W        W13757  22.632   8.496  11.981
47327W        W13758  34.876  10.394  13.108
47328W        W13759  30.142  40.232  13.114
47329W        W13760  26.645  33.877   0.779
47330W        W13761   8.121  21.836  13.011
47331W        W13762  31.657  42.920  10.436
47332W        W13763   9.239  40.815   1.135
47333W        W13764   9.302  24.680  11.614
47334W        W13765  17.590  42.518  12.905
47335W        W13766  36.255  31.501   2.839
47336W        W13767  20.703  40.402  14.339
47337W        W13768   5.251  15.762  14.851
47338W        W13769  31.784  29.069  12.362
47339W        W13770  15.124   8.817   4.400
47340W        W13771  37.646  39.125   4.486
47341W        W13772  31.223  12.960  12.564
47342W        W13773  31.762  18.663  11.893
47343W        W13774  34.987  33.537   0.518
47344W        W13775  15.026   0.640  14.426
47345W        W13776  37.982  44.485  11.755
47346W        W13777  21.839  27.824   5.031
47347W        W13778  24.248   5.744   0.855
47348W        W13779  44.193  15.049   4.139
47349W        W13780  18.673  30.172   2.390
47350W        W13781  43.910  35.615   0.980
47351W        W13782  10.386   7.248   2.751
47352W        W13783  10.322  43.175  14.314
47353W        W13784   8.268  40.406   4.133
47354W        W13785  20.024  20.209   4.113
47355W        W13786  22.200   6.348   4.644
47356W        W13787  27.656  14.862   1.694
47357W        W13788  35.560  41.464  14.045
47358W        W13789  32.907  22.387  12.996
47359W        W13790  37.421  43.310   2.186
47360W        W13791  17.310  12.739   0.804
47361W        W13792  14.689  23.129   5.442
47362W        W13793  10.153  33.030  14.004
47363W        W13794  43.804   5.453  11.165
47364W        W13795  44.822   9.883  12.719
47365W        W13796  24.646  18.508  11.965
47366W        W13797  14.084  39.907  14.947
47367W        W13798  43.961   7.465  11.095
47368W        W13799  38.368  41.324  13.548
47369W        W13800  18.644  43.007  12.451
47370W        W13801  37.022  32.312   3.715
47371W        W13802  35.021  15.666  11.603
47372W        W13803  29.455   1.025  11.721
47373W        W13804  27.874   7.175   3.116
47374W        W13805   1.192   5.180  13.876
47375W        W13806  21.483   7.797   1.934
47376W        W13807  30.126  24.680  10.992
47377W        W13808  44.283  24.729   1.422
47378W        W13809   7.300  32.173  13.808
47379W        W13810   1.582  32.340   2.242
47380W        W13811  43.347  35.385  13.760
47381W        W13812   5.462  44.493   2.208
47382W        W13813  11.811  14.074   2.193
47383W        W13814  18.727  27.160   3.628
47384W        W13815  12.139   7.935  14.420
47385W        W13816  17.977   9.862  12.638
47386W        W13817   7.408   2.883   4.876
47387W        W13818   5.990  12.148   1.231
47388W        W13819  24.259  14.591   4.213
47389W        W13820  41.413  17.760   3.780
47390W        W13821  24.709  29.211  14.976
47391W        W13822  12.412   4.269   4.269
47392W        W13823  32.932   3.228  12.771
47393W        W13824  43.264  17.689   0.431
47394W        W13825   8.189   1.475  11.112
47395W        W13826  25.649  24.403   3.702
47396W        W13827  25.944  27.467   1.874
47397W        W13828   1.601  18.274  11.116
47398W        W13829  21.187  14.273   1.316
47399W        W13830   5.295  28.040   0.872
47400W        W13831  16.176  14.124   2.976
47401W        W13832  29.077  12.438  12.119
47402W        W13833  39.020   4.977   2.700
47403W        W13834  41.600  32.675   1.909
47404W        W13835  17.340  18.586   2.787
47405W        W13836   0.833   9.709   0.033
47406W        W13837  13.107  26.761   2.268
47407W        W13838  34.587  42.570   0.693
47408W        W13839  18.517  22.991   4.130
47409W        W13840  36.880  21.461  11.348
47410W        W13841  30.212   1.479  11.451
47411W        W13842  22.298  17.187   4.841
47412W        W13843  20.242   3.926  12.897
47413W        W13844  17.747  15.039  11.620
47414W        W13845  13.726  21.322  13.187
47415W        W13846   7.811  16.044   1.771
47416W        W13847  38.897  10.044   3.244
47417W        W13848  28.051   7.751   0.052
47418W        W13849   2.232   5.142  13.148
47419W        W13850  29.783  27.011   4.123
47420W        W13851  32.047  23.781  14.222
47421W        W13852   0.166  16.556   3.613
47422W        W13853  42.346   2.061   1.838
47423W        W13854  16.272  30.889   1.284
47424W        W13855  30.487   1.677  12.990
47425W        W13856  41.879  39.403  12.834
47426W        W13857   0.233  39.281   2.410
47427W        W13858   4.838  38.338   3.676
47428W        W13859  17.769  24.108  11.601
47429W        W13860   7.894  38.337   0.810
47430W        W13861  31.987   2.069   4.032
47431W        W13862  29.910  22.144   4.493
47432W        W13863  12.853   5.849  11.210
47433W        W13864  43.373   6.218  11.202
47434W        W13865  41.840  13.697  11.765
47435W        W13866   9.298   8.639   2.392
47436W        W13867  29.022   7.845   1.427
47437W        W13868  30.746  33.568  12.483
47438W        W13869   7.533   6.867   0.578
47439W        W13870  10.190   0.864  14.252
47440W        W13871  40.439   1.517   5.031
47441W        W13872   4.373  16.547  12.871
47442W        W13873  24.201  40.625  11.668
47443W        W13874  18.854   8.165  14.296
47444W        W13875  31.699   4.306   4.984
47445W        W13876  30.068  33.521  14.722
47446W        W13877  39.359  35.764  12.481
47447W        W13878  41.573  29.984   4.537
47448W        W13879  28.502  12.354   2.228
47449W        W13880  11.197  21.119   3.729
47450W        W13881  33.985  36.011   3.472
47451W        W13882  30.445  31.313  12.058
47452W        W13883   6.912  30.927   2.665
47453W        W13884  34.387  41.437   4.360
47454W        W13885  10.866  33.941   3.727
47455W        W13886  25.991   0.732   2.472
47456W        W13887  24.573  30.565   3.125
47457W        W13888   7.913  27.100  10.639
47458W        W13889  20.564   3.814   3.800
47459W        W13890  34.304  13.287  14.486
47460W        W13891  15.677  43.516  14.716
47461W        W13892   3.765  24.767  14.858
47462W        W13893  38.460  19.366  11.593
47463W        W13894   9.935  12.263  13.015
47464W        W13895  22.708  26.251   4.073
47465W        W13896   2.891  18.361   0.925
47466W        W13897   0.058  29.975   3.698
47467W        W13898   1.810  28.920   4.473
47468W        W13899   0.518  35.058  11.999
47469W        W13900  11.660   9.062  14.021
47470W        W13901   0.288  24.317  11.504
47471W        W13902  11.709  44.640   0.245
47472W        W13903  26.459  12.696   2.418
47473W        W13904  32.905  29.489  10.960
47474W        W13905   1.368  23.212  13.869
47475W        W13906   1.458  33.415  11.217
47476W        W13907  14.292  17.491   2.331
47477W        W13908  24.738  37.454   1.647
47478W        W13909  27.732  24.420  12.166
47479W        W13910  16.692  40.665  12.890
47480W        W13911  11.263  23.460   9.748
47481W        W13912  39.796  25.058   0.671
47482W        W13913  38.347  30.862   1.081
47483W        W13914  18.025  23.646   0.798
47484W        W13915  42.324  43.417   1.924
47485W        W13916  37.534  20.999  14.827
47486W        W13917  37.861  25.160  10.724
47487W        W13918  33.443   7.242   0.369
47488W        W13919  21.977   5.670   0.787
47489W        W13920  31.560  18.263  12.635
47490W        W13921  14.468   2.179   5.418
47491W        W13922  21.055  20.021   2.968
47492W        W13923  19.637   0.125  12.645
47493W        W13924  16.661  28.923  12.114
47494W        W13925  17.920  42.020  12.043
47495W        W13926   8.053  33.523   3.538
47496W        W13927   5.714  22.214   2.878
47497W        W13928  22.474  18.736  13.626
47498W        W13929  36.214  34.128   0.070
47499W        W13930  27.122   6.869   3.524
47500W        W13931  42.912  32.685  14.737
47501W        W13932  35.469  28.363  12.037
47502W        W13933  21.237  17.307  10.598
47503W        W13934   8.950  25.095  13.657
47504W        W13935   0.780  29.899   4.734
47505W        W13936  26.181   0.207   3.784
47506W        W13937  22.405  24.672  11.970
47507W        W13938  22.547  44.043  13.337
47508W        W13939  36.728  11.184   0.339
47509W        W13940   4.722  11.867  12.917
47510W        W13941  23.322  25.205   3.141
47511W        W13942  26.087  28.011  13.877
47512W        W13943  17.617  21.055   0.581
47513W        W13944  17.689  39.293   2.749
47514W        W13945  10.265  37.763  12.259
47515W        W13946   5.438  21.665   2.077
47516W        W13947  30.353  30.754  11.165
47517W        W13948  21.620  31.470   3.139
47518W        W13949  27.122  19.809  12.958
47519W        W13950  30.493  25.978  13.821
47520W        W13951  27.074  30.473  11.908
47521W        W13952  40.495   0.751  14.041
47522W        W13953  30.164   7.894  14.529
47523W        W13954  39.264   5.825   0.230
47524W        W13955   2.438   1.856   0.209
47525W        W13956  34.141  27.652  14.505
47526W        W13957  17.050  26.107   3.701
47527W        W13958   6.710  31.059   2.192
47528W        W13959  26.773  39.448   1.830
47529W        W13960  21.737  38.736   5.043
47530W        W13961   2.664  17.526   2.194
47531W        W13962  37.298  37.694   9.781
47532W        W13963   9.133  40.306   0.409
47533W        W13964   6.509  35.897  13.791
47534W        W13965  25.560   0.468  12.520
47535W        W13966  43.455   4.122   0.676
47536W        W13967   0.056  16.906  14.964
47537W        W13968  30.324  33.317  11.605
47538W        W13969   4.436  23.293  12.461
47539W        W13970   4.999  13.474  14.468
47540W        W13971  40.713  30.525  11.567
47541W        W13972  23.998  26.517   4.764
47542W        W13973  43.204  24.975   2.016
47543W        W13974   8.962  31.010  14.364
47544W        W13975   7.474  37.753  14.357
47545W        W13976  19.260  23.563  13.385
47546W        W13977  40.483  26.832   0.685
47547W        W13978  42.001  40.952  10.679
47548W        W13979  29.865  23.761  12.023
47549W        W13980   3.837  26.226  11.190
47550W        W13981  43.971  25.938   3.208
47551W        W13982  42.084  28.192  13.094
47552W        W13983  25.635   9.696   0.369
47553W        W13984  25.184  21.709  13.523
47554W        W13985  18.089  22.900   0.370
47555W        W13986  10.691  31.313   1.352
47556W        W13987  10.597  43.850  13.930
47557W        W13988  28.652  38.445   2.385
47558W        W13989  12.064  38.961   1.509
47559W        W13990  43.405  30.322   2.664
47560W        W13991  12.878  29.098   3.903
47561W        W13992  23.951   4.208  11.665
47562W        W13993  22.043  14.592  10.973
47563W        W13994  15.641  23.145  14.156
47564W        W13995  25.544   9.805  10.756
47565W        W13996  25.538  11.741  10.966
47566W        W13997   5.095  20.841  14.205
47567W        W13998  27.682  31.562   4.417
47568W        W13999  38.732  43.116  12.311
47569W        W14000   8.996  16.454   3.034
47570W        W14001  44.390  31.652  11.609
47571W        W14002  18.870  19.120  10.566
47572W        W14003  24.337   9.111   5.016
47573W        W14004  24.642  13.340   4.741
47574W        W14005  44.932  42.072  11.583
47575W        W14006  18.417  11.770   1.722
47576W        W14007  35.782  10.657   2.618
47577W        W14008  41.874  16.923  13.803
47578W        W14009  31.026  36.011  10.795
47579W        W14010  25.990  14.869   2.301
47580W        W14011  14.666  17.268   3.249
47581W        W14012  15.308  21.992  14.331
47582W        W14013  36.069  37.734   1.371
47583W        W14014  21.472  11.690  13.517
47584W        W14015  27.089  28.300  12.522
47585W        W14016   5.745  41.443  12.877
47586W        W14017  18.277  16.668  10.107
47587W        W14018  12.169  17.893  13.157
47588W        W14019   9.798  24.384  13.933
47589W        W14020  28.396  40.842  11.294
47590W        W14021  32.178  16.617   4.543
47591W        W14022  11.066  20.613  14.388
47592W        W14023   6.691  11.920  12.820
47593W        W14024  28.474  20.508  13.920
47594W        W14025  27.445  11.168  10.491
47595W        W14026  44.262  20.159  11.013
47596W        W14027  35.026  41.936   4.863
47597W        W14028  19.541  34.109   2.566
47598W        W14029  12.302  32.873   4.444
47599W        W14030  12.268  16.865   4.824
47600W        W14031  17.973  39.645   1.123
47601W        W14032  42.974  32.429  11.541
47602W        W14033   0.957  42.404   4.364
47603W        W14034   6.748   0.187  13.161
47604W        W14035  31.841  23.554  11.373
47605W        W14036  10.403  42.940   0.856
47606W        W14037  21.650  42.856   3.717
47607W        W14038  29.553  34.336   1.773
47608W        W14039  16.840  10.334  11.909
47609W        W14040  28.979  21.737   0.040
47610W        W14041   5.207  20.622   2.157
47611W        W14042   0.015  20.434   4.081
47612W        W14043  31.520  40.113  11.188
47613W        W14044  19.723  16.700  12.565
47614W        W14045  34.021   6.513  12.182
47615W        W14046  33.530  28.762   3.331
47616W        W14047  36.869  33.550   2.942
47617W        W14048  29.111   5.681  14.394
47618W        W14049  18.523  35.697  13.305
47619W        W14050   6.056  22.041   2.096
47620W        W14051  42.071  42.269  10.750
47621W        W14052  22.280  21.241   3.277
47622W        W14053   8.751  25.685   2.805
47623W        W14054  11.145  42.459   0.853
47624W        W14055   8.607  36.138   2.300
47625W        W14056   3.402   8.727   2.727
47626W        W14057  36.122  28.444   3.737
47627W        W14058  35.882   8.895  11.202
47628W        W14059  17.740  41.453   1.185
47629W        W14060  26.435  30.582  14.330
47630W        W14061  36.367  11.617  11.420
47631W        W14062   8.412   9.807   0.902
47632W        W14063  18.090  27.021  10.449
47633W        W14064  33.096  21.624  10.725
47634W        W14065  13.608  38.183  11.162
47635W        W14066  25.582  19.687   3.262
47636W        W14067  21.748  17.282   3.172
47637W        W14068  34.354  28.591  11.976
47638W        W14069  42.395  26.195  13.804
47639W        W14070  17.566  35.434   2.874
47640W        W14071   0.385  24.265   2.230
47641W        W14072  29.187  29.189  12.955
47642W        W14073  21.725   2.245   4.974
47643W        W14074  18.410  11.031  11.386
47644W        W14075  14.757   0.951   4.838
47645W        W14076  15.506   9.590  13.900
47646W        W14077  19.705  15.362  12.500
47647W        W14078   2.689  14.784   0.918
47648W        W14079  33.050  18.711  13.067
47649W        W14080  35.371   7.749  12.456
47650W        W14081  36.630  10.832  13.048
47651W        W14082   9.081   9.388  10.684
47652W        W14083  28.701  30.096   2.178
47653W        W14084  14.625  10.930  14.723
47654W        W14085  33.683   2.383  14.744
47655W        W14086  20.939  14.715  14.727
47656W        W14087  42.507  39.076  14.984
47657W        W14088  40.817  31.041  12.533
47658W        W14089  40.715   3.698  11.986
47659W        W14090   0.493   8.777  13.970
47660W        W14091  34.917  34.117  12.943
47661W        W14092  41.515  35.312  12.006
47662W        W14093  44.785  30.063   3.246
47663W        W14094  26.476   8.224  10.263
47664W        W14095   5.958  42.425  10.845
47665W        W14096  21.322  13.324   1.276
47666W        W14097  23.620  35.442  10.947
47667W        W14098  14.079  13.882  14.231
47668W        W14099  37.552  10.707  13.841
47669W        W14100   0.165  19.253   2.429
47670W        W14101  25.838   0.764   1.421
47671W        W14102   3.350  26.086  11.021
47672W        W14103   3.895  29.989   3.094
47673W        W14104  22.107  16.047  11.890
47674W        W14105  16.882  16.745   4.483
47675W        W14106  32.922  36.971   1.083
47676W        W14107  20.655  17.840   4.550
47677W        W14108   4.815  44.346   3.117
47678W        W14109   3.745   3.998   0.408
47679W        W14110  37.115  41.572   1.739
47680W        W14111  15.890  33.779  13.818
47681W        W14112  41.432  16.029   1.419
47682W        W14113  41.226  14.223   0.910
47683W        W14114   5.146  34.580   0.352
47684W        W14115  25.706   7.183  14.916
47685W        W14116  12.194  31.027  13.309
47686W        W14117  19.714   1.278  14.808
47687W        W14118   7.827  32.322   2.928
47688W        W14119  17.083  41.531   1.967
47689W        W14120  22.724  37.390  14.772
47690W        W14121  37.323   9.680  12.829
47691W        W14122  18.694  32.488   1.036
47692W        W14123   2.676  42.317   2.589
47693W        W14124  35.785   1.462  14.390
47694W        W14125  17.567  24.996  12.018
47695W        W14126   5.736  34.398   1.849
47696W        W14127  34.373  23.323  11.046
47697W        W14128  31.830  23.547   1.943
47698W        W14129   3.267  28.245   1.887
47699W        W14130  15.530   8.950   2.568
47700W        W14131  18.673  27.668   4.531
47701W        W14132  31.931   4.836   4.495
47702W        W14133  10.322   4.448   1.332
47703W        W14134  17.387  40.569   0.047
47704W        W14135  36.789   2.764  13.921
47705W        W14136  10.016  26.921  12.021
47706W        W14137  36.194  34.570  12.084
47707W        W14138  12.841  26.928   2.701
47708W        W14139  12.074  23.388   2.829
47709W        W14140  25.114  13.776   2.734
47710W        W14141   2.368  31.953   4.798
47711W        W14142  30.238  19.473  13.500
47712W        W14143   3.921  20.637  14.051
47713W        W14144  25.887  22.890  13.866
47714W        W14145   3.395   7.295   4.675
47715W        W14146   6.386  41.327   3.942
47716W        W14147  19.043  17.383  13.431
47717W        W14148  26.530  40.327   4.531
47718W        W14149  44.279   9.826  14.844
47719W        W14150  12.419  44.219   3.719
47720W        W14151  36.659   3.858  14.116
47721W        W14152  28.576  27.401  12.957
47722W        W14153  42.526  42.684   4.573
47723W        W14154  33.633   8.500  11.399
47724W        W14155   9.490   8.327  13.537
47725W        W14156  16.595  14.556  13.426
47726W        W14157  24.238  33.759  12.356
47727W        W14158   6.323  41.957  14.319
47728W        W14159   4.212  30.621   0.459
47729W        W14160  11.838  37.113  14.813
47730W        W14161   5.225   5.140   2.868
47731W        W14162  34.037  22.704   3.352
47732W        W14163  15.627  21.444   4.177
47733W        W14164  14.076   3.863   1.304
47734W        W14165   5.513   3.183  11.481
47735W        W14166  22.756   4.899   3.263
47736W        W14167  36.565   9.828   4.377
47737W        W14168  26.164  21.640  13.475
47738W        W14169  16.016  30.543   3.685
47739W        W14170  37.533  34.295   0.561
47740W        W14171  21.051  21.184  13.892
47741W        W14172  37.960  42.328   3.812
47742W        W14173  23.523  31.531   4.165
47743W        W14174  28.660  18.442  14.965
47744W        W14175  29.200   9.446  14.326
47745W        W14176  19.171  29.277   3.405
47746W        W14177  41.813  34.749   2.795
47747W        W14178  25.500  13.563  10.768
47748W        W14179  31.122  44.865   1.046
47749W        W14180  12.699  43.568  12.109
47750W        W14181  15.162  12.529  11.355
47751W        W14182   2.029  18.174   2.383
47752W        W14183  40.496  18.052   0.324
47753W        W14184  22.909  32.029  11.619
47754W        W14185  25.220  10.413   3.181
47755W        W14186  26.379  40.491  12.302
47756W        W14187  16.584  36.631   3.743
47757W        W14188   0.671   9.215   3.653
47758W        W14189  14.701  32.454   3.666
47759W        W14190  38.750  36.572   0.829
47760W        W14191   8.177   9.120  13.828
47761W        W14192  35.984  28.734  10.691
47762W        W14193   8.643  37.510   5.063
47763W        W14194  17.531  22.978   2.123
47764W        W14195  44.759  20.783  14.246
47765W        W14196  36.746  24.631   4.632
47766W        W14197  44.378  23.546   0.256
47767W        W14198  27.274  35.054  11.376
47768W        W14199  44.397  23.069  12.054
47769W        W14200   2.374   4.369   4.291
47770W        W14201  37.716  33.422   3.661
47771W        W14202  23.239  22.652  10.913
47772W        W14203  30.050   8.330  13.424
47773W        W14204  29.125   4.429  12.144
47774W        W14205   0.198  31.880  12.475
47775W        W14206   8.174  28.104   4.615
47776W        W14207  20.315  26.055  10.466
47777W        W14208  41.680   8.648  11.610
47778W        W14209  33.564  18.643   3.655
47779W        W14210  32.166  24.305  12.442
47780W        W14211  25.524  38.289  12.322
47781W        W14212  23.089  12.725   3.605
47782W        W14213  41.737  30.637  12.557
47783W        W14214  15.397  18.622  13.811
47784W        W14215  16.260  35.126   2.382
47785W        W14216  14.088  23.500   2.779
47786W        W14217  26.665   0.668  10.393
47787W        W14218  16.434  10.378   2.238
47788W        W14219   4.213  24.229  13.632
47789W        W14220   0.440  24.226  13.463
47790W        W14221   9.402  43.677   2.307
47791W        W14222  25.502   9.542  12.165
47792W        W14223  29.606  10.270  10.073
47793W        W14224  25.138  27.417  13.637
47794W        W14225   0.792  18.334   0.276
47795W        W14226   2.859  14.081  11.096
47796W        W14227  24.083   5.451  12.164
47797W        W14228   6.562  13.642  12.004
47798W        W14229   1.790  14.596   2.714
47799W        W14230  22.596   1.429  12.900
47800W        W14231  23.262  42.941   0.891
47801W        W14232  34.199   8.095  11.012
47802W        W14233  18.030   3.702  12.386
47803W        W14234  29.822  33.866   3.670
47804W        W14235   2.229  22.432  14.009
47805W        W14236   7.839  43.409  11.181
47806W        W14237  27.991   7.349  13.688
47807W        W14238  15.679  29.173  10.663
47808W        W14239   7.755  39.091   4.343
47809W        W14240  11.548  25.156  12.490
47810W        W14241  20.119   9.713  11.771
47811W        W14242  41.325  44.670   3.644
47812W        W14243  38.366  35.429   0.958
47813W        W14244  41.967  22.235  10.505
47814W        W14245  10.610  15.037   3.803
47815W        W14246  19.692  35.443   4.883
47816W        W14247  19.181  33.376  11.561
47817W        W14248   3.882  21.782   1.415
47818W        W14249  41.501   4.656   0.912
47819W        W14250  31.197   0.380  14.743
47820W        W14251  22.376  11.182  11.265
47821W        W14252  16.191  38.501  14.425
47822W        W14253   7.860  14.316  12.966
47823W        W14254  36.093  42.790   3.098
47824W        W14255  19.180  18.311   1.626
47825W        W14256  13.972  38.085   1.563
47826W        W14257   8.194  41.004  13.983
47827W        W14258  14.191  36.500   0.964
47828W        W14259   8.858  20.703   1.419
47829W        W14260  37.095  34.449  12.958
47830W        W14261  23.596  37.520   4.036
47831W        W14262  25.364  42.135  14.920
47832W        W14263  22.505  16.193   0.278
47833W        W14264   7.737  13.139   3.255
47834W        W14265  16.534  42.469  14.384
47835W        W14266  11.585  14.430   1.918
47836W        W14267  11.030  32.059   3.454
47837W        W14268  22.303   5.473  14.014
47838W        W14269  39.390   4.768   1.219
47839W        W14270  41.332  26.083   2.359
47840W        W14271  27.150  27.680  10.439
47841W        W14272  44.016  22.394   2.316
47842W        W14273   9.881  25.450  11.684
47843W        W14274  23.193   6.912  12.441
47844W        W14275  35.926  28.938  14.338
47845W        W14276  37.043  34.401  12.353
47846W        W14277  24.153  18.313  11.926
47847W        W14278  38.450  35.830   2.360
47848W        W14279  39.790  29.110   3.637
47849W        W14280   8.353  31.797  11.139
47850W        W14281  12.115  12.985  13.889
47851W        W14282  41.814  31.179  11.180
47852W        W14283  39.558  14.120  12.456
47853W        W14284   1.728  42.361   1.247
47854W        W14285  21.827  21.755   4.002
47855W        W14286  44.280  44.865  10.725
47856W        W14287   4.976  41.401  12.134
47857W        W14288  14.562  28.007   1.150
47858W        W14289  28.585  34.445  12.903
47859W        W14290  31.222  25.210   4.968
47860W        W14291  37.449  27.331   0.381
47861W        W14292  13.715   8.712  13.859
47862W        W14293  39.066  42.814  13.572
47863W        W14294  15.808  28.598  11.553
47864W        W14295  25.373   5.317   0.977
47865W        W14296   1.843  20.189   4.707
47866W        W14297  30.963  36.878   0.752
47867W        W14298  44.411  41.270   4.103
47868W        W14299  19.013  17.639   2.335
47869W        W14300  13.940  26.952   2.380
47870W        W14301  17.149  17.763  13.300
47871W        W14302  34.457   5.131  12.074
47872W        W14303  11.260  26.145   4.639
47873W        W14304  22.790  32.513  11.511
47874W        W14305  44.132   3.307  10.790
47875W        W14306  23.601  27.396   2.243
47876W        W14307  12.887   6.316  13.867
47877W        W14308  28.123  19.286   0.907
47878W        W14309  27.298  18.517  11.475
47879W        W14310   0.995  17.834   9.746
47880W        W14311  41.946  20.565   1.745
47881W        W14312  42.310  30.932  11.059
47882W        W14313  26.861  23.720  11.219
47883W        W14314  27.865   2.192   1.370
47884W        W14315  41.858   3.153  12.685
47885W        W14316  21.083   9.129   2.679
47886W        W14317  31.074  36.941   3.669
47887W        W14318  12.852  35.207   2.866
47888W        W14319  43.171  10.667   3.607
47889W        W14320  10.776  24.481  11.544
47890W        W14321  34.299  19.655   4.342
47891W        W14322   6.217  43.352   0.483
47892W        W14323   3.986  17.610   0.354
47893W        W14324   0.024  35.141  10.832
47894W        W14325  36.350   6.211   2.174
47895W        W14326  19.190  13.082   1.946
47896W        W14327  30.778  40.975   3.483
47897W        W14328  40.241  11.644   1.900
47898W        W14329  34.849  25.179  10.721
47899W        W14330  18.043   1.761   4.304
47900W        W14331  28.588  10.680   0.270
47901W        W14332  41.289  41.046   3.232
47902W        W14333  13.665  33.892  12.920
47903W        W14334  36.802  39.065  14.566
47904W        W14335  11.231  40.012  10.652
47905W        W14336  21.357  33.924  11.943
47906W        W14337  38.483  44.449   4.262
47907W        W14338  14.821   5.148  14.921
47908W        W14339  10.519   7.272  12.992
47909W        W14340  19.276  20.819  13.344
47910W        W14341  34.098   1.447   4.656
47911W        W14342  17.732  25.960   2.432
47912W        W14343   3.388   1.342  12.443
47913W        W14344   6.233  28.486   1.734
47914W        W14345   1.830   9.690  14.003
47915W        W14346  42.095  15.706  12.418
47916W        W14347  19.176  31.851  12.955
47917W        W14348  10.781  20.609  12.654
47918W        W14349   9.638  36.091  11.489
47919W        W14350  16.232   8.281   1.852
47920W        W14351  42.737  29.371   1.330
47921W        W14352   2.042  22.444  10.600
47922W        W14353  32.145  18.780  10.642
47923W        W14354  22.617  40.540   0.739
47924W        W14355   5.894  13.585   1.306
47925W        W14356  16.432  11.290  10.341
47926W        W14357  20.714  33.889  12.419
47927W        W14358  17.091  38.665  14.962
47928W        W14359  25.708  27.477  11.580
47929W        W14360  15.567  29.775   0.041
47930W        W14361   3.611   1.291  14.509
47931W        W14362  34.385   1.315  13.315
47932W        W14363  27.900  44.757  10.295
47933W        W14364  24.474  23.697   3.146
47934W        W14365  18.133  43.501   0.443
47935W        W14366   1.958   9.390  14.455
47936W        W14367  20.735  15.103  13.333
47937W        W14368  24.178  25.061   2.916
47938W        W14369  32.608   9.374   0.231
47939W        W14370   0.648  17.988   0.637
47940W        W14371  44.891   4.879  13.883
47941W        W14372  27.495  44.397  13.818
47942W        W14373  31.520   4.868  13.575
47943W        W14374  34.755  17.687   3.544
47944W        W14375   4.521  32.138  13.891
47945W        W14376  39.044  17.022  11.582
47946W        W14377  39.285   0.016  12.403
47947W        W14378   5.020  28.667   0.664
47948W        W14379  14.090   1.907   1.232
47949W        W14380   0.360  37.892  10.725
47950W        W14381   3.009  17.769   4.749
47951W        W14382  36.611  26.655  11.243
47952W        W14383  34.979  32.763   3.059
47953W        W14384  24.189  43.706  14.972
47954W        W14385  32.338  25.174   2.592
47955W        W14386  34.626  44.669   4.709
47956W        W14387  41.318   5.323  12.161
47957W        W14388  32.560  23.472   3.691
47958W        W14389  19.633  39.394   1.223
47959W        W14390  14.392  25.448  14.991
47960W        W14391   5.325  13.686  12.535
47961W        W14392  13.289  17.891  14.907
47962W        W14393  10.268  15.612   1.643
47963W        W14394   2.554  25.518   1.160
47964W        W14395  33.917  28.812   9.686
47965W        W14396  36.984  33.689   3.414
47966W        W14397   6.370  37.329   2.119
47967W        W14398  11.231  13.246  11.082
47968W        W14399  34.479  43.250   4.899
47969W        W14400  33.904  32.554  13.085
47970W        W14401  11.042   6.359   0.743
47971W        W14402  25.755   8.487   1.037
47972W        W14403  40.428  23.121  12.887
47973W        W14404  14.096  25.972   2.129
47974W        W14405  23.758  26.946   3.158
47975W        W14406  16.126  20.897  11.884
47976W        W14407  21.353  44.115   0.277
47977W        W14408  37.472  12.941   0.757
47978W        W14409  29.425   2.917  11.214
47979W        W14410  26.861  38.901  11.097
47980W        W14411   2.066  24.687  11.488
47981W        W14412   4.209   4.831   0.714
47982W        W14413  10.239  26.982   1.839
47983W        W14414   7.934  29.599  13.482
47984W        W14415   4.792  18.554   0.891
47985W        W14416  41.425   5.896  10.345
47986W        W14417  19.805  37.072  14.306
47987W        W14418   2.446  20.971   9.937
47988W        W14419  30.383  11.757  13.290
47989W        W14420  30.240  10.276  14.307
47990W        W14421  39.480  13.799   4.616
47991W        W14422  18.218  19.692   2.761
47992W        W14423  28.515   6.857   0.265
47993W        W14424  19.614  20.036  11.170
47994W        W14425   9.287  36.445   0.458
47995W        W14426  23.260  15.838   0.536
47996W        W14427  18.965   7.736  13.476
47997W        W14428  42.254  38.994  14.028
47998W        W14429  24.279  41.303   4.277
47999W        W14430   6.932  39.493   3.690
48000W        W14431  12.381  41.938   2.871
48001W        W14432  27.341  21.993   0.157
48002W        W14433  19.653   7.844   2.038
48003W        W14434  39.425  34.550   3.652
48004W        W14435   7.000   2.401  14.901
48005W        W14436  18.825  14.868   1.679
48006W        W14437  35.127  34.674   0.914
48007W        W14438  24.979  38.015   9.932
48008W        W14439  43.778  31.162   0.333
48009W        W14440  28.913  21.301  12.958
48010W        W14441  21.600  37.908   2.188
48011W        W14442  25.259  18.985  13.071
48012W        W14443  34.901   9.290   0.284
48013W        W14444  39.482   2.837  11.894
48014W        W14445  25.228  11.181  12.946
48015W        W14446  32.864  39.213  12.482
48016W        W14447  14.728   5.894  14.587
48017W        W14448  11.769  30.625   3.458
48018W        W14449  39.765  25.208  11.494
48019W        W14450   2.174   4.652   0.366
48020W        W14451  32.273  29.877   2.763
48021W        W14452  38.133   4.929   0.266
48022W        W14453  11.737  41.629   2.619
48023W        W14454   0.514  40.082  14.736
48024W        W14455  16.654   9.517  11.293
48025W        W14456  18.622  23.209  13.401
48026W        W14457  23.797  28.838  14.596
48027W        W14458  30.722   8.635  14.657
48028W        W14459  11.092  12.245  13.558
48029W        W14460  25.156  10.588  13.787
48030W        W14461  11.640  18.612   3.309
48031W        W14462  33.496   6.848  13.010
48032W        W14463   7.185  40.029  13.932
48033W        W14464  19.319  41.357   2.671
48034W        W14465   7.895  21.730   3.107
48035W        W14466  24.088  21.668   2.902
48036W        W14467  19.583   0.529   4.152
48037W        W14468  19.278  13.098  11.616
48038W        W14469  43.847  18.356   2.698
48039W        W14470  11.655   6.909   0.651
48040W        W14471  18.473  29.648   1.121
48041W        W14472   2.678  14.597   0.027
48042W        W14473  23.976  28.936   0.336
48043W        W14474  12.678  14.345   0.917
48044W        W14475  40.047  41.515  10.542
48045W        W14476  11.742  18.777   4.628
48046W        W14477  35.463   0.550  13.142
48047W        W14478   8.702  41.784  14.040
48048W        W14479   4.340  32.346  13.427
48049W        W14480   3.399  43.889   2.906
48050W        W14481   2.320  31.018  11.937
48051W        W14482   4.674  34.698  14.388
48052W        W14483  29.784  39.576   3.413
48053W        W14484  42.916  43.138   3.158
48054W        W14485   7.252  20.654   3.289
48055W        W14486  27.527  32.905   0.275
48056W        W14487  26.029   1.847  13.597
48057W        W14488  16.593  34.182  10.605
48058W        W14489  15.666  19.442  13.756
48059W        W14490  17.036  34.936   0.860
48060W        W14491  28.121  37.317   4.636
48061W        W14492  24.718  39.472   3.776
48062W        W14493  11.673  27.648  11.037
48063W        W14494  35.956   7.970  12.069
48064W        W14495  10.219  13.280  11.703
48065W        W14496   4.706  24.964   0.664
48066W        W14497   8.084  13.593  11.231
48067W        W14498  12.905  44.054  12.085
48068W        W14499   4.279   8.710  11.577
48069W        W14500  30.799  12.670  10.807
48070W        W14501  40.989  42.426  14.900
48071W        W14502  16.806   6.552  10.698
48072W        W14503  13.791  41.695  11.968
48073W        W14504  36.346  16.084  14.729
48074W        W14505  10.923  25.495  14.035
48075W        W14506  30.939  29.238  11.062
48076W        W14507   3.874  40.810   1.865
48077W        W14508  20.314   0.974   0.203
48078W        W14509  34.558  34.379  13.966
48079W        W14510  35.154  17.654   3.223
48080W        W14511   8.912  23.908  14.933
48081W        W14512  42.702  35.572   3.624
48082W        W14513  18.606  39.946   2.692
48083W        W14514  18.774  25.400  12.023
48084W        W14515   9.210  10.417   0.788
48085W        W14516  41.970  12.820  12.628
48086W        W14517   5.339   3.634  14.521
48087W        W14518  30.864  36.966   4.698
48088W        W14519   1.704   6.406   2.260
48089W        W14520  39.977  19.188   0.998
48090W        W14521  17.572  10.222  12.052
48091W        W14522  33.334   1.799  13.051
48092W        W14523  15.694   2.162   0.933
48093W        W14524  26.462  20.287  10.758
48094W        W14525  32.524  42.387   4.098
48095W        W14526  42.332  36.282  12.579
48096W        W14527  29.918  14.301   0.963
48097W        W14528  19.136  14.236   0.106
48098W        W14529  21.316  33.703   1.200
48099W        W14530  26.720   6.769   3.067
48100W        W14531  31.577  36.849   0.262
48101W        W14532   3.289  16.421  11.069
48102W        W14533   8.907  11.451   0.239
48103W        W14534  39.532   2.295   0.388
48104W        W14535  23.931  28.560  13.677
48105W        W14536   1.807   0.726   4.434
48106W        W14537  29.545   7.434  13.505
48107W        W14538  37.996  14.751  12.009
48108W        W14539   6.127  41.047  13.460
48109W        W14540  33.173   1.727  13.974
48110W        W14541  44.961  22.167  14.218
48111W        W14542  31.494   3.161  11.138
48112W        W14543  18.018  12.338   3.660
48113W        W14544   5.665  39.337   1.901
48114W        W14545  35.366  31.951   2.240
48115W        W14546  40.800  34.530   2.341
48116W        W14547   9.726  17.506   4.590
48117W        W14548  17.210   6.357  14.179
48118W        W14549  16.085  16.249   0.644
48119W        W14550  12.717  17.804  14.293
48120W        W14551   1.945   7.907   1.395
48121W        W14552  22.929  27.592  13.368
48122W        W14553  19.940   5.353   4.872
48123W        W14554  17.774  31.916   1.727
48124W        W14555  11.390  21.027   2.421
48125W        W14556  19.646  21.190  11.907
48126W        W14557  14.463  33.563   1.990
48127W        W14558   6.715  28.497  11.205
48128W        W14559  27.552  21.197   2.089
48129W        W14560  14.811  17.199  14.515
48130W        W14561  28.717   7.932   2.896
48131W        W14562  25.016  29.538  14.021
48132W        W14563  27.108  15.684   0.985
48133W        W14564   2.460  17.178   4.559
48134W        W14565   9.309  19.498   0.982
48135W        W14566  16.088  21.395   3.051
48136W        W14567  13.149  31.964   3.427
48137W        W14568  25.203   8.207  14.299
48138W        W14569   5.310   5.995   1.889
48139W        W14570  26.449  25.572   1.787
48140W        W14571  13.268  15.373   3.333
48141W        W14572   4.035  16.157   3.221
48142W        W14573  39.598   9.824   4.226
48143W        W14574  29.969  19.460   0.775
48144W        W14575  32.402   3.443   0.941
48145W        W14576  35.623  36.970   2.690
48146W        W14577   7.376   1.412   1.846
48147W        W14578  11.231  26.259   1.002
48148W        W14579  14.184  44.861  12.502
48149W        W14580  14.216  16.681   3.321
48150W        W14581  33.359  34.858   3.368
48151W        W14582  37.926  41.900   4.098
48152W        W14583  10.731  16.844  12.910
48153W        W14584  29.250  24.076  12.561
48154W        W14585  43.345  25.682  12.888
48155W        W14586   2.628  28.090  12.830
48156W        W14587  20.113   4.444   3.248
48157W        W14588  29.982  32.986   1.943
48158W        W14589  10.597  38.224   4.750
48159W        W14590  16.422  34.097   1.112
48160W        W14591  15.117  14.137  11.142
48161W        W14592  32.447  32.999  11.922
48162W        W14593  10.175  37.561   0.607
48163W        W14594   5.034  22.647   1.209
48164W        W14595  10.316  40.522  12.067
48165W        W14596  23.605   4.030   1.359
48166W        W14597  12.914  19.504   2.965
48167W        W14598  34.868  20.224  10.773
48168W        W14599  26.020  36.346   2.240
48169W        W14600  14.092  12.226  11.779
48170W        W14601  13.567  30.412   0.750
48171W        W14602  13.282  34.762   1.552
48172W        W14603  43.349  41.367  14.593
48173W        W14604  38.093   8.752   2.005
48174W        W14605  40.681  34.901   4.069
48175W        W14606  35.566   5.962   2.865
48176W        W14607  23.994   2.137   2.216
48177W        W14608  37.956  35.009  11.596
48178W        W14609   4.025   0.992   0.377
48179W        W14610   3.189  21.973  12.260
48180W        W14611   8.530  28.223  13.142
48181W        W14612  10.813  18.073  12.483
48182W        W14613  37.472  40.820   4.107
48183W        W14614  16.272  12.649  10.622
48184W        W14615  39.780  19.786  13.480
48185W        W14616   3.023  10.255  13.969
48186W        W14617   1.795  37.685  10.743
48187W        W14618  25.678  36.421   3.423
48188W        W14619   2.781  40.606  14.532
48189W        W14620  29.910  27.083  11.927
48190W        W14621  13.795   1.197  14.342
48191W        W14622  33.838  30.088  13.957
48192W        W14623   5.052  38.577   1.654
48193W        W14624  23.440  37.322   0.358
48194W        W14625  39.787  39.922  13.467
48195W        W14626  24.471  18.798  11.565
48196W        W14627  35.114  13.494  14.001
48197W        W14628  10.772  25.565   5.437
48198W        W14629  36.757  37.108   0.304
48199W        W14630   1.449   4.429   4.541
48200W        W14631   2.512  28.991  12.178
48201W        W14632   1.873  17.226  11.659
48202W        W14633  26.203   1.883   2.978
48203W        W14634  34.346  16.701  12.674
48204W        W14635   9.087  31.666   2.955
48205W        W14636  20.974  28.444  12.494
48206W        W14637  25.191  41.424  10.417
48207W        W14638  16.488  30.871   3.756
48208W        W14639  31.187  40.809   3.224
48209W        W14640  29.974   5.775   2.121
48210W        W14641  18.530  10.533  11.535
48211W        W14642  42.447  25.742  13.433
48212W        W14643  38.507   7.945  14.668
48213W        W14644  26.614  14.867   1.884
48214W        W14645  20.946  31.986   3.646
48215W        W14646  32.996  19.832   3.199
48216W        W14647  10.894  41.898   4.163
48217W        W14648  17.092  41.694   1.463
48218W        W14649  32.033  12.783  11.927
48219W        W14650  12.447  12.455  12.143
48220W        W14651  31.026  41.744   0.019
48221W        W14652   8.348  15.873  12.146
48222W        W14653  22.499  29.693   1.235
48223W        W14654   0.945   2.807  10.598
48224W        W14655  26.403  27.028   4.216
48225W        W14656  21.044  12.374  10.422
48226W        W14657  27.782  20.796  13.437
48227W        W14658  44.428  40.399  11.887
48228W        W14659  10.329   3.217   2.770
48229W        W14660  41.505  21.521   0.976
48230W        W14661  22.997  24.658  10.846
48231W        W14662  31.014  43.549   4.247
48232W        W14663  20.465   1.395  13.533
48233W        W14664  15.213   9.742   1.710
48234W        W14665   8.795  15.291  12.442
48235W        W14666  27.681  35.424  14.418
48236W        W14667  18.585  31.130   4.091
48237W        W14668  22.372   0.429  13.588
48238W        W14669   3.332  16.564  14.900
48239W        W14670  15.043   0.401  11.949
48240W        W14671   4.817   3.499   4.003
48241W        W14672  20.594  21.260  13.628
48242W        W14673  17.901  13.242  13.587
48243W        W14674   9.239  37.090   2.824
48244W        W14675   6.622  13.248  14.847
48245W        W14676  21.139   9.690   3.989
48246W        W14677  19.099  24.870  12.928
48247W        W14678   8.137  40.065  13.173
48248W        W14679  12.836  31.673   1.877
48249W        W14680  28.234   5.885   3.428
48250W        W14681  39.502  21.502   0.763
48251W        W14682   4.970  31.565   0.966
48252W        W14683  25.211  44.798   1.445
48253W        W14684  27.059  28.970  12.151
48254W        W14685  32.510  27.041  10.492
48255W        W14686  39.840  18.692   0.275
48256W        W14687  37.048  42.480  12.616
48257W        W14688  39.462  17.701   2.333
48258W        W14689  31.506   3.700  11.156
48259W        W14690   6.828  24.943   1.820
48260W        W14691   6.218  13.821   2.456
48261W        W14692  44.259  38.235  12.744
48262W        W14693  31.625  34.086   2.439
48263W        W14694   4.250  20.208   0.984
48264W        W14695   6.775  12.674   2.407
48265W        W14696   0.107  42.300  12.911
48266W        W14697  31.969  13.623  14.388
48267W        W14698  29.951   7.831   1.385
48268W        W14699  12.696   8.606   1.782
48269W        W14700  44.504  38.614   2.309
48270W        W14701   0.065   0.663   4.270
48271W        W14702   8.128  28.542  13.837
48272W        W14703  26.570  40.910  13.060
48273W        W14704  13.653  33.356  13.846
48274W        W14705  40.432   6.556   3.722
48275W        W14706  39.516  43.180   0.739
48276W        W14707  35.027  27.006   0.350
48277W        W14708  31.710  10.878  14.750
48278W        W14709  29.617  14.588  12.399
48279W        W14710  41.496  19.925  11.651
48280W        W14711   9.544  19.133  13.250
48281W        W14712  32.042  16.614  10.699
48282W        W14713  11.128  21.960  12.551
48283W        W14714  11.115  44.996  14.998
48284W        W14715  32.468  43.423   4.841
48285W        W14716  33.453  28.582   1.865
48286W        W14717  26.595  42.788   1.672
48287W        W14718  22.759  18.162  14.377
48288W        W14719   5.933  37.291  13.680
48289W        W14720  21.691   7.575  12.436
48290W        W14721  31.871  19.462  11.642
48291W        W14722  24.266   5.174  13.029
48292W        W14723  21.936   3.695   4.614
48293W        W14724  36.518   0.723   1.338
48294W        W14725  21.283  27.194   2.647
48295W        W14726  12.692  22.614  11.196
48296W        W14727  20.972  40.894   2.736
48297W        W14728  11.839   6.514   1.426
48298W        W14729  22.726  34.520  11.759
48299W        W14730  18.047  34.105   0.241
48300W        W14731  36.749  25.273  12.195
48301W        W14732  36.093   9.962   4.125
48302W        W14733   8.809  16.099  14.205
48303W        W14734  21.671  28.442   3.943
48304W        W14735  32.180  31.928   0.373
48305W        W14736  34.985  10.206  14.408
48306W        W14737   4.468  36.574  12.040
48307W        W14738  32.066  32.928  12.257
48308W        W14739  11.636  33.188  12.969
48309W        W14740  26.668  41.913   1.743
48310W        W14741  16.719   5.373   0.280
48311W        W14742  39.460   4.842   4.397
48312W        W14743  35.439  14.747  11.695
48313W        W14744   3.940   6.018  11.595
48314W        W14745   2.292  25.050   2.723
48315W        W14746  28.083   1.264  12.735
48316W        W14747  42.359  34.443  10.553
48317W        W14748  37.051   1.849  14.382
48318W        W14749  12.630   2.875   2.828
48319W        W14750   9.161  42.834   0.289
48320W        W14751  20.074  44.435   1.281
48321W        W14752  20.305  30.613   1.008
48322W        W14753  35.933  34.537  13.948
48323W        W14754  19.241  20.759   0.397
48324W        W14755  23.698  19.284  13.066
48325W        W14756  10.241  26.742  11.354
48326W        W14757  40.408  39.167   0.522
48327W        W14758  42.089  38.061  14.488
48328W        W14759  32.223  23.927  11.176
48329W        W14760  30.236  33.443  13.843
48330W        W14761   8.833  33.116   0.428
48331W        W14762   5.947  43.827  13.446
48332W        W14763  11.235  16.503  12.956
48333W        W14764  10.478  34.994   4.051
48334W        W14765  20.979   7.706   1.985
48335W        W14766  13.451  23.652  13.793
48336W        W14767   3.256  34.900  11.055
48337W        W14768  33.775  11.084  13.940
48338W        W14769  43.475  41.776  10.816
48339W        W14770  25.525  29.077   0.362
48340W        W14771  21.757  40.952   0.810
48341W        W14772  20.871  26.024   1.572
48342W        W14773  15.678  12.451   1.534
48343W        W14774  27.185   4.348   0.800
48344W        W14775  24.018  44.612   5.122
48345W        W14776   0.499  14.943   3.122
48346W        W14777  35.391   2.688   0.501
48347W        W14778   3.261  22.352  11.139
48348W        W14779  39.465  19.984  13.097
48349W        W14780  19.106  16.998  11.910
48350W        W14781  37.341  42.452  13.431
48351W        W14782  31.087  34.898   1.925
48352W        W14783  26.202  30.754  10.471
48353W        W14784  37.058  10.614   4.714
48354W        W14785  42.893  33.468   0.923
48355W        W14786  29.669  15.625  13.932
48356W        W14787  26.707  18.717   1.332
48357W        W14788  41.864  14.182  13.835
48358W        W14789  42.208  17.655  11.106
48359W        W14790  24.464   4.952  11.590
48360W        W14791  42.961   9.531   4.914
48361W        W14792  43.776  16.000  10.979
48362W        W14793  21.303  28.217  11.089
48363W        W14794  44.122  34.388  13.499
48364W        W14795  16.265  26.260   3.242
48365W        W14796  30.964   7.825   1.176
48366W        W14797   6.614  23.238  11.689
48367W        W14798  26.486  41.854   3.477
48368W        W14799   3.945  34.604   1.683
48369W        W14800  24.022   2.777  12.430
48370W        W14801  36.605  17.159   4.563
48371W        W14802  42.336  27.269  13.837
48372W        W14803  26.266   8.304   2.802
48373W        W14804  11.250  35.705  12.724
48374W        W14805   5.459  31.637  13.870
48375W        W14806  22.468   1.259   3.103
48376W        W14807  14.832   8.590   3.125
48377W        W14808   4.954   1.783   2.758
48378W        W14809  38.087  38.748   1.889
48379W        W14810  22.100   0.601  11.973
48380W        W14811  43.381  32.405  12.122
48381W        W14812  43.837  35.482   2.592
48382W        W14813   8.450  30.076  14.115
48383W        W14814  24.121  19.761   1.681
48384W        W14815  22.593   7.237   2.138
48385W        W14816  37.537  32.609   3.140
48386W        W14817  14.699  17.975   3.650
48387W        W14818   1.701   6.134  11.642
48388W        W14819   2.476  38.555  12.164
48389W        W14820  24.922  26.739   4.953
48390W        W14821  31.449   3.574  12.541
48391W        W14822  14.725  42.983  10.410
48392W        W14823  39.473  33.101   0.480
48393W        W14824  15.002   2.029   0.872
48394W        W14825  14.206  27.967   3.175
48395W        W14826  38.006   7.160  13.337
48396W        W14827   8.877  20.182   0.157
48397W        W14828  12.790  21.083   4.191
48398W        W14829  44.007  14.322   1.468
48399W        W14830  17.302  29.154  14.718
48400W        W14831  38.328  38.462   1.251
48401W        W14832  15.305   7.780  14.824
48402W        W14833   4.131  16.637   1.470
48403W        W14834  20.199   3.087  11.703
48404W        W14835  29.433  12.690  14.029
48405W        W14836  37.132   4.789   4.075
48406W        W14837  16.101  44.428   4.697
48407W        W14838  21.187  13.954   3.390
48408W        W14839  40.316  27.336   3.751
48409W        W14840  11.400  38.648   2.739
48410W        W14841  11.298  32.845   0.950
48411W        W14842  38.881  15.728  11.021
48412W        W14843  25.498  38.854  10.930
48413W        W14844   9.590  28.691  13.835
48414W        W14845  44.046  33.709  12.967
48415W        W14846  44.408  41.969   0.710
48416W        W14847  12.327  34.574  13.599
48417W        W14848  22.154  15.067  11.086
48418W        W14849  13.757   7.163   3.801
48419W        W14850  29.010  26.494   3.580
48420W        W14851  26.506  31.072  11.586
48421W        W14852  22.472   1.404  13.417
48422W        W14853   2.912   3.874  10.584
48423W        W14854  10.235  25.975   1.846
48424W        W14855  21.998  19.043  11.622
48425W        W14856  19.061  10.173  11.523
48426W        W14857  32.117   9.167   2.708
48427W        W14858   1.283   2.148  10.690
48428W        W14859  36.347  26.182   3.131
48429W        W14860  15.628   7.679  14.286
48430W        W14861  44.749   0.742   0.775
48431W        W14862  15.182   3.884   0.842
48432W        W14863   2.993  25.201   2.938
48433W        W14864  21.874  18.305   9.803
48434W        W14865  42.123  25.982  11.488
48435W        W14866  21.183  42.387   1.098
48436W        W14867   1.944  12.731  13.879
48437W        W14868  42.138  21.157  12.786
48438W        W14869  26.721  33.982   1.866
48439W        W14870  23.184  30.866   2.628
48440W        W14871  21.690  38.979   1.234
48441W        W14872   0.957   1.422   1.200
48442W        W14873   7.648  24.906   2.801
48443W        W14874  20.310  24.501   0.713
48444W        W14875  20.015  34.054   0.503
48445W        W14876  32.790  33.070  11.517
48446W        W14877  38.643  15.411  11.678
48447W        W14878  17.212  11.613  11.899
48448W        W14879  26.336   7.458  12.019
48449W        W14880  22.449   4.344  12.553
48450W        W14881  42.303   9.708  11.951
48451W        W14882  41.354  33.961  12.699
48452W        W14883  41.325  12.034   3.783
48453W        W14884  23.448  29.271   1.205
48454W        W14885  30.730  38.941  11.008
48455W        W14886  23.014  39.886   1.806
48456W        W14887  25.056  13.314  12.046
48457W        W14888  17.721  15.085  14.806
48458W        W14889   5.366  33.209  14.882
48459W        W14890  38.517   9.102  10.689
48460W        W14891  25.816  23.577   4.947
48461W        W14892  17.886  20.188  13.037
48462W        W14893  42.903  20.094  10.763
48463W        W14894  21.609  16.788  13.041
48464W        W14895  37.060  38.984  13.606
48465W        W14896  25.264  43.073   2.162
48466W        W14897   0.969  39.935  11.632
48467W        W14898  24.410  21.230  11.485
48468W        W14899  26.874  18.171   2.458
48469W        W14900  12.299  14.071   2.737
48470W        W14901  44.776  39.012   0.497
48471W        W14902  14.380  40.510  11.961
48472W        W14903   1.921  17.725  12.287
48473W        W14904  29.492  36.581  13.554
48474W        W14905  16.046  28.058  12.819
48475W        W14906  40.053   1.701  13.104
48476W        W14907  12.306  10.233   2.781
48477W        W14908  44.848  38.093  14.078
48478W        W14909  33.001  10.832   0.485
48479W        W14910  34.939  43.884  11.482
48480W        W14911  38.510  17.637   3.339
48481W        W14912  20.034   6.420  13.907
48482W        W14913  40.565  24.127  12.578
48483W        W14914   6.340  14.076  13.842
48484W        W14915  35.842  35.851   2.938
48485W        W14916  16.316  27.177  12.469
48486W        W14917   5.744   3.732   3.804
48487W        W14918  36.891  33.966  13.109
48488W        W14919   2.002   8.371  11.542
48489W        W14920  37.585  23.820   1.285
48490W        W14921   3.551  37.010   0.798
48491W        W14922  23.719  14.457  14.549
48492W        W14923  31.597  19.201   1.754
48493W        W14924  24.520   4.653  14.018
48494W        W14925  27.684  24.037   3.755
48495W        W14926  44.247  20.737   1.423
48496W        W14927   0.353  10.978   3.654
48497W        W14928   3.358  27.957  12.304
48498W        W14929   9.130  31.878   0.973
48499W        W14930  12.279  25.401   9.691
48500W        W14931  40.080  17.767  13.110
48501W        W14932  21.462  11.415  11.337
48502W        W14933  20.711  43.425   2.181
48503W        W14934  21.674  43.556   4.177
48504W        W14935   8.800  23.379  14.907
48505W        W14936  18.395  19.555   4.731
48506W        W14937   9.668   4.656   2.765
48507W        W14938  40.822  28.931   0.894
48508W        W14939  25.623   7.848  11.563
48509W        W14940   3.836  37.772  12.518
48510W        W14941  19.762  17.642  14.508
48511W        W14942  32.280  18.163   3.714
48512W        W14943  32.825   8.350   2.028
48513W        W14944   0.718  32.467   2.698
48514W        W14945   3.040  36.993   4.106
48515W        W14946  40.404  39.944  10.311
48516W        W14947  28.492   1.067  11.233
48517W        W14948  37.675  12.149  11.176
48518W        W14949  27.470  33.328   4.210
48519W        W14950  20.689  24.241  10.736
48520W        W14951   3.016  21.763   0.366
48521W        W14952  36.866  15.766   2.403
48522W        W14953  14.665   6.081   3.377
48523W        W14954  21.636  23.965  14.011
48524W        W14955   2.808  21.047  13.515
48525W        W14956  40.117  35.209   3.722
48526W        W14957  12.330  34.913   4.472
48527W        W14958  42.328  27.258   3.127
48528W        W14959  23.506  26.079  13.879
48529W        W14960  38.263  12.641  12.308
48530W        W14961  31.149  26.528   2.398
48531W        W14962   4.985  40.843  11.467
48532W        W14963   7.263   7.179  14.594
48533W        W14964  22.589  30.100  12.840
48534W        W14965  31.474  14.315   1.433
48535W        W14966   2.945  27.523  13.013
48536W        W14967  35.717  43.005   4.583
48537W        W14968  11.220   7.133   4.013
48538W        W14969  19.814  42.922   4.646
48539W        W14970  25.637  36.364   2.906
48540W        W14971  20.291  29.595  11.572
48541W        W14972   2.281  37.408  13.334
48542W        W14973  30.023  41.910  14.825
48543W        W14974  26.190   1.159   1.329
48544W        W14975  36.379  26.018  13.361
48545W        W14976  24.818  11.159  14.509
48546W        W14977  40.969  22.662   2.214
48547W        W14978  41.856  42.353  13.907
48548W        W14979  38.200  20.232   2.280
48549W        W14980   4.875   3.487   3.027
48550W        W14981  42.886  15.067   2.895
48551W        W14982  18.664  22.366   0.807
48552W        W14983  19.818  10.620  11.187
48553W        W14984  28.429  31.796  14.399
48554W        W14985  16.791  11.155   1.377
48555W        W14986  30.388   7.313  12.832
48556W        W14987   5.824  13.835  12.504
48557W        W14988  19.538   2.307   1.801
48558W        W14989  36.697  42.324  12.278
48559W        W14990  42.286   6.877   4.031
48560W        W14991   5.877  36.582   2.550
48561W        W14992   2.652  32.491  14.219
48562W        W14993  44.503  32.943  13.856
48563W        W14994  33.640  18.641  12.353
48564W        W14995  39.498  35.529   1.479
48565W        W14996   6.640  15.582  11.193
48566W        W14997  36.386  10.879  10.114
48567W        W14998  28.861  14.657  12.899
48568W        W14999  37.003  32.007   2.761
48569W        W15000  41.927   8.740   2.706
48570W        W15001   1.941  28.935  13.538
48571W        W15002  11.608  21.410   4.512
48572W        W15003  21.246  11.792  14.032
48573W        W15004  17.973   1.366  12.925
48574W        W15005  16.183  40.517   0.411
48575W        W15006  18.718  13.358  12.488
48576W        W15007  30.209  34.863  12.506
48577W        W15008   4.728   9.340   4.550
48578W        W15009  38.512  19.518   4.577
48579W        W15010   7.156  42.371   1.772
48580W        W15011  26.798   3.262   1.933
48581W        W15012  25.155   1.296   3.593
48582W        W15013  17.589  16.799  13.720
48583W        W15014  23.058  42.737  14.747
48584W        W15015  15.205   8.119  10.398
48585W        W15016  14.219   8.245   1.396
48586W        W15017  38.961  10.717   3.210
48587W        W15018   9.939  10.272   1.575
48588W        W15019   4.215  19.556  14.911
48589W        W15020  36.831  38.982  14.072
48590W        W15021  28.440   6.724   1.180
48591W        W15022  19.094  35.923  12.007
48592W        W15023  35.333  24.765   1.502
48593W        W15024  41.917   7.331  12.666
48594W        W15025   5.735  40.501   0.259
48595W        W15026  40.490  43.885   1.467
48596W        W15027   0.276  35.633   2.608
48597W        W15028  37.980  40.982   4.036
48598W        W15029  43.539  28.130  12.145
48599W        W15030   0.803  38.997  11.927
48600W        W15031  13.772  10.870  11.460
48601W        W15032  29.284  37.992   3.198
48602W        W15033   6.499  12.643   0.377
48603W        W15034   6.211  23.122  14.874
48604W        W15035   5.881   6.432  13.869
48605W        W15036  26.434  43.860  14.917
48606W        W15037   9.910  41.422   0.635
48607W        W15038  13.401  29.603  14.234
48608W        W15039  16.713  39.435   1.705
48609W        W15040  20.268   5.869  12.406
48610W        W15041   1.141   4.988   3.756
48611W        W15042   2.334  12.169  14.169
48612W        W15043   4.236   7.757   2.316
48613W        W15044  11.445   7.760  11.652
48614W        W15045   4.063  16.382  11.602
48615W        W15046  29.262   4.833  13.194
48616W        W15047  40.809  20.214   1.124
48617W        W15048  15.099  34.151  13.098
48618W        W15049   8.821   8.281   3.006
48619W        W15050  11.172  41.038  10.677
48620W        W15051   9.190   0.975   1.677
48621W        W15052  29.358  20.070  12.879
48622W        W15053  33.797   7.096  12.668
48623W        W15054  39.805  12.613   0.936
48624W        W15055  35.614   3.932   4.958
48625W        W15056  13.328  28.021   3.868
48626W        W15057   4.136  17.700   2.175
48627W        W15058  40.172  37.534  11.159
48628W        W15059  32.577  31.348   1.728
48629W        W15060  15.652  31.569  13.355
48630W        W15061   6.825  32.511   4.423
48631W        W15062  38.470  11.656  12.975
48632W        W15063  35.988  31.426   2.357
48633W        W15064   6.121  26.729   2.779
48634W        W15065  28.258  28.822  12.385
48635W        W15066  33.191  23.495  11.190
48636W        W15067   8.349  36.433  13.091
48637W        W15068  18.499  42.364  14.616
48638W        W15069  12.219  27.032   4.090
48639W        W15070  25.714   3.147  14.382
48640W        W15071  42.751  30.451  13.933
48641W        W15072  39.749  43.497   1.942
48642W        W15073  28.563  44.388   0.302
48643W        W15074  44.570  34.866   2.763
48644W        W15075   5.241   4.432   2.329
48645W        W15076  40.642  10.231  12.495
48646W        W15077   6.138  12.803  12.591
48647W        W15078  23.975   5.277  12.618
48648W        W15079  34.548  13.686  12.161
48649W        W15080  44.726  17.920   1.395
48650W        W15081  22.934  15.407  10.717
48651W        W15082  12.513   8.761  13.938
48652W        W15083  37.873  29.003  10.561
48653W        W15084  37.372  34.922  10.568
48654W        W15085  22.117   1.671   3.189
48655W        W15086  20.534  39.741  13.489
48656W        W15087  30.554   1.280   4.724
48657W        W15088  24.295  31.859   0.956
48658W        W15089  22.033  16.392   2.924
48659W        W15090  24.025  40.640   3.206
48660W        W15091  27.236   9.343   1.237
48661W        W15092  24.778   4.639   1.211
48662W        W15093  43.352  22.718  14.515
48663W        W15094   2.969  28.963   1.319
48664W        W15095  41.576  12.110  14.742
48665W        W15096  14.275  40.792   4.061
48666W        W15097  17.493  19.033  14.595
48667W        W15098  31.900  40.473   0.924
48668W        W15099  34.342  18.368   2.724
48669W        W15100   2.800  39.477  10.489
48670W        W15101  30.559  27.093   3.479
48671W        W15102  21.073  26.666  10.597
48672W        W15103  23.629  24.293  12.501
48673W        W15104   1.952   8.630  13.482
48674W        W15105  40.197  25.556  11.120
48675W        W15106   8.452  12.344   1.928
48676W        W15107  22.525  40.970   1.417
48677W        W15108  17.721  26.994   0.711
48678W        W15109  30.046  44.673   1.804
48679W        W15110  38.187  15.135   2.008
48680W        W15111  32.831   7.879  11.403
48681W        W15112   1.925   7.827  11.594
48682W        W15113  20.747  31.752  11.244
48683W        W15114  30.975   7.071   0.813
48684W        W15115  31.106  41.802   3.754
48685W        W15116  17.543  24.615   2.297
48686W        W15117   4.614  32.045  12.999
48687W        W15118  41.833   1.175  14.845
48688W        W15119  40.812   5.389   4.054
48689W        W15120  18.219  24.062  11.994
48690W        W15121  28.922  34.029   2.077
48691W        W15122  34.130  34.473  13.519
48692W        W15123  26.146  34.502   4.445
48693W        W15124  32.415  24.144   3.139
48694W        W15125   4.560   5.760   2.878
48695W        W15126   1.942  41.747   3.546
48696W        W15127   6.195  31.893  10.569
48697W        W15128  22.073  35.391   2.867
48698W        W15129   8.128  20.499  14.931
48699W        W15130  23.789  32.963   0.768
48700W        W15131  27.038  17.297  13.332
48701W        W15132  26.172  19.259  13.790
48702W        W15133  44.382  23.934   2.954
48703W        W15134  16.148   7.382  13.630
48704W        W15135  17.787  28.945   4.084
48705W        W15136  39.706  44.444   3.117
48706W        W15137  35.282  43.993   1.469
48707W        W15138  15.184  18.127   0.770
48708W        W15139  37.098  38.243   3.653
48709W        W15140  26.119  11.221  14.316
48710W        W15141  23.047  35.379  14.126
48711W        W15142   0.765  24.223   0.664
48712W        W15143  14.359  20.586   0.259
48713W        W15144  34.495  12.158  13.405
48714W        W15145  26.217  30.638   9.967
48715W        W15146   9.169   7.265  12.587
48716W        W15147  37.480  34.231  14.000
48717W        W15148  25.924  15.703  11.952
48718W        W15149  36.663  30.988  14.415
48719W        W15150  19.031  36.630   3.562
48720W        W15151  37.721   2.290  12.931
48721W        W15152  22.900  40.471   3.225
48722W        W15153   1.514  26.428   0.519
48723W        W15154  24.717  18.062   0.760
48724W        W15155  22.115  32.971   3.782
48725W        W15156  28.533   5.199   4.531
48726W        W15157  40.439   6.216   1.270
48727W        W15158  23.240  28.589   0.443
48728W        W15159  10.850  23.272  10.612
48729W        W15160  36.296   4.672  13.233
48730W        W15161  21.864   7.580  10.832
48731W        W15162  40.001  23.730   3.136
48732W        W15163  38.269  13.663  14.214
48733W        W15164  10.896  15.009  14.957
48734W        W15165  31.548  42.693  11.898
48735W        W15166  31.958  22.220  14.295
48736W        W15167  17.728  21.460  11.972
48737W        W15168   0.780  15.585  12.554
48738W        W15169  40.104  24.210   0.186
48739W        W15170   8.250  24.710  10.707
48740W        W15171  16.465  19.454   2.194
48741W        W15172  15.649  17.522  14.583
48742W        W15173  17.027  43.912   4.512
48743W        W15174   4.584   5.380  14.299
48744W        W15175  28.558  36.060   1.645
48745W        W15176   5.016  17.412   4.924
48746W        W15177  44.492  31.132   0.758
48747W        W15178   7.068  42.334  12.407
48748W        W15179   1.258  25.521   4.679
48749W        W15180  26.311  18.170  10.076
48750W        W15181  18.291  33.646   3.271
48751W        W15182  37.684  15.661   1.102
48752W        W15183   6.064   8.737   0.176
48753W        W15184   0.053  30.108  13.879
48754W        W15185  21.210  42.187   0.636
48755W        W15186  28.467  32.069  14.854
48756W        W15187  38.902   8.894  10.418
48757W        W15188   8.311  11.879  13.237
48758W        W15189  12.705  28.915  13.486
48759W        W15190  23.966  19.077   3.581
48760W        W15191  31.172   2.845   2.687
48761W        W15192  32.964  15.747   2.155
48762W        W15193  28.683   1.766   1.845
48763W        W15194   4.910  36.165  12.589
48764W        W15195  40.999  12.699   3.290
48765W        W15196  32.454   5.904  12.599
48766W        W15197  16.458  11.422   3.136
48767W        W15198  17.131   8.308  11.617
48768W        W15199  13.578  18.598  11.491
48769W        W15200  31.995  23.410  10.480
48770W        W15201  19.539  31.478  11.688
48771W        W15202   5.965  43.171  11.248
48772W        W15203  12.969  25.159   2.699
48773W        W15204  37.080  43.021   0.298
48774W        W15205  43.971   9.385  12.434
48775W        W15206   7.789  26.986  11.424
48776W        W15207  25.568  23.458  14.813
48777W        W15208  27.180  21.002   1.764
48778W        W15209  30.906   3.719  11.565
48779W        W15210  23.551  35.471  12.220
48780W        W15211  27.837  35.897  11.323
48781W        W15212  32.981  32.388  10.687
48782W        W15213   8.177   3.983  11.585
48783W        W15214   6.456  15.568   1.277
48784W        W15215   5.164   5.427   4.567
48785W        W15216  33.071  25.528  10.694
48786W        W15217  35.162  19.691   0.214
48787W        W15218  16.619  15.594   2.411
48788W        W15219   7.866  41.428   1.750
48789W        W15220  11.796   1.012   4.625
48790W        W15221  19.569  24.003   4.063
48791W        W15222  26.478  36.423  10.808
48792W        W15223  30.620   2.465  11.429
48793W        W15224  32.987  43.489   3.723
48794W        W15225   8.914  37.048  13.460
48795W        W15226  13.164  27.217  12.674
48796W        W15227   1.726  23.502  14.842
48797W        W15228   2.984  27.981   1.554
48798W        W15229  12.874   8.124   2.441
48799W        W15230  19.544  14.329   3.083
48800W        W15231   1.099  10.164  14.895
48801W        W15232  37.060  34.050  14.313
48802W        W15233   4.407   9.435  12.335
48803W        W15234  18.011   6.829   3.908
48804W        W15235  28.382   0.214  12.513
48805W        W15236  12.906  20.852  10.672
48806W        W15237  16.814  27.741  13.088
48807W        W15238   4.142  10.783  10.542
48808W        W15239  19.939  10.371  12.050
48809W        W15240  43.311   9.700  14.759
48810W        W15241  42.174  28.051  11.315
48811W        W15242  34.317  28.136  13.451
48812W        W15243   7.801  36.324  10.254
48813W        W15244  39.076  21.621  14.537
48814W        W15245   7.297  11.283  13.112
48815W        W15246  19.941  26.963   2.155
48816W        W15247  32.091  35.860   1.835
48817W        W15248  42.329  25.259  13.317
48818W        W15249  25.484  41.976   4.045
48819W        W15250  39.065  41.884  10.921
48820W        W15251   0.198  27.644   3.678
48821W        W15252  21.502  13.822  12.988
48822W        W15253  32.094  41.596  12.600
48823W        W15254  22.843   5.833   4.126
48824W        W15255  13.816   8.945   2.758
48825W        W15256  39.851  26.459  12.065
48826W        W15257   1.035   5.444   3.962
48827W        W15258   5.311  12.457  13.531
48828W        W15259  33.574  33.995   2.154
48829W        W15260  35.931  43.047  14.007
48830W        W15261  10.288  34.943   2.622
48831W        W15262   2.867  10.236  10.637
48832W        W15263  14.257  22.098  10.012
48833W        W15264   4.823   4.928  11.469
48834W        W15265  34.357  11.779  13.733
48835W        W15266   4.389  31.548  12.970
48836W        W15267  40.434   1.844   2.193
48837W        W15268  17.186  22.718   2.825
48838W        W15269  29.656  37.807   1.840
48839W        W15270  34.025  42.108   2.294
48840W        W15271  17.329   4.954   3.630
48841W        W15272  22.540  32.989   0.281
48842W        W15273   1.308  17.016  10.351
48843W        W15274   7.258  24.474  14.046
48844W        W15275  31.396  36.497   1.787
48845W        W15276   5.147  29.174   4.567
48846W        W15277  19.774  23.086   2.063
48847W        W15278  42.955  35.506   0.029
48848W        W15279   3.191  32.461  10.897
48849W        W15280  42.804  27.246   2.877
48850W        W15281  35.899  14.246   4.810
48851W        W15282  13.154  12.852   4.171
48852W        W15283  10.756  14.094  14.535
48853W        W15284   8.159   4.467   3.012
48854W        W15285   3.390  38.964  10.419
48855W        W15286   7.972  17.297   1.356
48856W        W15287   3.744  16.020   9.893
48857W        W15288  11.308   0.711  12.499
48858W        W15289  36.825   4.397  10.809
48859W        W15290  40.619  26.108  13.882
48860W        W15291  39.472  15.293   4.562
48861W        W15292  27.190   4.445  10.661
48862W        W15293  40.534  12.872  12.936
48863W        W15294  18.180  10.217  14.869
48864W        W15295  24.196   3.305   4.180
48865W        W15296  23.750  17.346  14.867
48866W        W15297  43.810  13.575  12.579
48867W        W15298   4.414  18.686  12.949
48868W        W15299   9.139  34.838  12.034
48869W        W15300   6.896  44.485   3.927
48870W        W15301  40.703  22.632   4.860
48871W        W15302  44.360  44.547   0.479
48872W        W15303  19.666  36.821  11.918
48873W        W15304  42.471  13.056   3.807
48874W        W15305  22.838  32.533   3.201
48875W        W15306  39.311  38.296   3.236
48876W        W15307  39.541  19.949  12.207
48877W        W15308  31.475  38.081   2.815
48878W        W15309  33.487  19.143  11.035
48879W        W15310  17.542  41.931   1.372
48880W        W15311  38.245  36.280   4.584
48881W        W15312  42.330  18.636   4.302
48882W        W15313  27.530  36.522  12.356
48883W        W15314  19.124  17.192  12.931
48884W        W15315  35.815   9.101  10.709
48885W        W15316  17.820  40.410   2.693
48886W        W15317  19.011  29.567  14.809
48887W        W15318  10.386   1.455  12.027
48888W        W15319  42.309  29.360   0.715
48889W        W15320  16.685  37.800  13.548
48890W        W15321  16.906  12.388   5.107
48891W        W15322  23.655   9.350  12.595
48892W        W15323   8.943  19.273  12.049
48893W        W15324  34.616  31.102  13.340
48894W        W15325  15.580  33.019  14.213
48895W        W15326  30.384  44.369  12.997
48896W        W15327  20.718  14.976   4.267
48897W        W15328  19.612   0.271  14.609
48898W        W15329   5.623  41.405  14.351
48899W        W15330  31.205   2.288   1.918
48900W        W15331  18.085  37.749  13.029
48901W        W15332  34.568   6.303   1.116
48902W        W15333   2.679  43.414   3.077
48903W        W15334  16.705  10.889  14.608
48904W        W15335  11.207  23.224  12.570
48905W        W15336  20.039  41.551   0.731
48906W        W15337  41.325  43.959   0.884
48907W        W15338  10.766  29.204   3.765
48908W        W15339  35.526   3.289  12.034
48909W        W15340  26.587   0.839   1.277
48910W        W15341   7.392  41.954   4.587
48911W        W15342  17.301  34.491  11.619
48912W        W15343  41.990  10.403  11.223
48913W        W15344  32.756  18.710   2.117
48914W        W15345  14.728   2.545  12.579
48915W        W15346   0.521  33.408  12.972
48916W        W15347  22.747  39.763  11.901
48917W        W15348  26.773  31.555   2.813
48918W        W15349  37.336  44.966   0.551
48919W        W15350  21.212  14.980   2.353
48920W        W15351  38.977  16.275  14.889
48921W        W15352   9.245   7.256  11.719
48922W        W15353   7.359   0.727   3.981
48923W        W15354  37.472  32.268  13.305
48924W        W15355   3.764  25.474   1.978
48925W        W15356  32.652  12.655  14.773
48926W        W15357  36.646  43.844   4.072
48927W        W15358  23.152  33.604   4.567
48928W        W15359  22.215   5.182   4.901
48929W        W15360  21.568  20.053   3.113
48930W        W15361  18.594  29.801   3.708
48931W        W15362  24.865   4.499   4.163
48932W        W15363  16.873  29.661   1.206
48933W        W15364   7.720  36.053  10.699
48934W        W15365   3.666  17.247   4.321
48935W        W15366  30.219  32.634   3.184
48936W        W15367  25.103  33.660  10.370
48937W        W15368  19.050  39.845   1.832
48938W        W15369  23.200  23.210   2.723
48939W        W15370  22.740  34.628   4.018
48940W        W15371  19.149   9.630   0.504
48941W        W15372  31.102  21.461  12.906
48942W        W15373  20.090  28.602   0.508
48943W        W15374  24.113  26.872  10.379
48944W        W15375   5.667  22.730   2.960
48945W        W15376  40.428   8.515  11.953
48946W        W15377  44.431   0.728   1.364
48947W        W15378  41.930  24.940  13.433
48948W        W15379   5.246  17.077  14.418
48949W        W15380  17.255  35.455  10.793
48950W        W15381   2.231  14.334  12.910
48951W        W15382  35.537   5.690  13.981
48952W        W15383  26.971  19.748  11.190
48953W        W15384  33.669  21.520   3.229
48954W        W15385  30.457  16.423   2.920
48955W        W15386  35.130  33.001  11.224
48956W        W15387   0.262   7.427   3.877
48957W        W15388  28.175   5.485  13.807
48958W        W15389  44.624  42.889  13.408
48959W        W15390   1.667  34.131   3.626
48960W        W15391   8.432  37.496  14.394
48961W        W15392  27.220  24.256   3.783
48962W        W15393  25.237   6.793   2.810
48963W        W15394  40.403  35.330  13.549
48964W        W15395  36.923  22.019  13.413
48965W        W15396  40.306  17.808  10.219
48966W        W15397  44.326  14.823   0.309
48967W        W15398  37.490  42.857   9.946
48968W        W15399  27.007   3.915   0.290
48969W        W15400  28.619  29.999  11.453
48970W        W15401  37.905  28.463   4.333
48971W        W15402  13.204   8.819   1.913
48972W        W15403  41.446  32.386  13.523
48973W        W15404  39.577  19.147   3.046
48974W        W15405  44.373  32.332   3.226
48975W        W15406  26.207   1.625   1.086
48976W        W15407  40.505  36.884   1.073
48977W        W15408  34.984  20.726   0.519
48978W        W15409  17.104  31.348  13.846
48979W        W15410  41.610  31.412  13.928
48980W        W15411  40.614  43.698  14.453
48981W        W15412  14.595  25.929  14.044
48982W        W15413   0.300  18.154   0.262
48983W        W15414  15.107   5.816  11.659
48984W        W15415  29.711  12.634   0.043
48985W        W15416  11.836  31.154   4.615
48986W        W15417  31.464  11.217   1.980
48987W        W15418  18.604  11.837  13.101
48988W        W15419  33.385  33.043  12.226
48989W        W15420   9.781  37.830   2.778
48990W        W15421  40.373  19.127  14.405
48991W        W15422  34.858  11.750   0.516
48992W        W15423  24.847  15.543  12.191
48993W        W15424  42.818  31.197   4.218
48994W        W15425  23.249  37.622  11.633
48995W        W15426  30.030  42.473  14.842
48996W        W15427  32.955  41.115   3.550
48997W        W15428  35.267  15.633  12.070
48998W        W15429  11.178  13.851   0.428
48999W        W15430  37.378   8.313   3.662
49000W        W15431  42.563  19.082  12.991
49001W        W15432  23.219  27.158  14.321
49002W        W15433  11.925  11.141   2.771
49003W        W15434  16.557  36.842  11.503
49004W        W15435   9.456  32.140  13.509
49005W        W15436  22.536  35.158   4.902
49006W        W15437  38.430   1.007   3.757
49007W        W15438   9.529   0.988   3.559
49008W        W15439   4.022  43.750   4.172
49009W        W15440  31.994   0.250  10.742
49010W        W15441  41.330  29.050  10.616
49011W        W15442   6.422  34.998  10.640
49012W        W15443  24.861  33.832   9.941
49013W        W15444   1.529   2.411   4.203
49014W        W15445  39.268  44.444  14.301
49015W        W15446  20.317  36.065   1.401
49016W        W15447  20.219  12.074   4.635
49017W        W15448  40.257   6.713   3.237
49018W        W15449  42.921  22.763  11.579
49019W        W15450  13.701  35.353  12.732
49020W        W15451  12.259  32.100   1.181
49021W        W15452  31.386  17.307   1.646
49022W        W15453  43.428   1.872   2.346
49023W        W15454   5.856  26.983  10.749
49024W        W15455  38.561  26.634   2.206
49025W        W15456   9.115  41.826  14.426
49026W        W15457  25.496  16.634  12.120
49027W        W15458   0.335   3.079  13.084
49028W        W15459   0.210  36.914  10.803
49029W        W15460  43.030  27.959   3.616
49030W        W15461  24.897  39.393   4.654
49031W        W15462   8.568  19.151   3.295
49032W        W15463  29.094  30.362   1.834
49033W        W15464  21.371   9.750   1.728
49034W        W15465   8.078   3.929  14.423
49035W        W15466   9.919  28.515  10.571
49036W        W15467  40.856  36.523  12.028
49037W        W15468  42.010  14.956  14.970
49038W        W15469  23.262   0.955  11.165
49039W        W15470  33.628   2.543   4.202
49040W        W15471  44.304   9.334   1.790
49041W        W15472  42.308   3.826   2.922
49042W        W15473  18.651  27.376  13.461
49043W        W15474  30.861  17.146  12.391
49044W        W15475  19.073  23.158   0.330
49045W        W15476  23.456  44.515  13.987
49046W        W15477  23.233   3.917   0.451
49047W        W15478  11.241  34.925   0.016
49048W        W15479  35.275   2.236   3.333
49049W        W15480  40.800  34.400   3.773
49050W        W15481   2.391  16.813  13.005
49051W        W15482   1.055  20.249   2.126
49052W        W15483  25.614  39.959  14.393
49053W        W15484  10.285  32.647   4.214
49054W        W15485  14.012  32.874  13.027
49055W        W15486  31.388  34.108  11.009
49056W        W15487  23.458  25.313   4.799
49057W        W15488   1.728  26.598  12.359
49058W        W15489  44.994   5.854  13.896
49059W        W15490  36.044  44.055  13.857
49060W        W15491  19.792   8.411   3.316
49061W        W15492  42.023  29.708   4.496
49062W        W15493  36.956  37.268  14.789
49063W        W15494  25.750  12.879  11.289
49064W        W15495  21.605   6.846  14.224
49065W        W15496  44.846  18.386   1.606
49066W        W15497  23.167   5.361  10.750
49067W        W15498  12.853  14.809  11.892
49068W        W15499  25.622  36.337  14.867
49069W        W15500  17.312  27.472  10.726
49070W        W15501  34.970  29.862   4.574
49071W        W15502  15.217  21.447   0.933
49072W        W15503   1.890  26.608   3.800
49073W        W15504  20.192  12.739  12.461
49074W        W15505   1.930  14.791   0.479
49075W        W15506  20.634   2.407   2.424
49076W        W15507  35.647   5.406  14.452
49077W        W15508  31.937  40.465  14.975
49078W        W15509  31.330  23.349   1.835
49079W        W15510   4.191   0.450   0.770
49080W        W15511  35.449  12.642   0.700
49081W        W15512  24.624  14.033   1.192
49082W        W15513  39.423  12.596  14.837
49083W        W15514   7.882  21.202  11.688
49084W        W15515  10.116  14.707   1.114
49085W        W15516   6.769  18.553   1.113
49086W        W15517  27.555   2.638  13.741
49087W        W15518  21.191  39.698   0.482
49088W        W15519   5.104  11.339  11.077
49089W        W15520  14.449  36.617   3.281
49090W        W15521  25.685  23.738  10.724
49091W        W15522  24.507  31.542   1.295
49092W        W15523  40.021   4.648   3.688
49093W        W15524  14.688  25.623   4.680
49094W        W15525  43.394  39.932  12.305
49095W        W15526  36.938  19.662   3.069
49096W        W15527  19.925   4.282  14.517
49097W        W15528  31.358   8.207  14.062
49098W        W15529  31.224  44.977   1.539
49099W        W15530  15.915  31.666   3.571
49100W        W15531  29.874  12.833   4.110
49101W        W15532   3.214  29.541  14.320
49102W        W15533  42.770  32.417   2.211
49103W        W15534  11.611  43.232   0.379
49104W        W15535  22.230  27.889   2.613
49105W        W15536  18.347  30.632  10.371
49106W        W15537  25.446   7.288   4.214
49107W        W15538  43.992  40.903  12.911
49108W        W15539  34.345   5.872   3.817
49109W        W15540   5.784  35.325  11.929
49110W        W15541   0.802  10.862   1.208
49111W        W15542   5.261  10.310  12.367
49112W        W15543   0.573   1.223  13.054
49113W        W15544  23.582  15.869  13.357
49114W        W15545  13.264  27.702  13.871
49115W        W15546  39.480  33.391  11.925
49116W        W15547  29.445  21.274   1.551
49117W        W15548  33.095  39.061   3.253
49118W        W15549   2.048  27.813  12.865
49119W        W15550   7.732  18.104  12.348
49120W        W15551  36.542   9.984   0.053
49121W        W15552  27.481  34.175  13.979
49122W        W15553  41.370  13.390   4.201
49123W        W15554  32.744  29.981   0.472
49124W        W15555   8.787  20.714  12.534
49125W        W15556  43.312  32.244   4.835
49126W        W15557  40.398  44.535  11.476
49127W        W15558  21.792  26.977  10.753
49128W        W15559   8.127  13.302  11.852
49129W        W15560   7.150  13.505   0.977
49130W        W15561  36.299  28.156   1.104
49131W        W15562  23.773  22.722   1.376
49132W        W15563  42.925  22.305  11.823
49133W        W15564   9.865  43.272   3.234
49134W        W15565  40.925  43.790   2.858
49135W        W15566  44.756  10.232   3.357
49136W        W15567  30.362  24.678  12.935
49137W        W15568  21.195  30.160  13.841
49138W        W15569  20.787  32.561  10.589
49139W        W15570   9.813  11.427   2.263
49140W        W15571  27.622  37.025   0.990
49141W        W15572  22.649  10.793  12.869
49142W        W15573  20.558  12.687   4.939
49143W        W15574   9.095  44.574   3.250
49144W        W15575  37.334   4.758  12.232
49145W        W15576  14.253  20.987   1.302
49146W        W15577   2.354  39.473  11.826
49147W        W15578  33.380  27.227  11.590
49148W        W15579  23.823  30.644  14.572
49149W        W15580  36.719  24.127   3.841
49150W        W15581  38.571  40.549  11.678
49151W        W15582  24.861  40.045   4.160
49152W        W15583   6.286  19.018   2.624
49153W        W15584  33.284  29.168   0.308
49154W        W15585  38.608  32.115  10.191
49155W        W15586  19.028  20.482  14.243
49156W        W15587  31.012  25.535  11.199
49157W        W15588  41.310  43.473   1.731
49158W        W15589  37.885  42.332  10.967
49159W        W15590  28.874  37.384   1.862
49160W        W15591  29.225  15.466  14.905
49161W        W15592  42.547  30.260  12.071
49162W        W15593   8.201  40.816  14.457
49163W        W15594  25.754  40.303  13.562
49164W        W15595  25.710  41.487  12.064
49165W        W15596  29.169   4.361  14.097
49166W        W15597  23.538   4.880  13.407
49167W        W15598  26.159  33.313  13.317
49168W        W15599  43.179   3.914   0.301
49169W        W15600  15.340   4.642   4.090
49170W        W15601  19.734  12.562  12.668
49171W        W15602  35.330   1.281  11.284
49172W        W15603   7.385  18.677  10.718
49173W        W15604  39.870  44.291   4.467
49174W        W15605  32.405  35.926   4.115
49175W        W15606  33.451  14.610   1.961
49176W        W15607  43.554  34.302   3.213
49177W        W15608  13.045  14.892   3.346
49178W        W15609  18.663  13.909  13.465
49179W        W15610  13.291  37.747   2.173
49180W        W15611  31.383   1.169  12.950
49181W        W15612  11.758  27.799  13.094
49182W        W15613  25.709  37.924  14.154
49183W        W15614  37.167  30.666   2.383
49184W        W15615  14.339  26.025   1.322
49185W        W15616  35.118  30.035  10.750
49186W        W15617  40.511  44.827  10.659
49187W        W15618  26.132  31.569   1.785
49188W        W15619  27.514  10.504   3.934
49189W        W15620  27.809  22.529   1.268
49190W        W15621  38.628   0.049  14.777
49191W        W15622  22.779  16.174  10.627
49192W        W15623  12.154  22.997  12.307
49193W        W15624  30.480  13.848  12.180
49194W        W15625  34.129  41.762   3.610
49195W        W15626  34.346  11.129   1.484
49196W        W15627  34.504   0.082  12.488
49197W        W15628  20.712  42.042   0.484
49198W        W15629  11.120  18.010  14.261
49199W        W15630  10.574  31.890  14.571
49200W        W15631  20.280  18.109  11.292
49201W        W15632   9.356  26.912   2.106
49202W        W15633  25.460  33.714  11.690
49203W        W15634  30.049   9.736  12.421
49204W        W15635   6.608  40.526  12.953
49205W        W15636  44.529  12.536   4.232
49206W        W15637   9.933  39.296  14.519
49207W        W15638  44.793   8.707   0.314
49208W        W15639   0.124  28.951  10.805
49209W        W15640  12.173  34.485   4.767
49210W        W15641  35.123  38.861  12.571
49211W        W15642  41.757  38.982  13.100
49212W        W15643  31.420  28.386   4.049
49213W        W15644  40.505  16.510  10.857
49214W        W15645  36.048  19.709  12.633
49215W        W15646   7.190  30.083  11.882
49216W        W15647  27.651  15.710   0.403
49217W        W15648  30.331  40.335  14.818
49218W        W15649   6.782  40.844   0.848
49219W        W15650  19.393  29.992  11.076
49220W        W15651  32.889  22.629  10.596
49221W        W15652  21.536  34.102  13.018
49222W        W15653  43.298   5.570  14.354
49223W        W15654  14.739  35.840  12.997
49224W        W15655  21.222  17.264   4.153
49225W        W15656  15.089  27.747   4.125
49226W        W15657  41.736  22.720  13.025
49227W        W15658  38.582  26.452  14.228
49228W        W15659   2.577  34.403  11.440
49229W        W15660  16.225  36.697  14.895
49230W        W15661  41.064  23.661  13.870
49231W        W15662  14.040  17.426  14.406
49232W        W15663  30.110  12.952  11.996
49233W        W15664  35.568  21.629  14.804
49234W        W15665  44.681  10.046   5.052
49235W        W15666  12.012   2.039   0.696
49236W        W15667   7.167  12.109  13.572
49237W        W15668  13.738  44.956  14.908
49238W        W15669  42.319  34.092  13.461
49239W        W15670  30.671  26.712   4.309
49240W        W15671  44.230  32.402   1.822
49241W        W15672  38.451  11.408  11.172
49242W        W15673  24.612  11.614   0.832
49243W        W15674  31.825  26.846  12.659
49244W        W15675  17.696  21.975  14.470
49245W        W15676  41.923  37.543  10.848
49246W        W15677  28.429  36.410  13.946
49247W        W15678  24.042  11.279   0.900
49248W        W15679  34.166  23.641   2.329
49249W        W15680  23.588  40.490  12.014
49250W        W15681  42.473   9.288  10.699
49251W        W15682  34.886   9.685  10.705
49252W        W15683   1.769  37.671  12.516
49253W        W15684   2.928   5.963  14.533
49254W        W15685  27.573   6.856   2.642
49255W        W15686  14.109  40.458   0.577
49256W        W15687   9.837   1.381   0.551
49257W        W15688  37.096  31.184   0.329
49258W        W15689  40.755  25.686   4.557
49259W        W15690  36.863  37.602   4.189
49260W        W15691  34.044   1.153  11.203
49261W        W15692  34.356   0.860  14.532
49262W        W15693  16.063  44.949  11.497
49263W        W15694  24.797  34.894  14.293
49264W        W15695  17.958  18.286  12.953
49265W        W15696  11.144  32.549  14.938
49266W        W15697  12.964  39.125  14.898
49267W        W15698   6.716  14.228  10.165
49268W        W15699  34.977   4.577  13.649
49269W        W15700  31.862  38.801  11.959
49270W        W15701  18.969   6.681   2.005
49271W        W15702  28.516   4.977  12.651
49272W        W15703   5.510  42.612  13.028
49273W        W15704   7.330  21.275   4.068
49274W        W15705  42.159  37.908   3.767
49275W        W15706   8.253  41.338   4.740
49276W        W15707  42.119  11.544   1.237
49277W        W15708  40.652   9.812   4.298
49278W        W15709   8.431  25.961  11.607
49279W        W15710  21.202  17.003   9.661
49280W        W15711   1.753  11.723   2.231
49281W        W15712   2.799   3.066   1.371
49282W        W15713  35.511  39.423   3.373
49283W        W15714  29.054  11.168   0.573
49284W        W15715   0.936  14.842   1.594
49285W        W15716  10.422  25.693   3.834
49286W        W15717  35.683  23.003   0.397
49287W        W15718  30.197  31.516   4.725
49288W        W15719  22.308  16.299   2.111
49289W        W15720  44.729  18.671  13.089
49290W        W15721  31.043  33.327  12.077
49291W        W15722   8.884  17.922   0.187
49292W        W15723  26.364   5.271   4.582
49293W        W15724  29.225  15.881  14.030
49294W        W15725  22.606  44.028  12.534
49295W        W15726  17.662  35.190   4.364
49296W        W15727  37.108  32.417   5.021
49297W        W15728  42.415  26.421   2.756
49298W        W15729  14.355   0.339   0.388
49299W        W15730   9.821  26.129   0.278
49300W        W15731   4.729  27.069   2.830
49301W        W15732  14.152  36.479   1.478
49302W        W15733   2.281  43.314   3.395
49303W        W15734  19.844  32.318  11.490
49304W        W15735  16.646  25.917   3.214
49305W        W15736  34.541   9.430   3.833
49306W        W15737  20.563  24.894   4.177
49307W        W15738   2.377  43.479   4.379
49308W        W15739  24.567  12.664  13.631
49309W        W15740  36.503  38.461   0.804
49310W        W15741   8.323  25.668  10.745
49311W        W15742  17.731  22.051   0.957
49312W        W15743  16.534  24.031  14.054
49313W        W15744   2.327  24.049  14.496
49314W        W15745  25.231  13.821  13.522
49315W        W15746  34.045  30.478   9.881
49316W        W15747  44.856  29.050   0.272
49317W        W15748  41.807   6.266  13.971
49318W        W15749  32.636  15.364   4.835
49319W        W15750  15.823  38.124   1.751
49320W        W15751  29.975   8.776  14.277
49321W        W15752   5.431   7.591  12.887
49322W        W15753  31.627   2.777   3.600
49323W        W15754  20.143  21.112  10.593
49324W        W15755   2.791  35.483  12.632
49325W        W15756  26.192  24.034  13.429
49326W        W15757   4.274   7.677   1.450
49327W        W15758  31.482  20.131  10.785
49328W        W15759   4.798  31.404  10.724
49329W        W15760  19.211  13.708   2.344
49330W        W15761  24.449  43.785  12.416
49331W        W15762  17.150  19.070   2.582
49332W        W15763  32.492  25.502   2.183
49333W        W15764  29.900  24.689   3.687
49334W        W15765  17.766  21.341   3.171
49335W        W15766  10.735  28.000  10.120
49336W        W15767  41.523  37.880  11.044
49337W        W15768  16.632  41.304   0.313
49338W        W15769  25.002   3.763   1.254
49339W        W15770  17.123  16.775  13.444
49340W        W15771  21.449  24.652   2.108
49341W        W15772   5.412  32.968   3.235
49342W        W15773  15.705  23.900  12.148
49343W        W15774  19.703  37.863   1.270
49344W        W15775  21.975  42.491   1.509
49345W        W15776  29.037   6.773   2.149
49346W        W15777  42.049  25.428   0.994
49347W        W15778   2.602  14.065  12.450
49348W        W15779  12.868  18.264  14.037
49349W        W15780   0.465  39.202   4.413
49350W        W15781   3.514  12.360  10.100
49351W        W15782  13.337  37.447  13.360
49352W        W15783  24.817  37.848   4.035
49353W        W15784  41.952  18.115   2.092
49354W        W15785  29.725  32.558   0.757
49355W        W15786   5.673   0.330  13.378
49356W        W15787   9.569  33.105  14.206
49357W        W15788   3.213  42.513   4.145
49358W        W15789   8.849   6.821  13.433
49359W        W15790   2.951  24.488  10.698
49360W        W15791   4.801  20.936   0.820
49361W        W15792   4.511  26.719  12.928
49362W        W15793  12.133  16.365  12.909
49363W        W15794  34.074  17.518   4.228
49364W        W15795   7.870  43.460  13.488
49365W        W15796   5.333  15.553  11.018
49366W        W15797  22.124  41.444  10.401
49367W        W15798   5.250  33.976   4.699
49368W        W15799  23.257  40.419  11.572
49369W        W15800  42.751  19.228  14.427
49370W        W15801   1.921  25.383  13.539
49371W        W15802  38.763  25.527   2.577
49372W        W15803  16.124  38.119  13.911
49373W        W15804  27.521  31.064  11.017
49374W        W15805  33.463  10.537  14.696
49375W        W15806  36.786  37.815   3.634
49376W        W15807  20.111  28.689  13.727
49377W        W15808   3.047  35.730   3.713
49378W        W15809  27.909  42.502   1.656
49379W        W15810  35.735  33.548   1.463
49380W        W15811  30.841  23.176  14.732
49381W        W15812  21.640  40.548  14.417
49382W        W15813  31.871  41.521  14.852
49383W        W15814  25.109  17.956  13.139
49384W        W15815  37.307  18.129  13.404
49385W        W15816  15.432  12.380   3.214
49386W        W15817  32.605   7.757  13.047
49387W        W15818  17.244   8.756   1.145
49388W        W15819  33.372  12.636   0.448
49389W        W15820  15.519  24.461   0.479
49390W        W15821  16.944  35.139  12.137
49391W        W15822   8.045  35.688   2.879
49392W        W15823  20.445  34.822  12.050
49393W        W15824  39.831  27.145  14.459
49394W        W15825  22.484  10.935  10.497
49395W        W15826  31.448  11.332  11.457
49396W        W15827   1.481  40.937  11.666
49397W        W15828   0.305  41.310   2.354
49398W        W15829  16.298  23.692  12.833
49399W        W15830  39.830  27.167   2.827
49400W        W15831  37.674  20.185  13.467
49401W        W15832  32.249  21.540  11.855
49402W        W15833  21.827  34.041   3.219
49403W        W15834  10.205  42.484  10.667
49404W        W15835   6.778  33.796   1.706
49405W        W15836   9.418   1.825   4.082
49406W        W15837  31.911  18.808  13.361
49407W        W15838  26.845  42.999  10.993
49408W        W15839  22.548   6.157   0.282
49409W        W15840  31.590  14.318   3.871
49410W        W15841   7.741   7.080  14.748
49411W        W15842  38.498   9.344   4.159
49412W        W15843  36.019  16.225  12.895
49413W        W15844  17.227  29.996   4.309
49414W        W15845   9.672   0.893  12.355
49415W        W15846  42.431  32.938  10.596
49416W        W15847  25.101  36.445  10.653
49417W        W15848  42.801  26.686   4.302
49418W        W15849  24.194  26.573  14.773
49419W        W15850  20.524   6.181   3.107
49420W        W15851  17.989  31.449   1.858
49421W        W15852  35.873  13.029  11.468
49422W        W15853  31.405  26.187   2.783
49423W        W15854  27.972  12.941   4.301
49424W        W15855  28.171  28.200  11.088
49425W        W15856  30.427  28.411   2.463
49426W        W15857  40.990  37.049   0.884
49427W        W15858  39.984  38.271  13.514
49428W        W15859  30.171  31.211   3.254
49429W        W15860  42.488  23.083   4.606
49430W        W15861  13.168  11.821   4.069
49431W        W15862  24.654   3.770   3.573
49432W        W15863  29.999  35.096   1.042
49433W        W15864  26.160  23.212   3.653
49434W        W15865  43.315  13.609  13.479
49435W        W15866  20.816   6.740   0.487
49436W        W15867   8.725  17.046  14.030
49437W        W15868  31.078  36.348  12.150
49438W        W15869  30.581  12.401  13.400
49439W        W15870  40.815  41.263   4.092
49440W        W15871  32.031  32.327   0.721
49441W        W15872  33.162  24.584  14.486
49442W        W15873  31.882   6.906  11.558
49443W        W15874  32.782  38.794   0.069
49444W        W15875  24.685  28.431  11.192
49445W        W15876  19.582  31.637  12.722
49446W        W15877   3.252  35.577   0.844
49447W        W15878  21.806  15.765  13.028
49448W        W15879  14.580  12.527   1.958
49449W        W15880  21.580  30.431  12.963
49450W        W15881  16.544   2.902  12.864
49451W        W15882  41.076  32.371  12.452
49452W        W15883  34.109   2.325   4.278
49453W        W15884  26.697  14.519   4.867
49454W        W15885  27.640  35.966   0.206
49455W        W15886  43.588  12.436  10.655
49456W        W15887   9.288  36.570   2.874
49457W        W15888  30.898   4.134   0.366
49458W        W15889  22.760   6.190   1.639
49459W        W15890  16.786  43.502   4.117
49460W        W15891  10.550  31.969   2.252
49461W        W15892  34.989  29.643  13.501
49462W        W15893  21.100  16.782   1.276
49463W        W15894  42.705   9.302   3.659
49464W        W15895  21.594  39.490  14.389
49465W        W15896   2.191  14.573   4.065
49466W        W15897   8.274   5.988  11.552
49467W        W15898  24.178  24.580   0.454
49468W        W15899  15.595  36.763   4.390
49469W        W15900  18.145  36.824   3.400
49470W        W15901   8.088   0.763  10.594
49471W        W15902  44.662  16.962  11.115
49472W        W15903  21.207  17.335   1.238
49473W        W15904   8.643   5.546   1.819
49474W        W15905   2.913  41.778   4.957
49475W        W15906  33.117  44.818   0.025
49476W        W15907  29.661  34.683   3.655
49477W        W15908  26.231  21.642  11.897
49478W        W15909  16.623  34.001  12.741
49479W        W15910  33.016   9.761  10.751
49480W        W15911  18.570  19.379   0.230
49481W        W15912  30.935   9.135  11.181
49482W        W15913  34.417  41.823  10.562
49483W        W15914   9.892  25.001  11.440
49484W        W15915  21.498  25.774  12.143
49485W        W15916   1.968  43.624   3.143
49486W        W15917  34.358  20.679  11.601
49487W        W15918  33.213  17.965   4.263
49488W        W15919   3.974  10.762   1.853
49489W        W15920   6.705  26.686  14.444
49490W        W15921  12.915  38.076   3.203
49491W        W15922  25.731   6.921  11.065
49492W        W15923  12.736  10.611  13.036
49493W        W15924  20.902  11.345   4.528
49494W        W15925  29.264  19.775  11.639
49495W        W15926  35.587   1.186  12.294
49496W        W15927  43.055  27.997  13.971
49497W        W15928  39.450  11.670   3.072
49498W        W15929  41.204  32.267  10.748
49499W        W15930  18.261   5.485  11.800
49500W        W15931  24.602   6.141  13.968
49501W        W15932  27.555  30.419   2.674
49502W        W15933  33.871  11.260  13.135
49503W        W15934  22.759  22.848   5.085
49504W        W15935  38.716   9.458   0.594
49505W        W15936  39.833  43.632  11.270
49506W        W15937  40.947  24.098   1.328
49507W        W15938   2.728  42.501   3.066
49508W        W15939  28.621  32.883   1.682
49509W        W15940   9.571  18.804   1.397
49510W        W15941   9.349  29.218   2.722
49511W        W15942  26.131  19.434   4.934
49512W        W15943   9.618  16.834  13.893
49513W        W15944  30.134  25.656   2.887
49514W        W15945  27.328  39.007   4.293
49515W        W15946  28.515  33.202  14.343
49516W        W15947  24.553  32.296   0.768
49517W        W15948   1.029   4.482  12.800
49518W        W15949  19.295  15.994   0.727
49519W        W15950  43.416  33.262  12.520
49520W        W15951  41.894  34.200  11.463
49521W        W15952  28.501   8.287  12.948
49522W        W15953   2.698  21.471  11.268
49523W        W15954  10.705   7.991   3.169
49524W        W15955  37.921  12.280   3.559
49525W        W15956   2.966   8.392   4.525
49526W        W15957  39.075  11.842   0.441
49527W        W15958  34.690  35.146   2.359
49528W        W15959  33.614  41.189   1.158
49529W        W15960  16.609  25.737   4.508
49530W        W15961  36.502  18.820  13.615
49531W        W15962  43.471  35.081   3.948
49532W        W15963  32.810  41.973  14.768
49533W        W15964  40.636  21.580  11.662
49534W        W15965   8.181  10.642  14.023
49535W        W15966  28.663  17.320   3.683
49536W        W15967  34.440  39.476  11.068
49537W        W15968   1.282  24.791  11.094
49538W        W15969   2.049  27.528  14.973
49539W        W15970  21.069  31.919   0.932
49540W        W15971  42.863  15.490   1.338
49541W        W15972  44.293   2.454  10.618
49542W        W15973   2.934  30.672   3.765
49543W        W15974   1.485  41.826   4.302
49544W        W15975  41.915  27.376   0.899
49545W        W15976  30.342  15.161   2.911
49546W        W15977  42.893   7.289   4.769
49547W        W15978  10.824   2.921   2.705
49548W        W15979  36.979  27.590   1.126
49549W        W15980  39.397   8.651  13.109
49550W        W15981   8.709  44.456  13.552
49551W        W15982  38.037  16.287   1.891
49552W        W15983  38.423  32.504   2.796
49553W        W15984  19.119  13.573   0.740
49554W        W15985  17.860  21.208  12.392
49555W        W15986  28.100   7.084  11.493
49556W        W15987  43.795  35.788  11.506
49557W        W15988  20.730  21.019  12.169
49558W        W15989   0.332  22.749   1.318
49559W        W15990  38.882  42.641  12.405
49560W        W15991   2.447  19.199   4.200
49561W        W15992  44.902   1.408  11.724
49562W        W15993   8.277   8.725  12.282
49563W        W15994  16.269  20.480  13.757
49564W        W15995  36.717  30.099  10.888
49565W        W15996  38.775   1.627   3.642
49566W        W15997   2.094  36.135   3.846
49567W        W15998  12.520  21.670  12.556
49568W        W15999  13.776  23.222  10.729
49569W        W16000   2.926  13.796   3.187
49570W        W16001  36.468  26.144  14.711
49571W        W16002  44.931  40.734   0.633
49572W        W16003   8.375  29.415   0.694
49573W        W16004  12.374  30.891  13.936
49574W        W16005  44.543   4.232  13.377
49575W        W16006   5.735  31.367  11.523
49576W        W16007  23.656   3.683   0.223
49577W        W16008  24.982  36.468   1.287
49578W        W16009  38.622  24.278  11.477
49579W        W16010  10.006  12.753   4.750
49580W        W16011  15.811   8.680  14.662
49581W        W16012   5.130  22.048   0.880
49582W        W16013  11.581   6.237  10.760
49583W        W16014  25.156   6.952  11.255
49584W        W16015  40.548  21.678  14.573
49585W        W16016  31.291  17.224  10.506
49586W        W16017   4.732  42.953  11.253
49587W        W16018  25.570  18.709  13.832
49588W        W16019   1.946  17.353  11.148
49589W        W16020  30.698  19.689   2.310
49590W        W16021  14.841  11.463  13.939
49591W        W16022  44.154  30.313   4.957
49592W        W16023  37.448  35.414   4.819
49593W        W16024   5.444  41.386  14.862
49594W        W16025  22.435  32.561  13.773
49595W        W16026  32.559  10.828  14.834
49596W        W16027   2.169  28.974  14.950
49597W        W16028   1.195  42.369  11.481
49598W        W16029  30.981  14.570  11.982
49599W        W16030  26.415  38.942  14.790
49600W        W16031  13.619  22.041   1.887
49601W        W16032  30.548  39.335  14.808
49602W        W16033   0.330  34.970   3.794
49603W        W16034  20.075  24.482  13.859
49604W        W16035  11.092  38.262  10.445
49605W        W16036  39.544   8.872   3.647
49606W        W16037  16.335  42.399   0.728
49607W        W16038  10.421  14.297   3.266
49608W        W16039  42.816  12.573   1.593
49609W        W16040  20.008  33.722   3.787
49610W        W16041  28.181  34.632  11.674
49611W        W16042  23.949  26.724  13.377
49612W        W16043   7.160   7.220  13.572
49613W        W16044  35.046  28.035  11.950
49614W        W16045  13.414  20.987  11.843
49615W        W16046   4.749  26.887   4.288
49616W        W16047   9.395  14.864   0.337
49617W        W16048   5.547   4.323  13.639
49618W        W16049   7.661   8.159  12.304
49619W        W16050  39.191  42.779   0.701
49620W        W16051  30.672  34.710  14.814
49621W        W16052  16.706  17.670   3.293
49622W        W16053  18.639  15.396   2.752
49623W        W16054  29.197  16.242  13.659
49624W        W16055  33.669  42.749   4.472
49625W        W16056  19.177  40.468   0.937
49626W        W16057   6.042  15.328   5.439
49627W        W16058  37.615  32.013   5.216
49628W        W16059   7.286  29.408   4.236
49629W        W16060   6.224   4.173   1.326
49630W        W16061  28.599   4.700   4.469
49631W        W16062  24.163  41.498   3.256
49632W        W16063   6.949  34.385  14.894
49633W        W16064   0.773  21.456  14.830
49634W        W16065  43.535  17.033   2.749
49635W        W16066  33.021   7.328   2.829
49636W        W16067  14.172  37.555   0.017
49637W        W16068  28.516  43.973  14.041
49638W        W16069  19.855  11.634  14.415
49639W        W16070  18.837   5.902   1.665
49640W        W16071  29.884  12.684   0.543
49641W        W16072  30.004  19.912  13.449
49642W        W16073  34.933  20.981   1.814
49643W        W16074   5.762  12.163  11.800
49644W        W16075  42.095  34.602   1.705
49645W        W16076  30.351  21.269   2.124
49646W        W16077   2.422   3.886   3.930
49647W        W16078  11.288  29.891  14.216
49648W        W16079  18.563  25.970   2.043
49649W        W16080  19.011  31.718  12.086
49650W        W16081   9.755  30.904  11.360
49651W        W16082  22.484  10.235   1.320
49652W        W16083  12.341   6.975   1.639
49653W        W16084  31.631  10.764   2.226
49654W        W16085  22.145   1.585   0.127
49655W        W16086  15.647  44.723   4.618
49656W        W16087  42.753  32.738  13.364
49657W        W16088  25.143  10.151  10.776
49658W        W16089   3.933  11.628  10.429
49659W        W16090  13.396  26.199  14.208
49660W        W16091   6.672   9.253  11.996
49661W        W16092  27.751  10.085   4.100
49662W        W16093  13.942  40.423  12.866
49663W        W16094   7.843  35.302   1.756
49664W        W16095  25.889   0.706  13.798
49665W        W16096  17.331  15.457  12.201
49666W        W16097  11.117  34.330   1.480
49667W        W16098  30.949  17.605  14.917
49668W        W16099  35.945  18.115   1.918
49669W        W16100  41.382  24.697  11.989
49670W        W16101  15.326  25.750  12.108
49671W        W16102  31.604  33.779  13.640
49672W        W16103  18.442  32.446   1.495
49673W        W16104  12.751  40.533   4.069
49674W        W16105   3.765  14.625  12.050
49675W        W16106  42.511  44.948   4.085
49676W        W16107  24.303  43.998  11.636
49677W        W16108  42.468  37.652   4.625
49678W        W16109   1.002  32.492   1.392
49679W        W16110  35.956  32.365  12.276
49680W        W16111   8.491  38.280  13.676
49681W        W16112  43.363   4.674  13.427
49682W        W16113  30.169   9.819  11.124
49683W        W16114  39.420  29.006   1.872
49684W        W16115  16.085  30.349  12.432
49685W        W16116  22.167  27.674  11.989
49686W        W16117  25.210  43.388  14.567
49687W        W16118   3.661  11.145   3.682
49688W        W16119  17.439  24.745   9.857
49689W        W16120  39.051   5.945  10.018
49690W        W16121   1.266  22.337  11.188
49691W        W16122  10.623  22.950  11.592
49692W        W16123  24.535  19.684   1.375
49693W        W16124  31.738  43.055   0.675
49694W        W16125  17.186   5.215   3.208
49695W        W16126  38.826  24.042  14.844
49696W        W16127  22.523   2.168   3.335
49697W        W16128  36.327   8.287   4.562
49698W        W16129   4.877  40.846  14.427
49699W        W16130   3.797  13.395  11.348
49700W        W16131  26.680  28.111  11.196
49701W        W16132  16.556  21.119  10.972
49702W        W16133  38.965  35.132  13.808
49703W        W16134   3.060   1.130   4.186
49704W        W16135  16.682   5.520   3.566
49705W        W16136  21.243  30.565  14.474
49706W        W16137   8.834  30.864   0.256
49707W        W16138  43.993  31.117   2.776
49708W        W16139  24.970  18.294   4.632
49709W        W16140  12.798  44.381  10.828
49710W        W16141   6.651  31.474   3.729
49711W        W16142  32.127   1.689  14.514
49712W        W16143   0.332  12.375   0.881
49713W        W16144  34.161  34.890   4.642
49714W        W16145   9.709  30.890  13.652
49715W        W16146  15.287  21.673  11.965
49716W        W16147  34.255  41.347   3.873
49717W        W16148   8.427  21.656  12.644
49718W        W16149  11.882   7.628  14.782
49719W        W16150  21.816   8.913  13.937
49720W        W16151  16.198   5.758  10.681
49721W        W16152  40.863  17.269   4.781
49722W        W16153  27.172  37.028   4.197
49723W        W16154  18.345   8.226  11.619
49724W        W16155  39.444   6.651  14.762
49725W        W16156  43.485  41.123  12.965
49726W        W16157  15.977   7.182   2.760
49727W        W16158  28.521  11.874   3.286
49728W        W16159  15.847  38.016  12.555
49729W        W16160  13.862  26.055   1.036
49730W        W16161   2.695  19.995  14.348
49731W        W16162  24.105   8.607   0.459
49732W        W16163  22.964  30.441  12.651
49733W        W16164  22.620   9.813  13.470
49734W        W16165  30.536   3.759   4.670
49735W        W16166   7.021  33.412   2.701
49736W        W16167  29.359   7.077   1.304
49737W        W16168  38.587  21.667  14.334
49738W        W16169  44.987  24.901  10.715
49739W        W16170   3.453  18.097   2.656
49740W        W16171  25.221  30.143  11.945
49741W        W16172  42.925  29.271  12.140
49742W        W16173  11.532  26.490  13.567
49743W        W16174   6.653  43.984  12.107
49744W        W16175   4.715   1.224  11.013
49745W        W16176  35.648  17.282  12.844
49746W        W16177  26.757  30.583  13.431
49747W        W16178  14.648  18.001   0.781
49748W        W16179  22.412  44.965   0.150
49749W        W16180  10.180   8.368   3.776
49750W        W16181  27.611  31.454   3.905
49751W        W16182  12.363  14.210  14.488
49752W        W16183   1.123  21.003   0.948
49753W        W16184  14.762  15.064   3.659
49754W        W16185  13.697  19.804  12.469
49755W        W16186  24.038  44.828  11.444
49756W        W16187  36.493  26.915  10.804
49757W        W16188  10.700  31.271  13.239
49758W        W16189  12.608  17.470   3.515
49759W        W16190  25.640  20.988  11.971
49760W        W16191  24.889  12.135   2.812
49761W        W16192  24.481  12.140   1.073
49762W        W16193  32.650  37.427  11.543
49763W        W16194  17.052  12.913   4.458
49764W        W16195  10.632  42.420  11.571
49765W        W16196   1.974  10.833   4.263
49766W        W16197  15.294   7.782  11.605
49767W        W16198  15.085  25.214  14.293
49768W        W16199  34.786  14.397  14.950
49769W        W16200  34.758  32.577  12.570
49770W        W16201  26.705  43.940   2.646
49771W        W16202   3.892  15.763  13.584
49772W        W16203   4.765  12.701  10.054
49773W        W16204  25.716  41.099  13.976
49774W        W16205   7.930  19.802   3.169
49775W        W16206  17.975   6.346  11.210
49776W        W16207   1.872  16.599  13.641
49777W        W16208  22.692  16.084   4.438
49778W        W16209   9.360   5.773   2.318
49779W        W16210  42.573  11.936   1.796
49780W        W16211  35.877  21.200  12.500
49781W        W16212  38.015  32.998   0.779
49782W        W16213   4.385  21.046   3.212
49783W        W16214  26.203  27.078  13.016
49784W        W16215   7.816  37.886  14.718
49785W        W16216  40.231  11.640  10.703
49786W        W16217  35.927  42.330   0.427
49787W        W16218   1.435  13.365   3.276
49788W        W16219  42.116  15.524  13.767
49789W        W16220  16.298  14.984  14.975
49790W        W16221  29.394  31.803   4.153
49791W        W16222  33.577   8.232   1.308
49792W        W16223  11.322   4.990  13.431
49793W        W16224  32.893  28.003  12.055
49794W        W16225  32.579   6.916  11.958
49795W        W16226  21.952  11.647   0.903
49796W        W16227  33.711  38.084  13.425
49797W        W16228   1.242   4.877  14.913
49798W        W16229  16.393  12.874  12.885
49799W        W16230  36.147  18.012  13.846
49800W        W16231   3.403  21.710   4.662
49801W        W16232  38.625  16.458   4.030
49802W        W16233   4.528  26.145   2.811
49803W        W16234  39.656   1.861   2.733
49804W        W16235  21.978  15.736   0.939
49805W        W16236   0.223   1.383   4.490
49806W        W16237  24.984  10.798   4.637
49807W        W16238  36.823  34.103   0.750
49808W        W16239  40.122  35.812  11.078
49809W        W16240  38.117   7.417  12.457
49810W        W16241  30.652  16.030   0.844
49811W        W16242  35.285  12.720   3.182
49812W        W16243  41.205  42.982   1.828
49813W        W16244  20.696  41.929  13.477
49814W        W16245   7.764   4.414   0.373
49815W        W16246  29.858   9.282  13.435
49816W        W16247   1.999  28.330  12.727
49817W        W16248   0.852  21.047   3.273
49818W        W16249  43.505   1.078  14.393
49819W        W16250  17.691  20.573   0.803
49820W        W16251  12.141  22.537  13.324
49821W        W16252   4.722   1.782   0.184
49822W        W16253  18.204  15.399   2.443
49823W        W16254  36.684  17.444  10.847
49824W        W16255  31.158  39.232  11.062
49825W        W16256  29.162  29.726  12.951
49826W        W16257   4.696  17.600  10.778
49827W        W16258  19.541  26.106  12.072
49828W        W16259   7.733  24.959  13.022
49829W        W16260  24.592  14.869  12.951
49830W        W16261  42.689  18.045  14.838
49831W        W16262  12.145  29.866  11.872
49832W        W16263  36.098  26.089  11.564
49833W        W16264  25.960   8.738   2.139
49834W        W16265  40.267  33.561   4.576
49835W        W16266  12.290   7.850  13.438
49836W        W16267  25.632  31.581   0.895
49837W        W16268  41.920  18.224  13.763
49838W        W16269  24.298  23.668   0.296
49839W        W16270  11.125  21.047  12.430
49840W        W16271  14.243  13.468  13.940
49841W        W16272  33.428  38.639  14.550
49842W        W16273  41.987  24.977   2.913
49843W        W16274  20.796  18.543  12.886
49844W        W16275  21.039   8.129   0.493
49845W        W16276   4.967  14.224  10.683
49846W        W16277   4.420  29.637  11.552
49847W        W16278  28.641  39.137   2.930
49848W        W16279  11.446   5.723   4.191
49849W        W16280   6.295  11.716  10.613
49850W        W16281  25.666   6.168  14.827
49851W        W16282  26.142  15.751   0.101
49852W        W16283  32.995  33.519  11.579
49853W        W16284  23.620  30.192  11.795
49854W        W16285   4.690  21.475  10.014
49855W        W16286  11.237  37.614   2.769
49856W        W16287  21.507   5.393  11.102
49857W        W16288  31.885  22.120   4.419
49858W        W16289  25.707  19.491   0.747
49859W        W16290  29.517  35.669  13.822
49860W        W16291  31.914   1.346   3.534
49861W        W16292  26.172  28.259  10.428
49862W        W16293   5.370   1.036   0.460
49863W        W16294  16.432  10.400  10.981
49864W        W16295  13.826  21.854  14.033
49865W        W16296  13.423   4.890   2.367
49866W        W16297  28.268  15.818  10.980
49867W        W16298  34.026  23.502   0.397
49868W        W16299  36.229   1.304   1.863
49869W        W16300  34.523  24.600  14.932
49870W        W16301  10.950  30.460   4.491
49871W        W16302  19.245  39.817  10.223
49872W        W16303  32.960  40.281  13.331
49873W        W16304  32.842   0.834  11.497
49874W        W16305  25.735  28.662  10.730
49875W        W16306  35.088  41.742   0.453
49876W        W16307   2.858   0.807  10.696
49877W        W16308  13.671  41.563   1.748
49878W        W16309  29.538  41.509   1.254
49879W        W16310  36.343  10.875   0.467
49880W        W16311  18.256   5.753   4.805
49881W        W16312  24.298  22.629   1.296
49882W        W16313   9.124  21.690  12.133
49883W        W16314   7.902  44.473   4.218
49884W        W16315  19.674  28.563   1.261
49885W        W16316  31.442  38.841   3.889
49886W        W16317   7.192  39.777   2.835
49887W        W16318  39.480   1.678   1.176
49888W        W16319  12.900  26.011   4.332
49889W        W16320  20.010  18.798   0.980
49890W        W16321  34.975  21.347   3.185
49891W        W16322  41.312  31.002   4.641
49892W        W16323  14.715   6.395  14.755
49893W        W16324  24.532  33.380   2.676
49894W        W16325  24.976   5.604   3.683
49895W        W16326  22.567  20.241   1.502
49896W        W16327  11.192  15.675   2.448
49897W        W16328  24.805   9.159   4.229
49898W        W16329  26.140  41.966   1.644
49899W        W16330  12.905  44.441   0.273
49900W        W16331  33.431   5.323   2.428
49901W        W16332  36.307   3.369   3.772
49902W        W16333   1.798  34.988   3.602
49903W        W16334  25.010   9.861   1.985
49904W        W16335  19.581   1.576   1.179
49905W        W16336  29.145  38.681   1.730
49906W        W16337  16.620  18.627  14.127
49907W        W16338  36.019  32.878  12.551
49908W        W16339  11.990  29.683   1.296
49909W        W16340  31.745  35.516  11.407
49910W        W16341  44.925  36.087   0.682
49911W        W16342  39.654  28.274   3.170
49912W        W16343  10.570  21.181  10.757
49913W        W16344  42.293   6.006  10.398
49914W        W16345  31.929  20.598   1.973
49915W        W16346  24.961  20.178  13.700
49916W        W16347   9.688  35.333   0.769
49917W        W16348   6.892   5.696  12.291
49918W        W16349  43.271  40.819  12.528
49919W        W16350  13.825  36.488   4.179
49920W        W16351  38.885  25.497  14.027
49921W        W16352  43.525   5.893   2.129
49922W        W16353  31.399  38.110  12.363
49923W        W16354  39.961  17.281   3.697
49924W        W16355  36.431   4.678   2.917
49925W        W16356  22.613  32.903   4.552
49926W        W16357  33.902  41.824   4.065
49927W        W16358  33.345  32.601  11.034
49928W        W16359  27.102  33.088   2.177
49929W        W16360  10.296   3.724   2.902
49930W        W16361  16.883   3.578   3.227
49931W        W16362  24.904  41.409  11.442
49932W        W16363   2.686  14.578   2.600
49933W        W16364  21.882  20.302  14.908
49934W        W16365   3.363  11.251  14.044
49935W        W16366  22.018  43.346   1.694
49936W        W16367   5.738  37.860   4.058
49937W        W16368   3.829  10.756  11.371
49938W        W16369   6.929   3.796  10.612
49939W        W16370  29.018  43.068   0.413
49940W        W16371  31.555  43.224   1.824
49941W        W16372  21.122  39.604   1.648
49942W        W16373  29.586  34.919  13.515
49943W        W16374   5.305  21.104   0.888
49944W        W16375  34.760  14.173   1.785
49945W        W16376   7.862  11.346  11.295
49946W        W16377  32.136  28.709   1.224
49947W        W16378  34.527  14.648   4.695
49948W        W16379  36.131  17.510  11.539
49949W        W16380  43.266  26.186  13.826
49950W        W16381  40.636  14.633  14.694
49951W        W16382   6.534  32.155   4.715
49952W        W16383  30.444  17.678  10.547
49953W        W16384  37.865  28.034  10.726
49954W        W16385  13.639  29.930  14.660
49955W        W16386  16.372  12.046  12.322
49956W        W16387  36.562   1.935   3.116
49957W        W16388  14.218   9.381   3.181
49958W        W16389  37.244   7.178  10.859
49959W        W16390  24.984  13.935  13.990
49960W        W16391  39.894  30.058   4.112
49961W        W16392  15.167  25.315  13.391
49962W        W16393   5.760  28.085  12.036
49963W        W16394  23.516  28.128   4.610
49964W        W16395  37.130  33.834  11.397
49965W        W16396   5.861  33.183   1.228
49966W        W16397  33.552   8.733   2.490
49967W        W16398  27.221  13.133  13.003
49968W        W16399  12.718  18.027   3.839
49969W        W16400  25.995  21.754   2.589
49970W        W16401   3.913  36.354   1.796
49971W        W16402   3.461   5.986   2.307
49972W        W16403   1.919  28.635   4.061
49973W        W16404  16.611   2.200   1.839
49974W        W16405  16.793  24.358   3.300
49975W        W16406   0.348  38.843   2.159
49976W        W16407  12.363  33.953  12.834
49977W        W16408  10.690   6.619  13.782
49978W        W16409   9.876  29.542   2.534
49979W        W16410   7.843  32.836   2.742
49980W        W16411  31.964  13.312   3.681
49981W        W16412  41.963  30.022  11.665
49982W        W16413  32.587   5.131   2.386
49983W        W16414  20.207   7.165   2.139
49984W        W16415   1.943  10.876  12.417
49985W        W16416  42.346  21.344   4.570
49986W        W16417  12.676  11.889  12.513
49987W        W16418  15.606  19.683  11.133
49988W        W16419  26.893  14.464  12.820
49989W        W16420  26.876  16.894   3.092
49990W        W16421  12.765  30.464  14.647
49991W        W16422  38.036  39.619  10.861
49992W        W16423  38.523  14.080  13.451
49993W        W16424  44.970  13.365  13.860
49994W        W16425  40.757  33.334   0.846
49995W        W16426  41.434   7.668  11.742
49996W        W16427  39.936  27.868  13.903
49997W        W16428   2.168  34.446  12.824
49998W        W16429  34.813  33.102  12.075
49999W        W16430   1.938  39.565  12.105
50000W        W16431  12.662  35.262  12.554
50001W        W16432  13.116  17.606  11.149
50002W        W16433   7.641   4.841   0.124
50003W        W16434  11.835  28.243   4.570
50004W        W16435  33.180  28.321   5.141
50005W        W16436  22.841  15.376  13.889
50006W        W16437  23.461   6.618  14.005
50007W        W16438   3.765   8.021  11.761
50008W        W16439  25.327  16.788   3.761
50009W        W16440  25.086  19.207  11.260
50010W        W16441  24.113  31.799  10.687
50011W        W16442  38.604  34.356  11.611
50012W        W16443  19.045  34.495  14.855
50013W        W16444  18.174  11.403   0.343
50014W        W16445   4.823   0.340  10.888
50015W        W16446   6.873  43.545  11.911
50016W        W16447  16.392  26.994   0.226
50017W        W16448   7.088  21.076  13.426
50018W        W16449  15.678  30.658  12.407
50019W        W16450   5.489   8.942  14.818
50020W        W16451  16.179   8.431  12.356
50021W        W16452   3.937   8.076   4.717
50022W        W16453  36.374   9.106  11.669
50023W        W16454   1.114   7.598   0.932
50024W        W16455   2.419  12.086  10.267
50025W        W16456  43.784   2.113  11.245
50026W        W16457   7.614  31.805  12.919
50027W        W16458  23.529   4.102   3.108
50028W        W16459  19.034  12.345   1.498
50029W        W16460  13.155   8.885  11.650
50030W        W16461  37.763  18.806   3.173
50031W        W16462  27.146  32.140   1.725
50032W        W16463  16.162  38.022   2.211
50033W        W16464  18.472  20.084   1.840
50034W        W16465  23.227  14.109  10.901
50035W        W16466  43.240   2.441   3.133
50036W        W16467  38.920  14.812  13.855
50037W        W16468  27.194  31.676   4.180
50038W        W16469  19.822  21.002   1.425
50039W        W16470   6.225   8.915   4.836
50040W        W16471  42.831  11.434  12.366
50041W        W16472  43.990  39.470  14.042
50042W        W16473   6.226  27.217   3.680
50043W        W16474   1.202   2.246   0.476
50044W        W16475  34.128  27.980   2.205
50045W        W16476  33.330   7.892   4.284
50046W        W16477  19.080  35.550   1.099
50047W        W16478  34.023  15.532   3.114
50048W        W16479  43.356  32.043   0.278
50049W        W16480  36.787   5.761   4.444
50050W        W16481  19.560  44.722   2.244
50051W        W16482   2.992  14.865   2.268
50052W        W16483  44.626  30.333   3.688
50053W        W16484   3.784  17.744   4.456
50054W        W16485  38.544  26.595  12.545
50055W        W16486  28.574   3.810   0.249
50056W        W16487  36.304  26.708   0.345
50057W        W16488  33.431  16.202  11.676
50058W        W16489  35.004   6.218  14.528
50059W        W16490  38.486   9.845   4.124
50060W        W16491  37.974  38.599  12.058
50061W        W16492   5.533  29.646  12.600
50062W        W16493   7.444  19.956   2.737
50063W        W16494  23.144   9.839  11.104
50064W        W16495  40.372  36.077  10.613
50065W        W16496  22.010  17.919   4.898
50066W        W16497  42.254  18.446  14.838
50067W        W16498  11.663  42.392  10.237
50068W        W16499  44.762   3.636   2.109
50069W        W16500  14.673  39.143  12.201
50070W        W16501   9.878  20.793   1.211
50071W        W16502  44.432  24.249   1.496
50072W        W16503  14.542   4.257   1.900
50073W        W16504  33.390  23.004   2.335
50074W        W16505  36.525  38.272   3.625
50075W        W16506   5.696   0.469   4.127
50076W        W16507  36.528  43.493   0.405
50077W        W16508  38.046   0.885  14.804
50078W        W16509  14.160  13.719   3.597
50079W        W16510  34.511  29.753  14.710
50080W        W16511  15.302   3.611  10.402
50081W        W16512  39.454  33.929  11.230
50082W        W16513   4.841  18.518  13.473
50083W        W16514  40.946   7.639  11.624
50084W        W16515  23.277  22.707  11.423
50085W        W16516  21.938   0.654   3.243
50086W        W16517   9.699   9.406   4.636
50087W        W16518  33.019  36.925   3.337
50088W        W16519  20.839  17.762   0.370
50089W        W16520  35.882  11.693   1.712
50090W        W16521  37.481   9.175   4.539
50091W        W16522  14.394  13.082  10.962
50092W        W16523  42.597  34.546   1.854
50093W        W16524  25.522  36.543  12.954
50094W        W16525  37.126  23.190  13.758
50095W        W16526  29.899  19.142   0.366
50096W        W16527   5.932  14.147   0.245
50097W        W16528  27.001  43.206   2.253
50098W        W16529  40.561   5.568   0.110
50099W        W16530  13.352  36.651   1.888
50100W        W16531  28.719  36.038  14.824
50101W        W16532  30.423   2.927   1.139
50102W        W16533  43.532  15.245   1.878
50103W        W16534  35.800  21.612  12.834
50104W        W16535  10.223  37.955  14.734
50105W        W16536  11.099  28.024  13.824
50106W        W16537   3.910  28.911  10.610
50107W        W16538  43.040   4.725  11.588
50108W        W16539  28.315  41.055  13.626
50109W        W16540  16.737  18.994   3.824
50110W        W16541  16.235   5.748  14.940
50111W        W16542  41.032  16.340   3.204
50112W        W16543   6.569  41.327   2.149
50113W        W16544   0.994  15.659  11.673
50114W        W16545  27.500   8.245  14.913
50115W        W16546  21.101  40.444  10.846
50116W        W16547  40.064  22.537  13.507
50117W        W16548  21.024  15.588  14.922
50118W        W16549  42.193  34.453   2.195
50119W        W16550  34.037  20.231  13.788
50120W        W16551  24.894   7.273   5.050
50121W        W16552  32.927  14.158  14.796
50122W        W16553  10.636   5.789   3.752
50123W        W16554   5.674  11.504   3.973
50124W        W16555   8.785  22.647   0.323
50125W        W16556  32.579  13.050  10.882
50126W        W16557  31.686  14.241   3.369
50127W        W16558  22.840  39.444  11.509
50128W        W16559  34.162  23.389   1.243
50129W        W16560  14.575  11.740  12.378
50130W        W16561  27.915  31.114  11.854
50131W        W16562  39.311  10.314   3.760
50132W        W16563  43.346  38.751  14.877
50133W        W16564   4.741  32.008   1.711
50134W        W16565  37.971  33.435   4.117
50135W        W16566  18.152   4.737  11.813
50136W        W16567  40.093  35.715  13.491
50137W        W16568  19.084  40.891   0.292
50138W        W16569  24.085  43.409  13.544
50139W        W16570  34.416  36.619  13.991
50140W        W16571   6.809  18.815  11.554
50141W        W16572  21.168  27.288   1.216
50142W        W16573  28.555  38.838  11.743
50143W        W16574  10.989  19.478   3.108
50144W        W16575  18.657  42.030  11.397
50145W        W16576   3.974   1.139   4.194
50146W        W16577  24.073   5.368  10.755
50147W        W16578  30.594   3.381  10.426
50148W        W16579  25.010  34.020  10.812
50149W        W16580  42.507  35.696  13.373
50150W        W16581   9.054   0.907   3.797
50151W        W16582  19.570  10.291   4.520
50152W        W16583  38.850  19.698   3.090
50153W        W16584  28.562  38.430   4.073
50154W        W16585  24.112  17.264  13.612
50155W        W16586  20.753  11.814   3.245
50156W        W16587  23.172  12.648   0.018
50157W        W16588   9.237   0.048   3.324
50158W        W16589  13.739  21.920  14.937
50159W        W16590  16.773  15.773  13.810
50160W        W16591  26.219  40.401   1.816
50161W        W16592   3.895  37.634  11.248
50162W        W16593  10.655  21.003  11.245
50163W        W16594  18.576  41.626   3.150
50164W        W16595   4.413  18.803  10.981
50165W        W16596   6.822  26.298  11.227
50166W        W16597  32.495  37.064  14.160
50167W        W16598  17.980   3.969  12.902
50168W        W16599  15.861  42.591  11.632
50169W        W16600   6.764  25.561  11.936
50170W        W16601  21.313  23.642  13.254
50171W        W16602   6.617  19.748   0.300
50172W        W16603  37.131   9.764   1.075
50173W        W16604  29.575  21.689   3.698
50174W        W16605   4.846  22.538   3.799
50175W        W16606  15.504  29.077  12.310
50176W        W16607  35.392  15.123   3.862
50177W        W16608  40.546  27.480   3.304
50178W        W16609  12.894  32.062   0.453
50179W        W16610   7.332  25.017   1.784
50180W        W16611  35.729   6.950  14.953
50181W        W16612  19.529  35.865   0.185
50182W        W16613  43.439  21.746  13.786
50183W        W16614   0.363  15.658  12.918
50184W        W16615   2.678  33.180  11.511
50185W        W16616  35.556  26.701  14.404
50186W        W16617  19.507  35.307   0.879
50187W        W16618   1.976  28.862   2.207
50188W        W16619  34.700  34.493  11.848
50189W        W16620  15.149  25.812  13.529
50190W        W16621  35.052  33.818  11.548
50191W        W16622  42.115  42.400  12.106
50192W        W16623  40.643  35.524   4.545
50193W        W16624  44.426  27.774   1.210
50194W        W16625   4.923  34.934  13.383
50195W        W16626  12.808  37.337   4.692
50196W        W16627  35.616   7.431  14.340
50197W        W16628  22.123  26.203   1.427
50198W        W16629  38.379  14.210   3.193
50199W        W16630  29.059  30.212   0.578
50200W        W16631  11.132  17.118  14.419
50201W        W16632  25.428   2.387  14.000
50202W        W16633   3.013   8.265  11.111
50203W        W16634   9.320  16.735  14.324
50204W        W16635  43.777  10.019  14.020
50205W        W16636  14.051  12.743  10.711
50206W        W16637  43.794  11.050  13.826
50207W        W16638  40.872  25.748  13.063
50208W        W16639  41.432  31.561   3.972
50209W        W16640  44.674  38.536   0.709
50210W        W16641  20.104  21.274  12.884
50211W        W16642  23.307  12.135   3.573
50212W        W16643   2.003  11.604  13.547
50213W        W16644  24.156  11.537   0.452
50214W        W16645  16.044  19.474  10.222
50215W        W16646   8.200   3.794  12.631
50216W        W16647  25.178  22.894  11.901
50217W        W16648  14.746   9.198   0.971
50218W        W16649  24.251  20.239   4.436
50219W        W16650  12.622  19.447   3.951
50220W        W16651   6.606  36.888  12.115
50221W        W16652  36.774  10.728  10.431
50222W        W16653   4.634  40.004   2.664
50223W        W16654  23.120   3.214  14.442
50224W        W16655   3.167  29.627   4.633
50225W        W16656  14.394  37.319   1.435
50226W        W16657  43.794  25.559  13.105
50227W        W16658  26.160   4.950  14.461
50228W        W16659   7.917   9.539   4.964
50229W        W16660  24.632  23.832   4.035
50230W        W16661  42.746  39.581  13.410
50231W        W16662   4.840  23.001  12.649
50232W        W16663   4.016  18.712   4.637
50233W        W16664  20.218  27.076   3.381
50234W        W16665  36.587   5.387   0.448
50235W        W16666  44.358  12.599  12.473
50236W        W16667   2.200  13.695  13.398
50237W        W16668   9.078  37.338   4.641
50238W        W16669  36.797  10.113  14.338
50239W        W16670  31.553  37.641  13.811
50240W        W16671   4.389  21.255   0.944
50241W        W16672  23.342  18.068  13.633
50242W        W16673  31.102   2.200  12.624
50243W        W16674  23.240  31.055   1.312
50244W        W16675  41.132  20.079   4.667
50245W        W16676   2.544  14.428  13.771
50246W        W16677  21.597  33.296   1.433
50247W        W16678  37.955  35.622  10.708
50248W        W16679  39.424  18.706  11.014
50249W        W16680  30.393  37.300  13.591
50250W        W16681   9.887   2.245  13.964
50251W        W16682  14.693  37.266   1.010
50252W        W16683  38.040  19.805  14.061
50253W        W16684  20.036  33.803  11.665
50254W        W16685  25.906  37.041   1.759
50255W        W16686  12.774   8.721  14.391
50256W        W16687  44.671   7.658  14.178
50257W        W16688  44.406  32.853  14.339
50258W        W16689   3.179  16.426  13.970
50259W        W16690  14.249  30.120   3.772
50260W        W16691  11.552  34.473   1.776
50261W        W16692  13.192  42.937  12.006
50262W        W16693  12.738  18.373  11.130
50263W        W16694  13.849  21.598  14.525
50264W        W16695  25.776  12.899  11.969
50265W        W16696  29.694   1.861  14.417
50266W        W16697  18.476  26.326  14.470
50267W        W16698  34.135  34.807  13.922
50268W        W16699  15.219   1.440   0.069
50269W        W16700   4.315   6.730  10.597
50270W        W16701   8.076  15.066  11.957
50271W        W16702  20.135  39.342   0.442
50272W        W16703  24.371  12.654   1.265
50273W        W16704  37.863  28.097   3.398
50274W        W16705  41.696   9.467   2.922
50275W        W16706  12.206  27.697   2.782
50276W        W16707  31.571  35.021  14.716
50277W        W16708  42.386   2.949   1.370
50278W        W16709  44.312   7.261   3.444
50279W        W16710  40.180  23.523  14.905
50280W        W16711   4.378  29.101   2.758
50281W        W16712   7.716  21.402   1.304
50282W        W16713  13.791  41.654   4.127
50283W        W16714  28.164  32.489  14.799
50284W        W16715  11.703  30.324   1.831
50285W        W16716  12.307  27.224  10.809
50286W        W16717  23.560  24.828   4.603
50287W        W16718  33.528  44.667   1.835
50288W        W16719  41.888  33.232  11.625
50289W        W16720  43.574  25.433   0.794
50290W        W16721   0.382   2.091  11.444
50291W        W16722  39.349  30.997   2.272
50292W        W16723  34.832   3.274   1.342
50293W        W16724   0.537  27.408  12.804
50294W        W16725  19.544  10.767   0.401
50295W        W16726  10.557   2.437   3.155
50296W        W16727  15.420  44.504   0.350
50297W        W16728  27.927  32.923  12.435
50298W        W16729  23.220  22.889   3.303
50299W        W16730   2.192  18.212  12.186
50300W        W16731   0.878  31.841  13.845
50301W        W16732  23.685  26.534  12.943
50302W        W16733  33.580  19.555   4.944
50303W        W16734  25.519  29.567  14.128
50304W        W16735   3.152  20.243   2.359
50305W        W16736  18.891  31.490  14.525
50306W        W16737  27.049  27.969   1.688
50307W        W16738  20.634  41.005  12.402
50308W        W16739  42.808  28.116   3.159
50309W        W16740   1.950  20.755  13.674
50310W        W16741   9.782  38.884  11.285
50311W        W16742  13.651   2.366  14.817
50312W        W16743  31.693   6.424  11.575
50313W        W16744   1.563  26.721   3.268
50314W        W16745  29.513  43.290   3.164
50315W        W16746  27.686  27.100   1.712
50316W        W16747  28.137   8.954  11.065
50317W        W16748  33.827  32.856  14.627
50318W        W16749  21.045  11.812   0.608
50319W        W16750   9.501  31.605   0.414
50320W        W16751  22.552  32.856  12.117
50321W        W16752  33.343  35.572   2.318
50322W        W16753   1.772   3.895  13.653
50323W        W16754  33.979  19.716  13.073
50324W        W16755   8.371   3.489  12.198
50325W        W16756  23.470  12.878   4.507
50326W        W16757  42.075  15.523   3.545
50327W        W16758   4.914  13.851   0.996
50328W        W16759  21.106  35.382  11.491
50329W        W16760  42.854  29.459   4.694
50330W        W16761  31.480   6.194  12.005
50331W        W16762   7.802  24.130  12.446
50332W        W16763   3.346  16.742   2.275
50333W        W16764   2.545  23.557  12.555
50334W        W16765  40.437  13.371  12.937
50335W        W16766  18.123   5.186   1.233
50336W        W16767  41.059  13.980   3.812
50337W        W16768  25.037  27.036  14.952
50338W        W16769   9.630  24.137  13.518
50339W        W16770   6.830   6.425   1.658
50340W        W16771  15.062  21.469  13.399
50341W        W16772  12.879  11.648  10.636
50342W        W16773  11.272  27.768  11.348
50343W        W16774   3.975   3.270  14.218
50344W        W16775   2.496  41.735  11.481
50345W        W16776   2.442  28.354  10.516
50346W        W16777  37.135  41.374  14.800
50347W        W16778   8.440  29.003  11.113
50348W        W16779  10.330  26.165   2.339
50349W        W16780  17.125   3.521  12.649
50350W        W16781   5.874  12.779  12.092
50351W        W16782  24.402   6.360  11.191
50352W        W16783  30.234  40.779  11.049
50353W        W16784  20.164  16.874  11.992
50354W        W16785  44.261  42.766   3.415
50355W        W16786  29.146   9.266  10.545
50356W        W16787   8.164  27.780   0.783
50357W        W16788  34.336  28.991   0.754
50358W        W16789  34.497   8.886   2.101
50359W        W16790   1.373   7.449  12.465
50360W        W16791  13.465  15.620  13.972
50361W        W16792  27.638  32.861  10.571
50362W        W16793  41.024  28.689   0.483
50363W        W16794   2.162  39.938  11.135
50364W        W16795  44.294  30.532  13.939
50365W        W16796  35.339  44.145  11.191
50366W        W16797   2.760  16.128  14.846
50367W        W16798  11.109  18.785  13.995
50368W        W16799  20.673  37.337  13.521
50369W        W16800  15.083  27.972  11.580
50370W        W16801  39.070   7.897  13.321
50371W        W16802  21.438   1.708   2.322
50372W        W16803  22.560  28.554  14.802
50373W        W16804  43.307   9.465  12.035
50374W        W16805  37.270  25.276  14.827
50375W        W16806   3.892  41.995   1.795
50376W        W16807  22.603  25.614  14.380
50377W        W16808  16.345  29.518  14.906
50378W        W16809  30.851  21.271   1.918
50379W        W16810  29.146  11.651  14.463
50380W        W16811  30.365  22.145   3.111
50381W        W16812   1.920  20.861  11.658
50382W        W16813  22.822  40.949   0.984
50383W        W16814  23.890   2.274  12.934
50384W        W16815  39.084  20.842   2.334
50385W        W16816  26.740   1.052   3.185
50386W        W16817  20.405   9.282  11.838
50387W        W16818  18.833  31.071   2.694
50388W        W16819  40.558  36.688  10.800
50389W        W16820  25.884  42.047  14.791
50390W        W16821  23.500   0.851  10.654
50391W        W16822  39.423  13.100  12.548
50392W        W16823  26.564  22.140   2.222
50393W        W16824  42.733   9.420   1.194
50394W        W16825   8.242  17.869  14.441
50395W        W16826  29.439  41.523   4.475
50396W        W16827  40.416  14.285   5.035
50397W        W16828  34.150   5.794  13.945
50398W        W16829  27.648  22.404   0.249
50399W        W16830   3.930  19.627   1.665
50400W        W16831  33.424  28.457   3.765
50401W        W16832  19.938   7.222   3.266
50402W        W16833   7.635  11.194   3.687
50403W        W16834   4.925  32.415   2.730
50404W        W16835  36.754  35.848   1.941
50405W        W16836  12.287  38.056   4.130
50406W        W16837   4.635  25.904   1.873
50407W        W16838   5.061  16.072  11.517
50408W        W16839   2.808  27.782   2.000
50409W        W16840  38.365  11.371  12.550
50410W        W16841   8.335  37.399   0.903
50411W        W16842  21.654   4.075  11.757
50412W        W16843  33.126   4.938  13.824
50413W        W16844  32.881  17.392   0.234
50414W        W16845  31.528  32.159   3.656
50415W        W16846  23.913  28.323  10.751
50416W        W16847  16.160  33.149  12.085
50417W        W16848  38.285  34.201  13.278
50418W        W16849   2.169  17.238   4.139
50419W        W16850   0.272   6.110  12.948
50420W        W16851  22.294   6.955  12.450
50421W        W16852  39.427  11.673  11.372
50422W        W16853  20.092  44.980  11.895
50423W        W16854   3.935  25.390  10.670
50424W        W16855  44.457  17.019   4.259
50425W        W16856  15.565  16.143  13.845
50426W        W16857  30.659  23.752  13.817
50427W        W16858  31.439  30.271  10.604
50428W        W16859  17.810  29.848   3.460
50429W        W16860  44.869  27.028   3.313
50430W        W16861  24.443  37.092  14.811
50431W        W16862  37.384  14.761   3.108
50432W        W16863  26.498  14.977   0.418
50433W        W16864   5.400  12.120   1.284
50434W        W16865  44.912  37.177  12.411
50435W        W16866  30.559  14.038  14.321
50436W        W16867  37.342  32.432   4.135
50437W        W16868   2.154   6.241  12.539
50438W        W16869  13.573   0.760   0.203
50439W        W16870   3.227  13.358   3.222
50440W        W16871  38.802  11.666   0.912
50441W        W16872  42.378   7.885  11.789
50442W        W16873  10.908  27.008  11.600
50443W        W16874  29.431   3.477   2.679
50444W        W16875  32.228  25.947   1.486
50445W        W16876  32.619   1.798   1.690
50446W        W16877   0.899  21.435  12.415
50447W        W16878  30.048  18.098  14.007
50448W        W16879  44.819  43.424   1.392
50449W        W16880  10.728  10.367  10.675
50450W        W16881  43.420  13.264   4.177
50451W        W16882  34.090   4.754   4.092
50452W        W16883  19.206  10.262   0.683
50453W        W16884   0.706  38.247   1.679
50454W        W16885  37.485   1.653   1.411
50455W        W16886  38.547  33.324  11.551
50456W        W16887   9.804  26.701   1.812
50457W        W16888  40.248  22.901   1.133
50458W        W16889  14.465  23.481  12.224
50459W        W16890  43.064  30.221   0.215
50460W        W16891  30.755   0.763  12.823
50461W        W16892  31.632  23.313  14.422
50462W        W16893   2.550  11.541   5.169
50463W        W16894  13.170  29.256  10.964
50464W        W16895   4.709   5.854  13.487
50465W        W16896  13.528  32.113  11.984
50466W        W16897  28.719  14.004   1.225
50467W        W16898   2.304  16.065  12.535
50468W        W16899   2.741  38.873  11.220
50469W        W16900   9.081  31.786   2.453
50470W        W16901  18.320  21.154   3.161
50471W        W16902   1.763   5.308  11.043
50472W        W16903   0.528  19.151   0.076
50473W        W16904  16.478  17.412  12.482
50474W        W16905   7.245  38.524  11.390
50475W        W16906   5.152  14.430  12.000
50476W        W16907  18.109  10.042   0.718
50477W        W16908  21.469  30.004   5.471
50478W        W16909  22.559   7.424   0.775
50479W        W16910  23.108  43.960   3.836
50480W        W16911   0.814  36.094  13.878
50481W        W16912  28.447  40.467   1.017
50482W        W16913  27.656  25.354  10.921
50483W        W16914  33.419  41.164  13.446
50484W        W16915  41.389  14.148  12.431
50485W        W16916  21.019  17.532  12.865
50486W        W16917  19.667  22.657  11.676
50487W        W16918  27.067  18.535  13.407
50488W        W16919  37.820   3.354  13.577
50489W        W16920  34.400  25.234   3.840
50490W        W16921   2.465  15.617  11.536
50491W        W16922  43.495  27.686  12.933
50492W        W16923  32.117  21.067   0.826
50493W        W16924   3.033   3.510   1.264
50494W        W16925  12.298   0.901  11.283
50495W        W16926   6.950  33.931  11.709
50496W        W16927  32.409  18.765  11.390
50497W        W16928  33.588  35.592   0.245
50498W        W16929  21.515  14.683   1.447
50499W        W16930  13.798  33.384  10.614
50500W        W16931  42.794  29.431  12.937
50501W        W16932  15.366  21.292  10.126
50502W        W16933  34.550  23.201   0.303
50503W        W16934  10.828  22.960   1.696
50504W        W16935  22.808  42.693   2.775
50505W        W16936  42.418  24.059   3.355
50506W        W16937  43.072   9.302  12.956
50507W        W16938  37.977  18.590   2.735
50508W        W16939   5.532  44.044   1.479
50509W        W16940   8.878  37.426  14.117
50510W        W16941   6.788   1.525   2.884
50511W        W16942  27.948  31.049  10.730
50512W        W16943  14.096   9.649  11.908
50513W        W16944  25.940   0.359  10.898
50514W        W16945  12.675  16.079   3.442
50515W        W16946   8.602   7.171   1.467
50516W        W16947   9.725  40.421   2.773
50517W        W16948  35.324  38.535  13.497
50518W        W16949  43.493  40.415   4.688
50519W        W16950   2.051   0.189  10.838
50520W        W16951   6.954  14.029  11.942
50521W        W16952  13.393  37.671   0.412
50522W        W16953  44.896  43.193   1.848
50523W        W16954  21.733  28.691   1.430
50524W        W16955   7.744  29.905  13.057
50525W        W16956  44.842  20.683  10.744
50526W        W16957  12.016   1.125   2.804
50527W        W16958   4.311   3.589  14.453
50528W        W16959   9.177  32.074  11.515
50529W        W16960  15.262  38.793  10.343
50530W        W16961  39.922  13.928   1.352
50531W        W16962  20.661  35.902  12.972
50532W        W16963  19.039  15.761  11.408
50533W        W16964  29.447  31.277  11.124
50534W        W16965  24.540   7.150   3.622
50535W        W16966  36.869  26.802   1.651
50536W        W16967   2.343   9.908   4.549
50537W        W16968  25.969  17.769  12.423
50538W        W16969  34.989  22.056   4.585
50539W        W16970   7.973  18.285   0.292
50540W        W16971  11.788   6.223  13.130
50541W        W16972  42.413   9.852   4.284
50542W        W16973  41.408  13.458  11.870
50543W        W16974   1.719  19.251   4.349
50544W        W16975  12.055   1.755   0.257
50545W        W16976   4.705   6.502   2.600
50546W        W16977   3.753  40.574   2.729
50547W        W16978  10.222  11.136   2.084
50548W        W16979   7.193  35.045   2.766
50549W        W16980  42.817  41.351   1.334
50550W        W16981  15.654  26.467  14.276
50551W        W16982  24.800  34.340  12.604
50552W        W16983  27.489  41.970   0.002
50553W        W16984  34.782   3.397  12.551
50554W        W16985  26.115   9.361  11.412
50555W        W16986  20.243   7.735   1.291
50556W        W16987  31.588  35.704   4.527
50557W        W16988   3.417  25.376   3.275
50558W        W16989  44.047  33.108   3.441
50559W        W16990   5.413  25.991   1.212
50560W        W16991  30.506   6.233  13.969
50561W        W16992  18.720  12.789   3.707
50562W        W16993  27.409   3.206   2.115
50563W        W16994  24.975  20.235   1.663
50564W        W16995  24.234  40.108   2.340
50565W        W16996  28.490  21.800   2.839
50566W        W16997   2.750   6.763   0.813
50567W        W16998   1.698  26.239   3.100
50568W        W16999   6.340  37.410  13.986
50569W        W17000  16.390  32.032   0.459
50570W        W17001  39.243  24.695   0.219
50571W        W17002  17.299  40.690  11.973
50572W        W17003   2.729  25.309  12.023
50573W        W17004   7.700  35.378   0.338
50574W        W17005  33.858  34.019  10.426
50575W        W17006  23.121  15.311   0.429
50576W        W17007  40.290   1.497  12.103
50577W        W17008  29.033  24.190   2.009
50578W        W17009   8.839   5.621   2.368
50579W        W17010  31.528   5.222   9.844
50580W        W17011  15.318  29.168   5.053
50581W        W17012   2.845  10.333  12.335
50582W        W17013  40.350  39.810   3.790
50583W        W17014  16.984   3.689   2.321
50584W        W17015  23.071  21.219  12.086
50585W        W17016   3.787  26.486   2.788
50586W        W17017   2.295  11.794   0.469
50587W        W17018  20.658  23.699  10.642
50588W        W17019  34.431  32.199  10.396
50589W        W17020   5.017  15.498  12.690
50590W        W17021  24.670  31.901   1.990
50591W        W17022  11.685  39.496  14.966
50592W        W17023  19.256  10.238  10.467
50593W        W17024  40.539  43.819  10.728
50594W        W17025   5.249  33.587   2.277
50595W        W17026  31.302  16.090  12.038
50596W        W17027  36.806  32.372  13.830
50597W        W17028  23.624  26.696  10.461
50598W        W17029  19.259  14.062   2.740
50599W        W17030   3.014  14.552  13.953
50600W        W17031   7.902  19.451   1.889
50601W        W17032  34.900  22.232  13.366
50602W        W17033  32.492   1.476   4.291
50603W        W17034  18.117  38.133  10.575
50604W        W17035  39.090   3.483   4.079
50605W        W17036  27.426   1.811   4.469
50606W        W17037   4.446  43.150   1.243
50607W        W17038   9.942  28.481  11.464
50608W        W17039  22.527  13.143  11.610
50609W        W17040   5.399  28.702  12.438
50610W        W17041  19.858  32.863  11.120
50611W        W17042  33.416  24.227   2.608
50612W        W17043  34.523  33.578  13.475
50613W        W17044  43.122  34.961   2.927
50614W        W17045  35.962  26.870   0.711
50615W        W17046  11.891  10.648  14.786
50616W        W17047  38.960   1.535  14.960
50617W        W17048  24.918   3.656  14.420
50618W        W17049  10.171  27.946  14.947
50619W        W17050  11.883  11.284  14.274
50620W        W17051   7.345   2.839  10.764
50621W        W17052  29.502   6.398   1.910
50622W        W17053  19.176  44.747   4.006
50623W        W17054  35.422  22.923   4.763
50624W        W17055  31.595  38.416  14.477
50625W        W17056  24.324  34.278  12.388
50626W        W17057  23.967  41.985   3.104
50627W        W17058  18.041  36.013   2.870
50628W        W17059  21.177  19.513   1.180
50629W        W17060   9.142  11.108  12.292
50630W        W17061   1.564  44.971   3.203
50631W        W17062  14.786  38.998  10.472
50632W        W17063  12.781  14.046   1.926
50633W        W17064   7.408  11.693  12.195
50634W        W17065   9.162  16.268   5.428
50635W        W17066  38.840  12.257   0.236
50636W        W17067  33.896   7.655   3.090
50637W        W17068  23.635  32.929   0.228
50638W        W17069  19.379  38.207  11.656
50639W        W17070   3.505   4.514   0.424
50640W        W17071  29.788  24.865   4.179
50641W        W17072  24.050  33.873  14.069
50642W        W17073  41.272  27.573   4.039
50643W        W17074  24.690  37.820  12.636
50644W        W17075  14.533  14.054   3.709
50645W        W17076   9.140   3.813  10.692
50646W        W17077  43.881   8.204  13.395
50647W        W17078   1.847  32.317  13.741
50648W        W17079   7.591  16.622  13.786
50649W        W17080  19.726  34.381   1.262
50650W        W17081  37.313  16.938   9.920
50651W        W17082  32.940  12.317  11.190
50652W        W17083  15.484  29.265   2.611
50653W        W17084  40.193   2.216  13.086
50654W        W17085   1.815  30.505  12.400
50655W        W17086  12.314  36.740   1.166
50656W        W17087  18.073  22.195  12.883
50657W        W17088  25.515  42.238   2.233
50658W        W17089   4.244  41.566  14.378
50659W        W17090  25.487   1.379  14.879
50660W        W17091  22.288  22.169   4.683
50661W        W17092  33.418  36.740  12.431
50662W        W17093  37.483   3.452  11.128
50663W        W17094  44.962  23.157  13.876
50664W        W17095  34.802  30.118  11.158
50665W        W17096  35.014  23.683  14.969
50666W        W17097  40.912  38.568  12.238
50667W        W17098  31.214   2.924  14.205
50668W        W17099  41.060  13.848   2.508
50669W        W17100  38.047  36.060  14.081
50670W        W17101  42.939  24.244   4.753
50671W        W17102  14.025  35.126   4.296
50672W        W17103  16.598  35.983   1.131
50673W        W17104   0.321   8.686   1.576
50674W        W17105  28.305  41.397  11.936
50675W        W17106   0.842  14.079  12.462
50676W        W17107  20.163   1.314  12.186
50677W        W17108  43.377  24.170   4.493
50678W        W17109  24.338  19.432  11.958
50679W        W17110  26.985  43.454   3.650
50680W        W17111   4.206  40.140  12.116
50681W        W17112  20.839  37.213   4.778
50682W        W17113  30.478  31.069   4.669
50683W        W17114  36.030   4.434   3.260
50684W        W17115  36.231  28.504   2.377
50685W        W17116   1.298  33.975   4.013
50686W        W17117  35.615  42.036   4.520
50687W        W17118  11.922   6.457  11.086
50688W        W17119  22.892  44.718   1.636
50689W        W17120  11.428  13.280   3.653
50690W        W17121  32.975  40.362   4.510
50691W        W17122  33.107  10.599  13.050
50692W        W17123  34.592  40.338   1.387
50693W        W17124  11.375  29.103  13.367
50694W        W17125   7.438  10.147  11.226
50695W        W17126   9.566   2.257  12.438
50696W        W17127  38.212  25.490  10.949
50697W        W17128  18.594   0.364   1.824
50698W        W17129  29.336  31.162   1.614
50699W        W17130  14.752  12.803  11.222
50700W        W17131  37.594   3.911  14.616
50701W        W17132  24.153  39.801   4.521
50702W        W17133   2.692  24.340   2.887
50703W        W17134  18.321  21.679   1.767
50704W        W17135  37.397  28.875  11.590
50705W        W17136   8.353  19.202   1.152
50706W        W17137   1.690  40.920   3.141
50707W        W17138  13.947  20.568   0.567
50708W        W17139   5.653  17.020   0.336
50709W        W17140  36.851   9.389   3.678
50710W        W17141  32.431  37.889   4.042
50711W        W17142  33.053  38.239   3.655
50712W        W17143  36.604  37.553  13.561
50713W        W17144   9.196  24.725   1.651
50714W        W17145  26.097  44.495  11.995
50715W        W17146  20.232   7.418   3.706
50716W        W17147  32.622   6.044  11.604
50717W        W17148   7.413  33.362   4.609
50718W        W17149  14.028   8.014   3.390
50719W        W17150   5.239  28.466   1.982
50720W        W17151  21.694   6.700  10.845
50721W        W17152   4.670  13.141  10.992
50722W        W17153  12.798   2.602   2.427
50723W        W17154  19.318  25.218   0.294
50724W        W17155   3.605   7.439   3.620
50725W        W17156  15.044  36.523   1.958
50726W        W17157  43.890   3.456  12.868
50727W        W17158  12.768  12.411   2.919
50728W        W17159  15.767  42.549  13.903
50729W        W17160  21.550  13.849   1.315
50730W        W17161  32.440  30.616   3.106
50731W        W17162  14.181  18.034   3.243
50732W        W17163  12.404  31.900  14.752
50733W        W17164  17.720  36.027  13.378
50734W        W17165  33.021   6.275   2.641
50735W        W17166  12.299  12.078   3.601
50736W        W17167  22.520  33.433  13.444
50737W        W17168  32.391  37.304   2.191
50738W        W17169  19.963  29.613  13.775
50739W        W17170  33.929  39.960  14.483
50740W        W17171  21.121  41.248   0.095
50741W        W17172  41.744  29.364  10.748
50742W        W17173  10.101  24.596   4.698
50743W        W17174  21.251  36.139  11.639
50744W        W17175  25.443  32.928   3.528
50745W        W17176  26.236  31.054  11.038
50746W        W17177   9.224  43.967  11.406
50747W        W17178  14.909  39.272  14.923
50748W        W17179   1.376  20.211  12.776
50749W        W17180  39.321   5.894   0.727
50750W        W17181   0.238  44.672   3.599
50751W        W17182  17.850  25.691  14.247
50752W        W17183  36.862   8.701   2.839
50753W        W17184  17.285   1.021   2.758
50754W        W17185   0.935  38.998  13.841
50755W        W17186   8.447  44.456  14.301
50756W        W17187  20.323  29.932   4.462
50757W        W17188  33.978  17.774  13.410
50758W        W17189  18.097  25.022  12.881
50759W        W17190  21.961  29.957   3.744
50760W        W17191  27.930   5.212  12.870
50761W        W17192   9.676   3.681  13.001
50762W        W17193  18.510   1.825   4.573
50763W        W17194  21.300  39.752  12.399
50764W        W17195  31.915  43.334  13.842
50765W        W17196  44.962  39.610   3.212
50766W        W17197  11.255  35.276  10.741
50767W        W17198  16.798   5.453  12.915
50768W        W17199  26.033  15.519   4.953
50769W        W17200  39.038  11.541   3.660
50770W        W17201  37.391  24.174   2.233
50771W        W17202   1.505  14.732  11.630
50772W        W17203  11.018   5.669  12.992
50773W        W17204  30.942  44.903  11.498
50774W        W17205  37.321  11.783   9.382
50775W        W17206  13.924  20.272   3.280
50776W        W17207  15.865  40.550   1.719
50777W        W17208  14.523  36.299  13.710
50778W        W17209  33.122  30.788   2.198
50779W        W17210   7.665  29.528   0.123
50780W        W17211  34.934   4.950  12.265
50781W        W17212  25.926  30.168  13.593
50782W        W17213   2.993  35.487  12.153
50783W        W17214   0.611  33.968   2.724
50784W        W17215  41.492  25.173  12.152
50785W        W17216  14.645  21.830   3.100
50786W        W17217   6.700  22.146  12.982
50787W        W17218  30.750  29.774   0.249
50788W        W17219  42.303  21.651  12.814
50789W        W17220   7.587  25.208   9.910
50790W        W17221   5.437  21.682  14.319
50791W        W17222  19.851   0.677   3.260
50792W        W17223  13.185  33.710  11.070
50793W        W17224  39.520   9.543  13.816
50794W        W17225  18.228  17.141  11.528
50795W        W17226   5.998   1.333   2.642
50796W        W17227  33.763  13.116   3.741
50797W        W17228  38.881   7.041  10.064
50798W        W17229   2.328  17.778  13.978
50799W        W17230  34.153  17.894   2.650
50800W        W17231  41.591  38.012  14.611
50801W        W17232  36.413  24.785  10.774
50802W        W17233  27.902  13.797   1.196
50803W        W17234  40.780  32.239   0.744
50804W        W17235  31.884   1.277   3.040
50805W        W17236  16.371   9.127   4.682
50806W        W17237  43.352   0.294   2.367
50807W        W17238  11.140  34.303  11.109
50808W        W17239  29.897  33.463  14.238
50809W        W17240  23.503  32.277   2.183
50810W        W17241   4.680  24.493   0.893
50811W        W17242  33.352  33.194  11.734
50812W        W17243  23.535  13.577   1.265
50813W        W17244  12.333  14.626  11.167
50814W        W17245  41.742  17.290   2.208
50815W        W17246  37.396   8.820  12.925
50816W        W17247   9.663  34.506   3.230
50817W        W17248   8.273  28.974   4.565
50818W        W17249  28.434  25.706  10.766
50819W        W17250   3.237  39.849  11.984
50820W        W17251  16.490  11.616   5.040
50821W        W17252  13.632  31.650   3.954
50822W        W17253  37.803  31.065  13.001
50823W        W17254  30.895  23.916  14.349
50824W        W17255  43.732  10.672   1.418
50825W        W17256  10.672   8.830  10.962
50826W        W17257  22.136  11.813   4.527
50827W        W17258  30.155  29.018   0.405
50828W        W17259   5.688  37.480   4.822
50829W        W17260  12.489   1.687  12.866
50830W        W17261  30.187  41.519  14.481
50831W        W17262  20.691  37.154   4.271
50832W        W17263  43.831   4.298  14.956
50833W        W17264  18.600  37.103   0.798
50834W        W17265  34.807   1.733   1.818
50835W        W17266  15.576  40.298  13.477
50836W        W17267  22.536  25.021   0.607
50837W        W17268  21.141  10.873  13.860
50838W        W17269  19.537  13.779   1.393
50839W        W17270  21.087  11.379  12.082
50840W        W17271  14.802  43.718   3.409
50841W        W17272  44.915   0.931   1.262
50842W        W17273  40.779  12.232   2.955
50843W        W17274  11.670  17.066  13.357
50844W        W17275  24.570   2.481   2.412
50845W        W17276  29.573  44.802  14.549
50846W        W17277  37.895  42.002   2.036
50847W        W17278  40.346  15.675  11.941
50848W        W17279   2.685  30.981   4.083
50849W        W17280  23.742  37.517   0.824
50850W        W17281  18.298  24.519   3.399
50851W        W17282  14.781  23.490  11.823
50852W        W17283   9.949  30.034  13.868
50853W        W17284  31.155  30.395  13.300
50854W        W17285   4.620  23.612   4.613
50855W        W17286  41.051  16.045  14.693
50856W        W17287  18.254  43.230  13.104
50857W        W17288   6.839  12.798   4.743
50858W        W17289  26.972  31.741  10.705
50859W        W17290  29.201  18.274  10.726
50860W        W17291  33.611   7.913   1.781
50861W        W17292  24.299  18.210  14.435
50862W        W17293  22.440  21.595  13.282
50863W        W17294  22.752  11.428   4.501
50864W        W17295   6.770  27.968  14.853
50865W        W17296  16.591  26.560  11.847
50866W        W17297   2.742  23.709  13.015
50867W        W17298  28.979   7.457   1.093
50868W        W17299  16.104  12.652   1.767
50869W        W17300  13.061   9.811   1.737
50870W        W17301  41.493  22.274  14.445
50871W        W17302  30.421   6.430   2.787
50872W        W17303   2.366   8.734   2.656
50873W        W17304  17.118  16.065  12.589
50874W        W17305  19.307   5.675  13.364
50875W        W17306  18.655  16.132   2.243
50876W        W17307  14.949   8.797   4.934
50877W        W17308  39.411  13.077   0.029
50878W        W17309  29.592  23.349  10.443
50879W        W17310  29.675  19.586   2.369
50880W        W17311  44.442  34.070   2.918
50881W        W17312  18.143   7.861   0.418
50882W        W17313  40.935  13.874  12.560
50883W        W17314   2.886  20.035   1.156
50884W        W17315  35.587   3.781  12.469
50885W        W17316  27.351   1.792   3.153
50886W        W17317  35.473   4.034  11.616
50887W        W17318  24.727  20.164   3.679
50888W        W17319  43.902  18.814  10.649
50889W        W17320   0.881  30.875  13.520
50890W        W17321  18.699   6.753  13.568
50891W        W17322  12.829  24.605  12.578
50892W        W17323  10.204  10.402   1.155
50893W        W17324  34.553   4.700   3.801
50894W        W17325  17.997  23.139  12.642
50895W        W17326  34.582  21.585  10.617
50896W        W17327  14.025  19.103  10.681
50897W        W17328  19.074  26.183   3.813
50898W        W17329  26.436   4.195  13.851
50899W        W17330  24.570   7.662   2.279
50900W        W17331  13.152  35.040  14.077
50901W        W17332  13.485  10.016   1.991
50902W        W17333  28.066  29.038  14.289
50903W        W17334  41.759  15.069  14.341
50904W        W17335   3.809  25.659  14.999
50905W        W17336  42.743   6.319  11.541
50906W        W17337  11.267   1.491   2.338
50907W        W17338   5.880   8.019   4.156
50908W        W17339  11.122  37.493   4.050
50909W        W17340   5.701  37.129   3.200
50910W        W17341  12.829  14.290   3.449
50911W        W17342  14.716  25.887   4.250
50912W        W17343  16.676  41.826  10.598
50913W        W17344  21.348  26.745  11.034
50914W        W17345  31.206  39.951   0.747
50915W        W17346  22.698  36.193  12.449
50916W        W17347  40.316  16.084  10.627
50917W        W17348  12.112  15.563  11.464
50918W        W17349  26.683  10.166   3.269
50919W        W17350  34.919  42.955   0.781
50920W        W17351  42.039  11.146  14.272
50921W        W17352   7.612  37.419   5.008
50922W        W17353  41.517  40.862  14.144
50923W        W17354   4.248  32.129  11.171
50924W        W17355  32.396  21.792  13.407
50925W        W17356  41.282  16.337  10.406
50926W        W17357  37.270  41.575   2.832
50927W        W17358  39.099   8.171   3.127
50928W        W17359   5.982  41.487  12.450
50929W        W17360  26.349  17.744   3.205
50930W        W17361  40.411   4.760  10.687
50931W        W17362  16.469  28.517   3.696
50932W        W17363   3.745  41.289   3.275
50933W        W17364  39.329  43.609  13.974
50934W        W17365   9.265  23.886  12.065
50935W        W17366   1.373  10.062   0.328
50936W        W17367   8.103  27.387  11.318
50937W        W17368  25.854  29.424  14.505
50938W        W17369   1.158  19.794  14.038
50939W        W17370  27.889  31.962  10.408
50940W        W17371  40.469  19.117   1.223
50941W        W17372  27.146  13.767   4.466
50942W        W17373   7.954   3.736  12.037
50943W        W17374  30.814  13.037  14.989
50944W        W17375  35.682   4.656  14.045
50945W        W17376  33.826  35.948   3.968
50946W        W17377  31.404   0.533   0.218
50947W        W17378  15.069  12.842   0.337
50948W        W17379  10.199  12.796   3.785
50949W        W17380  34.828   6.690   3.630
50950W        W17381  20.638  27.403  11.894
50951W        W17382  13.618   5.939  14.089
50952W        W17383  35.121  23.008   0.337
50953W        W17384   5.934  22.762   4.605
50954W        W17385  12.846  31.117   0.009
50955W        W17386  23.570  21.789   2.665
50956W        W17387  41.876  27.080   1.381
50957W        W17388  22.869  15.767  14.538
50958W        W17389  38.799  15.205   1.922
50959W        W17390  11.858  20.716  10.595
50960W        W17391  33.530  12.134  13.823
50961W        W17392  11.279  23.524  12.166
50962W        W17393  38.531   4.302  12.859
50963W        W17394   9.700  18.368   4.106
50964W        W17395  10.472  12.658  13.325
50965W        W17396  44.057  35.694   2.165
50966W        W17397  22.660  34.468  12.254
50967W        W17398  17.268  32.315   5.260
50968W        W17399  31.905   9.786  14.770
50969W        W17400  19.162  11.791  13.833
50970W        W17401  35.041  27.589  11.207
50971W        W17402  15.379  10.232  11.992
50972W        W17403  12.756  21.744  10.338
50973W        W17404  44.271   1.919  14.383
50974W        W17405  12.275  42.171  11.173
50975W        W17406  23.054   9.363  14.351
50976W        W17407  32.701  39.453   1.321
50977W        W17408  22.644  38.773   1.439
50978W        W17409  36.845  16.291   2.415
50979W        W17410  42.111  25.819   3.245
50980W        W17411   4.838  23.703  14.162
50981W        W17412  39.970  18.797   1.889
50982W        W17413  14.014   5.526   4.155
50983W        W17414   6.054  15.791   2.266
50984W        W17415  26.216  11.853   1.458
50985W        W17416   6.675  41.928  10.682
50986W        W17417  17.279  14.974   3.356
50987W        W17418  35.332  43.299   0.996
50988W        W17419  17.238  24.487  10.268
50989W        W17420   9.146  44.410  12.986
50990W        W17421  44.494  42.516   2.140
50991W        W17422  27.942   5.442  14.837
50992W        W17423  10.066   0.857   2.277
50993W        W17424  29.486  35.936   1.746
50994W        W17425  29.155   9.778   2.372
50995W        W17426  34.612   0.199   1.901
50996W        W17427   7.829  11.695  10.363
50997W        W17428   6.319   8.627  13.835
50998W        W17429  10.597  39.768   3.664
50999W        W17430  39.927  15.175   2.953
51000W        W17431   5.478  22.011   4.173
51001W        W17432  21.628   4.916  13.818
51002W        W17433  41.280   5.677   3.202
51003W        W17434   2.380  43.002  10.949
51004W        W17435  14.060  26.442   2.325
51005W        W17436   1.204   4.544  11.150
51006W        W17437  12.501  12.556  13.128
51007W        W17438  26.087  17.229  13.313
51008W        W17439  18.038  30.080  12.169
51009W        W17440   4.949  23.313  11.074
51010W        W17441  22.207   9.844   0.271
51011W        W17442  32.094  10.615  14.986
51012W        W17443  43.335  40.821   4.966
51013W        W17444   3.289  10.115   2.720
51014W        W17445  30.623  35.995   3.566
51015W        W17446  37.555  44.249  10.517
51016W        W17447  43.866   5.705   1.465
51017W        W17448  41.418  21.812  12.514
51018W        W17449   9.261   7.807  10.992
51019W        W17450  18.159   3.781   4.402
51020W        W17451  30.315  41.776  12.645
51021W        W17452  27.060  32.831  13.406
51022W        W17453  16.064  21.736  10.604
51023W        W17454  22.515  37.794  13.791
51024W        W17455   1.624  18.052   1.987
51025W        W17456  26.490   8.244   1.420
51026W        W17457  30.082   2.024  13.005
51027W        W17458  22.123  15.577  10.961
51028W        W17459   6.415  35.087   3.206
51029W        W17460   3.016  12.831   0.727
51030W        W17461  15.281  33.965   3.873
51031W        W17462   4.796  18.361   2.865
51032W        W17463  27.559   8.382  14.409
51033W        W17464  14.625  44.507   3.195
51034W        W17465   1.957  18.505  13.459
51035W        W17466   8.284   3.466  10.688
51036W        W17467  35.429  10.473  10.693
51037W        W17468  31.036   9.387   3.205
51038W        W17469   1.229   3.721   1.481
51039W        W17470   2.648  42.952   4.528
51040W        W17471   0.976   1.104  11.963
51041W        W17472  22.588  16.909   3.954
51042W        W17473  30.586  35.273  10.723
51043W        W17474  20.663  29.971  10.066
51044W        W17475  28.531  22.541  14.699
51045W        W17476  29.115  42.984  10.689
51046W        W17477  14.228  31.743   0.706
51047W        W17478   1.931  38.850  14.648
51048W        W17479  32.846  39.892   2.279
51049W        W17480  33.455  14.793  11.573
51050W        W17481  30.840  26.549   2.838
51051W        W17482  20.055  26.900   4.904
51052W        W17483  39.580  44.123  11.593
51053W        W17484  34.590  15.143   4.519
51054W        W17485  18.135  10.877  11.786
51055W        W17486  38.847   1.106   4.476
51056W        W17487  25.076   3.238  10.861
51057W        W17488  30.354  13.142  14.049
51058W        W17489  20.241  23.969  12.899
51059W        W17490  19.683   7.268  11.191
51060W        W17491  38.997  25.563   0.754
51061W        W17492  37.306  28.367  11.567
51062W        W17493  43.105  10.587   0.317
51063W        W17494  41.427  25.165   3.422
51064W        W17495   3.703  11.330   2.168
51065W        W17496  36.516  37.796   4.964
51066W        W17497  19.862  40.990   4.166
51067W        W17498   5.750  26.031  10.713
51068W        W17499  29.615  42.980  12.959
51069W        W17500   2.712   8.854  14.319
51070W        W17501  25.492  27.777   0.913
51071W        W17502  26.118  15.159   3.576
51072W        W17503  41.010  32.933  11.068
51073W        W17504  32.693  33.072   1.004
51074W        W17505  26.809  30.136   1.655
51075W        W17506  44.431   4.339   1.840
51076W        W17507  28.454  22.182   1.740
51077W        W17508  16.568  19.707   3.235
51078W        W17509  25.306  21.495  13.971
51079W        W17510  15.623  33.814  12.559
51080W        W17511  34.427  30.518  12.120
51081W        W17512   2.049  30.398   2.807
51082W        W17513  29.437   8.942  13.411
51083W        W17514  39.866   8.704   4.693
51084W        W17515  14.274  29.295  10.805
51085W        W17516  40.989  39.041   3.650
51086W        W17517  18.797  32.917  13.888
51087W        W17518  44.246  39.713   4.126
51088W        W17519   6.118  13.627  13.880
51089W        W17520   0.254  17.148   1.407
51090W        W17521  16.557  23.004   3.404
51091W        W17522  17.134  39.789   4.382
51092W        W17523  23.282  37.006  13.530
51093W        W17524   7.803  29.638   1.867
51094W        W17525  21.518  42.290   1.459
51095W        W17526   3.272   7.630   1.221
51096W        W17527  34.150  31.351  14.479
51097W        W17528   3.815  39.563  12.917
51098W        W17529   5.158  18.710   3.815
51099W        W17530  14.334   2.360   2.199
51100W        W17531  28.234   4.587  14.514
51101W        W17532  28.922  33.018  14.860
51102W        W17533  29.955  20.990   0.530
51103W        W17534  40.086   7.700   0.016
51104W        W17535  38.919  19.321  14.342
51105W        W17536   8.659  25.117  11.240
51106W        W17537  43.102  23.607   3.355
51107W        W17538  10.834  16.859   4.029
51108W        W17539  16.956  20.106  14.173
51109W        W17540  17.410  28.129  12.877
51110W        W17541  17.534  27.952  11.550
51111W        W17542   3.237  44.893  12.779
51112W        W17543  29.940   8.411  11.159
51113W        W17544  41.083   3.205   0.942
51114W        W17545  38.399   5.158  12.493
51115W        W17546  21.257  28.000  12.333
51116W        W17547  12.888   5.752  12.080
51117W        W17548  13.249   2.780   2.237
51118W        W17549  42.897  17.593   4.684
51119W        W17550   7.744  19.119  11.584
51120W        W17551  27.827  31.476   1.303
51121W        W17552  23.710  23.603  13.977
51122W        W17553  16.568  27.146  13.044
51123W        W17554  27.441  26.085  13.736
51124W        W17555  26.500  27.424   2.721
51125W        W17556  14.392  25.834  11.178
51126W        W17557  21.798  29.242   4.953
51127W        W17558  20.960   5.330  10.359
51128W        W17559  28.201  22.565  11.180
51129W        W17560   4.241  17.433  13.045
51130W        W17561  14.686   4.275  12.087
51131W        W17562  33.120   9.283   2.839
51132W        W17563  26.966  28.111   4.824
51133W        W17564  26.687  22.775   1.755
51134W        W17565   7.868  33.093   2.127
51135W        W17566  20.303  11.030   3.039
51136W        W17567  23.051  39.649   3.433
51137W        W17568  23.155   7.901   2.360
51138W        W17569  40.610  39.008   0.071
51139W        W17570  10.720   0.063   1.313
51140W        W17571   6.286  25.225  13.798
51141W        W17572  10.213   6.252   4.622
51142W        W17573  39.567  44.902   1.400
51143W        W17574   4.701   3.072  13.297
51144W        W17575  36.716  37.956   4.524
51145W        W17576  30.915  35.784  12.947
51146W        W17577  27.132   2.719  13.479
51147W        W17578  34.992  27.408   0.006
51148W        W17579  11.245  26.907   0.417
51149W        W17580  12.423  20.498   1.739
51150W        W17581  12.673   3.210   1.271
51151W        W17582  27.512  39.372   2.283
51152W        W17583  42.498  30.495  11.244
51153W        W17584   6.874  24.725   1.334
51154W        W17585   4.195  35.486   0.337
51155W        W17586   8.327   2.698   1.873
51156W        W17587  38.838  28.117   4.375
51157W        W17588  18.363  20.686  14.907
51158W        W17589  43.882  14.618   0.111
51159W        W17590  13.290  15.774  12.403
51160W        W17591  33.825  10.806  11.953
51161W        W17592  10.581   3.018  14.173
51162W        W17593  41.698   9.898   3.219
51163W        W17594  32.575  25.402  13.016
51164W        W17595  43.623   8.863  11.227
51165W        W17596  22.047  32.521  14.414
51166W        W17597   9.168  10.893  10.613
51167W        W17598  42.992  36.818  10.762
51168W        W17599   5.866  20.067   3.679
51169W        W17600   1.360  35.530  14.688
51170W        W17601  34.411  20.465   2.168
51171W        W17602  41.211   1.379  12.542
51172W        W17603   5.312  37.129   0.858
51173W        W17604   6.016  36.732   4.436
51174W        W17605  15.556   7.274   3.835
51175W        W17606  18.562  22.580  10.719
51176W        W17607  19.548  39.979   2.537
51177W        W17608  42.386  18.037  12.031
51178W        W17609  16.412  27.924   0.873
51179W        W17610  20.222  18.729   2.776
51180W        W17611  17.653  32.213   2.162
51181W        W17612   7.453   2.689   2.271
51182W        W17613  17.802  35.036   2.507
51183W        W17614  10.746  29.621   1.252
51184W        W17615  33.665  14.736  13.824
51185W        W17616  35.164  28.355  14.739
51186W        W17617  11.362  42.182  14.113
51187W        W17618  32.658  13.893  11.990
51188W        W17619  42.915  12.332  10.751
51189W        W17620  14.219   6.260  12.954
51190W        W17621  12.030   6.747  12.125
51191W        W17622  31.667   1.377   2.263
51192W        W17623   4.275  31.811   1.783
51193W        W17624  27.566  22.713  14.831
51194W        W17625  42.907  16.755  12.525
51195W        W17626  43.257  32.864  13.410
51196W        W17627  31.139  40.338   1.900
51197W        W17628  18.003  24.005  10.381
51198W        W17629  11.871  21.662  10.960
51199W        W17630  34.874   1.441  13.411
51200W        W17631  18.064  37.094   4.263
51201W        W17632  33.707  19.199  14.859
51202W        W17633  38.082  40.895   1.262
51203W        W17634  14.510  16.618   4.699
51204W        W17635  21.957  11.671   2.333
51205W        W17636  44.700   0.345   4.471
51206W        W17637   6.205  40.821   3.184
51207W        W17638  20.670  37.836   0.748
51208W        W17639  39.255  27.776   2.251
51209W        W17640  35.401  17.296   3.559
51210W        W17641  41.608  30.379  11.583
51211W        W17642  10.488  19.056  14.774
51212W        W17643  35.497  29.413   3.689
51213W        W17644  37.089  36.296   0.035
51214W        W17645  34.866  43.700   3.773
51215W        W17646  34.833  37.848   0.456
51216W        W17647  23.025   7.822  11.199
51217W        W17648   6.200   8.864  11.253
51218W        W17649  26.346  38.239  11.510
51219W        W17650  43.237   8.796   3.160
51220W        W17651   5.522  23.577   0.531
51221W        W17652  30.194  34.905  10.710
51222W        W17653  30.062   2.977  12.836
51223W        W17654  39.727  39.941   1.253
51224W        W17655  23.198   7.021   4.570
51225W        W17656  29.130  37.841   1.822
51226W        W17657   3.135  17.811   2.337
51227W        W17658   6.727   4.355  13.581
51228W        W17659  10.676  39.798   2.745
51229W        W17660  20.057  36.617  14.088
51230W        W17661  31.400  14.250  14.792
51231W        W17662  36.425   0.329   4.072
51232W        W17663  17.761  35.125  12.465
51233W        W17664  25.882  38.051  11.565
51234W        W17665  26.181  41.947  11.620
51235W        W17666   9.228   8.215  11.568
51236W        W17667  25.753  36.447  12.471
51237W        W17668  21.255  39.384  14.771
51238W        W17669  16.191  35.331   0.961
51239W        W17670  41.777   6.353  12.962
51240W        W17671  18.451  26.686   1.946
51241W        W17672  22.354   4.706   1.107
51242W        W17673  36.265  43.475   3.738
51243W        W17674  35.041   2.809   0.870
51244W        W17675  40.580  35.439   1.359
51245W        W17676  29.120   6.642  12.548
51246W        W17677  28.493  24.786   1.210
51247W        W17678  20.315  33.609   4.207
51248W        W17679  26.459  14.132  12.662
51249W        W17680  37.586  19.223  10.626
51250W        W17681  29.550  18.503  11.059
51251W        W17682  11.834  32.221   3.746
51252W        W17683  26.830  40.956   1.380
51253W        W17684  28.599  19.147   3.830
51254W        W17685  38.744  37.029   0.074
51255W        W17686  20.391  31.947  14.776
51256W        W17687  24.699  26.020   3.668
51257W        W17688  41.522  40.566   4.075
51258W        W17689  44.888  23.053  12.555
51259W        W17690  18.068  44.112  10.552
51260W        W17691  24.596  35.629  11.178
51261W        W17692  23.392   9.240  13.018
51262W        W17693  38.620  36.853  10.633
51263W        W17694  34.455  26.981   4.735
51264W        W17695  26.968  24.934  10.714
51265W        W17696  24.550  37.752   0.351
51266W        W17697  37.293   2.677  12.088
51267W        W17698   8.267  41.590   1.430
51268W        W17699  20.691  12.594  12.522
51269W        W17700   4.226   3.265   2.328
51270W        W17701  21.246  10.013   0.401
51271W        W17702  16.912   3.519   1.233
51272W        W17703  37.110  21.941   3.973
51273W        W17704  12.779  13.801   1.084
51274W        W17705  24.921  31.060  14.871
51275W        W17706  16.811   8.599   0.145
51276W        W17707  13.568  11.763  14.533
51277W        W17708  25.712  41.703   3.641
51278W        W17709   1.395  44.007   0.119
51279W        W17710  33.900  14.342   1.767
51280W        W17711   5.436   2.422  14.884
51281W        W17712  32.409  10.618  11.381
51282W        W17713  37.894  25.879   0.782
51283W        W17714   9.873  27.106  10.677
51284W        W17715  10.131  39.289  12.967
51285W        W17716  34.412  15.806   0.338
51286W        W17717  34.858   6.296  12.089
51287W        W17718  43.941   5.677   3.355
51288W        W17719  42.619  12.196   2.640
51289W        W17720  37.380  30.768   1.063
51290W        W17721  42.754  24.210  11.694
51291W        W17722   1.947  40.610   4.016
51292W        W17723  34.381  27.817   2.652
51293W        W17724  17.582  41.246  14.372
51294W        W17725  29.648  14.228  11.060
51295W        W17726  26.518  18.739  10.346
51296W        W17727  40.776  20.277  12.106
51297W        W17728  18.107  10.396   1.729
51298W        W17729  10.378  33.480  13.820
51299W        W17730  20.594  16.432  13.424
51300W        W17731  35.589  12.675   3.677
51301W        W17732   5.523  26.063  14.270
51302W        W17733  12.258   4.505   1.302
51303W        W17734  28.277  17.196   0.848
51304W        W17735  44.537  11.924  14.424
51305W        W17736  24.121  41.359   2.747
51306W        W17737  37.621  33.696  11.541
51307W        W17738  18.679  29.966   4.592
51308W        W17739  17.136  14.461  13.511
51309W        W17740   4.276  32.122   3.730
51310W        W17741  32.285  25.243  11.083
51311W        W17742  10.890  26.159   3.270
51312W        W17743  30.280  40.810   2.616
51313W        W17744  31.031  19.772  11.209
51314W        W17745   3.905  19.085   4.280
51315W        W17746  23.646  19.839  10.777
51316W        W17747  14.061  14.212   3.757
51317W        W17748  21.651  35.656   0.286
51318W        W17749  43.951  18.039   0.048
51319W        W17750   7.854   1.382  13.246
51320W        W17751  21.317  39.914   1.240
51321W        W17752   6.687  29.344   0.352
51322W        W17753   4.138  20.048  14.142
51323W        W17754  17.027  20.200  12.787
51324W        W17755  32.408  22.767   0.844
51325W        W17756  36.079  25.711   1.928
51326W        W17757  29.607   0.428  13.323
51327W        W17758   5.472  24.716  11.147
51328W        W17759  25.589  22.493  14.673
51329W        W17760  43.380  41.583  13.907
51330W        W17761  44.731  27.589  14.512
51331W        W17762  39.999  12.873   2.225
51332W        W17763  10.313  21.309  13.292
51333W        W17764   1.995  29.009  12.125
51334W        W17765  10.911  44.548   3.172
51335W        W17766  22.467  18.259  11.519
51336W        W17767  25.699  30.859  11.667
51337W        W17768  31.934   7.257   1.287
51338W        W17769  16.177  20.158   2.099
51339W        W17770  11.867  33.859  14.072
51340W        W17771  44.968  35.286  12.861
51341W        W17772   1.844  21.811  11.581
51342W        W17773   6.615  21.157   4.419
51343W        W17774   8.999  10.884   3.648
51344W        W17775  17.192  35.602  13.038
51345W        W17776   1.901   3.130   0.967
51346W        W17777  24.522   4.900   2.172
51347W        W17778  25.575  23.179  11.692
51348W        W17779  32.914  33.103  13.004
51349W        W17780   8.622  20.710   0.946
51350W        W17781  26.213   8.258   0.977
51351W        W17782   3.360   7.977  12.935
51352W        W17783   0.871  37.042  11.508
51353W        W17784  40.317  17.618   1.391
51354W        W17785   8.617  36.095   3.255
51355W        W17786  17.809  30.659  11.061
51356W        W17787  15.835   2.226  12.956
51357W        W17788  22.801  28.670   2.737
51358W        W17789  34.866  15.464  12.977
51359W        W17790  12.470  17.359   0.471
51360W        W17791  37.081  35.631   0.998
51361W        W17792  42.810  29.975   4.686
51362W        W17793  25.383  18.091  10.780
51363W        W17794  12.052  16.266   1.715
51364W        W17795  12.600  18.356   2.325
51365W        W17796  39.454  34.788  11.972
51366W        W17797  33.138   9.302  11.473
51367W        W17798  36.435  39.087  13.741
51368W        W17799  44.729  13.182  14.754
51369W        W17800  31.509  29.687   0.483
51370W        W17801   3.530  39.382  11.172
51371W        W17802  30.542   6.488   0.355
51372W        W17803  42.246  23.782   4.146
51373W        W17804  17.773   2.483   2.294
51374W        W17805   6.407  16.553  12.467
51375W        W17806  35.435  11.612  11.636
51376W        W17807  12.632  31.450  10.789
51377W        W17808   6.890   0.900  11.227
51378W        W17809  35.368  21.808   1.749
51379W        W17810  39.930  37.828  10.382
51380W        W17811  31.004  28.231  11.946
51381W        W17812   4.737  40.607  13.961
51382W        W17813  21.209   5.811  11.653
51383W        W17814  35.027  41.062   1.216
51384W        W17815  14.605  30.318   1.750
51385W        W17816  18.269  35.356   1.688
51386W        W17817  40.851  35.030   1.516
51387W        W17818   1.585   5.365  14.804
51388W        W17819  44.995  31.260   3.772
51389W        W17820  44.585   5.387   2.172
51390W        W17821   9.180  30.575   1.757
51391W        W17822   5.254  21.984   0.335
51392W        W17823  40.020  38.465  12.132
51393W        W17824   3.864  44.412  13.002
51394W        W17825  32.508   6.746   9.986
51395W        W17826  35.573  29.674   2.838
51396W        W17827   9.671  20.290   1.288
51397W        W17828   4.334  43.600   3.387
51398W        W17829  26.398   7.178   3.110
51399W        W17830  35.635  25.281  14.350
51400W        W17831  19.515  19.548  13.051
51401W        W17832  14.116  13.989  11.213
51402W        W17833  37.574  31.586   2.296
51403W        W17834  42.488  30.886   0.749
51404W        W17835   5.025  43.402  13.467
51405W        W17836   4.709  35.386   4.690
51406W        W17837  17.290   8.906   4.650
51407W        W17838   1.306  22.442   1.287
51408W        W17839   5.730  10.315   2.797
51409W        W17840  10.799  34.585   4.135
51410W        W17841  41.509  20.556   4.073
51411W        W17842   8.358   6.301   2.646
51412W        W17843  38.847  38.328  11.665
51413W        W17844   5.861  36.355  14.792
51414W        W17845  14.074  37.021  11.556
51415W        W17846  39.982  44.449  14.901
51416W        W17847  25.252   3.327   2.981
51417W        W17848  11.089  43.221   1.345
51418W        W17849  33.154  19.028   4.214
51419W        W17850   5.679   8.818  11.484
51420W        W17851  34.117  32.155   0.397
51421W        W17852  44.382  31.527  14.829
51422W        W17853  41.420  35.179   3.238
51423W        W17854   8.916  12.116   4.619
51424W        W17855  31.896  43.890   0.424
51425W        W17856   4.005  12.319   0.437
51426W        W17857  31.101  36.014  13.527
51427W        W17858  18.623   8.683  11.768
51428W        W17859  30.966  41.561   1.419
51429W        W17860  12.931  17.978   2.660
51430W        W17861  30.167  16.353   4.319
51431W        W17862   3.595  36.724   5.055
51432W        W17863  19.666   6.502   4.581
51433W        W17864   7.906   8.146   1.591
51434W        W17865  39.481  20.463   0.858
51435W        W17866  12.610  11.623   1.389
51436W        W17867  32.688  38.306   0.257
51437W        W17868   1.714   0.689  13.595
51438W        W17869  10.013   7.185   3.705
51439W        W17870  22.293  12.629   2.326
51440W        W17871   5.338  12.074   0.062
51441W        W17872  25.658   2.837  10.931
51442W        W17873  21.614  41.470  10.580
51443W        W17874  36.569  10.245   3.593
51444W        W17875  28.342   9.244  13.828
51445W        W17876   3.286   9.358  12.046
51446W        W17877  31.613   6.805   0.464
51447W        W17878  18.705   0.729   1.327
51448W        W17879  38.386  26.459  11.081
51449W        W17880  18.482  43.421   1.682
51450W        W17881  26.074   9.939   0.200
51451W        W17882  13.475   2.966  11.555
51452W        W17883  32.444  31.001   0.010
51453W        W17884  43.243  25.780  12.018
51454W        W17885  14.728  16.755   3.271
51455W        W17886  14.524  25.544   1.303
51456W        W17887  24.333   7.860   4.598
51457W        W17888  37.533  28.442   1.809
51458W        W17889  40.888  41.033  12.442
51459W        W17890  16.586  28.060   1.350
51460W        W17891  25.146   3.742  13.941
51461W        W17892  43.885  19.687   0.674
51462W        W17893  22.151   7.555   2.243
51463W        W17894   7.357  25.678   2.471
51464W        W17895  33.338  39.432   5.009
51465W        W17896  34.678  31.461   5.155
51466W        W17897   2.253   0.973   4.559
51467W        W17898   5.122  34.824  11.022
51468W        W17899  32.105  38.860  13.068
51469W        W17900  14.212  24.944  15.000
51470W        W17901   1.178   8.891   4.645
51471W        W17902   1.215  43.248  11.414
51472W        W17903  15.224  17.672  14.896
51473W        W17904   4.259  32.164   1.394
51474W        W17905  21.311   4.850   1.439
51475W        W17906  31.538  22.265   0.939
51476W        W17907   3.742  14.488  12.947
51477W        W17908   6.110  19.858   5.314
51478W        W17909   9.734  14.415   1.902
51479W        W17910  18.509  27.112  12.783
51480W        W17911  43.078  35.928   4.582
51481W        W17912  13.654  21.107  13.637
51482W        W17913  16.125  29.994   3.778
51483W        W17914  23.571   6.330   4.135
51484W        W17915   3.530  22.728   3.148
51485W        W17916  19.980  44.582   9.894
51486W        W17917  35.544  25.126   4.248
51487W        W17918   4.623  37.516  10.632
51488W        W17919  18.302   5.529   2.787
51489W        W17920  36.830  29.385  13.023
51490W        W17921  28.446  26.663   2.784
51491W        W17922  29.525  36.752   3.725
51492W        W17923  31.899  19.666   0.006
51493W        W17924  27.678  34.014   3.035
51494W        W17925  19.794  22.985   2.575
51495W        W17926  20.697  24.805  12.522
51496W        W17927  25.018  40.997  11.172
51497W        W17928  12.168   8.453   4.565
51498W        W17929  35.618  27.200   3.375
51499W        W17930  35.375  34.719  13.377
51500W        W17931  13.760  20.004  13.795
51501W        W17932  31.695  28.563   2.145
51502W        W17933   0.840  39.433  11.639
51503W        W17934  19.101  42.267  10.157
51504W        W17935  29.268  24.437  14.874
51505W        W17936  15.028   2.221   9.669
51506W        W17937   8.730  11.616  10.759
51507W        W17938   5.347  16.574  14.507
51508W        W17939  34.353  30.139   1.915
51509W        W17940   2.303   0.967   0.885
51510W        W17941   4.763  13.109  11.889
51511W        W17942  37.757  23.403  12.556
51512W        W17943  32.670  15.367   2.364
51513W        W17944  34.933  41.963  10.565
51514W        W17945  29.075  18.542  11.238
51515W        W17946  26.867   9.379   3.463
51516W        W17947  39.357  12.373   0.705
51517W        W17948  37.419  27.556  12.945
51518W        W17949   7.206  29.443  14.292
51519W        W17950  30.188  44.180   1.753
51520W        W17951  25.188  11.479  13.586
51521W        W17952  41.238   4.737   3.501
51522W        W17953  32.497  34.200  11.315
51523W        W17954   5.649  23.788   1.003
51524W        W17955   2.817  41.808   3.793
51525W        W17956   2.799   3.918   3.139
51526W        W17957  19.405  41.980   0.008
51527W        W17958   3.694   2.262   1.775
51528W        W17959  18.737  36.913   5.276
51529W        W17960   6.752  11.642   1.788
51530W        W17961   2.706   5.694   3.189
51531W        W17962  22.997  31.914  13.095
51532W        W17963  14.321   8.169   1.928
51533W        W17964   9.144  15.062   2.357
51534W        W17965  10.346  44.943  13.417
51535W        W17966  17.709   8.670  14.015
51536W        W17967  23.267  13.849   1.660
51537W        W17968  15.331  16.006   2.510
51538W        W17969  40.455  40.313   5.435
51539W        W17970  42.423  33.952   0.057
51540W        W17971  22.091  19.784   2.727
51541W        W17972  41.770  28.574  13.847
51542W        W17973  37.844   9.861   1.171
51543W        W17974  32.910   9.770  13.839
51544W        W17975   9.139  30.520   4.568
51545W        W17976   3.005  23.192  13.266
51546W        W17977  22.021  41.712  13.409
51547W        W17978  18.772   4.890   4.060
51548W        W17979  35.885   5.863  14.460
51549W        W17980  30.898  37.374  12.206
51550W        W17981  32.125  35.349   5.016
51551W        W17982   2.440   1.982   1.820
51552W        W17983  39.815   0.348  10.974
51553W        W17984  42.388   9.671   0.887
51554W        W17985  44.275  21.192  13.886
51555W        W17986  10.366  39.718  11.133
51556W        W17987  20.259  23.667   0.271
51557W        W17988  29.608  17.879  14.221
51558W        W17989  34.562  14.054  13.325
51559W        W17990  14.258  15.605   2.309
51560W        W17991   8.845  12.155   4.104
51561W        W17992  39.983  27.615  12.279
51562W        W17993  12.582  13.331   4.245
51563W        W17994  26.617  29.138   1.349
51564W        W17995  31.747  22.987  12.006
51565W        W17996  41.857  35.650   0.805
51566W        W17997  23.236  26.854   3.517
51567W        W17998  32.439  15.101  14.860
51568W        W17999   3.474  11.156   0.806
51569W        W18000  17.051  27.708   0.339
51570W        W18001  16.154   6.275  14.790
51571W        W18002  44.886  37.092  10.440
51572W        W18003   0.274   0.200  14.720
51573W        W18004  33.015  12.385  12.043
51574W        W18005   6.776  25.701   4.146
51575W        W18006  14.983  35.440   4.136
51576W        W18007  20.536  21.837   3.764
51577W        W18008   1.161  25.503  13.235
51578W        W18009  26.034  29.201   0.326
51579W        W18010   1.307  34.552  12.250
51580W        W18011  18.178  35.812  12.078
51581W        W18012  44.728  34.533   1.172
51582W        W18013  22.721  39.140  14.546
51583W        W18014   1.976  23.134   0.947
51584W        W18015  28.355  30.567  10.725
51585W        W18016  21.977  24.050   0.898
51586W        W18017  23.609  40.596   4.805
51587W        W18018   5.304  35.347  12.628
51588W        W18019   7.248  41.120  13.023
51589W        W18020  26.210   1.347   3.721
51590W        W18021   3.179  11.649   3.761
51591W        W18022  19.995  29.834   3.652
51592W        W18023   4.028  12.628  12.944
51593W        W18024  17.057  12.258   2.625
51594W        W18025  40.045  18.246   0.126
51595W        W18026  42.921  10.449  10.229
51596W        W18027  27.930  22.981   9.863
51597W        W18028   8.077  25.579   4.639
51598W        W18029  30.132  31.575  12.812
51599W        W18030  21.794  41.503   1.688
51600W        W18031   2.754   0.035  12.606
51601W        W18032   9.545  26.623   3.254
51602W        W18033   4.762  33.408   2.501
51603W        W18034  35.541   8.478   2.758
51604W        W18035  32.609  16.890   4.509
51605W        W18036  12.799  43.307   0.028
51606W        W18037   8.803  23.634   2.696
51607W        W18038  26.390   4.496   4.935
51608W        W18039  41.108  43.528  10.474
51609W        W18040  31.464  14.106   0.714
51610W        W18041   0.769   1.529   2.599
51611W        W18042   8.012  37.985   1.868
51612W        W18043   7.315  42.725   0.463
51613W        W18044  11.020  21.296  11.498
51614W        W18045   0.233  27.543  14.488
51615W        W18046  17.349   4.768  12.390
51616W        W18047  18.123  13.802  12.098
51617W        W18048   4.551  10.657  14.548
51618W        W18049   1.166  30.451   0.260
51619W        W18050  38.009   2.984  10.767
51620W        W18051  23.995   9.732   3.152
51621W        W18052  31.597  35.103   4.699
51622W        W18053  30.620   2.422  12.447
51623W        W18054  16.786  34.968   4.882
51624W        W18055  22.708  16.456   2.421
51625W        W18056  34.853  22.460   4.274
51626W        W18057  16.090   3.363   0.839
51627W        W18058  31.392  32.569   1.357
51628W        W18059  36.835  42.848  12.915
51629W        W18060  43.402  20.599  11.482
51630W        W18061  36.362  19.812  11.010
51631W        W18062   3.226   1.910  14.288
51632W        W18063  19.560  33.029  14.396
51633W        W18064  28.458   0.791  13.842
51634W        W18065  18.822  12.823   2.750
51635W        W18066  10.155  37.829  13.726
51636W        W18067  35.535  13.531  12.420
51637W        W18068  13.766   6.493   1.522
51638W        W18069   4.731  38.604   3.188
51639W        W18070  44.253  38.687  13.512
51640W        W18071  35.991  19.676   1.496
51641W        W18072  23.551  27.218  12.108
51642W        W18073   1.621  39.702  13.729
51643W        W18074  33.117  24.769   1.746
51644W        W18075  24.078   4.971   3.218
51645W        W18076  33.558  14.675   0.061
51646W        W18077  20.847  34.539   1.365
51647W        W18078   6.929  29.842  10.620
51648W        W18079  42.374   5.820   4.630
51649W        W18080  30.602   3.919   2.730
51650W        W18081  12.302  43.309   1.793
51651W        W18082  37.631   7.496  10.661
51652W        W18083  21.695  35.486   1.826
51653W        W18084  24.972  20.676  12.064
51654W        W18085  23.452  19.254   0.619
51655W        W18086  31.488  34.904   3.241
51656W        W18087  32.917  42.048   3.975
51657W        W18088   6.646  33.497  12.559
51658W        W18089   7.107  30.422  12.594
51659W        W18090   3.775  17.272  14.579
51660W        W18091   1.334  40.886   4.598
51661W        W18092  28.120  43.466   0.937
51662W        W18093  33.864   5.516  14.785
51663W        W18094  17.362  44.307   2.743
51664W        W18095  37.854  32.050   0.394
51665W        W18096  43.923  22.725  12.522
51666W        W18097  32.411  41.019  11.290
51667W        W18098  19.946  26.393   0.890
51668W        W18099  12.345  26.995   2.268
51669W        W18100  27.591  33.860   4.592
51670W        W18101   0.791  29.433   4.436
51671W        W18102   2.706  30.856  12.238
51672W        W18103  30.526   6.648   3.252
51673W        W18104  36.504  25.781   2.808
51674W        W18105  39.028  16.056   4.571
51675W        W18106   3.270  10.630   2.849
51676W        W18107  23.551  28.715   0.042
51677W        W18108   2.556   8.792   0.739
51678W        W18109  23.876  20.833   2.842
51679W        W18110  42.841  34.064  11.107
51680W        W18111  15.154  14.239  12.646
51681W        W18112  26.029  22.688   4.486
51682W        W18113  14.706  39.101   2.193
51683W        W18114   4.801  30.333   1.719
51684W        W18115  31.586  26.809   2.214
51685W        W18116   5.335  30.662   3.582
51686W        W18117  18.283   8.770   2.408
51687W        W18118   0.398  16.205  14.726
51688W        W18119  10.350  21.799  13.414
51689W        W18120  26.697  18.872   3.534
51690W        W18121  26.604  36.386  11.798
51691W        W18122   3.678   8.454  13.898
51692W        W18123   5.366  32.965  14.397
51693W        W18124  17.388  37.652   1.476
51694W        W18125  18.013   8.294   1.224
51695W        W18126  11.253  29.001  14.305
51696W        W18127  43.863   1.961   4.771
51697W        W18128  37.809  36.513  13.901
51698W        W18129  10.744   4.188   3.231
51699W        W18130  25.600  25.762  13.937
51700W        W18131   7.295  39.270   0.124
51701W        W18132   7.046  13.290  12.593
51702W        W18133  13.698  33.097  12.403
51703W        W18134  37.330  34.813   3.562
51704W        W18135  25.885  21.590  14.716
51705W        W18136  20.402  10.179  11.901
51706W        W18137   5.854  26.935   3.409
51707W        W18138  18.650  29.706  12.925
51708W        W18139   9.655  25.216   1.315
51709W        W18140  14.664  14.383  10.931
51710W        W18141  35.497  37.442   2.891
51711W        W18142  43.916  20.708   0.453
51712W        W18143  32.032   2.745  12.418
51713W        W18144  31.000  42.331   3.771
51714W        W18145  44.770  11.152  13.395
51715W        W18146  32.870  12.152   3.299
51716W        W18147  25.123  34.698   1.307
51717W        W18148   2.373  39.123  10.979
51718W        W18149  31.512  42.701  14.309
51719W        W18150  28.545  28.219   1.402
51720W        W18151  25.196  17.967   4.306
51721W        W18152  40.931  12.809  13.522
51722W        W18153  21.751  28.515  11.574
51723W        W18154   6.598  18.708   2.362
51724W        W18155   9.787   6.877   3.333
51725W        W18156   7.475  37.579  11.537
51726W        W18157  35.045  35.888  14.513
51727W        W18158  16.667   0.017   0.662
51728W        W18159  19.181  27.169   3.356
51729W        W18160  16.379  31.211  12.125
51730W        W18161   1.100  40.488  14.020
51731W        W18162  44.505  27.476  14.065
51732W        W18163  37.997  44.315  14.032
51733W        W18164  33.648  29.059   1.801
51734W        W18165  28.440   7.387   2.733
51735W        W18166  18.575  22.625   1.271
51736W        W18167  28.265  41.231   1.744
51737W        W18168   9.721  11.666   4.181
51738W        W18169  19.639   8.340  14.778
51739W        W18170  40.211  15.191  11.755
51740W        W18171   7.107   4.982  11.579
51741W        W18172  37.555   9.661   0.784
51742W        W18173  16.807  38.954   1.631
51743W        W18174  16.130  29.495  10.586
51744W        W18175  17.557  27.640  11.948
51745W        W18176  23.887   5.042   1.385
51746W        W18177  29.540   4.307  12.451
51747W        W18178  42.399  12.350  10.600
51748W        W18179  23.212  22.065   3.574
51749W        W18180  24.988   8.459   2.247
51750W        W18181  25.074  15.192  11.435
51751W        W18182  40.844  21.766   4.314
51752W        W18183   7.690  38.572   1.257
51753W        W18184   2.161  26.086   3.262
51754W        W18185  14.481  38.974  14.001
51755W        W18186  31.930  14.867   2.240
51756W        W18187  18.989  36.413   2.640
51757W        W18188  38.123  26.649  14.761
51758W        W18189  31.118  33.477  11.574
51759W        W18190  16.873  37.382   0.353
51760W        W18191  24.232  25.591  13.732
51761W        W18192  25.013   7.720  14.407
51762W        W18193  34.055   7.431  14.846
51763W        W18194  30.036   1.417  13.354
51764W        W18195  10.179   1.345  11.130
51765W        W18196  41.901   0.635  12.137
51766W        W18197  26.133  18.843   4.174
51767W        W18198   5.713  21.734   0.291
51768W        W18199   0.709  39.339  12.515
51769W        W18200  14.782  43.428   0.302
51770W        W18201   1.465  22.163  12.534
51771W        W18202  33.879  24.204  12.389
51772W        W18203  19.736  27.577   4.582
51773W        W18204  35.506  40.298   2.815
51774W        W18205   5.940   2.781  12.569
51775W        W18206   8.723  10.327   2.856
51776W        W18207  32.155  16.184   2.388
51777W        W18208  13.774  33.679   2.724
51778W        W18209   4.908  42.070  10.421
51779W        W18210  16.708  13.099   0.530
51780W        W18211   5.390  42.350   0.380
51781W        W18212   6.958  23.013  12.010
51782W        W18213  29.977   4.002  13.681
51783W        W18214   1.555  14.219  13.931
51784W        W18215  40.806  39.669   0.667
51785W        W18216  41.944  18.833   4.612
51786W        W18217  33.000   7.011   0.308
51787W        W18218  21.236  10.106   2.800
51788W        W18219  18.382  35.752  10.667
51789W        W18220  28.524   2.059  13.137
51790W        W18221   2.400  14.316  11.968
51791W        W18222  12.108  27.442  11.265
51792W        W18223  19.856   4.908   1.854
51793W        W18224   9.764  22.114   4.594
51794W        W18225  40.308  29.225  12.468
51795W        W18226  38.706  16.191  13.146
51796W        W18227  29.695  42.902   1.260
51797W        W18228   2.061  14.090  14.169
51798W        W18229   0.547  32.169  13.558
51799W        W18230  38.972  22.104   0.516
51800W        W18231  24.912   4.502   0.714
51801W        W18232  17.823   1.934  13.739
51802W        W18233   9.184  19.671   3.696
51803W        W18234   6.691  10.430   1.027
51804W        W18235  16.052  32.178   4.711
51805W        W18236  43.712  10.498   2.789
51806W        W18237   1.484  16.538   3.274
51807W        W18238  13.676  33.943   4.045
51808W        W18239  13.215   6.474  11.637
51809W        W18240  43.915   4.146  12.120
51810W        W18241   6.652  13.383   1.170
51811W        W18242   4.925   9.951  11.638
51812W        W18243   2.920  25.196   4.502
51813W        W18244  14.930  12.307   3.216
51814W        W18245  14.645  32.522  13.482
51815W        W18246  30.131  15.274   2.397
51816W        W18247  14.102   0.787   3.275
51817W        W18248  44.997  36.004   1.194
51818W        W18249  34.303  33.915   0.461
51819W        W18250  23.132  26.960  12.025
51820W        W18251  41.980  29.543   4.007
51821W        W18252   0.271  18.678  11.027
51822W        W18253   2.520  32.937  14.490
51823W        W18254  16.215  30.764   4.472
51824W        W18255  20.522  18.437   1.819
51825W        W18256  24.838  22.894  12.964
51826W        W18257  26.367  17.063   3.657
51827W        W18258  14.262  27.675  10.185
51828W        W18259   7.844  27.685  11.674
51829W        W18260  28.619  43.369   3.976
51830W        W18261   9.583  27.170   1.043
51831W        W18262  39.481  39.583  13.782
51832W        W18263  41.770  15.153   3.228
51833W        W18264   1.202  41.947   0.226
51834W        W18265  37.019  18.802   2.689
51835W        W18266  26.229   4.416  10.698
51836W        W18267  20.484  40.405  14.841
51837W        W18268  36.962  36.533  12.126
51838W        W18269   7.770   1.489   0.800
51839W        W18270   3.729  15.586  14.901
51840W        W18271  29.388  33.530  14.289
51841W        W18272  35.564   9.930   3.093
51842W        W18273  16.710   3.944  11.513
51843W        W18274  18.026  20.397   1.336
51844W        W18275  38.851  19.557  13.299
51845W        W18276  37.944   7.621   0.715
51846W        W18277  41.855  23.079  12.671
51847W        W18278  23.795  12.076   3.694
51848W        W18279  31.511  26.636  14.452
51849W        W18280  23.055   9.716   3.076
51850W        W18281  33.126  26.114   2.677
51851W        W18282  10.398   3.924  10.514
51852W        W18283  16.296  13.338   2.297
51853W        W18284  13.586  39.402   2.875
51854W        W18285  35.314  21.537  12.029
51855W        W18286  19.067  14.605  14.518
51856W        W18287   5.970  31.486  11.945
51857W        W18288  30.345  36.067  12.216
51858W        W18289  42.292  20.248   3.912
51859W        W18290  14.989  40.628   1.230
51860W        W18291  24.329  34.333  10.055
51861W        W18292  42.256  44.870   3.602
51862W        W18293  19.424  18.023   3.668
51863W        W18294  36.350   3.274  11.668
51864W        W18295  40.484  19.831   0.979
51865W        W18296  39.234  16.201  13.993
51866W        W18297  36.080  16.557  11.610
51867W        W18298  21.005  36.889   0.743
51868W        W18299  26.481  34.646   3.279
51869W        W18300  12.326  40.457  12.894
51870W        W18301   2.670  35.511  11.618
51871W        W18302  22.171  39.640  10.749
51872W        W18303  39.976   6.356   4.753
51873W        W18304  32.131  22.744   3.687
51874W        W18305  19.988  21.692   4.608
51875W        W18306  38.964  26.358  13.890
51876W        W18307  38.703  14.636   1.276
51877W        W18308  24.532   8.723   2.324
51878W        W18309   6.377  23.279   3.166
51879W        W18310  19.109  26.228   4.356
51880W        W18311  23.206  13.044  12.978
51881W        W18312  22.646  31.631  11.468
51882W        W18313  38.899  14.622  14.324
51883W        W18314  14.686  36.876   1.861
51884W        W18315  35.082   0.416   4.617
51885W        W18316  29.801  20.157   2.800
51886W        W18317  25.571  26.584   1.396
51887W        W18318   3.805  42.470   2.005
51888W        W18319   3.920  19.814   2.170
51889W        W18320  43.964  12.985  11.252
51890W        W18321  24.512  20.171  13.385
51891W        W18322  16.870  33.586  13.927
51892W        W18323  21.560  38.074  11.603
51893W        W18324  34.576  11.301  13.736
51894W        W18325   4.214  33.170   4.704
51895W        W18326  34.965  38.329   2.103
51896W        W18327  34.847   1.048   2.446
51897W        W18328  39.260  35.303   2.508
51898W        W18329  33.424  34.797  14.935
51899W        W18330   5.019  34.522  11.607
51900W        W18331  13.188   0.129  14.706
51901W        W18332   2.067  27.961  11.976
51902W        W18333  10.697  11.610  10.001
51903W        W18334  21.244  38.298   1.483
51904W        W18335  19.864  16.029   2.594
51905W        W18336  21.554  38.908  12.115
51906W        W18337  18.008  38.437  11.302
51907W        W18338   1.916  36.021  14.742
51908W        W18339  29.744  10.650  10.408
51909W        W18340  44.426  44.004  12.883
51910W        W18341  19.072  33.890  12.447
51911W        W18342  10.200  43.416   0.622
51912W        W18343  40.825  22.660   4.303
51913W        W18344  26.154   9.594   3.681
51914W        W18345   5.001  17.190   5.419
51915W        W18346   0.147  43.682   2.311
51916W        W18347  11.629  13.589   2.256
51917W        W18348  28.593  38.949   3.992
51918W        W18349  18.968  30.141  13.840
51919W        W18350   8.459  31.089  13.461
51920W        W18351  43.885   6.651  13.870
51921W        W18352  24.629  34.202   2.284
51922W        W18353   3.595  42.442   1.533
51923W        W18354  15.075   1.796   0.421
51924W        W18355   0.272  14.547   4.168
51925W        W18356  11.119  31.625  11.830
51926W        W18357  29.030  34.084   3.955
51927W        W18358  38.926  42.502   2.415
51928W        W18359  39.983   4.339   0.317
51929W        W18360  24.178  15.346  11.121
51930W        W18361  25.971  13.578   2.181
51931W        W18362  29.590  16.374   0.966
51932W        W18363  32.022  18.606  12.861
51933W        W18364  19.676  41.517  12.491
51934W        W18365  25.135  30.051  12.762
51935W        W18366  42.500  15.760   3.793
51936W        W18367   3.744  32.092   1.256
51937W        W18368  11.572  10.852  11.742
51938W        W18369   9.687  30.155   4.244
51939W        W18370  15.405  26.777  13.472
51940W        W18371  13.045  25.009  14.132
51941W        W18372  44.799   8.783   2.757
51942W        W18373  31.885  19.191   0.279
51943W        W18374  40.861  26.622   4.037
51944W        W18375  11.171   6.759  11.540
51945W        W18376  37.362  23.743  12.520
51946W        W18377  29.248  11.666  13.950
51947W        W18378  29.466   8.920   3.724
51948W        W18379   1.797   3.558  10.148
51949W        W18380  10.886  28.467   0.920
51950W        W18381  11.155  16.563   2.347
51951W        W18382  36.292   2.915  13.962
51952W        W18383   9.147  21.967  11.152
51953W        W18384  33.597  42.430  14.798
51954W        W18385  26.200  39.070   3.268
51955W        W18386   1.714   1.764   0.928
51956W        W18387   3.005  27.018  12.596
51957W        W18388   9.785  26.160  14.353
51958W        W18389  37.929  25.121  13.510
51959W        W18390  28.250  25.633   1.270
51960W        W18391   7.467  23.118  11.974
51961W        W18392  41.615  10.702   3.890
51962W        W18393  24.669  19.336  11.542
51963W        W18394  40.480  31.330  13.107
51964W        W18395   8.434  24.018   4.146
51965W        W18396   2.114  23.657   0.729
51966W        W18397  35.560   0.275  12.250
51967W        W18398  12.706   2.973  13.813
51968W        W18399  23.773  35.512  14.899
51969W        W18400  13.006  41.252   9.806
51970W        W18401  12.770  11.180  10.421
51971W        W18402  18.138   1.423  11.134
51972W        W18403  19.608  34.976   5.075
51973W        W18404  30.971   8.513   4.065
51974W        W18405  14.434   9.887  12.229
51975W        W18406  24.144  36.866  10.068
51976W        W18407  12.160   5.849   0.758
51977W        W18408  34.573   6.681  12.929
51978W        W18409  17.967  44.666   1.033
51979W        W18410  37.052  39.490   2.686
51980W        W18411  13.235  12.138   2.724
51981W        W18412  40.962   5.707  14.216
51982W        W18413   8.458   7.593   4.300
51983W        W18414  24.293  38.632   4.437
51984W        W18415  35.985  22.706  13.325
51985W        W18416   4.827  38.797   3.949
51986W        W18417  41.048   1.292   1.935
51987W        W18418  12.621   5.772  11.651
51988W        W18419  40.444  30.891   0.465
51989W        W18420  27.654  27.602   3.290
51990W        W18421  26.478  21.668   2.402
51991W        W18422  41.029  37.850   0.470
51992W        W18423  37.055   2.992   3.336
51993W        W18424   2.804  42.424  13.050
51994W        W18425  41.504  25.468   3.839
51995W        W18426  40.114  31.527  10.281
51996W        W18427  21.789   5.229  13.152
51997W        W18428  27.920  44.271  10.040
51998W        W18429  34.093  43.816   1.708
51999W        W18430  11.756  10.459   5.152
52000W        W18431  16.106  23.045   1.364
52001W        W18432  11.222  13.831   1.376
52002W        W18433  25.641  15.796   1.376
52003W        W18434  33.597  36.441   2.739
52004W        W18435  11.285  22.217   1.941
52005W        W18436  14.053   9.626  14.867
52006W        W18437  36.491  12.016  11.112
52007W        W18438  36.589  20.343   1.269
52008W        W18439  40.077  11.264   0.913
52009W        W18440  26.149  31.879   0.819
52010W        W18441  22.561  14.600  14.480
52011W        W18442  32.602  13.757   2.201
52012W        W18443   9.774  10.397  12.381
52013W        W18444  24.278  44.799   1.924
52014W        W18445  33.948   5.714  11.168
52015W        W18446   6.785  21.456   2.358
52016W        W18447  21.316  21.597   4.137
52017W        W18448  32.361  39.894   1.381
52018W        W18449  34.804  41.890  13.539
52019W        W18450  29.088   2.909   1.222
52020W        W18451  24.952   9.728   1.499
52021W        W18452  43.783  41.372   1.271
52022W        W18453  23.623  21.981   0.439
52023W        W18454  17.685  38.216   2.260
52024W        W18455  41.830  16.509   0.664
52025W        W18456  22.823  12.661   2.197
52026W        W18457  29.415  41.445  10.321
52027W        W18458  22.991  23.396  14.452
52028W        W18459  19.490  42.761   1.883
52029W        W18460  19.012  41.525  13.554
52030W        W18461  14.135  43.809  12.508
52031W        W18462   0.313  29.741  14.227
52032W        W18463  33.056  28.102  11.575
52033W        W18464  23.360  43.312   2.154
52034W        W18465   5.163  38.812  12.641
52035W        W18466  32.063  43.337  11.810
52036W        W18467  30.661  12.401   4.288
52037W        W18468  36.822   8.189  11.543
52038W        W18469  27.480   1.386   2.733
52039W        W18470  21.733  11.038  14.538
52040W        W18471   3.818  13.582   0.894
52041W        W18472  35.455  35.889  10.735
52042W        W18473  11.547  34.703  11.958
52043W        W18474   3.663  22.026  11.126
52044W        W18475  25.408  30.447  14.466
52045W        W18476  32.366   7.931   2.711
52046W        W18477   9.535   0.450   2.731
52047W        W18478  33.451  37.092  10.682
52048W        W18479  12.072  26.526  14.752
52049W        W18480  10.194  26.464   0.025
52050W        W18481   4.482  14.590   1.401
52051W        W18482  16.167   3.150  12.528
52052W        W18483   3.826  35.045   3.715
52053W        W18484  29.676   7.953   3.600
52054W        W18485   4.123  24.133  11.856
52055W        W18486  24.032  39.550   4.082
52056W        W18487  37.922  22.145   0.376
52057W        W18488  31.801  28.093  14.347
52058W        W18489   7.201  36.970  14.009
52059W        W18490   8.790  40.498   4.060
52060W        W18491  37.117  37.654   0.435
52061W        W18492   3.940  44.822   3.335
52062W        W18493  29.743  23.777  13.627
52063W        W18494   3.050  38.569  10.429
52064W        W18495  10.805  25.180   3.272
52065W        W18496   0.871  37.551  11.578
52066W        W18497  32.577  13.165   3.288
52067W        W18498  12.878  14.645  12.401
52068W        W18499  33.550  26.307   2.913
52069W        W18500  16.786  39.980   0.941
52070W        W18501   6.205   5.406  14.833
52071W        W18502  44.475  15.653   1.727
52072W        W18503  11.684  15.633  14.430
52073W        W18504   9.666   0.455   1.777
52074W        W18505  43.002  29.608   3.178
52075W        W18506  16.595  10.929   3.076
52076W        W18507  38.563   6.142  11.218
52077W        W18508  28.111  37.507  11.519
52078W        W18509  14.543  28.524   0.616
52079W        W18510   9.200  43.866  14.718
52080W        W18511  41.967  14.134   4.981
52081W        W18512  44.777  41.415  13.870
52082W        W18513  33.487  43.825  10.894
52083W        W18514   4.986  39.042   2.314
52084W        W18515  23.006  24.889  12.159
52085W        W18516  34.240  20.169  14.290
52086W        W18517  11.700  26.419   4.548
52087W        W18518  14.157  22.585   0.366
52088W        W18519  20.199   5.918  13.907
52089W        W18520  42.023  37.058   3.640
52090W        W18521  26.699  15.800   0.705
52091W        W18522  37.925  27.542  13.868
52092W        W18523  35.101  28.426  10.591
52093W        W18524  12.146   8.349   3.655
52094W        W18525  34.865   8.362   0.758
52095W        W18526  11.712  10.920   0.274
52096W        W18527  40.803  11.246   3.822
52097W        W18528   9.421  13.272   3.516
52098W        W18529  31.625  12.166  13.055
52099W        W18530  25.477  39.888  13.391
52100W        W18531  27.911  16.236   4.508
52101W        W18532  25.125  26.009   4.419
52102W        W18533   4.989  18.163   4.083
52103W        W18534   5.561  34.839  14.080
52104W        W18535  40.859   3.804  13.381
52105W        W18536   5.300  25.915   0.331
52106W        W18537  12.891  19.188   1.408
52107W        W18538  16.746   3.381   4.619
52108W        W18539   8.833  39.205   3.250
52109W        W18540  30.713   1.236  14.871
52110W        W18541  34.937  36.305   2.774
52111W        W18542  24.269  34.192   5.653
52112W        W18543  29.819  16.169  11.649
52113W        W18544  24.634  37.966  14.867
52114W        W18545   8.116  20.822   0.919
52115W        W18546  30.341  20.300  13.302
52116W        W18547  43.423  17.780   3.914
52117W        W18548  27.862  13.541   3.239
52118W        W18549  41.356  25.100  14.772
52119W        W18550  22.768  42.822   1.819
52120W        W18551  40.959  11.604  14.883
52121W        W18552  42.057   4.055   0.417
52122W        W18553  39.106  26.957  11.388
52123W        W18554  34.571  33.295   4.045
52124W        W18555   7.002  21.173  11.582
52125W        W18556   8.605  32.736   4.063
52126W        W18557   2.889  37.795  12.561
52127W        W18558  39.212  18.635  12.459
52128W        W18559  15.654  17.284   2.381
52129W        W18560  21.753  23.234   1.669
52130W        W18561  20.224  42.592   2.924
52131W        W18562  23.124  14.297   0.230
52132W        W18563  40.462  12.637  10.781
52133W        W18564   0.340  37.572   3.680
52134W        W18565  22.095   2.897  11.606
52135W        W18566  41.287  23.635   1.253
52136W        W18567  23.488  32.007  12.980
52137W        W18568  39.109  44.992  11.114
52138W        W18569  39.005  21.035  10.338
52139W        W18570  43.452  32.407   3.031
52140W        W18571  40.801  15.369   3.138
52141W        W18572  33.637  28.149  13.855
52142W        W18573  28.428  10.134  13.456
52143W        W18574   9.000  18.302  11.775
52144W        W18575  36.035   9.129   3.055
52145W        W18576  14.181  33.780   1.083
52146W        W18577  11.897  17.894  13.743
52147W        W18578   4.226  33.918  11.653
52148W        W18579   3.710   8.815  11.496
52149W        W18580   8.934  41.274  11.958
52150W        W18581   3.968  32.510   0.295
52151W        W18582  40.783   1.780  10.994
52152W        W18583  41.461  33.985   4.169
52153W        W18584  27.961  25.124   3.283
52154W        W18585  38.821  31.421  12.582
52155W        W18586  27.119  44.881   1.300
52156W        W18587  26.915  41.737   3.232
52157W        W18588  30.500  10.907  13.772
52158W        W18589   5.261  42.012  11.207
52159W        W18590  21.452  35.649  13.879
52160W        W18591  44.055  18.186   4.327
52161W        W18592  28.712  15.665  14.052
52162W        W18593  17.827  18.237   1.897
52163W        W18594  41.185  42.893  13.855
52164W        W18595  33.107   6.951   3.253
52165W        W18596  38.591  24.103  13.622
52166W        W18597   6.233  14.238   3.470
52167W        W18598  32.373  16.207   4.288
52168W        W18599  36.957  32.780   9.803
52169W        W18600   5.452  38.489   0.963
52170W        W18601  12.759  43.021   1.827
52171W        W18602   8.963  22.945  12.866
52172W        W18603  13.776  31.016   4.761
52173W        W18604  42.938  30.703  12.971
52174W        W18605  25.217   6.302   2.227
52175W        W18606  21.929  33.462   0.190
52176W        W18607  21.464   5.338  13.576
52177W        W18608  33.078   2.382  10.737
52178W        W18609  16.096  25.984  13.377
52179W        W18610  25.209  11.014  11.046
52180W        W18611  36.314   6.906   3.806
52181W        W18612   1.307  39.869  14.596
52182W        W18613  11.759  10.836  10.816
52183W        W18614   3.005  18.081   3.419
52184W        W18615   3.877  42.355   3.387
52185W        W18616  17.129  43.314   2.370
52186W        W18617   6.400  35.666   4.899
52187W        W18618   2.416  22.902   2.311
52188W        W18619   5.306  24.243  11.040
52189W        W18620  16.487  21.790   0.319
52190W        W18621  20.002   9.348  11.005
52191W        W18622  33.068   3.102  14.014
52192W        W18623  40.354  17.370   4.908
52193W        W18624  19.565   9.269  14.074
52194W        W18625   5.224  25.488   1.367
52195W        W18626  11.896  24.094   3.180
52196W        W18627  23.826  10.334   4.096
52197W        W18628  23.560  42.754  10.691
52198W        W18629  44.379  31.772  14.371
52199W        W18630  27.824  15.374   4.242
52200W        W18631  11.970  27.933   9.948
52201W        W18632   1.302  30.639   3.112
52202W        W18633  41.957  23.285   0.249
52203W        W18634  34.323  36.445   0.039
52204W        W18635  34.077  38.274   3.671
52205W        W18636   1.576   2.038   1.761
52206W        W18637  31.945   4.977  12.421
52207W        W18638   1.278  23.729   4.561
52208W        W18639  25.654  14.676  13.869
52209W        W18640   0.333  35.928   3.631
52210W        W18641  43.048  12.759   0.399
52211W        W18642  40.659  25.016   5.171
52212W        W18643  25.371  17.772   2.938
52213W        W18644  44.784  30.052   2.666
52214W        W18645   2.818  10.630   1.217
52215W        W18646  26.497  27.880   4.872
52216W        W18647  10.210   8.742   3.458
52217W        W18648  10.636  33.158  13.077
52218W        W18649  34.848   8.706  10.689
52219W        W18650   9.585  39.355  11.996
52220W        W18651  15.986  36.427  14.309
52221W        W18652  29.945  41.938   2.381
52222W        W18653  34.902   4.171  12.881
52223W        W18654  38.861  21.684   4.079
52224W        W18655  21.121  15.337  13.973
52225W        W18656   4.383  14.269   3.620
52226W        W18657  40.786  26.720  11.559
52227W        W18658  13.270   0.806  11.513
52228W        W18659  21.442  38.410  14.350
52229W        W18660  34.704  23.149  12.009
52230W        W18661  22.013   3.355  10.809
52231W        W18662  41.604  13.515   2.712
52232W        W18663   0.145  35.280  11.707
52233W        W18664  24.465  40.878   1.702
52234W        W18665  10.444   3.650   4.931
52235W        W18666  33.030  16.780   4.793
52236W        W18667  14.379  25.152   0.439
52237W        W18668  14.052  29.300   4.705
52238W        W18669  18.245  13.211  11.198
52239W        W18670  36.967   6.015  14.907
52240W        W18671  20.722  29.211  13.368
52241W        W18672  33.107  16.225   0.959
52242W        W18673  12.245  41.287   4.601
52243W        W18674   0.772   4.319   0.819
52244W        W18675   6.458  27.438   1.260
52245W        W18676  29.929   7.953   2.590
52246W        W18677  22.668  11.634  13.939
52247W        W18678  13.163  33.657   0.449
52248W        W18679   5.508  41.759   1.737
52249W        W18680  11.401  31.095   2.751
52250W        W18681  34.077  24.189  10.907
52251W        W18682  23.133  19.078  14.669
52252W        W18683  38.346   3.271   4.701
52253W        W18684  19.821  21.173  12.433
52254W        W18685  30.638  29.505  10.626
52255W        W18686  25.790  10.873   1.926
52256W        W18687  27.557  25.967  12.462
52257W        W18688   8.651   8.600   1.135
52258W        W18689   4.269  39.574   3.335
52259W        W18690  11.382   5.932   3.306
52260W        W18691  40.808  18.119   2.657
52261W        W18692  39.597   8.166  13.861
52262W        W18693  17.313  12.638   9.798
52263W        W18694   4.247  38.319   0.033
52264W        W18695  30.757  43.996   4.339
52265W        W18696  30.429  20.834   0.725
52266W        W18697  44.352  33.579   5.249
52267W        W18698  10.460   7.953   3.632
52268W        W18699   3.185  41.001  14.359
52269W        W18700  43.126  29.144   1.814
52270W        W18701  36.850  17.604  14.029
52271W        W18702  12.809   1.186  11.620
52272W        W18703   3.635  40.867   0.071
52273W        W18704  20.994  32.477   3.753
52274W        W18705  35.345  36.666  11.555
52275W        W18706  14.783  23.372   2.119
52276W        W18707  17.429  43.464  10.733
52277W        W18708  17.554  32.304   4.239
52278W        W18709  34.846  40.427  11.645
52279W        W18710   4.630  19.511   3.328
52280W        W18711  26.693   2.844   3.610
52281W        W18712   1.379  40.578   3.924
52282W        W18713  37.346   7.442  14.771
52283W        W18714  37.311   3.359  10.215
52284W        W18715  20.509  35.518  14.768
52285W        W18716  13.682   7.466   4.221
52286W        W18717   7.296  13.777  11.552
52287W        W18718   5.942  43.980  14.433
52288W        W18719  32.693  37.106   1.833
52289W        W18720  27.951  30.391  14.421
52290W        W18721  24.314  22.937  12.134
52291W        W18722  33.066  13.980  11.257
52292W        W18723  42.081  24.075   2.884
52293W        W18724  24.493  20.216  14.902
52294W        W18725  40.757  10.260   0.088
52295W        W18726  41.414   6.995   0.415
52296W        W18727  37.482   4.836   1.120
52297W        W18728  17.471   0.269  12.201
52298W        W18729  43.431  40.337  12.626
52299W        W18730   3.196  27.988   4.085
52300W        W18731  12.196  28.991  12.087
52301W        W18732   8.647  37.442   1.357
52302W        W18733   9.099  15.193  11.104
52303W        W18734  13.534  36.338   2.275
52304W        W18735  16.044   1.969  10.734
52305W        W18736  29.732   2.244  11.486
52306W        W18737  12.337  10.275   3.310
52307W        W18738  37.931  42.002   0.205
52308W        W18739   8.892  31.988  10.085
52309W        W18740   2.149   8.220   1.764
52310W        W18741  39.266   3.307   3.604
52311W        W18742  19.484  16.672   4.524
52312W        W18743   8.517  11.524  14.008
52313W        W18744  37.599  39.987   2.690
52314W        W18745  43.911  40.478  11.254
52315W        W18746   0.805  11.058   3.360
52316W        W18747   2.746  12.835  12.176
52317W        W18748  17.378   8.558  12.607
52318W        W18749  19.257  44.912  13.393
52319W        W18750   8.773  32.956   3.119
52320W        W18751  36.053  12.322  11.954
52321W        W18752  37.222  31.371  11.176
52322W        W18753  35.360  33.378   0.871
52323W        W18754   7.388  24.179  10.453
52324W        W18755  14.048   7.474  10.968
52325W        W18756   3.824   1.299   3.730
52326W        W18757   6.651   1.330   1.104
52327W        W18758  35.083   2.648   1.875
52328W        W18759  40.750  14.312   3.357
52329W        W18760  40.016  36.299  11.510
52330W        W18761  21.733  27.462  14.774
52331W        W18762  15.453  33.694   2.272
52332W        W18763  16.547  33.336  11.100
52333W        W18764  12.602   3.441   4.570
52334W        W18765  10.544  29.073   4.211
52335W        W18766   4.844  34.685   3.184
52336W        W18767  36.523   2.846   0.821
52337W        W18768   3.285  30.133   1.771
52338W        W18769  24.052   4.663  12.766
52339W        W18770  26.167  39.889  10.786
52340W        W18771  17.911   4.176  10.654
52341W        W18772  15.402   9.356   3.805
52342W        W18773  39.021  34.737   4.724
52343W        W18774  17.626   5.641   2.203
52344W        W18775  26.530  22.519   4.172
52345W        W18776  36.826  25.390   2.588
52346W        W18777   8.144  20.147   3.481
52347W        W18778   9.936  31.398   4.521
52348W        W18779  25.057  25.955  12.990
52349W        W18780   6.866   6.629  13.026
52350W        W18781  35.376   2.151  12.131
52351W        W18782   8.433  25.029  13.674
52352W        W18783   0.027  24.014   4.240
52353W        W18784  31.078  31.699  13.925
52354W        W18785   7.592  20.300  14.932
52355W        W18786  17.780   8.893   2.837
52356W        W18787   1.368  19.006   4.658
52357W        W18788  20.131  34.040  12.522
52358W        W18789   3.214  19.070  12.481
52359W        W18790  12.600  26.218  11.540
52360W        W18791  27.058  32.466  12.548
52361W        W18792   1.691  44.041   1.616
52362W        W18793  16.707   5.009   4.940
52363W        W18794  42.464  31.892  11.126
52364W        W18795  10.727  28.704  12.942
52365W        W18796   4.940  31.712  12.063
52366W        W18797  26.580  12.747   3.392
52367W        W18798  25.023  40.839  13.532
52368W        W18799   9.483  24.156  13.037
52369W        W18800   0.494  22.070   0.507
52370W        W18801  13.099  32.290  13.388
52371W        W18802   2.826  26.402   0.144
52372W        W18803  43.722   0.159  11.518
52373W        W18804   5.918  20.867  11.979
52374W        W18805  39.858  13.680  11.563
52375W        W18806  43.237  32.436  14.434
52376W        W18807  36.384   7.432   2.949
52377W        W18808  38.437   7.241   2.596
52378W        W18809   3.412  14.529  12.500
52379W        W18810  29.043  41.861   0.657
52380W        W18811  21.599  13.799   2.571
52381W        W18812  19.070   3.369  10.677
52382W        W18813   6.609  18.644  12.012
52383W        W18814  23.316  42.425   0.817
52384W        W18815  37.607   9.870   2.777
52385W        W18816  11.154  19.978   3.076
52386W        W18817  40.540   6.507  12.179
52387W        W18818  16.331  23.466   0.393
52388W        W18819  33.862  38.300   1.112
52389W        W18820   7.806  18.725  13.527
52390W        W18821  17.146  41.980  12.499
52391W        W18822  42.316  39.441   0.794
52392W        W18823  38.594  25.942   2.891
52393W        W18824  23.240  41.744   2.391
52394W        W18825  11.715  35.788   2.724
52395W        W18826  32.653  30.551  10.949
52396W        W18827  15.842  28.874  11.990
52397W        W18828   4.024  36.537   4.789
52398W        W18829  44.685  10.791   2.162
52399W        W18830  23.177   5.457   0.314
52400W        W18831  19.327   3.188  11.711
52401W        W18832  17.079   5.483   2.212
52402W        W18833   9.294  37.272  11.047
52403W        W18834   8.420  35.479  14.792
52404W        W18835  25.738   6.255  11.827
52405W        W18836  27.704  21.128   5.061
52406W        W18837  36.847  34.785   1.357
52407W        W18838   8.878  19.729   4.141
52408W        W18839  15.245  22.616   1.733
52409W        W18840  29.509  29.597   0.103
52410W        W18841  28.758  32.573   2.768
52411W        W18842  29.837  13.627   3.467
52412W        W18843  34.054   8.472   1.264
52413W        W18844  27.947  18.010  12.561
52414W        W18845   4.096  20.840  14.480
52415W        W18846  37.003  10.909  14.746
52416W        W18847  17.613  23.813   3.283
52417W        W18848  20.091   5.246  12.400
52418W        W18849   5.488  27.038  13.047
52419W        W18850  26.884  15.370  14.782
52420W        W18851  40.352   3.691  11.564
52421W        W18852  24.421  35.486  12.636
52422W        W18853  14.822  23.457  10.609
52423W        W18854  11.895  34.745  11.546
52424W        W18855  18.448  41.549  14.093
52425W        W18856   3.243  36.909   4.728
52426W        W18857  36.082  27.694   1.262
52427W        W18858  17.098   2.357   3.620
52428W        W18859  40.826  21.249  13.006
52429W        W18860  20.503  41.113  10.732
52430W        W18861  34.645  30.616   4.606
52431W        W18862  35.635  24.346   3.266
52432W        W18863  42.274  24.536  13.077
52433W        W18864   4.761  27.137  13.904
52434W        W18865  24.358   9.058  11.049
52435W        W18866  10.632  18.271   0.917
52436W        W18867  12.153  33.742  13.652
52437W        W18868  33.404   2.789  10.800
52438W        W18869   4.969   3.035   2.814
52439W        W18870  39.594  33.657  12.892
52440W        W18871  39.663  11.572   0.926
52441W        W18872  10.650  31.444  14.274
52442W        W18873  44.804  24.624   3.194
52443W        W18874  42.755  38.286  11.557
52444W        W18875  29.844   9.408   5.233
52445W        W18876  25.679  35.498   1.625
52446W        W18877  37.923  10.577  14.786
52447W        W18878  23.845  16.846  10.320
52448W        W18879   1.402  30.474   3.581
52449W        W18880  18.214  41.937  12.457
52450W        W18881  38.699   9.367  11.106
52451W        W18882  34.664  31.456   3.725
52452W        W18883  31.154   8.695  13.961
52453W        W18884  16.638  13.503   0.854
52454W        W18885  35.016  33.370  13.376
52455W        W18886  28.678  25.450  14.627
52456W        W18887  33.805  40.604  13.856
52457W        W18888  34.607  44.471  13.070
52458W        W18889  13.645   9.900   3.552
52459W        W18890  34.828  39.969   0.395
52460W        W18891  21.044  28.397   2.292
52461W        W18892  15.803  41.398   2.281
52462W        W18893  15.769  26.423   1.824
52463W        W18894   6.418  22.124  14.933
52464W        W18895   9.200  12.058   1.498
52465W        W18896  28.468  40.017   3.469
52466W        W18897  12.047  39.673   3.318
52467W        W18898  31.259  20.989   2.177
52468W        W18899   8.429  24.460  14.803
52469W        W18900   6.191  19.181  13.886
52470W        W18901  36.285  20.126  13.557
52471W        W18902  12.761  34.333  13.876
52472W        W18903  43.757  24.538   3.133
52473W        W18904   9.910  19.089   3.653
52474W        W18905  12.087  41.384   4.108
52475W        W18906  38.529  32.806  11.577
52476W        W18907  20.192  22.727   3.363
52477W        W18908  36.349  13.161   2.705
52478W        W18909  24.100   5.928   1.802
52479W        W18910  21.580   7.582  13.380
52480W        W18911   9.265   1.245   1.223
52481W        W18912  42.849  12.921   4.527
52482W        W18913   3.568  22.798  12.240
52483W        W18914  13.367  32.384  12.951
52484W        W18915  33.054  38.691  11.548
52485W        W18916   9.703   0.735  11.656
52486W        W18917  33.183  37.016  14.917
52487W        W18918  28.027  29.358  14.752
52488W        W18919  29.260  19.692  10.763
52489W        W18920  31.548   5.289   0.379
52490W        W18921  41.542  28.253  12.598
52491W        W18922  44.521   6.134  13.406
52492W        W18923  14.710   4.574  12.497
52493W        W18924  25.474   9.191  13.663
52494W        W18925  32.336   4.027  14.474
52495W        W18926  44.660   1.386   1.990
52496W        W18927   2.513  18.083  10.692
52497W        W18928  42.421  44.057  11.576
52498W        W18929  21.525  37.052  14.882
52499W        W18930  22.751  29.048  12.870
52500W        W18931  21.272   3.458   1.212
52501W        W18932   6.231   5.454   3.594
52502W        W18933  15.848  14.747   0.905
52503W        W18934  39.429   9.101  13.351
52504W        W18935  44.829  12.219   4.909
52505W        W18936   3.042  19.589  12.456
52506W        W18937  27.406  10.697  11.543
52507W        W18938  16.098  33.323   1.200
52508W        W18939  41.616  39.022  10.472
52509W        W18940  44.007  31.952  14.673
52510W        W18941   3.116   4.787   2.985
52511W        W18942   9.425  44.378  11.616
52512W        W18943  33.388  33.331   4.529
52513W        W18944  10.318   5.424   0.440
52514W        W18945  42.717  21.029  13.333
52515W        W18946  38.044  39.262   1.886
52516W        W18947  33.765   9.328   1.863
52517W        W18948  29.987  22.793  12.070
52518W        W18949  20.755  35.565   0.256
52519W        W18950  21.674  42.807  11.855
52520W        W18951  39.550   0.776  10.842
52521W        W18952  24.762  31.961   1.477
52522W        W18953  40.306   2.864  13.035
52523W        W18954  33.298  41.399   2.139
52524W        W18955  16.332  44.314   2.852
52525W        W18956  23.829  19.048  14.024
52526W        W18957  14.157  30.169  10.659
52527W        W18958  15.760  27.702  10.210
52528W        W18959  26.501  35.743   4.144
52529W        W18960  12.069  34.982  13.317
52530W        W18961   3.158   0.273  11.652
52531W        W18962  34.250  39.170   9.619
52532W        W18963  31.930   4.268  11.704
52533W        W18964  14.894  23.764   2.436
52534W        W18965  44.915  30.026  14.363
52535W        W18966  16.097  17.540  14.296
52536W        W18967   4.382   6.306   1.583
52537W        W18968  13.247  43.479  14.223
52538W        W18969  32.429  17.428   4.453
52539W        W18970  24.711  34.595   0.476
52540W        W18971  16.510   8.223  14.975
52541W        W18972   6.820  11.235   1.463
52542W        W18973  22.546  18.507  11.988
52543W        W18974  13.560  28.203  13.009
52544W        W18975   6.828  38.934   2.882
52545W        W18976  13.309  23.509  10.678
52546W        W18977  30.574  29.885   3.623
52547W        W18978   6.751  43.850   0.003
52548W        W18979   6.205  18.673  14.941
52549W        W18980  20.342  22.265  13.990
52550W        W18981  30.868   4.966  12.564
52551W        W18982  26.169  37.307   5.306
52552W        W18983  17.332  23.170  10.609
52553W        W18984  30.100  40.820   1.212
52554W        W18985  29.607  13.742  12.068
52555W        W18986   9.394   2.430  13.298
52556W        W18987   3.678   4.510   4.414
52557W        W18988  44.168  31.594  12.321
52558W        W18989   1.039  35.837  13.460
52559W        W18990   6.328  19.691  12.489
52560W        W18991  15.920   7.688   4.525
52561W        W18992  18.246  25.085   0.185
52562W        W18993  23.873  35.447  13.488
52563W        W18994  24.019   9.586   0.282
52564W        W18995   4.837  12.186  14.876
52565W        W18996  13.290  21.467  11.938
52566W        W18997  12.380  24.722   1.483
52567W        W18998  25.777  37.501  13.372
52568W        W18999  28.705  30.918   3.222
52569W        W19000  26.578   5.374  13.200
52570W        W19001  41.360  40.916   3.722
52571W        W19002  35.039  38.941   1.412
52572W        W19003  41.073  18.578  12.246
52573W        W19004  11.487  28.677   2.226
52574W        W19005  39.880  38.400  14.160
52575W        W19006  35.836   8.199  11.621
52576W        W19007  38.571  22.240   2.740
52577W        W19008  17.033  36.866   2.051
52578W        W19009  22.546  32.569   1.196
52579W        W19010   0.373  15.300  10.642
52580W        W19011   2.225  38.657  11.170
52581W        W19012  18.171  43.591  14.073
52582W        W19013   2.346   9.069   4.125
52583W        W19014  40.955  29.966  12.465
52584W        W19015  12.295  39.885   2.850
52585W        W19016  35.845  41.807  12.472
52586W        W19017  27.408  16.288   4.845
52587W        W19018  38.814   7.459  12.729
52588W        W19019  33.166  21.909  11.840
52589W        W19020  15.518  44.767   2.680
52590W        W19021  17.811  40.825  12.838
52591W        W19022  25.967  35.920   3.228
52592W        W19023  34.008  18.557  14.113
52593W        W19024  41.697  23.349  11.095
52594W        W19025  13.745  22.469  14.257
52595W        W19026  38.545   8.194   1.425
52596W        W19027  36.054  20.196  12.347
52597W        W19028  15.354   6.332   3.617
52598W        W19029   2.193  42.752   9.858
52599W        W19030  44.629   5.753   4.678
52600W        W19031  17.523  27.275   1.743
52601W        W19032   8.866  25.202   2.958
52602W        W19033   4.879  19.998   0.180
52603W        W19034  43.785  29.408  12.168
52604W        W19035   4.859  17.081   2.263
52605W        W19036  26.087  25.823  10.721
52606W        W19037  41.120   8.886   1.273
52607W        W19038  40.470  18.078  14.269
52608W        W19039  39.462  22.133   4.503
52609W        W19040  17.216   6.081  12.459
52610W        W19041  16.749   5.106   0.822
52611W        W19042  14.763  28.516   4.753
52612W        W19043  20.598  23.247   2.683
52613W        W19044  15.451  41.197  13.350
52614W        W19045  35.910  23.742   0.809
52615W        W19046  31.406   1.683  13.012
52616W        W19047  21.302  28.960   0.819
52617W        W19048  26.884   7.624  12.002
52618W        W19049  36.143  19.456   2.820
52619W        W19050  15.083  21.912  11.513
52620W        W19051   0.854   3.592  12.602
52621W        W19052   5.838  10.837   2.438
52622W        W19053  16.084  18.312   4.082
52623W        W19054   0.653  16.431   3.568
52624W        W19055  36.363  28.988   0.245
52625W        W19056   6.578   7.511   0.081
52626W        W19057  40.010  39.759   4.163
52627W        W19058  20.036  33.004   4.102
52628W        W19059  27.648   7.418   2.354
52629W        W19060  43.421  15.093  12.098
52630W        W19061  29.706  40.405  11.638
52631W        W19062  34.572  10.437  10.874
52632W        W19063  44.328  43.002  13.003
52633W        W19064  24.791   7.216   2.125
52634W        W19065  34.777   6.467   0.480
52635W        W19066   3.341   9.370   0.334
52636W        W19067  10.948  19.311  12.094
52637W        W19068   2.350  16.814  12.155
52638W        W19069  21.635  30.708   1.198
52639W        W19070  22.214   3.974   1.793
52640W        W19071  29.135   0.444   2.193
52641W        W19072  30.636  33.365  12.926
52642W        W19073  31.413  29.663   3.759
52643W        W19074   2.558  28.045  13.733
52644W        W19075   4.490  19.378  14.493
52645W        W19076  26.125  17.252   0.483
52646W        W19077  32.673  28.268  14.771
52647W        W19078  44.283   2.838   2.777
52648W        W19079   1.855  29.907   0.376
52649W        W19080   6.307   4.884  12.120
52650W        W19081  18.812  41.474   2.711
52651W        W19082   9.481  39.824  13.324
52652W        W19083  14.942   7.024  11.699
52653W        W19084   6.427  42.230   3.311
52654W        W19085  39.927  26.222   4.472
52655W        W19086  20.308   4.304   0.381
52656W        W19087  21.134  22.495   0.885
52657W        W19088  44.790  19.239   1.244
52658W        W19089   9.332  35.335   4.359
52659W        W19090  39.213   6.946   4.987
52660W        W19091  41.037  12.165   3.383
52661W        W19092   4.897  38.003  14.909
52662W        W19093  34.026  23.596  14.889
52663W        W19094  24.653  31.202   3.166
52664W        W19095  32.983   7.153   0.865
52665W        W19096  37.077  34.857  12.575
52666W        W19097  44.494  40.550  13.401
52667W        W19098  14.415  21.550   4.168
52668W        W19099  12.838  25.942   2.943
52669W        W19100  14.128  23.681   3.731
52670W        W19101  36.036  15.592   3.346
52671W        W19102  42.797   5.653  14.421
52672W        W19103   4.811   3.991   1.390
52673W        W19104   8.097   1.875   1.730
52674W        W19105  35.392  38.311   2.375
52675W        W19106  24.925  27.526   0.111
52676W        W19107  11.230  25.687  14.408
52677W        W19108  25.708  19.451   5.506
52678W        W19109   3.474  16.606  10.641
52679W        W19110   2.022  42.964   3.662
52680W        W19111  16.602   5.334  12.467
52681W        W19112  22.570  25.435   2.474
52682W        W19113   9.103  38.439  13.288
52683W        W19114  20.238   2.091   2.661
52684W        W19115   8.793  31.453   0.324
52685W        W19116  24.683   4.747   1.705
52686W        W19117   5.750   9.339   3.405
52687W        W19118  20.035  34.230   3.757
52688W        W19119   5.268  33.961  10.943
52689W        W19120   2.246  25.662   4.679
52690W        W19121   4.412  13.439   3.072
52691W        W19122  22.576  26.983  12.425
52692W        W19123  40.310   5.159   3.199
52693W        W19124  39.071  30.157  13.605
52694W        W19125  25.593  37.487  10.163
52695W        W19126  22.917  34.329  12.964
52696W        W19127  12.078  18.672   4.240
52697W        W19128   9.807  38.595   4.508
52698W        W19129  19.126  33.868  11.570
52699W        W19130  38.538  29.830  11.602
52700W        W19131  19.274  38.391  14.325
52701W        W19132   4.823  27.796   4.955
52702W        W19133  12.559   2.696  10.754
52703W        W19134  36.387  25.006  12.548
52704W        W19135  17.035  38.078   0.637
52705W        W19136  13.167  34.082   4.057
52706W        W19137  36.752  38.580   0.360
52707W        W19138  30.968  35.005  10.980
52708W        W19139  35.520   7.634  13.876
52709W        W19140   2.791   1.117   1.715
52710W        W19141   9.170  12.818   1.830
52711W        W19142  44.381  21.687   4.278
52712W        W19143  30.419  33.905   4.374
52713W        W19144  41.842  33.636   3.131
52714W        W19145   6.789  14.657   1.916
52715W        W19146  35.979  40.192  10.387
52716W        W19147  44.426  17.517  13.292
52717W        W19148  13.640  28.726   2.310
52718W        W19149  15.917  20.469   0.740
52719W        W19150   0.338  21.911  11.250
52720W        W19151   0.764  17.659   1.720
52721W        W19152  27.117   8.434  12.398
52722W        W19153  41.056  24.120  12.350
52723W        W19154  30.378  21.744   2.321
52724W        W19155  41.344   2.431   4.456
52725W        W19156  25.038  24.886   3.378
52726W        W19157   1.575   4.028   1.725
52727W        W19158   0.236  18.514  13.446
52728W        W19159  15.752   7.766   1.548
52729W        W19160  15.129  22.098   2.280
52730W        W19161  32.141  28.053   2.816
52731W        W19162  27.727  43.317   3.699
52732W        W19163  23.614  44.041  14.152
52733W        W19164   5.876  11.695  13.537
52734W        W19165  25.338  15.649  12.103
52735W        W19166  40.669  16.745  14.243
52736W        W19167   5.004  13.282  12.490
52737W        W19168  18.881  20.671   0.005
52738W        W19169  31.578  30.534   4.345
52739W        W19170   3.428  24.075  11.533
52740W        W19171  41.803  32.889  12.023
52741W        W19172   4.204  14.222   2.266
52742W        W19173  20.250  18.185  10.795
52743W        W19174   7.699   0.378  13.897
52744W        W19175   4.325   8.418   3.153
52745W        W19176  43.368   2.419  12.443
52746W        W19177  42.867  35.296  13.971
52747W        W19178  10.301   8.387   0.849
52748W        W19179  38.429  44.250  11.519
52749W        W19180  13.760  13.160   4.582
52750W        W19181  36.551  12.841  13.078
52751W        W19182  27.071  16.679   2.694
52752W        W19183  21.317  33.969   3.171
52753W        W19184  36.285  20.991   1.873
52754W        W19185  11.969  14.079   3.441
52755W        W19186  15.384  17.528  12.410
52756W        W19187   0.417   2.024  13.958
52757W        W19188  10.918   7.345  11.067
52758W        W19189  29.692  16.539   4.195
52759W        W19190  42.522  27.707   0.276
52760W        W19191  37.887  18.286   0.525
52761W        W19192  29.263  31.999  14.547
52762W        W19193  15.352   6.224  11.462
52763W        W19194  32.133  19.500   2.744
52764W        W19195  39.940  30.171   3.215
52765W        W19196  31.892  12.084   1.171
52766W        W19197  41.052  39.741   9.554
52767W        W19198  25.659  38.427  13.353
52768W        W19199  25.471  10.833  11.489
52769W        W19200  30.821  28.927  12.462
52770W        W19201  26.119  37.600   2.648
52771W        W19202  25.283  33.404  11.313
52772W        W19203  44.532  33.062   3.657
52773W        W19204  33.541  13.829  11.130
52774W        W19205  12.798  17.054   0.204
52775W        W19206  24.119  20.066  14.213
52776W        W19207  29.268  34.536   4.563
52777W        W19208  11.962  30.712  11.827
52778W        W19209  23.096  18.062  13.158
52779W        W19210   9.538  38.359   4.122
52780W        W19211  43.252  30.205   4.919
52781W        W19212  16.245  22.241  14.484
52782W        W19213  16.514  15.943   3.860
52783W        W19214  36.306   1.572  13.494
52784W        W19215   2.549  27.569   2.396
52785W        W19216  10.727  36.351  13.000
52786W        W19217  11.716   2.407   2.750
52787W        W19218  18.032  18.099   5.113
52788W        W19219  27.948  39.834   1.452
52789W        W19220   8.598  24.550   4.136
52790W        W19221   3.261  43.948  14.211
52791W        W19222  21.666  17.763   2.674
52792W        W19223  21.654  14.746  12.896
52793W        W19224  35.419  27.615   0.270
52794W        W19225  40.022   9.285   1.432
52795W        W19226   7.409  28.951   0.875
52796W        W19227  44.054  43.220   3.278
52797W        W19228  29.508  29.342  12.579
52798W        W19229  23.752  14.700   4.801
52799W        W19230   6.919  28.931  12.271
52800W        W19231  36.753  24.709  12.059
52801W        W19232  29.846  27.599   1.371
52802W        W19233  37.469   5.934   1.659
52803W        W19234  32.616  38.134   2.252
52804W        W19235  41.089  36.983  12.193
52805W        W19236  21.088  21.469  10.230
52806W        W19237  25.738  20.222   3.668
52807W        W19238  13.769  21.200  10.772
52808W        W19239  18.591   5.365   4.131
52809W        W19240  29.377   2.343   0.801
52810W        W19241  12.239  22.947  10.729
52811W        W19242   4.753  22.199   2.865
52812W        W19243  35.907  22.122  11.551
52813W        W19244  26.709  27.869   4.015
52814W        W19245  20.714  34.416  12.267
52815W        W19246  19.028  21.798   2.326
52816W        W19247  32.566  11.644   0.694
52817W        W19248   7.744  10.201   0.177
52818W        W19249  21.359  19.876   9.938
52819W        W19250  33.446   5.923   2.684
52820W        W19251   7.816  29.642  10.690
52821W        W19252  44.280   9.147  10.739
52822W        W19253  32.483   6.097  14.506
52823W        W19254  16.580  30.644  14.028
52824W        W19255  23.072  23.972  11.243
52825W        W19256  40.484  42.103   4.064
52826W        W19257  38.344  33.632   1.363
52827W        W19258   8.197  37.323   4.634
52828W        W19259  43.777   4.231   4.767
52829W        W19260  18.657  19.778  13.551
52830W        W19261  17.418  33.340   4.241
52831W        W19262  27.171  25.944  14.457
52832W        W19263  42.432  31.121  13.346
52833W        W19264   1.869  24.054   1.985
52834W        W19265   0.264   3.890  14.935
52835W        W19266   5.757  22.705  14.404
52836W        W19267  14.626  23.535   3.645
52837W        W19268  10.651   5.726  12.443
52838W        W19269   5.345  21.726  13.787
52839W        W19270  28.669   1.974   3.753
52840W        W19271  37.005  21.326  10.235
52841W        W19272  13.601   9.804  11.889
52842W        W19273  36.105  11.365   3.736
52843W        W19274   0.069  12.658  10.762
52844W        W19275  41.944  40.050  10.927
52845W        W19276  16.199   5.949  13.393
52846W        W19277  22.704  37.044   4.640
52847W        W19278  17.233  36.953   0.200
52848W        W19279  22.600  25.471  10.751
52849W        W19280  41.700  34.819   5.123
52850W        W19281   3.248  12.132   4.558
52851W        W19282  41.986  12.170  10.931
52852W        W19283  14.570  15.782  13.941
52853W        W19284  12.750  22.481   1.398
52854W        W19285  30.835   3.532   4.292
52855W        W19286  15.280  43.532   0.369
52856W        W19287  30.054  23.520   4.192
52857W        W19288  21.349  26.012   1.765
52858W        W19289  21.483   7.818   4.484
52859W        W19290   1.673  18.266   4.646
52860W        W19291  25.586  36.123  13.507
52861W        W19292  25.861  35.175   5.018
52862W        W19293  19.760   5.770  12.119
52863W        W19294  43.134  23.525  12.280
52864W        W19295   9.498  19.338  11.949
52865W        W19296  38.860   4.852  13.061
52866W        W19297   3.454   9.157   3.655
52867W        W19298  14.101  29.511  13.361
52868W        W19299  33.064   8.777   2.664
52869W        W19300  32.335  18.750  14.187
52870W        W19301  19.381  34.994   2.412
52871W        W19302  23.833  20.824   5.695
52872W        W19303  40.100  33.621  12.406
52873W        W19304  36.487  40.153  12.831
52874W        W19305   7.910   4.231  14.871
52875W        W19306  29.155  25.571  14.431
52876W        W19307  38.022  28.581   1.605
52877W        W19308  14.338  38.037  12.224
52878W        W19309  27.163  19.543  13.417
52879W        W19310  13.283  18.752   1.928
52880W        W19311  39.121   2.819   2.114
52881W        W19312  34.475  38.473   2.111
52882W        W19313   1.772  22.117  14.841
52883W        W19314  23.028  13.526   2.471
52884W        W19315  40.356  23.896   1.389
52885W        W19316  13.503  17.818   1.789
52886W        W19317   9.789  30.616  14.505
52887W        W19318  20.210  36.805   1.343
52888W        W19319  33.578   3.899  10.648
52889W        W19320   1.300  42.251   3.550
52890W        W19321   8.992   6.187  10.728
52891W        W19322  24.482  26.901  14.506
52892W        W19323  43.047   0.783  12.577
52893W        W19324  32.058  43.710  10.636
52894W        W19325  21.272  30.548  12.386
52895W        W19326  28.569  38.471   1.157
52896W        W19327  27.023  44.836  12.541
52897W        W19328  33.521  40.266  12.713
52898W        W19329  11.161  28.446  14.125
52899W        W19330  20.731  19.737   0.961
52900W        W19331  19.290   1.790   1.862
52901W        W19332   0.788  24.013  14.735
52902W        W19333  26.597  41.315   3.372
52903W        W19334  41.221  11.966   2.925
52904W        W19335   6.725  34.413  13.530
52905W        W19336  34.687   0.387   0.389
52906W        W19337  11.835  30.448  10.877
52907W        W19338   5.096  43.781  14.081
52908W        W19339  13.206  24.239   2.647
52909W        W19340   1.201  26.181   1.850
52910W        W19341  35.638  21.311  13.870
52911W        W19342   2.186   1.662  11.968
52912W        W19343   8.336  41.545   2.363
52913W        W19344  22.830  18.413  13.443
52914W        W19345  11.601   4.914  14.321
52915W        W19346   5.031  24.618  13.481
52916W        W19347  21.888  13.728   3.289
52917W        W19348  39.018  33.774   2.324
52918W        W19349  21.219  30.032   1.601
52919W        W19350   1.559  24.621  11.533
52920W        W19351  26.182  22.510  12.369
52921W        W19352  36.342  32.671   1.391
52922W        W19353  24.323  28.246  12.903
52923W        W19354  10.384  35.009   1.171
52924W        W19355  13.364  39.467  12.076
52925W        W19356  17.769   1.739  10.974
52926W        W19357   8.420  27.192  10.721
52927W        W19358   1.507  30.954  13.083
52928W        W19359  40.994  36.023  11.910
52929W        W19360  22.325  23.551   0.896
52930W        W19361  33.995  15.570   2.293
52931W        W19362  10.449  17.348  12.100
52932W        W19363  27.668   0.404   1.811
52933W        W19364  25.505   8.997   3.266
52934W        W19365  19.462  17.146  12.534
52935W        W19366   8.235  24.765   3.585
52936W        W19367  17.757  26.439  12.622
52937W        W19368  25.713  10.701   0.071
52938W        W19369  32.324  19.588  11.879
52939W        W19370  44.520  21.344   5.061
52940W        W19371   7.312  42.577  13.927
52941W        W19372  28.158  25.242  10.044
52942W        W19373   1.813  39.563   4.751
52943W        W19374  35.341  37.822   3.632
52944W        W19375  12.193   6.729   2.671
52945W        W19376   0.910  12.487  10.411
52946W        W19377   9.270  24.744   3.720
52947W        W19378   8.555  18.775  14.753
52948W        W19379   1.251  33.437   1.124
52949W        W19380  27.028  19.501  10.748
52950W        W19381   5.359  38.985   2.738
52951W        W19382  40.870  19.979  11.161
52952W        W19383   6.654  34.532  10.528
52953W        W19384  35.992  15.083  14.014
52954W        W19385  21.559  19.837  12.749
52955W        W19386  12.150   9.398   4.864
52956W        W19387  27.988  15.160   3.047
52957W        W19388   6.410  36.345   4.174
52958W        W19389  40.984  23.404  11.556
52959W        W19390  44.957   0.101  11.708
52960W        W19391  29.629   7.478   5.153
52961W        W19392  31.472  21.232  12.194
52962W        W19393   2.032  32.080  10.734
52963W        W19394  28.589  24.392   2.211
52964W        W19395   8.626  30.042  10.869
52965W        W19396  44.654  10.413   0.713
52966W        W19397  42.600  25.521   1.907
52967W        W19398  44.873  23.230  12.084
52968W        W19399  18.714  10.429  13.032
52969W        W19400  15.762   8.706  12.489
52970W        W19401  20.151  18.821   5.314
52971W        W19402   5.307   9.600   3.246
52972W        W19403   8.216   1.351  12.883
52973W        W19404   0.799  43.348  13.115
52974W        W19405  40.833  15.842  14.253
52975W        W19406   4.747  33.348   3.724
52976W        W19407  43.089  25.757  14.461
52977W        W19408  16.728  34.184   4.084
52978W        W19409  41.357   5.651   1.827
52979W        W19410  19.351  27.935   0.153
52980W        W19411  10.969  30.514   2.403
52981W        W19412   2.009   1.616  12.920
52982W        W19413  34.422  31.319  13.781
52983W        W19414  25.220  27.856   2.388
52984W        W19415  12.631   6.457   2.746
52985W        W19416  10.450  28.434   4.210
52986W        W19417  16.970   2.914   4.670
52987W        W19418  10.695  29.459  11.633
52988W        W19419  36.543  42.439  12.805
52989W        W19420  38.030  15.600   1.805
52990W        W19421  22.706   0.696   1.294
52991W        W19422  11.730  42.018   1.359
52992W        W19423  31.630   5.262   4.544
52993W        W19424  39.151  31.170  14.832
52994W        W19425  39.479  31.188  11.533
52995W        W19426  20.035  31.527   3.605
52996W        W19427  26.144   4.928   1.915
52997W        W19428   9.059  36.319   1.435
52998W        W19429  43.363  11.379   4.573
52999W        W19430  40.961  11.101   4.748
53000W        W19431  37.519  31.345   0.591
53001W        W19432  11.355  35.998   1.765
53002W        W19433  21.322  22.175  10.050
53003W        W19434  30.881   7.213  12.999
53004W        W19435   3.440  34.461  10.823
53005W        W19436  34.055  13.711   0.875
53006W        W19437  29.679  16.782   4.642
53007W        W19438  44.311  25.204   3.132
53008W        W19439  27.330  42.305  12.662
53009W        W19440  33.579  31.121   3.666
53010W        W19441  11.058  30.089  10.470
53011W        W19442   0.958  26.619  12.969
53012W        W19443  30.604   1.761  14.395
53013W        W19444  14.155  33.020  10.725
53014W        W19445  24.971  44.788  13.346
53015W        W19446  14.846  12.300  14.463
53016W        W19447  39.111  35.744   0.532
53017W        W19448   0.718   4.829  14.849
53018W        W19449  23.051  35.532   3.735
53019W        W19450  38.992  22.426   3.391
53020W        W19451  20.277  14.374   5.024
53021W        W19452  15.639  17.731  14.097
53022W        W19453  23.790  29.729  11.648
53023W        W19454   8.879   4.742   3.213
53024W        W19455  32.321  30.675  10.568
53025W        W19456  13.582  17.342  11.132
53026W        W19457   6.083  35.922   1.438
53027W        W19458  13.337  19.263   2.812
53028W        W19459  26.597   9.266   1.850
53029W        W19460   8.403  12.345  11.770
53030W        W19461   8.721   7.801   2.190
53031W        W19462  15.048  24.028  14.405
53032W        W19463  10.275  41.617   1.908
53033W        W19464  44.574   5.967  12.196
53034W        W19465  20.536  33.304   0.933
53035W        W19466  41.770  31.168   0.352
53036W        W19467  11.238   3.453  11.228
53037W        W19468  11.924  41.869  12.422
53038W        W19469  22.479   6.965   4.791
53039W        W19470  26.574  43.920  13.932
53040W        W19471  39.485  41.582   1.502
53041W        W19472  20.109  43.919   1.128
53042W        W19473  30.168  18.730   4.286
53043W        W19474  24.655  15.557   1.204
53044W        W19475   0.414  34.013  11.991
53045W        W19476  17.562  20.767  12.318
53046W        W19477  39.818   4.181  12.146
53047W        W19478  31.665  37.619   2.077
53048W        W19479  28.921  37.842  11.189
53049W        W19480  38.698   2.600  12.999
53050W        W19481  14.646   5.583  11.552
53051W        W19482   9.622  27.700   4.672
53052W        W19483  28.055  12.393   1.949
53053W        W19484  40.064  11.149   1.791
53054W        W19485  19.302  15.715  10.686
53055W        W19486  20.561  25.799   3.212
53056W        W19487  25.287  11.754  11.537
53057W        W19488  37.049  41.618  10.513
53058W        W19489  29.906  44.187  11.611
53059W        W19490  41.829  43.981   2.352
53060W        W19491  37.600  15.288   4.593
53061W        W19492   2.509  16.066  13.426
53062W        W19493  44.286   1.998   0.773
53063W        W19494   6.383  17.738  12.381
53064W        W19495  43.896   1.147  13.384
53065W        W19496   0.014   1.228  13.030
53066W        W19497   0.809   1.945   2.897
53067W        W19498  44.389   2.980   0.817
53068W        W19499  38.675  36.613   2.876
53069W        W19500  40.109  12.717   0.342
53070W        W19501  27.666   0.468   4.438
53071W        W19502  11.776  28.628   3.761
53072W        W19503  12.199   0.289   1.196
53073W        W19504  25.768  44.194   4.541
53074W        W19505  26.486  25.146  13.904
53075W        W19506  17.178  24.356  10.761
53076W        W19507   0.241  35.013   3.294
53077W        W19508  30.081   7.025   0.824
53078W        W19509  44.464  44.953  12.478
53079W        W19510   3.243   2.825  14.751
53080W        W19511  24.063   1.264   4.368
53081W        W19512   5.988  11.758   0.071
53082W        W19513  29.946  23.130   0.688
53083W        W19514  10.739  18.542   1.861
53084W        W19515  37.032   9.666   4.542
53085W        W19516  34.169  25.945  11.834
53086W        W19517  35.051  19.548   4.111
53087W        W19518  26.360  40.363  11.785
53088W        W19519  24.555  44.714   2.691
53089W        W19520  22.926  10.382  11.026
53090W        W19521  43.677   4.252   1.125
53091W        W19522   0.923  44.481  13.611
53092W        W19523  14.877  36.404   4.149
53093W        W19524   6.958  11.680  11.913
53094W        W19525  14.954  33.605   2.160
53095W        W19526   0.451   5.259   0.046
53096W        W19527  43.508   9.247   0.518
53097W        W19528  30.071   9.042   9.844
53098W        W19529  14.905  16.821  10.985
53099W        W19530  20.197  13.136  14.547
53100W        W19531  37.573   2.196  11.607
53101W        W19532  19.028  26.947   2.748
53102W        W19533   6.137  21.624  11.938
53103W        W19534  44.152   0.134   1.804
53104W        W19535  13.763   3.596  12.676
53105W        W19536   3.818  17.486  10.619
53106W        W19537  41.712  10.652  12.858
53107W        W19538  24.450  28.589   0.892
53108W        W19539  39.811  35.921   1.393
53109W        W19540  11.552  27.103  14.370
53110W        W19541  31.674  32.716  11.986
53111W        W19542   3.229   4.801   2.476
53112W        W19543   8.353  29.069  13.124
53113W        W19544  15.050   7.404   0.869
53114W        W19545   3.340  17.168  10.531
53115W        W19546  13.748   9.861   1.216
53116W        W19547  22.462   0.842  10.784
53117W        W19548  29.639  28.195  14.099
53118W        W19549   9.142  38.259  11.156
53119W        W19550  43.592   9.179   1.028
53120W        W19551  20.059  16.355  12.407
53121W        W19552  16.951  33.370  10.782
53122W        W19553  15.155  17.770  13.271
53123W        W19554  44.285  32.602   3.667
53124W        W19555   5.241   0.532   3.790
53125W        W19556  43.292  16.787  14.105
53126W        W19557  32.892  32.446   3.695
53127W        W19558  34.954   2.842   4.235
53128W        W19559  37.923   8.844  13.913
53129W        W19560  31.868  11.338   0.644
53130W        W19561  13.345  34.578  10.670
53131W        W19562  10.069  25.438  14.958
53132W        W19563  33.032  23.600   4.357
53133W        W19564  12.247  28.372  11.444
53134W        W19565  23.598   1.425  14.570
53135W        W19566  43.498  24.188   3.996
53136W        W19567  27.002  30.734  10.382
53137W        W19568   1.225  35.572  11.217
53138W        W19569  34.849  27.960  12.930
53139W        W19570  21.588   8.242   2.778
53140W        W19571  20.571  36.704  11.891
53141W        W19572  39.128  40.935  13.480
53142W        W19573  43.426   1.303   2.505
53143W        W19574  44.776  35.869  12.954
53144W        W19575  42.244  19.638   3.178
53145W        W19576   0.186   7.193   2.699
53146W        W19577  16.688  16.502  13.393
53147W        W19578   3.797  35.654   2.937
53148W        W19579  31.094  37.138   3.178
53149W        W19580  19.356  37.023   4.701
53150W        W19581  40.951  41.239  11.947
53151W        W19582  29.835  21.245   3.663
53152W        W19583  35.397  13.860  12.025
53153W        W19584  41.843  30.414   3.289
53154W        W19585   7.244  20.997  11.158
53155W        W19586  42.311  28.286   1.048
53156W        W19587  29.414  18.280  11.514
53157W        W19588   0.337  40.575  14.928
53158W        W19589  28.900   2.179   0.947
53159W        W19590  41.138  28.095   4.084
53160W        W19591  15.624   1.627   4.550
53161W        W19592  41.767   0.711  14.027
53162W        W19593  38.881  36.511  11.861
53163W        W19594  26.422  27.022  14.434
53164W        W19595  37.324  10.548  11.716
53165W        W19596  22.105  44.305   3.100
53166W        W19597  25.939  16.175   2.133
53167W        W19598   7.294  10.960   4.540
53168W        W19599  31.607  35.886  13.538
53169W        W19600  38.151   1.628   2.744
53170W        W19601  21.624   5.834  11.369
53171W        W19602  24.411  23.277   1.818
53172W        W19603  12.138  37.096   0.215
53173W        W19604  13.578  20.146  10.773
53174W        W19605  30.419  23.663  14.327
53175W        W19606  10.394  10.367   3.758
53176W        W19607  10.878  39.205   2.197
53177W        W19608  35.199   1.165  10.772
53178W        W19609  18.567  26.089   2.839
53179W        W19610  10.378   5.012   4.333
53180W        W19611  18.536  28.660  12.508
53181W        W19612  39.897  12.071  10.762
53182W        W19613   4.213  39.884  14.262
53183W        W19614  10.793  10.226   3.439
53184W        W19615  38.550   1.513   0.705
53185W        W19616  40.475   4.387  12.894
53186W        W19617  35.696  12.914  14.412
53187W        W19618   5.169  12.304   3.576
53188W        W19619  17.252  36.029   4.095
53189W        W19620  18.248   2.869   2.220
53190W        W19621  13.695  44.041   4.231
53191W        W19622  32.581  42.019   4.458
53192W        W19623   6.661  16.666  13.666
53193W        W19624  30.359  37.452  12.238
53194W        W19625  24.766  41.592   1.485
53195W        W19626  25.671  24.541   2.243
53196W        W19627  39.064  33.488  13.179
53197W        W19628  22.682   7.412   3.566
53198W        W19629  25.393   8.874  11.682
53199W        W19630  36.987  31.329  13.240
53200W        W19631  44.846   5.143  12.496
53201W        W19632  26.175  14.232  14.950
53202W        W19633   9.678  28.429   0.298
53203W        W19634  33.560  44.858   1.349
53204W        W19635  42.300  23.541   3.695
53205W        W19636  37.877  25.598  11.639
53206W        W19637  20.446  10.139  11.397
53207W        W19638  28.195  36.538   4.088
53208W        W19639  20.570  22.210   2.556
53209W        W19640  21.153  31.629   1.341
53210W        W19641   9.755   8.310  12.557
53211W        W19642  25.438  33.451   1.436
53212W        W19643  33.955  41.032   0.512
53213W        W19644  18.577  28.109  11.687
53214W        W19645  21.285  11.431   2.167
53215W        W19646   9.072  39.657  14.847
53216W        W19647  33.809   2.142   3.906
53217W        W19648   5.239   6.490   1.795
53218W        W19649  13.772  22.703  13.812
53219W        W19650  10.741  15.456  13.477
53220W        W19651  17.199  26.455   4.507
53221W        W19652   7.432  35.072  10.810
53222W        W19653  16.028  13.180   4.079
53223W        W19654  15.098  18.671  13.403
53224W        W19655   4.541  13.367   2.581
53225W        W19656  26.002  15.746   2.425
53226W        W19657  44.203  17.199   5.324
53227W        W19658  22.078  10.903  13.014
53228W        W19659  20.784  16.723   9.864
53229W        W19660  28.937   1.723   2.321
53230W        W19661  37.010  18.544   3.602
53231W        W19662  30.514  31.379  14.645
53232W        W19663   1.021  33.065  10.375
53233W        W19664  23.246  14.887   3.553
53234W        W19665  23.390  11.355   0.380
53235W        W19666   4.213  20.358  12.966
53236W        W19667  36.933  12.946  13.848
53237W        W19668  24.952  33.498  11.681
53238W        W19669  31.152  28.789  11.146
53239W        W19670  38.894   5.463   3.883
53240W        W19671  13.259  16.829  11.569
53241W        W19672   6.274  31.760  13.873
53242W        W19673  35.266   7.754  13.460
53243W        W19674  10.541  25.990  12.413
53244W        W19675  16.643  34.918  14.151
53245W        W19676  17.892  30.489   1.642
53246W        W19677  12.335  22.806  14.305
53247W        W19678   8.650   7.831   0.692
53248W        W19679  36.336  16.110  11.521
53249W        W19680   4.209  32.178   4.602
53250W        W19681  26.065  29.595  13.081
53251W        W19682   9.362  21.066   2.085
53252W        W19683  17.629  38.458  14.705
53253W        W19684  30.343  28.502   1.493
53254W        W19685  23.991  26.675   0.510
53255W        W19686  31.068   0.113   2.774
53256W        W19687  12.613  36.350   1.391
53257W        W19688  11.044  28.934   4.133
53258W        W19689  10.354   9.208   0.153
53259W        W19690   3.814  38.333   0.334
53260W        W19691  26.267  29.198  14.791
53261W        W19692  13.550  37.553   4.399
53262W        W19693  28.074  14.353   4.095
53263W        W19694  33.304  23.268  12.925
53264W        W19695   9.864  40.717  11.743
53265W        W19696   1.002  20.512  13.334
53266W        W19697  18.549  22.468  12.118
53267W        W19698  24.956   4.023   4.512
53268W        W19699  23.172   3.479  11.165
53269W        W19700  35.489  40.236   1.310
53270W        W19701  35.867  23.697  12.494
53271W        W19702  44.421   9.486  13.489
53272W        W19703  44.942  14.861  13.110
53273W        W19704  38.073   4.526  11.609
53274W        W19705  24.521  28.161   0.160
53275W        W19706   1.219  32.875  13.126
53276W        W19707  21.302  42.639  14.805
53277W        W19708  42.224  43.894   0.889
53278W        W19709  23.204  11.708   1.826
53279W        W19710  36.479  37.447  14.963
53280W        W19711  37.268  25.039   2.600
53281W        W19712  36.648  40.432  13.888
53282W        W19713  16.636  26.404   0.721
53283W        W19714  19.028   5.787   0.381
53284W        W19715  12.452  12.564  10.490
53285W        W19716  36.349   4.395  11.040
53286W        W19717  14.667  15.811   3.296
53287W        W19718  20.083  29.233  14.146
53288W        W19719   9.942  13.848   4.086
53289W        W19720  17.293   6.434   2.405
53290W        W19721   2.465  35.414   3.099
53291W        W19722  10.902  20.182   4.826
53292W        W19723   9.726  17.491   2.788
53293W        W19724  36.522  15.632  11.286
53294W        W19725  24.474  42.380   1.418
53295W        W19726  11.703  21.088   3.681
53296W        W19727  29.601   3.748  10.701
53297W        W19728  42.775   9.244   2.841
53298W        W19729  12.346  36.338   4.603
53299W        W19730  36.818  34.668  14.464
53300W        W19731   4.940  35.023  11.518
53301W        W19732  30.139   6.480   1.001
53302W        W19733   7.173  28.558   3.551
53303W        W19734  11.948   3.764  13.332
53304W        W19735  18.719  23.460   3.965
53305W        W19736  43.471  15.846  13.728
53306W        W19737  30.617  41.226  14.516
53307W        W19738  40.342  26.101   1.291
53308W        W19739   2.953   7.764  14.839
53309W        W19740  35.950  24.268  11.150
53310W        W19741  40.728  30.253  11.993
53311W        W19742  43.993   8.663  13.143
53312W        W19743  28.955  30.877   1.836
53313W        W19744  12.682  34.181   4.159
53314W        W19745  24.661  10.362  12.936
53315W        W19746   8.044   8.619  13.673
53316W        W19747  34.064  38.048  13.927
53317W        W19748  18.798   2.518   3.705
53318W        W19749  18.011   1.931   1.019
53319W        W19750  24.202  30.575  11.565
53320W        W19751  34.951  36.334  11.587
53321W        W19752   1.976  31.143   4.587
53322W        W19753  25.669  27.563  12.499
53323W        W19754   4.248  24.993  14.946
53324W        W19755   8.609  42.261  12.461
53325W        W19756   0.206   1.340   3.472
53326W        W19757  28.012  27.664  14.291
53327W        W19758   3.453   1.703  12.968
53328W        W19759   4.774  23.290  11.554
53329W        W19760   5.835   0.124   0.278
53330W        W19761  33.881  32.674   4.079
53331W        W19762  30.504  23.585   0.256
53332W        W19763  31.057  10.706  11.606
53333W        W19764  21.802  24.177   2.821
53334W        W19765   9.839  34.215  12.733
53335W        W19766  23.706   5.761   2.798
53336W        W19767  21.264   0.897   1.253
53337W        W19768  25.487  44.437   1.695
53338W        W19769   1.534   4.574  12.978
53339W        W19770  40.983   3.876  14.784
53340W        W19771  19.510  24.014   0.825
53341W        W19772  15.318  37.397   0.486
53342W        W19773  42.855  34.849  14.319
53343W        W19774  16.292  12.037  10.429
53344W        W19775  16.198  18.599  14.418
53345W        W19776  31.851  39.837   2.259
53346W        W19777  11.335  19.520  13.656
53347W        W19778  35.893  10.361   3.063
53348W        W19779  42.040  12.569  14.483
53349W        W19780  25.899  16.833   0.746
53350W        W19781  44.118   8.952  11.184
53351W        W19782  18.726   1.928   3.605
53352W        W19783  23.973  32.168   0.697
53353W        W19784  22.284  36.901  14.261
53354W        W19785  18.809  30.641   1.709
53355W        W19786  30.244   3.140   3.690
53356W        W19787  24.529  12.171   4.193
53357W        W19788  42.475  40.220   2.139
53358W        W19789  35.057   4.698  12.711
53359W        W19790  44.842  37.552   2.460
53360W        W19791  39.960  37.207  14.702
53361W        W19792   0.533  22.620  14.247
53362W        W19793  35.019  42.804  13.902
53363W        W19794  18.718  11.157   2.357
53364W        W19795  34.891  16.020   0.301
53365W        W19796  14.309  15.338  14.056
53366W        W19797  13.271  37.028  12.908
53367W        W19798  11.777   4.778  13.294
53368W        W19799  15.833  27.183   3.814
53369W        W19800  41.473  25.648  12.357
53370W        W19801   4.802  16.320   0.924
53371W        W19802  43.355  17.253  13.753
53372W        W19803  27.641  37.452   1.321
53373W        W19804   7.332   4.160   3.209
53374W        W19805  22.971   2.698  11.512
53375W        W19806  10.642   9.775   2.766
53376W        W19807   9.210  17.107   0.315
53377W        W19808  13.088   6.659  10.304
53378W        W19809   7.862   5.516   3.178
53379W        W19810  40.416  38.902   3.595
53380W        W19811  24.257  26.038  12.467
53381W        W19812  22.011  10.280  10.796
53382W        W19813   0.848   0.749   4.760
53383W        W19814  38.035   2.316   0.336
53384W        W19815  16.612  43.773  10.835
53385W        W19816  30.792  17.302   3.573
53386W        W19817   9.269   0.734  12.004
53387W        W19818  43.554  15.241  10.702
53388W        W19819  28.756   3.411  13.616
53389W        W19820   6.794  37.255  13.772
53390W        W19821   6.922  29.580  12.857
53391W        W19822   5.866  15.601   0.486
53392W        W19823  31.879  21.717  13.457
53393W        W19824   4.082  20.117   4.329
53394W        W19825  31.911  15.844   3.318
53395W        W19826  29.662  27.812   2.737
53396W        W19827  25.137  41.482   4.307
53397W        W19828  14.143  42.946   1.995
53398W        W19829  30.607   8.256  12.401
53399W        W19830  34.936  40.326   3.226
53400W        W19831  22.725   8.162   0.333
53401W        W19832  29.148  18.261   1.287
53402W        W19833  38.070  21.641   2.265
53403W        W19834  25.709  13.101  13.962
53404W        W19835  35.036  14.619  10.480
53405W        W19836  24.039  39.107  14.533
53406W        W19837  14.865  30.206   2.202
53407W        W19838  11.130   2.032  12.562
53408W        W19839  28.420  35.453  13.043
53409W        W19840   3.674  19.217  11.228
53410W        W19841  26.486  26.248  14.713
53411W        W19842  10.204   7.106  12.413
53412W        W19843  28.541  16.788   2.771
53413W        W19844   6.716  23.109   1.243
53414W        W19845   3.553  42.869  13.951
53415W        W19846  20.942   3.942   2.805
53416W        W19847   6.284  29.528  11.189
53417W        W19848   8.218   1.779  14.892
53418W        W19849  16.692  39.755   4.070
53419W        W19850  35.672  38.323  10.713
53420W        W19851  22.734   3.510  14.176
53421W        W19852   0.828   9.922   1.201
53422W        W19853  41.101  17.227  12.667
53423W        W19854  20.674   5.708   4.810
53424W        W19855  31.882   9.426   4.093
53425W        W19856  44.300   4.949   0.934
53426W        W19857  14.760  42.452  10.627
53427W        W19858  16.688  44.923   1.710
53428W        W19859  39.824  18.698   3.188
53429W        W19860   4.394  44.969   3.653
53430W        W19861  17.494  31.793   0.440
53431W        W19862   6.333  25.143  10.078
53432W        W19863  32.480  25.213   4.005
53433W        W19864   7.304  33.293  11.852
53434W        W19865  24.708  43.335  12.379
53435W        W19866   5.245  28.924  13.113
53436W        W19867  14.292   6.830  13.008
53437W        W19868  40.339   5.351   1.697
53438W        W19869  21.986  17.506  12.930
53439W        W19870  28.509   8.873   2.960
53440W        W19871  36.057  28.655   1.144
53441W        W19872  40.442  29.527   3.637
53442W        W19873  28.636  15.196   1.932
53443W        W19874  15.754  43.481  10.600
53444W        W19875  12.062  40.500   1.642
53445W        W19876   2.404   4.790  14.523
53446W        W19877  40.702   3.247  11.736
53447W        W19878  30.883   7.380   0.276
53448W        W19879  31.940  40.854   1.496
53449W        W19880   7.149  42.186   4.161
53450W        W19881  24.469  17.628  13.719
53451W        W19882  34.793  40.884  13.883
53452W        W19883  23.242  20.878  13.187
53453W        W19884  14.378  26.874  11.155
53454W        W19885   2.436   3.072   1.749
53455W        W19886  43.760  19.526  12.424
53456W        W19887  26.718  22.974   2.972
53457W        W19888   0.949   6.315   0.779
53458W        W19889  22.986  29.007   2.363
53459W        W19890   4.791  33.242  11.090
53460W        W19891   9.149  21.115   1.598
53461W        W19892  40.843  13.410   1.191
53462W        W19893  44.629  31.451  12.095
53463W        W19894  27.142   4.226  13.397
53464W        W19895  13.671   8.985   0.275
53465W        W19896  33.712   9.687  12.153
53466W        W19897  33.107  43.018  11.097
53467W        W19898  21.822  44.968  14.350
53468W        W19899   3.868   6.328   2.372
53469W        W19900   0.704  44.709  11.969
53470W        W19901  35.120  35.438   1.344
53471W        W19902   4.905  44.889  13.478
53472W        W19903  22.247   0.792   2.832
53473W        W19904  41.500   4.769   5.224
53474W        W19905  44.790   1.900  14.433
53475W        W19906  39.715  43.937   3.305
53476W        W19907  43.894  24.660   1.783
53477W        W19908  16.914  37.535   1.284
53478W        W19909   2.192  13.134   1.543
53479W        W19910   7.455  37.332   3.184
53480W        W19911   3.445  41.278  13.991
53481W        W19912  27.186  26.661   4.146
53482W        W19913  43.052  40.353   1.164
53483W        W19914  10.108  40.827  14.564
53484W        W19915  43.446  29.707  13.715
53485W        W19916  15.608  28.098   2.849
53486W        W19917  23.130  17.177   4.112
53487W        W19918   9.454  42.034  13.442
53488W        W19919  32.986  29.641  12.552
53489W        W19920   3.095  42.923   3.726
53490W        W19921  16.815  40.278   4.114
53491W        W19922   2.819  22.242  13.582
53492W        W19923  19.998  44.910   3.648
53493W        W19924  37.253  41.880  12.091
53494W        W19925  12.139  19.723  14.271
53495W        W19926  26.707  24.545  11.238
53496W        W19927  41.801  11.834   2.803
53497W        W19928  14.284  15.807   1.314
53498W        W19929  13.603  42.414   0.514
53499W        W19930  18.605  25.038   5.065
53500W        W19931  43.321  31.583   3.833
53501W        W19932  22.986  29.491  13.059
53502W        W19933  23.653   8.603   2.355
53503W        W19934   9.272  25.705  10.717
53504W        W19935  30.682  33.392  11.200
53505W        W19936   0.814  41.100  14.902
53506W        W19937  41.133  43.807  11.617
53507W        W19938   6.384   8.247  14.445
53508W        W19939   9.847   7.151   2.875
53509W        W19940  30.813   0.374   4.125
53510W        W19941  16.069  28.019  14.905
53511W        W19942  34.362  15.439  11.238
53512W        W19943   5.452  10.765  11.511
53513W        W19944  24.639  25.665   1.842
53514W        W19945  11.221   8.903   4.646
53515W        W19946  42.202  22.272   1.130
53516W        W19947  36.301   0.197  13.051
53517W        W19948   3.817  40.778   3.202
53518W        W19949   1.571  10.796  10.525
53519W        W19950   3.491  35.353  12.069
53520W        W19951  27.440   0.166   2.209
53521W        W19952   6.255  31.418  12.896
53522W        W19953  29.937  33.445   0.218
53523W        W19954  26.068   5.223   1.489
53524W        W19955  17.271   8.921   2.691
53525W        W19956  17.906  29.418   1.961
53526W        W19957  22.932  12.706   0.844
53527W        W19958  30.320   5.207  13.057
53528W        W19959  12.613  40.374   4.537
53529W        W19960  22.325  25.518   2.922
53530W        W19961   9.899  29.458  13.278
53531W        W19962   8.220   1.872   4.128
53532W        W19963  24.219  42.840  13.963
53533W        W19964  26.072  43.759  12.496
53534W        W19965   9.303  11.891   3.888
53535W        W19966  42.750  38.611  13.599
53536W        W19967   8.272  33.358   0.968
53537W        W19968  18.467  34.425  13.947
53538W        W19969  33.312  16.149   3.314
53539W        W19970  18.595  40.251  12.003
53540W        W19971  12.848  40.456  12.161
53541W        W19972  18.330   3.291   0.410
53542W        W19973  16.085  27.344  13.314
53543W        W19974  34.566  42.507   3.781
53544W        W19975  28.221  11.711  11.395
53545W        W19976  42.883  14.873  13.678
53546W        W19977  14.551  16.276  11.429
53547W        W19978  32.475  27.142  14.100
53548W        W19979  19.579  23.185   0.391
53549W        W19980  36.033  10.814  11.837
53550W        W19981   0.331  22.532  13.730
53551W        W19982  40.561  31.545   0.061
53552W        W19983  16.600   6.908   0.841
53553W        W19984  21.092  30.722  14.959
53554W        W19985  33.895   2.335  12.037
53555W        W19986  30.179  30.441   0.352
53556W        W19987   1.744  35.812  12.936
53557W        W19988  28.284  25.127   2.849
53558W        W19989  24.981  37.498  12.939
53559W        W19990  35.677  40.839   3.291
53560W        W19991  24.786  23.513   0.436
53561W        W19992  32.819  27.949  14.340
53562W        W19993  31.979  44.468   1.995
53563W        W19994  12.834  18.503   1.812
53564W        W19995  41.846  18.777  14.981
53565W        W19996  37.196  20.338   1.260
53566W        W19997   1.766  19.472   2.282
53567W        W19998   8.839   8.438   3.505
53568W        W19999  39.310  11.213  11.157
53569W        W20000   2.350  30.355   4.530
53570W        W20001  20.631  33.930  11.168
53571W        W20002   1.824  22.181  13.368
53572W        W20003   5.629  18.209  14.567
53573W        W20004  23.375   6.393  12.613
53574W        W20005  23.109  18.034   3.668
53575W        W20006   7.142  24.524   0.901
53576W        W20007  17.422   5.402  11.852
53577W        W20008  20.573  40.044   0.830
53578W        W20009   3.068  30.562   2.895
53579W        W20010  20.691  36.568  12.370
53580W        W20011  43.575  29.040   3.213
53581W        W20012   9.801  28.974  11.409
53582W        W20013  33.410  22.923  11.189
53583W        W20014  21.970  28.425  13.429
53584W        W20015  16.692  29.149   2.478
53585W        W20016  41.840  17.548  11.479
53586W        W20017  20.423  15.930  13.794
53587W        W20018  36.418  23.953  11.251
53588W        W20019   7.687  20.871   2.566
53589W        W20020  26.439  37.812   0.945
53590W        W20021  22.393  41.878  10.652
53591W        W20022  27.980   9.791   3.096
53592W        W20023  29.745   1.000  12.633
53593W        W20024  25.781  28.606   0.208
53594W        W20025  12.310   2.025  14.022
53595W        W20026   9.170  24.785   0.741
53596W        W20027  35.626  25.643  11.120
53597W        W20028   7.015  23.034   3.667
53598W        W20029  38.440  12.767  14.668
53599W        W20030  39.043  14.141  14.296
53600W        W20031   8.562   1.489   3.973
53601W        W20032   8.219  36.262  12.439
53602W        W20033  41.308  22.419  14.930
53603W        W20034  40.127   1.350   3.150
53604W        W20035  32.504  10.651  10.629
53605W        W20036   6.305  27.050   3.177
53606W        W20037  16.696  14.233   2.895
53607W        W20038   2.937   7.106  11.799
53608W        W20039   1.750  23.944   4.514
53609W        W20040  15.571  27.612  12.496
53610W        W20041  36.452   1.073   4.534
53611W        W20042  27.028  13.372   2.348
53612W        W20043  13.477   8.929   4.915
53613W        W20044   2.076  10.749   1.920
53614W        W20045   8.935   9.150   3.019
53615W        W20046  21.185  42.795  13.497
53616W        W20047  11.747  11.934   0.490
53617W        W20048  17.595   3.976  10.301
53618W        W20049  29.329  30.924  10.776
53619W        W20050  13.740  44.357  14.262
53620W        W20051  42.101  32.001   2.412
53621W        W20052  27.242  21.249  13.121
53622W        W20053  39.061  34.849   2.292
53623W        W20054  14.767  15.449  11.464
53624W        W20055  36.541   8.515   4.117
53625W        W20056  40.795  32.632  12.050
53626W        W20057  23.723  43.382  11.451
53627W        W20058  30.913   7.441  14.332
53628W        W20059  39.990  44.774   4.287
53629W        W20060  16.075  44.322   1.502
53630W        W20061  41.345  34.293   4.591
53631W        W20062  22.370  10.877   3.185
53632W        W20063   9.264  18.168  10.724
53633W        W20064  36.870  14.116   1.330
53634W        W20065  17.962  18.788   0.867
53635W        W20066  13.292  20.591   2.317
53636W        W20067  37.949  21.667   3.133
53637W        W20068  25.029  18.458   3.254
53638W        W20069  38.783  23.181  10.979
53639W        W20070  12.391  15.446  12.893
53640W        W20071  41.324  35.884  14.844
53641W        W20072   4.374  40.682  13.576
53642W        W20073  15.174   0.878  13.980
53643W        W20074  12.322  33.492  11.423
53644W        W20075  31.431  14.588   3.052
53645W        W20076   9.628  11.796   1.667
53646W        W20077  26.568  44.340  10.410
53647W        W20078  36.973  32.274  13.006
53648W        W20079  14.992  20.497  11.115
53649W        W20080   4.775   2.062  14.210
53650W        W20081   4.093  28.378   3.310
53651W        W20082  30.941  10.635   2.916
53652W        W20083   9.813  28.557   3.567
53653W        W20084  42.688  28.840  14.806
53654W        W20085  39.504   9.360  11.534
53655W        W20086  16.550   3.638   0.791
53656W        W20087  17.182  11.324  12.608
53657W        W20088  40.527   9.233   4.840
53658W        W20089  32.640  37.546   4.469
53659W        W20090   0.913  17.217  14.993
53660W        W20091   9.867  30.797   3.143
53661W        W20092  12.608  35.830  14.441
53662W        W20093   0.048  28.352  14.954
53663W        W20094  16.159   5.359  14.583
53664W        W20095  34.838  37.131  13.930
53665W        W20096  35.572   9.662  13.868
53666W        W20097  36.863  18.211   0.700
53667W        W20098  43.550  37.304   0.567
53668W        W20099  44.495  44.379  10.714
53669W        W20100  12.718   4.239   1.325
53670W        W20101  25.554  26.148  12.934
53671W        W20102  19.690  27.836   1.782
53672W        W20103  15.653  16.224   0.348
53673W        W20104   6.184   2.461  11.504
53674W        W20105  27.185  20.133   3.673
53675W        W20106  24.825  14.823   4.615
53676W        W20107   8.295  19.516   2.658
53677W        W20108  38.902  27.016  12.767
53678W        W20109   1.248  44.269   1.440
53679W        W20110  25.405   2.216  14.506
53680W        W20111  37.632   6.481   0.941
53681W        W20112  29.222   3.659   3.156
53682W        W20113  24.979  33.201  12.144
53683W        W20114  39.825  30.809   2.307
53684W        W20115  20.050  24.065   0.824
53685W        W20116   3.326  30.656  12.918
53686W        W20117   3.603  33.361   1.485
53687W        W20118  13.676  16.838  11.175
53688W        W20119  31.615  15.173   3.611
53689W        W20120   3.409  16.514   0.796
53690W        W20121  24.064  24.044   3.117
53691W        W20122  14.361  23.022  12.489
53692W        W20123  15.381  34.074  11.309
53693W        W20124  34.290  28.561  11.452
53694W        W20125  18.688  43.998  11.172
53695W        W20126  14.860  33.582   1.646
53696W        W20127  20.570  41.828   1.423
53697W        W20128  13.641  18.857  12.358
53698W        W20129  32.589  41.495   1.030
53699W        W20130  39.345   0.184   0.992
53700W        W20131   8.618  14.328   3.808
53701W        W20132  27.760   7.565   4.725
53702W        W20133  32.123  41.937   0.828
53703W        W20134  12.871  29.216   1.939
53704W        W20135  41.436  40.848  10.680
53705W        W20136  17.987   3.983  14.884
53706W        W20137  34.027   2.319   1.459
53707W        W20138  21.488  33.526   3.340
53708W        W20139  17.852  36.346  11.146
53709W        W20140  17.553  28.816   4.754
53710W        W20141  41.467   9.190   3.300
53711W        W20142  40.422  21.237  12.555
53712W        W20143  23.016  23.141  13.116
53713W        W20144  28.643  16.643  14.065
53714W        W20145  41.849  38.526  13.323
53715W        W20146   3.741  23.291   4.830
53716W        W20147  21.097  20.052  13.426
53717W        W20148  11.595   0.769  13.473
53718W        W20149   2.428   1.866   0.728
53719W        W20150  38.804  42.367  10.856
53720W        W20151  11.429  30.348   4.737
53721W        W20152   4.484  31.004  12.904
53722W        W20153   6.742  27.028  14.852
53723W        W20154  25.621  18.772   1.901
53724W        W20155  15.017  25.622  12.991
53725W        W20156  23.889  34.048   3.588
53726W        W20157  38.085   6.177  12.023
53727W        W20158   7.328  15.505   1.050
53728W        W20159   5.305   4.658   1.459
53729W        W20160  26.285   3.394   0.345
53730W        W20161  30.234  31.907   0.500
53731W        W20162  12.887  35.363  13.018
53732W        W20163   6.686   6.252  11.656
53733W        W20164  16.052  11.745  11.185
53734W        W20165  13.348  14.275  12.458
53735W        W20166   0.109  36.473   3.139
53736W        W20167  43.536  34.928   4.984
53737W        W20168  29.463  32.121   4.556
53738W        W20169  14.860  32.095   2.365
53739W        W20170   0.448   0.795   1.425
53740W        W20171   4.684  39.968   1.229
53741W        W20172  21.197  42.323  11.177
53742W        W20173   3.724  13.842  13.569
53743W        W20174   7.661  13.717   3.289
53744W        W20175  22.337   5.828   4.131
53745W        W20176  43.966  11.082   0.464
53746W        W20177  12.800  15.423  10.773
53747W        W20178   0.834   3.449   2.578
53748W        W20179  24.090   6.904  14.690
53749W        W20180  24.282  35.119  11.571
53750W        W20181  38.127  10.648   1.733
53751W        W20182  41.466  28.452   1.403
53752W        W20183  40.955  36.341  14.097
53753W        W20184  29.235  23.582   0.816
53754W        W20185   5.952  28.133  13.444
53755W        W20186  37.556   4.263   3.229
53756W        W20187  13.751  27.399  13.808
53757W        W20188   9.030  14.065   4.602
53758W        W20189  34.475   0.658  14.996
53759W        W20190  37.249  37.837   0.927
53760W        W20191  28.608   1.650   2.922
53761W        W20192  31.007  22.237   0.346
53762W        W20193  11.826  21.310   2.339
53763W        W20194  34.938  42.021   1.875
53764W        W20195  12.248   2.295   1.207
53765W        W20196  37.009  33.160  12.500
53766W        W20197  34.900  21.164  11.662
53767W        W20198   6.205  19.528   2.564
53768W        W20199  35.016   8.360  14.856
53769W        W20200  19.116  24.098   1.156
53770W        W20201  42.717   1.082  13.943
53771W        W20202  31.585  23.804   1.011
53772W        W20203  38.046  24.792  13.123
53773W        W20204  17.248  34.459   0.821
53774W        W20205  20.279  38.651   2.723
53775W        W20206  32.343  10.830   4.807
53776W        W20207   7.463  30.722  14.925
53777W        W20208  41.535  17.660   1.251
53778W        W20209  14.831  33.659  11.352
53779W        W20210  15.857  22.591  14.470
53780W        W20211  42.183   4.137   3.791
53781W        W20212  11.074  43.208   0.404
53782W        W20213  29.048  33.820   0.352
53783W        W20214  17.106   5.690  11.556
53784W        W20215  39.547  19.681   1.419
53785W        W20216  14.778  23.845   3.255
53786W        W20217  30.648  11.294  13.443
53787W        W20218  42.342  34.302   1.331
53788W        W20219  11.307  30.343  12.387
53789W        W20220  17.549   8.347   3.675
53790W        W20221   1.865   7.191   0.437
53791W        W20222  40.973  32.404  11.184
53792W        W20223   8.956  13.360  11.200
53793W        W20224   1.629   6.464   1.383
53794W        W20225  14.692  41.864   3.570
53795W        W20226   3.715   9.232   1.914
53796W        W20227  10.838   3.723   0.757
53797W        W20228   2.347  35.288   4.501
53798W        W20229  36.155  31.953   3.127
53799W        W20230  18.630  12.050  12.083
53800W        W20231  20.940  36.882  12.693
53801W        W20232  32.074   2.669  13.380
53802W        W20233   3.781   5.387   0.437
53803W        W20234  17.968  37.570   4.088
53804W        W20235   8.928  17.611   1.128
53805W        W20236  16.568  25.924  12.461
53806W        W20237  21.145  27.468  13.504
53807W        W20238  38.786  29.647   0.142
53808W        W20239  22.773   5.447  13.004
53809W        W20240  22.731  31.502   0.294
53810W        W20241  37.400  13.340  14.950
53811W        W20242  36.552  29.190   0.711
53812W        W20243  27.065  31.458  12.651
53813W        W20244  18.478  19.888   2.326
53814W        W20245  25.089  14.611  14.595
53815W        W20246  31.859   1.423   0.406
53816W        W20247  34.744   4.367  12.440
53817W        W20248  44.694  11.576   2.396
53818W        W20249  15.341  30.033   2.152
53819W        W20250  13.753   6.790   2.434
53820W        W20251  35.470  43.703  14.805
53821W        W20252  15.138   9.208   2.243
53822W        W20253  37.425  11.257   4.628
53823W        W20254  28.254  15.140  10.393
53824W        W20255   0.398  29.609   3.581
53825W        W20256  36.455   5.986   1.661
53826W        W20257  18.260  36.050   4.420
53827W        W20258  32.858  17.277   2.771
53828W        W20259  34.468  31.068   2.442
53829W        W20260  23.534  24.477   0.324
53830W        W20261  14.603  34.434   1.638
53831W        W20262  28.291  26.019   0.921
53832W        W20263  33.969  42.782  11.153
53833W        W20264   3.405   3.246   2.976
53834W        W20265  42.881  13.116   3.523
53835W        W20266   6.119  25.243   1.437
53836W        W20267   9.433   8.353   0.764
53837W        W20268  40.597   8.471   2.820
53838W        W20269  39.985  38.816   5.284
53839W        W20270   9.076  18.662   2.322
53840W        W20271  33.612  42.393   2.159
53841W        W20272  34.999   2.629  10.781
53842W        W20273  24.948  35.042   1.858
53843W        W20274  25.592  43.904   2.331
53844W        W20275  19.396  13.421   3.749
53845W        W20276  32.213  21.252   3.219
53846W        W20277  16.499  13.266   4.983
53847W        W20278  25.581  37.468   2.107
53848W        W20279  32.405  29.288   1.895
53849W        W20280   3.678  44.422  12.065
53850W        W20281  43.403  22.708   1.240
53851W        W20282   3.991  34.832   0.806
53852W        W20283  22.058  32.846  13.969
53853W        W20284  37.929  39.959  12.105
53854W        W20285  26.714  32.648  11.617
53855W        W20286  33.737  28.959  14.416
53856W        W20287  37.032   6.721   1.034
53857W        W20288  21.836  17.222  11.284
53858W        W20289   2.244  44.967  12.566
53859W        W20290  44.584  16.024  11.372
53860W        W20291  40.899  30.411  14.765
53861W        W20292  35.824   4.485  13.162
53862W        W20293  28.995  25.741   1.949
53863W        W20294  23.621   8.342   1.402
53864W        W20295  22.992  40.081   4.510
53865W        W20296  23.947  17.266   3.833
53866W        W20297   9.289  18.209   2.142
53867W        W20298  30.288  32.375  12.961
53868W        W20299  10.615   5.355  13.821
53869W        W20300   1.767  30.922  14.391
53870W        W20301   7.587   1.962   1.789
53871W        W20302  39.379   2.401   1.872
53872W        W20303  40.447   0.564  11.707
53873W        W20304  36.434  11.611  13.628
53874W        W20305  14.695  14.757   1.422
53875W        W20306   4.171  32.334   2.507
53876W        W20307   1.432  32.837   4.795
53877W        W20308   2.474  36.805   2.708
53878W        W20309  20.648  39.025   3.643
53879W        W20310  38.814  25.562  11.224
53880W        W20311  44.855  19.491  11.086
53881W        W20312  42.283  24.391  11.734
53882W        W20313  36.866  12.831  11.240
53883W        W20314  12.198  18.350  12.419
53884W        W20315   4.677  11.188  14.104
53885W        W20316  26.917  42.515  11.760
53886W        W20317  25.710  13.268  14.901
53887W        W20318  16.301  27.538  14.746
53888W        W20319   1.633  25.298   0.504
53889W        W20320   1.679  22.927   0.532
53890W        W20321   2.564  40.010   0.429
53891W        W20322   5.434  34.754  12.714
53892W        W20323  25.741   4.455   3.199
53893W        W20324  16.689  25.384  14.276
53894W        W20325  13.428  34.924   0.040
53895W        W20326  43.708  19.029  12.370
53896W        W20327  34.403  18.060  13.455
53897W        W20328  28.528  21.864   0.287
53898W        W20329  29.119  11.562   0.972
53899W        W20330   2.058   8.914   2.284
53900W        W20331   3.778   2.077   0.428
53901W        W20332   2.127   1.462   0.869
53902W        W20333  14.185   4.555  13.668
53903W        W20334   9.836  12.167   4.276
53904W        W20335   5.349  35.580   1.745
53905W        W20336   2.880   8.759   2.620
53906W        W20337   6.971   5.223  11.156
53907W        W20338  36.957  15.944   0.410
53908W        W20339  34.710  39.212   9.870
53909W        W20340  31.137  16.550  14.567
53910W        W20341  15.001  11.778   3.636
53911W        W20342  32.085  31.637   1.817
53912W        W20343  42.366  44.602   2.900
53913W        W20344   8.729  27.573  13.444
53914W        W20345  35.071  32.027   1.793
53915W        W20346  20.034  33.977   1.364
53916W        W20347  37.305  28.831   1.296
53917W        W20348  28.980  25.267  11.183
53918W        W20349   2.726  11.348   2.145
53919W        W20350  16.117  14.608   1.304
53920W        W20351   8.602  30.330  13.464
53921W        W20352  32.991   1.186  12.482
53922W        W20353   1.282  11.224  10.589
53923W        W20354  35.615  24.368  10.726
53924W        W20355   0.307  38.458  12.894
53925W        W20356  28.449  35.365   0.330
53926W        W20357  26.132  23.536  10.515
53927W        W20358  43.468  29.514  12.580
53928W        W20359  11.823  24.608  11.579
53929W        W20360  33.393  42.638  14.365
53930W        W20361   5.323   9.212  14.408
53931W        W20362  17.730  40.056  11.417
53932W        W20363  26.842  37.346   1.711
53933W        W20364  28.128  25.442  11.118
53934W        W20365   0.493   1.510  13.909
53935W        W20366  19.103  39.973  14.372
53936W        W20367  22.006  41.365   5.005
53937W        W20368  28.178  33.050   1.904
53938W        W20369  30.519   0.985   1.773
53939W        W20370  33.297   0.007  14.572
53940W        W20371  24.941  13.770   0.795
53941W        W20372  16.666   4.945  12.907
53942W        W20373   6.416  22.853   0.459
53943W        W20374   7.144  13.746  12.902
53944W        W20375  11.610  26.504   2.289
53945W        W20376  18.612  37.033   3.405
53946W        W20377  14.731  38.581  11.032
53947W        W20378  31.601   6.304   4.604
53948W        W20379  26.885  16.755   1.026
53949W        W20380   4.372  18.264  12.640
53950W        W20381  11.604  32.573  10.330
53951W        W20382  18.829  14.423   0.896
53952W        W20383  10.908  30.216   0.690
53953W        W20384  33.064  18.678   3.778
53954W        W20385   6.323  26.254   4.586
53955W        W20386  13.558  11.530  12.334
53956W        W20387  25.514  28.530  13.330
53957W        W20388  42.129   9.292   0.115
53958W        W20389   6.879  43.981   0.487
53959W        W20390  20.738  29.977  11.388
53960W        W20391  41.150  19.216   1.991
53961W        W20392  22.475  29.470  13.038
53962W        W20393  14.259  31.077  10.570
53963W        W20394  18.763  37.045  12.097
53964W        W20395   1.807  43.113   3.217
53965W        W20396   8.631  36.118  11.546
53966W        W20397  13.741  31.091   0.338
53967W        W20398  11.733  29.493  10.769
53968W        W20399  22.965  14.166   3.221
53969W        W20400   8.960   8.316  12.006
53970W        W20401   0.896   2.718  14.945
53971W        W20402   8.282  18.540   4.142
53972W        W20403  32.185  21.453   0.073
53973W        W20404  19.639  18.151   1.350
53974W        W20405  43.352  31.888   3.157
53975W        W20406  43.914   9.816  11.527
53976W        W20407  30.123   9.894   4.149
53977W        W20408  39.742   5.422   2.344
53978W        W20409   8.282  43.791   2.035
53979W        W20410   6.945  24.981   0.456
53980W        W20411  29.904  26.083   0.438
53981W        W20412   0.685  18.227   1.077
53982W        W20413   4.322  37.452   1.933
53983W        W20414  34.767  41.408   4.022
53984W        W20415  25.399   2.311  11.620
53985W        W20416   1.516  27.524   2.164
53986W        W20417  41.038  28.575   4.269
53987W        W20418  38.158  41.831   1.617
53988W        W20419   6.638   0.958   0.248
53989W        W20420   3.919  18.998   2.837
53990W        W20421   4.705  11.404  10.731
53991W        W20422  25.218   5.336  12.731
53992W        W20423  10.814  44.621   0.301
53993W        W20424   7.471  36.445   4.334
53994W        W20425  42.069  40.565   3.729
53995W        W20426  32.382  13.350  11.255
53996W        W20427  41.693  15.343  14.780
53997W        W20428  11.308  40.619  12.535
53998W        W20429   7.326  28.942  11.123
53999W        W20430   4.223  10.857   1.182
54000W        W20431  16.601  23.678   1.728
54001W        W20432  41.244  19.719   3.290
54002W        W20433   7.691  38.371   2.222
54003W        W20434  32.642  36.369   3.104
54004W        W20435   7.571  42.481  12.362
54005W        W20436  25.276  12.173   4.638
54006W        W20437  30.034  10.461   1.584
54007W        W20438  21.935  25.303   1.889
54008W        W20439  12.715  30.533   4.497
54009W        W20440  43.957  41.823   4.596
54010W        W20441  22.619  25.405   4.182
54011W        W20442   8.529  41.621  13.463
54012W        W20443   7.713  41.539  11.568
54013W        W20444  20.460  26.688  12.505
54014W        W20445   0.489   0.481  12.331
54015W        W20446  30.755   7.194  12.498
54016W        W20447  16.685  40.471   0.774
54017W        W20448   3.861  38.802  10.652
54018W        W20449  28.713  30.960  11.615
54019W        W20450  40.927   3.687  11.515
54020W        W20451  19.340  25.006   2.063
54021W        W20452  35.976  42.446  10.682
54022W        W20453  35.618  29.991  13.636
54023W        W20454  17.681  41.418   3.606
54024W        W20455  17.458  40.213  11.833
54025W        W20456  41.724  40.318  10.121
54026W        W20457  12.013   2.424  11.957
54027W        W20458  19.811  42.202   4.107
54028W        W20459   2.891  40.120  14.691
54029W        W20460   9.485  38.292   0.394
54030W        W20461  26.190   3.293   3.178
54031W        W20462  18.414  29.063   3.185
54032W        W20463  11.671  34.691   0.870
54033W        W20464  12.115  25.906   0.976
54034W        W20465   6.385  31.049  14.269
54035W        W20466  39.034   1.906  10.599
54036W        W20467  37.587   0.481  14.047
54037W        W20468  11.667  11.044   0.834
54038W        W20469  34.594  27.771  12.536
54039W        W20470  44.906  27.265   2.860
54040W        W20471   0.020  42.558   0.656
54041W        W20472   2.286  36.499   0.422
54042W        W20473  37.729  21.925   2.713
54043W        W20474  16.861  22.831  12.797
54044W        W20475  10.911  36.507   0.629
54045W        W20476   4.461  35.108   2.292
54046W        W20477  42.907   0.209   4.616
54047W        W20478  26.643  44.369   0.019
54048W        W20479  41.249   8.471   4.575
54049W        W20480  13.790  23.962  13.520
54050W        W20481  14.018  15.153   2.358
54051W        W20482   8.765   0.426   0.317
54052W        W20483   0.188  40.974   3.871
54053W        W20484  10.293  28.342  13.813
54054W        W20485  15.330  44.226  13.399
54055W        W20486  29.332   7.425   3.454
54056W        W20487   6.097  39.016   1.892
54057W        W20488  41.915   5.393  12.878
54058W        W20489  42.847  21.776  11.451
54059W        W20490  30.179  28.994  14.527
54060W        W20491  18.818   2.315   3.234
54061W        W20492  27.202   7.734   0.393
54062W        W20493  27.945   3.480   1.235
54063W        W20494  11.152  41.397   0.195
54064W        W20495  28.407  40.065   0.647
54065W        W20496  44.911  39.789  11.538
54066W        W20497   1.692  12.075  11.181
54067W        W20498  37.420   6.900   2.324
54068W        W20499  26.573  20.913   0.265
54069W        W20500  36.437   2.833  11.938
54070W        W20501  31.218   6.465   3.737
54071W        W20502   7.362  36.756   4.712
54072W        W20503  10.864  14.494   1.427
54073W        W20504  29.981  19.176   3.572
54074W        W20505  27.557  18.931  13.734
54075W        W20506  25.735   6.136   1.776
54076W        W20507  40.094  13.576   1.679
54077W        W20508  32.452   8.206   0.387
54078W        W20509  21.748   7.254   0.467
54079W        W20510  42.111  36.109   0.917
54080W        W20511  32.953  16.002   0.328
54081W        W20512  37.336  41.360  11.183
54082W        W20513  27.295  23.007  13.376
54083W        W20514  18.283  18.485   1.767
54084W        W20515  19.198   9.721  11.746
54085W        W20516  20.561  33.610   2.085
54086W        W20517  23.799  28.993  11.108
54087W        W20518  35.804  20.160  10.501
54088W        W20519   3.795  31.622   0.021
54089W        W20520  44.348  10.856   3.639
54090W        W20521  28.924  28.773  10.700
54091W        W20522   5.205  25.151   3.264
54092W        W20523   8.874  11.643   4.071
54093W        W20524  29.567  18.162   3.309
54094W        W20525  10.000  37.848   1.480
54095W        W20526  33.443   5.340  11.207
54096W        W20527  40.935  32.128   3.282
54097W        W20528  14.990  24.671   9.811
54098W        W20529  12.611  29.485   0.248
54099W        W20530  28.007  40.384   0.679
54100W        W20531   6.480  44.445  12.778
54101W        W20532  42.883   8.724  14.510
54102W        W20533  17.301  18.596  14.768
54103W        W20534   4.211  14.861  11.222
54104W        W20535  14.881   2.881  11.489
54105W        W20536  29.970   3.856  10.373
54106W        W20537  15.931  36.235  11.027
54107W        W20538   0.332  18.337   3.474
54108W        W20539  20.408  32.099   5.078
54109W        W20540   1.417   2.562   3.134
54110W        W20541  21.118  15.263   4.560
54111W        W20542   6.463  17.836   3.098
54112W        W20543  30.451  17.133   2.711
54113W        W20544   8.569   7.991   4.624
54114W        W20545  39.922  21.146   3.161
54115W        W20546  18.930   0.877   0.824
54116W        W20547  43.309  31.991  13.582
54117W        W20548  15.590  13.834  10.675
54118W        W20549  42.485  44.095   2.940
54119W        W20550  14.704  20.246   0.421
54120W        W20551  36.346   3.194   1.219
54121W        W20552  38.442  39.783  14.795
54122W        W20553  35.288  29.938   1.758
54123W        W20554  14.597   2.709   0.095
54124W        W20555  10.541  24.978  12.409
54125W        W20556  13.557  34.122  13.361
54126W        W20557  15.046  19.833  12.950
54127W        W20558   3.712  10.483  12.121
54128W        W20559   1.453  18.739   0.682
54129W        W20560  21.506  41.056   1.715
54130W        W20561  36.063  31.503  12.440
54131W        W20562  37.948  35.588   4.915
54132W        W20563   7.518  26.634   2.001
54133W        W20564  25.319  13.967   1.713
54134W        W20565  30.099   3.213   5.076
54135W        W20566  20.816  36.462  10.623
54136W        W20567   3.467  19.730  13.997
54137W        W20568  12.363   5.584  10.289
54138W        W20569  44.964  14.595   2.756
54139W        W20570  29.483   1.089   2.927
54140W        W20571  30.661  25.515  11.591
54141W        W20572   3.169  17.826   0.031
54142W        W20573  42.163  36.861   1.420
54143W        W20574  30.887  20.603   2.221
54144W        W20575  28.239  41.495  13.905
54145W        W20576  11.812  34.053  12.984
54146W        W20577  34.437  34.307   0.078
54147W        W20578  17.264  38.230   4.601
54148W        W20579  24.808   2.896   3.649
54149W        W20580   0.275   5.474   2.741
54150W        W20581  28.627  26.191   3.719
54151W        W20582   8.142  40.941  12.653
54152W        W20583  10.736  41.005  13.368
54153W        W20584  19.263   3.769   3.721
54154W        W20585  13.139  32.635  12.565
54155W        W20586   6.303  15.487  14.697
54156W        W20587  35.911  33.806   2.707
54157W        W20588   2.736   3.916   2.604
54158W        W20589  15.640  43.148   4.460
54159W        W20590  29.973  37.631  10.470
54160W        W20591   5.165  10.831  11.088
54161W        W20592  24.668  36.864  11.958
54162W        W20593  43.791  25.406  11.869
54163W        W20594  43.436  19.274   1.652
54164W        W20595  10.774  37.850  11.636
54165W        W20596  15.798  36.648   2.253
54166W        W20597  28.790  22.708  12.531
54167W        W20598  13.735  16.699   4.090
54168W        W20599   0.020  31.724  11.150
54169W        W20600  33.455  22.732  12.917
54170W        W20601  41.275  25.490   1.730
54171W        W20602  18.863   3.939  11.588
54172W        W20603   9.415  16.614  10.718
54173W        W20604  12.159   2.131   2.815
54174W        W20605  15.194  30.098   2.628
54175W        W20606  26.186  24.334  13.872
54176W        W20607  36.657  14.495  13.883
54177W        W20608   6.967  11.229  12.249
54178W        W20609  15.311  35.346  14.495
54179W        W20610  13.448  32.433  10.768
54180W        W20611  22.174  35.653   1.672
54181W        W20612   4.850  20.143  14.153
54182W        W20613  13.723  32.815  13.838
54183W        W20614  39.076  12.825   3.184
54184W        W20615  26.219  38.973  13.797
54185W        W20616  33.075  40.937   3.097
54186W        W20617  43.162  10.857   2.250
54187W        W20618   3.333  11.460  12.205
54188W        W20619   2.320  15.696   0.944
54189W        W20620  27.939  17.066  14.335
54190W        W20621  44.500   0.289  12.960
54191W        W20622  31.109  43.068   1.210
54192W        W20623  38.821  33.026  13.280
54193W        W20624   4.313  31.104   0.673
54194W        W20625  15.611  43.861   3.692
54195W        W20626   8.104  21.972   3.997
54196W        W20627  27.643  43.051   1.525
54197W        W20628   3.226  33.984   1.863
54198W        W20629  39.772  18.133  13.360
54199W        W20630  30.077  20.232  11.831
54200W        W20631  18.704  34.435  11.214
54201W        W20632  19.181   7.141   4.085
54202W        W20633   2.987  43.807   3.243
54203W        W20634  44.857  34.892  11.912
54204W        W20635  29.520  14.545   1.197
54205W        W20636   0.227  26.668   2.166
54206W        W20637  42.264  36.332   0.081
54207W        W20638  23.574   0.412   3.361
54208W        W20639  11.400  39.211   2.208
54209W        W20640  19.549  12.283   1.495
54210W        W20641  43.112  13.140  13.773
54211W        W20642   3.274  20.746   2.285
54212W        W20643   9.820  19.116  13.687
54213W        W20644  24.423  17.595   4.535
54214W        W20645  11.497  11.699   4.916
54215W        W20646  11.464  26.226   1.481
54216W        W20647   7.401  42.566  13.365
54217W        W20648   2.425  26.086  10.870
54218W        W20649   2.610  29.098   4.198
54219W        W20650  42.841  37.937  13.063
54220W        W20651  28.159  14.989   1.896
54221W        W20652  40.547  21.792   3.086
54222W        W20653  19.524  27.728   2.765
54223W        W20654  20.630  19.236   2.417
54224W        W20655  22.068  18.002  10.794
54225W        W20656  33.796  17.575  13.841
54226W        W20657  14.708  34.080   5.249
54227W        W20658  23.559  15.822  12.836
54228W        W20659  21.685  37.862  13.679
54229W        W20660  17.199  25.282  13.742
54230W        W20661  40.989  35.051  10.666
54231W        W20662  21.663  36.959   1.468
54232W        W20663  12.205  27.719  10.819
54233W        W20664  22.345   3.965   3.186
54234W        W20665  20.960   9.579   0.341
54235W        W20666   4.465  25.419  14.205
54236W        W20667   0.985  39.881   1.775
54237W        W20668  34.820  39.368  13.423
54238W        W20669  21.477   5.435   3.739
54239W        W20670  11.033  17.605   2.898
54240W        W20671   1.930   9.803  10.613
54241W        W20672   8.768  37.033   4.932
54242W        W20673  14.262  34.096   3.236
54243W        W20674  18.169  19.859   1.202
54244W        W20675  24.989  23.950   3.203
54245W        W20676  34.987  16.316   1.483
54246W        W20677   4.896  19.750   2.025
54247W        W20678   2.723  39.405  13.401
54248W        W20679  12.681  20.750  12.360
54249W        W20680  34.997  25.305  11.674
54250W        W20681   8.622  39.987   4.139
54251W        W20682  11.710  20.762   0.731
54252W        W20683  33.517  31.997   4.136
54253W        W20684   8.317  43.370   1.287
54254W        W20685  22.242  35.628  14.981
54255W        W20686   4.266  30.212   0.803
54256W        W20687  17.796  12.696   2.752
54257W        W20688  37.986  28.713   4.772
54258W        W20689  30.682  19.119   4.318
54259W        W20690  28.132  25.518  13.000
54260W        W20691  37.305  10.961  10.663
54261W        W20692  25.215  26.985   4.438
54262W        W20693  41.613  40.694  11.959
54263W        W20694  40.747  22.242  13.884
54264W        W20695  29.091  25.670   2.487
54265W        W20696   8.296  38.481  12.232
54266W        W20697  44.866   2.462   1.377
54267W        W20698  35.798   1.855   4.380
54268W        W20699  27.149  35.579   0.845
54269W        W20700  35.705  35.996  12.923
54270W        W20701   9.920   1.957   4.290
54271W        W20702  24.246  25.411   1.556
54272W        W20703  38.513   9.937   0.542
54273W        W20704   2.353  38.055   4.061
54274W        W20705  36.211  37.644  10.258
54275W        W20706  33.309  43.620   0.348
54276W        W20707  17.723  40.017   4.135
54277W        W20708  40.961   7.627   2.617
54278W        W20709  11.296  36.101  14.058
54279W        W20710  37.830  21.641   4.574
54280W        W20711  21.657  21.221   0.834
54281W        W20712  11.628  44.412  14.339
54282W        W20713  44.966   6.320  12.107
54283W        W20714   7.345  18.266   4.126
54284W        W20715  12.144   2.984  10.652
54285W        W20716  42.884  10.602   1.848
54286W        W20717  13.626  40.411   1.870
54287W        W20718  44.387   8.382   1.965
54288W        W20719  28.933   0.849  12.929
54289W        W20720  20.317  24.613  10.744
54290W        W20721  41.076   9.652   0.966
54291W        W20722  23.070   6.278   3.986
54292W        W20723   4.297  41.484   0.648
54293W        W20724  24.967  21.849   2.765
54294W        W20725  20.159   8.894  11.257
54295W        W20726  18.907  42.301   0.860
54296W        W20727  37.601  24.745  12.423
54297W        W20728  41.048  43.497   2.459
54298W        W20729  18.656  11.315  13.778
54299W        W20730  41.402  21.576   4.380
54300W        W20731  23.668  20.285  14.410
54301W        W20732   6.844  29.582   3.380
54302W        W20733  11.174  22.606   3.184
54303W        W20734  17.116   5.817  14.914
54304W        W20735  33.912  40.102   2.364
54305W        W20736   3.583   8.207  13.455
54306W        W20737   5.457  37.507   2.312
54307W        W20738  39.834  40.618  12.024
54308W        W20739  30.445  36.862   2.290
54309W        W20740  44.676  24.609  12.870
54310W        W20741  22.496   8.331  13.331
54311W        W20742   0.681  21.761   3.276
54312W        W20743  20.841  23.914   2.771
54313W        W20744  23.112  10.155  13.490
54314W        W20745   0.089   8.895  12.976
54315W        W20746  18.519  44.998   0.880
54316W        W20747  14.691   9.396  12.968
54317W        W20748  10.598  21.542  11.700
54318W        W20749  38.220   1.908  12.970
54319W        W20750  16.108  32.762   4.080
54320W        W20751  27.933  40.435  12.982
54321W        W20752   4.186   4.026  10.872
54322W        W20753  20.281  25.793  12.027
54323W        W20754  29.120  22.316   2.315
54324W        W20755  26.071  10.199  11.996
54325W        W20756  15.137  37.045  11.649
54326W        W20757  12.767  33.955   2.426
54327W        W20758  31.327  32.162   2.811
54328W        W20759  43.742  20.770   1.292
54329W        W20760  16.595  17.342   2.452
54330W        W20761  42.947  28.332  10.483
54331W        W20762  38.815  18.000   2.702
54332W        W20763  34.890  35.137  13.755
54333W        W20764   0.440  41.142  10.741
54334W        W20765   4.980  43.912  13.439
54335W        W20766   0.070  28.587   0.520
54336W        W20767  32.335  17.759  12.714
54337W        W20768   6.631  10.061   2.336
54338W        W20769  39.005  39.112   3.592
54339W        W20770   0.269  27.016  11.189
54340W        W20771  20.187  13.787   9.781
54341W        W20772  14.603  20.285  14.371
54342W        W20773  44.899  42.503   3.075
54343W        W20774  39.011  22.747   4.962
54344W        W20775   8.072  15.235  12.915
54345W        W20776  19.490  20.728  14.299
54346W        W20777  38.164  32.698  10.768
54347W        W20778  22.740   5.282  11.738
54348W        W20779   5.803   5.692   0.015
54349W        W20780  40.497  39.013  14.552
54350W        W20781  16.675  38.817   0.247
54351W        W20782  13.624  24.998   0.728
54352W        W20783  38.612  33.777  13.272
54353W        W20784   9.485  22.916   3.174
54354W        W20785  24.410   0.401   0.870
54355W        W20786  12.826  32.316  10.549
54356W        W20787  34.426  11.456  10.673
54357W        W20788  35.129  16.776   3.231
54358W        W20789  22.065   7.676   4.149
54359W        W20790   6.763  29.406  13.917
54360W        W20791   6.180  25.185   3.050
54361W        W20792  21.597  40.528   0.509
54362W        W20793  17.465  13.641   0.321
54363W        W20794  26.964  32.118  14.864
54364W        W20795  11.661  17.517   2.877
54365W        W20796  33.595  44.851  13.981
54366W        W20797  20.777  14.314   0.461
54367W        W20798   9.855  31.993  13.828
54368W        W20799  25.570  14.026   2.160
54369W        W20800  32.941   8.260  12.156
54370W        W20801  42.458  35.401  11.014
54371W        W20802   1.352   9.674  13.000
54372W        W20803  35.800   3.379   3.656
54373W        W20804  12.829  32.430  12.971
54374W        W20805  20.273  18.608   0.232
54375W        W20806  41.428  43.951  14.839
54376W        W20807  41.797  35.744  11.531
54377W        W20808  13.794  23.586   0.724
54378W        W20809  40.875   2.670   0.715
54379W        W20810   4.175  21.543  10.751
54380W        W20811  38.381  37.345  14.222
54381W        W20812  38.408  17.257   1.178
54382W        W20813  26.513  28.433  14.454
54383W        W20814  29.944   4.161   0.291
54384W        W20815  40.823  39.989   3.704
54385W        W20816  25.513  26.211   0.877
54386W        W20817  36.867  37.200  13.280
54387W        W20818  43.417   4.159  12.017
54388W        W20819   8.185  20.014  12.445
54389W        W20820   5.348  19.644  10.947
54390W        W20821  34.471  36.244   4.939
54391W        W20822   9.973  13.179  13.086
54392W        W20823   5.435  10.164  10.455
54393W        W20824  26.283  42.002  11.109
54394W        W20825  37.390  39.691  14.461
54395W        W20826  31.930  39.445   4.375
54396W        W20827  43.491  22.552   2.237
54397W        W20828  11.895  22.035  12.076
54398W        W20829  14.298  29.453   4.126
54399W        W20830  19.223  41.476  11.352
54400W        W20831   3.358  17.644   1.001
54401W        W20832  29.892   9.692   3.726
54402W        W20833  15.660  32.561  13.431
54403W        W20834  26.094  43.266  12.543
54404W        W20835  30.439  44.306   3.066
54405W        W20836  43.826  41.851   1.895
54406W        W20837  43.506  43.222   3.243
54407W        W20838  27.153  18.769  12.931
54408W        W20839  44.513   3.344   4.590
54409W        W20840  31.876  24.595  11.621
54410W        W20841  29.355  13.181  11.681
54411W        W20842  30.688  23.201   2.367
54412W        W20843  30.246  26.135  12.099
54413W        W20844  26.057  32.991   2.935
54414W        W20845  33.195  38.012  13.370
54415W        W20846   4.181  39.917   4.072
54416W        W20847  39.824  28.445  10.772
54417W        W20848   6.898  29.189   0.841
54418W        W20849   8.335  19.700   4.267
54419W        W20850  10.161  17.051  13.014
54420W        W20851  40.104  39.461  11.528
54421W        W20852  20.645  33.984   4.357
54422W        W20853   5.669   5.325   4.537
54423W        W20854  38.583  29.267  12.785
54424W        W20855  37.168  28.363   4.117
54425W        W20856  36.052   9.990   2.199
54426W        W20857  35.185  19.263  14.770
54427W        W20858  34.287  10.984   2.284
54428W        W20859  34.385  40.837  10.834
54429W        W20860   5.154  29.357   1.434
54430W        W20861  14.070  10.069  13.216
54431W        W20862  17.911  36.518  13.404
54432W        W20863  30.408  27.593  10.566
54433W        W20864  30.543  28.923   3.833
54434W        W20865  28.076  37.844   4.604
54435W        W20866  23.199   5.165  13.836
54436W        W20867   0.200  35.185   2.281
54437W        W20868  12.532  40.909   2.346
54438W        W20869  29.048  33.065   1.924
54439W        W20870   4.848  10.452  12.910
54440W        W20871  41.166  23.209  14.599
54441W        W20872  40.062  11.176  13.829
54442W        W20873  10.238  23.367   4.772
54443W        W20874  29.806   1.491   0.778
54444W        W20875  26.671  35.730   1.593
54445W        W20876   0.904  18.119   2.567
54446W        W20877  14.313  16.599  14.211
54447W        W20878  44.241  28.575  11.638
54448W        W20879  13.789  15.162  12.861
54449W        W20880  18.271   2.380   2.373
54450W        W20881  38.810  36.530   3.385
54451W        W20882  42.221  10.240   3.642
54452W        W20883  32.401  26.241   3.357
54453W        W20884  21.653  29.265  14.861
54454W        W20885  36.617  29.029   9.876
54455W        W20886   3.011  14.116  14.872
54456W        W20887  38.823  34.438   2.841
54457W        W20888  21.210  39.228  12.405
54458W        W20889  34.539   6.961   1.754
54459W        W20890  27.585   8.677   3.606
54460W        W20891  11.069  21.683   0.815
54461W        W20892  28.567   2.302  12.695
54462W        W20893   8.159   5.417  14.291
54463W        W20894  21.771   6.664   4.111
54464W        W20895  22.741   3.965  12.898
54465W        W20896  11.150  27.443   1.682
54466W        W20897  25.268  39.618  14.572
54467W        W20898  25.859   1.691   4.180
54468W        W20899  26.734   1.185  12.890
54469W        W20900   0.032  23.779  12.006
54470W        W20901  21.383  28.280  10.225
54471W        W20902  41.270  18.223  11.945
54472W        W20903  35.775  28.947  10.253
54473W        W20904  20.121  27.376  14.945
54474W        W20905  33.825  16.710  13.391
54475W        W20906   4.416  43.192   2.455
54476W        W20907  16.745  44.567  11.090
54477W        W20908  42.618  18.013   2.347
54478W        W20909  29.921  34.417  10.711
54479W        W20910  31.552  39.818  14.383
54480W        W20911  27.940  44.270   4.022
54481W        W20912  37.518   0.714  13.561
54482W        W20913   6.023  20.444   2.359
54483W        W20914  19.640  35.350   3.274
54484W        W20915  23.507  32.860  14.708
54485W        W20916  37.115  30.741  14.422
54486W        W20917  13.166  12.051  12.468
54487W        W20918  34.847  21.682   1.494
54488W        W20919  15.126  13.958  11.679
54489W        W20920  14.973  19.220   3.980
54490W        W20921  27.403  12.999   0.774
54491W        W20922  18.761  12.789   1.745
54492W        W20923   6.870   1.184  12.860
54493W        W20924  10.706  21.115  14.907
54494W        W20925  33.501   2.610  11.730
54495W        W20926  29.487  32.988  11.495
54496W        W20927   9.482   0.372  12.316
54497W        W20928  19.683   0.747  12.834
54498W        W20929  18.116  36.045   0.138
54499W        W20930  19.257  39.829  14.825
54500W        W20931   4.660  37.542  14.714
54501W        W20932   0.661  27.602   3.477
54502W        W20933  15.203  26.967  10.209
54503W        W20934  14.215  14.696   3.686
54504W        W20935  36.760   1.020   4.115
54505W        W20936  30.059  32.095   0.027
54506W        W20937  42.554  43.477   4.218
54507W        W20938  18.379  15.802   4.421
54508W        W20939  37.778  33.493  10.561
54509W        W20940   0.043  24.679   2.746
54510W        W20941  37.641  29.429  12.363
54511W        W20942  17.524  39.465  10.798
54512W        W20943  11.345  22.622   2.702
54513W        W20944  19.423   6.228  12.149
54514W        W20945  21.459  37.073   0.928
54515W        W20946  34.435   1.288   2.723
54516W        W20947  24.993  40.580  13.095
54517W        W20948  37.064  30.656   0.237
54518W        W20949   0.181   2.570  14.846
54519W        W20950   5.289  44.541   4.068
54520W        W20951  23.434   0.935  13.949
54521W        W20952  23.229  32.909  12.856
54522W        W20953  28.017  41.267   1.278
54523W        W20954  37.699  16.519   0.729
54524W        W20955  14.904  17.759  11.008
54525W        W20956  16.232  24.777   1.043
54526W        W20957   8.615  26.180  12.308
54527W        W20958  36.608  21.047  10.073
54528W        W20959   8.794  28.961  12.869
54529W        W20960  10.416  10.885   0.238
54530W        W20961  19.504  27.960  14.325
54531W        W20962  34.819  24.381   2.808
54532W        W20963  33.161  10.700   3.543
54533W        W20964  16.374  11.367   4.094
54534W        W20965   8.285  19.881   0.929
54535W        W20966  26.547  30.970   2.886
54536W        W20967  13.816  22.015  13.273
54537W        W20968   7.729   2.015   4.301
54538W        W20969  29.904  27.549  14.292
54539W        W20970  39.622  33.579   0.372
54540W        W20971  37.063  23.772   2.328
54541W        W20972  22.751  17.845  11.185
54542W        W20973  16.371  31.447  14.828
54543W        W20974  32.233  39.272  11.321
54544W        W20975   8.969  36.730  14.353
54545W        W20976  14.334  15.504  13.561
54546W        W20977  25.646  34.440   0.065
54547W        W20978  37.259  42.815   1.285
54548W        W20979  13.837  29.166   3.733
54549W        W20980  16.353  14.205   1.544
54550W        W20981   0.370   7.098  13.128
54551W        W20982  37.406   4.374   4.808
54552W        W20983  31.861  35.948   2.293
54553W        W20984  19.099  23.824  11.431
54554W        W20985  43.362  16.307   1.334
54555W        W20986  37.093  31.544   2.566
54556W        W20987  40.559  28.157  10.544
54557W        W20988  26.067   3.358  10.528
54558W        W20989   2.050  19.682   1.019
54559W        W20990  38.532  17.112  11.570
54560W        W20991  25.216   7.732  12.493
54561W        W20992  34.752  38.046  14.981
54562W        W20993  16.715  31.687  13.973
54563W        W20994  18.658   5.179   3.633
54564W        W20995  41.459   0.165  11.016
54565W        W20996  11.406  22.959  12.192
54566W        W20997  42.285   9.172  11.170
54567W        W20998  19.108  11.904  10.587
54568W        W20999  12.833  33.810  13.093
54569W        W21000  12.834   7.919   4.436
54570W        W21001  29.064  41.797  11.580
54571W        W21002  29.684  35.867   3.781
54572W        W21003  38.550   4.854  13.491
54573W        W21004  14.696  38.242   1.045
54574W        W21005  34.334  42.823   1.865
54575W        W21006  30.419  25.996   2.597
54576W        W21007  19.055  24.025  13.544
54577W        W21008  40.284  39.791   2.772
54578W        W21009  18.284   4.947   4.236
54579W        W21010  14.916  38.136   2.800
54580W        W21011  43.517  43.249  14.812
54581W        W21012  21.502   5.910   1.790
54582W        W21013  28.911   2.508  13.023
54583W        W21014  15.613   0.676  13.065
54584W        W21015  34.848  30.048  13.891
54585W        W21016  18.895  39.878  12.207
54586W        W21017  35.953   0.603  13.352
54587W        W21018  17.607  25.058   0.849
54588W        W21019  26.144  43.248   2.139
54589W        W21020  26.223  44.228  10.040
54590W        W21021   8.197  33.065   3.869
54591W        W21022  22.349  28.213   4.215
54592W        W21023   4.143  32.369  14.397
54593W        W21024  10.758  35.477  11.393
54594W        W21025  16.688  44.906   2.229
54595W        W21026  21.114  27.187  11.201
54596W        W21027  10.971  32.732   2.299
54597W        W21028  23.539  14.627  11.014
54598W        W21029  10.304  39.661   4.626
54599W        W21030  30.491  10.720  12.751
54600W        W21031   6.344  34.557  12.153
54601W        W21032  19.608  22.358   1.196
54602W        W21033   5.937  20.359  12.008
54603W        W21034  21.164  40.279  13.109
54604W        W21035  39.101  37.480  13.608
54605W        W21036  25.723  27.132  11.063
54606W        W21037  34.255   3.128  13.336
54607W        W21038  23.118  44.027  12.507
54608W        W21039  15.483  36.258  14.240
54609W        W21040  32.819  12.597  10.734
54610W        W21041  42.943  24.138   1.336
54611W        W21042  30.458  38.642  13.040
54612W        W21043  25.181  16.917  13.379
54613W        W21044   5.196  13.011  14.994
54614W        W21045  29.908  29.046  14.954
54615W        W21046   8.679   0.670  14.443
54616W        W21047  38.894  21.695  10.750
54617W        W21048   6.663  15.752   4.637
54618W        W21049  44.384  29.854   0.447
54619W        W21050   1.294  44.488   4.817
54620W        W21051   4.097  14.151   4.981
54621W        W21052   6.150  18.178  11.626
54622W        W21053   4.534  31.349   1.899
54623W        W21054  14.928   9.281  10.544
54624W        W21055  18.866  18.783   2.580
54625W        W21056  38.150  29.581   0.764
54626W        W21057  19.036  10.744   2.210
54627W        W21058  28.547  20.478  13.070
54628W        W21059  30.914  20.244  10.995
54629W        W21060  12.946  22.766   3.691
54630W        W21061  29.126  21.589   1.812
54631W        W21062  30.111  16.722   0.413
54632W        W21063  35.790  36.547   3.372
54633W        W21064  10.501  24.075  13.197
54634W        W21065   1.232  15.819   3.751
54635W        W21066   7.453  36.512   3.330
54636W        W21067  38.979  13.689   1.024
54637W        W21068  40.125  18.082   4.038
54638W        W21069  19.073   9.321  10.901
54639W        W21070  33.031  33.506   0.822
54640W        W21071   8.720   3.157   0.772
54641W        W21072  32.595   1.355   1.955
54642W        W21073  31.591   1.432  12.028
54643W        W21074   7.775  11.918  12.520
54644W        W21075  18.051  28.750  11.645
54645W        W21076  41.552  30.129   2.308
54646W        W21077  40.199  32.047  10.343
54647W        W21078  41.119   7.144  11.641
54648W        W21079  43.533  27.307  10.964
54649W        W21080   1.932  35.085  14.414
54650W        W21081   3.445  27.279   1.493
54651W        W21082  10.772  11.423  10.782
54652W        W21083  43.809  21.949  14.733
54653W        W21084  37.900  44.667  11.263
54654W        W21085  18.742   7.375  14.292
54655W        W21086  20.983  26.335  10.982
54656W        W21087  30.937   1.992  13.894
54657W        W21088  10.740   6.354  14.742
54658W        W21089  15.210  12.187   1.407
54659W        W21090  13.496   8.836  12.761
54660W        W21091  32.819  27.122   1.180
54661W        W21092  10.844  22.549  14.387
54662W        W21093  17.847  42.031   3.198
54663W        W21094  34.402  39.249   0.178
54664W        W21095   6.629  44.467   0.417
54665W        W21096   1.460   7.184  12.037
54666W        W21097  20.477  31.624  12.452
54667W        W21098  32.526  22.709   4.713
54668W        W21099  32.858  17.764  12.024
54669W        W21100  28.541  19.228  12.431
54670W        W21101   7.499  44.747  14.429
54671W        W21102  26.641   1.840   1.779
54672W        W21103  18.218  41.868  13.014
54673W        W21104  12.615   5.531   3.695
54674W        W21105  36.331  22.885   5.167
54675W        W21106   1.706   4.626   1.171
54676W        W21107   5.594  22.676  11.141
54677W        W21108  39.492  19.889  14.940
54678W        W21109  15.057  14.308   4.611
54679W        W21110  19.135  32.081   3.786
54680W        W21111  28.088  41.000  13.148
54681W        W21112  26.022  38.621  12.965
54682W        W21113  25.694  35.133  13.522
54683W        W21114  27.397  30.679   1.669
54684W        W21115  22.930  15.747   4.764
54685W        W21116  30.530  24.540   0.572
54686W        W21117  15.689  32.903  14.719
54687W        W21118   6.381   8.765  10.372
54688W        W21119  42.012  25.434   3.688
54689W        W21120  33.811  33.256  12.002
54690W        W21121  16.717  34.783   0.463
54691W        W21122  27.524   2.493   0.433
54692W        W21123  40.129  17.360   1.787
54693W        W21124  28.445  38.739   0.726
54694W        W21125  15.235  17.595  10.648
54695W        W21126  10.832   1.552   1.460
54696W        W21127  24.586   6.165   4.680
54697W        W21128  10.859  35.957  11.190
54698W        W21129  41.622  26.586  10.786
54699W        W21130  11.540  12.147  13.764
54700W        W21131   8.915  12.788  12.526
54701W        W21132  13.187  21.263   3.878
54702W        W21133  32.635  14.735  13.903
54703W        W21134   2.218  12.355   0.875
54704W        W21135  20.198  28.168  11.902
54705W        W21136   8.220  27.830   1.991
54706W        W21137  23.655  24.251   2.704
54707W        W21138  40.752  11.374  11.121
54708W        W21139  10.136   8.005   1.908
54709W        W21140  19.110  44.112  11.439
54710W        W21141  14.403  43.844   1.354
54711W        W21142  43.909  37.792  11.636
54712W        W21143  34.516  34.278   5.022
54713W        W21144  12.876  16.590   0.401
54714W        W21145  19.647  44.473  10.349
54715W        W21146   2.490  18.041   2.157
54716W        W21147  42.461  29.635  13.550
54717W        W21148  24.262   2.444   4.203
54718W        W21149  19.504   6.459  13.859
54719W        W21150   3.803  22.953  14.400
54720W        W21151  27.923  36.633   1.215
54721W        W21152  20.044  42.793  10.556
54722W        W21153  16.133  41.755  13.944
54723W        W21154  38.776   2.440   3.621
54724W        W21155  40.840  20.586  13.847
54725W        W21156   6.677   0.247  13.822
54726W        W21157  19.008  26.558   1.363
54727W        W21158  31.960  35.992   3.821
54728W        W21159  44.460  12.654  10.658
54729W        W21160   5.752   3.427  13.886
54730W        W21161   2.658  17.102  13.583
54731W        W21162  16.283  32.959  10.896
54732W        W21163   9.903  10.093   2.432
54733W        W21164  35.479  10.565   0.697
54734W        W21165  25.653  42.728   2.136
54735W        W21166  21.084  36.451  10.182
54736W        W21167  18.799  39.829   3.690
54737W        W21168  19.665   3.279   0.902
54738W        W21169  21.716   9.731  10.760
54739W        W21170  36.288  30.040   1.755
54740W        W21171  42.530   0.354  12.877
54741W        W21172   8.581   2.257   4.185
54742W        W21173  28.945  20.715  10.541
54743W        W21174  13.583  29.059  14.814
54744W        W21175  37.324  34.958  13.018
54745W        W21176   1.919  39.296  11.661
54746W        W21177  10.594  43.799  11.905
54747W        W21178   9.909  27.614   4.246
54748W        W21179  44.902  11.674  13.019
54749W        W21180  35.989   4.759   3.691
54750W        W21181  34.918  20.551  12.999
54751W        W21182  26.947   3.995  11.596
54752W        W21183  21.467   6.252  12.646
54753W        W21184  32.107  34.198  11.636
54754W        W21185  17.553   7.935  14.350
54755W        W21186  29.881  32.932  11.093
54756W        W21187  20.843   0.976   2.460
54757W        W21188  15.070   0.785  10.773
54758W        W21189  34.471  17.056   1.675
54759W        W21190   2.731  26.014   4.729
54760W        W21191  22.097  41.890  11.159
54761W        W21192  15.156  37.276   4.036
54762W        W21193  41.207  24.929   3.853
54763W        W21194  37.430  10.123   1.334
54764W        W21195  22.977  14.766   1.753
54765W        W21196  14.382  16.860  13.755
54766W        W21197  35.415  20.779  14.368
54767W        W21198  29.365   7.950  10.706
54768W        W21199  37.346  16.293   0.438
54769W        W21200  39.459   2.160  10.551
54770W        W21201  19.154  27.094   4.359
54771W        W21202  31.024  38.127   3.663
54772W        W21203  37.838   3.571   0.903
54773W        W21204   8.883  13.388  14.561
54774W        W21205  10.332   9.904   3.573
54775W        W21206  25.339  23.472  14.333
54776W        W21207  27.672  29.642   4.227
54777W        W21208  44.404  36.032   4.483
54778W        W21209  36.280  42.286  11.067
54779W        W21210   2.719  27.261  12.261
54780W        W21211  28.137  21.040  11.537
54781W        W21212  35.622  40.060  12.535
54782W        W21213  16.676  27.839  14.453
54783W        W21214   8.308  11.605   4.656
54784W        W21215  44.885  16.429   1.778
54785W        W21216  31.509  44.889   4.068
54786W        W21217  35.326  36.590   1.691
54787W        W21218   2.320  34.969   3.677
54788W        W21219  42.591  21.164  14.255
54789W        W21220  27.029  30.909   1.313
54790W        W21221   7.349  21.137  12.991
54791W        W21222  12.251  43.569   0.831
54792W        W21223  34.760  43.790  10.580
54793W        W21224  25.180  40.444   1.852
54794W        W21225   3.740   7.680  12.157
54795W        W21226  11.537   7.658   4.768
54796W        W21227  21.045  16.794  10.502
54797W        W21228  30.963  31.980   1.903
54798W        W21229  24.052   8.185  13.573
54799W        W21230   0.408   2.777   0.289
54800W        W21231  40.269  42.365   3.293
54801W        W21232  19.682  14.313  12.794
54802W        W21233  42.286  25.993  11.007
54803W        W21234  16.266   6.926   5.057
54804W        W21235  38.947  42.798  14.064
54805W        W21236  25.705  41.112   2.889
54806W        W21237  27.698  38.362  11.813
54807W        W21238  27.618   3.652   2.263
54808W        W21239  27.086   3.724  13.401
54809W        W21240   7.598  38.076   4.328
54810W        W21241  42.291  17.612   2.447
54811W        W21242   9.401   1.971  13.932
54812W        W21243   6.335  30.113  11.721
54813W        W21244  21.205  25.547  13.995
54814W        W21245  26.971  12.162  11.704
54815W        W21246  26.608  33.609  13.365
54816W        W21247  30.996  12.020  12.036
54817W        W21248  41.997  30.461  14.351
54818W        W21249  15.635   3.500   3.290
54819W        W21250  26.171  15.831  10.678
54820W        W21251  43.055   3.218  11.941
54821W        W21252  16.114   7.249   9.973
54822W        W21253  16.605  19.012   0.815
54823W        W21254  24.156  38.059   3.705
54824W        W21255  40.490  38.018   1.209
54825W        W21256  38.027   8.108   4.003
54826W        W21257  20.170   9.143   0.351
54827W        W21258  33.866  23.128   4.047
54828W        W21259  15.286   1.794   3.464
54829W        W21260  21.966  28.904  14.571
54830W        W21261  27.951  40.245   2.810
54831W        W21262  21.962  22.482  14.833
54832W        W21263   3.621  14.982   1.257
54833W        W21264  15.655  28.442  14.460
54834W        W21265  21.741  34.908   2.334
54835W        W21266  41.684   6.962   1.748
54836W        W21267   0.194   1.838   4.249
54837W        W21268  30.625  43.218   4.186
54838W        W21269  42.832  13.375   2.210
54839W        W21270  42.009  20.699  11.568
54840W        W21271  40.798  16.319   2.169
54841W        W21272   4.489  29.031  13.746
54842W        W21273  16.052  22.951   1.931
54843W        W21274  37.856  42.585   5.201
54844W        W21275  37.871  43.687  11.081
54845W        W21276  17.308  38.971   2.901
54846W        W21277   0.313  44.861  13.322
54847W        W21278  28.634   6.193  14.430
54848W        W21279  28.732  24.467  14.880
54849W        W21280  28.965   7.166   0.179
54850W        W21281  30.385  33.389   4.613
54851W        W21282   6.167  30.043  13.042
54852W        W21283   2.201  29.682   2.283
54853W        W21284  27.958  39.442   4.648
54854W        W21285  11.570  43.355   1.229
54855W        W21286  43.111  39.364  13.917
54856W        W21287   6.209  34.954  13.070
54857W        W21288   6.091  42.461  11.330
54858W        W21289  10.005  29.909   4.623
54859W        W21290  30.627  32.407   4.608
54860W        W21291  25.467  10.777  10.631
54861W        W21292   8.404  21.613  10.836
54862W        W21293  43.414  42.286  14.444
54863W        W21294   7.331  38.506   4.213
54864W        W21295  10.445  30.048   0.526
54865W        W21296  34.627  20.111   1.297
54866W        W21297   0.711  29.511   1.292
54867W        W21298  30.288  16.777   1.246
54868W        W21299   3.838  16.739   4.329
54869W        W21300  11.849  15.366   0.914
54870W        W21301  28.445  27.414   2.348
54871W        W21302   2.511  39.802   0.908
54872W        W21303  32.477  29.368   4.162
54873W        W21304   3.421  21.081  10.671
54874W        W21305  10.602  42.755  12.653
54875W        W21306  33.579  21.809  12.561
54876W        W21307   6.256  11.647  12.894
54877W        W21308  23.531   1.426  12.599
54878W        W21309  17.492   9.155   1.437
54879W        W21310  26.327   2.464  14.467
54880W        W21311  23.805  40.922  14.926
54881W        W21312  13.652  18.495   1.380
54882W        W21313   9.617  44.865  14.805
54883W        W21314  41.378  12.758   2.360
54884W        W21315  38.455  13.758  11.883
54885W        W21316  15.508  21.957  12.579
54886W        W21317  43.548  28.659   1.094
54887W        W21318  34.961   3.351   0.811
54888W        W21319  43.404  16.751  13.612
54889W        W21320   8.855  15.236  11.553
54890W        W21321  17.232  25.059  10.199
54891W        W21322  33.143  12.154   2.681
54892W        W21323  12.924  39.247   0.845
54893W        W21324  41.561  23.024  11.714
54894W        W21325  28.067  36.925   1.902
54895W        W21326  24.389  24.424   1.293
54896W        W21327   1.004   5.982  13.433
54897W        W21328  33.103  16.388  14.999
54898W        W21329  27.073  41.972   0.793
54899W        W21330  22.799  42.268  13.938
54900W        W21331  26.264  37.385  13.293
54901W        W21332   1.307  43.746   0.558
54902W        W21333  25.132   7.217  12.511
54903W        W21334  42.380  13.093  13.497
54904W        W21335   3.680  39.878  14.006
54905W        W21336  35.537   7.207  11.664
54906W        W21337  34.667  28.419  10.241
54907W        W21338  12.580   8.471  10.790
54908W        W21339  37.424  16.635   1.192
54909W        W21340  39.535   9.902  12.093
54910W        W21341  36.369  40.937   2.118
54911W        W21342   7.967  44.596   1.606
54912W        W21343   2.539  25.932   2.941
54913W        W21344  13.333  26.556   3.964
54914W        W21345  13.878  40.417  12.042
54915W        W21346  32.360   1.644   5.305
54916W        W21347   6.863  25.543   0.755
54917W        W21348   9.746  39.344  12.527
54918W        W21349  35.991  13.346  12.824
54919W        W21350   6.120  27.531   3.278
54920W        W21351  28.144  20.614  14.604
54921W        W21352  16.281  15.367  12.953
54922W        W21353   2.850  25.222  11.197
54923W        W21354   3.463  43.351   2.019
54924W        W21355  24.680  35.801   0.214
54925W        W21356  32.297   2.188  11.275
54926W        W21357  14.102  40.862  11.142
54927W        W21358   9.801   2.962   3.941
54928W        W21359  19.990  30.338   4.515
54929W        W21360  18.102  26.151  10.911
54930W        W21361   5.155  27.606   4.414
54931W        W21362  41.149  13.741   0.315
54932W        W21363   4.411  40.986   0.753
54933W        W21364  32.897   8.195  13.053
54934W        W21365  16.213   8.157   4.428
54935W        W21366   2.463  39.745  14.551
54936W        W21367  26.459  21.652   2.914
54937W        W21368  24.321  25.463   0.782
54938W        W21369  18.150  19.300   0.954
54939W        W21370  20.794  27.927   2.274
54940W        W21371  28.554  24.791   2.555
54941W        W21372   4.276  29.019   0.229
54942W        W21373  10.612  37.590   4.006
54943W        W21374  35.990   8.809   1.005
54944W        W21375  37.957   9.056   4.885
54945W        W21376  11.770  22.563   0.486
54946W        W21377  22.174  29.454   1.876
54947W        W21378  37.364  32.864   4.995
54948W        W21379  13.673  13.665  13.958
54949W        W21380  31.439  11.188   3.384
54950W        W21381  42.891  18.197  12.012
54951W        W21382  30.951  34.323  10.374
54952W        W21383  22.927  17.838   3.170
54953W        W21384  35.512  20.076  14.411
54954W        W21385  40.547  39.889  11.942
54955W        W21386  35.857  24.727  12.634
54956W        W21387  35.392   7.170   3.349
54957W        W21388  44.478  30.836   3.572
54958W        W21389  28.683  37.948  14.859
54959W        W21390  42.824  16.148  12.983
54960W        W21391  14.847  26.048  12.057
54961W        W21392  30.379  14.655  13.831
54962W        W21393  22.856  21.058   1.408
54963W        W21394  24.992  39.829   2.790
54964W        W21395  32.344   3.429  12.503
54965W        W21396  20.667   7.652  12.530
54966W        W21397  14.672   8.352   1.151
54967W        W21398  33.592   3.048   4.106
54968W        W21399  21.678  13.148  13.768
54969W        W21400  11.033  25.138  12.426
54970W        W21401  35.439  41.934  10.822
54971W        W21402   5.777  43.542   1.210
54972W        W21403   7.023  11.934   2.634
54973W        W21404  33.119  25.150   2.159
54974W        W21405  22.552   4.444  14.832
54975W        W21406   5.152  33.411   3.367
54976W        W21407  25.013  11.889   3.249
54977W        W21408  30.428  15.076  12.962
54978W        W21409  28.439   8.593   3.876
54979W        W21410  22.657  31.636  12.839
54980W        W21411  19.461  41.892  10.200
54981W        W21412   7.093  40.013   1.408
54982W        W21413   1.464  27.657   3.190
54983W        W21414  23.410  18.729  11.646
54984W        W21415  12.226  26.707  10.670
54985W        W21416  22.184  42.269   3.265
54986W        W21417  15.855  44.733   0.616
54987W        W21418  23.122   9.900   1.236
54988W        W21419   9.338  38.901  13.147
54989W        W21420  24.637  24.255  14.765
54990W        W21421   3.449  40.614  11.575
54991W        W21422  11.631  42.423  11.693
54992W        W21423   9.492  21.940  14.937
54993W        W21424   0.829  10.297   5.278
54994W        W21425  11.157  44.511   4.813
54995W        W21426  17.837  19.013   0.413
54996W        W21427  24.776   8.682  10.993
54997W        W21428  34.860  30.763  12.364
54998W        W21429  38.993  29.369   1.881
54999W        W21430  19.763   8.278  11.269
55000W        W21431  22.445  12.829   4.593
55001W        W21432   0.821   9.769  13.891
55002W        W21433  28.409  15.629  11.825
55003W        W21434  32.928   7.302  13.160
55004W        W21435   5.150   1.534  12.336
55005W        W21436   7.849   9.744   0.906
55006W        W21437  35.213  12.287   4.206
55007W        W21438  12.123  33.017   3.014
55008W        W21439  13.081  33.994   3.384
55009W        W21440  23.538   0.917   3.235
55010W        W21441   7.111  21.019   4.469
55011W        W21442  24.256  39.454  13.459
55012W        W21443  13.755  23.100   2.816
55013W        W21444  11.884   6.012  13.927
55014W        W21445  12.395   3.773  12.457
55015W        W21446  15.670  17.916  10.730
55016W        W21447   1.454  39.039  14.638
55017W        W21448  16.191   6.789  14.736
55018W        W21449   4.926   0.669  13.092
55019W        W21450  34.328  28.022  12.936
55020W        W21451   7.315  30.876  10.800
55021W        W21452  41.730   5.398   1.443
55022W        W21453  16.725  40.142  12.728
55023W        W21454   1.030  43.275  13.962
55024W        W21455  37.812  40.216   0.262
55025W        W21456  26.037  17.886  10.659
55026W        W21457  39.953   4.749   4.197
55027W        W21458  24.437  26.975  13.377
55028W        W21459   3.894  29.158   4.114
55029W        W21460   3.171  30.661   1.153
55030W        W21461   2.186  43.929   2.017
55031W        W21462  20.027  32.516   1.774
55032W        W21463   7.719  44.279  14.516
55033W        W21464  22.796  27.739  12.869
55034W        W21465  21.591  26.730   4.688
55035W        W21466  23.775  26.046   3.621
55036W        W21467  40.944  43.838   3.730
55037W        W21468  31.426  12.690  13.801
55038W        W21469  38.906  31.052  12.962
55039W        W21470  38.742   3.897  14.888
55040W        W21471  14.804   2.748   3.479
55041W        W21472  36.442   6.388   4.587
55042W        W21473  33.992  44.565   9.837
55043W        W21474  35.037   8.840  12.173
55044W        W21475  18.621  34.548   2.732
55045W        W21476  15.884  15.666  11.305
55046W        W21477  43.420   5.778   3.179
55047W        W21478  33.480  38.970   2.912
55048W        W21479  23.341  32.464   3.150
55049W        W21480   4.437  40.039   3.148
55050W        W21481  27.163  25.846   4.038
55051W        W21482  37.459  30.997   3.860
55052W        W21483  21.559  31.205   3.572
55053W        W21484  44.892  11.779   4.616
55054W        W21485  37.856   0.924   4.235
55055W        W21486  23.620  39.442   0.071
55056W        W21487  36.008   4.089   1.372
55057W        W21488  22.347  33.467  12.914
55058W        W21489  35.964   3.624   4.717
55059W        W21490  31.374  40.418  10.809
55060W        W21491  22.295  43.239  11.031
55061W        W21492  20.250   9.668   3.359
55062W        W21493  21.203  20.285   3.426
55063W        W21494  24.859   7.403  14.802
55064W        W21495   0.542  19.530   2.665
55065W        W21496  11.202   2.391   4.762
55066W        W21497  29.861  22.091   1.713
55067W        W21498  44.532  21.245  14.327
55068W        W21499   4.119  31.537   2.180
55069W        W21500  42.475  35.974  13.827
55070W        W21501  32.681   1.295  11.268
55071W        W21502  27.045   6.481   0.942
55072W        W21503  13.281  37.603   4.855
55073W        W21504   4.318  17.190  11.611
55074W        W21505   1.664   4.535   1.687
55075W        W21506  43.306   5.059  14.413
55076W        W21507   8.635  42.989  14.410
55077W        W21508  35.824   5.715   4.546
55078W        W21509  38.955  32.537  13.437
55079W        W21510  16.020  28.662   4.593
55080W        W21511  31.839  15.023  11.576
55081W        W21512  10.655  41.804   3.702
55082W        W21513  29.157   9.163  11.381
55083W        W21514  16.537  29.561  10.905
55084W        W21515  10.189  28.951  10.568
55085W        W21516  43.915   2.634  13.072
55086W        W21517  34.803  20.056  13.028
55087W        W21518  11.173  40.234  13.307
55088W        W21519  21.144  17.357   0.184
55089W        W21520  11.865  43.063   1.952
55090W        W21521  18.550  32.258   5.049
55091W        W21522   2.852  39.384  11.080
55092W        W21523  36.201  38.028   5.334
55093W        W21524   4.753  41.845   2.371
55094W        W21525  10.399   6.395   0.157
55095W        W21526  41.460  34.063  13.619
55096W        W21527  37.043  14.099  10.564
55097W        W21528   8.760  36.171   4.630
55098W        W21529  25.007  20.378  11.618
55099W        W21530   3.903  22.065  11.569
55100W        W21531  19.058  13.591   4.100
55101W        W21532  40.309  23.578   4.933
55102W        W21533  28.527  39.952  13.106
55103W        W21534  40.829  42.899  11.942
55104W        W21535  22.164  15.124   2.327
55105W        W21536  10.304  41.787   5.102
55106W        W21537  28.055  30.631  12.897
55107W        W21538  31.891  15.846   0.294
55108W        W21539   2.927  15.884  11.529
55109W        W21540   7.715  18.141   1.052
55110W        W21541  26.170  40.271   0.064
55111W        W21542  11.273  40.359  14.361
55112W        W21543  12.164  18.164   4.476
55113W        W21544  19.134  18.946   1.290
55114W        W21545  29.776  19.627  10.755
55115W        W21546  14.222  14.166   0.340
55116W        W21547  18.022  36.592   1.509
55117W        W21548  15.343  39.788   1.231
55118W        W21549   3.845   3.134  13.363
55119W        W21550   7.473  37.478  14.820
55120W        W21551  37.596  24.042  13.411
55121W        W21552   1.826  14.865   3.174
55122W        W21553   0.801  10.251   3.580
55123W        W21554  25.990  21.659   3.591
55124W        W21555  15.795  42.104   1.719
55125W        W21556  33.548  12.311   3.603
55126W        W21557  37.270  42.327   3.303
55127W        W21558  39.222  35.630  11.471
55128W        W21559  19.689  44.284  12.869
55129W        W21560  35.755   3.961  13.161
55130W        W21561  12.092   4.294  11.402
55131W        W21562   7.725  17.812   0.373
55132W        W21563  35.159   8.479   1.172
55133W        W21564   2.691  12.746  13.430
55134W        W21565  35.614  41.338   1.974
55135W        W21566   0.509  36.010  14.334
55136W        W21567  24.483  28.970   0.372
55137W        W21568   1.345   6.332   2.759
55138W        W21569   0.731   2.424  14.005
55139W        W21570   5.469  43.990  13.318
55140W        W21571  21.569  21.132   0.241
55141W        W21572  28.404   0.299  10.781
55142W        W21573  30.166  39.886   3.617
55143W        W21574  42.233  41.490   0.338
55144W        W21575  30.669  31.883   3.157
55145W        W21576   8.697  33.348  12.809
55146W        W21577  30.067   4.345   2.724
55147W        W21578  26.511  29.824  12.953
55148W        W21579  21.461  28.050   4.189
55149W        W21580  24.130   9.190  10.611
55150W        W21581   1.880  24.681  11.978
55151W        W21582  17.086  12.186  11.358
55152W        W21583  36.033   6.748   4.694
55153W        W21584  27.880  32.600  10.182
55154W        W21585   6.800   3.766  11.111
55155W        W21586  28.256  38.174  13.373
55156W        W21587  13.905  31.392  12.983
55157W        W21588  32.984   9.810   3.729
55158W        W21589  13.280  24.464  14.931
55159W        W21590   8.646  32.227   3.688
55160W        W21591  16.571   3.124   0.815
55161W        W21592   9.706  20.718   4.168
55162W        W21593  26.045  27.897  14.380
55163W        W21594   9.267  16.153  14.977
55164W        W21595  18.679   4.134   2.730
55165W        W21596   9.685  44.748  12.156
55166W        W21597  30.489  13.390   2.682
55167W        W21598   2.288  35.161   5.004
55168W        W21599   4.404  34.219  13.648
55169W        W21600   6.554  33.366  13.509
55170W        W21601  35.047  41.595   2.737
55171W        W21602  18.272  24.934  10.198
55172W        W21603  38.237  21.826   2.742
55173W        W21604  23.252  39.815   2.305
55174W        W21605  13.781  42.732   4.798
55175W        W21606  23.468  27.464   0.813
55176W        W21607  10.679  44.451  10.049
55177W        W21608  34.415  10.714   4.306
55178W        W21609  38.790  31.249   2.664
55179W        W21610  19.253  15.065   0.391
55180W        W21611   7.367  33.100   3.148
55181W        W21612  21.135   1.252   3.270
55182W        W21613  40.134  33.529   2.479
55183W        W21614  35.027  15.269   4.258
55184W        W21615   9.254  32.121  12.908
55185W        W21616  31.393  21.916  10.441
55186W        W21617  32.353   2.942  10.619
55187W        W21618  27.449   5.634   0.911
55188W        W21619  10.699   5.878  14.967
55189W        W21620  40.739  23.545  12.894
55190W        W21621  38.590   7.681   2.318
55191W        W21622   1.483  21.540  10.677
55192W        W21623  31.116   5.633  14.471
55193W        W21624  30.142  27.610  14.771
55194W        W21625  36.041  39.910  11.713
55195W        W21626   8.337  42.583  12.052
55196W        W21627   3.871  15.232   0.831
55197W        W21628  14.804  22.103  12.888
55198W        W21629  30.871  23.281  11.034
55199W        W21630  32.195  10.725   3.389
55200W        W21631  27.443  28.633  11.436
55201W        W21632  39.757  10.978  14.576
55202W        W21633  17.839  14.635  14.022
55203W        W21634  15.188   3.385   1.004
55204W        W21635  38.398  18.315  10.693
55205W        W21636  40.512  36.758   2.405
55206W        W21637  35.950  20.779   1.070
55207W        W21638  42.871  26.544  13.013
55208W        W21639   4.190  13.384  11.014
55209W        W21640   1.337   6.673  12.936
55210W        W21641   8.798  27.255   1.499
55211W        W21642  17.149  30.480   0.200
55212W        W21643  40.538   5.919  11.376
55213W        W21644  17.251  35.793   3.112
55214W        W21645  28.416  32.623   3.665
55215W        W21646  39.314   8.332   2.137
55216W        W21647  40.966   3.467   0.087
55217W        W21648  41.433  12.935  13.411
55218W        W21649  37.582  37.876  14.435
55219W        W21650  33.108  14.562   0.276
55220W        W21651   0.284  13.332   0.370
55221W        W21652  38.324  32.345  13.673
55222W        W21653   8.804  25.948  10.619
55223W        W21654  42.336   2.248  10.968
55224W        W21655   0.454  12.362  14.220
55225W        W21656   3.308  39.833   3.195
55226W        W21657  44.739  20.997  11.151
55227W        W21658   2.829  21.384   3.913
55228W        W21659  35.446   3.165   0.757
55229W        W21660   2.559   0.586  14.593
55230W        W21661  39.340  42.320   2.105
55231W        W21662   6.347  20.646  14.527
55232W        W21663  34.208  44.944   2.111
55233W        W21664  31.685  36.420  11.233
55234W        W21665  30.260   0.681   2.869
55235W        W21666  32.821  28.161   4.547
55236W        W21667  30.908  29.381   3.779
55237W        W21668  31.509  18.664  11.467
55238W        W21669  28.084   7.739  14.038
55239W        W21670   7.298  32.878  12.154
55240W        W21671  30.929  26.636  13.359
55241W        W21672  39.063  30.469  14.050
55242W        W21673  13.552  42.248  11.240
55243W        W21674   5.361   9.329   3.741
55244W        W21675  14.352  16.199   4.016
55245W        W21676  31.456  32.959  13.461
55246W        W21677  23.057   0.755  11.599
55247W        W21678  44.243   5.140   4.751
55248W        W21679   0.281  26.513  11.321
55249W        W21680  22.119   7.725   3.267
55250W        W21681  18.020  43.064   1.783
55251W        W21682  37.760  42.301   3.328
55252W        W21683  22.655   6.743  11.187
55253W        W21684   1.700  17.993  14.677
55254W        W21685  30.811  16.462  14.963
55255W        W21686   8.230  24.104  10.721
55256W        W21687  37.992   2.355  14.268
55257W        W21688   7.295  15.217   0.210
55258W        W21689   0.943   5.688   4.858
55259W        W21690  44.414  15.961  12.554
55260W        W21691  30.705  36.273  12.509
55261W        W21692  10.691  16.995   1.876
55262W        W21693  27.432  36.346  11.317
55263W        W21694  31.481   8.199   3.891
55264W        W21695  16.367  15.562  11.178
55265W        W21696  14.136  10.876  12.999
55266W        W21697  37.913   8.918  14.848
55267W        W21698   8.342  24.633  11.551
55268W        W21699   8.181  44.930  14.913
55269W        W21700  16.380  11.263  11.845
55270W        W21701  26.406  22.100  13.448
55271W        W21702  25.111   4.254   1.381
55272W        W21703  34.580  29.244  14.800
55273W        W21704  27.921  36.601  10.584
55274W        W21705  29.815   4.629   4.948
55275W        W21706  23.172  20.694   0.572
55276W        W21707  38.854  32.710  14.944
55277W        W21708   2.427  41.097  13.197
55278W        W21709  14.478  31.969   3.732
55279W        W21710  27.172  30.962  14.787
55280W        W21711   1.731  44.335  11.095
55281W        W21712  19.285  33.087   0.601
55282W        W21713  40.466  35.098  12.883
55283W        W21714  39.495   4.748   2.624
55284W        W21715  12.825  20.749  14.826
55285W        W21716  30.529  22.630  14.869
55286W        W21717  38.325   9.750  13.486
55287W        W21718  22.192  31.887  12.805
55288W        W21719  11.614  19.064  12.319
55289W        W21720  10.719  35.199  13.438
55290W        W21721  35.310  10.789   2.428
55291W        W21722  10.655  20.037   2.294
55292W        W21723   6.812  27.174   3.054
55293W        W21724  24.615  26.398  11.664
55294W        W21725  16.870  26.874   4.531
55295W        W21726  25.343  26.112   1.345
55296W        W21727  37.467  43.395  13.172
55297W        W21728  29.032  40.430   2.740
55298W        W21729  17.935  18.367  11.934
55299W        W21730  40.894   8.779  13.104
55300W        W21731  21.601   2.045   3.107
55301W        W21732   9.666   3.796  14.020
55302W        W21733  41.953  39.002   4.557
55303W        W21734  43.609  28.277   1.507
55304W        W21735  24.980  22.880  11.407
55305W        W21736   3.688  14.799  13.381
55306W        W21737  36.315  17.587  14.974
55307W        W21738  35.257  16.125  11.590
55308W        W21739  37.084   3.151  11.362
55309W        W21740   4.025  11.557   3.279
55310W        W21741  13.189  15.234  12.662
55311W        W21742  41.842  22.810   2.502
55312W        W21743  39.578  34.712   0.870
55313W        W21744  17.593  17.716   1.176
55314W        W21745  10.392  31.685   4.624
55315W        W21746  12.403   7.122  12.127
55316W        W21747  29.211  20.523   4.141
55317W        W21748  35.114  17.607   0.345
55318W        W21749  24.018  23.622   1.186
55319W        W21750  36.692   6.085   4.955
55320W        W21751  16.166  38.809  14.862
55321W        W21752  28.503  14.362  13.468
55322W        W21753  43.091  43.879  12.674
55323W        W21754   7.183   7.106  11.162
55324W        W21755  30.139  22.698   0.435
55325W        W21756  23.445  16.533   4.286
55326W        W21757   3.114  12.182  12.723
55327W        W21758   0.788  38.901  14.352
55328W        W21759  27.398  19.872   5.503
55329W        W21760  18.677  36.585   0.776
55330W        W21761  26.004   7.920   1.948
55331W        W21762  22.913  43.196   4.469
55332W        W21763  27.331  30.008   4.298
55333W        W21764  44.906  39.043  14.968
55334W        W21765  14.652  31.027   3.409
55335W        W21766  25.182  35.043  13.914
55336W        W21767  18.015  41.695   4.114
55337W        W21768  32.405  16.220   2.841
55338W        W21769  34.006   1.991  11.659
55339W        W21770  21.152  35.436  13.450
55340W        W21771  42.547  37.988   2.725
55341W        W21772  27.508  11.744  14.983
55342W        W21773   2.548   0.893   4.148
55343W        W21774  20.060   2.906  14.752
55344W        W21775  39.492  16.073  11.569
55345W        W21776   9.769  25.612   0.367
55346W        W21777  10.430  10.076   1.633
55347W        W21778  33.900  23.624   4.268
55348W        W21779  25.092  13.884  10.832
55349W        W21780  30.624  44.859  13.091
55350W        W21781  40.275  19.467   2.749
55351W        W21782   3.232  27.109  13.059
55352W        W21783  28.655   1.331   2.154
55353W        W21784   4.379  19.206  13.833
55354W        W21785  37.515  33.918  10.452
55355W        W21786   4.798   8.876   3.202
55356W        W21787   7.071   4.171   3.750
55357W        W21788   9.243  33.436   0.408
55358W        W21789  43.486  22.656   0.348
55359W        W21790  17.808  13.247  14.937
55360W        W21791  33.464  10.777  12.325
55361W        W21792   9.247  35.258  11.236
55362W        W21793  24.177  40.970   3.573
55363W        W21794  14.795  42.546  11.860
55364W        W21795  20.479  15.341   1.034
55365W        W21796  25.264  43.078   0.973
55366W        W21797  42.611  16.796  10.493
55367W        W21798  42.896  17.054  13.860
55368W        W21799  37.526   2.946  13.381
55369W        W21800  11.853  36.062   2.320
55370W        W21801   9.942  19.728   3.255
55371W        W21802  18.406   7.124  13.345
55372W        W21803  37.283  43.786   2.363
55373W        W21804   6.880  42.447   1.257
55374W        W21805  39.106  20.508   1.464
55375W        W21806  33.652   7.367   4.152
55376W        W21807  26.659  18.077   3.789
55377W        W21808   6.355  12.006   3.361
55378W        W21809  23.905   6.336  11.083
55379W        W21810  40.276  29.428   0.298
55380W        W21811  18.723  26.962   3.162
55381W        W21812  33.192  25.248   1.380
55382W        W21813  19.668  16.402   2.267
55383W        W21814   1.659  34.998  13.550
55384W        W21815  27.219  22.785  11.078
55385W        W21816  35.949  15.863  14.414
55386W        W21817  28.506   3.318   0.076
55387W        W21818   4.893   8.636  12.128
55388W        W21819  31.572  19.391  12.078
55389W        W21820  33.063   0.349  14.254
55390W        W21821  44.271   8.629   0.620
55391W        W21822  23.485  27.112  10.200
55392W        W21823   8.366   0.091   4.639
55393W        W21824  25.412   8.787  12.983
55394W        W21825  19.106  33.130  13.474
55395W        W21826  24.722  21.588  12.855
55396W        W21827  29.457  44.354  13.479
55397W        W21828  21.637  19.489   0.430
55398W        W21829  38.902  40.795   2.721
55399W        W21830  18.802   6.241   2.860
55400W        W21831  12.271  26.689  13.066
55401W        W21832   4.500  36.040   0.313
55402W        W21833  24.334  36.410  13.104
55403W        W21834   9.119   3.684   1.855
55404W        W21835  14.068   1.983  12.131
55405W        W21836  12.141  11.363   4.546
55406W        W21837  30.443  21.835  14.461
55407W        W21838   0.335  37.829   3.239
55408W        W21839   9.791  43.351  12.982
55409W        W21840  34.606  38.139  11.706
55410W        W21841  25.157  23.343  11.447
55411W        W21842  37.795  20.391   2.609
55412W        W21843  39.293  27.384   0.457
55413W        W21844   4.792   8.641  13.813
55414W        W21845   1.771  20.109  10.642
55415W        W21846  35.758  22.340  11.087
55416W        W21847   0.226  16.267   4.914
55417W        W21848  14.133  15.257   4.929
55418W        W21849  44.965  28.295   2.770
55419W        W21850  27.129   7.828  12.434
55420W        W21851  34.342  17.126   3.028
55421W        W21852  36.114  18.126  13.000
55422W        W21853   4.492  29.558  12.474
55423W        W21854  28.878  37.879   1.337
55424W        W21855  28.124   9.375   3.762
55425W        W21856   2.273  44.746  10.650
55426W        W21857  39.491   6.295   0.393
55427W        W21858  23.473  41.718   0.810
55428W        W21859   0.745  16.342   0.074
55429W        W21860  44.505  25.199  12.115
55430W        W21861  19.716  17.225  10.627
55431W        W21862  40.883  10.073  12.976
55432W        W21863  14.550  12.873   4.166
55433W        W21864  43.622  34.078  10.996
55434W        W21865   3.019  26.458   1.443
55435W        W21866   2.260  34.341   0.756
55436W        W21867   2.236  33.786   3.152
55437W        W21868   9.286  41.906   1.907
55438W        W21869  12.269  27.075  14.653
55439W        W21870  21.327   3.064  11.111
55440W        W21871  10.896  37.322  14.852
55441W        W21872  30.247  18.105  10.784
55442W        W21873  42.799  24.016  12.590
55443W        W21874  13.549  40.830  12.005
55444W        W21875  33.836  21.982   3.729
55445W        W21876  21.071  10.835   4.563
55446W        W21877  24.468  38.038   2.847
55447W        W21878  11.943  44.817  14.322
55448W        W21879  28.940  14.380   4.488
55449W        W21880   6.258   6.778   3.703
55450W        W21881  18.581  44.111   4.547
55451W        W21882  32.851  36.767   3.848
55452W        W21883  31.898  18.259  13.366
55453W        W21884  31.900  28.564   4.196
55454W        W21885  16.102  33.546   0.286
55455W        W21886  42.933  35.134   0.423
55456W        W21887  42.728  12.662   0.837
55457W        W21888   2.259   4.689  12.813
55458W        W21889   4.281  36.970  14.373
55459W        W21890  33.679   8.002  12.413
55460W        W21891  29.852  30.639   0.742
55461W        W21892   3.683  13.208   4.256
55462W        W21893  34.400  27.578   3.681
55463W        W21894  14.776  11.144   0.161
55464W        W21895  44.329  19.741   0.432
55465W        W21896  27.237  30.415  13.277
55466W        W21897  40.039  43.312  12.061
55467W        W21898   7.204  38.077   0.511
55468W        W21899  32.496  38.127  14.365
55469W        W21900  22.217  41.517   9.893
55470W        W21901  32.511  44.027  11.653
55471W        W21902  38.317  37.794   0.004
55472W        W21903  15.247  31.955   1.993
55473W        W21904   4.181   7.680  11.670
55474W        W21905  18.452  17.884   2.791
55475W        W21906  44.837  25.917   2.430
55476W        W21907  26.021  26.619  12.813
55477W        W21908  22.695  27.243  11.965
55478W        W21909  44.765   7.093  11.190
55479W        W21910  38.882  32.674  13.927
55480W        W21911   0.944   0.540  12.579
55481W        W21912  26.549  28.015  13.597
55482W        W21913  17.781   6.478  13.346
55483W        W21914  20.074  23.230   3.419
55484W        W21915  31.062  38.414   0.802
55485W        W21916  22.715  27.219  12.857
55486W        W21917  38.065  22.636   0.472
55487W        W21918  36.454  22.177   4.819
55488W        W21919  30.957  40.579   4.527
55489W        W21920  18.686  10.346   0.606
55490W        W21921  35.250  31.812  12.192
55491W        W21922  32.873  36.967  11.583
55492W        W21923  27.524  32.072  14.408
55493W        W21924  25.703  29.547  10.546
55494W        W21925  30.394  43.000   0.252
55495W        W21926   8.879   5.426   0.442
55496W        W21927   2.955  35.047   2.339
55497W        W21928   0.550  19.785  14.923
55498W        W21929  12.795   1.914  10.358
55499W        W21930  34.175  35.179   2.449
55500W        W21931  27.813  30.112   1.874
55501W        W21932  40.392  29.214  10.281
55502W        W21933  10.131  32.232  10.667
55503W        W21934  27.888  40.733  11.198
55504W        W21935  22.790  21.742  13.604
55505W        W21936   8.165  25.520   4.144
55506W        W21937  31.869  18.512   3.838
55507W        W21938  21.180   4.349   1.398
55508W        W21939  12.869  37.485  11.150
55509W        W21940  18.191  23.815  11.550
55510W        W21941  12.979   7.878  12.480
55511W        W21942  31.503   2.728   1.901
55512W        W21943   6.723  30.475   0.256
55513W        W21944  32.809  30.147   4.190
55514W        W21945  18.168  31.511  13.809
55515W        W21946  33.511  41.245   4.545
55516W        W21947  25.381   7.073   5.104
55517W        W21948  30.108  21.764  10.794
55518W        W21949   7.466  32.550  12.984
55519W        W21950  38.455  42.774   4.558
55520W        W21951   5.715  37.001  11.220
55521W        W21952   9.154  43.331  13.049
55522W        W21953  18.047  44.541  13.792
55523W        W21954  15.784  24.521  14.565
55524W        W21955  39.517  17.207   4.667
55525W        W21956  11.309   5.770  11.646
55526W        W21957  19.287   7.679   2.783
55527W        W21958   5.291   9.113   2.333
55528W        W21959  39.923  12.607   2.741
55529W        W21960  23.172  37.166   1.991
55530W        W21961  19.040  28.419  14.292
55531W        W21962  31.299  14.728  12.618
55532W        W21963  14.658  34.890   1.887
55533W        W21964  17.691  10.086   4.197
55534W        W21965  29.641  42.091  13.331
55535W        W21966   0.403  27.499  14.002
55536W        W21967  34.060   2.826  10.929
55537W        W21968  40.371  44.295  12.769
55538W        W21969  41.141  12.707  11.303
55539W        W21970  27.624  22.024   4.869
55540W        W21971  19.077  25.011   0.725
55541W        W21972  13.540  36.201  11.586
55542W        W21973   8.191  29.549   3.244
55543W        W21974  15.664  29.847  14.541
55544W        W21975  43.050  11.359  11.078
55545W        W21976   1.884  38.817   4.165
55546W        W21977  19.615  13.326   4.712
55547W        W21978   1.614  19.871   0.052
55548W        W21979  31.252  37.895   1.752
55549W        W21980  29.397  40.525  12.041
55550W        W21981  16.928  15.560   0.962
55551W        W21982  28.448  24.102  10.533
55552W        W21983  38.010  32.625  11.638
55553W        W21984  16.259  11.230   3.590
55554W        W21985   6.682  22.286   3.579
55555W        W21986  42.147  23.270   4.208
55556W        W21987   0.879  18.631   3.680
55557W        W21988  11.563  32.584  13.720
55558W        W21989  40.539  40.061   0.864
55559W        W21990  21.599  38.842  14.093
55560W        W21991  24.960  44.043   0.932
55561W        W21992  12.471  20.207   2.236
55562W        W21993   8.689  35.331   3.646
55563W        W21994   9.669  42.462  10.720
55564W        W21995  34.621  18.764   2.543
55565W        W21996  36.166  24.100   5.135
55566W        W21997   6.773  24.239  12.411
55567W        W21998  36.812   1.966  11.985
55568W        W21999  41.530  20.052   4.324
55569W        W22000  22.258  41.958  13.022
55570W        W22001  40.833  38.504  14.069
55571W        W22002  12.766  21.601   3.219
55572W        W22003  38.884   7.258   0.140
55573W        W22004   2.770   2.560  13.981
55574W        W22005  15.809  21.163  14.775
55575W        W22006  39.487  17.009   3.703
55576W        W22007  23.527   2.378   0.471
55577W        W22008  11.126  14.024  14.886
55578W        W22009  29.537  40.363  10.107
55579W        W22010  18.679  28.728   2.871
55580W        W22011  15.207  41.951   3.852
55581W        W22012  14.044  26.678   1.309
55582W        W22013  25.961  38.594   1.531
55583W        W22014   6.496  29.334  12.193
55584W        W22015   2.296  35.596  14.097
55585W        W22016  32.328   1.619  12.965
55586W        W22017   1.452   8.041  11.707
55587W        W22018  39.556  32.415   2.152
55588W        W22019  18.563   5.780  10.256
55589W        W22020  34.936  22.103   1.802
55590W        W22021  34.914  30.620   3.428
55591W        W22022  24.657   1.191   2.796
55592W        W22023  16.339  10.587  13.814
55593W        W22024  43.320  12.749   2.881
55594W        W22025  16.222  12.156  10.911
55595W        W22026  24.127   8.769   3.087
55596W        W22027   4.704  14.052  10.266
55597W        W22028  36.300   5.510  11.138
55598W        W22029  32.133   4.353   1.699
55599W        W22030  40.544   7.127   2.463
55600W        W22031   9.633  21.637   3.667
55601W        W22032  13.577  37.394   2.925
55602W        W22033   4.725  23.801   3.143
55603W        W22034   9.533  25.388  14.973
55604W        W22035   4.143  27.360   4.683
55605W        W22036   8.551  16.048  13.336
55606W        W22037   6.240  14.607   1.874
55607W        W22038  12.368  18.163   0.381
55608W        W22039  12.203  15.065   2.687
55609W        W22040  10.099  37.327  12.482
55610W        W22041  20.045  44.065  11.154
55611W        W22042  34.031  43.377   0.817
55612W        W22043  37.035  17.152   4.227
55613W        W22044   6.310   9.283   0.291
55614W        W22045   0.880  14.338   3.702
55615W        W22046   6.625  15.041  11.092
55616W        W22047  33.895  30.523   3.557
55617W        W22048  13.694  19.993  12.952
55618W        W22049  11.173  30.658   0.231
55619W        W22050  17.201  36.358  12.514
55620W        W22051  17.253  36.127  12.999
55621W        W22052  41.328  40.882   4.598
55622W        W22053   6.414   3.273  13.923
55623W        W22054  26.476   3.730   3.136
55624W        W22055   5.308  25.515  12.129
55625W        W22056   6.681  36.918   3.271
55626W        W22057  24.677  26.933   2.194
55627W        W22058  13.009  14.306  13.236
55628W        W22059  27.192  32.638   4.920
55629W        W22060  33.657   0.771  11.083
55630W        W22061  13.291  31.091   2.918
55631W        W22062  27.434  38.035  10.719
55632W        W22063  21.755   5.498  14.001
55633W        W22064  26.102  26.056   4.952
55634W        W22065  10.803   6.939   4.569
55635W        W22066  35.152  33.641   3.246
55636W        W22067  38.846   0.847   4.020
55637W        W22068  24.213  37.505   0.038
55638W        W22069  13.798  11.617   4.256
55639W        W22070  30.615  34.047  13.225
55640W        W22071  31.364  21.028   0.303
55641W        W22072   8.229  10.470   2.868
55642W        W22073   8.952  38.335  12.805
55643W        W22074  32.803  39.845  12.436
55644W        W22075   0.362  23.384  10.963
55645W        W22076  21.056  29.898   4.206
55646W        W22077   4.872  28.452  10.782
55647W        W22078  11.719  19.891   0.331
55648W        W22079  16.757  26.048   4.127
55649W        W22080  42.933  20.642  10.620
55650W        W22081  26.117   5.950   3.391
55651W        W22082  41.960  35.738   2.650
55652W        W22083  40.935  38.121   0.962
55653W        W22084  30.968  32.038  10.203
55654W        W22085  41.774  30.795   2.926
55655W        W22086  22.685   1.241   1.290
55656W        W22087   9.375  20.741   1.282
55657W        W22088  29.609   9.547   0.087
55658W        W22089  27.476  15.380   0.801
55659W        W22090  34.561  23.001  12.464
55660W        W22091  26.189  20.746   4.200
55661W        W22092  35.358  24.430   1.903
55662W        W22093  21.975  21.013  14.956
55663W        W22094  34.410  15.851   3.227
55664W        W22095  25.432   7.503   0.396
55665W        W22096  36.299  34.177  13.362
55666W        W22097  23.629  40.933   2.203
55667W        W22098   3.456  41.605  10.628
55668W        W22099   7.114  21.020   3.642
55669W        W22100  14.890  10.299  11.200
55670W        W22101   9.786   7.851  12.817
55671W        W22102  25.428  19.942  13.037
55672W        W22103  44.507  34.227   0.810
55673W        W22104  35.580  33.717   2.319
55674W        W22105  39.523  11.052   4.633
55675W        W22106  26.633  10.617  14.340
55676W        W22107  21.565  40.294   2.554
55677W        W22108   6.454  24.755   3.120
55678W        W22109  42.341  16.754   4.919
55679W        W22110  22.180  19.863   0.750
55680W        W22111  12.186  37.514  10.409
55681W        W22112  27.764  12.892  13.480
55682W        W22113   4.288  33.111  11.148
55683W        W22114   5.157  40.408  12.457
55684W        W22115  44.441  18.027  11.573
55685W        W22116  37.433  31.012   3.347
55686W        W22117  37.690  32.800  11.038
55687W        W22118  42.044  29.499  14.286
55688W        W22119  16.810   0.969  14.660
55689W        W22120  37.169  36.081   3.160
55690W        W22121   0.573  27.858  11.554
55691W        W22122  21.830  15.187  10.705
55692W        W22123  24.895  13.947   4.490
55693W        W22124  27.930  22.217   1.738
55694W        W22125  28.262  13.198  13.973
55695W        W22126   7.321  24.967   3.197
55696W        W22127  36.268  40.454   0.308
55697W        W22128  18.201   0.769  14.902
55698W        W22129  10.437  10.902  11.042
55699W        W22130  35.066  18.787  14.965
55700W        W22131  31.824  33.051   1.932
55701W        W22132  30.619   1.990  13.432
55702W        W22133   5.164  42.729  14.626
55703W        W22134  34.857   5.650  11.507
55704W        W22135  15.836   6.966   1.144
55705W        W22136  17.306  27.487   4.671
55706W        W22137  29.884  36.060  13.830
55707W        W22138   8.338   8.818  10.944
55708W        W22139  23.499   3.461  14.186
55709W        W22140   0.771  26.914  11.205
55710W        W22141   3.048  25.732  12.151
55711W        W22142  31.838   1.538   4.925
55712W        W22143  33.672  23.171  13.299
55713W        W22144  40.618   1.238  13.374
55714W        W22145  23.190  21.049  14.257
55715W        W22146   8.103  44.946   4.224
55716W        W22147   0.944  34.282  14.903
55717W        W22148  24.219   9.190   1.822
55718W        W22149  23.041  23.334   5.030
55719W        W22150  38.017   6.113   0.984
55720W        W22151  32.047  26.914  11.604
55721W        W22152   1.318  31.307  11.316
55722W        W22153  37.850  24.715  11.485
55723W        W22154  14.364   6.434   3.181
55724W        W22155  26.081  10.126   2.075
55725W        W22156   8.102   7.290  12.007
55726W        W22157  11.166  32.265  13.980
55727W        W22158  17.189  27.288   2.336
55728W        W22159   0.995  19.149   3.731
55729W        W22160   3.152  29.253  14.841
55730W        W22161  10.398  31.439   3.706
55731W        W22162  38.282  20.676   1.962
55732W        W22163  16.228  43.556   1.917
55733W        W22164   2.922  25.157   1.228
55734W        W22165   9.199  30.036   4.081
55735W        W22166  38.844  15.757  12.005
55736W        W22167   0.315  24.653   3.767
55737W        W22168  43.457  25.300  14.755
55738W        W22169  19.194  20.598   1.739
55739W        W22170  15.275   5.887  13.568
55740W        W22171  24.062  34.718  12.362
55741W        W22172   3.635  27.811  11.134
55742W        W22173  26.611  40.024   0.460
55743W        W22174  27.490  34.761   3.747
55744W        W22175  13.085   5.783   0.627
55745W        W22176  23.439   6.055  11.081
55746W        W22177  37.959  28.506   2.103
55747W        W22178  19.321  11.725  14.344
55748W        W22179  18.487  40.273   5.373
55749W        W22180  39.373   5.458  11.649
55750W        W22181  22.781  25.766  11.134
55751W        W22182  22.195  17.901   1.265
55752W        W22183  22.189  38.816   0.257
55753W        W22184  10.918   7.138   2.753
55754W        W22185  20.579  10.411  14.905
55755W        W22186   8.110  10.777  14.912
55756W        W22187  35.171  17.074  12.714
55757W        W22188  11.115  29.126  13.814
55758W        W22189  15.046   5.304  12.453
55759W        W22190  25.612  13.949  14.354
55760W        W22191   6.119  29.119   2.271
55761W        W22192  32.667  10.892   1.349
55762W        W22193  21.947  10.272  14.769
55763W        W22194  22.982   1.972   4.128
55764W        W22195  44.568  32.044   5.016
55765W        W22196  44.483  16.697  13.855
55766W        W22197  44.993  41.964  14.544
55767W        W22198   2.797   3.955  14.513
55768W        W22199  11.868  36.732   0.910
55769W        W22200   0.285  13.676  13.509
55770W        W22201  37.713  28.026  13.911
55771W        W22202  13.356  38.883  13.076
55772W        W22203  43.338  37.076   2.375
55773W        W22204  35.132  44.944   2.241
55774W        W22205   5.324  13.249   1.340
55775W        W22206   3.886  43.422   2.324
55776W        W22207   1.457   1.502  13.617
55777W        W22208  36.820  10.866  11.444
55778W        W22209  20.473  27.644   0.865
55779W        W22210  18.568  22.053   0.355
55780W        W22211   1.934   5.575   0.853
55781W        W22212   0.238  39.417  14.837
55782W        W22213  30.715  38.849   0.807
55783W        W22214  15.059  19.122  10.835
55784W        W22215  31.449  23.723  11.630
55785W        W22216  21.728  36.255   4.065
55786W        W22217  27.407  11.663   3.355
55787W        W22218  44.887  29.569   3.342
55788W        W22219  20.680   0.325   3.282
55789W        W22220  17.625  15.847   0.367
55790W        W22221   9.764  24.885  13.828
55791W        W22222  38.436  39.595   1.798
55792W        W22223  17.276  41.917  14.934
55793W        W22224  14.351  14.764  10.728
55794W        W22225   7.280   3.204   0.382
55795W        W22226  40.112  10.606  14.551
55796W        W22227   4.540  26.104  12.255
55797W        W22228   3.174  11.869  10.920
55798W        W22229  35.344  20.074  13.050
55799W        W22230  35.328  29.529   1.428
55800W        W22231   8.454  36.503   4.247
55801W        W22232  19.162  29.663   2.591
55802W        W22233  17.310   2.039   0.455
55803W        W22234   4.196  28.358  12.391
55804W        W22235  30.657   8.430   3.026
55805W        W22236  38.324  10.337  11.465
55806W        W22237   2.211  28.629   3.122
55807W        W22238  25.090  35.696   3.762
55808W        W22239  39.142   4.731   3.608
55809W        W22240   3.344  39.119   4.085
55810W        W22241   1.335   6.327  10.539
55811W        W22242  42.087  39.375  11.583
55812W        W22243  41.329  31.499  13.461
55813W        W22244  43.799  27.451   4.594
55814W        W22245  35.734  19.581  14.368
55815W        W22246  27.432  19.714   3.375
55816W        W22247  10.211  27.138  12.485
55817W        W22248  15.919  14.481  12.934
55818W        W22249  36.164  10.909   1.327
55819W        W22250  34.115  12.857  10.687
55820W        W22251  23.518  26.951  11.666
55821W        W22252  33.812  22.092  10.497
55822W        W22253   7.825  20.837   3.597
55823W        W22254   7.382  43.070  14.079
55824W        W22255  39.252  38.243  13.126
55825W        W22256  41.932  37.546   1.548
55826W        W22257  35.549  11.273   2.529
55827W        W22258  42.889  40.121   0.742
55828W        W22259  41.781  31.409  13.194
55829W        W22260  14.007   1.815   3.656
55830W        W22261  17.461   8.204  13.920
55831W        W22262   8.880  24.218   5.161
55832W        W22263  37.214   1.207  10.731
55833W        W22264  40.830   4.648  12.106
55834W        W22265  43.620   4.794   3.172
55835W        W22266  13.386  38.025   4.548
55836W        W22267  25.592  12.440  12.153
55837W        W22268   8.749  14.303  11.629
55838W        W22269  30.671  31.034  13.844
55839W        W22270  35.580  15.117   2.767
55840W        W22271   7.855  10.551  10.554
55841W        W22272  39.270   7.763  13.950
55842W        W22273  10.816  12.267   2.395
55843W        W22274  34.071   3.757  11.339
55844W        W22275  41.175  41.910   2.452
55845W        W22276   1.375  14.666   2.995
55846W        W22277  44.679  31.966   4.117
55847W        W22278  16.188   8.175   0.890
55848W        W22279  27.599   7.792   3.723
55849W        W22280  10.097  21.812   4.863
55850W        W22281  19.069  40.170   9.462
55851W        W22282  21.739  14.048  14.092
55852W        W22283  21.409   6.293   3.321
55853W        W22284   3.758  30.330   0.855
55854W        W22285  30.966   7.215   2.841
55855W        W22286  25.071  37.549   3.716
55856W        W22287  41.235  21.752   4.839
55857W        W22288  29.894   6.910  14.290
55858W        W22289   4.173  15.320   0.417
55859W        W22290  29.203  39.262  11.115
55860W        W22291   8.823  41.004  12.821
55861W        W22292  21.803  28.266   0.225
55862W        W22293  13.183  35.310  11.171
55863W        W22294  36.162  18.895   5.008
55864W        W22295  41.025  27.694   3.272
55865W        W22296  13.586  21.696  10.736
55866W        W22297  23.335   0.266   4.198
55867W        W22298  22.976   5.849  10.965
55868W        W22299  34.040  39.956  11.269
55869W        W22300  33.154  16.194   4.636
55870W        W22301  16.008  10.965  11.578
55871W        W22302   8.572  10.552   2.409
55872W        W22303  37.351  30.876  11.240
55873W        W22304   3.209  12.773   0.238
55874W        W22305   8.212  28.246   1.590
55875W        W22306  23.422   4.442  14.963
55876W        W22307   5.764  20.568  14.907
55877W        W22308  30.624  29.363   1.518
55878W        W22309  41.231  38.293   1.400
55879W        W22310  39.387   1.707   2.275
55880W        W22311  41.809   0.735  13.071
55881W        W22312  20.704  36.548   0.339
55882W        W22313   6.419  41.614   2.583
55883W        W22314  21.077  21.985   2.439
55884W        W22315   4.206   4.182  12.897
55885W        W22316  26.727  37.998   0.007
55886W        W22317  27.738  40.840   4.680
55887W        W22318  42.801  31.397  11.539
55888W        W22319   4.249  12.542  11.540
55889W        W22320   3.786  25.035   0.700
55890W        W22321  44.879  34.130   4.932
55891W        W22322   3.908   1.538   0.409
55892W        W22323  15.101  41.230  12.520
55893W        W22324  28.144  31.936   0.232
55894W        W22325  24.502   8.149   1.949
55895W        W22326  13.311  16.670   2.258
55896W        W22327  20.175  25.471   3.214
55897W        W22328   4.363  42.023   3.319
55898W        W22329  42.492  14.340   1.322
55899W        W22330  29.087  40.208  14.395
55900W        W22331  19.902   9.199   4.696
55901W        W22332  21.208   3.734  13.635
55902W        W22333   2.964  37.945  11.570
55903W        W22334   2.337   8.362  13.299
55904W        W22335  38.939   3.710   4.530
55905W        W22336  12.208  22.450  10.709
55906W        W22337   7.965  34.581  14.857
55907W        W22338  19.324  34.061  12.009
55908W        W22339  41.890  11.076   1.313
55909W        W22340  32.309  14.052   4.200
55910W        W22341   0.819  35.798   1.877
55911W        W22342  28.466  40.652  12.983
55912W        W22343  38.476  27.925  11.040
55913W        W22344  40.779  18.750  11.840
55914W        W22345   0.767  41.117  11.152
55915W        W22346  40.262  39.303   3.901
55916W        W22347  10.207  25.237   3.699
55917W        W22348  37.022   0.398  14.342
55918W        W22349  31.525  35.583   2.411
55919W        W22350  10.495  26.468  13.315
55920W        W22351  17.618  34.842   1.691
55921W        W22352   4.807   3.952   4.241
55922W        W22353  22.755  19.653  12.539
55923W        W22354  18.844  38.774   0.165
55924W        W22355  31.155  31.449   4.918
55925W        W22356  44.403  24.595  11.920
55926W        W22357  40.915  35.399   4.116
55927W        W22358  22.112  44.831  11.578
55928W        W22359  18.556  35.129   2.065
55929W        W22360  13.175  33.088   0.403
55930W        W22361  15.744  14.224  14.376
55931W        W22362  28.130  35.620   2.800
55932W        W22363  23.552  44.703   2.358
55933W        W22364  18.790   6.246  13.055
55934W        W22365  34.631  30.487  14.134
55935W        W22366  12.361  15.948   4.404
55936W        W22367  17.498  35.831   0.726
55937W        W22368   5.931  18.990   2.249
55938W        W22369  11.827  15.567  11.031
55939W        W22370  23.994  41.991  14.226
55940W        W22371  40.586  26.516  13.038
55941W        W22372   4.974  29.828  13.873
55942W        W22373  29.824   9.328   1.039
55943W        W22374  15.658  29.150   3.973
55944W        W22375   4.816  28.399   4.245
55945W        W22376  20.610  20.407   0.343
55946W        W22377  43.546  12.297   0.930
55947W        W22378  41.066  24.079   4.051
55948W        W22379  26.141   0.740   1.008
55949W        W22380   2.796  16.824  14.048
55950W        W22381  42.792  10.178   4.363
55951W        W22382   7.929   6.450  12.923
55952W        W22383  19.249  44.289   4.263
55953W        W22384  36.189  44.833   2.173
55954W        W22385  17.815  29.554  10.684
55955W        W22386   3.529  34.563   1.988
55956W        W22387  36.572  43.449  14.264
55957W        W22388  38.581  22.076  12.440
55958W        W22389  21.498  22.490   2.249
55959W        W22390   8.812  18.284  12.240
55960W        W22391  31.671  31.080  10.937
55961W        W22392   7.472   5.199   0.524
55962W        W22393  28.727  42.932  14.439
55963W        W22394  32.153  18.517   2.853
55964W        W22395  19.277   3.286   1.776
55965W        W22396   4.385  39.598   2.452
55966W        W22397   5.743  30.404   3.794
55967W        W22398  42.573  25.205  13.773
55968W        W22399  16.616  37.543  14.901
55969W        W22400  24.977   2.080   3.900
55970W        W22401  23.665  24.959  12.876
55971W        W22402  36.136  10.718  14.991
55972W        W22403   6.254   6.366  12.594
55973W        W22404  20.280  40.659  14.440
55974W        W22405   5.867   0.791   0.854
55975W        W22406  23.849  32.689  10.178
55976W        W22407   8.433  36.771  13.468
55977W        W22408   0.314  30.842   3.130
55978W        W22409  32.986   4.815   0.375
55979W        W22410  27.375  15.042  14.927
55980W        W22411  22.075   1.596  11.910
55981W        W22412   9.900  44.355   2.274
55982W        W22413  10.911   7.704  10.685
55983W        W22414  37.984  41.894   3.576
55984W        W22415  10.119  25.678  13.489
55985W        W22416   3.883   9.387  12.869
55986W        W22417  33.389  39.479   0.749
55987W        W22418  10.483   7.340   4.534
55988W        W22419  26.714  25.127   1.898
55989W        W22420   3.244  11.655  12.658
55990W        W22421  34.938  14.666   2.474
55991W        W22422   9.302  42.264   4.578
55992W        W22423   5.397  17.537   1.756
55993W        W22424  40.565  44.529  10.207
55994W        W22425  20.321  29.153  13.705
55995W        W22426   2.467   0.721   2.215
55996W        W22427  44.294   6.978   0.222
55997W        W22428   7.881   5.841  10.450
55998W        W22429  15.706  32.438   3.496
55999W        W22430  19.785  20.469   2.327
56000W        W22431  39.444  15.554  14.413
56001W        W22432  36.987  33.571  13.442
56002W        W22433  42.960   0.934  14.940
56003W        W22434  32.400  35.038   2.638
56004W        W22435  23.308   8.841   3.066
56005W        W22436  22.633  42.617   3.279
56006W        W22437   5.006  44.893  14.308
56007W        W22438   3.849  43.536  13.878
56008W        W22439  36.447  24.171   4.259
56009W        W22440  28.868  37.565   3.669
56010W        W22441  42.959  32.673  11.999
56011W        W22442  17.947  26.901   3.453
56012W        W22443  24.752   4.872  11.178
56013W        W22444  27.457  29.151  11.519
56014W        W22445  20.795  28.022   0.396
56015W        W22446  23.078  25.547   3.624
56016W        W22447  37.909   2.419   2.998
56017W        W22448  24.175  33.738   2.783
56018W        W22449   9.688  23.187  11.591
56019W        W22450  14.659  28.341   2.092
56020W        W22451  34.424  24.779   0.425
56021W        W22452  13.401  41.848  13.411
56022W        W22453   5.000  17.478   3.031
56023W        W22454   5.420  13.688   2.606
56024W        W22455  41.970  44.314   2.737
56025W        W22456  11.704  12.951  13.544
56026W        W22457   4.378   4.454   1.025
56027W        W22458  36.492  33.902   2.050
56028W        W22459   4.727  11.371   1.445
56029W        W22460  23.961  11.119   1.775
56030W        W22461   3.827   2.756  10.696
56031W        W22462  19.184  35.098  12.558
56032W        W22463   5.678  11.802   2.380
56033W        W22464   2.523  23.330  13.303
56034W        W22465  29.446  38.487   3.163
56035W        W22466  28.678  25.735   1.530
56036W        W22467  31.926  37.843  11.115
56037W        W22468  41.531   6.928   4.629
56038W        W22469   4.231  38.868  12.320
56039W        W22470  29.562  18.259  13.851
56040W        W22471   1.689  16.692   0.457
56041W        W22472   3.167  39.583   2.715
56042W        W22473  34.389  12.491   3.142
56043W        W22474  18.701  37.994   1.407
56044W        W22475  20.985   6.176  13.437
56045W        W22476  34.392  30.520  12.615
56046W        W22477  43.824  32.287   0.680
56047W        W22478  15.828  15.095   2.749
56048W        W22479  29.942  33.958   0.293
56049W        W22480  30.626   5.617   1.720
56050W        W22481   1.689  29.665   3.190
56051W        W22482  24.076  13.160   0.366
56052W        W22483  16.039   9.080   0.601
56053W        W22484  30.534  12.903  13.301
56054W        W22485  16.161  15.122  12.509
56055W        W22486  43.491  44.281  10.640
56056W        W22487  19.754   3.554   0.424
56057W        W22488  12.395  19.795  10.943
56058W        W22489  44.792  44.032  11.567
56059W        W22490   5.291   1.877  13.648
56060W        W22491   3.485  41.205  14.718
56061W        W22492  18.130  26.442   1.172
56062W        W22493  15.228  30.047  11.477
56063W        W22494  34.544  40.963   4.097
56064W        W22495  21.589  24.449  11.318
56065W        W22496  33.840  40.396  14.780
56066W        W22497  15.494   2.630  13.951
56067W        W22498  37.027  21.763  14.729
56068W        W22499   4.658  38.056  12.383
56069W        W22500  27.275  27.479  11.611
56070W        W22501  18.361   5.079  12.152
56071W        W22502  18.635  11.059   3.754
56072W        W22503  33.821  19.947  14.511
56073W        W22504  17.697   8.235  12.879
56074W        W22505  23.656   9.524   0.662
56075W        W22506  36.562  29.428   3.636
56076W        W22507  39.367   0.457   0.084
56077W        W22508  32.631  40.156   2.647
56078W        W22509   8.307  26.698   2.272
56079W        W22510  42.885   8.087   1.422
56080W        W22511  35.608  14.690   3.665
56081W        W22512  29.728  24.845  10.666
56082W        W22513  33.758  42.195  14.375
56083W        W22514  25.051  15.679  10.701
56084W        W22515  33.613   0.241  12.184
56085W        W22516  40.117  17.661  14.470
56086W        W22517  36.457  36.203   4.115
56087W        W22518  13.634  14.423   2.865
56088W        W22519  44.811   6.726   4.443
56089W        W22520   3.675  37.388   1.337
56090W        W22521  22.065  31.822   1.676
56091W        W22522  32.779  26.029   3.071
56092W        W22523   4.033  27.556  14.853
56093W        W22524  44.767   4.699   0.283
56094W        W22525  17.727  16.626  11.148
56095W        W22526   2.297  26.456   0.824
56096W        W22527  21.755  18.877  12.907
56097W        W22528  19.299  34.620   0.313
56098W        W22529   6.975  32.022  13.420
56099W        W22530  37.091  13.586  10.595
56100W        W22531  43.959  38.581   2.001
56101W        W22532  14.664   6.821  11.125
56102W        W22533  10.612  40.907   1.073
56103W        W22534  31.689  32.149  13.991
56104W        W22535  13.136   7.142  12.024
56105W        W22536  22.616  43.119   5.042
56106W        W22537  11.939  29.461   4.094
56107W        W22538  19.633   4.221   4.577
56108W        W22539  20.226  15.955   0.323
56109W        W22540   7.768  31.653  10.593
56110W        W22541   8.404  38.076   2.617
56111W        W22542  12.766   6.840   1.362
56112W        W22543  38.879  33.891  12.848
56113W        W22544  10.011  34.665  13.962
56114W        W22545  19.741  28.158   0.457
56115W        W22546  28.039  19.537   5.029
56116W        W22547  37.122  26.481  13.424
56117W        W22548  28.281  41.046   2.244
56118W        W22549  39.937   1.193  10.804
56119W        W22550  18.219  16.770  11.131
56120W        W22551  39.852  25.459  13.985
56121W        W22552  43.016   4.215   1.991
56122W        W22553   0.979   0.090  13.881
56123W        W22554  27.462  13.751   2.530
56124W        W22555  18.537  27.041  11.217
56125W        W22556  34.508  33.881   1.876
56126W        W22557  12.473  39.462  13.261
56127W        W22558  36.597  22.056   0.382
56128W        W22559   5.197   9.610   2.218
56129W        W22560   6.377  22.194  10.598
56130W        W22561   5.735  44.271  12.508
56131W        W22562   1.186  21.244  11.934
56132W        W22563  15.009   5.048   4.053
56133W        W22564   4.170   5.421  13.967
56134W        W22565  24.700  31.664  13.878
56135W        W22566  38.619  44.373  13.443
56136W        W22567  35.402  11.849   1.793
56137W        W22568   2.270  36.133  11.080
56138W        W22569  17.541  40.553   2.257
56139W        W22570   6.138  31.016   0.768
56140W        W22571   8.354  40.848   2.659
56141W        W22572  14.242  23.800   1.050
56142W        W22573  37.117   7.702  10.655
56143W        W22574  17.090   7.200  13.645
56144W        W22575   5.961  21.034   0.803
56145W        W22576  31.811  36.016  11.517
56146W        W22577  22.088  14.305  13.826
56147W        W22578  32.463   5.393  10.251
56148W        W22579  38.361  37.008   5.296
56149W        W22580  24.078   9.937   5.361
56150W        W22581   0.854  20.696  10.685
56151W        W22582  20.273   8.714   4.036
56152W        W22583   7.344   4.148   2.289
56153W        W22584   3.871  19.933   0.709
56154W        W22585  21.111   1.559   0.122
56155W        W22586  28.127  24.336   3.752
56156W        W22587  18.070  44.018   4.436
56157W        W22588  12.303   8.871  12.925
56158W        W22589  25.995  44.244  12.425
56159W        W22590   4.379   2.888  14.220
56160W        W22591   7.687  18.727  11.187
56161W        W22592   7.872  22.418  10.547
56162W        W22593  23.051   8.110  10.756
56163W        W22594  25.709  35.977   1.439
56164W        W22595  13.131  18.707   0.501
56165W        W22596  42.214  17.089  13.140
56166W        W22597  29.759  31.515   4.445
56167W        W22598  24.460  21.301   0.425
56168W        W22599  41.614  29.112  12.064
56169W        W22600  12.017  24.229   1.868
56170W        W22601   7.841  41.418   3.395
56171W        W22602   8.829  30.113   0.876
56172W        W22603  40.247   2.392  11.984
56173W        W22604  22.611  43.083   9.898
56174W        W22605  19.870   7.872  12.031
56175W        W22606  35.567  38.407   0.741
56176W        W22607  42.174   4.733   2.498
56177W        W22608  32.494  29.711   3.225
56178W        W22609   5.200  23.726  12.994
56179W        W22610  37.702  16.048  13.379
56180W        W22611  36.505  12.803   0.847
56181W        W22612  34.489  26.684   3.879
56182W        W22613   9.709  25.508  12.522
56183W        W22614  30.628   5.263   4.719
56184W        W22615  19.141  39.026  12.665
56185W        W22616  42.544   6.941  14.810
56186W        W22617  27.617  30.098   3.335
56187W        W22618  33.269  14.767   4.079
56188W        W22619   3.302  13.038   1.495
56189W        W22620   1.945   9.121  13.551
56190W        W22621  38.444  23.153   1.159
56191W        W22622  28.968  23.192  12.805
56192W        W22623  28.230  22.250  11.571
56193W        W22624   8.807  21.742  14.994
56194W        W22625   5.776  24.250   3.013
56195W        W22626   8.195  36.984   4.201
56196W        W22627   9.569  21.023  14.913
56197W        W22628  17.256  29.533   4.063
56198W        W22629  12.207   0.244   4.934
56199W        W22630  39.544  39.033  11.881
56200W        W22631  10.219  15.779   2.722
56201W        W22632  10.443  17.772   0.804
56202W        W22633  29.488  39.927  12.342
56203W        W22634   2.867   1.880   0.972
56204W        W22635   3.029  29.942   3.242
56205W        W22636   6.005   8.883   2.800
56206W        W22637  30.621  33.794   4.888
56207W        W22638  17.033  14.955  13.409
56208W        W22639  27.030  23.475   0.865
56209W        W22640  30.014   3.363  10.716
56210W        W22641   1.605  34.560   3.362
56211W        W22642   3.286   1.754   3.775
56212W        W22643  31.831  18.726  11.042
56213W        W22644  38.861  41.300   2.591
56214W        W22645   1.144  33.659  14.026
56215W        W22646  34.345   2.302  12.959
56216W        W22647  15.585  34.661   0.015
56217W        W22648  30.856  43.717  11.024
56218W        W22649  36.155   8.346   0.767
56219W        W22650  28.477  18.026   1.909
56220W        W22651  33.061   3.927  11.648
56221W        W22652   3.139  19.744  13.549
56222W        W22653   1.040  16.850   1.272
56223W        W22654  37.104  24.095   0.464
56224W        W22655   6.854  20.659  13.620
56225W        W22656   3.691   4.989   1.282
56226W        W22657  12.725  41.930  11.246
56227W        W22658  34.453   9.923   0.274
56228W        W22659  42.913  12.340  13.382
56229W        W22660   7.376  32.581   2.792
56230W        W22661  39.885  26.168   4.998
56231W        W22662   8.193   7.005   1.780
56232W        W22663   6.359  37.589   0.696
56233W        W22664  14.206   2.867  12.281
56234W        W22665  39.053  19.091  13.351
56235W        W22666  25.007  16.078   3.270
56236W        W22667   5.194  24.472  12.495
56237W        W22668  18.583  43.041  10.091
56238W        W22669   9.560  35.428  10.837
56239W        W22670  33.751  35.913   5.036
56240W        W22671  33.367  38.377  11.011
56241W        W22672  35.341  26.543   4.091
56242W        W22673  41.423  21.233  13.503
56243W        W22674  34.545  38.496   5.079
56244W        W22675  38.157  25.117   1.217
56245W        W22676  40.969   4.834  14.348
56246W        W22677  44.132  41.637  14.354
56247W        W22678  11.811  15.012  12.527
56248W        W22679  22.266  30.563   0.931
56249W        W22680   2.957  24.768   3.670
56250W        W22681  31.963  11.887  10.762
56251W        W22682  17.840  18.046  10.425
56252W        W22683  17.272   4.785   2.633
56253W        W22684  24.995  43.825  14.387
56254W        W22685  38.340   3.365   2.428
56255W        W22686  19.374  18.064  14.300
56256W        W22687  12.815  42.520   1.696
56257W        W22688  15.536   0.971  11.279
56258W        W22689  34.573   5.154  10.707
56259W        W22690  23.687  19.839  12.435
56260W        W22691  15.178  43.331  11.974
56261W        W22692  42.758  21.554  12.478
56262W        W22693   6.174  33.374   3.248
56263W        W22694  32.713   7.845   3.656
56264W        W22695   9.093   4.332  13.535
56265W        W22696  19.192  35.747  13.898
56266W        W22697   9.316  13.590  11.545
56267W        W22698  22.766  14.237  10.699
56268W        W22699  25.266   7.770  13.967
56269W        W22700  17.552  24.084   3.737
56270W        W22701  17.539  14.160   0.218
56271W        W22702  25.856   9.150   2.410
56272W        W22703  41.522  43.548   2.690
56273W        W22704  30.462  34.226  10.697
56274W        W22705  17.210   0.018   1.686
56275W        W22706  33.491   3.838  13.067
56276W        W22707  24.963  21.324  14.767
56277W        W22708  42.345  16.727   0.927
56278W        W22709  10.857  42.722   0.502
56279W        W22710  15.570  37.266  14.398
56280W        W22711  41.447  19.804  13.786
56281W        W22712  36.640  16.093   3.848
56282W        W22713   1.073  18.748   3.212
56283W        W22714   4.405  18.925  14.296
56284W        W22715   2.466  32.617   4.206
56285W        W22716  38.959  43.914  10.749
56286W        W22717  35.299  29.921  14.106
56287W        W22718   1.752  27.514  12.525
56288W        W22719  30.229  11.063   3.075
56289W        W22720   1.028  41.849   2.714
56290W        W22721  39.965  20.713  12.921
56291W        W22722  30.269   5.260  14.911
56292W        W22723  40.136  32.241  12.532
56293W        W22724  33.318   2.092   4.914
56294W        W22725  43.640  19.187  11.882
56295W        W22726  19.268  23.050   0.799
56296W        W22727  24.022  12.028   2.821
56297W        W22728   8.764   5.191  11.871
56298W        W22729   1.268  41.400   4.514
56299W        W22730  13.714   5.042   0.467
56300W        W22731   2.426  18.764  14.797
56301W        W22732   4.832  40.398  13.463
56302W        W22733  19.723  10.366   1.460
56303W        W22734  41.513  18.686  11.159
56304W        W22735  37.870  34.664   4.578
56305W        W22736   8.459   0.845   0.279
56306W        W22737  27.839  28.582   5.034
56307W        W22738   8.278  20.152   1.939
56308W        W22739  32.412  24.068   2.167
56309W        W22740  28.575  14.662  10.285
56310W        W22741  33.018  23.878  13.554
56311W        W22742  35.858  33.032  13.001
56312W        W22743  41.886   2.259   1.651
56313W        W22744  31.331  13.830  12.437
56314W        W22745  33.670   3.382  10.654
56315W        W22746  28.974  40.682   3.581
56316W        W22747  27.398  34.687  13.894
56317W        W22748  40.037   7.336   4.874
56318W        W22749  44.447  16.128   3.298
56319W        W22750  27.153  21.942  13.903
56320W        W22751   5.704   3.833  13.513
56321W        W22752  38.949  13.052   2.162
56322W        W22753  15.688  16.116  12.644
56323W        W22754  23.203   7.604   2.787
56324W        W22755  27.445  29.466   0.257
56325W        W22756  10.888  20.658   3.709
56326W        W22757  34.083   3.251   4.272
56327W        W22758   3.376  10.739   4.681
56328W        W22759  37.248  32.206   4.587
56329W        W22760  18.636  43.734  13.669
56330W        W22761  37.850  18.953  11.013
56331W        W22762  11.553  34.993  14.601
56332W        W22763  21.704  28.451  12.451
56333W        W22764  21.768  29.146   1.715
56334W        W22765  14.426   8.666  12.768
56335W        W22766  39.785   3.710  12.947
56336W        W22767  20.633  22.209  10.731
56337W        W22768  36.549  32.040   1.234
56338W        W22769  13.623  34.630   0.449
56339W        W22770   4.222  10.495  13.383
56340W        W22771  30.432  26.434  12.489
56341W        W22772   7.316  29.581  11.990
56342W        W22773  15.183  22.673   4.349
56343W        W22774  39.962  41.623  14.797
56344W        W22775   5.885  29.433   4.762
56345W        W22776  19.545  21.733   0.512
56346W        W22777  35.801  27.972   3.755
56347W        W22778  21.033  15.825   0.874
56348W        W22779  25.002  44.503   4.363
56349W        W22780  26.505  12.171   0.269
56350W        W22781  12.072  27.162   1.880
56351W        W22782  34.051  43.501   2.665
56352W        W22783   1.852  21.604  14.784
56353W        W22784  19.411  22.866   1.260
56354W        W22785  17.733  30.514   0.738
56355W        W22786  21.155  37.801   0.945
56356W        W22787  24.562  22.113  12.187
56357W        W22788  15.856  31.193   5.005
56358W        W22789  26.580  28.204   2.600
56359W        W22790  21.852  34.240   4.112
56360W        W22791  18.787  10.743   3.223
56361W        W22792  12.044   2.377  14.837
56362W        W22793   5.103   9.771   1.209
56363W        W22794   9.980  18.584  11.664
56364W        W22795  30.690  36.835   3.290
56365W        W22796  19.705  14.822   3.179
56366W        W22797  40.920  23.195   2.439
56367W        W22798  13.185  24.537  13.966
56368W        W22799  26.467  36.075   3.269
56369W        W22800  14.760   7.881  14.553
56370W        W22801  32.153  43.001   4.755
56371W        W22802  44.904  15.363   2.410
56372W        W22803  32.602  19.552  13.277
56373W        W22804  12.579  38.052  12.400
56374W        W22805  23.117  16.093  12.896
56375W        W22806   3.684  14.470   4.997
56376W        W22807  21.260   8.952  12.614
56377W        W22808  26.217  37.916  14.279
56378W        W22809   8.333  15.822  14.443
56379W        W22810   9.358  15.665   2.121
56380W        W22811  32.596  20.230  11.461
56381W        W22812   3.529  27.033   2.365
56382W        W22813  37.569  28.620   3.908
56383W        W22814  18.803  41.384   4.495
56384W        W22815  18.617   7.918  12.541
56385W        W22816  41.363  30.464  11.096
56386W        W22817  41.570  20.689  14.842
56387W        W22818   9.246  34.405  14.364
56388W        W22819  22.781  15.793  11.076
56389W        W22820   4.828  11.864   1.927
56390W        W22821  10.771   3.305  11.072
56391W        W22822  35.544  13.154   3.108
56392W        W22823   7.660  23.605  12.846
56393W        W22824  33.013   0.811  10.658
56394W        W22825  37.628   7.871  14.779
56395W        W22826  41.949  29.047   3.526
56396W        W22827  28.766  14.841  13.568
56397W        W22828  42.854  10.515  13.947
56398W        W22829   3.771  38.032  14.892
56399W        W22830   4.254  41.915   2.317
56400W        W22831  36.393  36.404   4.581
56401W        W22832   7.475  28.372   3.157
56402W        W22833  42.460   8.719  14.817
56403W        W22834  36.516   4.126  12.413
56404W        W22835  34.675  22.736   2.252
56405W        W22836   4.851  41.263   0.749
56406W        W22837  44.328  13.534   3.251
56407W        W22838   9.956   0.762   1.457
56408W        W22839  23.070  10.908  14.535
56409W        W22840  31.883  15.575   3.803
56410W        W22841  21.194  20.849   0.029
56411W        W22842  38.979   9.252  14.557
56412W        W22843  10.128  30.512  11.970
56413W        W22844   0.908  31.217   1.819
56414W        W22845  26.960   3.475  12.964
56415W        W22846  31.056  35.777   2.913
56416W        W22847  35.614  12.243   1.027
56417W        W22848  43.510   2.834   2.337
56418W        W22849  43.755  31.607   2.092
56419W        W22850  15.996  10.764  12.352
56420W        W22851  42.429  39.512   1.862
56421W        W22852   1.965  42.054   3.127
56422W        W22853  27.338  25.662  14.070
56423W        W22854  34.284  33.884   4.692
56424W        W22855  25.518  24.699  11.626
56425W        W22856  38.345  13.153  13.044
56426W        W22857   0.897  21.354   0.666
56427W        W22858  42.814  37.115  14.867
56428W        W22859   4.239  40.363   2.690
56429W        W22860  39.869  18.492  12.144
56430W        W22861  34.529   8.867  14.342
56431W        W22862  34.393  14.366   3.976
56432W        W22863  15.864  21.075   3.373
56433W        W22864  40.775   4.004   3.561
56434W        W22865   8.209  17.773  13.904
56435W        W22866  36.140  12.615  14.914
56436W        W22867  32.121  43.959   3.838
56437W        W22868   1.308  44.265   0.572
56438W        W22869  29.532  22.119  14.041
56439W        W22870  42.575   6.316  13.325
56440W        W22871   9.081  20.681  13.065
56441W        W22872  39.983   2.794  11.826
56442W        W22873  23.893  27.582  14.036
56443W        W22874   1.982   6.881   2.340
56444W        W22875   4.980   1.368   0.350
56445W        W22876  24.949   0.090   2.740
56446W        W22877  34.334  12.746  12.162
56447W        W22878   8.624  20.317   4.964
56448W        W22879  12.238  31.373   2.942
56449W        W22880  25.592   0.857  14.848
56450W        W22881  27.958  39.745  11.181
56451W        W22882  19.532   1.272   1.599
56452W        W22883  17.098  36.799   1.522
56453W        W22884  36.878   8.229   4.676
56454W        W22885  37.294  25.720  13.053
56455W        W22886  43.472  13.293   2.840
56456W        W22887   8.103  19.707  11.630
56457W        W22888  13.200  33.948  14.980
56458W        W22889  11.201  28.551  14.614
56459W        W22890  15.665  16.111   3.790
56460W        W22891  44.873   5.832   0.778
56461W        W22892  22.136  31.474  14.451
56462W        W22893  43.748  21.591   4.545
56463W        W22894   1.269  38.971  11.027
56464W        W22895   6.708  15.243  12.495
56465W        W22896  19.048  41.316   0.756
56466W        W22897  36.819  44.772  12.257
56467W        W22898  33.941  13.815  14.751
56468W        W22899   4.713  39.549   3.115
56469W        W22900  37.418  44.348  11.945
56470W        W22901  14.697  33.119   0.804
56471W        W22902  15.172  31.476   4.113
56472W        W22903  33.012  29.054  13.875
56473W        W22904  21.015   1.414   1.100
56474W        W22905  34.590  36.498   2.441
56475W        W22906   6.463  29.083  11.743
56476W        W22907  31.696  33.399  13.993
56477W        W22908   3.314  16.667  13.541
56478W        W22909  18.722  40.980  12.922
56479W        W22910  24.346  28.928  11.133
56480W        W22911  27.085  23.803  13.931
56481W        W22912  24.743  32.893  12.497
56482W        W22913  14.692  24.025  13.531
56483W        W22914  22.976  19.253   0.902
56484W        W22915  43.569  17.320   4.065
56485W        W22916  24.290  20.743   4.557
56486W        W22917  40.143  15.668  11.483
56487W        W22918  29.977  35.688  12.178
56488W        W22919  20.031  19.011   0.022
56489W        W22920   4.957  12.684  13.168
56490W        W22921  16.260  40.734  13.181
56491W        W22922  25.013  38.835   4.905
56492W        W22923  19.414  42.894   2.807
56493W        W22924   5.496  14.572   1.329
56494W        W22925  39.337  22.966   3.086
56495W        W22926  13.363  25.147   3.073
56496W        W22927   1.857   0.461   0.704
56497W        W22928  15.343   9.911   3.261
56498W        W22929  33.087   0.049  11.167
56499W        W22930  11.880  34.609   3.903
56500W        W22931  29.704  39.377  11.215
56501W        W22932  30.860  18.675   1.670
56502W        W22933  27.931  15.631  11.690
56503W        W22934   6.636   4.762  11.512
56504W        W22935  23.505  32.850   9.751
56505W        W22936  19.166  21.128   4.977
56506W        W22937  36.464  13.373  12.662
56507W        W22938  20.777  25.396  14.905
56508W        W22939  32.547  20.745  13.362
56509W        W22940  43.855  36.368  12.012
56510W        W22941  16.147  28.766  11.202
56511W        W22942  37.542   9.650  12.359
56512W        W22943   8.583  18.011   1.875
56513W        W22944  43.203  24.564   1.233
56514W        W22945  24.902  33.130  10.481
56515W        W22946  30.057  41.019  13.783
56516W        W22947  28.038  24.527  11.390
56517W        W22948  21.455  21.561  12.466
56518W        W22949  41.299  31.331   3.518
56519W        W22950   5.226  13.986  11.079
56520W        W22951  29.500  25.896   4.684
56521W        W22952  11.831  24.093  14.541
56522W        W22953   1.884  32.564  10.560
56523W        W22954  33.674  37.810   0.771
56524W        W22955  20.947   7.192   0.274
56525W        W22956  26.658   3.745   2.120
56526W        W22957  28.960  11.244   2.033
56527W        W22958  34.411  13.181   2.413
56528W        W22959  10.861  28.472   2.355
56529W        W22960  17.129   5.906  14.409
56530W        W22961  33.139  35.639  12.962
56531W        W22962  25.428  21.480  14.902
56532W        W22963  44.699  38.416  10.163
56533W        W22964  42.202  24.363  13.572
56534W        W22965  38.520  41.101  11.094
56535W        W22966  33.160   8.724  12.059
56536W        W22967  40.557  37.153  11.069
56537W        W22968  26.929  39.981   1.436
56538W        W22969  16.339   0.439   1.190
56539W        W22970   8.465  37.862  11.602
56540W        W22971  43.829  19.024   3.755
56541W        W22972  10.239   1.563  13.541
56542W        W22973   7.942  31.006   1.988
56543W        W22974   8.845  11.904  13.087
56544W        W22975  35.695  30.804   0.238
56545W        W22976  23.008   5.708   0.790
56546W        W22977  38.442  28.103   4.742
56547W        W22978  25.670   7.703  14.972
56548W        W22979  28.663   7.312  12.968
56549W        W22980  11.323  43.227  11.119
56550W        W22981  44.873  26.075   3.363
56551W        W22982  42.978  32.629   1.793
56552W        W22983  22.823  36.287  10.612
56553W        W22984  34.346  41.049   0.885
56554W        W22985  39.182  28.845  11.279
56555W        W22986  14.365  30.147   0.381
56556W        W22987  38.773  21.592   4.659
56557W        W22988  26.998  43.332  12.590
56558W        W22989   6.725   7.320   1.819
56559W        W22990  29.289  35.189  12.471
56560W        W22991  37.682  38.126   4.538
56561W        W22992  36.514  10.089   1.373
56562W        W22993  43.942  42.887  12.657
56563W        W22994   5.358  34.014  10.424
56564W        W22995  18.256   6.751  10.934
56565W        W22996  28.647   9.350  10.436
56566W        W22997  23.036   4.741  14.059
56567W        W22998   8.687  41.481  10.628
56568W        W22999   0.505   9.374   2.967
56569W        W23000   1.258  18.271  12.812
56570W        W23001   9.836  14.680  11.985
56571W        W23002  37.536  18.331  13.836
56572W        W23003  41.782  20.721  13.992
56573W        W23004  22.034  18.635  14.970
56574W        W23005   6.349  28.740   3.696
56575W        W23006  34.571  30.386   9.793
56576W        W23007  36.692  42.762  13.429
56577W        W23008  18.558   5.479   0.296
56578W        W23009  11.810   9.862   2.854
56579W        W23010  30.014  38.478  14.108
56580W        W23011   5.952  32.338  13.865
56581W        W23012  37.427  11.181   1.330
56582W        W23013  42.781  20.711   2.330
56583W        W23014  37.835   9.416   3.608
56584W        W23015  33.954  40.020   1.410
56585W        W23016  20.103  43.557  14.760
56586W        W23017   1.279   8.398   2.033
56587W        W23018  13.644  13.091  14.844
56588W        W23019  43.013  36.488   4.429
56589W        W23020  43.147  28.100   0.883
56590W        W23021  17.481  25.240  13.292
56591W        W23022  22.715  34.095   2.886
56592W        W23023  15.544  11.800  13.415
56593W        W23024  14.239  22.177   4.951
56594W        W23025  11.470  34.506  14.776
56595W        W23026  33.964  22.391  11.801
56596W        W23027   1.506  27.698   1.684
56597W        W23028  36.052  29.379   3.645
56598W        W23029  17.313  10.774  13.475
56599W        W23030  33.112  25.212  12.635
56600W        W23031   7.452  26.475  14.731
56601W        W23032  43.601  22.619  14.040
56602W        W23033  14.425  33.886   1.517
56603W        W23034  24.082  18.022  13.986
56604W        W23035  27.880  34.293   2.611
56605W        W23036  36.363  15.881   4.263
56606W        W23037  38.444  27.482   2.748
56607W        W23038  16.732  16.552  11.005
56608W        W23039   3.289  37.643   1.627
56609W        W23040  21.777  44.223  11.981
56610W        W23041  27.676   8.313   2.409
56611W        W23042  17.799  26.601  10.523
56612W        W23043  44.950  28.161  11.872
56613W        W23044  18.679  14.261  14.432
56614W        W23045  10.346  29.506   3.975
56615W        W23046  38.596  30.614  14.291
56616W        W23047  40.557  28.764  11.063
56617W        W23048   4.627   2.236   4.579
56618W        W23049  17.060  11.282  10.635
56619W        W23050   2.330  30.927  11.446
56620W        W23051  32.402  25.462   1.613
56621W        W23052  21.827  14.753   4.622
56622W        W23053  38.144  36.427  13.500
56623W        W23054  39.949  13.594  10.690
56624W        W23055   0.855  22.801   4.177
56625W        W23056  14.093  14.162  12.074
56626W        W23057  34.549   0.952   3.636
56627W        W23058  41.486  11.616  14.896
56628W        W23059  14.244  36.345  11.162
56629W        W23060   7.994  24.646  14.594
56630W        W23061  35.318  13.795   3.158
56631W        W23062  21.776  11.834   4.144
56632W        W23063   9.941  16.856   4.158
56633W        W23064  36.993  29.869  13.419
56634W        W23065   9.226  39.946   3.434
56635W        W23066   3.619  30.043  13.058
56636W        W23067  26.672  23.535   3.031
56637W        W23068   4.361  18.730  11.493
56638W        W23069  27.106  37.985  11.168
56639W        W23070  20.984  34.407  10.536
56640W        W23071   4.888  28.445   1.569
56641W        W23072   4.018  16.491   2.806
56642W        W23073  11.933   2.401  13.977
56643W        W23074  26.890  21.580   1.461
56644W        W23075  44.085   3.119  12.123
56645W        W23076  11.265  22.107  10.701
56646W        W23077  20.245   0.971  10.464
56647W        W23078  15.951  10.220   0.935
56648W        W23079   0.229  31.373  13.383
56649W        W23080  31.542   7.918  12.355
56650W        W23081  13.271  36.305   0.998
56651W        W23082  40.248   3.925  12.936
56652W        W23083  25.268  34.020  11.305
56653W        W23084  23.759  41.315  10.735
56654W        W23085   3.298  28.470  12.340
56655W        W23086   8.631   4.710   0.821
56656W        W23087  37.963  28.516   3.108
56657W        W23088  10.107  33.934  12.397
56658W        W23089  29.919  40.334   3.745
56659W        W23090  23.711  12.726  12.364
56660W        W23091   5.199  33.697   0.220
56661W        W23092  23.703  42.713  13.937
56662W        W23093  35.907  22.707   3.362
56663W        W23094  28.994  40.535   0.908
56664W        W23095  28.005  22.666   3.220
56665W        W23096  37.613  26.648   2.818
56666W        W23097  31.567  31.660  14.108
56667W        W23098   8.927  38.736   3.080
56668W        W23099   2.231  31.667   4.063
56669W        W23100  44.416  34.604  11.853
56670W        W23101   3.745  13.326   2.328
56671W        W23102  37.420  33.376  14.647
56672W        W23103  39.902  26.023   1.007
56673W        W23104  13.097  44.274   1.681
56674W        W23105  39.910  32.417  12.091
56675W        W23106  33.156  14.763  13.886
56676W        W23107  31.308  16.423  14.089
56677W        W23108  41.709  27.533   4.355
56678W        W23109  30.056  31.683  14.248
56679W        W23110  30.454  36.745  10.694
56680W        W23111  10.297  14.680  14.698
56681W        W23112   0.560  38.731  11.544
56682W        W23113   5.958  37.452   2.390
56683W        W23114   8.910  19.693   0.061
56684W        W23115  16.700  31.903   4.631
56685W        W23116  39.990   6.118  12.379
56686W        W23117  18.120  11.346   1.896
56687W        W23118  31.441  28.665  14.184
56688W        W23119   9.285  37.163   1.199
56689W        W23120  31.268   6.629   1.475
56690W        W23121  44.976  38.954   4.333
56691W        W23122   3.321   0.987   1.763
56692W        W23123  35.455   8.148  11.195
56693W        W23124  25.834  28.559  13.880
56694W        W23125  23.908   3.798  14.554
56695W        W23126  28.024  44.462  12.632
56696W        W23127   1.924  34.336   1.587
56697W        W23128  36.608  42.802   0.434
56698W        W23129  21.177  24.805   1.244
56699W        W23130  12.923   7.004  13.001
56700W        W23131  40.059   9.892  12.126
56701W        W23132  20.627   1.016   0.989
56702W        W23133  20.443  16.296   3.645
56703W        W23134  20.693  12.392  12.038
56704W        W23135   8.980  29.652   3.795
56705W        W23136  17.330  32.382  13.112
56706W        W23137  14.358  10.412  12.954
56707W        W23138  44.487  40.628  14.397
56708W        W23139  10.853  21.490  12.529
56709W        W23140  39.996  10.850   0.026
56710W        W23141  44.394   1.344  10.369
56711W        W23142  43.954   8.788  11.637
56712W        W23143  13.736  15.176   3.183
56713W        W23144  36.319  44.891   1.506
56714W        W23145  19.502  40.785   3.270
56715W        W23146  18.773  42.616   4.467
56716W        W23147  41.280  12.779   1.200
56717W        W23148  34.457  23.238  14.319
56718W        W23149   1.941   5.475  13.800
56719W        W23150  26.986  44.806   3.579
56720W        W23151  17.184  28.952  14.244
56721W        W23152   0.302  39.034  13.498
56722W        W23153  20.006  25.648   3.673
56723W        W23154  14.553   2.868   1.969
56724W        W23155  13.890  30.172   2.816
56725W        W23156   6.188  32.410  13.351
56726W        W23157  40.062   8.758   3.648
56727W        W23158  22.602  43.411  12.572
56728W        W23159  21.579  26.202  13.072
56729W        W23160  39.635   2.563   4.685
56730W        W23161  35.881  44.743  10.691
56731W        W23162  33.429  38.057   4.955
56732W        W23163   8.995  11.374  13.995
56733W        W23164  17.675  22.253   0.463
56734W        W23165  14.623  38.570   5.010
56735W        W23166  19.125   3.749   5.093
56736W        W23167   0.400   0.368   4.600
56737W        W23168   5.706  12.573   2.336
56738W        W23169  21.069   4.265  13.838
56739W        W23170   1.837  19.889  13.249
56740W        W23171  44.906  15.841   3.186
56741W        W23172  34.114   9.822  14.873
56742W        W23173   1.539  41.064   2.659
56743W        W23174  42.516   0.790  12.582
56744W        W23175  33.915  33.638  12.913
56745W        W23176   0.408   9.285  12.686
56746W        W23177   7.416  22.012   0.030
56747W        W23178  33.462   6.081   3.178
56748W        W23179   0.362  44.351   4.303
56749W        W23180   4.918  29.190  14.564
56750W        W23181  39.814   1.423  13.515
56751W        W23182  11.615   5.177  12.998
56752W        W23183  30.508  13.507   0.408
56753W        W23184  18.800  34.883   0.121
56754W        W23185  21.922  36.071  11.266
56755W        W23186  32.208  33.840  14.586
56756W        W23187  12.639  26.716  12.668
56757W        W23188  36.181  13.751  14.536
56758W        W23189   3.298  20.214   3.545
56759W        W23190  12.855   1.499  12.508
56760W        W23191  17.132  13.672  12.113
56761W        W23192  22.716  22.486   4.306
56762W        W23193  17.751  17.746  14.453
56763W        W23194  14.111  36.932   1.270
56764W        W23195  10.212  28.023   5.062
56765W        W23196   2.756  14.431  12.801
56766W        W23197   9.780  28.129   1.345
56767W        W23198  27.391  31.317   2.262
56768W        W23199   7.788  19.709   4.988
56769W        W23200   1.376   4.847  12.580
56770W        W23201  43.447  16.033  11.409
56771W        W23202  21.903  39.957   2.782
56772W        W23203   6.191  37.109  11.943
56773W        W23204  39.513   3.931  11.135
56774W        W23205  15.855  23.405  12.040
56775W        W23206  20.023  42.884  11.065
56776W        W23207  32.458  34.174  13.341
56777W        W23208  36.807  40.416   0.266
56778W        W23209  33.104   1.278  11.566
56779W        W23210   1.264  24.925   0.556
56780W        W23211  28.082  20.918   2.915
56781W        W23212  25.688  29.109   0.851
56782W        W23213  42.194  13.808   1.356
56783W        W23214  37.333  14.841   1.224
56784W        W23215   9.246  13.075   4.581
56785W        W23216  14.418   6.194  13.790
56786W        W23217  34.978   0.646  12.926
56787W        W23218  27.136  27.512   3.107
56788W        W23219  26.115  18.907   4.836
56789W        W23220  14.569  17.140   9.621
56790W        W23221  22.991  26.662  12.441
56791W        W23222  18.994  17.210  14.348
56792W        W23223   5.426  32.921   1.386
56793W        W23224  21.180  15.495   2.293
56794W        W23225  42.286   6.496  10.615
56795W        W23226  33.724  32.896   0.920
56796W        W23227  23.261  18.780   1.766
56797W        W23228   8.302  23.152   0.818
56798W        W23229  22.998  28.805   4.440
56799W        W23230   6.260  15.711   0.812
56800W        W23231  14.533  41.753  14.820
56801W        W23232  15.798   1.888  13.362
56802W        W23233  44.002  34.877   4.753
56803W        W23234  14.174  38.330   1.161
56804W        W23235  10.763  31.564   0.873
56805W        W23236  11.167  35.612  12.230
56806W        W23237  21.731   3.210   1.256
56807W        W23238  11.196  42.530  14.834
56808W        W23239  43.736  17.834   4.632
56809W        W23240  13.408  41.328  12.000
56810W        W23241  26.773  36.893   1.416
56811W        W23242   3.337  23.587   1.237
56812W        W23243  21.066  10.769  13.290
56813W        W23244   6.870  31.529   0.968
56814W        W23245  26.909  15.695   4.899
56815W        W23246  29.990  15.281   1.397
56816W        W23247  38.430   5.752   1.251
56817W        W23248  28.724  24.741   4.350
56818W        W23249  10.128  21.017   4.147
56819W        W23250   5.284   5.754  14.395
56820W        W23251  25.193   7.216   0.751
56821W        W23252  34.750  26.062   0.796
56822W        W23253  32.405  19.219  14.417
56823W        W23254  36.075   3.377   2.527
56824W        W23255  43.320  44.397   3.352
56825W        W23256  36.935  42.199   4.883
56826W        W23257  21.071  32.106  10.624
56827W        W23258  10.907  27.499   4.477
56828W        W23259   8.025  28.688  10.943
56829W        W23260  15.996  12.891   2.214
56830W        W23261  27.609  32.677  11.594
56831W        W23262  40.445   2.596   0.343
56832W        W23263  44.276  25.976   1.795
56833W        W23264  41.310   2.901   4.140
56834W        W23265  29.192  18.641   4.057
56835W        W23266  28.524  15.633   3.244
56836W        W23267  15.810   9.105   1.681
56837W        W23268  34.071  25.647  14.503
56838W        W23269  36.854  24.171  13.899
56839W        W23270   9.799  34.867   0.517
56840W        W23271  16.800  38.386  12.328
56841W        W23272   2.460  42.084  14.014
56842W        W23273   3.750   8.702   3.987
56843W        W23274   7.637  14.132  13.400
56844W        W23275  14.229  26.754  14.366
56845W        W23276  44.406  35.910  14.973
56846W        W23277  32.932   9.761   2.803
56847W        W23278  42.944  11.770   0.835
56848W        W23279  28.549  30.171  10.446
56849W        W23280  24.545   4.703   0.388
56850W        W23281   1.321  10.300  12.662
56851W        W23282   5.161   3.288  13.089
56852W        W23283  44.688  27.641   4.125
56853W        W23284  25.379  44.472   4.716
56854W        W23285  11.890  38.560   1.207
56855W        W23286  37.577  10.749   4.616
56856W        W23287  14.570  29.213   1.308
56857W        W23288  44.628  17.997   2.276
56858W        W23289  33.864  27.530   1.446
56859W        W23290  26.694   8.573   1.786
56860W        W23291  44.933  30.126   2.175
56861W        W23292   3.367  23.182  14.070
56862W        W23293  40.108  38.214  10.117
56863W        W23294  44.796   8.708  13.462
56864W        W23295   2.687  15.873  12.870
56865W        W23296  43.956  42.044   1.424
56866W        W23297  31.968  23.171   3.206
56867W        W23298  41.658  17.637  14.449
56868W        W23299  30.840  39.937   2.054
56869W        W23300  39.061   1.423   1.415
56870W        W23301  14.060  25.616   3.253
56871W        W23302  22.212  26.722   1.371
56872W        W23303  18.203  11.098   2.356
56873W        W23304   1.194  33.914  13.583
56874W        W23305  32.594  11.821  14.649
56875W        W23306  17.217  23.097  11.108
56876W        W23307  38.030  19.086   2.807
56877W        W23308  26.680  16.235  12.164
56878W        W23309  27.935  41.420  10.605
56879W        W23310   6.865  33.025   3.905
56880W        W23311  41.314  21.679   0.206
56881W        W23312  30.596  19.227   3.327
56882W        W23313  15.593  39.423  14.440
56883W        W23314  39.069  20.355  12.867
56884W        W23315  35.212  43.189  11.174
56885W        W23316  43.767  34.454   2.765
56886W        W23317   2.213  19.243   2.124
56887W        W23318   7.273  11.050  12.636
56888W        W23319  11.432   1.475  12.931
56889W        W23320   3.352  10.954  14.963
56890W        W23321  29.522  43.088   5.032
56891W        W23322   6.633   5.465   1.775
56892W        W23323  21.716  36.548  11.116
56893W        W23324  33.824   6.760   3.652
56894W        W23325   7.074   9.662   1.345
56895W        W23326   6.665  26.433   3.771
56896W        W23327  21.248   8.290   4.254
56897W        W23328   8.230  31.606   0.013
56898W        W23329  35.253  38.556  14.386
56899W        W23330  13.241  25.652   2.729
56900W        W23331  12.017  16.805   3.338
56901W        W23332  17.103  34.093   3.171
56902W        W23333  31.458  30.774  13.116
56903W        W23334   5.861   8.629  14.716
56904W        W23335  25.484  26.003  12.034
56905W        W23336   1.786  37.870   4.559
56906W        W23337  29.979   4.938   1.168
56907W        W23338  21.647  12.186  10.703
56908W        W23339  30.716  28.582  11.578
56909W        W23340  40.040   8.333  14.170
56910W        W23341  25.046  16.642  14.477
56911W        W23342  44.171   1.092  12.387
56912W        W23343  42.817  43.463  12.553
56913W        W23344  27.466  16.753   4.621
56914W        W23345  41.964  30.546  11.201
56915W        W23346  20.994  35.555   0.975
56916W        W23347  22.006   1.294  14.732
56917W        W23348  20.033  20.897  11.049
56918W        W23349  36.096  28.739   4.149
56919W        W23350  21.431  37.394   3.233
56920W        W23351  20.988  22.227  11.129
56921W        W23352  17.792  14.498   2.345
56922W        W23353   6.185  33.095  11.179
56923W        W23354  12.314  43.368  13.095
56924W        W23355  15.540   1.874   0.203
56925W        W23356  32.674   9.417   3.798
56926W        W23357  40.893   3.467  12.679
56927W        W23358   6.721   3.832  11.616
56928W        W23359  17.237  22.657  13.846
56929W        W23360  37.962  27.053  13.483
56930W        W23361  25.746  38.492   2.652
56931W        W23362  30.168   2.038  14.554
56932W        W23363  35.430  29.092  13.461
56933W        W23364   4.423  41.562  13.866
56934W        W23365  18.740  43.398   4.098
56935W        W23366  43.094   8.306  11.473
56936W        W23367  37.064  25.213   2.153
56937W        W23368  17.796  36.778  11.912
56938W        W23369  29.082  37.474  12.565
56939W        W23370   6.442  35.969  12.020
56940W        W23371   3.934  43.929   0.396
56941W        W23372   2.511  21.043   0.521
56942W        W23373  17.763  18.824  11.159
56943W        W23374  34.868   0.848  14.697
56944W        W23375  39.366  37.826   1.839
56945W        W23376  28.998  14.390  11.836
56946W        W23377  15.139   1.241  11.082
56947W        W23378  18.101  27.499   0.834
56948W        W23379  34.168  12.003   3.302
56949W        W23380  27.141  38.329   2.659
56950W        W23381  10.828  37.846   0.959
56951W        W23382  24.392  10.680  10.774
56952W        W23383  43.272  20.305   2.761
56953W        W23384  36.053  27.556  10.306
56954W        W23385  14.196  26.320   1.735
56955W        W23386  34.587  42.281   1.143
56956W        W23387  24.126  20.536  14.541
56957W        W23388  40.565  41.964  13.402
56958W        W23389  18.099  42.550   1.862
56959W        W23390   0.416  38.282  10.376
56960W        W23391  38.681  20.692  12.876
56961W        W23392  34.904  34.414  13.383
56962W        W23393   6.993   0.962   0.703
56963W        W23394  21.700  37.786  13.151
56964W        W23395  36.996  17.798   2.844
56965W        W23396  43.798  39.887   0.229
56966W        W23397  29.473  27.313   2.783
56967W        W23398  30.883  43.222  10.449
56968W        W23399   4.388  16.552   4.961
56969W        W23400   9.221  39.747  12.880
56970W        W23401  44.252  33.353   1.764
56971W        W23402  33.101  41.910  11.708
56972W        W23403   9.810  38.428  12.518
56973W        W23404  35.940  44.359  12.044
56974W        W23405   1.820  32.148  14.557
56975W        W23406  26.159  43.239   4.220
56976W        W23407   8.979  24.244  12.938
56977W        W23408  40.104  33.102  13.109
56978W        W23409   0.539  17.681   1.048
56979W        W23410  42.248  39.820  14.553
56980W        W23411  19.780  14.815  12.864
56981W        W23412  40.865  18.799   2.944
56982W        W23413   0.318  23.750   1.397
56983W        W23414  19.590   0.373  11.447
56984W        W23415  32.888  37.685  13.033
56985W        W23416  43.487   2.959   3.229
56986W        W23417  13.775  36.979   2.635
56987W        W23418  35.902  14.525  11.548
56988W        W23419  29.157  17.405   2.309
56989W        W23420  27.035  43.616  13.925
56990W        W23421  16.243  23.777  11.629
56991W        W23422  23.367  24.161   1.267
56992W        W23423  34.063  25.221  12.953
56993W        W23424  12.308   4.298   0.842
56994W        W23425   2.345  25.958   0.963
56995W        W23426  41.021  28.899   1.384
56996W        W23427   8.392  27.430  14.404
56997W        W23428  41.634  32.656  14.556
56998W        W23429  30.198  14.517   0.159
56999W        W23430  29.588  13.262   4.085
57000W        W23431  25.528  41.004  10.282
57001W        W23432  37.509  43.914  12.936
57002W        W23433  32.302  12.663  10.668
57003W        W23434  21.854  23.816   3.569
57004W        W23435  17.028  29.973   0.772
57005W        W23436  25.183   2.009   1.668
57006W        W23437   4.735  27.571   2.953
57007W        W23438  28.024   1.005  11.452
57008W        W23439  29.964  26.186   1.384
57009W        W23440  29.398  25.054  11.014
57010W        W23441  10.300  26.247   2.851
57011W        W23442   1.802  39.783   3.824
57012W        W23443  13.693  39.346  14.290
57013W        W23444  13.093  18.255   2.184
57014W        W23445  13.646  28.822  13.516
57015W        W23446  41.311  24.310  13.502
57016W        W23447   4.168   2.078   1.777
57017W        W23448  34.520  44.426  10.878
57018W        W23449  42.982  23.357   1.640
57019W        W23450  28.481  30.764  13.595
57020W        W23451   7.160  17.634  11.269
57021W        W23452  39.904  16.654  11.531
57022W        W23453  32.403  37.081   4.543
57023W        W23454  38.825   6.574   3.286
57024W        W23455  17.853  39.259  11.660
57025W        W23456  34.564   2.350   1.271
57026W        W23457   0.531  31.922  11.200
57027W        W23458  21.603   2.669  12.234
57028W        W23459  14.306  28.132  14.482
57029W        W23460  20.810  41.766  12.990
57030W        W23461  38.373  32.900  14.186
57031W        W23462   1.510  31.479  13.017
57032W        W23463  26.018  32.883   4.370
57033W        W23464  15.561  17.547   2.806
57034W        W23465  19.257  34.147  11.159
57035W        W23466  15.148   4.785  11.659
57036W        W23467  30.465  17.218   4.409
57037W        W23468  19.345  32.965   0.069
57038W        W23469   9.612   4.288   2.416
57039W        W23470  33.226   2.342   0.712
57040W        W23471  28.934   1.893  12.856
57041W        W23472  36.990  18.338  12.020
57042W        W23473  31.411  41.432  10.713
57043W        W23474  13.625   1.955  11.085
57044W        W23475  38.635  15.095  13.484
57045W        W23476  18.743  41.907  10.313
57046W        W23477   6.473  36.119   1.771
57047W        W23478  20.463  31.938  11.673
57048W        W23479  30.857  39.416  10.672
57049W        W23480  22.543   3.175  13.796
57050W        W23481   8.432   2.300   0.894
57051W        W23482  29.553  43.804  13.861
57052W        W23483   2.969   1.461  13.054
57053W        W23484  13.212  10.234  12.981
57054W        W23485  35.371  15.593  12.888
57055W        W23486  29.559  28.872   4.492
57056W        W23487  23.484  26.514  11.428
57057W        W23488  27.540  32.176  10.044
57058W        W23489  25.739  11.362   2.287
57059W        W23490   2.475  33.948   5.041
57060W        W23491  36.515  36.448   3.221
57061W        W23492  20.831  20.727  11.399
57062W        W23493  24.411  26.484  13.501
57063W        W23494   9.216   9.354  14.866
57064W        W23495  29.045   3.289  11.211
57065W        W23496   4.958  36.157  10.436
57066W        W23497  41.439   1.840   0.463
57067W        W23498  37.879  25.716  13.836
57068W        W23499  22.221  37.396  13.611
57069W        W23500   7.732  26.038  14.792
57070W        W23501  35.073  15.739   4.559
57071W        W23502  33.388  25.521  12.045
57072W        W23503  41.817  25.394   3.180
57073W        W23504  33.807  26.752  10.784
57074W        W23505  20.301  42.058  12.063
57075W        W23506  29.955  14.608  14.703
57076W        W23507   7.334  25.572  13.280
57077W        W23508  11.644  38.938  14.702
57078W        W23509  42.899  14.552  12.791
57079W        W23510  33.804  32.101   2.087
57080W        W23511   6.743   4.472  12.973
57081W        W23512  23.702  43.573  10.980
57082W        W23513  35.023  19.577   3.569
57083W        W23514   0.026   4.963  11.618
57084W        W23515  37.195  44.459  12.453
57085W        W23516  10.146  29.715   3.028
57086W        W23517  13.834   9.634   1.679
57087W        W23518  15.908  10.239   3.883
57088W        W23519  17.083  12.362   1.616
57089W        W23520   5.506  42.391  14.855
57090W        W23521  23.929   9.840  14.650
57091W        W23522   9.748  21.074   3.776
57092W        W23523  41.574  31.599   1.299
57093W        W23524   8.719  25.060  14.444
57094W        W23525  36.828  42.653  14.967
57095W        W23526   4.156  18.718  13.888
57096W        W23527  40.418   3.910   2.285
57097W        W23528  40.951  16.181   1.176
57098W        W23529  16.060  12.113   2.680
57099W        W23530   9.386   8.239   4.692
57100W        W23531  33.504  10.798  14.261
57101W        W23532  11.654  42.271   4.257
57102W        W23533  13.396  34.011   2.664
57103W        W23534  26.979  36.396   2.120
57104W        W23535  15.516   1.955   5.360
57105W        W23536  39.155  23.416  11.269
57106W        W23537  14.833  40.982   0.204
57107W        W23538  32.793   8.733   0.970
57108W        W23539  13.228  40.113  14.762
57109W        W23540  24.790   1.990   2.455
57110W        W23541  25.105  13.271   3.200
57111W        W23542  34.330  33.037   2.320
57112W        W23543  31.431  36.546   2.710
57113W        W23544  26.131  23.638  11.685
57114W        W23545  25.303  17.054  10.953
57115W        W23546  32.424   3.820  13.997
57116W        W23547  23.516  22.907  12.408
57117W        W23548   4.998  10.155  13.767
57118W        W23549  40.538  28.381  11.909
57119W        W23550   4.347  15.836  13.841
57120W        W23551  15.719   6.242   2.799
57121W        W23552  40.324  39.532   2.210
57122W        W23553  28.533  38.984  10.092
57123W        W23554   7.320  15.063   1.305
57124W        W23555   8.778   8.444  11.515
57125W        W23556  27.824  44.332   2.224
57126W        W23557  10.865   8.630   4.305
57127W        W23558  11.435  16.732  14.228
57128W        W23559  41.057  41.332  11.379
57129W        W23560  38.020  34.621  13.377
57130W        W23561  33.462   3.674   0.315
57131W        W23562  33.689  16.239  12.607
57132W        W23563  13.885  34.562  13.371
57133W        W23564  39.150   1.016   3.176
57134W        W23565  10.479  13.838   4.135
57135W        W23566  14.523  34.854   4.286
57136W        W23567   7.435  13.368   1.717
57137W        W23568   7.747  17.511   3.085
57138W        W23569  42.754  44.294  14.310
57139W        W23570  32.372   3.288   2.422
57140W        W23571   8.425  16.008   3.571
57141W        W23572   7.067  39.426  13.340
57142W        W23573   5.561   2.953  14.001
57143W        W23574   8.745   5.916   1.456
57144W        W23575  43.926  25.994   4.599
57145W        W23576   4.332   3.959  11.888
57146W        W23577  22.290  27.767   1.295
57147W        W23578  44.124  30.943   1.723
57148W        W23579  33.110  32.038   3.231
57149W        W23580  18.229  39.743  12.930
57150W        W23581  32.974  41.480  13.375
57151W        W23582   6.153  26.735  11.744
57152W        W23583  26.130  31.075   1.947
57153W        W23584  35.614   8.777   3.708
57154W        W23585  33.483  11.818   0.748
57155W        W23586  37.985  29.651   0.278
57156W        W23587  24.292  19.412   0.983
57157W        W23588  25.643  32.971   4.019
57158W        W23589   5.794  23.639  11.677
57159W        W23590  20.867   7.858  10.758
57160W        W23591  19.175  30.629  11.211
57161W        W23592  26.115  20.635   0.572
57162W        W23593  20.808  42.471   0.753
57163W        W23594   6.270  25.377  11.955
57164W        W23595  14.794  20.621  11.559
57165W        W23596  29.915  29.066  11.536
57166W        W23597  38.743  16.395  13.955
57167W        W23598   8.002  44.455   2.911
57168W        W23599  26.475   3.305   4.979
57169W        W23600  15.890  16.713   0.399
57170W        W23601  25.520  14.516  11.607
57171W        W23602  29.556   0.346   1.283
57172W        W23603   4.789  19.404  12.311
57173W        W23604  14.799  12.670   2.881
57174W        W23605  42.275  13.332  10.813
57175W        W23606  31.619  19.184  13.894
57176W        W23607  26.188   0.046  12.020
57177W        W23608  24.097  36.004   4.591
57178W        W23609   4.468  44.617  10.686
57179W        W23610   4.540   4.721  10.103
57180W        W23611  18.581  25.289  10.465
57181W        W23612  27.748  33.613  11.241
57182W        W23613  38.049  37.892   5.145
57183W        W23614   1.049   9.863  14.343
57184W        W23615  31.474  22.207  11.452
57185W        W23616   6.114  11.916  11.528
57186W        W23617  23.973  32.089  10.074
57187W        W23618  25.078  13.833   2.191
57188W        W23619  19.400  13.743   4.461
57189W        W23620  39.384  41.808   0.491
57190W        W23621  41.104  27.129   4.292
57191W        W23622  11.519  11.437  13.478
57192W        W23623  37.484   4.943  11.410
57193W        W23624  34.433  44.499  14.434
57194W        W23625  42.019  42.879   4.724
57195W        W23626   0.848  26.533  12.012
57196W        W23627  13.447  26.177   4.489
57197W        W23628  38.154   0.592   3.957
57198W        W23629  43.338  19.225  14.970
57199W        W23630  34.343  19.215  11.516
57200W        W23631  36.594  39.264  12.524
57201W        W23632  19.724  42.735   1.430
57202W        W23633  36.023  27.211   4.199
57203W        W23634  18.488  16.339  10.470
57204W        W23635   5.662   6.987  14.804
57205W        W23636  19.040  15.131  12.832
57206W        W23637  13.072  18.722  11.489
57207W        W23638   3.612  31.093  13.745
57208W        W23639   5.873  21.623   2.351
57209W        W23640  41.984  22.570   0.756
57210W        W23641  16.792  11.420   2.279
57211W        W23642  43.111  43.331  11.996
57212W        W23643  38.012  29.605  13.893
57213W        W23644  39.064  28.551   3.649
57214W        W23645   8.733  18.981   1.426
57215W        W23646  15.050  43.158  14.408
57216W        W23647  35.335  21.599   1.275
57217W        W23648  38.897   7.816  12.311
57218W        W23649  39.281  38.257  10.180
57219W        W23650  20.142  31.556   4.503
57220W        W23651   1.000   0.042  11.109
57221W        W23652  19.222  39.567   0.622
57222W        W23653  20.686  11.822  11.182
57223W        W23654  39.842  27.832  14.857
57224W        W23655  23.577  22.131   4.795
57225W        W23656  19.556  26.288  10.922
57226W        W23657  19.602  44.715   1.399
57227W        W23658   4.150   7.838   0.957
57228W        W23659  21.826   8.934   1.270
57229W        W23660  31.266  29.045   3.190
57230W        W23661  40.407  43.097   2.209
57231W        W23662   4.334  43.347  11.468
57232W        W23663  15.684  16.937  14.530
57233W        W23664  34.287  13.863  12.926
57234W        W23665  29.286  17.729   1.437
57235W        W23666  17.381  17.369  11.648
57236W        W23667   9.367  21.102   3.425
57237W        W23668  26.580   6.907   3.553
57238W        W23669  38.397  18.291   4.019
57239W        W23670  22.232  12.398   0.235
57240W        W23671  30.661  22.771  13.389
57241W        W23672  17.050  28.062   2.801
57242W        W23673  29.623  38.837   4.597
57243W        W23674   6.737  38.802  13.902
57244W        W23675  18.497  27.428  13.958
57245W        W23676  39.488  26.383   4.200
57246W        W23677  23.585  35.999   4.696
57247W        W23678  38.422  24.750  11.586
57248W        W23679   4.699  37.929   4.029
57249W        W23680  32.826  10.131   4.120
57250W        W23681  17.291  25.585  11.950
57251W        W23682  22.079  12.217  14.337
57252W        W23683  35.378   5.358  12.106
57253W        W23684  17.546   0.693  13.418
57254W        W23685  44.059  22.225   2.818
57255W        W23686  43.412  31.682  14.814
57256W        W23687  26.598   7.643  12.421
57257W        W23688  14.504  16.337   3.542
57258W        W23689   8.082  24.589  12.955
57259W        W23690   9.903  28.349   0.808
57260W        W23691  35.832   1.843  14.974
57261W        W23692   1.801  11.291   2.531
57262W        W23693   3.512   6.879  11.194
57263W        W23694   8.363  28.052  10.598
57264W        W23695  11.582  42.325   0.591
57265W        W23696   8.913  37.879   2.519
57266W        W23697   5.957   2.385  14.846
57267W        W23698  38.586  16.074  14.308
57268W        W23699  32.140  43.191  10.773
57269W        W23700  30.882   8.124  12.812
57270W        W23701  31.671  28.065   4.355
57271W        W23702  14.478   1.876   3.397
57272W        W23703  12.171  23.940  10.527
57273W        W23704  30.857  35.500  11.681
57274W        W23705   3.716  16.007  12.894
57275W        W23706   9.295  28.753  12.923
57276W        W23707   4.225  11.897  10.747
57277W        W23708  17.815  16.057   4.084
57278W        W23709  35.189   3.137   1.732
57279W        W23710   2.282  32.294   0.985
57280W        W23711   2.647  33.115   3.422
57281W        W23712  20.151  12.585   3.044
57282W        W23713  25.157   6.646   0.204
57283W        W23714   6.066   2.886  13.896
57284W        W23715  37.895  42.385   4.336
57285W        W23716  36.051  39.329  13.479
57286W        W23717  26.312  32.813  14.485
57287W        W23718   6.751  12.208  13.245
57288W        W23719  41.894  36.065  11.942
57289W        W23720   4.681   7.238  11.987
57290W        W23721  12.060  32.115   0.709
57291W        W23722  29.914  32.015  10.601
57292W        W23723  26.555  43.270   1.420
57293W        W23724  24.455  22.087  13.969
57294W        W23725  34.802  35.725  11.050
57295W        W23726  19.686   3.487   3.902
57296W        W23727  38.284  14.280  12.028
57297W        W23728   4.710  43.170  14.492
57298W        W23729  10.739  43.341   3.607
57299W        W23730  14.577  34.902  12.511
57300W        W23731  29.157  14.090   4.083
57301W        W23732   5.145  29.797  12.956
57302W        W23733   4.694  30.373   0.360
57303W        W23734  36.747  35.828  13.019
57304W        W23735   6.960  37.297  10.770
57305W        W23736   2.674  22.659  13.890
57306W        W23737  31.049  16.166  13.436
57307W        W23738  36.108  27.737   4.151
57308W        W23739  43.898   1.551  14.331
57309W        W23740  38.518  35.067   4.042
57310W        W23741  17.754  24.046  13.853
57311W        W23742   2.701   2.403  11.550
57312W        W23743   1.431  26.549  13.107
57313W        W23744  10.379  16.707  14.407
57314W        W23745  13.072   5.017  10.203
57315W        W23746   7.131  43.890  11.575
57316W        W23747  25.056  41.919   1.819
57317W        W23748  38.958   7.246   0.653
57318W        W23749  12.677  28.364  11.145
57319W        W23750   5.955  24.199   0.295
57320W        W23751  15.373  15.330   4.248
57321W        W23752  22.193  28.234  12.164
57322W        W23753  41.577   3.866   0.319
57323W        W23754  38.312  12.585   3.384
57324W        W23755  27.969   1.526   1.707
57325W        W23756   3.210  32.171  13.543
57326W        W23757   5.779  26.636  14.433
57327W        W23758   6.836  43.598  11.237
57328W        W23759   0.051  34.285  13.133
57329W        W23760   4.384  39.786  12.459
57330W        W23761  42.272   3.259  13.447
57331W        W23762  19.754   1.605  11.663
57332W        W23763  35.410  14.836  10.752
57333W        W23764  23.540   6.727  10.662
57334W        W23765  21.029  27.560  12.484
57335W        W23766  44.261   6.756  10.641
57336W        W23767  33.984  14.541   0.317
57337W        W23768  27.459  17.606  13.388
57338W        W23769   6.047  27.707   1.355
57339W        W23770  21.657  34.347   1.778
57340W        W23771  20.410  36.068   4.079
57341W        W23772  41.288  37.072  13.028
57342W        W23773  36.651  43.061  10.554
57343W        W23774  13.351  16.291  14.400
57344W        W23775  36.572  22.400  13.546
57345W        W23776  11.108   4.251  14.935
57346W        W23777  25.534  36.652  13.456
57347W        W23778  17.290  13.335  14.944
57348W        W23779  37.597  16.157   1.074
57349W        W23780  31.940  17.502  12.474
57350W        W23781  37.099  19.361  11.977
57351W        W23782  23.621  33.562  14.080
57352W        W23783  31.144  28.388   3.611
57353W        W23784  22.725  24.525   3.686
57354W        W23785  17.078  10.032   3.565
57355W        W23786   1.382  15.589   0.410
57356W        W23787  13.807  22.040   2.725
57357W        W23788  17.490  40.457   1.373
57358W        W23789  43.784  19.745   4.095
57359W        W23790   1.533  38.948  12.666
57360W        W23791  28.123  36.942   0.846
57361W        W23792  20.127  30.130   4.044
57362W        W23793  37.597  38.887   0.185
57363W        W23794  27.678  28.957   2.115
57364W        W23795  26.063   5.131   0.043
57365W        W23796  31.692  39.923  11.641
57366W        W23797  20.721  42.835  11.665
57367W        W23798  12.143   9.923   1.826
57368W        W23799  40.328  10.778  10.613
57369W        W23800  19.616  35.494  11.469
57370W        W23801  20.434  14.644  14.783
57371W        W23802   6.153   4.625  11.696
57372W        W23803   5.832  37.133   1.377
57373W        W23804   4.356  26.944   3.292
57374W        W23805  30.873  41.434   4.068
57375W        W23806  42.583   4.471  11.588
57376W        W23807   2.437  28.583  12.895
57377W        W23808  24.088  14.080  12.411
57378W        W23809  29.522  33.670   2.347
57379W        W23810   8.129  33.945  11.127
57380W        W23811  41.973  17.303   2.718
57381W        W23812  31.824  31.000   4.525
57382W        W23813  11.675  16.248   4.490
57383W        W23814   2.497  18.584   2.206
57384W        W23815  28.815  43.482   3.006
57385W        W23816  24.961   7.540  12.892
57386W        W23817  19.446   8.679  13.409
57387W        W23818  26.933  13.769  14.014
57388W        W23819  42.915  16.018   1.304
57389W        W23820  30.024  24.766   2.768
57390W        W23821  42.977  44.221  10.792
57391W        W23822   5.736  24.598   4.399
57392W        W23823  14.961  30.549  14.351
57393W        W23824  19.292  24.730  12.455
57394W        W23825  40.497   0.198   1.684
57395W        W23826  44.369   9.881  13.018
57396W        W23827  24.448  17.810   3.229
57397W        W23828  14.545  29.167  14.914
57398W        W23829  38.770  38.222   4.366
57399W        W23830  28.009   1.468   2.641
57400W        W23831  43.876   2.736  13.607
57401W        W23832  36.788  43.305   3.674
57402W        W23833   7.977  13.199  10.911
57403W        W23834  16.703   7.768  14.791
57404W        W23835  28.126  40.852   0.910
57405W        W23836  25.168  19.891   2.662
57406W        W23837  20.337  41.371   1.141
57407W        W23838  29.939  41.908   3.818
57408W        W23839  35.893   9.313   1.188
57409W        W23840   5.140   8.359  12.505
57410W        W23841  27.108  24.743   2.346
57411W        W23842  32.844   3.676   0.985
57412W        W23843  26.699  22.421  12.243
57413W        W23844  28.845   5.719   2.870
57414W        W23845  17.601  36.695  11.420
57415W        W23846  32.583  32.945   0.503
57416W        W23847  42.228  19.196  14.395
57417W        W23848   5.863  38.131   1.220
57418W        W23849  17.824  15.740   3.633
57419W        W23850   6.167  19.755  14.735
57420W        W23851  17.177  37.349   3.221
57421W        W23852  41.261  10.214   3.723
57422W        W23853   3.233  40.568   2.705
57423W        W23854  39.255  28.329   4.110
57424W        W23855  39.032  11.848   1.390
57425W        W23856   7.656  17.711   1.340
57426W        W23857  30.102  31.608  12.301
57427W        W23858  23.404  26.678  13.353
57428W        W23859  18.772  26.679  11.486
57429W        W23860   6.651  18.330  11.617
57430W        W23861  38.367  19.563  13.766
57431W        W23862   2.895  12.749  10.640
57432W        W23863  16.824  26.434  14.179
57433W        W23864   2.434  24.050   5.050
57434W        W23865  12.278  27.885   3.929
57435W        W23866  19.638  24.692  13.531
57436W        W23867   2.199  35.635  11.218
57437W        W23868  27.971  37.935  10.248
57438W        W23869  12.600  37.268   3.372
57439W        W23870  21.172  24.584  12.374
57440W        W23871  29.915  18.454  14.353
57441W        W23872  35.813  29.635  10.635
57442W        W23873  40.810  12.559  13.998
57443W        W23874  27.665   9.059   1.342
57444W        W23875  21.357   2.071  12.867
57445W        W23876  32.580  31.897  12.820
57446W        W23877  36.312  37.632   4.527
57447W        W23878  24.507  17.325   4.080
57448W        W23879  43.529  33.521  12.075
57449W        W23880   4.999  41.697   1.694
57450W        W23881  30.512  23.141   4.545
57451W        W23882  11.162  26.336  11.621
57452W        W23883  15.343   3.809  12.411
57453W        W23884   4.695  20.547  10.687
57454W        W23885  19.691   4.016   3.726
57455W        W23886   4.683  21.975  10.195
57456W        W23887  43.370  33.415   0.744
57457W        W23888  17.888  19.747  14.969
57458W        W23889  42.359  27.894   2.509
57459W        W23890  12.078  19.458  11.204
57460W        W23891  40.203  24.469   2.714
57461W        W23892   2.646  19.530  13.642
57462W        W23893  36.106   1.665   1.327
57463W        W23894  17.864   2.794   3.625
57464W        W23895  29.056  19.064   0.826
57465W        W23896  33.989  15.796  11.132
57466W        W23897  22.274   0.430   1.469
57467W        W23898  24.530  42.099  10.996
57468W        W23899  28.926  43.914  11.623
57469W        W23900  22.213  30.657  14.123
57470W        W23901  19.584  13.669  12.070
57471W        W23902  18.488  21.242  14.416
57472W        W23903  27.619   5.902   0.458
57473W        W23904  10.352  10.355  13.035
57474W        W23905  14.445   0.900   2.833
57475W        W23906  38.445   1.994  14.778
57476W        W23907  26.195  42.471   2.823
57477W        W23908  33.926   6.814  13.963
57478W        W23909  36.991  14.272   2.296
57479W        W23910  29.915  31.039  11.196
57480W        W23911   6.204  43.202  10.276
57481W        W23912  38.557  14.110   0.382
57482W        W23913  34.932  13.860   2.240
57483W        W23914  33.817  38.114   4.592
57484W        W23915  22.773   6.779   4.407
57485W        W23916  42.734   0.331  12.390
57486W        W23917  44.073  12.324  13.813
57487W        W23918  12.935  12.643  11.924
57488W        W23919   1.392   3.144   0.870
57489W        W23920   8.119  41.212   4.264
57490W        W23921  30.084  19.471  14.355
57491W        W23922  20.982  42.857   1.064
57492W        W23923  15.717  16.018   0.916
57493W        W23924   0.449  13.232   1.446
57494W        W23925  11.041  35.085  14.515
57495W        W23926  20.006  34.432  11.627
57496W        W23927  41.978  27.019   2.816
57497W        W23928  26.235  17.213   4.671
57498W        W23929  16.997  24.806  10.936
57499W        W23930   0.696  13.181   0.674
57500W        W23931  22.238   6.687   3.265
57501W        W23932   8.739   1.380  13.909
57502W        W23933   0.253  15.573  11.243
57503W        W23934   6.933  11.136   0.303
57504W        W23935  17.494  40.469  14.082
57505W        W23936  18.648  11.939  12.597
57506W        W23937  25.995  22.672  14.346
57507W        W23938  17.568  21.696  11.564
57508W        W23939  30.356  26.532   4.674
57509W        W23940  33.030  33.416  13.422
57510W        W23941   8.288  11.834  10.584
57511W        W23942  18.532  27.734  14.405
57512W        W23943  24.933   0.954  14.010
57513W        W23944  38.277  34.259  12.446
57514W        W23945  17.868  11.790   1.749
57515W        W23946  30.703  25.534   4.198
57516W        W23947  43.315  31.262   1.991
57517W        W23948  39.700   5.846  11.538
57518W        W23949   4.886   1.275   2.849
57519W        W23950  22.172  17.084   0.835
57520W        W23951  10.657  32.110   1.715
57521W        W23952  38.309  26.157  14.542
57522W        W23953  19.678  18.750  10.123
57523W        W23954  37.556  38.966   0.691
57524W        W23955  36.408  32.503   0.357
57525W        W23956  24.425  24.634   2.785
57526W        W23957  34.033  43.512   4.330
57527W        W23958   5.413  33.080   4.806
57528W        W23959  27.046  37.233  11.205
57529W        W23960  10.734  31.824   3.827
57530W        W23961   0.547  18.717   0.864
57531W        W23962  33.146   2.748   4.156
57532W        W23963  24.286  41.583  14.309
57533W        W23964  18.357  39.387   4.496
57534W        W23965  10.320  18.785   3.478
57535W        W23966  27.131   7.468   0.863
57536W        W23967  19.661  32.037   3.118
57537W        W23968  28.035  16.749  10.791
57538W        W23969  36.108  31.060  12.153
57539W        W23970  43.878  26.981   1.338
57540W        W23971  31.934  29.880   2.357
57541W        W23972  21.739  15.705   0.483
57542W        W23973  33.810  36.474   3.640
57543W        W23974   5.201  22.352  12.859
57544W        W23975  34.733  33.566   1.512
57545W        W23976  23.662  41.842   0.310
57546W        W23977   8.256   9.325   3.694
57547W        W23978   9.375  17.592  13.359
57548W        W23979  42.308  37.286  12.163
57549W        W23980  36.239   1.848   4.689
57550W        W23981  26.222  43.546  13.016
57551W        W23982  18.670   7.991   2.379
57552W        W23983  16.806  40.880   3.736
57553W        W23984  26.923  44.774  11.529
57554W        W23985  11.922  28.357   0.823
57555W        W23986  30.058  38.339   0.261
57556W        W23987  15.698   0.138   4.293
57557W        W23988   2.377  21.037   5.176
57558W        W23989  25.734  39.494   1.870
57559W        W23990  37.466  27.485  12.417
57560W        W23991  11.338  21.080   0.222
57561W        W23992  26.025  26.022  12.037
57562W        W23993  40.636  16.795   4.269
57563W        W23994  19.639  11.284   2.409
57564W        W23995  16.527  16.039  11.127
57565W        W23996   4.362  19.139  11.780
57566W        W23997  14.256  16.402  13.262
57567W        W23998  37.405  22.561   3.184
57568W        W23999  14.749  27.079   2.807
57569W        W24000   6.884  27.630   2.629
57570W        W24001   9.395  25.690  12.099
57571W        W24002   9.933  25.523  13.016
57572W        W24003  30.462  16.519   0.766
57573W        W24004  40.299  17.238  13.018
57574W        W24005  32.609  29.787  10.630
57575W        W24006  38.233   5.636  12.493
57576W        W24007  36.768   8.425  12.285
57577W        W24008  37.901  17.768   1.730
57578W        W24009   9.245  34.787   3.199
57579W        W24010  18.400  28.574   3.403
57580W        W24011  17.344  38.747   4.550
57581W        W24012  42.439   2.807   0.835
57582W        W24013   8.194  21.090  12.125
57583W        W24014  10.143  28.706  12.412
57584W        W24015  14.922  36.129  11.196
57585W        W24016  27.607  22.874  14.027
57586W        W24017  25.172  15.778   0.161
57587W        W24018   8.050  40.591   3.521
57588W        W24019  12.229  40.849  14.006
57589W        W24020   1.839  14.658  13.021
57590W        W24021   1.367  28.569  13.863
57591W        W24022  34.969  25.268  12.444
57592W        W24023  43.219  19.986  14.491
57593W        W24024  29.622  19.123  11.575
57594W        W24025  35.853   0.329   3.480
57595W        W24026  32.355  42.764   1.937
57596W        W24027  34.139  37.332   2.801
57597W        W24028  35.340  27.531   0.919
57598W        W24029  43.525   9.259   3.201
57599W        W24030  31.540  35.345  12.456
57600W        W24031  38.507   6.195  13.866
57601W        W24032  12.459  44.921   2.294
57602W        W24033  24.910  35.549   1.207
57603W        W24034  11.228   3.499  12.614
57604W        W24035   0.152  17.313   0.919
57605W        W24036   8.376  24.440   3.181
57606W        W24037  23.215  28.389  10.441
57607W        W24038  35.827   8.728   2.408
57608W        W24039  44.884  24.420   2.316
57609W        W24040   7.730  25.128  11.173
57610W        W24041  38.604  20.783  11.421
57611W        W24042   6.386  27.415  13.044
57612W        W24043  21.319  25.070  12.869
57613W        W24044  42.014  14.257   0.381
57614W        W24045   1.393  14.164   2.843
57615W        W24046  41.488  10.691  14.775
57616W        W24047  40.962  35.885  11.389
57617W        W24048  36.581  29.338  10.811
57618W        W24049  10.183   1.108  13.781
57619W        W24050  18.856   9.373  14.796
57620W        W24051  14.765  17.713  10.466
57621W        W24052   6.323  39.778   0.221
57622W        W24053  44.312   8.092  10.706
57623W        W24054  16.862  31.732   0.702
57624W        W24055  26.395  25.731  12.907
57625W        W24056   6.833  28.925  10.929
57626W        W24057  11.628   9.675  13.932
57627W        W24058   2.235  42.309  14.445
57628W        W24059  20.605  13.948   0.782
57629W        W24060  25.444  20.650   3.650
57630W        W24061  41.245  18.642   1.233
57631W        W24062   9.264  44.779  11.885
57632W        W24063  22.078  30.461  13.087
57633W        W24064  10.217  41.843  13.976
57634W        W24065   6.573   1.326   2.463
57635W        W24066  34.656  27.146   3.730
57636W        W24067  44.927   9.757   2.643
57637W        W24068  22.247  33.123   3.298
57638W        W24069  28.718  30.762  12.543
57639W        W24070  37.052  22.912   3.835
57640W        W24071   0.441  44.492   0.975
57641W        W24072  38.833  33.513   1.244
57642W        W24073  34.531  35.007   1.879
57643W        W24074  28.644   3.995   2.332
57644W        W24075  36.434   7.297  11.870
57645W        W24076  28.955  17.151  12.928
57646W        W24077   5.682  26.445   1.138
57647W        W24078  10.085  10.366  14.811
57648W        W24079  28.033  31.863  11.462
57649W        W24080  22.434   9.709  12.978
57650W        W24081  37.108  36.894  10.682
57651W        W24082   0.474   9.881   1.941
57652W        W24083   5.778  40.852   0.933
57653W        W24084  33.140   1.918   0.351
57654W        W24085  26.054  39.954  10.280
57655W        W24086  36.500  42.273   0.392
57656W        W24087  29.727  41.509  12.091
57657W        W24088  11.428   7.659  12.642
57658W        W24089  31.500  19.772  11.460
57659W        W24090   1.783  13.765  13.826
57660W        W24091   3.645   6.354   4.603
57661W        W24092   4.266   2.781  13.339
57662W        W24093  21.625  41.931   0.497
57663W        W24094  31.665  42.336  13.472
57664W        W24095   4.161  19.487  13.474
57665W        W24096  13.359   8.270   2.264
57666W        W24097  23.226  37.969   4.064
57667W        W24098  26.510  15.742  11.136
57668W        W24099   7.428  18.246  14.243
57669W        W24100  38.599  32.185  13.274
57670W        W24101  11.784  41.037  13.836
57671W        W24102  35.861   7.403  12.525
57672W        W24103  27.940   1.366   3.638
57673W        W24104  18.052  21.495   2.342
57674W        W24105   8.591  17.834  12.136
57675W        W24106  20.647  12.763   3.901
57676W        W24107  43.334   5.919  11.608
57677W        W24108   7.295  25.078   4.544
57678W        W24109  19.668  14.097   0.436
57679W        W24110  40.821  19.581   1.829
57680W        W24111  42.932  28.416  12.682
57681W        W24112  14.213   2.387   1.401
57682W        W24113   5.545  19.936   3.219
57683W        W24114   0.459  33.658  13.401
57684W        W24115   1.782  12.226   2.780
57685W        W24116  24.811  36.607  14.013
57686W        W24117  20.333  39.064   1.138
57687W        W24118  11.071  25.462   2.025
57688W        W24119   9.377  23.670   1.355
57689W        W24120   9.377   0.240   0.053
57690W        W24121   2.467  20.998  11.402
57691W        W24122  31.627  44.187  12.719
57692W        W24123  25.763  23.543   3.605
57693W        W24124  39.060   0.610   4.432
57694W        W24125  38.359  13.187  10.705
57695W        W24126  35.663  31.792   0.445
57696W        W24127  22.150  25.561  13.904
57697W        W24128  17.007  20.196   3.620
57698W        W24129  34.996  21.611   0.501
57699W        W24130  12.781  44.928   2.706
57700W        W24131   4.311   7.732  12.515
57701W        W24132  19.884  15.896   3.075
57702W        W24133  17.342  39.509   3.083
57703W        W24134  40.483  19.288  11.248
57704W        W24135  18.457  15.093   2.115
57705W        W24136  14.116  30.648  14.491
57706W        W24137  10.400  16.050  11.847
57707W        W24138   9.797  43.994  14.490
57708W        W24139  17.388  35.489  12.190
57709W        W24140  12.093  21.713   2.180
57710W        W24141  17.596  19.111  14.078
57711W        W24142  34.936   5.985  12.479
57712W        W24143  32.562  11.432   4.731
57713W        W24144  40.846  43.190   4.290
57714W        W24145  28.365   8.164  12.004
57715W        W24146   2.963  38.418  13.062
57716W        W24147  40.759  14.920   1.897
57717W        W24148  23.542  44.762   0.699
57718W        W24149  23.220  38.224  13.839
57719W        W24150  29.921  30.770  14.403
57720W        W24151   7.179  29.055  12.715
57721W        W24152  19.326   5.648  13.884
57722W        W24153  27.981   0.528   3.043
57723W        W24154  40.389  28.979  12.027
57724W        W24155  33.588  11.399  11.527
57725W        W24156  14.802  21.466  12.147
57726W        W24157  38.057   7.280   3.462
57727W        W24158   5.754   3.646  11.561
57728W        W24159   2.956  43.373  13.972
57729W        W24160  26.413  11.155   3.192
57730W        W24161   7.265  22.544   3.691
57731W        W24162  11.939  39.471   1.501
57732W        W24163  31.168  27.972  11.522
57733W        W24164   2.083  30.715   0.478
57734W        W24165  24.108  17.152  13.086
57735W        W24166  37.140  10.270  12.985
57736W        W24167   3.972  22.437  14.200
57737W        W24168  36.750  22.072  11.258
57738W        W24169  18.675   3.381  13.852
57739W        W24170   7.864  34.852   3.139
57740W        W24171  17.067  43.914   4.010
57741W        W24172  38.452  42.809  14.271
57742W        W24173   7.668  29.101   2.276
57743W        W24174  42.977  40.425   3.887
57744W        W24175  14.651  39.075  10.982
57745W        W24176  30.331  12.133   3.104
57746W        W24177  11.303  29.616  13.591
57747W        W24178  44.929  25.030  14.007
57748W        W24179  19.783  16.332  11.017
57749W        W24180  36.402  41.155   3.883
57750W        W24181  24.406  36.470   3.562
57751W        W24182  38.984  18.178  12.503
57752W        W24183  25.212   7.369  13.365
57753W        W24184   6.185  36.980   3.190
57754W        W24185   8.022  22.614  13.024
57755W        W24186  33.127  32.092  14.022
57756W        W24187  25.818  36.750  11.403
57757W        W24188   5.827  37.642   1.392
57758W        W24189  20.560  26.985   4.675
57759W        W24190  44.399  11.774  10.472
57760W        W24191  15.329  41.835   0.291
57761W        W24192   0.669  20.736   4.595
57762W        W24193  13.946  36.699  10.915
57763W        W24194  14.072  29.146   2.802
57764W        W24195   2.275  37.283   5.040
57765W        W24196   0.717  21.571   1.933
57766W        W24197  25.494   4.840   0.287
57767W        W24198  27.192   4.089   4.258
57768W        W24199   9.370  38.813   4.315
57769W        W24200  35.215  27.668   1.445
57770W        W24201  43.586  37.927   1.204
57771W        W24202  29.391  26.903   4.582
57772W        W24203  20.702   5.095   0.823
57773W        W24204  26.828  35.108   2.156
57774W        W24205   3.670   0.165  11.624
57775W        W24206   1.640  23.942   2.840
57776W        W24207   3.298  39.483  11.627
57777W        W24208  16.480  27.003  11.577
57778W        W24209   8.414  12.735  12.564
57779W        W24210  16.862  33.643   3.252
57780W        W24211  16.317  19.534  13.291
57781W        W24212  34.142  40.500   2.752
57782W        W24213  40.863  17.609  12.420
57783W        W24214  27.785  44.995  13.899
57784W        W24215  11.613   4.495  10.073
57785W        W24216  30.157  22.523   1.958
57786W        W24217  27.522  38.828   2.916
57787W        W24218  26.651  24.015   1.329
57788W        W24219  31.143   4.927  11.249
57789W        W24220  34.001  26.439   2.647
57790W        W24221  11.597  23.860   9.626
57791W        W24222  11.713  22.676  13.622
57792W        W24223  35.353  35.910   1.402
57793W        W24224  44.454  35.554   3.929
57794W        W24225  41.032  37.271   3.654
57795W        W24226  25.604  32.568   1.622
57796W        W24227  14.099  20.190  14.500
57797W        W24228  39.941  19.213  11.888
57798W        W24229  35.529  33.386  13.446
57799W        W24230  11.733  39.960  14.673
57800W        W24231  16.394  33.534  14.848
57801W        W24232   5.311  16.007   0.339
57802W        W24233  11.209  39.667   0.799
57803W        W24234  21.759  22.831   0.330
57804W        W24235   2.306   2.440   4.502
57805W        W24236  12.650  15.188   3.554
57806W        W24237   0.043  14.140  12.000
57807W        W24238  42.133  16.648  14.242
57808W        W24239  41.472  27.115   3.113
57809W        W24240  39.542  14.163  14.215
57810W        W24241  10.234   0.950   0.501
57811W        W24242  11.037  23.298  13.759
57812W        W24243  21.256  44.377   1.346
57813W        W24244   2.908  24.789   2.171
57814W        W24245  39.049  22.994   0.487
57815W        W24246  42.752  24.819  14.808
57816W        W24247  30.790   6.792   2.088
57817W        W24248  15.038  28.856  13.459
57818W        W24249  42.001  29.196   2.509
57819W        W24250  36.679   5.320  14.453
57820W        W24251  21.076  42.103   4.494
57821W        W24252  19.214  31.203  12.088
57822W        W24253  24.298   2.389  12.645
57823W        W24254  33.604   8.894   0.942
57824W        W24255  13.784  18.116  10.616
57825W        W24256   1.859  11.274   3.968
57826W        W24257   6.978  17.801   2.690
57827W        W24258   7.907  33.092  13.494
57828W        W24259  44.720  14.398   9.963
57829W        W24260  30.614  41.781   2.551
57830W        W24261  28.528  30.118  10.969
57831W        W24262  19.791  32.633  10.648
57832W        W24263   4.233  33.907   0.495
57833W        W24264  43.953  36.791  10.647
57834W        W24265  17.620   8.373  10.709
57835W        W24266  40.838   5.269   1.486
57836W        W24267  43.875  32.091  13.857
57837W        W24268  29.608   1.247  13.056
57838W        W24269  14.475  15.374  11.036
57839W        W24270  35.647  30.220   1.458
57840W        W24271  30.125  26.251   3.721
57841W        W24272  44.240  22.521   4.590
57842W        W24273  25.171  30.434  14.925
57843W        W24274  11.394  33.568  13.316
57844W        W24275  24.148  27.132   1.359
57845W        W24276  43.370   2.952  14.359
57846W        W24277  22.565  36.232  10.081
57847W        W24278  35.172   0.656   5.040
57848W        W24279  31.897  37.796   2.892
57849W        W24280  23.515   9.681   1.864
57850W        W24281  21.960   5.255   2.367
57851W        W24282  20.195  31.804   1.303
57852W        W24283  37.076  23.795  14.378
57853W        W24284  43.071  15.776   2.182
57854W        W24285  22.098  19.906   3.704
57855W        W24286  12.493  23.132   4.650
57856W        W24287   3.368   5.171  13.398
57857W        W24288  15.798  13.142   0.344
57858W        W24289  15.768  20.624  13.334
57859W        W24290  14.218  19.271  14.907
57860W        W24291  43.183   3.755   2.761
57861W        W24292  38.610  19.164  10.688
57862W        W24293  22.733  12.223   0.131
57863W        W24294  28.065  33.290  14.594
57864W        W24295  44.087  34.964  14.840
57865W        W24296  17.543  14.719  14.454
57866W        W24297  19.294   9.660   2.885
57867W        W24298   6.643   4.848  11.001
57868W        W24299  23.461  11.325  11.262
57869W        W24300  10.523  18.533  12.618
57870W        W24301  42.782  37.349  11.942
57871W        W24302   2.172  41.031   4.240
57872W        W24303  23.103  44.193   2.688
57873W        W24304  30.029  22.086   2.195
57874W        W24305  30.032   3.806   4.407
57875W        W24306   3.393  32.562  14.886
57876W        W24307  13.335  21.144   2.174
57877W        W24308  31.051   5.584  10.114
57878W        W24309  20.944  41.741   1.795
57879W        W24310   9.766  17.483   1.745
57880W        W24311  44.796   6.231  12.595
57881W        W24312  15.562  23.922   2.224
57882W        W24313  39.616   7.328   2.737
57883W        W24314   6.036   0.882  10.307
57884W        W24315  20.205  43.953   3.236
57885W        W24316  16.067  26.167  14.824
57886W        W24317   2.629  24.090  10.774
57887W        W24318  26.580  25.746   3.684
57888W        W24319  19.099  11.191  13.106
57889W        W24320  19.719  30.060  11.504
57890W        W24321  27.431   9.737  11.609
57891W        W24322  10.349   1.699   0.009
57892W        W24323  26.628  23.223   3.445
57893W        W24324  37.927   7.077   2.389
57894W        W24325   3.574  43.374   1.488
57895W        W24326  12.700  32.871  12.443
57896W        W24327   2.040  10.095   1.159
57897W        W24328  30.999  34.926   2.429
57898W        W24329  40.455   3.785   0.852
57899W        W24330  41.520   6.169   4.097
57900W        W24331  12.081  18.719   2.274
57901W        W24332  11.917  13.834  13.355
57902W        W24333   5.666  25.371  13.827
57903W        W24334  23.712  16.193   4.594
57904W        W24335  17.295   5.656   0.907
57905W        W24336  11.363  12.050  10.349
57906W        W24337  37.746  34.581   1.330
57907W        W24338  12.882   6.282   4.454
57908W        W24339  11.860  44.471  11.033
57909W        W24340  40.183   5.807  14.852
57910W        W24341   4.718  25.267   2.129
57911W        W24342   2.784  31.479   4.102
57912W        W24343  26.408  18.647  14.393
57913W        W24344  33.023  43.031  14.503
57914W        W24345  10.752  10.936   3.194
57915W        W24346  40.519  14.167  12.509
57916W        W24347  26.300  40.976   2.325
57917W        W24348  12.161   4.367  14.976
57918W        W24349  10.752  30.972   0.217
57919W        W24350  16.629  42.833   0.735
57920W        W24351   2.009   8.918   1.449
57921W        W24352  34.045  43.428  12.986
57922W        W24353  43.831  32.431  11.843
57923W        W24354   0.994  32.460   2.250
57924W        W24355  10.072  18.787  10.680
57925W        W24356  12.572  23.008   0.177
57926W        W24357  41.775  30.370  10.761
57927W        W24358  14.862  10.677   1.835
57928W        W24359  12.562   4.871   2.831
57929W        W24360  35.979  15.298   1.099
57930W        W24361   6.934  31.614   3.296
57931W        W24362  33.980   5.743   1.946
57932W        W24363  21.439  39.762   2.640
57933W        W24364  26.520  31.581  14.332
57934W        W24365  29.729  32.076   0.433
57935W        W24366  32.193  18.176   1.722
57936W        W24367  20.648  36.006   0.529
57937W        W24368  17.197  16.878  14.330
57938W        W24369  11.380   6.943  14.242
57939W        W24370  37.579  40.967   2.193
57940W        W24371  11.375  19.552  11.492
57941W        W24372  36.760  35.922  14.894
57942W        W24373  40.961  13.188  11.242
57943W        W24374  30.872   6.864   0.174
57944W        W24375   8.318  23.130  14.480
57945W        W24376  44.667   0.183   1.652
57946W        W24377  17.634  12.597  12.508
57947W        W24378  22.443  35.959  13.800
57948W        W24379  40.681  32.520  14.789
57949W        W24380  25.083   4.821   2.585
57950W        W24381  41.919  33.076  10.707
57951W        W24382  27.295  27.160   4.028
57952W        W24383   4.249  17.746  10.582
57953W        W24384  20.870   8.770   4.905
57954W        W24385   2.429  26.670  11.722
57955W        W24386  40.584  38.465   1.817
57956W        W24387  29.692   9.590   3.236
57957W        W24388   0.966   7.806  13.812
57958W        W24389  12.147  44.354  14.487
57959W        W24390  32.747  37.920  11.428
57960W        W24391   7.153  31.116   0.126
57961W        W24392  12.592  23.759  10.817
57962W        W24393  44.414  36.146  13.932
57963W        W24394   5.466   4.072  12.051
57964W        W24395  25.497  23.242   2.764
57965W        W24396   7.001   3.236  11.681
57966W        W24397  10.276  31.450   0.997
57967W        W24398  32.125  14.680  13.936
57968W        W24399  42.858  43.197  10.954
57969W        W24400  11.329  31.120  11.955
57970W        W24401  33.938  41.557  12.576
57971W        W24402  16.058  33.528   9.621
57972W        W24403  27.626  30.738   4.440
57973W        W24404  37.766  41.526   2.834
57974W        W24405   8.165  35.706  12.493
57975W        W24406  10.731  13.964   1.503
57976W        W24407  33.612  24.579  12.054
57977W        W24408  18.621  40.377  14.874
57978W        W24409  24.002  27.834  11.773
57979W        W24410  33.527  25.184  10.683
57980W        W24411  22.036  31.129  10.666
57981W        W24412  16.676  38.176  11.010
57982W        W24413  22.271  44.520  10.711
57983W        W24414   6.176   7.732  14.802
57984W        W24415  23.779   5.893  13.397
57985W        W24416  20.729  38.981   1.440
57986W        W24417  15.631  37.490  14.866
57987W        W24418  13.878   5.928   0.443
57988W        W24419  33.917  38.477  13.703
57989W        W24420  20.045  12.821  10.693
57990W        W24421  22.745  30.100   1.436
57991W        W24422   0.494  21.167  13.810
57992W        W24423  32.687   4.634   1.473
57993W        W24424  21.934  19.711   4.139
57994W        W24425  18.404   1.591  11.560
57995W        W24426  23.073  42.503   2.153
57996W        W24427  24.500  27.168   1.752
57997W        W24428  31.969  19.508  14.533
57998W        W24429   8.066  11.844   2.478
57999W        W24430  12.922  23.624  13.997
58000W        W24431  43.328  28.104   3.119
58001W        W24432   6.836   3.670  12.509
58002W        W24433  29.980   0.022  11.099
58003W        W24434  29.037  27.073   1.340
58004W        W24435  39.084  19.204  14.837
58005W        W24436  43.076   4.743   1.844
58006W        W24437  36.856   9.207   2.746
58007W        W24438  15.253  15.561   2.257
58008W        W24439  24.781  11.119  13.634
58009W        W24440  30.902  28.531   4.738
58010W        W24441   1.927  27.793  11.519
58011W        W24442  28.476  18.756   2.276
58012W        W24443  40.107  26.624   0.372
58013W        W24444  12.113  11.797   1.329
58014W        W24445  30.409  13.664  13.945
58015W        W24446  17.767  39.980   0.752
58016W        W24447  16.534  24.042  12.511
58017W        W24448  31.706  11.020  13.074
58018W        W24449  24.551  31.009  14.436
58019W        W24450  40.091  44.358  10.525
58020W        W24451  36.322  28.366  11.429
58021W        W24452  21.638  20.716  14.717
58022W        W24453  10.647  26.573   0.313
58023W        W24454   4.906  26.621  13.491
58024W        W24455  25.117  25.955  13.869
58025W        W24456   7.177  18.043   2.265
58026W        W24457   1.762  12.398   1.782
58027W        W24458  35.186  16.039   2.909
58028W        W24459  15.572  14.730   5.242
58029W        W24460  18.691  10.922  14.110
58030W        W24461   8.656  38.364  11.022
58031W        W24462  19.306  27.122  12.041
58032W        W24463  10.631  21.515  11.190
58033W        W24464  16.572  40.633  14.463
58034W        W24465  33.822  20.999  14.441
58035W        W24466  18.037  13.346   0.850
58036W        W24467   9.696  37.975  14.535
58037W        W24468   4.503  35.485  10.758
58038W        W24469   0.938  14.187  14.541
58039W        W24470   2.580  31.117  13.382
58040W        W24471  41.837   1.345  11.622
58041W        W24472  23.266  13.610  11.079
58042W        W24473  26.557  42.431  10.975
58043W        W24474  21.655   2.478   2.659
58044W        W24475  11.632  20.578   4.257
58045W        W24476   6.378  14.518   9.839
58046W        W24477  20.727  43.309  11.939
58047W        W24478  25.440  14.827   0.773
58048W        W24479  11.053   4.200   0.861
58049W        W24480  31.052   2.254   3.275
58050W        W24481  14.633  36.370   1.663
58051W        W24482  11.596  21.913   4.301
58052W        W24483  31.720  31.031  13.479
58053W        W24484  30.168  11.412  13.598
58054W        W24485  28.631  23.279   4.151
58055W        W24486  33.869  16.619   1.284
58056W        W24487  43.641   4.475   2.778
58057W        W24488   9.769  43.511   0.907
58058W        W24489  15.294  18.025   2.041
58059W        W24490  40.519  33.098   3.278
58060W        W24491  10.755  35.061  11.113
58061W        W24492  17.331  43.771  11.914
58062W        W24493  11.658   6.174  14.538
58063W        W24494  14.084  10.915  14.279
58064W        W24495  22.326  22.707  10.955
58065W        W24496  44.768  26.746   1.939
58066W        W24497  30.311   2.894  11.474
58067W        W24498  23.133  29.957  12.879
58068W        W24499  33.519  33.852   0.269
58069W        W24500  41.536  39.426   0.277
58070W        W24501  16.495  23.169  11.594
58071W        W24502  33.925  19.980  10.596
58072W        W24503  12.211  22.960   3.614
58073W        W24504  42.006  37.081  11.787
58074W        W24505  31.668   8.419  11.616
58075W        W24506  39.018   8.818   3.629
58076W        W24507  18.341   8.273  14.446
58077W        W24508  21.471  13.106  12.622
58078W        W24509  14.559  16.364  13.816
58079W        W24510  26.353  32.734  10.402
58080W        W24511  14.768  20.535   4.007
58081W        W24512  21.024  19.178  14.849
58082W        W24513  20.475  16.091  12.503
58083W        W24514  33.098  38.467   1.811
58084W        W24515   5.659  29.165  12.392
58085W        W24516  43.996  28.429   1.166
58086W        W24517  39.637  30.539   0.946
58087W        W24518  43.886  17.860   2.762
58088W        W24519  33.397   9.306  11.023
58089W        W24520  14.139  33.745  12.814
58090W        W24521  24.928  27.860   3.897
58091W        W24522  39.815  24.624   1.407
58092W        W24523  31.902   2.441  13.865
58093W        W24524  18.895   7.842   4.488
58094W        W24525  34.633  24.751   3.156
58095W        W24526   0.447  16.217  12.883
58096W        W24527  40.429  43.413   0.702
58097W        W24528  11.613  18.146   0.791
58098W        W24529  14.776  15.117  12.853
58099W        W24530  26.743  34.388   1.038
58100W        W24531  22.987  35.816  10.677
58101W        W24532  10.583  43.997  10.768
58102W        W24533  31.179  17.078  11.962
58103W        W24534  19.704  13.635  13.469
58104W        W24535  22.105  14.785   0.213
58105W        W24536  33.884   6.947   0.527
58106W        W24537  43.746   6.370   2.307
58107W        W24538  12.669   9.684   3.859
58108W        W24539  29.764  37.611   1.332
58109W        W24540  35.861  26.262  14.391
58110W        W24541  40.886  39.077   2.313
58111W        W24542   1.763  29.171  10.754
58112W        W24543  22.817  43.819   0.660
58113W        W24544   1.055  16.045  13.470
58114W        W24545   3.955  42.899   3.560
58115W        W24546  27.909  13.793   0.213
58116W        W24547  16.184  15.717   3.334
58117W        W24548  44.586  44.965   4.115
58118W        W24549  19.308  23.462  14.907
58119W        W24550  15.116  36.959   4.473
58120W        W24551   9.308  32.539  12.595
58121W        W24552  34.586  44.554   1.364
58122W        W24553  29.452   4.202  13.429
58123W        W24554  15.061  22.758  14.847
58124W        W24555  39.228  19.597  11.115
58125W        W24556  13.590  30.049   4.639
58126W        W24557  28.195  24.811   1.849
58127W        W24558   2.459   7.702   3.161
58128W        W24559  31.323  34.628   3.705
58129W        W24560  25.589  30.095  13.963
58130W        W24561  14.347   2.348   4.601
58131W        W24562  33.910   6.437   0.411
58132W        W24563   3.111   6.370   4.533
58133W        W24564  17.425  18.594   1.950
58134W        W24565   3.861  11.736  14.796
58135W        W24566  28.455  27.876  12.638
58136W        W24567  13.696  33.654  12.473
58137W        W24568  22.289   3.456   1.927
58138W        W24569  38.397  10.955   2.404
58139W        W24570   8.893  28.559   3.334
58140W        W24571   4.717  17.648   1.050
58141W        W24572  32.301  43.106   0.907
58142W        W24573  19.735  30.016   1.419
58143W        W24574   9.233  35.563   0.962
58144W        W24575  43.433  29.070   1.383
58145W        W24576  30.101  32.146  14.509
58146W        W24577  20.108  17.711  13.568
58147W        W24578   7.880   9.458  12.643
58148W        W24579   3.322   3.384   4.197
58149W        W24580  39.732   5.906   4.610
58150W        W24581   4.910  25.591  10.592
58151W        W24582  30.584  15.594   3.039
58152W        W24583  11.370  43.511   4.360
58153W        W24584   6.685   2.297  11.624
58154W        W24585  41.947  27.201  12.007
58155W        W24586  43.197  19.748  11.531
58156W        W24587  35.405  33.675  12.541
58157W        W24588   9.440  35.121   2.372
58158W        W24589  42.723  25.006   1.749
58159W        W24590   8.424  34.977   2.315
58160W        W24591  18.149  15.911  10.579
58161W        W24592  16.168  16.361   0.147
58162W        W24593   9.284  36.654  13.466
58163W        W24594   9.059  33.953  12.352
58164W        W24595  41.715  22.816  11.274
58165W        W24596  23.119  15.706   3.254
58166W        W24597  22.664  30.871  12.506
58167W        W24598  20.316  42.350  10.635
58168W        W24599  26.661  33.467  14.854
58169W        W24600  24.898  41.089   1.448
58170W        W24601  15.883  36.489   4.086
58171W        W24602   8.857  22.544  12.550
58172W        W24603   2.024  27.137  14.337
58173W        W24604  32.177  16.680   2.742
58174W        W24605  16.373   4.211  13.207
58175W        W24606  32.650  43.268  11.185
58176W        W24607   0.907  11.616  14.489
58177W        W24608  12.308  28.079   4.408
58178W        W24609  29.166   6.153   0.199
58179W        W24610  28.557  22.783  14.227
58180W        W24611  19.571  25.190   0.737
58181W        W24612  33.779  40.842   3.570
58182W        W24613  33.543  21.755  14.032
58183W        W24614   4.842   3.594  13.358
58184W        W24615  28.448  17.800   3.610
58185W        W24616  36.391  20.510   4.102
58186W        W24617  32.043   8.738   4.705
58187W        W24618  11.392  42.915   0.724
58188W        W24619  23.023  36.751   4.312
58189W        W24620   5.896  37.853   0.702
58190W        W24621  38.229   8.285  11.801
58191W        W24622  24.473   7.774   2.785
58192W        W24623  38.645  30.824  13.387
58193W        W24624  16.505  13.460  13.883
58194W        W24625   6.702  23.658   2.108
58195W        W24626  19.513  16.777  13.887
58196W        W24627  10.693  13.983   4.988
58197W        W24628  25.439  17.056   0.663
58198W        W24629   7.128  18.603   0.396
58199W        W24630  26.042  27.880  12.368
58200W        W24631  30.927  17.350   2.568
58201W        W24632  29.788  25.968  11.937
58202W        W24633   2.498  24.249   1.323
58203W        W24634  27.408   6.207   1.245
58204W        W24635  12.754  39.315  13.971
58205W        W24636   3.148  34.902   1.893
58206W        W24637   1.741  20.579  12.040
58207W        W24638  14.552   0.581  12.008
58208W        W24639  21.195   9.494  13.282
58209W        W24640   0.840   9.773   2.825
58210W        W24641   9.844   1.003   2.724
58211W        W24642  44.375  42.003  10.845
58212W        W24643  15.813  42.821   0.351
58213W        W24644   8.232  43.243  13.775
58214W        W24645  21.194  29.480  10.767
58215W        W24646   2.869   7.297   1.250
58216W        W24647  44.274   8.990  13.450
58217W        W24648  37.446  22.358  13.133
58218W        W24649  25.165  40.023   4.998
58219W        W24650   7.699  22.708   3.411
58220W        W24651  10.203  12.728  12.879
58221W        W24652  20.871  19.062   1.263
58222W        W24653  38.821  28.437   3.215
58223W        W24654  22.020  17.527   3.558
58224W        W24655  20.792  24.741  10.669
58225W        W24656  19.069  24.623   4.581
58226W        W24657  14.954  41.400   4.764
58227W        W24658  26.123   0.883  14.934
58228W        W24659  38.422  11.753  14.985
58229W        W24660  24.206  27.979   2.901
58230W        W24661  33.505  37.169   4.515
58231W        W24662   5.818  12.309  14.388
58232W        W24663  14.512  32.649   4.121
58233W        W24664  35.116  12.605   1.792
58234W        W24665  31.996  26.074   1.013
58235W        W24666  14.358  31.599  13.085
58236W        W24667  19.256  40.687   2.174
58237W        W24668  25.640   6.684  14.900
58238W        W24669   1.918   3.826  12.702
58239W        W24670  14.038  17.589  11.263
58240W        W24671   1.559  38.669  10.735
58241W        W24672  39.498  17.995   4.545
58242W        W24673  18.714  29.534  12.431
58243W        W24674  16.013  12.373   3.112
58244W        W24675   2.748  21.987  11.268
58245W        W24676  19.710  32.930   0.853
58246W        W24677   1.521   8.790  13.224
58247W        W24678  26.094  43.719  13.981
58248W        W24679  43.763  31.880   3.935
58249W        W24680   0.284  40.600  11.661
58250W        W24681  36.292  19.803   4.701
58251W        W24682   8.603  42.834   1.253
58252W        W24683  15.252  24.161  11.972
58253W        W24684  41.578  23.694  12.077
58254W        W24685  16.566   2.718   3.431
58255W        W24686  30.311  27.249  14.418
58256W        W24687  25.061  39.504   4.156
58257W        W24688  44.980   3.316  14.315
58258W        W24689  42.184  37.506   3.454
58259W        W24690   1.336  23.236   1.782
58260W        W24691  21.975   1.390  12.386
58261W        W24692  40.044  17.134   4.570
58262W        W24693   8.863  29.974   4.900
58263W        W24694  20.394   9.899  13.168
58264W        W24695   6.709  28.504  10.671
58265W        W24696   2.828  44.877  11.647
58266W        W24697  18.920  27.718  13.810
58267W        W24698  40.554  43.336  12.006
58268W        W24699   1.926   5.803  10.944
58269W        W24700  22.091  26.489   1.867
58270W        W24701  11.730  28.515   1.285
58271W        W24702  37.124  31.446   2.058
58272W        W24703  38.106  22.537  13.657
58273W        W24704  33.893  17.713   3.528
58274W        W24705   0.257  30.580  12.144
58275W        W24706  15.183  12.138  10.285
58276W        W24707   6.789  11.878  12.335
58277W        W24708  42.373   4.892   1.541
58278W        W24709  38.122  37.880  11.595
58279W        W24710   6.761  15.387  13.039
58280W        W24711  43.456   1.637  12.789
58281W        W24712  40.080   6.420   4.242
58282W        W24713   4.859   5.681  12.806
58283W        W24714  41.029  21.332   4.108
58284W        W24715   2.173  25.703  13.884
58285W        W24716   1.445   0.286   0.434
58286W        W24717   0.559  40.417   3.186
58287W        W24718  39.597  38.578  13.349
58288W        W24719  42.527  29.162  12.468
58289W        W24720  29.009  38.004  13.922
58290W        W24721  12.303  19.214  12.965
58291W        W24722  13.176   6.252   0.857
58292W        W24723  30.936  16.949   1.766
58293W        W24724  41.704  22.407  12.091
58294W        W24725   4.334   6.940   3.359
58295W        W24726  13.332  27.025  13.112
58296W        W24727  24.979  23.220   2.662
58297W        W24728  12.918   9.858  10.958
58298W        W24729  14.227   8.676   1.107
58299W        W24730  19.327   5.803  11.833
58300W        W24731  12.790   8.422  13.287
58301W        W24732  36.958  43.230   1.292
58302W        W24733  34.398  25.193   0.739
58303W        W24734  23.978  12.134   4.972
58304W        W24735  28.519   8.494  10.689
58305W        W24736   8.361  22.222  12.680
58306W        W24737  13.359   0.575  12.013
58307W        W24738   8.464  38.952  11.658
58308W        W24739  13.361  14.785   1.919
58309W        W24740  40.971  13.483  11.636
58310W        W24741  16.633  30.445  11.576
58311W        W24742   1.208   9.087  14.358
58312W        W24743   0.318  26.544   0.216
58313W        W24744   8.284  40.375   0.092
58314W        W24745   4.719   9.405   2.040
58315W        W24746  43.454  38.921  12.250
58316W        W24747  28.877  19.236   0.323
58317W        W24748  12.458  24.965   2.762
58318W        W24749  41.474   1.901   1.993
58319W        W24750   1.696  25.646   0.894
58320W        W24751   3.167  13.895   0.332
58321W        W24752  22.224   6.121   0.706
58322W        W24753  42.727  42.850  10.599
58323W        W24754  29.442  20.314   4.599
58324W        W24755  40.027  43.896   1.771
58325W        W24756  13.207  24.510   1.487
58326W        W24757  13.923  38.758   0.917
58327W        W24758  28.333  37.148   2.512
58328W        W24759  30.447   4.243   3.222
58329W        W24760  29.372  33.263  12.583
58330W        W24761   8.381  40.864  14.938
58331W        W24762  39.341  24.694   2.139
58332W        W24763   9.450  14.901   1.792
58333W        W24764   1.881  33.118  11.373
58334W        W24765  17.456  44.559  11.681
58335W        W24766   7.879  30.973   4.567
58336W        W24767  27.454   4.438  12.543
58337W        W24768   2.929   9.143   0.550
58338W        W24769   5.607  42.887   0.564
58339W        W24770  13.195   8.643  13.548
58340W        W24771   4.921  36.564  11.159
58341W        W24772   7.602   5.651   1.798
58342W        W24773  43.303  13.827   5.014
58343W        W24774   6.052   4.864   0.041
58344W        W24775  28.778  31.656  14.850
58345W        W24776  42.822  43.476   1.238
58346W        W24777   5.925  14.120  10.665
58347W        W24778  29.989   8.899   0.777
58348W        W24779  31.234  33.673  12.425
58349W        W24780  23.016   6.624   0.847
58350W        W24781  36.851  16.168  11.470
58351W        W24782   5.788  14.120   2.244
58352W        W24783  10.655  34.661   0.338
58353W        W24784  27.096  26.182  12.371
58354W        W24785  23.072  32.669  13.314
58355W        W24786  32.601  28.355  11.488
58356W        W24787  12.839  40.450   2.662
58357W        W24788  34.490  18.748  11.974
58358W        W24789  27.444  30.554  14.465
58359W        W24790  40.320  28.602  14.993
58360W        W24791  15.229  12.569   1.809
58361W        W24792   7.871   3.719   4.838
58362W        W24793  10.628   6.906  12.211
58363W        W24794  18.252   8.670   0.956
58364W        W24795  13.418  24.141   3.114
58365W        W24796  13.649  43.464   0.970
58366W        W24797  43.558  27.430   1.324
58367W        W24798   3.320   7.509  13.858
58368W        W24799  18.961  25.567   0.457
58369W        W24800  20.707  30.333   5.105
58370W        W24801  32.376  44.601   4.924
58371W        W24802   1.367  13.162   2.778
58372W        W24803  29.331  28.224   2.678
58373W        W24804   3.895   6.939  13.543
58374W        W24805   3.119  19.457   5.011
58375W        W24806  42.851  15.921   2.647
58376W        W24807  44.959   3.283   2.459
58377W        W24808  40.475   0.455   3.116
58378W        W24809  15.917  29.536  11.476
58379W        W24810  21.359  33.945   1.831
58380W        W24811  37.089  35.609  12.074
58381W        W24812  43.971   4.718  10.748
58382W        W24813  17.681  38.071  12.808
58383W        W24814   4.752   5.834  14.462
58384W        W24815  13.581  21.579   3.688
58385W        W24816  40.022  34.129  10.718
58386W        W24817   1.749  14.611   0.974
58387W        W24818  15.176   7.465  14.448
58388W        W24819  25.002  28.816  14.710
58389W        W24820   6.708  12.849  12.616
58390W        W24821  14.899  29.682   4.198
58391W        W24822  23.646  33.339   2.119
58392W        W24823  26.977   5.403   3.332
58393W        W24824  34.385   8.208   0.422
58394W        W24825  12.138  39.813   0.957
58395W        W24826  18.261   9.568   0.524
58396W        W24827  25.257  16.244   3.718
58397W        W24828   5.858  14.904   4.612
58398W        W24829  37.432  15.743  12.994
58399W        W24830   5.133  31.286  11.112
58400W        W24831  41.183  28.988   3.716
58401W        W24832  10.218  19.982  14.448
58402W        W24833  43.000  44.808  13.471
58403W        W24834   8.231  22.526  11.362
58404W        W24835  19.815   3.643  13.082
58405W        W24836  21.894   9.843   1.752
58406W        W24837  16.223  10.840  11.114
58407W        W24838   1.652  29.130  14.925
58408W        W24839  21.574  25.273  14.517
58409W        W24840  23.958  25.295  11.474
58410W        W24841   9.302   3.967   3.267
58411W        W24842   8.922  13.244  13.068
58412W        W24843  42.269   3.536   0.413
58413W        W24844   0.670  30.030   1.860
58414W        W24845   2.996  14.813  10.681
58415W        W24846  39.944   2.877   0.997
58416W        W24847  24.018  11.543   4.788
58417W        W24848  18.669   2.676  11.004
58418W        W24849   3.689  14.675   2.833
58419W        W24850  44.037  16.534   4.185
58420W        W24851  41.294  18.819   1.705
58421W        W24852  32.106  18.185   0.350
58422W        W24853  18.328  24.140  14.674
58423W        W24854  31.187   2.510   3.727
58424W        W24855  31.594  11.714  14.343
58425W        W24856  10.431  44.416   2.218
58426W        W24857  25.232  35.778   4.493
58427W        W24858  13.060  16.937  10.342
58428W        W24859  31.508  11.768   1.314
58429W        W24860  36.416  37.195   4.315
58430W        W24861   6.463  44.418  11.034
58431W        W24862  31.194  17.776   2.368
58432W        W24863  38.251   9.652   1.418
58433W        W24864  22.129  42.450  11.418
58434W        W24865  34.910  25.730  12.626
58435W        W24866  29.897  42.368  10.599
58436W        W24867   5.302  11.435   4.324
58437W        W24868  24.470  44.461  11.548
58438W        W24869  24.043  41.676  10.405
58439W        W24870  40.459   2.790  11.684
58440W        W24871  13.302  15.103  14.095
58441W        W24872   3.417  42.944  11.943
58442W        W24873  13.864  23.015  13.400
58443W        W24874  40.057  24.277  13.268
58444W        W24875  34.298  21.194   0.155
58445W        W24876  32.536  21.713   4.110
58446W        W24877   2.319  25.588   3.284
58447W        W24878  17.118  39.512  13.493
58448W        W24879  39.414   8.954   4.564
58449W        W24880  39.288  31.586  11.131
58450W        W24881  27.017  44.177   0.373
58451W        W24882   2.282   6.753   1.081
58452W        W24883  36.168  22.034  14.045
58453W        W24884  34.198  28.994   4.194
58454W        W24885  34.006  12.199  11.685
58455W        W24886  24.981  37.455  12.121
58456W        W24887   3.073   0.623   4.191
58457W        W24888  10.892   6.443   3.136
58458W        W24889   7.884   5.257  14.700
58459W        W24890  29.391  28.433  11.098
58460W        W24891  33.949   4.744  11.654
58461W        W24892  19.058  34.355  11.583
58462W        W24893  20.597  25.020  13.416
58463W        W24894  35.952   2.498  14.314
58464W        W24895   3.020   9.390   3.450
58465W        W24896  43.741  16.128   4.092
58466W        W24897  28.506  18.693  12.414
58467W        W24898  40.596  22.779  13.605
58468W        W24899   0.094  44.356   4.753
58469W        W24900  42.702   4.147   2.977
58470W        W24901  22.492  20.812  13.826
58471W        W24902   5.830  42.067   0.399
58472W        W24903   2.730  32.084  13.406
58473W        W24904  18.492  36.859   0.345
58474W        W24905  32.247   1.985   2.626
58475W        W24906  44.538  25.931  11.562
58476W        W24907  35.426  11.115  13.508
58477W        W24908   4.969  31.266   3.327
58478W        W24909  11.910  28.433   1.977
58479W        W24910  13.900  37.881   4.710
58480W        W24911  13.773   5.146   0.988
58481W        W24912   8.415   2.716  14.950
58482W        W24913  25.410  44.666   2.898
58483W        W24914   2.396  26.204  14.903
58484W        W24915  23.221  26.148  13.431
58485W        W24916  32.199  39.864   2.666
58486W        W24917   1.339   3.087   3.188
58487W        W24918   3.664  37.739   2.676
58488W        W24919  29.170  14.785  11.564
58489W        W24920   7.449  13.783  14.291
58490W        W24921  41.925  25.939  13.841
58491W        W24922  14.331   7.408  11.414
58492W        W24923  35.076  27.698  13.374
58493W        W24924  29.032  13.105   4.438
58494W        W24925   5.254  42.386  12.606
58495W        W24926  20.647  31.225  11.193
58496W        W24927  39.366  11.733   4.002
58497W        W24928   9.738  43.827   4.518
58498W        W24929   9.414  28.590  10.647
58499W        W24930  30.147  10.680  11.562
58500W        W24931   9.173   7.934   2.896
58501W        W24932   2.622  18.572   4.589
58502W        W24933  13.405  24.592   1.941
58503W        W24934  11.708  38.312  11.991
58504W        W24935  28.653   0.426   1.156
58505W        W24936  11.669  33.027  13.460
58506W        W24937   1.860  23.378  12.380
58507W        W24938  19.357   2.066   2.750
58508W        W24939  15.172   2.940   2.687
58509W        W24940  32.541  27.732   4.630
58510W        W24941  39.879  32.976   1.223
58511W        W24942   8.192  10.967  13.606
58512W        W24943  11.735  16.733   4.675
58513W        W24944   4.762  24.780   2.782
58514W        W24945  18.073  18.042  11.533
58515W        W24946  39.919  30.935   1.518
58516W        W24947  14.190  37.052   1.837
58517W        W24948  32.272   6.789  12.344
58518W        W24949  15.417  35.970   4.801
58519W        W24950  37.311  16.993   2.689
58520W        W24951  25.472  19.047  12.595
58521W        W24952  26.569  15.684   2.402
58522W        W24953  33.507  38.004  12.272
58523W        W24954  17.098  29.748  14.807
58524W        W24955  42.844  43.708  10.795
58525W        W24956   9.868  43.025   2.733
58526W        W24957   1.006  17.622  12.997
58527W        W24958  39.966  22.899  14.803
58528W        W24959   1.011  27.084  14.530
58529W        W24960  21.058  15.680   1.803
58530W        W24961   5.896  18.729  13.329
58531W        W24962  35.009  41.372   0.817
58532W        W24963  36.029  30.680   3.705
58533W        W24964  15.875  43.314  11.097
58534W        W24965  43.309  41.893  14.772
58535W        W24966   9.214   9.786  11.799
58536W        W24967  19.775  22.066  10.897
58537W        W24968   5.649  22.939   4.210
58538W        W24969  29.381  30.393  13.920
58539W        W24970  33.655  32.955   3.706
58540W        W24971  13.281   2.465   4.051
58541W        W24972  26.957  21.183  13.538
58542W        W24973  38.385  31.871  13.912
58543W        W24974  31.679  34.098  11.866
58544W        W24975  16.379  16.988   4.326
58545W        W24976  39.218  40.136  10.811
58546W        W24977  11.257  22.898   9.811
58547W        W24978  26.915  19.614   1.192
58548W        W24979   8.745  20.289   0.661
58549W        W24980  25.105  33.400  14.331
58550W        W24981   1.492  27.245  10.409
58551W        W24982  39.625   1.810   0.177
58552W        W24983  28.996  19.469  12.509
58553W        W24984   8.113  13.729   0.669
58554W        W24985  24.876  42.473  12.546
58555W        W24986  24.683   9.132  14.811
58556W        W24987  15.169  31.167   0.745
58557W        W24988  14.149  27.951  11.974
58558W        W24989  28.889  42.999   2.827
58559W        W24990   8.312   8.397  10.616
58560W        W24991  12.393  13.545   0.849
58561W        W24992  15.019  10.689  14.467
58562W        W24993  20.020   4.412   1.881
58563W        W24994  24.436   7.158  11.962
58564W        W24995   3.437  29.111  10.745
58565W        W24996  44.067  36.474  13.743
58566W        W24997  10.121  42.391   1.132
58567W        W24998  33.778  34.986  11.906
58568W        W24999  29.909   2.853   2.814
58569W        W25000   3.622  27.143  11.091
58570W        W25001   2.875  25.251   3.442
58571W        W25002  41.840  43.959  10.742
58572W        W25003  12.851  24.093  12.518
58573W        W25004   9.668   2.486   1.134
58574W        W25005  20.671  21.813   4.851
58575W        W25006  23.606  42.870   4.486
58576W        W25007  14.817  19.784   1.247
58577W        W25008  38.549  14.066  14.443
58578W        W25009  15.301   3.816  13.332
58579W        W25010   7.233   3.370   4.962
58580W        W25011  39.584  12.875  11.165
58581W        W25012  33.173  23.088   4.587
58582W        W25013   7.813  18.423   2.007
58583W        W25014   1.183  18.485   1.834
58584W        W25015  16.781  14.055  12.073
58585W        W25016   4.451  31.614  11.919
58586W        W25017  20.773  32.476   1.370
58587W        W25018  20.592  16.432   4.141
58588W        W25019   4.392  44.283  11.111
58589W        W25020   7.006  14.683   1.455
58590W        W25021  11.399   2.852   3.419
58591W        W25022  38.385  19.509  14.818
58592W        W25023  20.616   6.387  11.582
58593W        W25024  10.786   7.293   4.975
58594W        W25025   0.441  10.624  12.550
58595W        W25026  35.017  16.617   2.303
58596W        W25027  41.569   5.176   3.631
58597W        W25028   8.672  24.521   0.848
58598W        W25029   0.016  31.138  11.164
58599W        W25030   2.409   6.362  12.098
58600W        W25031  22.635   5.379   4.149
58601W        W25032   5.893  44.491  14.645
58602W        W25033  43.399  10.096   2.670
58603W        W25034  39.473   6.136  12.525
58604W        W25035  35.460  40.577  11.418
58605W        W25036  42.753  27.271  12.511
58606W        W25037  19.246   6.780   3.321
58607W        W25038  43.592   7.502  13.864
58608W        W25039  25.195  15.728  13.315
58609W        W25040   9.303  44.759   4.669
58610W        W25041  18.276  13.042  14.893
58611W        W25042  44.290   9.499   4.523
58612W        W25043  10.710  36.576   0.164
58613W        W25044  41.770  31.485   3.532
58614W        W25045  18.385  15.804  12.630
58615W        W25046  34.680  43.952   0.698
58616W        W25047  34.416  17.798   2.172
58617W        W25048   7.661   9.720  14.436
58618W        W25049  19.130  21.240  13.095
58619W        W25050  11.429   2.670   1.975
58620W        W25051  22.223  42.818   4.223
58621W        W25052  22.498  12.677  14.333
58622W        W25053   9.792  11.557   0.379
58623W        W25054   5.275  20.219   5.076
58624W        W25055  44.949  11.356   4.309
58625W        W25056   6.527  35.041   4.133
58626W        W25057  36.178  19.170  11.635
58627W        W25058  13.745  17.479   4.733
58628W        W25059  32.018  33.889  11.223
58629W        W25060   5.881  34.414  13.990
58630W        W25061   5.291  43.509   0.688
58631W        W25062  41.805  11.468   1.669
58632W        W25063  31.962  17.659   4.369
58633W        W25064  23.149  14.319  13.349
58634W        W25065   1.852  12.564  11.184
58635W        W25066  21.744  15.075   4.164
58636W        W25067   0.014   3.501   4.446
58637W        W25068  41.712  15.651   1.809
58638W        W25069  24.709   3.795   0.809
58639W        W25070  16.189   9.214  10.662
58640W        W25071  14.289  42.208   3.560
58641W        W25072   5.835  43.801   2.773
58642W        W25073  20.007  28.597   2.855
58643W        W25074   3.810  33.660  12.140
58644W        W25075  10.236   2.145   3.781
58645W        W25076  31.601  24.569   1.484
58646W        W25077  29.690  24.400   4.488
58647W        W25078   5.248  42.612   0.806
58648W        W25079  15.664  24.970   2.130
58649W        W25080  11.663  27.230   0.552
58650W        W25081  33.558   7.184  12.062
58651W        W25082   0.918  31.865   4.945
58652W        W25083  41.886  19.107   2.354
58653W        W25084  36.409   1.267   0.442
58654W        W25085   5.184   0.440   0.281
58655W        W25086  30.889  16.863   2.724
58656W        W25087   5.282  43.723   3.332
58657W        W25088  43.517  39.856  12.792
58658W        W25089   4.306  10.958  13.798
58659W        W25090  34.310  29.201  11.155
58660W        W25091   6.310  19.733   3.844
58661W        W25092   9.893  22.613  12.101
58662W        W25093   2.961  29.493  12.504
58663W        W25094  10.694   0.934  13.049
58664W        W25095  36.968   4.855   1.047
58665W        W25096   8.369  36.629  14.880
58666W        W25097  23.089  42.724   4.598
58667W        W25098  12.156  19.115   2.649
58668W        W25099   6.698  19.587  13.200
58669W        W25100  18.890  10.266   2.379
58670W        W25101  40.585  25.496   0.812
58671W        W25102  13.633  42.318  13.319
58672W        W25103   1.364  34.842   0.402
58673W        W25104  31.654  16.184  11.272
58674W        W25105  37.809  37.572   3.723
58675W        W25106   4.711  20.845  11.153
58676W        W25107  19.253  29.835   1.584
58677W        W25108  40.191   5.395  14.267
58678W        W25109  19.399  28.982  12.503
58679W        W25110  42.963  15.678   3.540
58680W        W25111   7.826  39.588   4.478
58681W        W25112   4.478  36.607   4.555
58682W        W25113  35.342  43.059   0.517
58683W        W25114  34.650  28.406  12.689
58684W        W25115  16.832   0.151  13.511
58685W        W25116  22.688  24.428  12.354
58686W        W25117  11.341   5.733  14.693
58687W        W25118  21.998  32.080   3.776
58688W        W25119  41.254  42.067  11.350
58689W        W25120  40.443  26.519   5.167
58690W        W25121   6.702   8.267   3.755
58691W        W25122  33.494  31.152   2.124
58692W        W25123  11.140  36.629  12.282
58693W        W25124  20.323   7.589   0.234
58694W        W25125  36.474  22.657   1.680
58695W        W25126  33.462  30.508   4.573
58696W        W25127   0.633  17.374  11.202
58697W        W25128   8.586   5.265  13.292
58698W        W25129  30.541  11.405  13.959
58699W        W25130  14.666  23.628  14.820
58700W        W25131  36.991  41.572  12.909
58701W        W25132  22.201  15.580  12.702
58702W        W25133  33.420   2.039   4.272
58703W        W25134  33.954  32.639  14.082
58704W        W25135  15.586  11.998   3.607
58705W        W25136  40.529  30.119  10.686
58706W        W25137  41.440  15.803   5.073
58707W        W25138  42.895  18.807   2.879
58708W        W25139  15.309  44.728  13.246
58709W        W25140  21.615  22.710   0.839
58710W        W25141  40.080  23.127  12.412
58711W        W25142  31.182  38.940   1.710
58712W        W25143  11.689  17.778  12.911
58713W        W25144   1.490  17.888  12.524
58714W        W25145  36.286   0.053   3.600
58715W        W25146  38.075  11.659  10.582
58716W        W25147  11.143  31.641   4.143
58717W        W25148  44.468   9.862   1.742
58718W        W25149  27.608  22.224  11.601
58719W        W25150   0.670   5.278  13.954
58720W        W25151  14.716  20.126  13.886
58721W        W25152  12.855   7.854   3.910
58722W        W25153  17.248  25.216  12.415
58723W        W25154  38.958  36.444   1.309
58724W        W25155  16.939  29.577   2.291
58725W        W25156  18.051  21.639  13.193
58726W        W25157  43.451   9.650   4.111
58727W        W25158  39.772  16.096  13.179
58728W        W25159  34.408  18.403   3.230
58729W        W25160   0.259  27.122   1.924
58730W        W25161  40.680  14.441  11.679
58731W        W25162  16.629  38.270  13.805
58732W        W25163  21.447   0.729   0.051
58733W        W25164  42.629  29.340  14.906
58734W        W25165  27.551  23.162  12.407
58735W        W25166  32.954   0.337  11.570
58736W        W25167   7.308  30.575   1.308
58737W        W25168  36.892   3.958   3.517
58738W        W25169   0.848  29.327  12.954
58739W        W25170  13.885  42.485  10.764
58740W        W25171  41.979  12.078   3.226
58741W        W25172  25.530  12.561   0.479
58742W        W25173  23.671  37.442  12.545
58743W        W25174  25.444  35.817   4.993
58744W        W25175   0.670  15.076  13.972
58745W        W25176  39.713  10.307  14.345
58746W        W25177  42.016  44.224   4.040
58747W        W25178  21.119  40.764  12.670
58748W        W25179  12.408  37.009  14.793
58749W        W25180  17.613   3.179  14.325
58750W        W25181  25.081  10.073  11.270
58751W        W25182  42.535   3.334   1.872
58752W        W25183  13.910  29.824   4.060
58753W        W25184  24.005  38.499   0.004
58754W        W25185  34.093  16.304   2.752
58755W        W25186  44.056  25.168  12.884
58756W        W25187  23.469  31.140   0.842
58757W        W25188   5.513  28.525   0.789
58758W        W25189  39.851  36.646  11.157
58759W        W25190  41.971  14.178  11.975
58760W        W25191   2.976   9.203   2.374
58761W        W25192   4.419  34.986   4.859
58762W        W25193  40.992   0.853  12.612
58763W        W25194  30.156  23.619   2.666
58764W        W25195  30.334  17.343  13.533
58765W        W25196  40.569  43.044  11.069
58766W        W25197   1.066  23.672   1.799
58767W        W25198  41.560  25.572  10.770
58768W        W25199   1.457  13.324   0.278
58769W        W25200  32.728  44.389  13.527
58770W        W25201  22.989  37.034   2.462
58771W        W25202   5.324  33.427  12.606
58772W        W25203  42.935  26.216   0.470
58773W        W25204  27.466   7.695  11.165
58774W        W25205   3.186  24.248  11.089
58775W        W25206   1.980  41.709   5.074
58776W        W25207  25.253  11.986  12.310
58777W        W25208   0.832  16.164   3.151
58778W        W25209  14.679  27.263  10.211
58779W        W25210  44.864  39.615  13.857
58780W        W25211  25.671  44.448  14.057
58781W        W25212  24.686   6.858   4.347
58782W        W25213  15.984  22.730   4.160
58783W        W25214  20.672  33.591  14.875
58784W        W25215  38.823  41.056   0.682
58785W        W25216  43.764  40.854   1.052
58786W        W25217  14.065   0.319  14.351
58787W        W25218   1.330  29.579   3.802
58788W        W25219  29.606   9.984   4.039
58789W        W25220   5.180  18.984   3.349
58790W        W25221  23.259  15.197   3.108
58791W        W25222   9.170  21.375  14.809
58792W        W25223  18.806  42.773   0.382
58793W        W25224  40.302  34.105  12.908
58794W        W25225  19.216  14.036  12.030
58795W        W25226   7.010  16.068   0.714
58796W        W25227   2.607   4.815   1.658
58797W        W25228  40.553   5.376   4.498
58798W        W25229  32.578  16.348  11.881
58799W        W25230  27.069  26.234   2.465
58800W        W25231  33.058  15.301   3.813
58801W        W25232  18.667  33.084   1.853
58802W        W25233  36.848  16.778  12.081
58803W        W25234   8.350  32.519  13.147
58804W        W25235  24.627   5.656  13.820
58805W        W25236  26.959   5.006  13.097
58806W        W25237  19.220   0.975  14.048
58807W        W25238  14.626  19.581  12.791
58808W        W25239  12.374   7.337   2.570
58809W        W25240  23.634  17.279  13.832
58810W        W25241  43.170   4.934  12.929
58811W        W25242  20.055  42.393   2.483
58812W        W25243  18.700   5.935   3.257
58813W        W25244  27.091  28.962   1.497
58814W        W25245   9.675  39.292  10.013
58815W        W25246  27.319  35.863  11.194
58816W        W25247  36.053  35.909   0.603
58817W        W25248  17.872  20.867   1.535
58818W        W25249   3.945   9.719   0.420
58819W        W25250  32.684  14.643  14.780
58820W        W25251   6.280   7.182   1.408
58821W        W25252  18.229  27.998   0.689
58822W        W25253  39.057  34.883   2.794
58823W        W25254  29.722  37.111  14.889
58824W        W25255  33.968  21.591  11.218
58825W        W25256   4.272  32.725  12.463
58826W        W25257  12.369  24.740  11.603
58827W        W25258  26.226   4.796  10.253
58828W        W25259  22.477  38.354  12.932
58829W        W25260  39.066  25.191   1.717
58830W        W25261  21.494  18.453   3.782
58831W        W25262   5.441  27.367   0.333
58832W        W25263  21.079  24.841   5.007
58833W        W25264  26.201  34.288  11.283
58834W        W25265   6.443  33.679   4.528
58835W        W25266  43.784  10.046  13.099
58836W        W25267  37.144  43.395   5.478
58837W        W25268   2.067  39.098  10.181
58838W        W25269  27.904   7.881   2.326
58839W        W25270   7.080  33.586   0.353
58840W        W25271  24.488   4.263   0.928
58841W        W25272  41.291  19.760   5.158
58842W        W25273  17.226  28.631  12.866
58843W        W25274  30.045  17.623  13.843
58844W        W25275  43.517  24.758  13.719
58845W        W25276  17.136  24.847   0.837
58846W        W25277   5.580  19.096  12.559
58847W        W25278  43.813  28.195   4.055
58848W        W25279  12.188  37.427  13.862
58849W        W25280  23.037  28.520  13.520
58850W        W25281  11.806  14.018  10.778
58851W        W25282  10.113  37.932  14.227
58852W        W25283  36.393  25.182   3.097
58853W        W25284   9.655  31.997  11.865
58854W        W25285   3.299  22.928   0.030
58855W        W25286  14.647   0.520   0.855
58856W        W25287  41.594  31.772  11.555
58857W        W25288  17.775  30.900   3.605
58858W        W25289   5.282  31.153   3.811
58859W        W25290  12.031  12.310   1.788
58860W        W25291  30.977  31.620   3.494
58861W        W25292  44.582  23.753   4.189
58862W        W25293  13.298  30.632  14.769
58863W        W25294  44.720  26.065  14.838
58864W        W25295   2.953  25.247   0.730
58865W        W25296  22.846   3.793   2.545
58866W        W25297   9.617   3.732   1.633
58867W        W25298  26.695  36.498  11.272
58868W        W25299  17.720  33.422  10.801
58869W        W25300  21.343  34.919  13.452
58870W        W25301  28.992  24.535  11.686
58871W        W25302  39.690  43.211  12.471
58872W        W25303  34.932   1.683  13.873
58873W        W25304  38.053  18.456  11.213
58874W        W25305  31.878  35.870  11.018
58875W        W25306  39.939  19.958  12.534
58876W        W25307  38.775  39.815   1.077
58877W        W25308  28.680  33.289   0.276
58878W        W25309  21.596  22.164   0.758
58879W        W25310  19.284  24.451  14.918
58880W        W25311  21.772  20.430  13.377
58881W        W25312  33.064   9.455   1.427
58882W        W25313  30.737  39.863  14.800
58883W        W25314  32.579  12.098  12.103
58884W        W25315  37.898  42.907  12.871
58885W        W25316  23.038  32.610  10.640
58886W        W25317  10.873  23.966  11.547
58887W        W25318  11.229  42.066  13.059
58888W        W25319  12.829   0.296   0.047
58889W        W25320  39.450  20.934  14.845
58890W        W25321  37.750  39.304   1.470
58891W        W25322  37.017  43.823  13.110
58892W        W25323  32.674  12.032  13.912
58893W        W25324  44.713  26.540  12.490
58894W        W25325  37.626  38.387   2.787
58895W        W25326  40.234  30.094   2.804
58896W        W25327  44.153   8.166  11.573
58897W        W25328  37.284  33.873   0.748
58898W        W25329  40.392  34.425   2.690
58899W        W25330  34.430   8.451  13.599
58900W        W25331  37.282  11.109  11.576
58901W        W25332  40.890  35.987   4.529
58902W        W25333  16.754  21.543   3.654
58903W        W25334  36.281  44.279  13.400
58904W        W25335  30.163  42.846   5.029
58905W        W25336   9.702   5.641  12.994
58906W        W25337  39.963  26.947  10.470
58907W        W25338  32.117   7.367   3.261
58908W        W25339   5.243   0.840  13.481
58909W        W25340   8.644   0.362   2.617
58910W        W25341  39.870  29.423  13.932
58911W        W25342   4.867  37.798   1.342
58912W        W25343   2.751  37.894   0.299
58913W        W25344  27.052   0.801   3.986
58914W        W25345   1.869  28.568   0.725
58915W        W25346  22.684  21.545   1.084
58916W        W25347  28.131  43.198   4.038
58917W        W25348  33.521  19.395   4.072
58918W        W25349  44.866  28.610  13.419
58919W        W25350  40.450  23.806  10.778
58920W        W25351   0.514   2.458  14.465
58921W        W25352  20.586  39.991   2.230
58922W        W25353  23.105  38.752  14.833
58923W        W25354   4.902  34.910   4.624
58924W        W25355   8.970  35.450  12.065
58925W        W25356   9.287  19.460  11.471
58926W        W25357  16.054  19.216   1.688
58927W        W25358  17.675  23.607  11.646
58928W        W25359   9.359   4.405   3.617
58929W        W25360  11.531  21.733   2.209
58930W        W25361  12.156  13.845  13.840
58931W        W25362   3.802   7.435   2.285
58932W        W25363  15.278  44.190  14.314
58933W        W25364  14.910  28.460   3.023
58934W        W25365   8.619   9.862   1.395
58935W        W25366   9.485  17.108   4.154
58936W        W25367  35.978  44.713  12.418
58937W        W25368   5.253  22.566   0.741
58938W        W25369  29.435  19.352   1.932
58939W        W25370  14.722  29.995  11.399
58940W        W25371  33.645  15.481  14.290
58941W        W25372   7.912  11.264  11.813
58942W        W25373  30.587  36.630  12.895
58943W        W25374  22.598  39.565   1.816
58944W        W25375  32.095  21.497   1.110
58945W        W25376  36.886  26.520  11.645
58946W        W25377  41.546  20.527  10.756
58947W        W25378   5.444  41.133  11.460
58948W        W25379  43.618  26.878  14.316
58949W        W25380  34.874   5.836   1.365
58950W        W25381  44.260   8.892   2.087
58951W        W25382   4.443  20.233  14.986
58952W        W25383  20.925  14.886  11.848
58953W        W25384   7.991  21.034  10.314
58954W        W25385  23.499  10.140  14.850
58955W        W25386  37.130  32.079   5.403
58956W        W25387  28.013  20.146  13.434
58957W        W25388  36.098  33.143   1.418
58958W        W25389  42.810  11.387   0.490
58959W        W25390  25.632   8.232   0.009
58960W        W25391  20.092  20.557  11.423
58961W        W25392  12.943  19.647   1.695
58962W        W25393   2.254  20.171   5.016
58963W        W25394  12.668  27.244   0.619
58964W        W25395  34.949  22.148   0.687
58965W        W25396  28.331   2.939  10.269
58966W        W25397  44.159  32.156   4.116
58967W        W25398   7.777  28.687  14.597
58968W        W25399   3.122   8.836  12.698
58969W        W25400  37.344  38.341   3.204
58970W        W25401  20.489  30.623   1.872
58971W        W25402   0.569   4.650  14.389
58972W        W25403   5.797  44.455   3.178
58973W        W25404  36.099   9.753   4.635
58974W        W25405  32.446  13.823   3.713
58975W        W25406  35.669  22.670  14.926
58976W        W25407  34.349   0.466   2.258
58977W        W25408  20.979  30.865  10.961
58978W        W25409  13.520  22.905  11.505
58979W        W25410  26.500  43.396   3.399
58980W        W25411  28.915  42.894  13.197
58981W        W25412  31.926  44.766  10.619
58982W        W25413  30.226  29.957   3.229
58983W        W25414  43.745  17.195  12.271
58984W        W25415   4.073  17.526  11.967
58985W        W25416  27.636  19.207   3.157
58986W        W25417  39.582   6.801   2.731
58987W        W25418   8.103  43.967   2.708
58988W        W25419  24.065  13.775  14.834
58989W        W25420  36.734  16.684   2.095
58990W        W25421  14.362  11.582  11.465
58991W        W25422  29.891  42.957   1.745
58992W        W25423   0.804  20.592   1.349
58993W        W25424  14.353  37.934   4.433
58994W        W25425  40.936  21.520  14.893
58995W        W25426  38.337  33.938   4.416
58996W        W25427  43.575   9.374  12.894
58997W        W25428   1.759   6.732  11.187
58998W        W25429   0.857  29.679  14.845
58999W        W25430   2.875  29.086   2.970
59000W        W25431   6.922  11.670   3.086
59001W        W25432  16.582  17.562  10.366
59002W        W25433  40.632  38.939  10.687
59003W        W25434  19.064  24.317   1.618
59004W        W25435  33.359  28.036  14.318
59005W        W25436  25.257  28.162   4.190
59006W        W25437   9.948   3.921   0.797
59007W        W25438  24.465  24.602   1.777
59008W        W25439  16.998  14.572  12.123
59009W        W25440  32.443  24.466   3.572
59010W        W25441  37.926  43.439   2.208
59011W        W25442  17.866   9.873  13.556
59012W        W25443   3.747  27.741  13.849
59013W        W25444   2.792   3.685   0.445
59014W        W25445  34.564  29.420  13.329
59015W        W25446  40.305  37.840   3.172
59016W        W25447  26.209   1.264   0.301
59017W        W25448   3.270  10.534  10.752
59018W        W25449  25.714  30.500  14.935
59019W        W25450  26.510  40.289   0.911
59020W        W25451  38.787   9.310   0.092
59021W        W25452  37.025  33.490  14.989
59022W        W25453   7.391  34.172  13.022
59023W        W25454   5.408  15.650  12.367
59024W        W25455  44.496  20.502  13.321
59025W        W25456  13.163  12.870  14.915
59026W        W25457  18.897  27.418  11.928
59027W        W25458  14.875  22.671  10.237
59028W        W25459  24.526  44.752  12.385
59029W        W25460  21.693  13.889   2.060
59030W        W25461  17.948  11.046   4.095
59031W        W25462  30.979  34.966   2.974
59032W        W25463   7.412  27.254  10.729
59033W        W25464  38.073  42.656  11.765
59034W        W25465  34.577  25.631   3.403
59035W        W25466   9.252   6.406  11.135
59036W        W25467  18.059  26.681   3.909
59037W        W25468   4.997  24.547  13.993
59038W        W25469  38.784   3.966   4.095
59039W        W25470  23.121  21.869   4.826
59040W        W25471  10.367  31.707  11.381
59041W        W25472  34.470   3.833  13.396
59042W        W25473  17.749  30.152   4.977
59043W        W25474  13.405  22.549   1.999
59044W        W25475  31.632  14.326  14.342
59045W        W25476  20.189  28.017  12.816
59046W        W25477  21.208  24.380  11.892
59047W        W25478   7.543  16.324   0.547
59048W        W25479  39.339  10.653   2.296
59049W        W25480  30.069  28.895   1.233
59050W        W25481  44.323  19.534   2.374
59051W        W25482  12.102  41.674  10.615
59052W        W25483  20.219   6.059  11.521
59053W        W25484   0.886  21.688  14.379
59054W        W25485  23.500  13.054   3.902
59055W        W25486   1.413   6.942  12.486
59056W        W25487  19.636  22.537   4.506
59057W        W25488  38.951  23.609  14.441
59058W        W25489  20.450  39.813   1.725
59059W        W25490  15.101  13.733  12.859
59060W        W25491   9.876  38.651   0.209
59061W        W25492  12.255  19.107   0.497
59062W        W25493   4.454  20.993  10.714
59063W        W25494   0.126   3.462  10.955
59064W        W25495   2.442  21.109   1.822
59065W        W25496  17.524  30.930   4.088
59066W        W25497  39.009  13.238   0.769
59067W        W25498  33.551   0.499  12.626
59068W        W25499   2.679  43.254  14.372
59069W        W25500  41.463  25.240  14.284
59070W        W25501  42.675   4.231  12.887
59071W        W25502  38.722  13.137   4.192
59072W        W25503  29.110  16.359   2.181
59073W        W25504  13.334  16.379   4.230
59074W        W25505   2.357  36.379  13.345
59075W        W25506  27.012  24.330  13.987
59076W        W25507   4.424  25.400  13.530
59077W        W25508  33.209   8.192  14.485
59078W        W25509  26.162  40.648   4.241
59079W        W25510  38.809  25.241   3.652
59080W        W25511   3.466   9.783  11.700
59081W        W25512  11.302  10.395   4.224
59082W        W25513  11.391  37.815  10.544
59083W        W25514  32.868  43.049  13.359
59084W        W25515  10.426  30.474  12.803
59085W        W25516  19.673  27.315   4.125
59086W        W25517  36.066  25.191  10.451
59087W        W25518   4.379  36.892   2.760
59088W        W25519  44.706  33.998  12.399
59089W        W25520  36.049  12.839  14.019
59090W        W25521  42.078  31.027   2.199
59091W        W25522  44.835   5.196   2.621
59092W        W25523  43.021  35.601  13.435
59093W        W25524  27.043   4.870   3.241
59094W        W25525  44.196  44.292   1.434
59095W        W25526  23.767  17.056   9.867
59096W        W25527  11.283   0.694   1.033
59097W        W25528  31.967   2.884   1.398
59098W        W25529  44.850  35.277  10.066
59099W        W25530  37.897  43.678  12.399
59100W        W25531  43.463   5.791   2.655
59101W        W25532  29.053  14.244  10.991
59102W        W25533  26.163  33.771  12.054
59103W        W25534  24.290  17.091  10.483
59104W        W25535   3.239  38.843   3.642
59105W        W25536  41.392  38.463  14.805
59106W        W25537  40.493   5.370   2.740
59107W        W25538  25.009  14.064  11.347
59108W        W25539  43.300  17.760   2.221
59109W        W25540  43.851  37.220   4.072
59110W        W25541  30.018  25.567   0.496
59111W        W25542  30.170  23.333   1.664
59112W        W25543   4.252   3.338   0.067
59113W        W25544  34.948  25.362   4.164
59114W        W25545   2.254   0.400   4.085
59115W        W25546  23.664  33.427   1.584
59116W        W25547  39.340  42.532  10.474
59117W        W25548  19.073  13.553  12.113
59118W        W25549  25.751  16.830  11.115
59119W        W25550  12.492   2.802  13.355
59120W        W25551   1.919   3.935   3.189
59121W        W25552   3.470  10.972  12.118
59122W        W25553  25.604  29.830  12.825
59123W        W25554  33.216   4.330  12.554
59124W        W25555  33.058  37.498  10.703
59125W        W25556  38.570   6.738   1.815
59126W        W25557   2.666  17.235  12.093
59127W        W25558  36.834  39.867  13.114
59128W        W25559  25.739  17.310   4.530
59129W        W25560  20.576  38.891   3.129
59130W        W25561  16.340   2.346   3.169
59131W        W25562  17.415  12.734  12.953
59132W        W25563  20.595  20.840  10.707
59133W        W25564  37.905  40.807  14.755
59134W        W25565  44.078  24.993  11.942
59135W        W25566  29.225  17.781  12.390
59136W        W25567  33.130  40.207  11.495
59137W        W25568  31.357  31.774  11.647
59138W        W25569  42.227  38.431  11.560
59139W        W25570  17.321  20.759   1.843
59140W        W25571  22.449   5.318   3.233
59141W        W25572  32.096   8.400   3.426
59142W        W25573   2.289  10.643   2.767
59143W        W25574  30.997   0.866   2.047
59144W        W25575  23.114   3.260  13.882
59145W        W25576  25.454  34.993   4.763
59146W        W25577  26.575  25.537   0.272
59147W        W25578  35.864  22.023   1.768
59148W        W25579   1.157   5.926   0.475
59149W        W25580   0.969  30.694  10.303
59150W        W25581  37.550  11.256  14.035
59151W        W25582  26.998  23.056  11.472
59152W        W25583  41.303  23.674   0.347
59153W        W25584  24.678  35.730   2.970
59154W        W25585  19.119  42.370   0.371
59155W        W25586  12.026  27.936  11.265
59156W        W25587  17.390  39.978   5.003
59157W        W25588  40.742   1.455   4.616
59158W        W25589  24.180  29.038  12.860
59159W        W25590   5.684  16.858  11.694
59160W        W25591  44.793  19.732   3.339
59161W        W25592  35.662  32.599  14.275
59162W        W25593  28.735  35.409   4.642
59163W        W25594   9.845  41.739   3.113
59164W        W25595  29.536  14.561  14.171
59165W        W25596  10.471  34.411   4.537
59166W        W25597  15.770  30.717   0.016
59167W        W25598  13.640  41.389  13.565
59168W        W25599   0.902   9.862  11.568
59169W        W25600  29.495  25.786  11.555
59170W        W25601  10.446  43.575  11.049
59171W        W25602  22.705  41.632  12.993
59172W        W25603  19.805  18.382  12.025
59173W        W25604  40.856  43.317   0.998
59174W        W25605  40.594  31.610   4.516
59175W        W25606  36.547  34.808  12.592
59176W        W25607   2.019   8.467  10.638
59177W        W25608  12.847  30.907  10.606
59178W        W25609  36.879  17.305  12.063
59179W        W25610   5.539  20.170   4.077
59180W        W25611  22.601  29.424   3.166
59181W        W25612  15.287   3.753  11.530
59182W        W25613  38.080  13.158   0.325
59183W        W25614  33.601   0.375  14.116
59184W        W25615  31.611  12.396  10.640
59185W        W25616  26.624  33.071  10.133
59186W        W25617  39.850  12.772  12.553
59187W        W25618  24.102  19.273   2.172
59188W        W25619  18.744  41.888   1.909
59189W        W25620  34.481   4.524  13.797
59190W        W25621  21.538   8.616  10.675
59191W        W25622   7.985   5.945  12.805
59192W        W25623  39.963  12.594  13.597
59193W        W25624  31.221  40.576  11.323
59194W        W25625  11.593  12.796  10.888
59195W        W25626   9.740  10.379  11.069
59196W        W25627  31.502   4.822   4.197
59197W        W25628  21.401  24.475   4.135
59198W        W25629  41.359  28.518  10.706
59199W        W25630  15.150  41.838  12.237
59200W        W25631  25.958  26.867   4.444
59201W        W25632  25.573  21.465   2.349
59202W        W25633  44.543  21.528  12.075
59203W        W25634   7.855  37.241  10.391
59204W        W25635   0.242   2.282   3.548
59205W        W25636   2.868  28.916  13.006
59206W        W25637  21.690  33.611  10.873
59207W        W25638  43.865   5.767   0.455
59208W        W25639   5.085  19.405  11.395
59209W        W25640  20.619   9.747  11.668
59210W        W25641  25.560  23.194  11.143
59211W        W25642  22.951  44.826  10.540
59212W        W25643  14.214   5.305  14.258
59213W        W25644  29.757   5.512  14.692
59214W        W25645  21.751  17.185  10.782
59215W        W25646  30.896  12.403  13.815
59216W        W25647  16.117  24.886   3.695
59217W        W25648  13.470   0.051   2.189
59218W        W25649  32.932   2.640   2.979
59219W        W25650  17.480  33.902  12.595
59220W        W25651  29.539  24.538  12.575
59221W        W25652  11.594  23.614  14.400
59222W        W25653  40.798  39.380  11.964
59223W        W25654  39.316  25.039   3.776
59224W        W25655  18.360  27.855   3.258
59225W        W25656  33.063  14.598  10.391
59226W        W25657  23.244   6.145  14.031
59227W        W25658  36.130  12.863  10.698
59228W        W25659  15.002   2.460  13.462
59229W        W25660   6.438  26.923   1.279
59230W        W25661  40.323  25.986   4.750
59231W        W25662  15.627  39.267   1.402
59232W        W25663  14.904  28.847   0.798
59233W        W25664  40.257  24.627   0.455
59234W        W25665  42.407  36.468  14.598
59235W        W25666  35.395  25.676   3.771
59236W        W25667  39.904  31.024   0.489
59237W        W25668  25.267  35.882  13.101
59238W        W25669   0.721  41.378   4.593
59239W        W25670  29.134  30.976   0.675
59240W        W25671  43.998  25.569  13.951
59241W        W25672  14.363  31.494  14.872
59242W        W25673  28.408  36.104  12.594
59243W        W25674  20.077  31.471   0.890
59244W        W25675  33.228   1.200  13.789
59245W        W25676  42.374  13.752  11.697
59246W        W25677  20.781  12.053  10.735
59247W        W25678  43.965  38.893   0.136
59248W        W25679   0.110  33.793   2.742
59249W        W25680  42.872  29.733   4.216
59250W        W25681  35.807  15.067  12.612
59251W        W25682  27.441  42.026   3.780
59252W        W25683  44.730  18.828   2.983
59253W        W25684   9.736  26.065  11.412
59254W        W25685  13.650  12.426   2.907
59255W        W25686  10.626  24.468  14.856
59256W        W25687   2.236  23.053   4.741
59257W        W25688   3.939   1.808  13.912
59258W        W25689  35.462  22.130  11.871
59259W        W25690  39.535   3.066   4.627
59260W        W25691  10.316  39.306   0.323
59261W        W25692  42.057  30.095   2.381
59262W        W25693  18.345  38.693   9.841
59263W        W25694   4.683   3.044   2.387
59264W        W25695  41.732  41.687   5.022
59265W        W25696  12.175   4.638   2.579
59266W        W25697  20.321  13.177   1.220
59267W        W25698  38.407  44.660   4.731
59268W        W25699  29.553  20.634   0.782
59269W        W25700  18.644  32.499   0.526
59270W        W25701   8.642   3.158  10.504
59271W        W25702  24.248   7.307   1.177
59272W        W25703  12.419  32.429  11.095
59273W        W25704  33.415  40.467   0.819
59274W        W25705  29.754   9.960  12.033
59275W        W25706  12.646  11.665  14.463
59276W        W25707  13.662  43.885  13.050
59277W        W25708  20.451   1.832  14.355
59278W        W25709  17.044  40.507  13.266
59279W        W25710  11.084   2.796  11.888
59280W        W25711  28.571  28.512  10.957
59281W        W25712  21.984  31.571  12.455
59282W        W25713  42.028  27.257  13.401
59283W        W25714  39.984  16.669   0.540
59284W        W25715   7.639  23.427   1.695
59285W        W25716  20.405   7.372   3.153
59286W        W25717  40.754  40.683  12.943
59287W        W25718  43.500  38.049  11.841
59288W        W25719  19.651  10.597  11.658
59289W        W25720  44.945  26.025   1.086
59290W        W25721  35.513  20.171   2.201
59291W        W25722  10.974  37.479  10.262
59292W        W25723  15.311  19.703  14.968
59293W        W25724   1.550   6.214   3.709
59294W        W25725  14.362  20.077  12.090
59295W        W25726  20.764   7.214   2.823
59296W        W25727  11.778  23.323  12.175
59297W        W25728  39.546   8.394   1.234
59298W        W25729  29.415  35.608  11.636
59299W        W25730  25.501   7.010   1.549
59300W        W25731  25.051  32.715  12.004
59301W        W25732  13.815  32.920  14.768
59302W        W25733   4.661  19.059   2.321
59303W        W25734   2.733  35.446   0.915
59304W        W25735  14.068   2.311  13.030
59305W        W25736  29.520  10.367   0.348
59306W        W25737  38.028  44.514   0.454
59307W        W25738  25.054  32.329   0.930
59308W        W25739   2.884   1.457  12.500
59309W        W25740   8.737   4.872  12.280
59310W        W25741  28.043  32.770   2.336
59311W        W25742  20.999   6.087   4.135
59312W        W25743  37.857  23.485  13.402
59313W        W25744  17.182  28.010  11.034
59314W        W25745  40.622  17.050   1.885
59315W        W25746  33.498  23.961  12.660
59316W        W25747  22.083  10.722  11.479
59317W        W25748  36.030  19.767   3.243
59318W        W25749   7.276  23.758   4.738
59319W        W25750   6.785  25.075   2.829
59320W        W25751  30.277  16.771  13.078
59321W        W25752  39.753  33.501   4.548
59322W        W25753  38.508  32.494   3.329
59323W        W25754  29.600  29.479   1.126
59324W        W25755  27.715  40.312  14.308
59325W        W25756  17.407  16.030   1.863
59326W        W25757   3.847  16.799   2.411
59327W        W25758  26.324  11.349  13.865
59328W        W25759  15.761   3.449  13.864
59329W        W25760  38.557  28.957  14.402
59330W        W25761  40.439   9.157   1.127
59331W        W25762   5.084  34.101  14.911
59332W        W25763  33.155  34.519   4.201
59333W        W25764  43.850  14.982   2.747
59334W        W25765  40.045  35.446  13.025
59335W        W25766  20.648  18.224   2.264
59336W        W25767  40.844  43.738  13.993
59337W        W25768  28.502   0.016   1.460
59338W        W25769  36.359  11.615   2.843
59339W        W25770  37.544  12.815   3.750
59340W        W25771  33.097  27.949   3.110
59341W        W25772  43.935  21.535  11.442
59342W        W25773  28.930   3.972  10.182
59343W        W25774  17.296  24.129  14.777
59344W        W25775  42.512  12.787  14.489
59345W        W25776  25.194  22.010   1.947
59346W        W25777  43.918   2.381  12.609
59347W        W25778  16.870   5.638  12.041
59348W        W25779  44.334  27.591   3.553
59349W        W25780  29.734  19.320   4.586
59350W        W25781   8.975   6.963   4.572
59351W        W25782  24.575   3.953   2.205
59352W        W25783  38.783  10.124   1.308
59353W        W25784  16.239  29.442  13.980
59354W        W25785  10.900  27.092   1.388
59355W        W25786   0.531   6.235  13.399
59356W        W25787  15.049  17.465   4.522
59357W        W25788  26.448   5.793  10.927
59358W        W25789  42.450  12.268  14.357
59359W        W25790  39.509  16.608   0.712
59360W        W25791  30.946  26.058   0.537
59361W        W25792  34.941  33.906  12.462
59362W        W25793   9.032  39.416   2.721
59363W        W25794   8.091  19.035   4.120
59364W        W25795  44.418  14.878  14.394
59365W        W25796  33.729  15.618  13.278
59366W        W25797  22.522   6.872  14.953
59367W        W25798  11.902  27.439   4.667
59368W        W25799  40.902   3.316  13.161
59369W        W25800   3.967  44.180  11.636
59370W        W25801  28.544  22.594   3.272
59371W        W25802  42.285   5.945   0.325
59372W        W25803  44.740  37.509   1.173
59373W        W25804  31.502  19.806  13.490
59374W        W25805  11.395  15.291  11.085
59375W        W25806  17.773  13.764  14.857
59376W        W25807  42.172  16.877   0.423
59377W        W25808  34.469  30.652  14.917
59378W        W25809  30.839  41.496  13.627
59379W        W25810  35.094  20.819  10.477
59380W        W25811   5.319  26.347   3.437
59381W        W25812  17.559  23.607  14.897
59382W        W25813  28.916  15.084   0.799
59383W        W25814  28.457  30.213  12.485
59384W        W25815  34.035  37.535  10.141
59385W        W25816  16.301   5.124   5.515
59386W        W25817  24.705   4.353   2.838
59387W        W25818  15.645  17.286   1.492
59388W        W25819   5.373   2.618  14.368
59389W        W25820  40.626  26.918   3.603
59390W        W25821   4.759  32.868   0.703
59391W        W25822  11.793  29.985  14.050
59392W        W25823  40.119  21.972   2.793
59393W        W25824  13.722  43.747  11.193
59394W        W25825  41.516  32.585   2.763
59395W        W25826  31.203  41.329  11.738
59396W        W25827   6.365  15.322  13.366
59397W        W25828   9.288  30.152  14.206
59398W        W25829  18.366   5.941  12.028
59399W        W25830   3.648   6.867   4.097
59400W        W25831  29.578   2.709  13.571
59401W        W25832  25.496  11.306   1.815
59402W        W25833  44.257  44.004   3.526
59403W        W25834   1.422  12.111   4.614
59404W        W25835   4.557  31.542   1.419
59405W        W25836  42.766   0.025   3.649
59406W        W25837   1.772  28.596   1.692
59407W        W25838  29.952   7.141   5.365
59408W        W25839  23.477  27.729   3.717
59409W        W25840  23.957  37.037   1.718
59410W        W25841  37.798   9.629  13.435
59411W        W25842   3.041  36.472   4.520
59412W        W25843   9.890  37.361   4.071
59413W        W25844  11.983   8.714  12.375
59414W        W25845   8.210   6.403  13.997
59415W        W25846  41.235  22.954   1.858
59416W        W25847   6.900  39.610  10.810
59417W        W25848  39.118  38.360   4.001
59418W        W25849  12.935  31.533   4.972
59419W        W25850  10.283  24.625   3.770
59420W        W25851   9.749  10.601  11.913
59421W        W25852  39.216  10.827  11.524
59422W        W25853  41.761  20.484   3.091
59423W        W25854   6.119  32.278   0.068
59424W        W25855  24.940  17.685  11.535
59425W        W25856  37.898  22.199  13.330
59426W        W25857   5.469   4.132   4.432
59427W        W25858   7.054  41.306  13.481
59428W        W25859  36.283  43.395   5.116
59429W        W25860  12.352  24.237   5.314
59430W        W25861  20.767  36.981  11.499
59431W        W25862  33.409   4.725  13.405
59432W        W25863  42.967  31.960   2.382
59433W        W25864  37.603   3.320   0.395
59434W        W25865   7.762  12.983   4.783
59435W        W25866  10.873  28.651   2.866
59436W        W25867   8.759  31.840   4.494
59437W        W25868  28.241  10.956   4.565
59438W        W25869  27.784  24.175  11.687
59439W        W25870  38.532   3.052  13.291
59440W        W25871  26.252  29.034  11.095
59441W        W25872  40.826  27.810  11.996
59442W        W25873  35.614   5.436   2.790
59443W        W25874   1.255  42.702  13.354
59444W        W25875  39.878   8.789   0.340
59445W        W25876   2.386   4.880  14.024
59446W        W25877   8.213  34.154   2.888
59447W        W25878  11.580  18.840  11.055
59448W        W25879  27.086  16.693  14.003
59449W        W25880  30.534  25.796  14.843
59450W        W25881   3.416  38.019  12.705
59451W        W25882  43.827  35.440   1.793
59452W        W25883  18.546  22.051  10.618
59453W        W25884  44.286  20.305   0.435
59454W        W25885  30.100  36.716   1.201
59455W        W25886   1.237  16.496   4.794
59456W        W25887  32.550  43.868   3.133
59457W        W25888   2.926  36.565  14.366
59458W        W25889  24.303   5.322   1.944
59459W        W25890  43.329  28.137  14.923
59460W        W25891  17.544  17.658   2.885
59461W        W25892  37.020  26.505   4.520
59462W        W25893  24.704   0.920  11.412
59463W        W25894   7.494  34.629   4.451
59464W        W25895  29.355   7.942   9.858
59465W        W25896   0.529  35.055   2.662
59466W        W25897   3.760  38.487   0.843
59467W        W25898  27.626  35.997   3.714
59468W        W25899  33.671  25.639   1.592
59469W        W25900  12.142  17.242   3.598
59470W        W25901  25.172  37.092   2.807
59471W        W25902   4.218   7.071  14.965
59472W        W25903  16.709  11.680  10.561
59473W        W25904  26.018  26.959   3.420
59474W        W25905   1.882  32.202   0.090
59475W        W25906  28.154   5.849  12.777
59476W        W25907  38.286  42.696   1.575
59477W        W25908  30.363  14.067  11.667
59478W        W25909  38.685  29.584   0.761
59479W        W25910   4.233  36.836  12.410
59480W        W25911  19.786   0.481   1.821
59481W        W25912  26.829  16.362   1.661
59482W        W25913  17.796  25.527   2.902
59483W        W25914  11.228  29.433   3.754
59484W        W25915   5.589  21.001  12.538
59485W        W25916   8.774   1.913  13.010
59486W        W25917  23.163  16.543   2.654
59487W        W25918  26.964   6.307  13.443
59488W        W25919  20.600   6.949  13.516
59489W        W25920  28.420  39.794  11.403
59490W        W25921   5.713  38.279  13.991
59491W        W25922  33.508  27.442   3.757
59492W        W25923  20.294  27.471  10.645
59493W        W25924  23.750  20.573  11.438
59494W        W25925  34.419  11.846   0.260
59495W        W25926  26.288  22.043  10.050
59496W        W25927  37.036  25.430  12.683
59497W        W25928  44.441  15.864  14.450
59498W        W25929  24.821  30.428  12.954
59499W        W25930  30.765   6.312  11.311
59500W        W25931  38.273  24.053  14.873
59501W        W25932  21.511  29.021  10.739
59502W        W25933   7.797  37.643   4.557
59503W        W25934  39.474  25.549  12.287
59504W        W25935  29.379  12.776   4.226
59505W        W25936  44.096   4.315  14.497
59506W        W25937  40.870  35.732   3.680
59507W        W25938  37.555  20.010  14.831
59508W        W25939  10.663  29.202  13.010
59509W        W25940  15.846   2.963  11.617
59510W        W25941  33.336  11.960  12.896
59511W        W25942  38.406  27.073   0.922
59512W        W25943  16.162  39.589   4.077
59513W        W25944  25.159   2.519   1.651
59514W        W25945  30.079   1.078   4.154
59515W        W25946   3.363  26.973  11.512
59516W        W25947  21.192  32.144  12.134
59517W        W25948  18.350   5.111  11.027
59518W        W25949  31.151  32.192  14.068
59519W        W25950  25.799  23.659   2.859
59520W        W25951  17.884  18.629   3.682
59521W        W25952  44.035   4.290  13.472
59522W        W25953  14.638  17.788   3.171
59523W        W25954  11.215  43.331   2.398
59524W        W25955  39.924   4.488   2.767
59525W        W25956  36.383  27.278   3.833
59526W        W25957  31.917  43.863  14.493
59527W        W25958  19.683  38.906   0.426
59528W        W25959  37.474  32.188   0.715
59529W        W25960   3.592   2.436  14.526
59530W        W25961   5.651  35.635   1.337
59531W        W25962  26.819  40.396  11.996
59532W        W25963  22.151   1.658  11.133
59533W        W25964  27.470   5.871  11.726
59534W        W25965  32.096   0.496   1.654
59535W        W25966  32.631  10.842   2.236
59536W        W25967   0.343  17.877   3.705
59537W        W25968  42.852   5.230   1.806
59538W        W25969   8.026  44.731  14.459
59539W        W25970   2.769  30.527  13.436
59540W        W25971  40.160  28.090   4.027
59541W        W25972   9.675  22.956   0.007
59542W        W25973  33.831  11.411   0.794
59543W        W25974   9.819  44.274  11.914
59544W        W25975  25.822  10.108  14.357
59545W        W25976  41.401  42.082  14.947
59546W        W25977  29.668  20.991  14.827
59547W        W25978   3.970  23.827  13.858
59548W        W25979  42.905  41.918   3.632
59549W        W25980  35.529  34.532   1.209
59550W        W25981  42.806  39.906   1.234
59551W        W25982   7.249  12.115   3.872
59552W        W25983  17.218  44.318   0.447
59553W        W25984  15.054   2.653   0.299
59554W        W25985  20.608  15.437   4.074
59555W        W25986  19.834  10.212  14.399
59556W        W25987  32.113  24.527   4.336
59557W        W25988  22.721   2.086   1.636
59558W        W25989   0.537  24.775  11.569
59559W        W25990  12.917  14.023  12.306
59560W        W25991  41.002  32.443  13.948
59561W        W25992  33.502  38.945  13.221
59562W        W25993  41.292  42.526   4.351
59563W        W25994  32.640  12.104   2.795
59564W        W25995  44.012  39.025   1.731
59565W        W25996  44.592  17.457  14.523
59566W        W25997  18.273   4.614   4.855
59567W        W25998  14.790  29.356   0.851
59568W        W25999  23.202  36.542  10.883
59569W        W26000  12.179   0.388   1.702
59570W        W26001  32.631  26.648  14.405
59571W        W26002   8.238  30.382  10.893
59572W        W26003  30.438  40.305   4.541
59573W        W26004  38.723  33.056  11.974
59574W        W26005  28.690  12.540  13.564
59575W        W26006  23.487  25.093   1.113
59576W        W26007  33.931   5.253  11.446
59577W        W26008  37.942  22.551   5.043
59578W        W26009  37.383  31.946   3.629
59579W        W26010   6.583  25.684  13.798
59580W        W26011  11.263  11.626  12.083
59581W        W26012   2.742  18.076   1.346
59582W        W26013  15.198  28.469   5.034
59583W        W26014  23.611  25.617  12.113
59584W        W26015  40.505  10.971   0.772
59585W        W26016   0.298   4.120   2.684
59586W        W26017  31.572  13.808   2.142
59587W        W26018  16.150  44.838  13.375
59588W        W26019  12.811  41.957   0.174
59589W        W26020  27.127  20.331  12.909
59590W        W26021  42.213  44.285  10.551
59591W        W26022  12.710   3.813   3.113
59592W        W26023  43.471   6.378   4.370
59593W        W26024  20.540  14.612   1.401
59594W        W26025  40.796  19.073  14.035
59595W        W26026  20.946   8.901  14.991
59596W        W26027  21.135  40.875   4.621
59597W        W26028  35.404  10.470   4.267
59598W        W26029  15.694  35.135  13.503
59599W        W26030   2.381  23.633  11.642
59600W        W26031  42.463  34.040   4.547
59601W        W26032  38.552  22.803   0.687
59602W        W26033  32.385   5.393  12.893
59603W        W26034  31.672  19.302  13.405
59604W        W26035  23.610  12.721  11.443
59605W        W26036  26.236   4.311   0.213
59606W        W26037  17.055  15.070  12.349
59607W        W26038  12.373  36.951  13.913
59608W        W26039   1.440  26.142   0.042
59609W        W26040  36.698   4.926   4.831
59610W        W26041  22.647  41.308  12.087
59611W        W26042  42.019  27.689  11.618
59612W        W26043  21.145  15.624  14.408
59613W        W26044   1.394  35.645   4.181
59614W        W26045   0.357   4.750   4.380
59615W        W26046  43.890  37.909   0.784
59616W        W26047  27.414   6.435  14.377
59617W        W26048  25.304   9.021   4.087
59618W        W26049  33.021  11.846  12.049
59619W        W26050  39.468  44.164  13.917
59620W        W26051  13.616  15.173   4.083
59621W        W26052  17.285  22.750  14.368
59622W        W26053  14.904  14.124   1.687
59623W        W26054   7.905   5.643  11.457
59624W        W26055  28.529  20.287  11.635
59625W        W26056  25.688  22.080   3.265
59626W        W26057  36.476   3.892  10.572
59627W        W26058   2.395   7.656   1.189
59628W        W26059  40.329  20.343   0.095
59629W        W26060   7.903  13.859   1.853
59630W        W26061  15.658   5.105  14.591
59631W        W26062  17.960  34.587  14.046
59632W        W26063  11.090  17.482   4.782
59633W        W26064  33.318   7.940  14.946
59634W        W26065  24.070  41.409  11.166
59635W        W26066   4.304  29.783   2.534
59636W        W26067   8.862  44.273  10.945
59637W        W26068  31.441  39.811   3.183
59638W        W26069  24.633  28.278   4.034
59639W        W26070  15.633   4.555  10.619
59640W        W26071  35.936  15.583   4.382
59641W        W26072  33.363  39.532   2.074
59642W        W26073  12.244  17.090  12.145
59643W        W26074  36.999  32.558   2.857
59644W        W26075  33.224  30.930   4.410
59645W        W26076  39.328  39.189   0.805
59646W        W26077  37.964  35.014  12.116
59647W        W26078  27.211  19.056   1.419
59648W        W26079  43.012   2.473  11.629
59649W        W26080  35.035   2.951  12.556
59650W        W26081  26.935  33.584  12.822
59651W        W26082  40.942  10.903   1.470
59652W        W26083  32.960  26.251  14.276
59653W        W26084   3.313  42.206   0.701
59654W        W26085  10.128   5.726  12.209
59655W        W26086   4.483  36.819   3.635
59656W        W26087   0.414   5.184   1.856
59657W        W26088  25.951  24.488   4.115
59658W        W26089  35.713   2.167   3.070
59659W        W26090  28.751  15.660  11.225
59660W        W26091  27.696  37.840  11.637
59661W        W26092  13.902  44.711   4.564
59662W        W26093   8.276   9.349  12.994
59663W        W26094  41.975  44.945  14.386
59664W        W26095   4.486   3.370  14.015
59665W        W26096   6.719  34.547   0.339
59666W        W26097  15.059  40.549   0.470
59667W        W26098  19.496  22.631  14.939
59668W        W26099  29.492  22.595  14.707
59669W        W26100   0.796  41.398   0.388
59670W        W26101  38.514   2.972   0.868
59671W        W26102  14.575   2.716   5.421
59672W        W26103  14.760  38.712   3.724
59673W        W26104   5.888   3.758  10.649
59674W        W26105  27.225  43.681   2.310
59675W        W26106  37.274  41.068  11.602
59676W        W26107  30.518  23.283  13.567
59677W        W26108  34.398  12.644   2.265
59678W        W26109  23.104   1.734  10.505
59679W        W26110   7.779   2.282  10.608
59680W        W26111  42.306  19.353   1.411
59681W        W26112  14.116  36.522  13.490
59682W        W26113  11.184  43.724   1.243
59683W        W26114  30.217  20.827  10.856
59684W        W26115   5.403  11.625  12.412
59685W        W26116   3.176   1.865  13.375
59686W        W26117  39.627  40.931  13.407
59687W        W26118  26.418  18.731  10.863
59688W        W26119  44.723  15.539  11.207
59689W        W26120  11.569  38.085   4.713
59690W        W26121  36.426  10.350  14.726
59691W        W26122  44.367  40.477   9.942
59692W        W26123  35.531  44.964  11.014
59693W        W26124  28.465  10.925   0.732
59694W        W26125  37.978  25.282   2.054
59695W        W26126  13.980  31.078   2.737
59696W        W26127   1.429  37.274   1.376
59697W        W26128  29.249  42.207  12.430
59698W        W26129  31.144  32.349   0.940
59699W        W26130  24.985  38.984  13.394
59700W        W26131  19.604  35.739   4.474
59701W        W26132  42.734  25.018  12.414
59702W        W26133   0.392   8.399  12.447
59703W        W26134  21.800  43.614  14.324
59704W        W26135  11.116  26.736   4.053
59705W        W26136  13.053   6.241  12.066
59706W        W26137  33.497   4.402  10.727
59707W        W26138  20.787  18.244  10.729
59708W        W26139  22.143  17.382   1.273
59709W        W26140  44.581  43.269   3.381
59710W        W26141  44.218   5.511  13.997
59711W        W26142  27.492   6.175  14.811
59712W        W26143  21.776  23.878  10.768
59713W        W26144   3.924  41.496  13.967
59714W        W26145   1.304   9.718  14.778
59715W        W26146  14.770  18.872  14.392
59716W        W26147   6.999   6.122  13.096
59717W        W26148  42.715  14.924   0.476
59718W        W26149  44.516  36.894  14.487
59719W        W26150  15.807  13.275  11.589
59720W        W26151  13.865  21.226   2.352
59721W        W26152   7.188  34.532  14.437
59722W        W26153  44.221  12.146  14.782
59723W        W26154   9.876  36.450   3.323
59724W        W26155  25.025  32.528   2.389
59725W        W26156  14.373  26.413  14.805
59726W        W26157  10.592  11.041  14.288
59727W        W26158  42.974   4.185   1.467
59728W        W26159   7.886  19.306   0.398
59729W        W26160   3.260  36.386   1.395
59730W        W26161  22.006   0.137  12.922
59731W        W26162  33.523  27.207  10.695
59732W        W26163  29.654  43.148   2.690
59733W        W26164  21.110  30.735   3.174
59734W        W26165  38.102  25.406   0.782
59735W        W26166  40.449   5.249  10.802
59736W        W26167  33.381  19.649  11.835
59737W        W26168  42.889  39.808   0.337
59738W        W26169  37.332  26.579   2.307
59739W        W26170  31.226  27.401   1.885
59740W        W26171   7.713  19.323  13.920
59741W        W26172  32.195  30.096   1.398
59742W        W26173   1.293  20.570  11.656
59743W        W26174  19.969  28.148  14.381
59744W        W26175  42.540  36.396   1.539
59745W        W26176  39.006   2.872  13.321
59746W        W26177  16.657   7.086  12.989
59747W        W26178  30.180  15.198  11.201
59748W        W26179  42.891  17.111   0.786
59749W        W26180   7.445  17.230   1.424
59750W        W26181  18.941  14.941   0.827
59751W        W26182  11.010  12.520  14.415
59752W        W26183   6.793  17.804   0.447
59753W        W26184  12.198   3.165   3.729
59754W        W26185  37.738  14.839   2.226
59755W        W26186  34.298   3.502  13.720
59756W        W26187  38.517  10.108  10.536
59757W        W26188  29.203  20.636  12.095
59758W        W26189  22.551  15.740   0.009
59759W        W26190  42.155  20.174   4.780
59760W        W26191  30.778   2.685   0.284
59761W        W26192   9.291   6.953  12.977
59762W        W26193  11.170  22.150   1.433
59763W        W26194  39.887  24.692  12.067
59764W        W26195   9.926   8.665   4.132
59765W        W26196  29.136  40.818  10.666
59766W        W26197   1.268   6.161   1.152
59767W        W26198  25.449  32.903   1.267
59768W        W26199  33.200  19.199   4.727
59769W        W26200  16.173  13.111   3.598
59770W        W26201   3.833  17.063   3.408
59771W        W26202  39.509  23.136  13.889
59772W        W26203   8.480  34.512  14.825
59773W        W26204  33.929  22.959  11.150
59774W        W26205  35.031  41.354  13.981
59775W        W26206  13.756  14.166  13.811
59776W        W26207  12.979  44.950   2.221
59777W        W26208  32.819  13.669   1.381
59778W        W26209   5.421  27.758  11.186
59779W        W26210  32.378  33.869   0.068
59780W        W26211  29.002  11.140  14.522
59781W        W26212   4.275  37.052   4.402
59782W        W26213  12.557  18.876   2.361
59783W        W26214  42.976   1.223  12.823
59784W        W26215  27.037  33.620  10.795
59785W        W26216  25.803   7.426   1.847
59786W        W26217  10.251   3.175  10.208
59787W        W26218  12.160   6.116   0.305
59788W        W26219  18.784  30.105   4.106
59789W        W26220  27.734   4.194   3.203
59790W        W26221  42.454  41.008   0.506
59791W        W26222  22.063  41.795   4.695
59792W        W26223   8.932   9.201  14.387
59793W        W26224  28.882  37.492  14.446
59794W        W26225  11.882  10.434   0.258
59795W        W26226  32.941  41.723   1.454
59796W        W26227  37.443  16.532  12.016
59797W        W26228  20.216  36.121   3.609
59798W        W26229  18.130  29.124  10.697
59799W        W26230   7.120  20.628  13.159
59800W        W26231  42.946  21.609  13.957
59801W        W26232  40.983   0.478   0.275
59802W        W26233  44.375  18.873  10.430
59803W        W26234  43.990  30.051   3.940
59804W        W26235  38.835  18.555   4.131
59805W        W26236  11.889  12.255   2.291
59806W        W26237   5.677  33.800  12.621
59807W        W26238  33.188  11.226   3.647
59808W        W26239   2.453  31.342   3.714
59809W        W26240  21.676   5.966   0.406
59810W        W26241   4.239  27.227   2.864
59811W        W26242   3.227  41.990   4.127
59812W        W26243   2.993  39.903  10.712
59813W        W26244  34.248  24.626  10.701
59814W        W26245  26.449  30.403   4.505
59815W        W26246  12.601  32.829   0.527
59816W        W26247  21.286  13.966  10.302
59817W        W26248  28.140  41.338   3.579
59818W        W26249   1.165   8.472  13.544
59819W        W26250  25.461  20.459  12.900
59820W        W26251  27.536   2.621   4.790
59821W        W26252  10.298  35.857   1.167
59822W        W26253  39.975  41.335   4.065
59823W        W26254  20.330   4.781  11.892
59824W        W26255  24.233   7.354   4.552
59825W        W26256   2.964   9.209  11.150
59826W        W26257  30.528  30.701   1.780
59827W        W26258   0.423  13.387  14.471
59828W        W26259  37.170   1.542   4.619
59829W        W26260  33.988   0.513  12.928
59830W        W26261  37.884  43.065   5.003
59831W        W26262  31.577  38.580  11.397
59832W        W26263  41.975  39.739   1.005
59833W        W26264  39.459   8.612   4.996
59834W        W26265  18.238  30.936  11.996
59835W        W26266  21.079  26.442  13.753
59836W        W26267  19.133  42.388   1.798
59837W        W26268  10.858  10.628  11.111
59838W        W26269  13.838   0.518   4.308
59839W        W26270  38.792  32.612  12.940
59840W        W26271  27.709  14.395  10.698
59841W        W26272  29.710  14.076   4.221
59842W        W26273  12.246  11.653   3.893
59843W        W26274   3.843  35.228   3.216
59844W        W26275  17.631  26.036  13.912
59845W        W26276   3.435   1.192  12.938
59846W        W26277  43.405   6.857   4.583
59847W        W26278  32.324  15.762  10.148
59848W        W26279  34.908  33.173   3.349
59849W        W26280  32.883   8.193   4.433
59850W        W26281  40.562  11.203  12.377
59851W        W26282  14.056  20.049   2.362
59852W        W26283  21.062  18.197   2.903
59853W        W26284  24.436  14.079   3.288
59854W        W26285  35.020   9.474   1.341
59855W        W26286   4.635  17.458   4.528
59856W        W26287  38.764  14.817   3.939
59857W        W26288  16.666  27.906  12.606
59858W        W26289  14.085   7.303   3.087
59859W        W26290  12.314  40.959   2.815
59860W        W26291  31.492  12.414   1.932
59861W        W26292  20.718  19.153   4.749
59862W        W26293  17.354  11.238   2.685
59863W        W26294  21.572  12.620   0.896
59864W        W26295  11.348  22.164   2.450
59865W        W26296  44.300  12.315  11.176
59866W        W26297   0.100   5.253   3.650
59867W        W26298  12.253  12.910  12.041
59868W        W26299  30.347   3.691   1.761
59869W        W26300   7.025  42.003   0.069
59870W        W26301  21.560  12.693  10.788
59871W        W26302  11.311   0.316  13.476
59872W        W26303  28.811  41.544  12.007
59873W        W26304  21.022   7.989  14.964
59874W        W26305  27.033  29.934   1.215
59875W        W26306  35.807  21.579   1.521
59876W        W26307   3.727  31.641   3.079
59877W        W26308  22.688  39.085   2.767
59878W        W26309   8.132  35.489  14.354
59879W        W26310   8.868  33.724   2.159
59880W        W26311  43.187  18.590  13.763
59881W        W26312  39.721  26.029   0.521
59882W        W26313   3.178  16.752   3.086
59883W        W26314  25.882   2.917   1.331
59884W        W26315   4.770  28.059   0.045
59885W        W26316  27.588  20.828   2.717
59886W        W26317  37.014  27.749  10.245
59887W        W26318  26.869  22.465   0.881
59888W        W26319  36.504  30.052   3.187
59889W        W26320  37.805  10.116  10.221
59890W        W26321  14.117  17.429   0.234
59891W        W26322   2.690  30.606  14.324
59892W        W26323  36.150  11.157  14.474
59893W        W26324  26.636  21.170   4.608
59894W        W26325   8.725  44.823   2.199
59895W        W26326  32.830   6.600   2.289
59896W        W26327  22.551   5.096   3.706
59897W        W26328   5.313  36.004  10.790
59898W        W26329  10.540  30.130   4.595
59899W        W26330  24.678  34.599   4.298
59900W        W26331  43.242  16.109   2.976
59901W        W26332  11.161  12.556   1.978
59902W        W26333  18.238  37.639  10.636
59903W        W26334  39.438   9.615  10.725
59904W        W26335   3.752   7.246   5.045
59905W        W26336  34.253  11.189  12.790
59906W        W26337   5.955  40.370  11.467
59907W        W26338   5.966   3.705   3.320
59908W        W26339  43.803  39.023  13.417
59909W        W26340  21.920  22.323   3.319
59910W        W26341   5.607  12.753  12.565
59911W        W26342  19.459  34.082  13.509
59912W        W26343  35.352  12.141  11.611
59913W        W26344  29.701   9.347  10.565
59914W        W26345   3.339  25.447   4.724
59915W        W26346  20.197  13.865   4.904
59916W        W26347  28.996  25.247  12.573
59917W        W26348   6.327  38.057   0.918
59918W        W26349  29.929  21.352  11.090
59919W        W26350  42.091  37.530  13.074
59920W        W26351  25.279  26.365   5.012
59921W        W26352  15.078  29.557   4.689
59922W        W26353  24.023  19.529  14.767
59923W        W26354  16.900  12.803  12.968
59924W        W26355   3.852  25.339  12.133
59925W        W26356   7.451  17.693  14.927
59926W        W26357  39.330  33.552   1.381
59927W        W26358   8.093   2.632  13.110
59928W        W26359   6.251   2.223  11.959
59929W        W26360  29.502  42.445   1.083
59930W        W26361   8.729  26.947   3.376
59931W        W26362  14.048  12.749   3.064
59932W        W26363  40.325  17.583   3.927
59933W        W26364  33.817  34.119  10.928
59934W        W26365  30.040  10.099  13.838
59935W        W26366   5.538  39.363  11.583
59936W        W26367  29.536  33.644   0.454
59937W        W26368  26.647  17.035   0.187
59938W        W26369  29.879   5.173  12.765
59939W        W26370  31.457  16.691  12.864
59940W        W26371  14.741  37.472  12.857
59941W        W26372   8.397   9.396   1.219
59942W        W26373  33.254  11.873  11.188
59943W        W26374  14.756  38.668   2.451
59944W        W26375  23.252   1.709   3.745
59945W        W26376   8.357   6.620   4.440
59946W        W26377   6.527  23.696  13.408
59947W        W26378  17.353   9.834  13.503
59948W        W26379  11.389  20.158  11.847
59949W        W26380  19.975  36.516   2.344
59950W        W26381  29.312  21.127  14.486
59951W        W26382   6.888   3.722  14.811
59952W        W26383  25.337  22.229   4.516
59953W        W26384  22.613   1.984  14.907
59954W        W26385  44.884  18.595   0.316
59955W        W26386  40.440   1.473  11.597
59956W        W26387  39.124  11.195  14.356
59957W        W26388  30.521  43.968   4.862
59958W        W26389  15.753   5.192  13.625
59959W        W26390  37.797   5.936  12.415
59960W        W26391  31.162  17.963  11.097
59961W        W26392   5.202  16.825  14.989
59962W        W26393  11.800  13.864   2.656
59963W        W26394  44.838   8.359   3.761
59964W        W26395  29.168  13.385  12.148
59965W        W26396  16.919   4.942   4.442
59966W        W26397  17.070  40.989  11.224
59967W        W26398  37.702  25.519   0.444
59968W        W26399  40.529  33.844  11.116
59969W        W26400  17.602  18.492  12.482
59970W        W26401  35.688  19.081  12.969
59971W        W26402   5.590  17.656   2.209
59972W        W26403  30.104  37.340  13.177
59973W        W26404  28.402  27.197   2.814
59974W        W26405  17.057  28.263   3.277
59975W        W26406   9.972  14.746   4.099
59976W        W26407  23.687   2.005   0.814
59977W        W26408  27.933   2.176   3.591
59978W        W26409  30.413  18.228  12.917
59979W        W26410  34.496  38.938   3.013
59980W        W26411  39.372  25.077  13.466
59981W        W26412  33.859   4.756  14.357
59982W        W26413   3.294   0.468   0.727
59983W        W26414  17.587  13.461   4.131
59984W        W26415  20.301  31.650   4.037
59985W        W26416  27.042  43.040  13.011
59986W        W26417   1.220  13.826   3.402
59987W        W26418   1.290  29.566  13.865
59988W        W26419  39.231  34.388  10.969
59989W        W26420  19.581  38.314  12.885
59990W        W26421  18.820  43.559   3.337
59991W        W26422  30.421  19.856   2.719
59992W        W26423  34.396  44.235   1.723
59993W        W26424  35.000  28.355  13.839
59994W        W26425  18.692  35.591   1.843
59995W        W26426  32.682  10.189  11.521
59996W        W26427  37.069  44.453  14.035
59997W        W26428  39.243  44.621   1.078
59998W        W26429   4.259  16.304  11.128
59999W        W26430  36.284   4.672  11.517
60000W        W26431  27.055   0.281   3.845
60001W        W26432  26.873  36.584   0.372
60002W        W26433  10.751  26.430  14.280
60003W        W26434   9.700  13.684  12.034
60004W        W26435  38.945  16.054  13.591
60005W        W26436  23.784  26.738   0.057
60006W        W26437  13.355   0.241   0.167
60007W        W26438  18.258  11.329  10.956
60008W        W26439   5.413  30.978  14.360
60009W        W26440  36.977   4.657  13.033
60010W        W26441  31.459  20.961   1.241
60011W        W26442  28.907  33.166  11.592
60012W        W26443   0.423  20.742   4.121
60013W        W26444  13.365  11.589   0.948
60014W        W26445   4.462  16.314  12.421
60015W        W26446  28.972  33.608   0.924
60016W        W26447  21.613  24.802  12.561
60017W        W26448  44.494  11.584  11.821
60018W        W26449  37.970  10.574  11.200
60019W        W26450  31.073  34.176  13.049
60020W        W26451  41.035   2.031   2.930
60021W        W26452   8.892  10.158   2.274
60022W        W26453  19.016   4.400   3.954
60023W        W26454  32.472  11.086   4.356
60024W        W26455  27.642  23.119  14.487
60025W        W26456  22.045   7.105   4.107
60026W        W26457  43.527  34.672   3.626
60027W        W26458  31.950  18.945  11.510
60028W        W26459   8.224  38.167  11.213
60029W        W26460  43.765   6.554   3.233
60030W        W26461  17.676  34.505  14.511
60031W        W26462  40.448  26.563  13.541
60032W        W26463  21.488   6.284   5.048
60033W        W26464  22.455  31.473   3.093
60034W        W26465  22.201   4.717   0.248
60035W        W26466  44.625   3.510   4.092
60036W        W26467  31.236  32.140   0.468
60037W        W26468  39.875  34.543   2.813
60038W        W26469  32.173  23.107   4.651
60039W        W26470   1.867   9.926   0.261
60040W        W26471  13.878   3.327   4.889
60041W        W26472  11.336   9.268   0.317
60042W        W26473   0.227  37.271   0.964
60043W        W26474  39.505  32.890   2.467
60044W        W26475  12.156  20.566  12.980
60045W        W26476  18.615  28.821   3.806
60046W        W26477  39.957  19.963  11.549
60047W        W26478  12.306  14.858   4.135
60048W        W26479  25.260   8.638  11.229
60049W        W26480  28.283  10.914   1.745
60050W        W26481  22.538   0.774  11.668
60051W        W26482  41.871  17.245   3.332
60052W        W26483  19.476  20.708   2.744
60053W        W26484  31.816  17.125  14.928
60054W        W26485  21.126  43.015  14.001
60055W        W26486   9.787  10.739   4.240
60056W        W26487  42.522  15.333  11.590
60057W        W26488  37.394  14.425  10.311
60058W        W26489  21.568  26.186   4.676
60059W        W26490  38.414  36.874  13.733
60060W        W26491  10.423  29.462   3.465
60061W        W26492  38.755  37.027   3.169
60062W        W26493  17.582   4.535  14.381
60063W        W26494  11.678   4.744   4.498
60064W        W26495  38.922   1.246   2.764
60065W        W26496  14.895  39.566  12.020
60066W        W26497   3.181  39.611   4.038
60067W        W26498  33.058  27.702   4.416
60068W        W26499   7.506   2.319  13.390
60069W        W26500  11.137  28.378   0.433
60070W        W26501  11.172   8.141   4.216
60071W        W26502  27.920   5.775   1.933
60072W        W26503  21.712  43.409   1.148
60073W        W26504  30.190  38.458  14.767
60074W        W26505  26.898  34.709   2.916
60075W        W26506   7.681  12.670  11.505
60076W        W26507  10.541  11.084  12.470
60077W        W26508  23.694  19.334  12.560
60078W        W26509  17.761   0.206   4.363
60079W        W26510   0.811  33.600   3.332
60080W        W26511  21.216  37.114   3.639
60081W        W26512  42.001  14.377   3.672
60082W        W26513  18.515  40.604  13.918
60083W        W26514  26.431  19.267   1.900
60084W        W26515  37.459  42.769  13.826
60085W        W26516  37.896  31.354  10.116
60086W        W26517  14.590  33.299  14.014
60087W        W26518  44.714   1.112   3.360
60088W        W26519  29.175  41.778  10.643
60089W        W26520  19.125  42.996  13.979
60090W        W26521  36.000  34.572  14.881
60091W        W26522   6.835  40.602  14.292
60092W        W26523  22.567  39.700   3.594
60093W        W26524   2.326  12.177   2.696
60094W        W26525   8.834  23.676  13.433
60095W        W26526   6.775  43.666  12.932
60096W        W26527  19.139  32.067   3.252
60097W        W26528  24.428  27.142   4.096
60098W        W26529  37.231  40.227   2.397
60099W        W26530  22.032  40.902  11.649
60100W        W26531  28.369  11.287  13.831
60101W        W26532  24.258  22.190   3.530
60102W        W26533  41.810  43.434   1.954
60103W        W26534  39.302  18.661  11.526
60104W        W26535  37.609  13.433  13.948
60105W        W26536   0.405  11.699  10.688
60106W        W26537   6.011  27.557  14.855
60107W        W26538  32.511   0.445   4.117
60108W        W26539  13.793  43.305   0.494
60109W        W26540  25.700  12.586   2.959
60110W        W26541  30.161  32.598  13.739
60111W        W26542  38.914  43.009  12.794
60112W        W26543  19.125  39.923   2.852
60113W        W26544  39.533  27.449   4.307
60114W        W26545  20.855  37.497  10.668
60115W        W26546  39.363   5.685   4.101
60116W        W26547  41.977  25.187   0.512
60117W        W26548  35.563  41.199  13.100
60118W        W26549   5.998  37.852   4.507
60119W        W26550  19.216  40.464  12.648
60120W        W26551  24.243   8.227   2.925
60121W        W26552  22.064  14.694   4.175
60122W        W26553  22.775  21.675  12.133
60123W        W26554  35.164  10.327   1.033
60124W        W26555  25.879   6.927   1.998
60125W        W26556   4.729  35.840   4.940
60126W        W26557  29.687  18.058   4.264
60127W        W26558  23.323  20.675   2.848
60128W        W26559  11.903  36.907  12.449
60129W        W26560   5.621  35.032  11.001
60130W        W26561   0.815  27.738   0.307
60131W        W26562  37.235   4.126  14.937
60132W        W26563  30.603  16.526  12.787
60133W        W26564  42.770  23.709  11.870
60134W        W26565  28.841  38.294   1.843
60135W        W26566  16.081  27.583  11.550
60136W        W26567  23.208   4.960   0.512
60137W        W26568   2.064  20.503   1.067
60138W        W26569  14.602  44.773   3.640
60139W        W26570  24.147  25.521  14.830
60140W        W26571  39.495  37.784   2.355
60141W        W26572  41.239  24.115   1.764
60142W        W26573  42.997  13.304  14.752
60143W        W26574   2.313  43.947   4.145
60144W        W26575  33.889   0.898   1.415
60145W        W26576   0.888  10.219   0.351
60146W        W26577  16.419  29.361   4.319
60147W        W26578   7.805  14.191  10.730
60148W        W26579  18.160   1.025   2.180
60149W        W26580  25.101   0.449   0.245
60150W        W26581   7.201  18.593   4.968
60151W        W26582  42.753  44.561  13.872
60152W        W26583  10.289  10.238   2.096
60153W        W26584  36.935  13.217  14.308
60154W        W26585  18.961  32.141   2.328
60155W        W26586  27.464  40.584  14.823
60156W        W26587  10.601  19.482  11.161
60157W        W26588  35.096  33.461   4.173
60158W        W26589  20.224  31.510   2.207
60159W        W26590  11.170  42.989  13.323
60160W        W26591  15.172  43.948   4.673
60161W        W26592  28.983   5.207   1.821
60162W        W26593   9.377  44.947   2.820
60163W        W26594  44.088  23.431   0.984
60164W        W26595  21.072  17.249   2.802
60165W        W26596  17.735  24.536  10.242
60166W        W26597  43.380  28.109  12.652
60167W        W26598   9.932  22.922   2.913
60168W        W26599   4.216  43.435  14.555
60169W        W26600  23.816  28.087  12.938
60170W        W26601  33.965  17.123   1.355
60171W        W26602  37.562   9.240  13.175
60172W        W26603  17.085  10.851  12.387
60173W        W26604  27.986  44.465   3.176
60174W        W26605  44.462  17.605   0.039
60175W        W26606   3.387  21.999   3.749
60176W        W26607  17.318  13.627   3.479
60177W        W26608  37.097   1.845   0.349
60178W        W26609  43.868  34.864   1.135
60179W        W26610  29.405  12.769   1.411
60180W        W26611   2.284  37.740   4.455
60181W        W26612  42.785  18.773  10.462
60182W        W26613   3.456  38.260  13.161
60183W        W26614   5.854  27.129   1.953
60184W        W26615  21.089  28.373  13.591
60185W        W26616  28.890   7.120  14.236
60186W        W26617  20.157  11.281  13.546
60187W        W26618   6.109  44.896  14.904
60188W        W26619  22.693  41.338  12.585
60189W        W26620  18.802  18.820   3.655
60190W        W26621   6.925  36.582   4.953
60191W        W26622  40.954  33.385  12.436
60192W        W26623   4.350   2.250   2.229
60193W        W26624   1.821  34.266  11.174
60194W        W26625  22.748  31.973  12.465
60195W        W26626  13.863   2.480   4.707
60196W        W26627  23.141  32.500  11.128
60197W        W26628  23.144  26.976  14.916
60198W        W26629  31.233  40.742   2.475
60199W        W26630   7.145  10.022   2.231
60200W        W26631   2.972   9.201   0.015
60201W        W26632  10.275  42.489   3.630
60202W        W26633  44.694  34.491   4.605
60203W        W26634   0.455  10.651  14.846
60204W        W26635   1.181  15.202  13.807
60205W        W26636  38.495  17.222   5.059
60206W        W26637  42.282  30.495  10.777
60207W        W26638  43.099   8.757   3.654
60208W        W26639  19.774   7.884  13.000
60209W        W26640  20.436   4.823  13.403
60210W        W26641   3.979  11.281  13.030
60211W        W26642  18.207  24.118  12.855
60212W        W26643  23.270  29.130  12.828
60213W        W26644  12.310  32.229  10.634
60214W        W26645  13.301  11.084   0.992
60215W        W26646  35.424  20.087  12.168
60216W        W26647  36.020   1.026  14.169
60217W        W26648  34.851  19.299  14.342
60218W        W26649  41.054   1.164   3.350
60219W        W26650  44.440   7.362  13.796
60220W        W26651   1.646  27.674  13.559
60221W        W26652  11.149  13.719   4.875
60222W        W26653  32.599  42.495   1.308
60223W        W26654   0.571  29.265  12.518
60224W        W26655  11.026  37.678   2.279
60225W        W26656  16.814  11.649   9.629
60226W        W26657  40.847  26.363   3.597
60227W        W26658  22.647  16.621  12.300
60228W        W26659  18.319   4.208   1.267
60229W        W26660   6.216  18.067  12.956
60230W        W26661  32.490  28.460  14.318
60231W        W26662   0.417  16.323   0.714
60232W        W26663  28.075  31.567  10.708
60233W        W26664   5.884  22.000  10.690
60234W        W26665  23.102  35.835  11.587
60235W        W26666  44.013  11.228  12.909
60236W        W26667   2.219  10.300  10.274
60237W        W26668  23.810  44.984   1.998
60238W        W26669  33.359   3.391  14.359
60239W        W26670  11.580  26.037  12.432
60240W        W26671   3.797  22.244   0.152
60241W        W26672  16.661   3.269   2.252
60242W        W26673  17.633  31.355  13.985
60243W        W26674  19.151  23.808  10.864
60244W        W26675  41.138  33.810   4.525
60245W        W26676   2.974  41.360   3.612
60246W        W26677   2.390  25.217  11.457
60247W        W26678   4.856  42.305   2.117
60248W        W26679   3.272  35.338  14.408
60249W        W26680  11.714  11.322  13.009
60250W        W26681   9.634  43.966  13.470
60251W        W26682  18.747  15.563   1.243
60252W        W26683  24.462  19.830  14.560
60253W        W26684   3.644  41.407  11.057
60254W        W26685  18.090  19.337  11.480
60255W        W26686  36.490  22.248   2.428
60256W        W26687  25.507  40.150  12.551
60257W        W26688  22.123  34.555   1.853
60258W        W26689   1.269   6.328  14.278
60259W        W26690  32.896  20.492  14.421
60260W        W26691  20.167   4.738   2.248
60261W        W26692   6.190   9.448  12.095
60262W        W26693  35.082   8.737  11.142
60263W        W26694   2.810  24.244  14.282
60264W        W26695  32.451  18.295  11.600
60265W        W26696  43.345  21.189  13.574
60266W        W26697   9.021  36.614   1.880
60267W        W26698  35.549   0.662   4.640
60268W        W26699  14.749  14.566   1.891
60269W        W26700   3.653  28.101   2.209
60270W        W26701  19.186   8.104  14.965
60271W        W26702  26.570  20.005   1.274
60272W        W26703   2.850  27.676   4.297
60273W        W26704  35.811  32.722   2.144
60274W        W26705  35.459   6.795  13.014
60275W        W26706  30.603  38.377   1.023
60276W        W26707  32.810  14.903   3.175
60277W        W26708  10.761  32.443  11.513
60278W        W26709  29.121  21.554  13.367
60279W        W26710   6.167  35.433  14.339
60280W        W26711  31.852  23.161  11.058
60281W        W26712  43.683   5.859  13.644
60282W        W26713  12.067   6.155   4.133
60283W        W26714  10.400   5.160  14.968
60284W        W26715   1.133   0.233   2.685
60285W        W26716  30.842  21.708  11.267
60286W        W26717  31.153  32.631  13.134
60287W        W26718   9.344  38.868   0.327
60288W        W26719  22.041  11.444  12.972
60289W        W26720   8.523  25.400  11.696
60290W        W26721  29.948   7.464  14.274
60291W        W26722  22.694  12.413   4.846
60292W        W26723  44.488   9.194   2.664
60293W        W26724  17.657  24.758   1.769
60294W        W26725  28.946   3.913   1.512
60295W        W26726  15.829   5.816   0.401
60296W        W26727  38.182  29.273  10.249
60297W        W26728  38.964  29.990   5.105
60298W        W26729   9.106  21.594   3.587
60299W        W26730  13.659  28.611   0.037
60300W        W26731  18.836   9.698   3.194
60301W        W26732   5.033  42.079   2.735
60302W        W26733   2.278   9.594   2.823
60303W        W26734  20.211  25.064  14.358
60304W        W26735  27.017   3.917   1.218
60305W        W26736  42.062  19.278   2.831
60306W        W26737  34.745   0.056  11.545
60307W        W26738  10.658  38.898   0.312
60308W        W26739   6.402  37.053   0.779
60309W        W26740  40.872  13.077  14.801
60310W        W26741  25.676  20.031   2.794
60311W        W26742   7.464  44.045  11.179
60312W        W26743  40.975  23.052  12.398
60313W        W26744  24.615  43.408  14.835
60314W        W26745  16.224  15.733   0.793
60315W        W26746   8.968  42.644  12.427
60316W        W26747  30.407  23.279   3.783
60317W        W26748  33.157  34.862  11.268
60318W        W26749  42.936  18.174   3.134
60319W        W26750  17.051  31.504   4.616
60320W        W26751  19.729  42.445   3.644
60321W        W26752  27.239  26.473   5.137
60322W        W26753   7.338  22.353   4.292
60323W        W26754   0.477  42.870  11.725
60324W        W26755   7.504  12.172   2.165
60325W        W26756  41.032  19.144   2.561
60326W        W26757  44.282   2.931  13.890
60327W        W26758  43.843  20.530   3.742
60328W        W26759  26.340  22.552   9.915
60329W        W26760  20.653  22.391   1.637
60330W        W26761  26.923  38.046   3.133
60331W        W26762  18.700  33.941  13.953
60332W        W26763  21.285  31.079   0.439
60333W        W26764   3.418  42.130  10.593
60334W        W26765  34.298  39.951  14.083
60335W        W26766   2.306  44.030  11.469
60336W        W26767   5.921  21.784  13.542
60337W        W26768   8.867   2.872  12.534
60338W        W26769  38.287  29.381   4.987
60339W        W26770   0.038  19.673  13.092
60340W        W26771  21.293  27.171  10.724
60341W        W26772   4.453  38.922  14.558
60342W        W26773   1.564  39.616  11.347
60343W        W26774  19.038  27.490   2.759
60344W        W26775   8.000  11.565   5.448
60345W        W26776  31.623  43.953   0.884
60346W        W26777  20.109  21.161   3.138
60347W        W26778  25.987  25.072  13.355
60348W        W26779  38.455  30.815   0.565
60349W        W26780  14.656  22.217  12.378
60350W        W26781  16.849  44.850  11.919
60351W        W26782   6.469  30.634   5.073
60352W        W26783  31.108  37.047  11.793
60353W        W26784  35.839  34.957  12.098
60354W        W26785  28.421  17.017   4.572
60355W        W26786  23.748   4.752   4.866
60356W        W26787  28.120   1.525  11.496
60357W        W26788  36.508  18.025  14.336
60358W        W26789  33.049  28.885   3.205
60359W        W26790  35.547   3.402   4.115
60360W        W26791  12.354  35.210   1.315
60361W        W26792   8.603  32.467   3.168
60362W        W26793   3.671  42.356  13.553
60363W        W26794  12.825  35.757   2.080
60364W        W26795   6.785  11.717  13.567
60365W        W26796  29.524  37.536  11.669
60366W        W26797   6.978  29.447  12.365
60367W        W26798  37.985  33.549  13.498
60368W        W26799  44.160  41.723   4.135
60369W        W26800   0.429  15.806  10.824
60370W        W26801  43.748  34.439   4.981
60371W        W26802   4.181   3.240  11.301
60372W        W26803   2.366  14.829  12.917
60373W        W26804  17.386  35.324   0.793
60374W        W26805   1.016  10.443  12.050
60375W        W26806   4.717  18.082   3.664
60376W        W26807  12.752   8.167  14.266
60377W        W26808  24.167  31.455  11.613
60378W        W26809  44.661  14.159   0.602
60379W        W26810  17.209   1.491   4.609
60380W        W26811  28.030  43.989   4.448
60381W        W26812   7.160  14.321   4.076
60382W        W26813  22.107  15.538   3.257
60383W        W26814  39.218  13.658  14.355
60384W        W26815   6.365  30.417   1.123
60385W        W26816  34.995  25.764   1.270
60386W        W26817  23.504  26.273  10.727
60387W        W26818   4.195  44.852  14.632
60388W        W26819  38.959  24.803   1.312
60389W        W26820  15.671  20.934   0.666
60390W        W26821  23.071  32.683   0.252
60391W        W26822  27.401  42.174  13.178
60392W        W26823   5.968  14.300  14.756
60393W        W26824  38.079   0.525  12.885
60394W        W26825  26.674   1.673  12.799
60395W        W26826  42.383  38.830  14.540
60396W        W26827   5.299  24.266   3.181
60397W        W26828  30.598  28.386   3.894
60398W        W26829  18.268  11.819  14.403
60399W        W26830  19.245   6.099   0.774
60400W        W26831   5.111  20.139  11.600
60401W        W26832   9.115  42.380   1.121
60402W        W26833  16.125   4.544   2.325
60403W        W26834   3.634  39.482  12.049
60404W        W26835   9.843  29.669   4.175
60405W        W26836  10.493  29.634   4.453
60406W        W26837  34.197  26.321   1.643
60407W        W26838  27.538  37.577   4.681
60408W        W26839  31.552  12.629  14.312
60409W        W26840  13.661  43.343  14.989
60410W        W26841  39.327  23.892  11.121
60411W        W26842  18.120  12.766  12.595
60412W        W26843  26.267  32.058   4.073
60413W        W26844   7.126  23.252  11.562
60414W        W26845   6.742  44.888   3.090
60415W        W26846   4.582  42.549   3.839
60416W        W26847  21.602  34.005  13.528
60417W        W26848   7.754  39.163  10.652
60418W        W26849  29.359  27.498   1.191
60419W        W26850  25.911   5.669   3.824
60420W        W26851  43.835   6.002   2.973
60421W        W26852  32.582  19.944   0.563
60422W        W26853  34.487  10.818   0.784
60423W        W26854  41.413  10.908   0.777
60424W        W26855  31.385  32.998  13.981
60425W        W26856   2.096  18.053   3.806
60426W        W26857  41.860  12.403  13.497
60427W        W26858  33.623  39.625  14.782
60428W        W26859  17.846  12.835   0.788
60429W        W26860   6.791  14.316  10.665
60430W        W26861   1.106  18.950  14.871
60431W        W26862  25.713   9.235   4.339
60432W        W26863  26.553  19.720   3.912
60433W        W26864  35.591  26.525  11.059
60434W        W26865  41.831   1.337   2.627
60435W        W26866   7.950  36.872  14.475
60436W        W26867  15.455   5.248  11.148
60437W        W26868  12.742  41.139  12.648
60438W        W26869   6.901  30.438  12.116
60439W        W26870  43.383  23.738   3.751
60440W        W26871  20.589  17.668  12.592
60441W        W26872  15.193   2.308  14.962
60442W        W26873  18.631   5.828  12.484
60443W        W26874  37.367   5.885   2.165
60444W        W26875  30.943  17.943   0.542
60445W        W26876  27.036  39.294  14.036
60446W        W26877  20.360  16.457   5.017
60447W        W26878  24.068  22.759   0.426
60448W        W26879  34.585  38.872  10.244
60449W        W26880  28.215  10.858  14.946
60450W        W26881  41.463   3.697  11.543
60451W        W26882  32.414  19.805  12.320
60452W        W26883  30.897  28.407   2.662
60453W        W26884   5.685  31.889  10.699
60454W        W26885  32.504  29.496  12.424
60455W        W26886  39.855   0.901   2.611
60456W        W26887   9.175  23.758  13.026
60457W        W26888  31.160  13.442  12.807
60458W        W26889  38.539  12.729  13.285
60459W        W26890  38.119  32.697  12.513
60460W        W26891   4.476  25.326  10.409
60461W        W26892  16.134  15.679  12.528
60462W        W26893  39.095  19.051  13.880
60463W        W26894  36.532   7.753   3.343
60464W        W26895  25.524  29.021  13.474
60465W        W26896  26.026   3.392   4.055
60466W        W26897   4.296  18.818   3.606
60467W        W26898  32.932  23.017   2.094
60468W        W26899  13.339  25.015  13.479
60469W        W26900  39.822  32.129   2.719
60470W        W26901  22.000  42.478   3.708
60471W        W26902  23.214  30.570   2.114
60472W        W26903   6.308  10.678  14.221
60473W        W26904   8.360  24.259   3.677
60474W        W26905   9.236  44.415  10.612
60475W        W26906   0.792   4.808   4.648
60476W        W26907  36.034  20.656   0.552
60477W        W26908  42.052   7.238  13.148
60478W        W26909  25.947  10.848  11.646
60479W        W26910  15.556  11.651  11.126
60480W        W26911  34.725  12.833   4.449
60481W        W26912  37.591  20.525   0.949
60482W        W26913  21.642   7.914   1.013
60483W        W26914   2.453  10.584  14.906
60484W        W26915   8.098  28.478   0.578
60485W        W26916   3.453  37.564  13.825
60486W        W26917  18.537  38.242   5.000
60487W        W26918  40.350  43.931   0.457
60488W        W26919  17.467  20.944   4.059
60489W        W26920  17.249   0.509   2.760
60490W        W26921  13.414   0.445   5.051
60491W        W26922  21.629  32.611   0.696
60492W        W26923  23.229   2.846  12.476
60493W        W26924  33.554  16.108  10.685
60494W        W26925  38.526  34.706  12.457
60495W        W26926  16.665  18.567  11.448
60496W        W26927  10.098  36.361  10.602
60497W        W26928   6.400   3.742  10.759
60498W        W26929   9.009  39.067   4.557
60499W        W26930  30.050  40.055  14.044
60500W        W26931  10.895   9.716   4.307
60501W        W26932  16.359  15.216   1.870
60502W        W26933  30.637  39.653  12.123
60503W        W26934  27.213  37.063  10.749
60504W        W26935   0.626  31.544  14.204
60505W        W26936  32.091  21.529   0.593
60506W        W26937  37.290  28.995  14.007
60507W        W26938  44.111  20.218   4.075
60508W        W26939  39.511   9.966  13.007
60509W        W26940  23.546  22.023   4.273
60510W        W26941  34.959   8.243   1.635
60511W        W26942  26.437  21.848   1.442
60512W        W26943   2.217  26.260  13.738
60513W        W26944  10.815  27.169   4.098
60514W        W26945  30.547  24.015   1.911
60515W        W26946  14.585   6.805   2.855
60516W        W26947  17.193  35.849  10.445
60517W        W26948  20.186   1.440   2.839
60518W        W26949  10.114   3.235   4.777
60519W        W26950   8.138  43.874   3.770
60520W        W26951  43.510   3.628   0.857
60521W        W26952  18.972  16.033  10.959
60522W        W26953  42.742  20.086   1.849
60523W        W26954   8.825  32.442  10.376
60524W        W26955  21.715  11.602   1.857
60525W        W26956  13.592   3.842  14.902
60526W        W26957  32.506   4.759   3.791
60527W        W26958   9.308  28.958  13.472
60528W        W26959   9.281  19.229  13.721
60529W        W26960  37.277  24.525  12.054
60530W        W26961  29.902   2.717  14.022
60531W        W26962   0.556  12.727   3.307
60532W        W26963  21.142  33.615  12.285
60533W        W26964  30.042  34.560   3.327
60534W        W26965  32.146  11.750  14.989
60535W        W26966  44.712  21.219   0.891
60536W        W26967  37.294  23.314  11.584
60537W        W26968  14.508  11.308  13.064
60538W        W26969   7.673   2.220   2.277
60539W        W26970  11.904   4.287   0.448
60540W        W26971   5.165   6.490  11.960
60541W        W26972  38.663   3.745   2.606
60542W        W26973  15.783  26.521  12.099
60543W        W26974  35.984  36.464  14.066
60544W        W26975  11.781  18.622   1.804
60545W        W26976  43.233  10.851  14.225
60546W        W26977  42.575  33.513  12.979
60547W        W26978   4.579   9.665  11.367
60548W        W26979  42.340  37.826  10.927
60549W        W26980  37.024  35.658   3.400
60550W        W26981  27.188  33.878   3.156
60551W        W26982  42.644  43.524   5.037
60552W        W26983  14.844  23.863  12.180
60553W        W26984  39.767  16.995  14.382
60554W        W26985  15.102  23.146  12.032
60555W        W26986  44.818  28.542   4.835
60556W        W26987   4.885  23.716  10.724
60557W        W26988  14.859  22.128  14.101
60558W        W26989  13.657  15.604  10.484
60559W        W26990  43.300  44.329  12.582
60560W        W26991  43.074  32.418   3.829
60561W        W26992  35.157  10.453  13.960
60562W        W26993  23.557  27.254   3.532
60563W        W26994  41.672  42.966  14.956
60564W        W26995  29.718   0.872  12.137
60565W        W26996  43.960  40.796  14.722
60566W        W26997  42.028  29.095  11.143
60567W        W26998  26.288  33.193   4.782
60568W        W26999  12.171   9.338  11.849
60569W        W27000  34.640  24.888  12.954
60570W        W27001   2.457  31.941  13.008
60571W        W27002   3.651  43.439   2.813
60572W        W27003  24.477  43.339   0.323
60573W        W27004  29.366  28.179  11.566
60574W        W27005  14.719  43.248   3.659
60575W        W27006  19.595  15.597   0.908
60576W        W27007  37.154  29.117   9.896
60577W        W27008   2.299   2.229  10.559
60578W        W27009   3.842   1.392  13.175
60579W        W27010   9.909  28.001  10.663
60580W        W27011  25.752  44.129  11.313
60581W        W27012  44.429  39.041   1.383
60582W        W27013   5.415  39.903  14.192
60583W        W27014  39.855  28.129   4.455
60584W        W27015  16.341  12.590  11.974
60585W        W27016  35.826   1.253  11.486
60586W        W27017  12.150  25.027   0.662
60587W        W27018  23.309   6.186   0.788
60588W        W27019  34.788  12.010   0.958
60589W        W27020  33.496  13.694  13.418
60590W        W27021  30.642  25.980   2.125
60591W        W27022  27.771  42.689  12.024
60592W        W27023  23.663  28.519  11.217
60593W        W27024  37.858  27.204  11.168
60594W        W27025  14.985   0.372  13.378
60595W        W27026  43.412  18.075   1.773
60596W        W27027  42.005  18.013  12.381
60597W        W27028  15.860  33.349   0.718
60598W        W27029  32.127   1.943  11.698
60599W        W27030  24.104  41.714  13.799
60600W        W27031  41.974  34.899   2.333
60601W        W27032  39.417  11.700  13.471
60602W        W27033  16.180  19.536   1.280
60603W        W27034  30.959  10.223   2.268
60604W        W27035   4.302  24.804  10.539
60605W        W27036  22.097  18.564  13.940
60606W        W27037  11.038  10.337  12.442
60607W        W27038  28.881  12.624   4.141
60608W        W27039  32.595  11.359  14.831
60609W        W27040  22.858  14.521   4.462
60610W        W27041  33.996  33.372  14.755
60611W        W27042  31.284   4.343   0.092
60612W        W27043  44.936  23.414   4.050
60613W        W27044  21.532  38.357  12.037
60614W        W27045  18.962  11.687  11.879
60615W        W27046   7.326  42.490  11.102
60616W        W27047   1.010  23.414  13.159
60617W        W27048  24.546   5.692   1.662
60618W        W27049  12.861  28.987   4.403
60619W        W27050  21.704  15.214   3.248
60620W        W27051  42.765  37.512   0.247
60621W        W27052   6.874  21.479   4.733
60622W        W27053  41.930  29.425   4.916
60623W        W27054  16.430   9.207   2.381
60624W        W27055  33.162  44.511  14.455
60625W        W27056  17.055  34.692  12.799
60626W        W27057  12.462   0.228   3.685
60627W        W27058  30.615  31.874   1.340
60628W        W27059   5.046  22.028  14.842
60629W        W27060  23.283  43.305  11.969
60630W        W27061   6.810  26.039  12.704
60631W        W27062  16.587   7.328   0.031
60632W        W27063  33.902  33.649   0.856
60633W        W27064  16.278  38.499  12.117
60634W        W27065  13.077  32.421  14.309
60635W        W27066  16.807  14.335   1.346
60636W        W27067  24.519  39.073  11.083
60637W        W27068   0.682  44.019  11.183
60638W        W27069  21.188  20.731   3.725
60639W        W27070  34.378  26.482   4.868
60640W        W27071  44.910  28.047   1.329
60641W        W27072  31.614  38.978  12.945
60642W        W27073  35.737  33.838   1.015
60643W        W27074  13.391   7.613   1.250
60644W        W27075  27.894  43.548  13.787
60645W        W27076  23.472  28.427   0.869
60646W        W27077  20.646  33.040  10.472
60647W        W27078  24.982   0.952  12.243
60648W        W27079   2.258  14.777   2.801
60649W        W27080  17.089  29.009   4.876
60650W        W27081  29.877  10.169   1.163
60651W        W27082  18.793  21.990  12.100
60652W        W27083  19.056   4.186   1.989
60653W        W27084  28.054   1.015   1.624
60654W        W27085  15.679  14.179   5.281
60655W        W27086  40.271  22.042  14.839
60656W        W27087  31.073   3.504   2.084
60657W        W27088  38.646  36.739   1.853
60658W        W27089  26.710  35.885   0.623
60659W        W27090  37.352  24.217   3.264
60660W        W27091  13.707  28.025  12.443
60661W        W27092  20.037  29.299   3.622
60662W        W27093   2.462  28.959   1.354
60663W        W27094   8.361  25.468  14.396
60664W        W27095  19.893  21.980   1.406
60665W        W27096  33.683   8.109  11.075
60666W        W27097  16.026  11.186   1.801
60667W        W27098   1.462  38.201   2.431
60668W        W27099  37.363  36.466  10.788
60669W        W27100   8.108  14.303   4.087
60670W        W27101   4.720  18.300  12.182
60671W        W27102  17.034  41.000  12.376
60672W        W27103  31.961  36.431   3.569
60673W        W27104  21.298  34.928  11.732
60674W        W27105  17.515  37.140  11.169
60675W        W27106  43.519   1.028  10.752
60676W        W27107   7.394  30.381  14.470
60677W        W27108  25.293   6.775   3.740
60678W        W27109  41.860  38.955  14.563
60679W        W27110  42.533  44.508  11.908
60680W        W27111   7.942   6.626   0.324
60681W        W27112  29.100  19.862   1.131
60682W        W27113  19.521   2.518  11.175
60683W        W27114  27.485  16.574  14.327
60684W        W27115  17.072  34.064  11.481
60685W        W27116  34.465  17.722   1.140
60686W        W27117  36.199  19.130  14.700
60687W        W27118   3.013  22.752  12.344
60688W        W27119  37.900  14.411   1.518
60689W        W27120   4.803  39.865  13.543
60690W        W27121   5.220   6.270  14.402
60691W        W27122   7.255  20.264  12.369
60692W        W27123  24.146  39.860  13.811
60693W        W27124   2.565  22.656   1.735
60694W        W27125  17.729  28.459  14.051
60695W        W27126  36.882  26.712  12.110
60696W        W27127  24.762  44.291  14.465
60697W        W27128  40.615  12.780  12.087
60698W        W27129  27.927  30.622   1.784
60699W        W27130  33.850  12.110  13.396
60700W        W27131  29.746  21.022  10.753
60701W        W27132   0.744  31.160   2.972
60702W        W27133  35.770   0.459  14.628
60703W        W27134  17.638  44.326   1.290
60704W        W27135   3.243   5.698   3.923
60705W        W27136  29.102  33.814  13.565
60706W        W27137  14.354  21.752  12.037
60707W        W27138  43.922   1.096   0.848
60708W        W27139  34.430  19.967   2.219
60709W        W27140   2.034  36.799   1.857
60710W        W27141  20.143  21.236  10.056
60711W        W27142  14.577  34.925   0.999
60712W        W27143  37.449  25.481   2.368
60713W        W27144   3.455  30.719   2.596
60714W        W27145   1.713  22.560   0.128
60715W        W27146  28.490  14.170  14.878
60716W        W27147  27.483  21.040   4.561
60717W        W27148  28.264  13.732   4.491
60718W        W27149  17.166  44.564   0.001
60719W        W27150  31.014   8.688   4.924
60720W        W27151   5.489   4.582  13.161
60721W        W27152   8.183  32.868   4.337
60722W        W27153  10.261  42.483   0.631
60723W        W27154  41.116   2.235   0.579
60724W        W27155  19.700  13.163  14.759
60725W        W27156  31.896  24.566   0.434
60726W        W27157  21.044  44.921  11.430
60727W        W27158  23.864   9.065   4.816
60728W        W27159  15.049  42.884   3.915
60729W        W27160  18.840  25.598   2.844
60730W        W27161  21.034  35.520  10.609
60731W        W27162  30.929  15.907  11.717
60732W        W27163  10.445  10.680   4.154
60733W        W27164  26.414  28.021  11.625
60734W        W27165  38.356  42.442   4.138
60735W        W27166   0.248  19.138   1.003
60736W        W27167   9.323  12.182   2.438
60737W        W27168  22.763  38.154   3.761
60738W        W27169  40.234   5.325   2.277
60739W        W27170   9.390   0.401  14.559
60740W        W27171  27.582  29.852  13.857
60741W        W27172   7.722  20.827  11.015
60742W        W27173   6.228  44.066  10.680
60743W        W27174  35.964  42.708  14.414
60744W        W27175  28.645  43.806   3.622
60745W        W27176   7.419  20.016  10.110
60746W        W27177  12.283   5.685  13.701
60747W        W27178  36.652  36.520   3.746
60748W        W27179  44.320  32.591   2.773
60749W        W27180   1.008  15.660   3.194
60750W        W27181  29.188   3.209   0.767
60751W        W27182  21.691  40.545  12.400
60752W        W27183   9.903   1.907   1.394
60753W        W27184   4.708   4.155  12.781
60754W        W27185   8.871  35.638   3.250
60755W        W27186   8.906  42.298  12.037
60756W        W27187   0.065  30.041  12.577
60757W        W27188  34.054  27.433   2.204
60758W        W27189   1.689  39.345   0.895
60759W        W27190  29.061  36.912   1.915
60760W        W27191  35.617  35.432   1.191
60761W        W27192   9.128  33.441  11.240
60762W        W27193   4.459  28.361   4.620
60763W        W27194  34.150  37.587  12.578
60764W        W27195  26.946  10.429  14.753
60765W        W27196  25.462  31.356  13.532
60766W        W27197  25.652   9.973  13.870
60767W        W27198  29.438  35.797  11.165
60768W        W27199  15.595  42.967   2.000
60769W        W27200  35.668   5.690  14.892
60770W        W27201  37.343  34.919   1.303
60771W        W27202  41.597   4.170  11.729
60772W        W27203  22.615  10.885   4.395
60773W        W27204  30.294  26.641   1.364
60774W        W27205  21.265  30.863   2.696
60775W        W27206   9.028  28.114   0.918
60776W        W27207  15.983  12.251   4.007
60777W        W27208  32.371   4.911  14.571
60778W        W27209  18.779  12.846  12.536
60779W        W27210  39.458  38.741   1.054
60780W        W27211  11.159  13.933  12.163
60781W        W27212  23.735  11.803   0.271
60782W        W27213  42.785  20.806   0.506
60783W        W27214  11.404   1.996  10.709
60784W        W27215  32.209  23.521  13.010
60785W        W27216  16.805  11.747   1.825
60786W        W27217  35.397  42.824   2.684
60787W        W27218   8.208  22.033  10.652
60788W        W27219   5.471   8.424   1.249
60789W        W27220  12.108  35.633  10.714
60790W        W27221  33.053  12.081  10.745
60791W        W27222   0.944  28.082   1.454
60792W        W27223  12.815  37.109   2.238
60793W        W27224  19.608  35.324   1.390
60794W        W27225   2.956  37.985  14.404
60795W        W27226  10.479  15.614   4.570
60796W        W27227   8.417  17.029   3.638
60797W        W27228  31.117  22.755   0.296
60798W        W27229  21.582  13.630  10.590
60799W        W27230  37.990  13.324  11.177
60800W        W27231  40.787  25.586   4.054
60801W        W27232  39.419  28.491   1.829
60802W        W27233  23.614   1.843  10.563
60803W        W27234  29.056  44.471   0.565
60804W        W27235  21.204  31.255  12.904
60805W        W27236   3.756  10.289   4.688
60806W        W27237  25.607  19.775   0.318
60807W        W27238  13.551  10.666   0.771
60808W        W27239  42.691  16.013  11.984
60809W        W27240  15.603  14.196   9.811
60810W        W27241  42.225  28.920   1.725
60811W        W27242  34.587  25.258  13.735
60812W        W27243  35.757   2.387  13.839
60813W        W27244  13.320  39.216  10.848
60814W        W27245  16.373  22.269   0.779
60815W        W27246  16.544  12.994   1.031
60816W        W27247  14.777   2.826  13.095
60817W        W27248   1.012  31.537  12.383
60818W        W27249  23.261  12.873   0.495
60819W        W27250  27.860  14.814  12.941
60820W        W27251  18.666  18.124  10.666
60821W        W27252  21.057  14.410   3.197
60822W        W27253  19.790   0.176   2.257
60823W        W27254  11.066  11.796  11.193
60824W        W27255  17.018  41.490  13.722
60825W        W27256   8.351   0.882   3.241
60826W        W27257  21.881  25.213  11.505
60827W        W27258  19.243  19.767   4.703
60828W        W27259   0.462   9.372   4.463
60829W        W27260  20.490  33.980   3.853
60830W        W27261  27.982  33.160   3.297
60831W        W27262  24.062  29.921  12.639
60832W        W27263   8.446  30.525   4.096
60833W        W27264  38.321  29.937   4.450
60834W        W27265  36.316  24.041  12.672
60835W        W27266   7.309  36.709  12.564
60836W        W27267   5.380   9.660  11.591
60837W        W27268  40.557  11.237  10.545
60838W        W27269   9.291   4.770  13.304
60839W        W27270  40.874  32.743   0.248
60840W        W27271   8.385  26.357  13.475
60841W        W27272  18.001  13.982  11.617
60842W        W27273  10.780  33.933  14.893
60843W        W27274  38.447  42.981   4.108
60844W        W27275   1.798  13.669  14.346
60845W        W27276   7.792  15.299   1.255
60846W        W27277  44.446  29.707   1.380
60847W        W27278  29.421  14.203  13.761
60848W        W27279  11.225  27.196   3.197
60849W        W27280  34.647  10.342   3.638
60850W        W27281  35.367  20.890  12.531
60851W        W27282  44.840  25.671   4.336
60852W        W27283   6.303  11.813  13.836
60853W        W27284  43.353  38.519   4.103
60854W        W27285   9.373  34.495  10.730
60855W        W27286  33.388  29.610   3.722
60856W        W27287   7.089  18.600  14.371
60857W        W27288   5.272  10.749   3.707
60858W        W27289   8.678   6.849   1.908
60859W        W27290  34.416   4.859   1.846
60860W        W27291  36.113  20.279   3.329
60861W        W27292  16.557  26.643   2.287
60862W        W27293  42.139   1.075   4.614
60863W        W27294  11.905  18.265  12.928
60864W        W27295  19.241  15.588   0.412
60865W        W27296  18.335  15.805  14.489
60866W        W27297  33.911  27.005   2.721
60867W        W27298  32.626  41.529  12.572
60868W        W27299  23.096  33.467   0.920
60869W        W27300  25.013  20.885  14.459
60870W        W27301   6.380  38.910   1.471
60871W        W27302  37.853  32.548   4.094
60872W        W27303   4.130  42.398   1.554
60873W        W27304   6.698  43.738  10.750
60874W        W27305  26.597  18.225  12.864
60875W        W27306  27.474  26.783  11.997
60876W        W27307  20.738  15.006   1.929
60877W        W27308  12.097  38.641  12.048
60878W        W27309  17.811  24.046  14.740
60879W        W27310  44.233  11.860  10.960
60880W        W27311  31.277  10.214   2.789
60881W        W27312  22.452  28.692  12.075
60882W        W27313  24.599  20.734   1.098
60883W        W27314  33.241  15.567  13.454
60884W        W27315  33.578   2.608  13.366
60885W        W27316  27.579   7.414  14.435
60886W        W27317  43.386  10.359   4.457
60887W        W27318  34.266  29.182   2.793
60888W        W27319  13.190  43.044  13.446
60889W        W27320  22.031  40.078  14.731
60890W        W27321  40.657  24.053  12.051
60891W        W27322  26.183  33.822   0.546
60892W        W27323  26.797  17.576  12.683
60893W        W27324  26.231  33.548   1.461
60894W        W27325  28.749  33.498   2.691
60895W        W27326  29.101  42.660   3.665
60896W        W27327  22.275  11.750  10.581
60897W        W27328   1.475  26.966   3.821
60898W        W27329  19.512   6.435   3.735
60899W        W27330   0.116   9.118   1.366
60900W        W27331  34.176  35.583   3.228
60901W        W27332  14.111  40.425   2.720
60902W        W27333   5.672  27.692   3.073
60903W        W27334   4.795   2.548  12.432
60904W        W27335  34.167  16.387   0.907
60905W        W27336   5.252  35.236  13.134
60906W        W27337  33.177  23.478  12.023
60907W        W27338  40.470  33.058   4.728
60908W        W27339  22.540  34.823   1.958
60909W        W27340  34.868  42.936  13.403
60910W        W27341  14.176  43.303  13.391
60911W        W27342  44.531  20.544   1.001
60912W        W27343  27.255  44.148  12.278
60913W        W27344   2.852  42.738  12.633
60914W        W27345  19.576  31.277   3.652
60915W        W27346  37.909  30.369   1.750
60916W        W27347  20.600  24.245   3.245
60917W        W27348   3.350   5.231   3.729
60918W        W27349  22.510  35.612   4.056
60919W        W27350   4.878  31.084   2.208
60920W        W27351  17.535  31.195  12.601
60921W        W27352  19.514  12.795   1.623
60922W        W27353  38.267   4.769  10.307
60923W        W27354  23.645  14.113  14.957
60924W        W27355  15.096  11.563  12.199
60925W        W27356  42.595   1.967   4.802
60926W        W27357  32.013  27.726   2.378
60927W        W27358  19.938  35.874  12.513
60928W        W27359   5.781  34.807  11.857
60929W        W27360  18.076   1.929   0.519
60930W        W27361  44.566  22.042   1.309
60931W        W27362  16.072  43.336  14.463
60932W        W27363   8.161  29.062   2.371
60933W        W27364  20.605  20.699   4.599
60934W        W27365  32.938  13.699  13.433
60935W        W27366  38.871   3.322  14.182
60936W        W27367  42.073  19.792  14.900
60937W        W27368  20.093  33.175  13.510
60938W        W27369  32.287  11.375   0.318
60939W        W27370  20.547   5.404  10.676
60940W        W27371  39.360  34.247   0.754
60941W        W27372  43.678  10.162  12.396
60942W        W27373  25.489   3.741   2.240
60943W        W27374  44.518  11.375   4.653
60944W        W27375  20.535  44.005  11.966
60945W        W27376  28.087  17.673   0.137
60946W        W27377  18.128   2.245  12.329
60947W        W27378  26.255  36.494  12.375
60948W        W27379   1.367  20.681  10.698
60949W        W27380  31.075  37.861   0.850
60950W        W27381  41.743  35.927  14.483
60951W        W27382  23.536  27.937  13.892
60952W        W27383  43.589   8.830  12.874
60953W        W27384  22.988  11.454   1.443
60954W        W27385  35.421   4.386  11.103
60955W        W27386  19.801  26.494  12.969
60956W        W27387   7.794  12.167  14.835
60957W        W27388  23.036  12.021   4.981
60958W        W27389  19.064  22.310  11.592
60959W        W27390  37.395  44.851  12.163
60960W        W27391  37.750  10.687   0.819
60961W        W27392  34.367   0.138   0.080
60962W        W27393  33.119   4.059  13.337
60963W        W27394  43.657   1.304   3.117
60964W        W27395  28.533  41.726  11.599
60965W        W27396  12.255  17.095  14.033
60966W        W27397  32.129  15.121   4.759
60967W        W27398  32.946  18.565   0.606
60968W        W27399   0.751  10.893  11.657
60969W        W27400  21.989  19.999  13.610
60970W        W27401  24.668  37.656   3.121
60971W        W27402  25.285  29.368  10.260
60972W        W27403  30.616   4.646   1.981
60973W        W27404  17.615  25.116   2.545
60974W        W27405  29.534   6.429  12.322
60975W        W27406  28.042  24.039   2.827
60976W        W27407  38.378   8.271   0.056
60977W        W27408  38.602   7.798  13.100
60978W        W27409  34.541  27.488  11.151
60979W        W27410  27.609  31.100   0.041
60980W        W27411   9.774  30.174  12.092
60981W        W27412  21.871  26.575   0.021
60982W        W27413  39.992  18.696   0.770
60983W        W27414  33.050   1.700  12.576
60984W        W27415  38.289  31.531   3.717
60985W        W27416  15.528  39.002   4.097
60986W        W27417  41.020   9.890  11.223
60987W        W27418  26.596  27.053   2.336
60988W        W27419  40.059  17.851  10.685
60989W        W27420  12.785  41.045   1.897
60990W        W27421   9.251  40.768   0.575
60991W        W27422  21.798  18.427  10.616
60992W        W27423  13.224  39.642   2.591
60993W        W27424   3.246  38.388   0.924
60994W        W27425   7.526   1.460  12.413
60995W        W27426  36.969  23.170  10.813
60996W        W27427  14.862  13.267  12.745
60997W        W27428  14.861   3.053  12.621
60998W        W27429  24.072  35.406   4.036
60999W        W27430  40.659  29.280  11.069
61000W        W27431  35.531   2.407   1.766
61001W        W27432  27.970  17.582   1.611
61002W        W27433  36.305  34.999   3.051
61003W        W27434  11.236   9.260   3.410
61004W        W27435  30.918  14.222   0.711
61005W        W27436  29.716  12.381   3.908
61006W        W27437  19.672  43.867   0.364
61007W        W27438  38.520  44.845  12.438
61008W        W27439   5.192  21.470   0.277
61009W        W27440  25.904  38.949  14.713
61010W        W27441   5.456  19.130   0.951
61011W        W27442  34.778  43.761  12.347
61012W        W27443  44.817  30.076   0.246
61013W        W27444  44.723  34.628  14.359
61014W        W27445   8.691  26.640   2.595
61015W        W27446  42.496   2.005  12.974
61016W        W27447  10.727  19.577  12.525
61017W        W27448  14.808  28.732  12.987
61018W        W27449  41.900   4.860  14.271
61019W        W27450  13.875  32.391  12.970
61020W        W27451  33.636  37.647   4.331
61021W        W27452  34.314   7.507  14.405
61022W        W27453  27.078  26.051   2.955
61023W        W27454   9.887  18.814   3.193
61024W        W27455  15.580  31.397   3.190
61025W        W27456  13.177  18.514   3.268
61026W        W27457  35.755   7.212  12.981
61027W        W27458  38.434   5.126   3.225
61028W        W27459  19.094  33.796   1.147
61029W        W27460   6.324  16.518  14.012
61030W        W27461  41.454  38.165  13.410
61031W        W27462  39.240  22.036   0.991
61032W        W27463  14.124  32.663  13.485
61033W        W27464  21.482  18.164   5.028
61034W        W27465  13.693  13.602  14.925
61035W        W27466  38.804  43.141  10.919
61036W        W27467  27.906  29.083  12.081
61037W        W27468  34.987  27.397   4.038
61038W        W27469  19.279  27.653   2.313
61039W        W27470  23.028  14.811  14.312
61040W        W27471  38.192  17.129   2.370
61041W        W27472  37.348  15.606   2.673
61042W        W27473  44.635  20.103   4.130
61043W        W27474  29.338  25.005   4.343
61044W        W27475  10.284  26.223   1.380
61045W        W27476   3.388   3.183  11.920
61046W        W27477  12.624  37.451  10.693
61047W        W27478  43.485  33.944   0.081
61048W        W27479  31.414  24.815   2.359
61049W        W27480  41.396  36.915   0.401
61050W        W27481  34.604  15.591   4.781
61051W        W27482  21.463  30.684   3.574
61052W        W27483   8.335  21.987   3.306
61053W        W27484  41.196  23.122   1.342
61054W        W27485  40.473   9.646   1.329
61055W        W27486  22.531  38.886   3.237
61056W        W27487  23.754  42.414  14.365
61057W        W27488  15.655   2.462   1.859
61058W        W27489   6.740  35.926   4.202
61059W        W27490  35.921  32.010   3.597
61060W        W27491  18.931  42.435  10.627
61061W        W27492  44.779  44.957   3.624
61062W        W27493  16.675  24.085   2.828
61063W        W27494  37.965  32.098   0.907
61064W        W27495   6.374  13.033  14.426
61065W        W27496  19.251   1.818  11.688
61066W        W27497  42.006  31.066  12.570
61067W        W27498   3.651  22.008  14.173
61068W        W27499   4.472   5.129   1.646
61069W        W27500  22.494  15.208  12.487
61070W        W27501  41.471  19.637   3.746
61071W        W27502  26.575   9.206   4.523
61072W        W27503  11.556   8.933  12.594
61073W        W27504  14.211  16.129   5.018
61074W        W27505  44.590  34.562  13.316
61075W        W27506  24.766   6.418   0.946
61076W        W27507  35.328   5.906  11.490
61077W        W27508  17.943  40.932  10.658
61078W        W27509  29.535   9.526   4.269
61079W        W27510  13.771  44.534  11.637
61080W        W27511   5.152  43.722   3.846
61081W        W27512   1.295  39.882   1.381
61082W        W27513  27.440  31.171   1.424
61083W        W27514  44.291  12.830  12.941
61084W        W27515  34.165   5.176  13.464
61085W        W27516  32.495   2.926  13.443
61086W        W27517   0.788  32.190   3.143
61087W        W27518  17.776  43.349  13.815
61088W        W27519  36.118  14.198  10.469
61089W        W27520  18.335  30.151  12.602
61090W        W27521  19.407  31.784   4.080
61091W        W27522  13.836  33.914   0.212
61092W        W27523  26.931  35.427  13.845
61093W        W27524  22.289   6.673   4.230
61094W        W27525  30.815   1.296   0.383
61095W        W27526  44.089  13.027   2.040
61096W        W27527  17.679  24.421  12.003
61097W        W27528  36.098  24.203  11.629
61098W        W27529   8.268  22.021  11.678
61099W        W27530  22.168  29.183   4.124
61100W        W27531   3.741   9.890   3.303
61101W        W27532  13.057  28.313  12.909
61102W        W27533  16.838  27.396   4.457
61103W        W27534  39.410  15.368   1.363
61104W        W27535   2.410  26.663  13.993
61105W        W27536   1.736   5.673   4.358
61106W        W27537  21.018  11.054  10.633
61107W        W27538   0.768   1.260  10.676
61108W        W27539  40.589  14.639   2.693
61109W        W27540  18.568   8.112   4.757
61110W        W27541  13.414  34.466   0.898
61111W        W27542   9.685  36.794   2.625
61112W        W27543  38.450  33.647  11.078
61113W        W27544  23.594  28.616  11.716
61114W        W27545  11.649  37.336   4.176
61115W        W27546   9.374  34.628   2.219
61116W        W27547  43.728  19.335   2.893
61117W        W27548   5.154   1.280   2.168
61118W        W27549  14.792  38.570   3.238
61119W        W27550  13.651  35.019  13.537
61120W        W27551   8.679  37.483  13.645
61121W        W27552   9.441   3.198   4.233
61122W        W27553  13.687   9.113   1.729
61123W        W27554  35.502  16.667  14.058
61124W        W27555  42.572   2.745  14.463
61125W        W27556  11.426  36.981   1.646
61126W        W27557  41.499  29.609  11.266
61127W        W27558  25.484  40.338   2.258
61128W        W27559  21.663  18.848  13.845
61129W        W27560   3.895  19.831  12.001
61130W        W27561   0.380  10.779  10.894
61131W        W27562  26.602   0.500   3.693
61132W        W27563  25.989  22.500   3.189
61133W        W27564   8.877  30.897   3.395
61134W        W27565  36.323  26.656  10.351
61135W        W27566  12.852  38.699   1.598
61136W        W27567  13.562   1.190   1.582
61137W        W27568  19.797  34.446  12.621
61138W        W27569   0.334  37.129   0.448
61139W        W27570  13.613  32.348   0.922
61140W        W27571  25.484  43.006  11.171
61141W        W27572   9.685  16.702   2.489
61142W        W27573  43.891  28.966   0.270
61143W        W27574  11.321  27.314  11.610
61144W        W27575  35.421   1.678  13.661
61145W        W27576  25.010  27.059   5.384
61146W        W27577  23.138  21.638   2.077
61147W        W27578   1.471  30.520  12.811
61148W        W27579  33.604  37.219  10.126
61149W        W27580  43.066  32.747   3.158
61150W        W27581  42.367   5.910  12.465
61151W        W27582  34.295  34.973  11.977
61152W        W27583  31.293  22.712   9.839
61153W        W27584  15.442  31.246  11.645
61154W        W27585  24.675  30.621  10.102
61155W        W27586  22.342   2.498   0.994
61156W        W27587  30.628  36.335   2.298
61157W        W27588  44.927  10.684  14.862
61158W        W27589  35.248  36.184   3.789
61159W        W27590  30.168  41.548  13.077
61160W        W27591  30.946  44.717  13.869
61161W        W27592  17.265  28.391  13.823
61162W        W27593  13.809  33.011   0.286
61163W        W27594  43.467  40.443   3.574
61164W        W27595  16.992  36.314   1.368
61165W        W27596  21.025  24.617  12.877
61166W        W27597  12.988  13.788  13.293
61167W        W27598  28.336  10.863   4.048
61168W        W27599  44.263   4.612  14.992
61169W        W27600   8.446   3.221   3.380
61170W        W27601   0.908   5.788  10.727
61171W        W27602  35.208  40.341   0.316
61172W        W27603  33.142  12.189   0.269
61173W        W27604   4.073  25.426  11.670
61174W        W27605  11.697  19.074  12.833
61175W        W27606  42.580  23.256   2.792
61176W        W27607  21.679   8.104  12.457
61177W        W27608   7.444   9.714  12.571
61178W        W27609  22.240  43.785  14.107
61179W        W27610  19.848   5.643  12.608
61180W        W27611  20.084  30.396  12.471
61181W        W27612   1.299   4.333   0.744
61182W        W27613  16.073  20.429   3.389
61183W        W27614  13.799  17.983   1.285
61184W        W27615  31.392  24.646   0.309
61185W        W27616  29.613  30.901   5.091
61186W        W27617   8.882   2.367  13.267
61187W        W27618  37.422   8.605  11.523
61188W        W27619  38.338  26.970  11.125
61189W        W27620   4.678  41.941  12.302
61190W        W27621  11.642   1.058   0.683
61191W        W27622  30.471   9.091  10.199
61192W        W27623  22.077  15.887   1.846
61193W        W27624  34.740  18.297  11.183
61194W        W27625  23.096  33.166  11.868
61195W        W27626  37.421  10.649   3.754
61196W        W27627  25.710  36.019   0.899
61197W        W27628  31.555  24.576   3.804
61198W        W27629  42.809  26.135  13.478
61199W        W27630  12.932  20.592  11.492
61200W        W27631  14.077  22.844   2.488
61201W        W27632  32.670   6.128   2.260
61202W        W27633  44.705  15.112   2.845
61203W        W27634   1.890  14.069   2.731
61204W        W27635  15.799   2.433   3.210
61205W        W27636  44.866  24.868   3.668
61206W        W27637  41.100  25.596   0.777
61207W        W27638  10.213   7.316  13.444
61208W        W27639  14.499  26.571   4.119
61209W        W27640  43.954  26.965  11.742
61210W        W27641  19.509   9.273   2.234
61211W        W27642   1.969  18.064  10.741
61212W        W27643  21.526  29.854  14.909
61213W        W27644  13.780  40.090   0.369
61214W        W27645  10.267  40.467   2.839
61215W        W27646  16.534  22.280   1.290
61216W        W27647  22.712  36.694  12.437
61217W        W27648   6.615  33.955  11.342
61218W        W27649  40.981  36.038  13.245
61219W        W27650  43.420   2.164   4.579
61220W        W27651  21.340  17.249  13.840
61221W        W27652  29.207  15.751   3.996
61222W        W27653   4.241  18.693  12.444
61223W        W27654  29.179  20.752  14.918
61224W        W27655   7.144  16.829  12.871
61225W        W27656   1.297  36.123  13.022
61226W        W27657   0.749  44.816  12.900
61227W        W27658   5.236  44.132  10.369
61228W        W27659  38.111  15.591  12.570
61229W        W27660  15.058  25.677  10.091
61230W        W27661  22.031  35.308   0.308
61231W        W27662   2.715  26.248  13.849
61232W        W27663  18.530  31.193   0.680
61233W        W27664  33.601  17.627   3.094
61234W        W27665  24.698  34.530  12.148
61235W        W27666  39.279  39.988  13.485
61236W        W27667  25.279  21.631  12.196
61237W        W27668  31.239  39.919  10.775
61238W        W27669  26.425  30.843   5.438
61239W        W27670  10.588  31.414  13.732
61240W        W27671  42.072  34.540  13.495
61241W        W27672  30.916   6.247   2.774
61242W        W27673  16.622  23.531   4.162
61243W        W27674   8.945   5.380  12.455
61244W        W27675   2.195  14.383   0.237
61245W        W27676  13.562  33.464   0.120
61246W        W27677  37.882  24.476   3.363
61247W        W27678   5.148  21.624   4.065
61248W        W27679  37.722  12.496   0.786
61249W        W27680  13.631   7.876   0.812
61250W        W27681  33.829  38.565  13.205
61251W        W27682  13.147  24.058  13.794
61252W        W27683  42.383  15.358   0.325
61253W        W27684  19.009   0.950  14.538
61254W        W27685  25.805  29.021   5.074
61255W        W27686  38.015  38.337  12.531
61256W        W27687  14.594  18.258   4.601
61257W        W27688  26.469  21.745  13.063
61258W        W27689   4.460  31.947   2.265
61259W        W27690  34.973  44.962   1.587
61260W        W27691  44.871  40.101   2.902
61261W        W27692   4.510   2.297  11.163
61262W        W27693  12.733  24.116   2.819
61263W        W27694  12.735  14.221   2.441
61264W        W27695  10.121  35.820   4.453
61265W        W27696   2.430   1.756   3.759
61266W        W27697  20.173   5.414  13.953
61267W        W27698   6.459  19.212   2.172
61268W        W27699  22.815  27.635  11.412
61269W        W27700   3.592  32.439  14.375
61270W        W27701  14.078  13.833   0.699
61271W        W27702   4.301  36.357  12.533
61272W        W27703   6.163  33.634  12.647
61273W        W27704  35.371  32.542  11.076
61274W        W27705   3.131  30.756  11.213
61275W        W27706  39.860  37.984   3.780
61276W        W27707  15.940   1.467  13.092
61277W        W27708  44.786  14.323  10.598
61278W        W27709  26.701   2.044   3.938
61279W        W27710  11.263  21.033  13.826
61280W        W27711   6.316  13.035   2.908
61281W        W27712   0.503  33.078   3.212
61282W        W27713   7.250  26.684  13.250
61283W        W27714  12.833  16.090  12.476
61284W        W27715  28.679  10.734  10.706
61285W        W27716  19.041  20.057   2.961
61286W        W27717  32.060  25.134  14.400
61287W        W27718  34.833  28.196  13.368
61288W        W27719  39.426  22.587   2.738
61289W        W27720   7.195  27.659  10.493
61290W        W27721  26.165  15.072  10.761
61291W        W27722  12.121  43.433  11.544
61292W        W27723  40.848  23.200  13.821
61293W        W27724  35.569  30.178  11.797
61294W        W27725  23.495  23.722   4.768
61295W        W27726  37.938   5.915   1.962
61296W        W27727   9.424  26.252  11.757
61297W        W27728  27.160   0.586  13.864
61298W        W27729  24.987   7.066   1.670
61299W        W27730  17.201  18.805  12.371
61300W        W27731  30.007  43.213  13.503
61301W        W27732   5.321  26.228  13.487
61302W        W27733  21.329  18.212   3.347
61303W        W27734  10.965  14.824  11.553
61304W        W27735   6.262  26.190  12.509
61305W        W27736  43.750  27.576   0.444
61306W        W27737  35.838   7.298   3.136
61307W        W27738  12.637  40.980   1.380
61308W        W27739  18.178  29.987   4.723
61309W        W27740  29.576  40.963  10.467
61310W        W27741   3.222  28.365  11.440
61311W        W27742   9.778  37.522  11.074
61312W        W27743  43.338  36.087   1.305
61313W        W27744  36.607  28.942  12.835
61314W        W27745   3.417   7.158   1.385
61315W        W27746  23.283   3.204  13.026
61316W        W27747  42.836  37.833   0.857
61317W        W27748  17.773  11.850  13.559
61318W        W27749  10.162  13.739  11.457
61319W        W27750  34.314  37.152  13.914
61320W        W27751  39.838  43.029   0.368
61321W        W27752  32.101   4.241  14.063
61322W        W27753  42.993  33.074   0.519
61323W        W27754  14.408  38.059   4.918
61324W        W27755  38.600  33.180   1.617
61325W        W27756  27.735  37.535   2.684
61326W        W27757  41.423   9.733  12.864
61327W        W27758   3.195   2.329  11.599
61328W        W27759  27.176  13.243   0.338
61329W        W27760  22.507   1.281   3.613
61330W        W27761  30.153  13.273   4.255
61331W        W27762   9.291   1.669  11.042
61332W        W27763   3.418  31.465  10.540
61333W        W27764  15.367   7.333  11.048
61334W        W27765   0.455  11.140  13.956
61335W        W27766  35.697   7.833   4.534
61336W        W27767  28.642   1.190  14.814
61337W        W27768  24.129  20.942   4.987
61338W        W27769  33.891  28.002   0.793
61339W        W27770  19.127   6.324  12.622
61340W        W27771  39.193  22.693  14.379
61341W        W27772  18.664   5.995   4.597
61342W        W27773  23.665  14.808  12.766
61343W        W27774  10.665  29.710  12.996
61344W        W27775   3.312  28.908   3.178
61345W        W27776  41.085  15.199   2.217
61346W        W27777  39.773  25.035  14.782
61347W        W27778  31.060  12.033   2.851
61348W        W27779  43.016  10.257  14.909
61349W        W27780  21.886  14.076   2.911
61350W        W27781  16.794  30.089   1.490
61351W        W27782   0.266  34.662  10.642
61352W        W27783  18.861  23.812   3.597
61353W        W27784  25.928  13.675   1.677
61354W        W27785  29.138  23.767  14.050
61355W        W27786  16.000  24.686  12.556
61356W        W27787  38.195   5.998  14.219
61357W        W27788  34.495  37.579   0.166
61358W        W27789  28.355  32.285  11.073
61359W        W27790   6.119   5.363   1.750
61360W        W27791  19.351  28.171   3.312
61361W        W27792  31.615   4.897  13.072
61362W        W27793  44.982   6.874  12.880
61363W        W27794  39.897  22.721   4.707
61364W        W27795  33.398   2.431   2.785
61365W        W27796  13.113   7.671   2.611
61366W        W27797  37.896  14.737  14.466
61367W        W27798  34.920  34.791   2.687
61368W        W27799  43.121  21.212  13.107
61369W        W27800   2.866  12.661  12.705
61370W        W27801  22.968  10.186   3.251
61371W        W27802  25.619  11.156  14.226
61372W        W27803  28.776  33.758   1.375
61373W        W27804  26.217  39.914  11.309
61374W        W27805  25.899   8.956  13.882
61375W        W27806  33.139  18.586  14.092
61376W        W27807  40.606  11.371  14.422
61377W        W27808  34.116  18.069   4.252
61378W        W27809  19.595  15.104   2.720
61379W        W27810  16.029  37.604  10.701
61380W        W27811  32.322  12.139  11.358
61381W        W27812  32.037  21.194  10.315
61382W        W27813  24.552  34.799  12.571
61383W        W27814  42.901  16.567   4.234
61384W        W27815   2.668  28.912  11.656
61385W        W27816  27.875  11.900   4.137
61386W        W27817   3.455  10.925   4.181
61387W        W27818  27.079  31.656   2.008
61388W        W27819  40.184  29.763   0.673
61389W        W27820  18.604   7.795  11.666
61390W        W27821  33.606  43.729   2.802
61391W        W27822  28.486   3.216   2.900
61392W        W27823  30.434  12.172  11.485
61393W        W27824  38.651   3.275   2.849
61394W        W27825  10.039  18.426  10.254
61395W        W27826   4.897   9.668  13.601
61396W        W27827  28.452   1.978  14.909
61397W        W27828  23.579  16.368   1.662
61398W        W27829  14.575  29.718   1.151
61399W        W27830   1.811  16.078  11.842
61400W        W27831  30.351  16.159   4.797
61401W        W27832   9.618  10.741  11.413
61402W        W27833  13.842  44.192   4.717
61403W        W27834  17.814   5.954   1.839
61404W        W27835  28.614  35.864  12.093
61405W        W27836  16.634  41.595  14.319
61406W        W27837  36.542  26.428   1.760
61407W        W27838  35.135  17.075   0.335
61408W        W27839  17.530  40.961   4.201
61409W        W27840  25.226  22.409  12.880
61410W        W27841  41.693  41.668  12.749
61411W        W27842   7.215  25.906  11.916
61412W        W27843  41.510  28.122  12.105
61413W        W27844   4.612  23.696  11.174
61414W        W27845  32.181   0.648  13.246
61415W        W27846  40.110   1.732   0.396
61416W        W27847   3.887  18.963  11.602
61417W        W27848  38.514   6.990  10.735
61418W        W27849   7.814  27.083  12.384
61419W        W27850   3.380  39.078  13.457
61420W        W27851  38.761  17.024  12.025
61421W        W27852  24.140  12.670  12.668
61422W        W27853  21.627  33.463  12.274
61423W        W27854  16.716  31.873  12.096
61424W        W27855  11.766  10.192   4.694
61425W        W27856   0.252   7.979  13.372
61426W        W27857  34.774   1.955   0.935
61427W        W27858   7.456  32.666  13.895
61428W        W27859  25.784   7.395  11.757
61429W        W27860   1.905  24.294   4.170
61430W        W27861  15.536   0.767   0.738
61431W        W27862   3.308  37.956  10.642
61432W        W27863   8.419  19.652   3.199
61433W        W27864  34.573  43.757   1.528
61434W        W27865   0.911   9.279  12.649
61435W        W27866  27.758  26.946   2.194
61436W        W27867  19.942   8.623   1.720
61437W        W27868  33.229   8.826  11.190
61438W        W27869  16.601  36.324   2.786
61439W        W27870  21.545  23.105   4.239
61440W        W27871  20.167   2.369   1.170
61441W        W27872  13.781  11.138   3.342
61442W        W27873  39.341  38.795  14.918
61443W        W27874  27.580  29.372   3.794
61444W        W27875  17.543   3.854   4.207
61445W        W27876  24.481  39.019   3.779
61446W        W27877  27.053  12.050   0.366
61447W        W27878  15.815  31.095   1.422
61448W        W27879   8.738  18.153   0.992
61449W        W27880  44.775  43.232  12.841
61450W        W27881  37.510  18.320  11.490
61451W        W27882  25.896  10.215  13.457
61452W        W27883   1.412  16.972  13.846
61453W        W27884  39.570  42.477   4.685
61454W        W27885  29.124  20.815  13.893
61455W        W27886  34.206  42.322  11.266
61456W        W27887  21.120  13.362  11.908
61457W        W27888  17.174  41.680  10.751
61458W        W27889  23.228  20.735   1.880
61459W        W27890  31.103  37.025   2.273
61460W        W27891  19.632  21.088  13.038
61461W        W27892   7.384  36.426   2.837
61462W        W27893  19.242  14.802   3.377
61463W        W27894   5.856  30.045  12.430
61464W        W27895  36.091   2.409   0.813
61465W        W27896  39.094   5.864   3.661
61466W        W27897  16.084  27.666   4.264
61467W        W27898  28.939   2.784  11.301
61468W        W27899  41.763  15.612  14.307
61469W        W27900   6.467  25.025  14.505
61470W        W27901  44.988  39.499  14.369
61471W        W27902  34.056  43.627   2.171
61472W        W27903   2.219   6.886   4.142
61473W        W27904  24.451  20.241   1.873
61474W        W27905  11.402  25.456   3.697
61475W        W27906   5.435  37.001  12.473
61476W        W27907  36.760  27.645  10.756
61477W        W27908  15.671  41.654  13.480
61478W        W27909  11.083  37.486  12.517
61479W        W27910  11.342  43.464   0.011
61480W        W27911   3.204  36.636  14.917
61481W        W27912  30.957  34.028  11.280
61482W        W27913  33.809  41.518   0.378
61483W        W27914   5.749  36.306  13.960
61484W        W27915  39.297  20.733  10.705
61485W        W27916  40.448  14.562   1.685
61486W        W27917   0.441  30.442  10.779
61487W        W27918   6.828  20.614  12.431
61488W        W27919  34.377  13.071   3.179
61489W        W27920  17.528  38.857   0.162
61490W        W27921  24.782  15.740   3.594
61491W        W27922  17.690  16.195  12.003
61492W        W27923  29.779  33.536   2.772
61493W        W27924  22.926  34.000   2.286
61494W        W27925  10.231  42.964   2.333
61495W        W27926  42.913  16.562  13.650
61496W        W27927  32.409  13.144  14.814
61497W        W27928  20.752  14.343  11.100
61498W        W27929  36.981  10.169   4.354
61499W        W27930  21.990  38.199  12.968
61500W        W27931   6.521  10.744   2.398
61501W        W27932  28.966   4.150  11.110
61502W        W27933   8.371  17.607  10.130
61503W        W27934   7.412  21.964  11.652
61504W        W27935  21.032  38.807   0.488
61505W        W27936  27.098   1.497  13.872
61506W        W27937  33.723  37.516  10.545
61507W        W27938   7.279  28.641   1.707
61508W        W27939  10.124   5.263  13.935
61509W        W27940  16.367  25.427   2.870
61510W        W27941  13.898   6.194  13.722
61511W        W27942  35.609  31.578  14.546
61512W        W27943  31.537   1.483  12.541
61513W        W27944  44.391  42.344  10.444
61514W        W27945   3.722  40.734  14.573
61515W        W27946  28.042  29.936   4.593
61516W        W27947  38.115  15.147   4.684
61517W        W27948  38.012   5.415   4.077
61518W        W27949  27.678  14.268   1.259
61519W        W27950  25.579   7.749   2.703
61520W        W27951   6.257  41.093   2.504
61521W        W27952   8.815  39.085  12.481
61522W        W27953  10.850   4.783   2.637
61523W        W27954  34.887   2.366  11.232
61524W        W27955   9.113  35.616  14.292
61525W        W27956  17.945  17.260  13.418
61526W        W27957  31.660  40.290  14.561
61527W        W27958   6.219  24.610   1.802
61528W        W27959  23.124  15.937  11.559
61529W        W27960  11.787   9.703  10.690
61530W        W27961  21.593  11.942   1.434
61531W        W27962  30.962  37.086  14.491
61532W        W27963  44.269  13.830   4.562
61533W        W27964  10.204  10.148  12.581
61534W        W27965  42.996  19.098  11.298
61535W        W27966   6.497  24.155   4.542
61536W        W27967  27.177  37.924  14.730
61537W        W27968  19.980  18.337  10.223
61538W        W27969  10.485  34.312   3.651
61539W        W27970   7.638  20.444  11.912
61540W        W27971  36.103  30.981   1.652
61541W        W27972  13.645  13.801   0.417
61542W        W27973  40.444  16.626   0.751
61543W        W27974  30.791   3.265   2.435
61544W        W27975  22.686   9.704  12.524
61545W        W27976  12.482   3.889  10.629
61546W        W27977  18.710  15.701   3.182
61547W        W27978   2.717  36.888  14.720
61548W        W27979   6.364   6.678   1.373
61549W        W27980  21.846  36.396  10.656
61550W        W27981  30.804  41.124   1.681
61551W        W27982  11.303  30.151   0.183
61552W        W27983  27.930  24.760   0.500
61553W        W27984  19.455   8.660  12.435
61554W        W27985  15.739   2.654   1.231
61555W        W27986   1.453  27.193  13.491
61556W        W27987  23.997   4.222  12.509
61557W        W27988  21.507  36.561   2.407
61558W        W27989  41.313  25.261  12.644
61559W        W27990  35.887   9.097   4.089
61560W        W27991  14.353   7.621  14.335
61561W        W27992  41.740   5.364   3.161
61562W        W27993  23.188  32.012   3.669
61563W        W27994   7.699  26.131  12.639
61564W        W27995  16.207  32.643  12.197
61565W        W27996   9.761  33.081   0.822
61566W        W27997  12.551   0.659   1.028
61567W        W27998  13.864   7.416  14.428
61568W        W27999  36.921  35.389  11.646
61569W        W28000   6.128  18.569   4.879
61570W        W28001  22.127  23.692   4.517
61571W        W28002  37.353  21.273   9.839
61572W        W28003  15.387   9.720   0.394
61573W        W28004  17.146   5.703   0.414
61574W        W28005   8.854  43.006  10.651
61575W        W28006  13.852  20.515  13.810
61576W        W28007  38.104   4.300  12.077
61577W        W28008   1.315  13.616   1.951
61578W        W28009  29.899  29.523  14.747
61579W        W28010   2.759  28.428  11.637
61580W        W28011  24.801  25.181  12.512
61581W        W28012  43.551   6.955  12.951
61582W        W28013   8.722  43.850  10.691
61583W        W28014  31.819  17.571   0.218
61584W        W28015   6.935  14.715   3.314
61585W        W28016  34.515   4.487  11.527
61586W        W28017  42.933  34.445  13.978
61587W        W28018  32.916  33.947  11.344
61588W        W28019  33.989  37.859  11.603
61589W        W28020  26.727  23.234   2.043
61590W        W28021  25.630   5.506   2.952
61591W        W28022  14.296   6.125  10.607
61592W        W28023  15.300   6.635  12.249
61593W        W28024  23.133  36.832  12.667
61594W        W28025   0.365   4.225   0.327
61595W        W28026  40.076  31.635   0.935
61596W        W28027  24.941   3.904  12.939
61597W        W28028  31.801  36.972  13.442
61598W        W28029   9.329  10.306  11.870
61599W        W28030   2.364  35.036   0.414
61600W        W28031  22.877  17.391   2.374
61601W        W28032  10.519  12.760   4.802
61602W        W28033  22.280  31.160  14.029
61603W        W28034  23.930   1.837   1.231
61604W        W28035  33.520  24.531   0.952
61605W        W28036  26.728   7.289   2.297
61606W        W28037  18.144  37.333   0.940
61607W        W28038   8.421  25.181   0.229
61608W        W28039   6.239  36.750  14.791
61609W        W28040   8.441  44.996  12.923
61610W        W28041  38.472  43.340  13.516
61611W        W28042  18.603  39.509   5.737
61612W        W28043  30.254  32.530   0.689
61613W        W28044  44.953  39.461   0.301
61614W        W28045  23.651  19.278   4.472
61615W        W28046  29.420   9.308  10.979
61616W        W28047  17.297  31.323  13.133
61617W        W28048  30.900  21.817  13.224
61618W        W28049   0.428  20.303   4.397
61619W        W28050   7.444  23.353  14.934
61620W        W28051  10.716  21.989   3.276
61621W        W28052  37.163   8.623   1.804
61622W        W28053  34.148  13.793   2.658
61623W        W28054  24.142  19.007  10.735
61624W        W28055  25.289  37.605   2.814
61625W        W28056  31.515  24.960  13.746
61626W        W28057   6.971  31.220   1.786
61627W        W28058  23.759   0.983  14.369
61628W        W28059  28.027  25.963   2.554
61629W        W28060  27.022  38.088   2.201
61630W        W28061  15.199  44.489   0.921
61631W        W28062  33.576   5.452   4.568
61632W        W28063   6.816  10.375   1.528
61633W        W28064   7.256  13.097   4.730
61634W        W28065  34.517  10.157  12.342
61635W        W28066  27.660  43.862   3.652
61636W        W28067  19.728  36.354   3.176
61637W        W28068  25.241  31.637   2.750
61638W        W28069  28.233  43.413   2.274
61639W        W28070  17.818  15.572  13.191
61640W        W28071  33.582  24.758   4.214
61641W        W28072  31.259   2.750   0.771
61642W        W28073  22.938  16.714   3.097
61643W        W28074  18.242  26.226  12.567
61644W        W28075   4.562   5.883   1.322
61645W        W28076   0.036  22.537  12.511
61646W        W28077  15.601  10.975   1.581
61647W        W28078  26.084  12.164  11.452
61648W        W28079  33.612  36.052   1.691
61649W        W28080  22.475  36.626   2.359
61650W        W28081  11.613  14.931   1.809
61651W        W28082  15.315  30.545  11.567
61652W        W28083  25.320  35.406  14.856
61653W        W28084  10.757  32.447   0.273
61654W        W28085  22.205  25.949   4.704
61655W        W28086  40.785  35.880   1.141
61656W        W28087  28.082  44.541   1.794
61657W        W28088  28.995  36.599   2.312
61658W        W28089  24.851  10.476   4.063
61659W        W28090   8.772  38.982   1.064
61660W        W28091  22.816  23.000  10.190
61661W        W28092  10.786   8.145   1.003
61662W        W28093   9.743  14.096  12.600
61663W        W28094  14.334  24.674   2.368
61664W        W28095  19.214  35.998   0.863
61665W        W28096  41.076   5.405   2.344
61666W        W28097  25.073  36.081   2.805
61667W        W28098  43.028  32.269   3.337
61668W        W28099  12.801  14.116   4.427
61669W        W28100   5.259  23.395   1.924
61670W        W28101  10.715  42.360  10.618
61671W        W28102   5.837  38.564  12.144
61672W        W28103  34.891  43.201   0.296
61673W        W28104  25.108  40.947  10.605
61674W        W28105   2.766  38.144  13.455
61675W        W28106   5.165  20.018   1.003
61676W        W28107  15.639  29.754   0.797
61677W        W28108  18.924  13.085   0.909
61678W        W28109  25.606  15.819  11.139
61679W        W28110  29.066  10.888  12.340
61680W        W28111  31.406   9.206  13.080
61681W        W28112  28.948  41.296  10.549
61682W        W28113  12.836  41.569  12.978
61683W        W28114  11.739  37.363  11.718
61684W        W28115  21.861   2.956   1.727
61685W        W28116  32.379  44.392   0.748
61686W        W28117  29.082  28.511  13.520
61687W        W28118  15.719   0.250  12.702
61688W        W28119  21.114  26.964   3.059
61689W        W28120  31.669  25.721  13.400
61690W        W28121  23.497  16.025   4.159
61691W        W28122  20.642  10.291  13.869
61692W        W28123  13.672  24.424   1.302
61693W        W28124  19.091  15.810   5.034
61694W        W28125   6.656   2.055   2.901
61695W        W28126  39.929  42.644  11.610
61696W        W28127  12.209   6.161   2.709
61697W        W28128   3.838  44.731   0.866
61698W        W28129   3.859  28.117   2.880
61699W        W28130   8.180  24.565  13.806
61700W        W28131  29.601  10.941   4.097
61701W        W28132  40.920  33.129  12.954
61702W        W28133  17.269  44.317  10.762
61703W        W28134  17.575   8.002   0.778
61704W        W28135  31.460  16.734  14.928
61705W        W28136  30.612  44.222  11.110
61706W        W28137  35.323  14.715  14.331
61707W        W28138  18.240  37.559   2.701
61708W        W28139  39.509  11.555   4.461
61709W        W28140   9.280   2.550  11.537
61710W        W28141  34.485  16.337   0.373
61711W        W28142   8.712  10.625   3.973
61712W        W28143  12.830   8.347  13.795
61713W        W28144  29.381  13.480   0.927
61714W        W28145  13.193  44.570  13.406
61715W        W28146  18.579  14.537  14.894
61716W        W28147  30.732  24.667   1.404
61717W        W28148  19.046  44.569   3.372
61718W        W28149   6.898  39.072   1.431
61719W        W28150  41.227  38.933   0.969
61720W        W28151  35.492   7.689  10.933
61721W        W28152  43.601  18.286   2.207
61722W        W28153  39.439   3.538   4.453
61723W        W28154  44.834   4.193   2.404
61724W        W28155  34.511  31.050   2.936
61725W        W28156  19.178  19.762  13.365
61726W        W28157  29.619  43.870   1.035
61727W        W28158   3.632  26.953  11.974
61728W        W28159  33.591   1.284   3.793
61729W        W28160  34.878  10.728   1.931
61730W        W28161   6.664  31.908  11.178
61731W        W28162  18.755   0.754  13.335
61732W        W28163  24.308   9.945   3.766
61733W        W28164   1.511   0.852  14.417
61734W        W28165  11.558  11.154   3.765
61735W        W28166   2.806  26.657   1.025
61736W        W28167   4.260  26.477  14.324
61737W        W28168  37.116  11.336  12.961
61738W        W28169   2.121  39.577  13.541
61739W        W28170  31.075  17.528   0.856
61740W        W28171  31.465  27.211   3.930
61741W        W28172  43.850   0.417   2.571
61742W        W28173  13.406  21.675   4.163
61743W        W28174  22.577  24.227  13.381
61744W        W28175  28.937  15.292   4.812
61745W        W28176  39.885   1.401  10.323
61746W        W28177  32.937  40.537  11.873
61747W        W28178  44.231  37.727  12.032
61748W        W28179  36.075  11.150   0.835
61749W        W28180   1.216  23.639   2.650
61750W        W28181  10.785  27.911  13.403
61751W        W28182  22.882  14.171   1.912
61752W        W28183  15.155   1.236  12.416
61753W        W28184  35.369  44.392   2.803
61754W        W28185  19.667  44.539   4.064
61755W        W28186  43.196  21.438  10.965
61756W        W28187  17.263  19.634   2.797
61757W        W28188   9.855  39.574   4.374
61758W        W28189  38.308   2.256  13.824
61759W        W28190  22.244  34.003   4.574
61760W        W28191  41.877   8.345  11.228
61761W        W28192  43.719   6.275   0.351
61762W        W28193  27.974  15.836   4.058
61763W        W28194   9.762  21.351  13.435
61764W        W28195  16.210   1.383   1.123
61765W        W28196  20.980  33.293   2.115
61766W        W28197  41.942  33.889  13.744
61767W        W28198  29.998  27.077  14.045
61768W        W28199  30.848  15.548  14.262
61769W        W28200  11.375  18.203  12.876
61770W        W28201  37.048  42.837  10.804
61771W        W28202  44.869   2.374  11.708
61772W        W28203   7.444  44.417  14.028
61773W        W28204   9.750  20.248   3.259
61774W        W28205  36.706  10.264   1.817
61775W        W28206  12.863  43.248  11.726
61776W        W28207  43.958  27.485   3.211
61777W        W28208  38.995  13.160  14.380
61778W        W28209  11.302  17.526  10.675
61779W        W28210   4.378  15.631  10.612
61780W        W28211  41.500   9.451   0.726
61781W        W28212  17.215  16.590  11.171
61782W        W28213  24.567  18.628   1.337
61783W        W28214  19.740  16.476   2.787
61784W        W28215  20.120  42.647   0.293
61785W        W28216  14.125  17.046   0.577
61786W        W28217  31.658  25.697   1.021
61787W        W28218  24.543   0.097   1.275
61788W        W28219  34.946  38.908  10.634
61789W        W28220  13.019  20.721   3.933
61790W        W28221   9.977  20.439   4.609
61791W        W28222  15.205   2.233  12.609
61792W        W28223  30.955  14.176  10.642
61793W        W28224  31.393  16.697  10.577
61794W        W28225   6.769  13.865   0.862
61795W        W28226  29.620  13.321  13.510
61796W        W28227  15.591   6.740   2.601
61797W        W28228  30.134  13.005   1.863
61798W        W28229  43.780  18.553  12.969
61799W        W28230  12.957  35.998  12.759
61800W        W28231  10.565  43.130   0.378
61801W        W28232  30.834   4.432  14.872
61802W        W28233  30.580  18.142  11.377
61803W        W28234   5.284  22.768  12.579
61804W        W28235  10.015   9.688   0.782
61805W        W28236   8.866  18.026   4.597
61806W        W28237  35.000  15.138  12.011
61807W        W28238  23.695  19.167   3.102
61808W        W28239  17.832  28.151   0.376
61809W        W28240  33.219  43.741  12.339
61810W        W28241  30.667  27.684  14.829
61811W        W28242  19.257  30.908   1.732
61812W        W28243  25.667  14.575   4.111
61813W        W28244  37.550  19.799  11.698
61814W        W28245  20.422   5.455   4.150
61815W        W28246   2.191  14.037   4.160
61816W        W28247   9.366  23.122  10.623
61817W        W28248  37.795  44.123   3.400
61818W        W28249   0.756  36.689   1.507
61819W        W28250  11.049  25.964  12.361
61820W        W28251  12.706  16.568   3.591
61821W        W28252  12.624  14.738   2.722
61822W        W28253  33.641   3.412   4.466
61823W        W28254  12.774  12.206   3.382
61824W        W28255  20.618  18.007   2.726
61825W        W28256  42.517  31.457  14.949
61826W        W28257  19.055  34.280   2.438
61827W        W28258  10.537  39.616  12.087
61828W        W28259  36.964  29.893  11.829
61829W        W28260  10.724   1.998  14.306
61830W        W28261  11.247  38.043   3.302
61831W        W28262  30.095  14.152  13.386
61832W        W28263  44.046  11.315   5.007
61833W        W28264  13.221  19.457   5.019
61834W        W28265  20.786   2.412   3.909
61835W        W28266  42.207  19.664  11.409
61836W        W28267  32.390  13.104  12.120
61837W        W28268  11.102  32.380   0.849
61838W        W28269   1.659   9.245   3.554
61839W        W28270   9.694  39.883   1.678
61840W        W28271  37.576  22.741   0.004
61841W        W28272  24.926  16.609  14.963
61842W        W28273  12.154  29.374   0.847
61843W        W28274   8.612  41.809  14.570
61844W        W28275  27.063  11.016   0.245
61845W        W28276  17.242  31.580   3.654
61846W        W28277  25.128  25.721   3.557
61847W        W28278  34.181  24.593   2.223
61848W        W28279   6.489  35.870  12.926
61849W        W28280  41.885   6.688   5.007
61850W        W28281   9.134  32.323   5.176
61851W        W28282  43.977  12.739  11.699
61852W        W28283  24.194  29.411   0.191
61853W        W28284  37.717  25.431   3.267
61854W        W28285  33.972  11.278   3.239
61855W        W28286  42.058   3.620   3.704
61856W        W28287  40.068  25.308   4.543
61857W        W28288  25.296   1.351  10.584
61858W        W28289  19.337  23.641  14.381
61859W        W28290  19.659   9.887  10.475
61860W        W28291   5.629  23.203  14.313
61861W        W28292  22.162  38.051   4.583
61862W        W28293  11.348  16.905  11.210
61863W        W28294  17.236  21.745  12.652
61864W        W28295  31.999  38.312   0.825
61865W        W28296  41.656   1.592  11.142
61866W        W28297   2.823  33.418  13.488
61867W        W28298  38.733  37.471   3.890
61868W        W28299  27.515  44.038   1.260
61869W        W28300   6.919   8.390   4.227
61870W        W28301   2.713  33.862  13.752
61871W        W28302   3.358  22.033   2.775
61872W        W28303  29.920  44.098   0.697
61873W        W28304  10.849  18.616  13.520
61874W        W28305  17.160   6.222  11.600
61875W        W28306   2.540  14.764   3.637
61876W        W28307  11.560  40.404  12.979
61877W        W28308  39.888  25.749   4.715
61878W        W28309   9.247  32.959   3.413
61879W        W28310  17.490  10.740   2.887
61880W        W28311  33.498   2.872   0.975
61881W        W28312  21.260  34.453  11.973
61882W        W28313   6.836  38.528   4.629
61883W        W28314  30.159  27.925  13.344
61884W        W28315   6.510  11.468  12.493
61885W        W28316  17.588  27.328  12.893
61886W        W28317  44.498  28.573   3.414
61887W        W28318  24.545   1.411   3.262
61888W        W28319  13.179   0.971  13.104
61889W        W28320  12.605   8.324   0.071
61890W        W28321  31.022  28.904   2.753
61891W        W28322  14.954  12.807  11.721
61892W        W28323  15.750  17.544   0.096
61893W        W28324  15.237  21.119   2.516
61894W        W28325  32.440  39.374  10.548
61895W        W28326   6.345   9.403  13.469
61896W        W28327  37.068  16.284   1.947
61897W        W28328  35.069  39.404  14.725
61898W        W28329  30.405   8.558   2.034
61899W        W28330  18.058  12.587   3.198
61900W        W28331  31.137  25.105  13.384
61901W        W28332  35.555  15.968   4.528
61902W        W28333   0.832   5.545   0.317
61903W        W28334   3.889  14.300  11.517
61904W        W28335   7.710  19.384   3.366
61905W        W28336  10.312  27.754   0.416
61906W        W28337  10.833  36.611   2.105
61907W        W28338  30.374  43.875   2.780
61908W        W28339  43.885   0.384   3.091
61909W        W28340   2.774  17.640   2.685
61910W        W28341  11.995  15.140   0.480
61911W        W28342  24.751  34.935   2.324
61912W        W28343  14.871  13.459   4.997
61913W        W28344  38.510   1.923   2.462
61914W        W28345  29.576   4.041  12.920
61915W        W28346  22.190  11.939  12.968
61916W        W28347   7.447  42.112  13.155
61917W        W28348  21.019  39.858  12.848
61918W        W28349   3.175  44.067   4.219
61919W        W28350  28.095  35.481   2.106
61920W        W28351  26.138   8.768   2.632
61921W        W28352  20.871  32.543  13.270
61922W        W28353  23.727  28.954  14.061
61923W        W28354  36.476   0.447  10.734
61924W        W28355  42.830  15.466  11.977
61925W        W28356   8.332  29.623   1.167
61926W        W28357  27.380  33.743  13.058
61927W        W28358  43.112  33.060  14.042
61928W        W28359  12.372  35.467   3.028
61929W        W28360  32.771  24.103  13.118
61930W        W28361  43.306  10.632  11.498
61931W        W28362  14.811  34.165   3.717
61932W        W28363  36.538  24.959  14.392
61933W        W28364  38.008  21.472  14.054
61934W        W28365   3.904  18.600  13.056
61935W        W28366   6.748  19.279   3.159
61936W        W28367  16.616  30.459   4.689
61937W        W28368  26.545  32.580  12.456
61938W        W28369  27.497  13.155   3.101
61939W        W28370  43.351  37.169  12.022
61940W        W28371  43.493   6.410  14.873
61941W        W28372  42.985  18.995  12.677
61942W        W28373  36.338  34.270   0.618
61943W        W28374  14.908  24.027  10.647
61944W        W28375  12.653   4.496   3.823
61945W        W28376  39.175  17.074   1.776
61946W        W28377   3.729  35.630   0.593
61947W        W28378   5.954  15.232   2.643
61948W        W28379   4.037  21.049  14.960
61949W        W28380  31.141  34.533  12.638
61950W        W28381  22.615  41.421   3.283
61951W        W28382  11.063   6.455  11.994
61952W        W28383   5.130  23.253  14.292
61953W        W28384  31.309  43.222  10.733
61954W        W28385  37.417  27.669   4.530
61955W        W28386   7.366  30.257   4.656
61956W        W28387  23.819  39.798   3.224
61957W        W28388  38.062  32.166  14.933
61958W        W28389  21.882  33.153   1.957
61959W        W28390   0.434  34.206   2.303
61960W        W28391  22.082   4.376  13.418
61961W        W28392  42.158  25.470   0.131
61962W        W28393  36.117   9.450   2.128
61963W        W28394   9.605   4.935  10.737
61964W        W28395   4.375  35.747  11.194
61965W        W28396  31.684  18.329   1.670
61966W        W28397  19.040  40.897  11.575
61967W        W28398  33.557  42.454  10.546
61968W        W28399  19.443  15.556  12.070
61969W        W28400  43.885   2.256  13.819
61970W        W28401  18.530  41.357   0.775
61971W        W28402  18.525  10.533   1.451
61972W        W28403  12.360  42.211  14.454
61973W        W28404  19.686  30.135  10.656
61974W        W28405  13.477  29.197  13.877
61975W        W28406  20.832  44.126  12.373
61976W        W28407  38.862   3.265  10.408
61977W        W28408  32.128   9.422  12.578
61978W        W28409   6.356   4.884   4.950
61979W        W28410  31.160  33.588  11.074
61980W        W28411  20.756   4.999  12.067
61981W        W28412  16.583  18.511  14.803
61982W        W28413   2.455   3.795   4.441
61983W        W28414  15.037  24.528   0.272
61984W        W28415  39.118  32.260  12.351
61985W        W28416   6.371  20.190   3.588
61986W        W28417  10.278  35.960  13.877
61987W        W28418  35.383  30.076   5.490
61988W        W28419   3.461  27.819  11.822
61989W        W28420   5.838  30.915  10.776
61990W        W28421   9.949  11.744   0.852
61991W        W28422  33.436   3.204  11.086
61992W        W28423   2.972   2.248  11.129
61993W        W28424  30.393   4.002  12.505
61994W        W28425  10.161  18.103   4.265
61995W        W28426  25.634  21.854  10.754
61996W        W28427  10.894  32.064  12.155
61997W        W28428   2.507   4.475   4.808
61998W        W28429  43.423  16.746  12.163
61999W        W28430  35.104  28.056  11.439
62000W        W28431  11.824  21.239   0.955
62001W        W28432  30.846   6.705  12.365
62002W        W28433  33.816  29.153   0.241
62003W        W28434   9.185   1.318   3.118
62004W        W28435  25.069  17.715  14.486
62005W        W28436  14.038  43.047  12.952
62006W        W28437  21.814  32.171  12.441
62007W        W28438  18.366  29.593  10.715
62008W        W28439   6.518  24.122  11.546
62009W        W28440   5.235  37.976   2.212
62010W        W28441   7.207  18.014  12.732
62011W        W28442  36.615  37.179   1.694
62012W        W28443  30.491  40.643   3.737
62013W        W28444   4.513  37.200  12.647
62014W        W28445  17.607   0.363  10.786
62015W        W28446  44.178   2.230  13.272
62016W        W28447   2.961  20.837   0.695
62017W        W28448  17.087   1.355  14.947
62018W        W28449  24.055   2.387  14.250
62019W        W28450  21.694  19.693  10.647
62020W        W28451   7.709  26.940   3.350
62021W        W28452  20.218   1.853   1.352
62022W        W28453  34.686  15.663   1.721
62023W        W28454   5.283   9.436  12.041
62024W        W28455  29.892  11.294   0.009
62025W        W28456  41.396   9.792   0.256
62026W        W28457  36.135  15.491  10.492
62027W        W28458  12.756   2.376   1.484
62028W        W28459  21.453  37.413   1.380
62029W        W28460  11.450  16.624  10.603
62030W        W28461   1.315  38.147  14.511
62031W        W28462  18.079   1.487  13.914
62032W        W28463   9.740   5.365  12.052
62033W        W28464  18.993  18.078   0.296
62034W        W28465   4.952  12.628  11.842
62035W        W28466   1.769  12.606  14.344
62036W        W28467   3.019  19.369   0.970
62037W        W28468  34.022  22.440  13.642
62038W        W28469  14.773  20.708   3.521
62039W        W28470  18.019  29.430  11.133
62040W        W28471  24.496   2.201  14.032
62041W        W28472  26.709  20.220   2.728
62042W        W28473   4.009  17.109   1.667
62043W        W28474  21.465  30.963  14.228
62044W        W28475   5.615  19.115  10.768
62045W        W28476  28.496  19.282  10.923
62046W        W28477   2.402  13.350  11.038
62047W        W28478  42.685  42.052  12.464
62048W        W28479  15.853  12.191   4.488
62049W        W28480  32.442  39.066   0.953
62050W        W28481   0.012   0.912   2.366
62051W        W28482   5.022  31.185  12.039
62052W        W28483  28.623   2.018  11.895
62053W        W28484  27.388  44.490  14.440
62054W        W28485  30.850   2.038   4.608
62055W        W28486  35.900  22.015  14.493
62056W        W28487  35.578  27.567   1.799
62057W        W28488  11.977  38.461  10.280
62058W        W28489  34.218   3.777   4.220
62059W        W28490  39.521  34.768   1.713
62060W        W28491  32.061  40.467  11.869
62061W        W28492  24.986  39.174   1.610
62062W        W28493  36.886  44.506   0.473
62063W        W28494  38.975  18.766  12.033
62064W        W28495  34.420  41.835   4.033
62065W        W28496   9.144  17.085  13.423
62066W        W28497  29.917   3.090   1.136
62067W        W28498   4.711  14.764   2.682
62068W        W28499  32.119  24.287   0.840
62069W        W28500  41.476  12.287   1.221
62070W        W28501  10.306  43.455   2.114
62071W        W28502  39.816  34.423  11.954
62072W        W28503  35.448  11.953  14.535
62073W        W28504  43.958  29.233   2.828
62074W        W28505  12.238  26.154   3.587
62075W        W28506  24.662  23.281  14.966
62076W        W28507  15.691  26.906   4.727
62077W        W28508  39.444   6.382   1.447
62078W        W28509  40.688   2.655  10.646
62079W        W28510  14.631  36.354   0.131
62080W        W28511   9.927   4.436   5.080
62081W        W28512  10.816  13.556  14.439
62082W        W28513  18.244   5.139   0.045
62083W        W28514  21.353  30.473   5.034
62084W        W28515  19.676  30.985   3.219
62085W        W28516  40.335  27.923   2.730
62086W        W28517  13.454   7.989   0.320
62087W        W28518   5.901  33.068  14.744
62088W        W28519  28.602   3.196   3.413
62089W        W28520  32.023  23.164   1.639
62090W        W28521  43.785  35.522  14.007
62091W        W28522  24.415  27.014  12.513
62092W        W28523  44.057  36.636   1.269
62093W        W28524  17.376  43.855  11.070
62094W        W28525  20.803  33.470  14.011
62095W        W28526   2.188  10.355   2.303
62096W        W28527   8.838  15.761  12.651
62097W        W28528  35.919  23.712  13.505
62098W        W28529  41.777  28.569  12.045
62099W        W28530   6.618   0.820  13.847
62100W        W28531  27.995   2.401   1.915
62101W        W28532   1.882   6.092   0.923
62102W        W28533  20.126  31.014  11.769
62103W        W28534  24.025  31.577  14.283
62104W        W28535  37.013  35.403   1.922
62105W        W28536  11.311  44.787  13.413
62106W        W28537  25.612  34.388  10.485
62107W        W28538  29.646  43.929  13.228
62108W        W28539  10.239  37.426   2.480
62109W        W28540  16.367  29.791   1.251
62110W        W28541   6.437   5.945  12.371
62111W        W28542  26.287   3.692  13.963
62112W        W28543   1.745  39.747  10.891
62113W        W28544  40.878  13.789   3.357
62114W        W28545  12.558  41.755  14.251
62115W        W28546  11.223   3.333   1.421
62116W        W28547   4.816  37.139   0.089
62117W        W28548   7.760  27.876   1.226
62118W        W28549  15.108  35.273  13.499
62119W        W28550  29.268  15.543  12.641
62120W        W28551  41.029   3.902  12.441
62121W        W28552  25.365  23.711  12.055
62122W        W28553  29.502   9.121   1.401
62123W        W28554  41.789  34.605  13.075
62124W        W28555  31.934   9.186  13.006
62125W        W28556   3.689   3.348  11.107
62126W        W28557  13.366   6.897   3.253
62127W        W28558  41.674  28.180  11.257
62128W        W28559   5.017  40.549  12.961
62129W        W28560   2.339   4.829  12.296
62130W        W28561  44.523  19.723   2.819
62131W        W28562  27.756  17.330   0.828
62132W        W28563  15.467  19.196  11.133
62133W        W28564  15.235  20.370  11.582
62134W        W28565  32.651   9.934   4.555
62135W        W28566  30.697  14.253  11.143
62136W        W28567  26.540  21.096  11.849
62137W        W28568   5.857  20.688  11.509
62138W        W28569  11.373  24.006  11.064
62139W        W28570   2.941  17.092   2.326
62140W        W28571  43.233  44.826   1.005
62141W        W28572  15.834   7.761  13.817
62142W        W28573  44.397  20.098   1.352
62143W        W28574  12.778   3.411   1.710
62144W        W28575   1.722   2.843   3.936
62145W        W28576   0.460  28.662   4.573
62146W        W28577  21.233  16.762  11.317
62147W        W28578  36.400  43.069   3.410
62148W        W28579  33.686   4.729   3.199
62149W        W28580   6.631  31.619  12.585
62150W        W28581  43.908  10.270  11.276
62151W        W28582  41.306   7.421  14.785
62152W        W28583  12.246   9.368   3.413
62153W        W28584  23.385  28.861  10.279
62154W        W28585  30.156  44.644   4.345
62155W        W28586  28.995  12.273   2.395
62156W        W28587  41.466   4.897  14.569
62157W        W28588  35.797  29.159   2.798
62158W        W28589  27.879  43.670   4.059
62159W        W28590  22.134  37.555  14.087
62160W        W28591  30.374  29.185  13.419
62161W        W28592  33.518  10.244   0.545
62162W        W28593  42.057  39.419   3.170
62163W        W28594  27.014  37.565   2.173
62164W        W28595   4.851   7.184   1.902
62165W        W28596  28.419  22.082  11.077
62166W        W28597  43.750  22.844   4.118
62167W        W28598   5.707  36.473  11.560
62168W        W28599   5.877  26.131  12.183
62169W        W28600   0.691  21.784   4.154
62170W        W28601  39.942  21.158   1.117
62171W        W28602  12.224  12.205   0.439
62172W        W28603  13.523  28.279   2.554
62173W        W28604   0.969  31.337  13.781
62174W        W28605  13.330  32.720  11.253
62175W        W28606  42.971  18.877  13.373
62176W        W28607  44.368  31.462   2.854
62177W        W28608  39.033  27.823  13.833
62178W        W28609  35.559  18.323   0.197
62179W        W28610  25.276   5.765  12.452
62180W        W28611  21.201  15.087  13.550
62181W        W28612  12.102  39.414   4.359
62182W        W28613   4.481  34.386  12.492
62183W        W28614  36.113  25.468   3.692
62184W        W28615  18.416  19.378   2.381
62185W        W28616  39.625  16.257  13.661
62186W        W28617  42.079  28.233   5.056
62187W        W28618   9.596  31.106   3.634
62188W        W28619  21.355  17.814   0.334
62189W        W28620  38.826  21.747   0.896
62190W        W28621  43.970  31.603   2.556
62191W        W28622  42.594  42.042   2.613
62192W        W28623  18.309  32.784  10.557
62193W        W28624   5.014   6.814  14.914
62194W        W28625  26.641  39.847  11.627
62195W        W28626   6.672  31.691  13.091
62196W        W28627   1.201  29.761   3.312
62197W        W28628   1.597   1.415  12.616
62198W        W28629  11.222  38.142   2.776
62199W        W28630  16.062  16.133  12.148
62200W        W28631  35.908  40.507   1.513
62201W        W28632  24.062  27.545   0.026
62202W        W28633  39.798  15.620   3.225
62203W        W28634   7.418  43.499  12.341
62204W        W28635  16.247  21.916   3.870
62205W        W28636  19.431  36.567   1.477
62206W        W28637  43.006   4.031  13.590
62207W        W28638  26.402   6.132   5.014
62208W        W28639   6.616  18.649  14.131
62209W        W28640  28.150  14.598   3.254
62210W        W28641  31.118   5.461   1.721
62211W        W28642  25.478  16.450  11.648
62212W        W28643  21.289  13.359   4.124
62213W        W28644   3.554  29.943  13.965
62214W        W28645   1.610  20.730  11.285
62215W        W28646  30.441  42.471  10.649
62216W        W28647  34.487  24.031  12.442
62217W        W28648  13.622   8.913  11.895
62218W        W28649  32.310  43.541   2.137
62219W        W28650  13.301   6.332  14.856
62220W        W28651   1.569  25.179   2.218
62221W        W28652   3.934   7.860   2.711
62222W        W28653   0.137  19.380   4.077
62223W        W28654   4.397  13.770   3.462
62224W        W28655  29.171  14.083   3.550
62225W        W28656  34.581  43.945  11.088
62226W        W28657  19.261  35.899   2.439
62227W        W28658  10.688   1.534   2.916
62228W        W28659  10.076  39.519   1.761
62229W        W28660   2.567  38.107  12.961
62230W        W28661  17.965   6.102   5.677
62231W        W28662  27.279  25.689  11.113
62232W        W28663  37.437  43.866   2.845
62233W        W28664  32.446  20.957   3.652
62234W        W28665  44.562  37.995   1.307
62235W        W28666  35.787  29.995   1.904
62236W        W28667  25.498  18.587  12.332
62237W        W28668  25.001  39.303  11.092
62238W        W28669  19.035   3.401   3.204
62239W        W28670  44.624  40.331   0.781
62240W        W28671  28.314   8.133  14.833
62241W        W28672   9.233  16.250  14.467
62242W        W28673  12.130  22.980  12.822
62243W        W28674  10.672  18.755  13.066
62244W        W28675  22.058  41.315  14.407
62245W        W28676  12.910  41.719   4.135
62246W        W28677  26.501  33.576   3.233
62247W        W28678  25.126  34.915   0.424
62248W        W28679  31.411  12.607   4.764
62249W        W28680  40.756  28.025  14.455
62250W        W28681  21.805  27.541  14.261
62251W        W28682  33.530  17.064   1.006
62252W        W28683  15.765   3.942  11.415
62253W        W28684  17.476  15.031   1.693
62254W        W28685  20.667  38.266  11.881
62255W        W28686  44.463  32.839   3.205
62256W        W28687   3.698  25.095  13.414
62257W        W28688   2.924  21.096   2.122
62258W        W28689  19.285  44.166   0.595
62259W        W28690  41.351  28.890  14.291
62260W        W28691  18.816  17.215  10.638
62261W        W28692   9.863   8.211   4.450
62262W        W28693  33.533  19.943  12.933
62263W        W28694  11.813  22.034   3.434
62264W        W28695  36.971  18.300   2.771
62265W        W28696   4.754  44.835  11.039
62266W        W28697  24.947  30.318  11.234
62267W        W28698  30.814   1.518   2.615
62268W        W28699  13.755  14.287   0.586
62269W        W28700  29.871   8.283  14.348
62270W        W28701  22.509  27.660   0.398
62271W        W28702  39.986  40.045   0.793
62272W        W28703  43.840  39.612   3.822
62273W        W28704  22.208  24.600   3.701
62274W        W28705  12.254   9.854   3.606
62275W        W28706  20.262  23.062  13.413
62276W        W28707  23.523   7.165   3.344
62277W        W28708  14.176  21.110   4.127
62278W        W28709   1.999  40.921  11.527
62279W        W28710  33.113   6.321  10.629
62280W        W28711   9.162   3.119   5.141
62281W        W28712  30.632  12.597  14.795
62282W        W28713  34.865  18.366   2.745
62283W        W28714  11.283  23.466   0.745
62284W        W28715  31.478  36.327  14.446
62285W        W28716  32.122  19.521   1.304
62286W        W28717   0.005  41.953   2.641
62287W        W28718   0.794   3.570   5.006
62288W        W28719  17.746   9.217  13.056
62289W        W28720  23.524  16.277  11.545
62290W        W28721  38.817   6.068   3.284
62291W        W28722   5.852  14.042   4.176
62292W        W28723  23.441  28.476  13.869
62293W        W28724  16.020   6.859  12.927
62294W        W28725  14.232  40.424  14.753
62295W        W28726  20.084   1.328  13.205
62296W        W28727   4.700   3.300  12.846
62297W        W28728  28.423   4.856  11.111
62298W        W28729  11.778  27.489   1.018
62299W        W28730  33.954  35.857  12.370
62300W        W28731  28.028  11.060   3.239
62301W        W28732  40.159   7.825   0.573
62302W        W28733   8.373  42.820  14.011
62303W        W28734   0.805  23.212  12.194
62304W        W28735  20.511  23.847  12.414
62305W        W28736  19.571  40.990  10.685
62306W        W28737  21.645  30.964  13.012
62307W        W28738   9.914  14.189   0.448
62308W        W28739  13.084   3.151   0.446
62309W        W28740  26.379  15.036   2.613
62310W        W28741  18.133  29.593  11.961
62311W        W28742  27.249   3.550   0.043
62312W        W28743  36.495  41.045  11.177
62313W        W28744  11.504  18.904   0.086
62314W        W28745  27.095  20.285  10.293
62315W        W28746   6.272  10.174  10.446
62316W        W28747   4.517  37.978  12.962
62317W        W28748  24.655  10.055  12.081
62318W        W28749  29.783  19.862  12.046
62319W        W28750  44.557  43.944  13.400
62320W        W28751  21.831  39.881   1.242
62321W        W28752  31.209  19.952   2.743
62322W        W28753  18.609  44.661   2.294
62323W        W28754   7.751  37.862  11.190
62324W        W28755   4.709  33.110  13.464
62325W        W28756  37.453  18.500   0.756
62326W        W28757  39.999  21.210   4.616
62327W        W28758  40.497  39.882   1.865
62328W        W28759  30.228  39.019  10.887
62329W        W28760  34.174  44.637   0.205
62330W        W28761   2.251   0.909  12.342
62331W        W28762  31.592   1.395   4.507
62332W        W28763   6.646  26.010   0.877
62333W        W28764   9.775  11.731  13.075
62334W        W28765  26.262  26.188  12.654
62335W        W28766  24.842  42.399   1.784
62336W        W28767  40.456   1.001  11.384
62337W        W28768  12.219  13.608   3.409
62338W        W28769  27.760  25.778  11.227
62339W        W28770   9.805  35.549   3.284
62340W        W28771  33.380  26.437  12.107
62341W        W28772  37.029   1.433   1.269
62342W        W28773  42.727  13.406   4.655
62343W        W28774  21.491   3.003   2.690
62344W        W28775  20.872  25.746   2.810
62345W        W28776   9.778  16.455   4.599
62346W        W28777   3.726  36.564  14.855
62347W        W28778  22.634   1.822  10.269
62348W        W28779   0.195  28.709  11.254
62349W        W28780  19.703  11.305   1.389
62350W        W28781   9.829   2.972  14.903
62351W        W28782  26.583  43.731   1.675
62352W        W28783   5.897  33.849   3.153
62353W        W28784  42.373  24.135   1.989
62354W        W28785  25.506  36.502  11.072
62355W        W28786  27.456   3.140  13.810
62356W        W28787  38.770  43.733   0.796
62357W        W28788  25.192   0.012  11.380
62358W        W28789  17.235   4.500  13.450
62359W        W28790  39.939  30.898  11.299
62360W        W28791  25.541  24.555  14.825
62361W        W28792  30.572  21.691   2.796
62362W        W28793  29.798  13.785   1.166
62363W        W28794  15.709  43.530   3.145
62364W        W28795   9.694  17.861   4.197
62365W        W28796  41.293  34.479   1.332
62366W        W28797   6.349   6.772  14.416
62367W        W28798  36.901   2.586  11.240
62368W        W28799  30.103   0.926   1.414
62369W        W28800  24.528  23.202  10.748
62370W        W28801  36.263  37.840   3.601
62371W        W28802   3.678  20.284   2.284
62372W        W28803  26.542  43.775  11.639
62373W        W28804   9.314  33.197  13.522
62374W        W28805  15.019  31.598   2.311
62375W        W28806  37.112  28.388   1.461
62376W        W28807  13.670  28.613   0.550
62377W        W28808   0.526  36.876  11.182
62378W        W28809  27.657  14.216   2.751
62379W        W28810  31.175   8.316  12.446
62380W        W28811  41.229  28.418  13.006
62381W        W28812  31.242  11.057  14.859
62382W        W28813  12.596  23.014   2.185
62383W        W28814   6.799  12.708  14.385
62384W        W28815   2.592  30.612   0.321
62385W        W28816  35.974  37.629  14.794
62386W        W28817   1.966   2.058   0.033
62387W        W28818  25.169  18.243   0.428
62388W        W28819  39.080  19.350  12.866
62389W        W28820  16.295   9.248   1.524
62390W        W28821  14.898   8.724  13.493
62391W        W28822  33.290  21.092   0.233
62392W        W28823  25.154   4.214  10.773
62393W        W28824  24.214  38.094   4.518
62394W        W28825  15.819  15.798   1.365
62395W        W28826  34.476  36.608   1.511
62396W        W28827  23.576  16.415  14.485
62397W        W28828  37.795  10.243  14.066
62398W        W28829   2.334  10.660   3.532
62399W        W28830  31.833  30.885  11.798
62400W        W28831  13.498  12.619  14.621
62401W        W28832   2.477   0.913  11.017
62402W        W28833  32.707  17.766  13.066
62403W        W28834  24.578  20.301  14.383
62404W        W28835  29.119  16.315   3.050
62405W        W28836  15.026  16.300  11.232
62406W        W28837  41.358   7.984   3.813
62407W        W28838  12.289  40.277   0.786
62408W        W28839  43.274  25.362   0.383
62409W        W28840  16.832  14.955  11.760
62410W        W28841  20.108   3.247  10.675
62411W        W28842   1.853  37.402  12.965
62412W        W28843  31.976  35.567  10.598
62413W        W28844   2.983  34.538   3.282
62414W        W28845  11.983  25.695  11.370
62415W        W28846   0.707  22.433  11.208
62416W        W28847  31.123  40.476  11.807
62417W        W28848  44.405  26.558  14.839
62418W        W28849  35.901   7.893  11.179
62419W        W28850  34.016  13.233   4.564
62420W        W28851  40.501   7.419  14.328
62421W        W28852   8.151  26.027   0.736
62422W        W28853  14.804   4.548  14.292
62423W        W28854  26.927  44.793   3.065
62424W        W28855  21.136  16.402   0.520
62425W        W28856  31.990  22.477  12.915
62426W        W28857  39.500  18.881   0.779
62427W        W28858  24.730  13.675   3.079
62428W        W28859  20.269  11.208  11.953
62429W        W28860  23.680  33.859   1.248
62430W        W28861  21.771  30.932   3.952
62431W        W28862  28.882  40.057  12.154
62432W        W28863  20.997   1.205   1.580
62433W        W28864  43.582  44.070   4.092
62434W        W28865  34.006  24.455   0.243
62435W        W28866   7.355   4.743  14.231
62436W        W28867  23.145   3.803   3.377
62437W        W28868  14.042  19.943   1.349
62438W        W28869   9.698  36.383   0.154
62439W        W28870   3.026  36.259   3.720
62440W        W28871  40.257  44.837   3.846
62441W        W28872   1.821  35.502   1.811
62442W        W28873   6.285  18.334   1.303
62443W        W28874  30.459  29.441   0.525
62444W        W28875  30.460   5.539  13.434
62445W        W28876  27.326  30.141   1.696
62446W        W28877   1.643   6.298   3.207
62447W        W28878   7.238  22.110  10.788
62448W        W28879   5.301   0.934   4.623
62449W        W28880  32.685   5.473  12.393
62450W        W28881  21.161   3.592   0.422
62451W        W28882  19.555  32.997  11.538
62452W        W28883  25.518  14.630   2.618
62453W        W28884  18.081  27.260  12.510
62454W        W28885   7.233  30.376   3.957
62455W        W28886  24.012  12.267   1.331
62456W        W28887  14.725  19.292  13.977
62457W        W28888  12.149  22.052  12.539
62458W        W28889  42.471  13.589   0.905
62459W        W28890   3.928  43.032  14.754
62460W        W28891  26.720  26.010   1.717
62461W        W28892  39.142   7.801   2.283
62462W        W28893  29.888  12.725   2.355
62463W        W28894   4.450  19.006  13.359
62464W        W28895  22.302  24.527  13.789
62465W        W28896   8.110  20.584   3.225
62466W        W28897  23.219  22.946  13.592
62467W        W28898  22.608  10.321  13.457
62468W        W28899  28.624  12.986   3.852
62469W        W28900   7.497   6.933  12.802
62470W        W28901  10.778  37.034   4.477
62471W        W28902  23.213  43.776   1.946
62472W        W28903  29.508  27.249   3.682
62473W        W28904  29.236  27.048   2.368
62474W        W28905  32.459  16.532   2.201
62475W        W28906  12.659  29.604   0.744
62476W        W28907   6.880   9.268  10.990
62477W        W28908   6.788  39.166   2.408
62478W        W28909  10.814  18.103   0.084
62479W        W28910  32.190  39.872   3.613
62480W        W28911  39.530  40.272  12.598
62481W        W28912  27.649   0.417  13.601
62482W        W28913  18.511  44.460   1.709
62483W        W28914  27.257  42.854  13.432
62484W        W28915  20.122  16.089   1.282
62485W        W28916  33.304   1.326   4.679
62486W        W28917  10.286  41.087   1.879
62487W        W28918  12.073  11.196   3.705
62488W        W28919  25.430  24.483   4.209
62489W        W28920  16.593  19.866   0.390
62490W        W28921  32.027  32.671   3.165
62491W        W28922   0.786  34.042  13.272
62492W        W28923   1.938  37.171  12.509
62493W        W28924  19.116  39.067   2.697
62494W        W28925  37.950  15.812   2.283
62495W        W28926  29.297   1.936  12.466
62496W        W28927   5.292  44.976  13.869
62497W        W28928   7.461   1.874   0.545
62498W        W28929   6.736  18.281   2.086
62499W        W28930  34.109  27.000  12.713
62500W        W28931  28.504  44.594   4.577
62501W        W28932   3.304  11.134   1.371
62502W        W28933   5.269  38.855  12.131
62503W        W28934  12.510   1.031  12.599
62504W        W28935  10.633  32.530  14.764
62505W        W28936  17.079   6.745   4.118
62506W        W28937  27.515  33.840   4.063
62507W        W28938  34.142  44.832  14.728
62508W        W28939  35.086  12.751  11.579
62509W        W28940  40.481  27.738  12.347
62510W        W28941  27.699  21.946  13.927
62511W        W28942   7.875  13.406  14.478
62512W        W28943  33.465   5.744  13.388
62513W        W28944  15.719  38.939  12.040
62514W        W28945  25.539  42.736  10.721
62515W        W28946   8.546  20.341  10.685
62516W        W28947  42.960   3.120  14.080
62517W        W28948  21.143   5.661  14.415
62518W        W28949  24.565  35.906  12.380
62519W        W28950  39.991  23.082  11.493
62520W        W28951  33.953   8.845  13.495
62521W        W28952  22.513  25.256  10.283
62522W        W28953  15.210  14.073  14.971
62523W        W28954   2.149   4.213  13.441
62524W        W28955  36.899  20.656   4.230
62525W        W28956  35.966  18.471   3.667
62526W        W28957  19.219   2.960  14.567
62527W        W28958   0.790  27.953  14.826
62528W        W28959  30.462  36.183  11.730
62529W        W28960   1.490  41.525  12.449
62530W        W28961   6.269   8.179  11.569
62531W        W28962  37.129  26.979  11.660
62532W        W28963  32.607  26.449   0.355
62533W        W28964  31.189  43.037  12.101
62534W        W28965  17.734  25.179   0.356
62535W        W28966  21.235  15.090  13.029
62536W        W28967  11.789  10.640   4.448
62537W        W28968  33.553   0.919  10.595
62538W        W28969  41.859  28.114   1.291
62539W        W28970   0.437  10.295   2.239
62540W        W28971  40.319  25.960   2.275
62541W        W28972  42.196  22.058   0.665
62542W        W28973  12.350  41.727  12.700
62543W        W28974  16.682  33.616   1.759
62544W        W28975  42.946  40.377  10.753
62545W        W28976   1.928  22.861  12.401
62546W        W28977  17.852  22.740   3.457
62547W        W28978  27.666  26.115   4.215
62548W        W28979  27.543  44.562   1.320
62549W        W28980  39.425  21.501   1.712
62550W        W28981  32.666   3.283   2.861
62551W        W28982  10.810  19.245   4.910
62552W        W28983  24.005  22.980  14.518
62553W        W28984  11.178  37.471   0.884
62554W        W28985  22.156   8.394  10.874
62555W        W28986  21.518   3.314  12.807
62556W        W28987  44.702  13.526   3.627
62557W        W28988   8.964   1.951  14.825
62558W        W28989  38.043  39.644  13.949
62559W        W28990  36.046  10.646  14.473
62560W        W28991  13.828   6.891   0.964
62561W        W28992  23.248  42.059   1.961
62562W        W28993  43.437  36.095   3.320
62563W        W28994  44.357   3.166   0.338
62564W        W28995  25.788   2.634  14.458
62565W        W28996  11.650  42.875  13.518
62566W        W28997  21.296  41.365   9.807
62567W        W28998  41.136  26.179   1.873
62568W        W28999  35.487  39.805   2.670
62569W        W29000  23.169  24.409   1.662
62570W        W29001  26.683   8.556  13.561
62571W        W29002  15.781   7.655  12.436
62572W        W29003  22.450   6.165  13.518
62573W        W29004   9.139  25.185  14.711
62574W        W29005  21.455  22.994  11.455
62575W        W29006  41.445  11.157  12.682
62576W        W29007   6.589   2.280   1.099
62577W        W29008  21.651  16.426   4.153
62578W        W29009  40.338  34.023   0.782
62579W        W29010  16.827  13.049  10.633
62580W        W29011  31.402   9.869  14.653
62581W        W29012  22.433  29.926   1.871
62582W        W29013  38.900  44.536  13.897
62583W        W29014  36.768   0.283   3.683
62584W        W29015  28.104  44.139   0.430
62585W        W29016   3.266  35.433   2.208
62586W        W29017  36.774  32.015   4.043
62587W        W29018  32.631  35.513  11.214
62588W        W29019  34.408   5.239   1.078
62589W        W29020   1.227  41.424  11.509
62590W        W29021  22.167  44.790   0.996
62591W        W29022  10.331  17.721   2.177
62592W        W29023  31.466  24.395  12.942
62593W        W29024  44.910  38.628   1.989
62594W        W29025  21.687   4.002   1.797
62595W        W29026   6.890  17.946  13.517
62596W        W29027  27.685   1.548  12.958
62597W        W29028  27.971   4.616   0.184
62598W        W29029   4.170  34.619   5.127
62599W        W29030   5.366  10.347   1.859
62600W        W29031  14.656  38.649  12.129
62601W        W29032   3.700  38.365  14.323
62602W        W29033  27.669  26.543  13.890
62603W        W29034  30.274  10.065  11.989
62604W        W29035  21.205   5.874   2.573
62605W        W29036  12.919  23.463   3.268
62606W        W29037   3.930  16.082  13.990
62607W        W29038  37.016  23.435   3.800
62608W        W29039  12.236  32.678  12.361
62609W        W29040  44.931   4.773  10.657
62610W        W29041  29.287  26.671  13.514
62611W        W29042  42.832  11.428   4.735
62612W        W29043  23.434  12.503   0.846
62613W        W29044  32.567  36.288  13.486
62614W        W29045   1.999  14.928  11.641
62615W        W29046  13.012  43.408  12.812
62616W        W29047   9.397   2.112  10.261
62617W        W29048  26.445  24.862  14.541
62618W        W29049   9.627  35.806  13.496
62619W        W29050  20.275  28.179  10.187
62620W        W29051  42.828  24.538   3.882
62621W        W29052  38.995  21.581   3.218
62622W        W29053   4.833  32.861   3.608
62623W        W29054  13.260  31.895   4.558
62624W        W29055  44.468  26.755   3.153
62625W        W29056  23.076  35.524  14.610
62626W        W29057  37.062  38.546  11.997
62627W        W29058  20.473  12.481  11.578
62628W        W29059  20.300  34.314   0.163
62629W        W29060  41.925  43.295   2.930
62630W        W29061  43.958  19.490   4.511
62631W        W29062  31.166  17.706   2.878
62632W        W29063  39.133  23.248  12.592
62633W        W29064  31.596  10.205   1.776
62634W        W29065  27.125   7.658   3.574
62635W        W29066  30.708  33.932  12.113
62636W        W29067  17.978  27.630   3.677
62637W        W29068  38.733  16.297   0.362
62638W        W29069  42.514  40.197  14.312
62639W        W29070  40.515  36.144  13.887
62640W        W29071   3.200  22.631   1.854
62641W        W29072  14.464  16.149   2.572
62642W        W29073   4.118  21.891  14.947
62643W        W29074   1.641  43.978  13.489
62644W        W29075   8.647   5.457   3.657
62645W        W29076  11.548   6.408  14.089
62646W        W29077  32.205  25.131   1.234
62647W        W29078  15.371  32.021   2.480
62648W        W29079  17.858   8.456  12.434
62649W        W29080  44.940  32.668   0.377
62650W        W29081  17.594  30.911   1.789
62651W        W29082  38.394  23.844   1.926
62652W        W29083  32.133  31.458   1.207
62653W        W29084  21.268  34.408  13.537
62654W        W29085  11.869   4.339  10.528
62655W        W29086  20.134  23.224   2.892
62656W        W29087   4.101  44.999   0.516
62657W        W29088  36.472  14.362   3.283
62658W        W29089  44.653  37.396  12.015
62659W        W29090  27.107  23.290   4.519
62660W        W29091  35.585  22.142  14.899
62661W        W29092  16.072  23.458   1.693
62662W        W29093  28.451  18.721   1.488
62663W        W29094  40.838  39.868   2.869
62664W        W29095  22.016   2.435  13.997
62665W        W29096   2.238  23.663   2.052
62666W        W29097   2.711   3.311  12.621
62667W        W29098  10.154   9.189   2.259
62668W        W29099  13.894  12.254  11.255
62669W        W29100  13.097   2.882  12.506
62670W        W29101   1.231  37.474   0.898
62671W        W29102  38.566  27.418  11.080
62672W        W29103  44.002  31.585  14.017
62673W        W29104  18.813  36.549   4.019
62674W        W29105  35.395  37.874   4.172
62675W        W29106  22.155  14.347   0.874
62676W        W29107  23.747   3.159  13.263
62677W        W29108  10.261  34.547   4.084
62678W        W29109  42.781  39.816  14.523
62679W        W29110  35.757   2.947  11.207
62680W        W29111  24.061   8.417   3.938
62681W        W29112  27.961  23.585   3.147
62682W        W29113  11.417  25.889  11.068
62683W        W29114  11.794  26.809  12.795
62684W        W29115   4.483  34.116   1.346
62685W        W29116  34.681  17.811  11.872
62686W        W29117  39.755  20.699   1.867
62687W        W29118   4.353  17.921  12.207
62688W        W29119  38.906  19.216   1.217
62689W        W29120  21.260  17.814  11.224
62690W        W29121   3.019  28.721  13.598
62691W        W29122  16.214  20.273   4.385
62692W        W29123   2.426  26.500   4.161
62693W        W29124  32.088  30.940   0.966
62694W        W29125  25.509  44.389  12.386
62695W        W29126   0.450  41.723  14.474
62696W        W29127  40.524  17.171   3.656
62697W        W29128  27.943  43.757   1.363
62698W        W29129  14.200  28.189  12.416
62699W        W29130   7.190  44.895  13.068
62700W        W29131   9.245  36.995  10.626
62701W        W29132  28.031   0.954  13.577
62702W        W29133  35.622  24.197   3.765
62703W        W29134  33.569  32.880   4.738
62704W        W29135  39.598  15.385   2.593
62705W        W29136  36.353  16.158   3.245
62706W        W29137  34.113  44.452  10.564
62707W        W29138  21.691  39.455   3.682
62708W        W29139   9.281  23.754   2.859
62709W        W29140  18.913  38.621   4.913
62710W        W29141   5.492  22.233  14.383
62711W        W29142  32.325  32.842  11.452
62712W        W29143  24.477   7.669  11.985
62713W        W29144  22.482  24.067   0.798
62714W        W29145   1.521  19.202   3.846
62715W        W29146  38.912  27.685   2.630
62716W        W29147  36.552  43.928  12.496
62717W        W29148  38.365  14.225  14.907
62718W        W29149  22.982  25.666  13.480
62719W        W29150   4.265   2.761   3.545
62720W        W29151  44.164  31.991  10.633
62721W        W29152  13.035  14.515   4.633
62722W        W29153  10.428  30.136  13.644
62723W        W29154  26.562  16.515  10.645
62724W        W29155  14.232  34.294   1.236
62725W        W29156  17.190  22.479   0.413
62726W        W29157  18.677  40.336   1.795
62727W        W29158  19.252   0.188  10.504
62728W        W29159   2.176  42.524   1.486
62729W        W29160   1.287  15.682  11.234
62730W        W29161   7.167  44.394   0.383
62731W        W29162  24.195   6.444  10.671
62732W        W29163   0.554  30.626  13.882
62733W        W29164   6.116  24.096  14.300
62734W        W29165  42.405  40.151   3.766
62735W        W29166  44.904   0.420   3.384
62736W        W29167  26.781  29.846  11.171
62737W        W29168  28.690   2.455  14.800
62738W        W29169  43.267   5.694   4.558
62739W        W29170   5.134  24.334  14.811
62740W        W29171  39.166  21.291  13.452
62741W        W29172  44.389  21.557   2.508
62742W        W29173  34.674   5.088  13.586
62743W        W29174  15.182   4.135   2.187
62744W        W29175  29.422  40.828  12.663
62745W        W29176  16.663   0.375  13.947
62746W        W29177   8.236  37.642  11.185
62747W        W29178  43.669   4.721  14.199
62748W        W29179  21.984  21.216  14.484
62749W        W29180   8.682  13.694  12.932
62750W        W29181  37.323  34.584   4.582
62751W        W29182  40.997  43.905   1.743
62752W        W29183  17.658  42.969   2.926
62753W        W29184  23.987  32.892  13.351
62754W        W29185  16.535  37.120   3.886
62755W        W29186  16.397  20.226   0.734
62756W        W29187   4.419  13.748   4.927
62757W        W29188  44.080  37.355   3.214
62758W        W29189  41.802   3.463  13.126
62759W        W29190  17.849  25.714  10.705
62760W        W29191  31.486  30.208  12.492
62761W        W29192   3.509  16.291   0.321
62762W        W29193   3.542  14.656  13.886
62763W        W29194  11.356   3.400   4.142
62764W        W29195  26.954  43.262   0.448
62765W        W29196   0.301  17.613   1.910
62766W        W29197  36.320   9.787   0.471
62767W        W29198  13.634   5.901   3.328
62768W        W29199  34.630  43.812   0.184
62769W        W29200  18.524   5.990   0.255
62770W        W29201  27.431  35.452   3.263
62771W        W29202  32.070   2.288   3.162
62772W        W29203  38.339  18.695  14.071
62773W        W29204  42.454   9.664  11.048
62774W        W29205   8.575  14.061   2.341
62775W        W29206  10.657  41.460  12.619
62776W        W29207  30.397  35.204  11.616
62777W        W29208  20.758   3.940  13.619
62778W        W29209  43.936  20.583  14.490
62779W        W29210  28.075  18.507   1.779
62780W        W29211  44.500  25.467   2.717
62781W        W29212  25.179   8.417  14.795
62782W        W29213  23.400  17.723   4.623
62783W        W29214  15.686  12.220  12.648
62784W        W29215  14.804  25.462   0.332
62785W        W29216  15.261  16.781  11.962
62786W        W29217  13.123   0.911   2.339
62787W        W29218  14.571  28.114   2.836
62788W        W29219  24.239  34.517   3.987
62789W        W29220  40.191  41.895  14.374
62790W        W29221  17.507  16.161  11.110
62791W        W29222  15.803  21.260  10.532
62792W        W29223  44.484   2.564  11.111
62793W        W29224  21.728  12.457   1.382
62794W        W29225  18.794  44.521  11.242
62795W        W29226   8.264  27.000  11.642
62796W        W29227  41.927  37.163  12.750
62797W        W29228   9.109  22.711  14.928
62798W        W29229  19.027  36.179  11.033
62799W        W29230  38.225  19.855  11.163
62800W        W29231  24.135  14.755   2.891
62801W        W29232  15.051  22.685  13.893
62802W        W29233  34.814  31.844   0.880
62803W        W29234  13.902  16.210  14.950
62804W        W29235  29.658   8.649   3.287
62805W        W29236  14.849  10.220  12.082
62806W        W29237  18.653   2.981  13.323
62807W        W29238   6.344   7.472  11.111
62808W        W29239   5.872   9.445  10.937
62809W        W29240  29.974   5.761   2.634
62810W        W29241  44.755   7.108   3.186
62811W        W29242  28.193  40.588  13.435
62812W        W29243  43.316  29.148   3.648
62813W        W29244   3.053   4.212   0.485
62814W        W29245  29.442   2.435   3.975
62815W        W29246  27.911  14.136   4.532
62816W        W29247  40.812  29.050   4.548
62817W        W29248  20.565  34.631  14.871
62818W        W29249  39.134  18.839  12.912
62819W        W29250   6.655  31.006   0.355
62820W        W29251  20.717  10.857  14.619
62821W        W29252   0.951  28.268   1.956
62822W        W29253  18.222  21.136   0.720
62823W        W29254   4.265   2.750   2.286
62824W        W29255  27.281   9.158   4.084
62825W        W29256   8.490  44.698  12.521
62826W        W29257  15.727  16.527  14.923
62827W        W29258  13.642  18.171   0.762
62828W        W29259   4.967  34.954   2.265
62829W        W29260  33.350  27.234   4.215
62830W        W29261  27.137   4.744  13.523
62831W        W29262  32.369  34.386   1.850
62832W        W29263  27.943  10.768  13.126
62833W        W29264   7.246  25.399  11.857
62834W        W29265  24.020  12.252   4.122
62835W        W29266  32.572  42.284  12.000
62836W        W29267   2.718  31.775  14.922
62837W        W29268  33.053  20.736   4.796
62838W        W29269  39.332   1.855  14.740
62839W        W29270  31.441  13.490   2.966
62840W        W29271  17.630  32.572   0.353
62841W        W29272  21.670  21.031   3.929
62842W        W29273  14.704   5.332  12.870
62843W        W29274  13.303   2.834  10.209
62844W        W29275   0.257  12.855   0.640
62845W        W29276  20.802  32.292  11.324
62846W        W29277  23.710  42.274  10.736
62847W        W29278   2.510   8.348   0.414
62848W        W29279  21.527  16.723   4.552
62849W        W29280   9.324  16.725   4.666
62850W        W29281  31.515  41.675  14.389
62851W        W29282  40.742   7.418  13.127
62852W        W29283  23.632  41.677  13.996
62853W        W29284  18.327   7.740   3.680
62854W        W29285   7.822  24.471   2.610
62855W        W29286   1.981  44.449  11.523
62856W        W29287  33.893  25.667   0.321
62857W        W29288  19.929  15.873  12.484
62858W        W29289  37.051  39.524  12.606
62859W        W29290  38.518   9.135  12.309
62860W        W29291   4.115  28.061  11.141
62861W        W29292  14.387  16.117   0.093
62862W        W29293  31.247  14.550   0.919
62863W        W29294  36.839  33.557   1.926
62864W        W29295   9.531  35.897  14.360
62865W        W29296  22.717   2.815   3.485
62866W        W29297  18.954   2.386   9.995
62867W        W29298   3.019  37.256  13.783
62868W        W29299  42.469  25.403   4.258
62869W        W29300   1.424  19.222  11.860
62870W        W29301  33.097  27.981  12.532
62871W        W29302   5.179  28.898   0.243
62872W        W29303  14.775  37.576   3.204
62873W        W29304  34.572  35.949   0.207
62874W        W29305  13.694   5.279   2.566
62875W        W29306  38.964   3.669   2.193
62876W        W29307  22.138  25.688   1.626
62877W        W29308  28.908  39.343   2.246
62878W        W29309   9.976  10.334   2.886
62879W        W29310  34.017  42.437  13.009
62880W        W29311  42.516  21.577  14.850
62881W        W29312   9.076  41.188   0.812
62882W        W29313   3.335  18.909   1.446
62883W        W29314  20.604  38.620   0.224
62884W        W29315  26.175  35.055  14.338
62885W        W29316  26.884  25.718   4.515
62886W        W29317   5.302  31.080  14.865
62887W        W29318  12.623  42.652   2.163
62888W        W29319  24.559  19.279  13.326
62889W        W29320  34.095  13.025   4.107
62890W        W29321  22.012  37.947   0.920
62891W        W29322  22.640  23.519   3.794
62892W        W29323  23.454  21.018   0.274
62893W        W29324  41.358   4.820   2.828
62894W        W29325  16.904  35.646   3.880
62895W        W29326  22.084  40.093  13.772
62896W        W29327  12.231  29.764   3.790
62897W        W29328  18.672   5.048   5.697
62898W        W29329  22.273  32.081  14.236
62899W        W29330  14.674   2.593   9.736
62900W        W29331  29.157  30.625   0.264
62901W        W29332  32.383  17.892  14.536
62902W        W29333   7.620   5.651  11.881
62903W        W29334  36.006  33.826  14.671
62904W        W29335  14.193  44.910  13.391
62905W        W29336  32.615   0.432   1.736
62906W        W29337  11.725  12.133   1.420
62907W        W29338  26.987  40.782  14.830
62908W        W29339  37.015  35.817   1.490
62909W        W29340  17.820  29.140   0.412
62910W        W29341  25.690  34.886  14.006
62911W        W29342  10.152   0.710   0.971
62912W        W29343  27.291  35.256   3.711
62913W        W29344   0.388  26.079   3.983
62914W        W29345  10.306   1.839  11.113
62915W        W29346   2.223  23.317   1.380
62916W        W29347  12.547  23.307  12.996
62917W        W29348  35.430  16.770  13.558
62918W        W29349  15.507  35.739   4.187
62919W        W29350  40.740   7.932  13.029
62920W        W29351   9.762  27.695  13.342
62921W        W29352  21.334  27.096  13.201
62922W        W29353  44.362   0.925  13.368
62923W        W29354  20.948  34.868  12.100
62924W        W29355  25.280  42.430  13.505
62925W        W29356   5.936   5.336   3.193
62926W        W29357  42.085  37.166  13.572
62927W        W29358  11.384  42.983   1.716
62928W        W29359  22.341  22.937  12.577
62929W        W29360  25.559   6.944  11.593
62930W        W29361  18.282  25.006   3.571
62931W        W29362  25.165  28.031  12.888
62932W        W29363  38.445  34.512   1.018
62933W        W29364   6.225   4.932   2.985
62934W        W29365  44.164  41.005   1.314
62935W        W29366  42.061  38.547  14.230
62936W        W29367  15.248  15.640  12.597
62937W        W29368  27.031   3.015  10.709
62938W        W29369  14.623  41.547   4.382
62939W        W29370  39.856  28.361  14.828
62940W        W29371  40.459  44.833   3.285
62941W        W29372  25.661   4.443  11.566
62942W        W29373  42.532  12.836   0.391
62943W        W29374  27.355  37.862   1.381
62944W        W29375   9.451  43.197  14.299
62945W        W29376  20.650  37.611  13.035
62946W        W29377   4.464  12.298   3.173
62947W        W29378  18.347  17.623  11.717
62948W        W29379  42.954   0.912  10.734
62949W        W29380  26.613  26.118   2.719
62950W        W29381  27.171   1.386   1.406
62951W        W29382  40.904  31.067   1.773
62952W        W29383  13.114  12.109   4.602
62953W        W29384  24.673   2.783  10.917
62954W        W29385  40.387   1.506   1.344
62955W        W29386  41.707  26.341   1.802
62956W        W29387  18.621  12.836   0.312
62957W        W29388  19.385  31.938  13.729
62958W        W29389  25.942  17.790   0.399
62959W        W29390  24.003  27.477  12.194
62960W        W29391  19.526  39.532  14.192
62961W        W29392  40.795  30.880   4.896
62962W        W29393  11.729  44.357  14.830
62963W        W29394  20.497  37.806   3.636
62964W        W29395  31.553   2.482  14.837
62965W        W29396  35.631  14.812   3.174
62966W        W29397  23.247  13.343  12.087
62967W        W29398  37.813   0.069  12.504
62968W        W29399  31.002  34.874   0.882
62969W        W29400  30.161   4.819   2.209
62970W        W29401  19.311   8.998  14.939
62971W        W29402  20.642  44.363   4.142
62972W        W29403  41.786   2.950  11.473
62973W        W29404  41.449  44.422   3.213
62974W        W29405   9.184  12.646  11.993
62975W        W29406  14.144   1.401  10.508
62976W        W29407  41.093  25.743  13.531
62977W        W29408   7.571  19.463   1.479
62978W        W29409   7.777  37.364  13.375
62979W        W29410   6.194  34.555  10.275
62980W        W29411   0.873  31.996  14.347
62981W        W29412  26.608  13.687   3.242
62982W        W29413   4.195  23.944   0.028
62983W        W29414  24.470  23.658   0.840
62984W        W29415  28.315  13.693   2.300
62985W        W29416   9.716  25.874  13.878
62986W        W29417  12.315   9.663  14.381
62987W        W29418  14.350  44.598  12.915
62988W        W29419  38.534  25.342  13.353
62989W        W29420  27.389  28.996   4.188
62990W        W29421  44.531  27.462   0.793
62991W        W29422  39.397   5.156   0.875
62992W        W29423  20.130  18.226   2.739
62993W        W29424  41.756  43.502   1.458
62994W        W29425  37.051  43.955  12.595
62995W        W29426  25.863  42.483   5.099
62996W        W29427  37.040  14.779  13.034
62997W        W29428  34.763  10.840   4.731
62998W        W29429  34.031  29.625  12.752
62999W        W29430  41.530  14.294  12.901
63000W        W29431  38.269  11.655   1.778
63001W        W29432  38.674  27.820   3.131
63002W        W29433  32.860  12.624   4.566
63003W        W29434  18.401  23.521  11.177
63004W        W29435  15.168  37.829  14.756
63005W        W29436  14.966  27.165  11.854
63006W        W29437  25.674   3.361   4.443
63007W        W29438  37.011  24.821  14.949
63008W        W29439  33.379  19.553  14.967
63009W        W29440  37.315  42.278  13.945
63010W        W29441  28.001   0.172  14.430
63011W        W29442  42.824  16.553   4.783
63012W        W29443  29.051  39.609  12.421
63013W        W29444  32.378  17.730  12.203
63014W        W29445  11.244  16.298   0.454
63015W        W29446   5.501  35.871   0.400
63016W        W29447  44.916  29.437  10.776
63017W        W29448  32.955  16.994  11.885
63018W        W29449   5.865  13.006   2.601
63019W        W29450  30.994   4.754   2.799
63020W        W29451  17.166  19.566  11.986
63021W        W29452   5.434  44.249  11.152
63022W        W29453  29.921  21.230  13.224
63023W        W29454  13.036  33.666  13.608
63024W        W29455  19.424  30.631   1.285
63025W        W29456  16.674   2.894  14.066
63026W        W29457  18.235  28.452   2.924
63027W        W29458  28.292  16.495  13.163
63028W        W29459  43.907  17.893   1.797
63029W        W29460  33.948  17.905   1.862
63030W        W29461  38.535  33.533  14.501
63031W        W29462  10.517  37.559   3.363
63032W        W29463  11.007  27.244  12.052
63033W        W29464   8.875  18.776  14.345
63034W        W29465  29.156  32.443   4.843
63035W        W29466   9.382  13.275   0.355
63036W        W29467  44.141   2.859  12.665
63037W        W29468  18.742  41.306  12.087
63038W        W29469  15.087   9.259   0.248
63039W        W29470  27.044   8.641  13.047
63040W        W29471  16.882  23.600   2.815
63041W        W29472   1.802   0.492  11.995
63042W        W29473  22.778   2.596  11.053
63043W        W29474   0.026  23.134   4.702
63044W        W29475   9.718  24.135  14.376
63045W        W29476  23.461  29.981  11.323
63046W        W29477  22.032   4.459  14.841
63047W        W29478  23.767  34.949   3.276
63048W        W29479  41.028  13.688  12.102
63049W        W29480  34.945  37.374  14.391
63050W        W29481   2.942  20.318   0.662
63051W        W29482   9.122  31.405   0.739
63052W        W29483  33.930   0.235  10.935
63053W        W29484   1.342  34.170  13.988
63054W        W29485  32.536   2.771   3.650
63055W        W29486  29.418  19.046   1.389
63056W        W29487  16.916  11.110  13.424
63057W        W29488   5.266   4.377   0.185
63058W        W29489  28.641  39.882  13.614
63059W        W29490  11.741   4.500   2.279
63060W        W29491   7.529  19.268   5.104
63061W        W29492  43.434  21.502   0.887
63062W        W29493   8.902   7.540  10.770
63063W        W29494  40.426  40.560  13.336
63064W        W29495  29.070  24.948   2.579
63065W        W29496   6.825  23.690  11.569
63066W        W29497  24.510  44.272  12.584
63067W        W29498  15.053   9.637   2.939
63068W        W29499  17.467  18.179  13.123
63069W        W29500  11.817  39.242  12.592
63070W        W29501  19.205  37.059  10.662
63071W        W29502  19.707   4.000  11.076
63072W        W29503   4.768  23.382   1.784
63073W        W29504   5.871  24.706   0.213
63074W        W29505  41.808   6.735  10.613
63075W        W29506  44.822  25.142   3.182
63076W        W29507   4.044  26.072   2.669
63077W        W29508  31.727  39.367   3.036
63078W        W29509  28.828   8.552  10.069
63079W        W29510  44.481  36.527   3.221
63080W        W29511  25.963  40.862  12.242
63081W        W29512  26.723  21.612  10.649
63082W        W29513  42.837  36.883  13.965
63083W        W29514  31.103   7.698  13.015
63084W        W29515   9.730  11.356   2.783
63085W        W29516   4.278  26.835   1.945
63086W        W29517  22.660  27.447  14.847
63087W        W29518   0.798  27.219   2.670
63088W        W29519  44.712  28.125   4.222
63089W        W29520  21.141  14.089  12.666
63090W        W29521   5.454  22.471   0.259
63091W        W29522  33.815  40.353  12.079
63092W        W29523  32.899  35.842   1.332
63093W        W29524  13.701   9.499   0.246
63094W        W29525  18.785  30.442   3.210
63095W        W29526  25.906  31.495   3.612
63096W        W29527  26.226  20.611   2.252
63097W        W29528  42.042  17.884   4.191
63098W        W29529  40.029  36.024  14.072
63099W        W29530  14.332  18.114  10.602
63100W        W29531   8.821  20.229  11.531
63101W        W29532  32.363  37.843   0.189
63102W        W29533  39.256  41.823   4.540
63103W        W29534  10.631   4.973   3.532
63104W        W29535  44.616  10.766   4.079
63105W        W29536  23.214   0.010  13.495
63106W        W29537  16.906  44.047   0.112
63107W        W29538  38.559   7.775   4.415
63108W        W29539  34.132  13.352  12.157
63109W        W29540   3.496  20.110  14.903
63110W        W29541  14.244  14.320  11.605
63111W        W29542  33.074  33.093   0.305
63112W        W29543  13.034  35.232  12.045
63113W        W29544  17.609   5.793  12.946
63114W        W29545  27.078  17.061   4.751
63115W        W29546  42.554  27.718   2.953
63116W        W29547  44.369  34.093   4.376
63117W        W29548  27.019  31.268   9.724
63118W        W29549  22.768  40.751   1.883
63119W        W29550  31.828  14.572  13.525
63120W        W29551   7.555   4.286  11.238
63121W        W29552   0.501  31.986  12.082
63122W        W29553  14.167  35.616  11.796
63123W        W29554   6.953  34.079   0.314
63124W        W29555  40.435   8.349  10.843
63125W        W29556  24.501  33.351  12.545
63126W        W29557  28.402   6.798  14.379
63127W        W29558  35.187   3.772   4.249
63128W        W29559  37.599  25.500  13.434
63129W        W29560  13.662  44.842  13.474
63130W        W29561  18.172   2.836  13.499
63131W        W29562  13.376  12.675  11.556
63132W        W29563   5.985  33.433  10.809
63133W        W29564   1.259  18.527   4.475
63134W        W29565  44.347  33.769  10.234
63135W        W29566  27.706  19.094   1.132
63136W        W29567  44.044  27.587   0.865
63137W        W29568  41.537  31.948   0.635
63138W        W29569  43.751   5.634  14.137
63139W        W29570  42.758  21.098  14.763
63140W        W29571  43.325  40.139  10.390
63141W        W29572  27.045  35.451  14.876
63142W        W29573  14.736  28.087   3.816
63143W        W29574   5.302   9.830   1.737
63144W        W29575  10.314  29.494  11.986
63145W        W29576   2.391   7.750   1.690
63146W        W29577  18.369  12.945   0.782
63147W        W29578  27.736   5.672  13.061
63148W        W29579  36.992  25.875   0.964
63149W        W29580  42.043  20.100  10.783
63150W        W29581  17.077  26.581  11.977
63151W        W29582  43.522   5.959  10.766
63152W        W29583   8.947   6.133  12.948
63153W        W29584   9.369  42.274   0.236
63154W        W29585  17.052  30.625   4.922
63155W        W29586  13.955  32.549  10.710
63156W        W29587  37.347  16.677   4.263
63157W        W29588  31.581   3.309   3.842
63158W        W29589  28.177   7.360   4.479
63159W        W29590  23.953  15.085  13.672
63160W        W29591  39.837   8.754  12.496
63161W        W29592   0.438   2.090  12.843
63162W        W29593  11.981  16.898  11.197
63163W        W29594   4.442  21.691  12.667
63164W        W29595  28.306  43.471   3.148
63165W        W29596   0.762  24.749   4.033
63166W        W29597   7.259   2.766  11.269
63167W        W29598  22.556  32.793  14.778
63168W        W29599   9.921  25.724   3.699
63169W        W29600  22.828  16.495  10.225
63170W        W29601  16.168  42.808  12.369
63171W        W29602  13.690  42.435  12.479
63172W        W29603  11.917   1.777  11.621
63173W        W29604  21.129  37.371  12.644
63174W        W29605   5.372  22.146   3.257
63175W        W29606  42.772  22.115  13.921
63176W        W29607   6.682  28.722  14.510
63177W        W29608  14.348  32.482   1.369
63178W        W29609  39.629  16.096  14.943
63179W        W29610  19.644   6.881   1.033
63180W        W29611  17.847  10.286  11.038
63181W        W29612  17.400  29.157   0.722
63182W        W29613  11.550  41.091  14.994
63183W        W29614  24.752  36.903  11.029
63184W        W29615  18.831  26.877  11.976
63185W        W29616  15.668  32.453  11.978
63186W        W29617   4.689  20.166  12.861
63187W        W29618  34.433  30.258  14.554
63188W        W29619  32.035  44.216  12.408
63189W        W29620  26.080  13.343  12.076
63190W        W29621  13.994  16.296   3.580
63191W        W29622   4.150  27.993  14.597
63192W        W29623  34.357  29.168   0.268
63193W        W29624  38.733  21.711   2.793
63194W        W29625  12.256  21.993  10.926
63195W        W29626  19.983  14.065  13.455
63196W        W29627   2.451  29.200   2.245
63197W        W29628  44.834  20.111   2.716
63198W        W29629  33.022  15.616  12.209
63199W        W29630  21.040  43.666   2.592
63200W        W29631  25.520  41.087  12.412
63201W        W29632   9.191  40.788   4.944
63202W        W29633  17.256  40.806   0.966
63203W        W29634  38.878  44.813   1.878
63204W        W29635  32.618   1.346   1.441
63205W        W29636  29.361  28.578  10.487
63206W        W29637  23.200  14.061  12.895
63207W        W29638   8.493  15.577   1.973
63208W        W29639   5.809  21.529  12.588
63209W        W29640  18.269   1.551   1.251
63210W        W29641  10.690  30.879  13.576
63211W        W29642  17.653  37.244   0.781
63212W        W29643  11.633  16.336   0.819
63213W        W29644  34.380  17.767   3.901
63214W        W29645  16.389  30.444   2.056
63215W        W29646  41.541  22.035   2.858
63216W        W29647   3.360  29.154  12.838
63217W        W29648  38.768  28.717   2.311
63218W        W29649  19.649  12.323  11.940
63219W        W29650  39.322  13.204  13.067
63220W        W29651  39.264   2.261   0.938
63221W        W29652  24.458  24.207   4.352
63222W        W29653  25.726  40.884   0.279
63223W        W29654  28.536  37.140   4.896
63224W        W29655  16.258  43.397   2.887
63225W        W29656   0.375   9.934   1.417
63226W        W29657  15.255  30.394  13.939
63227W        W29658  31.581  29.807  10.781
63228W        W29659  37.737   9.772  11.570
63229W        W29660   9.222   1.663  12.895
63230W        W29661   2.637  40.993   1.226
63231W        W29662  16.135  44.397  14.615
63232W        W29663  14.207  44.817  11.626
63233W        W29664   8.838  23.171  13.633
63234W        W29665  22.005  41.222   3.365
63235W        W29666   6.935  11.019   4.155
63236W        W29667  18.767  18.536   1.342
63237W        W29668  26.547   5.804  12.903
63238W        W29669  16.350   2.523  14.305
63239W        W29670  20.593  33.128   4.161
63240W        W29671  24.636  37.533   0.803
63241W        W29672   2.721  38.589   0.885
63242W        W29673  31.968  34.225  14.848
63243W        W29674  20.574  12.193   2.236
63244W        W29675  10.211  23.545  13.119
63245W        W29676  17.824   3.269  13.333
63246W        W29677  32.141  43.413  14.366
63247W        W29678   5.509   3.775   1.786
63248W        W29679  10.150  42.300  11.497
63249W        W29680   6.174   5.381   2.699
63250W        W29681   3.632  22.731  12.753
63251W        W29682   7.143  16.216   1.329
63252W        W29683  42.387   4.384  14.829
63253W        W29684  22.483   7.357   4.056
63254W        W29685   5.634   4.408  11.193
63255W        W29686  11.720   8.724   4.609
63256W        W29687  38.323   6.738   3.247
63257W        W29688  28.440  34.398   3.285
63258W        W29689  13.939  31.892   2.773
63259W        W29690   2.984   3.249   0.788
63260W        W29691   7.062   5.453   0.285
63261W        W29692  30.989  32.222   1.432
63262W        W29693  42.701   2.428   2.140
63263W        W29694  32.980  26.630  11.870
63264W        W29695  25.243   4.810  14.778
63265W        W29696  33.044  18.807  13.613
63266W        W29697  15.753  10.694   4.197
63267W        W29698  34.128  30.780   5.293
63268W        W29699  29.186   6.194  14.393
63269W        W29700  11.789  25.956   3.456
63270W        W29701  41.571  17.632   2.887
63271W        W29702  42.081  23.841   1.630
63272W        W29703  44.422  15.749  13.932
63273W        W29704  25.529  14.464  14.325
63274W        W29705  22.931  37.251   4.221
63275W        W29706  33.931  31.386   0.881
63276W        W29707  38.921   3.263  11.418
63277W        W29708  33.453   7.641  13.308
63278W        W29709  33.568  30.086   3.531
63279W        W29710  17.685  23.729   1.866
63280W        W29711   4.266  32.846  13.459
63281W        W29712  40.832  22.219   4.052
63282W        W29713  37.329  25.954  11.083
63283W        W29714  29.446   3.908  14.259
63284W        W29715  14.685  25.284  11.596
63285W        W29716  34.533  22.852   4.145
63286W        W29717   9.466  24.145  11.639
63287W        W29718  39.008   9.828  14.320
63288W        W29719  34.496   2.813  11.691
63289W        W29720  33.412  31.704  11.888
63290W        W29721  44.781  41.384  12.859
63291W        W29722  23.603   6.585   3.259
63292W        W29723  19.499   3.825   2.810
63293W        W29724  24.363  25.380  13.008
63294W        W29725  26.532  20.243  14.891
63295W        W29726  25.794  40.295   4.179
63296W        W29727   3.264  32.411   2.716
63297W        W29728   1.739  18.994  13.511
63298W        W29729  18.177  27.030   4.993
63299W        W29730  18.818  23.087   3.649
63300W        W29731  11.269   1.684  12.203
63301W        W29732   6.245  41.814   0.286
63302W        W29733  36.014   4.249  14.101
63303W        W29734  44.430  17.024  10.646
63304W        W29735  16.611  30.989  14.408
63305W        W29736   5.437  35.052   2.624
63306W        W29737  14.710  20.081   1.672
63307W        W29738  44.312  32.685  11.676
63308W        W29739  33.431  42.857  11.892
63309W        W29740   7.708  11.654  14.851
63310W        W29741  38.582  42.410  13.916
63311W        W29742  23.547  11.796   2.204
63312W        W29743  40.113  44.453   2.737
63313W        W29744  42.686   4.961   4.597
63314W        W29745  32.937  10.226  11.054
63315W        W29746  26.284  29.320   4.549
63316W        W29747  19.128  38.893   4.528
63317W        W29748   3.773  15.734   4.062
63318W        W29749  22.720   2.443   4.287
63319W        W29750  28.721   9.271   4.275
63320W        W29751  32.161  15.619   1.633
63321W        W29752  42.021  24.940   3.423
63322W        W29753  12.810  27.006  14.618
63323W        W29754  29.471   9.715  13.004
63324W        W29755  10.388  40.826   4.711
63325W        W29756  12.785  29.097  11.530
63326W        W29757  22.915   1.056  14.917
63327W        W29758   6.060   4.096   2.686
63328W        W29759  36.726  31.488  11.098
63329W        W29760  10.691  28.911   3.316
63330W        W29761  42.372  13.344   3.408
63331W        W29762  16.282  43.333   1.301
63332W        W29763  27.963  16.557  14.535
63333W        W29764  38.293  43.789   2.264
63334W        W29765   5.470  39.454   3.884
63335W        W29766   4.200  39.427  10.547
63336W        W29767  40.816   9.811   5.003
63337W        W29768  31.945   8.225   2.134
63338W        W29769  18.609   5.470  14.010
63339W        W29770  42.479  39.035  11.913
63340W        W29771  35.064  11.916   2.336
63341W        W29772   8.449  18.300   2.771
63342W        W29773  37.934  11.563  14.824
63343W        W29774   2.802  23.285  14.947
63344W        W29775   3.202  22.769   2.355
63345W        W29776   2.932  13.649  12.175
63346W        W29777  40.284  42.623  11.123
63347W        W29778  42.598  24.583  13.942
63348W        W29779  10.666  18.958  12.344
63349W        W29780  14.244  22.899  13.019
63350W        W29781  32.450   0.367   4.623
63351W        W29782  44.474   2.151  11.445
63352W        W29783  10.780  13.631  12.951
63353W        W29784  28.834  31.392  11.854
63354W        W29785  44.804  40.103   4.644
63355W        W29786   7.884  34.345  12.972
63356W        W29787  11.564  18.277  10.183
63357W        W29788   4.404  14.056  11.526
63358W        W29789  38.331   5.286  13.327
63359W        W29790  39.954  25.154  10.629
63360W        W29791  27.179  41.612  14.778
63361W        W29792  29.972  20.980  10.267
63362W        W29793  44.509  11.611  13.358
63363W        W29794  16.084  18.216  13.471
63364W        W29795  28.964  17.098  14.055
63365W        W29796  35.753   5.943  12.971
63366W        W29797  13.660   6.520  13.397
63367W        W29798  29.557  31.069   4.599
63368W        W29799   6.747  22.726   2.403
63369W        W29800  27.959  22.851   3.837
63370W        W29801  12.666  21.746  14.848
63371W        W29802   5.523  36.594   3.711
63372W        W29803   6.803  23.643   1.172
63373W        W29804  28.087  25.012   0.963
63374W        W29805  16.681  27.675  13.931
63375W        W29806   2.733   6.282  14.888
63376W        W29807  30.406  27.152  13.114
63377W        W29808  22.085  32.383  12.859
63378W        W29809  41.094  15.828  12.400
63379W        W29810  38.082  34.673  13.879
63380W        W29811  27.440  28.133  11.584
63381W        W29812  14.206  22.674  14.511
63382W        W29813  19.218  43.495  14.889
63383W        W29814  38.200  19.598   3.682
63384W        W29815  20.441  22.786  14.764
63385W        W29816   8.634  35.990   1.373
63386W        W29817  25.799   2.590  11.906
63387W        W29818  24.222  39.040  12.500
63388W        W29819  19.561  11.042   4.088
63389W        W29820  41.711  17.988   1.634
63390W        W29821  17.413  33.056  11.673
63391W        W29822  28.412  34.751   1.796
63392W        W29823  14.344  13.515  11.246
63393W        W29824  20.318  41.233  14.290
63394W        W29825  24.689  39.472   1.939
63395W        W29826  43.321  21.028  12.686
63396W        W29827  16.635  41.946   1.228
63397W        W29828  36.364  34.300  12.497
63398W        W29829   9.095  14.101   3.692
63399W        W29830  24.610   2.916   3.175
63400W        W29831  33.890  29.658  11.812
63401W        W29832  22.051  31.019   1.043
63402W        W29833  41.355   3.431   2.354
63403W        W29834  10.849  35.374   4.662
63404W        W29835  17.314  33.156   1.586
63405W        W29836  44.134  25.975   4.126
63406W        W29837   4.509   4.936  10.610
63407W        W29838  13.602  12.220  11.670
63408W        W29839  40.500  30.081  13.511
63409W        W29840  16.064  36.614  10.693
63410W        W29841  13.794  31.674  12.047
63411W        W29842  15.780   4.422   3.628
63412W        W29843  35.906   9.238   1.700
63413W        W29844  31.636  13.337  12.637
63414W        W29845   5.631  14.856  13.993
63415W        W29846  31.838  40.839  12.573
63416W        W29847  10.446  41.756  14.875
63417W        W29848   7.663  20.630   0.736
63418W        W29849  19.248   3.433   0.214
63419W        W29850  32.358   2.855   1.722
63420W        W29851  29.116  43.484  10.570
63421W        W29852  16.026  14.344   0.636
63422W        W29853  16.548   8.711   3.736
63423W        W29854  36.893  29.861   4.094
63424W        W29855  27.495   4.189   1.372
63425W        W29856  41.092  20.713  12.118
63426W        W29857  18.072  28.672   0.255
63427W        W29858   2.139   6.324   1.338
63428W        W29859  26.840  37.242   4.520
63429W        W29860   4.948  31.619   2.055
63430W        W29861   6.021  15.802   1.758
63431W        W29862  23.129  16.894  12.428
63432W        W29863  40.891  15.266   1.290
63433W        W29864  14.553   8.553   1.680
63434W        W29865  24.607  13.389  12.885
63435W        W29866   3.630  25.766   1.303
63436W        W29867  32.618  42.854   2.602
63437W        W29868  24.479  36.504   1.419
63438W        W29869  44.362  44.880  13.496
63439W        W29870  37.428  25.044   3.099
63440W        W29871  35.352   0.841  14.932
63441W        W29872  28.016  10.222   3.549
63442W        W29873  33.122  44.043  11.178
63443W        W29874  28.185  20.240   3.373
63444W        W29875  32.734  21.785  11.591
63445W        W29876   6.459  26.919  12.950
63446W        W29877  25.104  43.839   4.596
63447W        W29878  22.710  43.741  12.953
63448W        W29879  15.185  21.722  12.946
63449W        W29880  19.575  40.753   1.197
63450W        W29881  27.573  17.627   1.932
63451W        W29882   4.683   2.176  10.700
63452W        W29883  11.815  12.444  13.452
63453W        W29884  24.018  15.546  13.423
63454W        W29885  38.053   7.769  14.482
63455W        W29886  36.148  42.035   3.606
63456W        W29887  14.868  22.046   3.663
63457W        W29888  15.583  41.395   5.136
63458W        W29889  23.151  28.343  11.752
63459W        W29890  37.804  24.246   2.535
63460W        W29891  20.757  23.074   1.707
63461W        W29892  13.694  20.009   2.797
63462W        W29893  41.957  16.839   4.392
63463W        W29894   7.835   9.251   4.498
63464W        W29895   5.076  20.566   4.753
63465W        W29896   2.863   3.983   0.029
63466W        W29897  40.301  43.020  13.911
63467W        W29898  34.327   3.742   2.740
63468W        W29899  37.658  30.704   2.290
63469W        W29900  34.880  21.559  11.090
63470W        W29901  18.581   4.877   3.187
63471W        W29902  21.702  21.735  12.035
63472W        W29903  15.580  29.177  13.336
63473W        W29904  42.496  14.591   2.663
63474W        W29905  24.682  38.302  12.400
63475W        W29906  13.405   5.830  12.108
63476W        W29907  38.023  29.403   2.824
63477W        W29908  10.667   1.143  13.544
63478W        W29909  34.827   8.936  14.846
63479W        W29910  34.863  32.009  11.389
63480W        W29911  14.884  15.624   4.625
63481W        W29912  15.919   2.226  14.366
63482W        W29913  27.957  10.054  13.825
63483W        W29914  21.678  20.186   1.743
63484W        W29915   8.686  39.496   1.919
63485W        W29916   7.875  27.445   1.853
63486W        W29917  20.503  11.305   4.874
63487W        W29918  31.073  35.511  13.359
63488W        W29919  16.362  14.606   3.087
63489W        W29920  18.606   3.990   1.793
63490W        W29921  26.010  23.231  11.400
63491W        W29922  30.813  10.073  11.976
63492W        W29923  38.955  34.322   3.711
63493W        W29924   0.595  25.197   2.324
63494W        W29925  29.447  34.627   0.360
63495W        W29926  34.449   2.300  11.727
63496W        W29927  18.090  34.123  14.716
63497W        W29928   2.989  34.470  10.539
63498W        W29929   6.404  40.458   1.454
63499W        W29930  32.803  36.002   0.345
63500W        W29931  42.897  25.292  14.621
63501W        W29932  25.617  17.929  14.494
63502W        W29933   1.019  28.654   0.364
63503W        W29934   2.332  36.168  14.997
63504W        W29935  33.048  36.051   0.816
63505W        W29936  10.183  10.655   2.401
63506W        W29937  38.139  13.323   1.277
63507W        W29938  29.020  15.498  13.085
63508W        W29939  34.404   1.575   4.253
63509W        W29940  33.075  20.011  11.606
63510W        W29941  25.801  11.388  13.753
63511W        W29942   6.888   2.541   2.928
63512W        W29943  16.588   3.934   2.635
63513W        W29944   3.700   4.812   0.804
63514W        W29945  12.605  34.233  14.384
63515W        W29946   1.196   5.470  11.912
63516W        W29947  25.332  44.794  14.242
63517W        W29948  43.406  44.437  11.749
63518W        W29949  16.338  39.318  13.104
63519W        W29950  14.683  22.453   4.999
63520W        W29951  32.326  31.097   4.174
63521W        W29952  10.722   5.749   0.461
63522W        W29953   7.937  12.168   1.162
63523W        W29954  19.816  35.090  13.556
63524W        W29955  33.849  32.686  10.986
63525W        W29956  37.423  12.639   1.186
63526W        W29957   5.915  19.532  10.841
63527W        W29958  14.018  39.925  13.026
63528W        W29959  23.475  35.971   0.883
63529W        W29960  21.860  36.165   1.114
63530W        W29961  12.128  26.579   3.861
63531W        W29962  36.897  28.896  10.285
63532W        W29963   3.069  25.777   4.407
63533W        W29964  41.923   5.394  10.890
63534W        W29965  14.146  15.300   1.317
63535W        W29966   1.886   2.734   2.924
63536W        W29967  34.002  38.435   2.296
63537W        W29968  22.100  13.386   0.033
63538W        W29969  36.595  36.904  10.642
63539W        W29970  25.892  39.466  14.528
63540W        W29971   5.391   0.625   2.787
63541W        W29972   6.914  38.743  12.859
63542W        W29973  31.541  18.559  13.094
63543W        W29974   3.325   8.619   1.161
63544W        W29975  44.143  23.056   3.733
63545W        W29976   7.390  34.886   1.037
63546W        W29977  31.479  23.257   4.194
63547W        W29978  39.834   4.198  12.780
63548W        W29979  34.515   7.052  14.276
63549W        W29980  39.958   1.308  11.385
63550W        W29981  17.229  15.545  11.710
63551W        W29982   4.545   7.383  14.409
63552W        W29983  36.666  12.814   1.762
63553W        W29984   0.723   2.987   1.472
63554W        W29985  11.715   5.231   3.066
63555W        W29986   0.433  30.170   2.405
63556W        W29987  18.744  39.936   3.193
63557W        W29988   9.223  16.687  12.040
63558W        W29989  39.865  13.707   0.456
63559W        W29990  13.248  10.082   2.876
63560W        W29991  16.576  43.017   2.306
63561W        W29992  14.592  18.304   4.099
63562W        W29993  36.161  37.315  14.440
63563W        W29994  35.505  35.147  14.387
63564W        W29995  42.316   9.342  14.431
63565W        W29996  33.922  22.729  13.156
63566W        W29997   6.607  25.124  12.928
63567W        W29998  38.346  15.905  12.886
63568W        W29999  14.151  16.558   2.412
63569W        W30000  31.941  40.956   0.818
63570W        W30001  38.249  19.023   2.286
63571W        W30002  20.161  36.475   4.332
63572W        W30003  26.787  26.662  14.575
63573W        W30004  39.477   5.417  10.608
63574W        W30005  21.532  38.377   5.369
63575W        W30006  35.073  28.167  12.481
63576W        W30007  40.523  40.773  10.700
63577W        W30008  38.778  21.194  14.437
63578W        W30009  44.385  41.058  10.534
63579W        W30010  17.416  41.453   2.665
63580W        W30011  17.254  17.547   3.658
63581W        W30012  25.789  31.948   3.867
63582W        W30013  14.345  36.982   0.748
63583W        W30014   4.599  35.569  14.657
63584W        W30015   4.835   0.243   3.613
63585W        W30016  36.854  44.818  12.835
63586W        W30017  39.096  32.026  13.373
63587W        W30018   5.478  13.258   2.878
63588W        W30019  44.466  26.987  12.396
63589W        W30020  28.624  31.869   2.352
63590W        W30021  13.173  16.733   0.826
63591W        W30022  37.645  29.566   0.649
63592W        W30023  33.109  31.485   2.882
63593W        W30024   3.223  42.550  14.578
63594W        W30025  23.718  37.041  14.077
63595W        W30026  20.641  32.161  10.877
63596W        W30027   5.951   2.732   2.656
63597W        W30028  29.558  39.271   2.629
63598W        W30029  27.963  26.101  13.849
63599W        W30030   6.446  20.578  11.155
63600W        W30031  31.718  41.318  11.602
63601W        W30032  28.175  24.654  12.371
63602W        W30033  41.037   8.286   3.065
63603W        W30034   8.700  17.405   5.418
63604W        W30035  35.839   7.911  12.568
63605W        W30036   4.248   4.878   2.759
63606W        W30037  33.762  23.978   0.144
63607W        W30038  15.184  35.867   1.196
63608W        W30039  26.085  21.103   0.332
63609W        W30040  11.402  12.866  14.333
63610W        W30041   7.393  30.884   0.914
63611W        W30042  42.643  13.217  11.585
63612W        W30043  21.177  32.795   4.532
63613W        W30044  24.390  15.308  13.109
63614W        W30045   5.789  26.454  12.603
63615W        W30046   6.534   4.986   1.547
63616W        W30047  22.098  32.474   0.443
63617W        W30048  40.097   9.630   0.660
63618W        W30049   3.813  41.880  11.669
63619W        W30050  10.730  19.727   2.730
63620W        W30051  23.498  42.331   0.313
63621W        W30052  22.212   2.935   0.263
63622W        W30053  11.537  14.980  13.831
63623W        W30054  32.192  19.105  11.054
63624W        W30055  36.415  31.567   2.027
63625W        W30056  43.255  22.664  11.198
63626W        W30057  19.578  17.952   1.828
63627W        W30058  31.635  18.557   2.927
63628W        W30059  40.093  22.157  10.504
63629W        W30060  14.170  36.281  10.662
63630W        W30061  19.733  40.900   2.048
63631W        W30062  13.258   8.155   2.769
63632W        W30063   7.397  38.111  13.456
63633W        W30064  17.326  37.567  11.882
63634W        W30065  12.671  33.793   0.150
63635W        W30066  26.432  14.612   2.308
63636W        W30067   6.720  13.188   3.217
63637W        W30068  41.699  30.407  13.933
63638W        W30069  43.075   0.818  11.657
63639W        W30070  43.733   6.246  11.612
63640W        W30071   3.020  19.810   0.686
63641W        W30072  14.858  21.632  11.144
63642W        W30073  37.432  39.748   3.130
63643W        W30074   3.650  33.932  10.646
63644W        W30075  22.370  43.792   4.949
63645W        W30076   4.743  24.291  14.399
63646W        W30077   7.004  42.573  10.303
63647W        W30078  36.423  20.342   2.678
63648W        W30079  28.143  42.327  12.060
63649W        W30080  22.155   8.649  12.160
63650W        W30081   0.578  44.256   4.923
63651W        W30082   9.906  31.908  12.313
63652W        W30083  39.535  26.555   2.159
63653W        W30084  12.643   3.490  11.062
63654W        W30085   3.591  42.390  11.932
63655W        W30086  26.763  35.477  10.417
63656W        W30087  26.492  22.874  12.118
63657W        W30088  29.280  14.793   2.197
63658W        W30089   2.226  31.926  11.620
63659W        W30090  36.555   6.681   0.302
63660W        W30091  37.501  35.969   1.364
63661W        W30092  16.866  18.884  14.543
63662W        W30093  13.846  23.511   1.254
63663W        W30094   3.281  44.873  10.897
63664W        W30095  34.683  39.754   0.863
63665W        W30096  18.635   4.013   4.542
63666W        W30097  22.115  44.279  13.599
63667W        W30098  40.070   3.880   4.825
63668W        W30099  35.062   1.973  12.531
63669W        W30100  18.127  21.728  12.693
63670W        W30101  33.871  15.807  12.424
63671W        W30102  33.543  24.831   1.429
63672W        W30103  14.345   2.730  10.119
63673W        W30104  35.541   5.340   0.288
63674W        W30105  26.285  17.369   2.813
63675W        W30106  14.263  38.007  14.772
63676W        W30107  29.421  21.402  11.186
63677W        W30108  11.141  39.314  13.271
63678W        W30109   1.488   5.611  14.007
63679W        W30110  14.649   1.021  11.015
63680W        W30111   9.187  36.143  13.467
63681W        W30112  28.437  28.033  14.972
63682W        W30113  28.512  21.082   4.185
63683W        W30114  44.763   9.407  11.384
63684W        W30115   5.710   7.693   3.320
63685W        W30116  10.478  14.229   4.535
63686W        W30117  24.659  22.764  14.794
63687W        W30118  30.439  12.387   0.556
63688W        W30119   6.756  33.851  13.588
63689W        W30120  14.619  11.293   4.672
63690W        W30121  34.358  21.303  10.975
63691W        W30122   8.414  30.428  14.947
63692W        W30123   2.680  18.480  11.559
63693W        W30124  22.097  29.441   9.698
63694W        W30125  22.171   1.824  13.272
63695W        W30126  44.396  10.754  14.883
63696W        W30127  24.108   1.667  10.079
63697W        W30128  29.607  37.421   0.844
63698W        W30129  38.628  30.361   4.971
63699W        W30130   5.351  29.710  14.973
63700W        W30131  41.518  27.065  14.632
63701W        W30132  21.075  11.204  14.776
63702W        W30133  16.545  16.993  13.364
63703W        W30134  41.468   7.008  13.468
63704W        W30135  12.054  32.439  13.883
63705W        W30136  27.892  17.711  10.422
63706W        W30137  25.916  21.171  10.673
63707W        W30138  40.535  15.724   0.273
63708W        W30139  19.843  44.962   1.778
63709W        W30140  25.641  21.390  12.906
63710W        W30141  17.536  30.675   1.293
63711W        W30142  20.323  13.890  11.587
63712W        W30143   6.547   5.254  13.481
63713W        W30144  37.871  30.798   1.281
63714W        W30145  37.540  25.595   4.595
63715W        W30146  10.170  44.333  12.874
63716W        W30147  27.846  26.015   3.068
63717W        W30148  36.387  27.181   0.745
63718W        W30149   7.902  39.779  11.931
63719W        W30150  44.110  43.489  12.069
63720W        W30151  35.782  18.370   4.157
63721W        W30152  10.618  37.301  13.801
63722W        W30153  41.258  38.922   3.237
63723W        W30154  26.912  29.163   4.242
63724W        W30155  26.736  12.626  14.545
63725W        W30156   2.723  34.528  14.497
63726W        W30157  32.512  44.910   0.904
63727W        W30158  18.565  35.729  12.443
63728W        W30159  31.467  18.102   2.703
63729W        W30160   0.227  39.782  10.995
63730W        W30161  40.780  40.001   4.673
63731W        W30162  23.692  40.785   3.590
63732W        W30163  38.411  42.745   2.494
63733W        W30164  31.559  38.921  10.266
63734W        W30165  12.008  18.266   3.129
63735W        W30166  33.200  13.825  13.012
63736W        W30167  31.475  22.758   4.208
63737W        W30168  16.307  21.711   2.094
63738W        W30169   9.904  19.736   4.142
63739W        W30170   7.878   4.367   4.110
63740W        W30171  19.189  43.722   3.024
63741W        W30172  36.992   2.287  14.045
63742W        W30173   8.834  39.369   1.444
63743W        W30174   6.268   5.755   0.200
63744W        W30175  14.632  16.903   1.792
63745W        W30176   3.167  32.180   9.963
63746W        W30177   0.341  32.042  10.741
63747W        W30178  13.050  44.512   1.223
63748W        W30179  36.496  13.112  14.075
63749W        W30180   5.719  40.843   3.355
63750W        W30181  23.490   2.386   3.332
63751W        W30182  27.181   1.515   0.061
63752W        W30183  25.623   7.177   3.731
63753W        W30184  19.672  12.747   3.074
63754W        W30185  32.874  19.611   4.645
63755W        W30186  18.082   5.693   0.325
63756W        W30187   8.189  12.775  11.611
63757W        W30188  30.501  38.750  14.068
63758W        W30189  22.274  43.507   0.697
63759W        W30190  35.779  24.130   1.923
63760W        W30191  37.356  35.677   2.270
63761W        W30192  11.833  14.247   4.351
63762W        W30193  16.727  35.350  13.896
63763W        W30194  39.264  39.997  11.733
63764W        W30195   3.805   7.824  11.268
63765W        W30196  21.882   9.243   0.856
63766W        W30197  16.256  30.901   2.309
63767W        W30198  36.890  25.697  13.909
63768W        W30199  40.991  21.692  12.104
63769W        W30200  38.019  11.744   3.649
63770W        W30201   4.908   0.937  11.705
63771W        W30202  29.382  40.872   3.313
63772W        W30203  32.835  39.371  14.382
63773W        W30204   0.474  40.234   2.191
63774W        W30205  24.558   8.647  14.956
63775W        W30206  28.062   5.697  14.295
63776W        W30207  27.077   2.405  12.236
63777W        W30208  38.941  24.368   3.347
63778W        W30209  34.712  38.318  11.208
63779W        W30210  23.784  15.280  14.845
63780W        W30211  38.480  32.021   3.634
63781W        W30212  33.131   0.433  12.931
63782W        W30213  29.068  43.049   3.304
63783W        W30214  26.610  43.292   4.927
63784W        W30215  10.448  23.426   0.334
63785W        W30216  27.699  12.820  14.502
63786W        W30217  37.520  41.316  12.623
63787W        W30218  26.156   3.619   0.801
63788W        W30219   3.774  40.347  12.432
63789W        W30220  11.898  19.193  14.875
63790W        W30221  29.695  34.958   3.204
63791W        W30222  17.750  16.246   1.331
63792W        W30223  33.428   1.517   4.224
63793W        W30224  38.261  17.885  10.970
63794W        W30225  39.473  42.350  14.555
63795W        W30226  29.568  18.689  10.585
63796W        W30227   4.810  11.915   3.640
63797W        W30228  26.593  43.463  10.913
63798W        W30229  39.948  42.434   2.823
63799W        W30230   9.874  24.457  10.562
63800W        W30231  41.799   7.477   0.891
63801W        W30232  16.248  32.642   1.706
63802W        W30233   7.763  34.633   2.221
63803W        W30234  23.035  16.573  14.923
63804W        W30235  28.117  41.568   3.099
63805W        W30236  41.438   2.478   1.513
63806W        W30237  31.441  29.915   4.231
63807W        W30238  36.551  31.467  14.215
63808W        W30239  17.101  38.599   1.431
63809W        W30240  38.702  11.571  14.530
63810W        W30241  19.835  27.438  11.495
63811W        W30242  32.079  42.093   4.284
63812W        W30243  34.015   2.260   1.998
63813W        W30244  26.452  30.134  11.609
63814W        W30245  29.901   3.083   0.347
63815W        W30246  33.542   2.131  11.523
63816W        W30247  40.343  26.478  12.172
63817W        W30248  13.753  33.041   4.431
63818W        W30249  21.292  40.711   0.887
63819W        W30250  30.875   8.779   1.369
63820W        W30251  44.818   9.300  12.382
63821W        W30252   9.418  20.360  12.136
63822W        W30253  25.125   8.714  12.085
63823W        W30254  36.144  43.531  13.420
63824W        W30255   5.766   7.966   2.870
63825W        W30256  29.487  44.494  11.492
63826W        W30257  13.087  21.748   3.719
63827W        W30258  43.724  38.524   0.396
63828W        W30259  26.962   1.438   1.878
63829W        W30260  44.477  22.568  13.358
63830W        W30261  16.669   1.216  12.544
63831W        W30262  41.342  44.483  13.815
63832W        W30263  17.486   2.842   4.622
63833W        W30264  20.564  35.065   1.100
63834W        W30265  20.230  37.397   2.456
63835W        W30266  36.939  26.755   1.157
63836W        W30267  43.332   1.816  13.252
63837W        W30268   3.007   4.811  13.430
63838W        W30269  19.042  18.371  11.571
63839W        W30270  18.252   7.415  11.552
63840W        W30271  13.939  23.487  13.712
63841W        W30272   3.821   4.401  10.766
63842W        W30273  42.191  37.160  11.182
63843W        W30274   2.525  41.474   2.143
63844W        W30275  12.239   0.223  14.265
63845W        W30276  26.529   3.499   4.119
63846W        W30277  17.865   1.696   1.700
63847W        W30278  37.403  29.522   4.944
63848W        W30279  41.257  41.868   4.673
63849W        W30280   6.277  36.581   1.836
63850W        W30281   3.290   8.625  13.527
63851W        W30282  10.748  10.267  12.029
63852W        W30283  31.819  28.969   2.447
63853W        W30284   6.353  11.245   2.431
63854W        W30285   7.134  11.285   2.807
63855W        W30286  18.279  36.312   3.204
63856W        W30287   1.001  24.664   2.739
63857W        W30288  15.552  41.590  12.423
63858W        W30289  32.936  12.662  12.461
63859W        W30290  25.201  14.360  10.977
63860W        W30291  11.596  43.551  14.024
63861W        W30292  38.834  39.326   0.881
63862W        W30293  43.936  29.853  13.448
63863W        W30294  15.594  31.192  10.483
63864W        W30295  30.721  41.423  11.556
63865W        W30296  15.829   5.266  14.135
63866W        W30297  34.794  10.944   2.385
63867W        W30298  42.880  28.226  13.533
63868W        W30299   3.402  44.321   3.829
63869W        W30300  32.023  30.412  11.597
63870W        W30301  43.243  36.367   0.864
63871W        W30302  12.297  42.019  13.893
63872W        W30303  44.298  43.376  11.600
63873W        W30304  33.963  20.192   4.306
63874W        W30305  41.472  34.835   2.217
63875W        W30306  31.087  13.563   1.253
63876W        W30307   6.201  31.130  11.621
63877W        W30308  21.106   2.075   3.714
63878W        W30309   7.204  40.245   3.202
63879W        W30310   3.918   1.527   1.282
63880W        W30311  22.579   2.853   3.988
63881W        W30312  31.563  42.850  11.408
63882W        W30313  34.128  33.673  12.157
63883W        W30314  36.873  20.684   1.527
63884W        W30315  18.237  37.988   4.304
63885W        W30316  33.815   2.521   3.578
63886W        W30317  13.613  18.228   2.181
63887W        W30318   6.933  32.920   0.023
63888W        W30319  21.813   3.621  11.609
63889W        W30320  35.847   5.441   4.099
63890W        W30321  33.395  20.968  11.093
63891W        W30322  20.049   9.147   1.259
63892W        W30323   1.215  30.554  13.279
63893W        W30324   4.973   5.943  12.355
63894W        W30325  38.847  38.534   1.319
63895W        W30326  41.646  27.619  13.413
63896W        W30327  44.299   9.090  14.148
63897W        W30328  19.097  29.093   0.791
63898W        W30329  34.422  28.685   1.948
63899W        W30330  26.734   7.691   4.605
63900W        W30331  30.585  29.552   2.340
63901W        W30332  31.640  33.166   0.418
63902W        W30333   7.803  41.252  12.953
63903W        W30334  10.800  11.181   1.791
63904W        W30335  17.337  34.562   3.170
63905W        W30336  21.495  32.026  11.565
63906W        W30337  28.725  26.552  13.917
63907W        W30338  21.805  38.525   4.563
63908W        W30339   7.221  27.220  12.465
63909W        W30340  29.575  13.426   5.017
63910W        W30341  38.003  19.057  11.486
63911W        W30342  32.857  24.603  10.795
63912W        W30343  37.594  26.860   0.520
63913W        W30344  17.844   2.429  12.855
63914W        W30345  39.849  20.309  13.898
63915W        W30346   5.418  26.732  13.484
63916W        W30347  13.443  39.830   3.204
63917W        W30348  23.210   6.273   3.129
63918W        W30349  15.054  17.102  12.488
63919W        W30350   8.353  35.629   3.322
63920W        W30351  22.583  28.911   3.208
63921W        W30352   8.960   8.307  13.500
63922W        W30353  10.610  42.329   2.742
63923W        W30354  35.434  40.064  11.513
63924W        W30355  30.154  12.161  13.559
63925W        W30356   9.642  32.917  13.198
63926W        W30357  43.359  14.752  10.926
63927W        W30358   3.470  16.595  12.288
63928W        W30359  26.614  35.058  10.709
63929W        W30360  22.294  26.396  11.170
63930W        W30361  27.988  10.727   3.683
63931W        W30362  34.130  23.446   3.201
63932W        W30363  19.288  32.525   2.404
63933W        W30364  17.732  43.869  11.560
63934W        W30365  30.904  40.987   2.799
63935W        W30366  41.394  21.071  14.530
63936W        W30367  13.588  18.720   2.387
63937W        W30368   3.563  21.078   3.617
63938W        W30369  26.441  20.266  13.397
63939W        W30370  18.339  12.109  13.905
63940W        W30371  19.734  26.362   3.169
63941W        W30372  42.685  26.255  12.515
63942W        W30373  34.570   4.756   0.453
63943W        W30374  21.474  42.030   2.723
63944W        W30375  41.810  23.662   4.923
63945W        W30376  36.610  27.111  13.007
63946W        W30377   2.802  17.705  12.266
63947W        W30378  10.907  30.624  10.420
63948W        W30379  23.989  21.841  10.279
63949W        W30380  13.784  37.112  12.901
63950W        W30381  20.585  38.111  13.851
63951W        W30382  21.053  36.356   1.462
63952W        W30383   2.686  27.267   4.028
63953W        W30384   2.286  33.314   0.896
63954W        W30385  21.038  15.026   5.000
63955W        W30386  10.544   9.773  12.937
63956W        W30387  12.347  24.440   2.825
63957W        W30388  42.848  14.166  10.681
63958W        W30389   3.355  39.995   2.352
63959W        W30390  22.730  29.705   3.580
63960W        W30391  27.067  33.002  10.446
63961W        W30392  44.909   6.110   4.075
63962W        W30393  10.610  30.925   2.283
63963W        W30394  28.440   5.702  14.648
63964W        W30395  37.387   0.258  11.593
63965W        W30396  33.660  42.072  12.972
63966W        W30397   8.932  14.769  11.781
63967W        W30398  32.997  13.450   3.217
63968W        W30399  42.541  25.509   3.745
63969W        W30400  41.568  20.167  13.367
63970W        W30401  18.234   7.432   2.668
63971W        W30402  18.979  22.549   2.839
63972W        W30403  23.311  13.727  12.498
63973W        W30404  43.473  23.507   1.861
63974W        W30405  33.544  39.372  13.885
63975W        W30406  17.824  21.162  13.214
63976W        W30407   9.695  12.308  12.586
63977W        W30408  41.344   8.398  11.970
63978W        W30409  23.853  10.322  10.699
63979W        W30410   3.971  15.111  14.983
63980W        W30411  20.907  31.913   4.731
63981W        W30412  43.358  39.635   0.156
63982W        W30413  43.938  24.086  11.892
63983W        W30414   4.430  23.033  12.943
63984W        W30415  28.476  17.175   1.316
63985W        W30416   3.972  20.839  12.234
63986W        W30417  42.704  28.904  12.910
63987W        W30418  14.182  44.362  13.334
63988W        W30419  33.503  17.420  10.662
63989W        W30420   9.286  12.262  14.003
63990W        W30421   7.068   4.820   1.422
63991W        W30422   7.696  44.331   0.351
63992W        W30423  17.629  42.254   0.152
63993W        W30424  33.979  35.168   2.922
63994W        W30425  14.973  31.812   3.758
63995W        W30426  33.318  29.291   2.441
63996W        W30427  37.383   2.008   4.462
63997W        W30428  35.496   6.190  14.929
63998W        W30429   1.199  24.619   4.356
63999W        W30430   2.849  33.289  12.000
64000W        W30431  10.590  21.055  12.466
64001W        W30432  14.268  19.263   2.826
64002W        W30433  29.882  31.641   3.426
64003W        W30434  10.821  42.038   3.269
64004W        W30435  18.596  13.091   3.313
64005W        W30436   2.988  30.170   3.749
64006W        W30437  44.983  23.380   3.550
64007W        W30438  31.852  44.275  14.810
64008W        W30439   2.388  15.288   2.784
64009W        W30440  36.088  44.351   2.376
64010W        W30441  30.901  18.213   2.385
64011W        W30442  41.610   8.753   1.375
64012W        W30443  37.418  27.992   2.603
64013W        W30444  40.775  11.300  13.535
64014W        W30445   5.684  30.627   0.378
64015W        W30446  14.834  41.319  14.804
64016W        W30447  11.626  13.784   5.088
64017W        W30448   8.103  27.879  14.419
64018W        W30449   4.300   8.987   0.303
64019W        W30450   9.717  23.002  12.416
64020W        W30451  14.343  11.769  12.844
64021W        W30452  24.049   2.435   1.775
64022W        W30453  12.142  15.336   1.360
64023W        W30454   2.241  12.372  13.354
64024W        W30455  14.886  37.089  12.538
64025W        W30456  39.803  21.520   2.780
64026W        W30457  19.690  23.236   1.503
64027W        W30458  24.534  31.693   4.133
64028W        W30459  29.044   5.194  13.489
64029W        W30460  36.992  15.673  11.119
64030W        W30461  20.736   9.583   0.820
64031W        W30462  10.156  32.074  11.668
64032W        W30463  28.369   9.860  10.751
64033W        W30464  21.578  29.344   9.575
64034W        W30465   5.389  35.587  12.125
64035W        W30466  14.821  11.848  11.414
64036W        W30467  31.612  38.043   3.339
64037W        W30468  38.783  24.953   3.236
64038W        W30469   6.827  16.515   0.917
64039W        W30470  18.338   3.414  11.999
64040W        W30471  14.229  27.235  14.548
64041W        W30472  13.623  25.507  10.765
64042W        W30473  16.564  10.267  13.466
64043W        W30474  12.311  23.024  13.359
64044W        W30475   5.275  24.189   2.295
64045W        W30476   1.958  33.465  12.062
64046W        W30477   7.823  15.199  13.881
64047W        W30478   2.076  41.884  10.736
64048W        W30479  14.008  36.265  12.973
64049W        W30480  14.392  38.166  13.511
64050W        W30481  25.133  43.875   1.424
64051W        W30482  44.799  28.839   3.759
64052W        W30483   7.104  27.010   3.433
64053W        W30484  15.830   0.754  12.608
64054W        W30485  17.090  22.697  12.353
64055W        W30486  35.926   9.912  11.142
64056W        W30487   4.521  22.711   1.252
64057W        W30488  43.283   2.962  12.402
64058W        W30489   7.473   1.088  11.597
64059W        W30490  28.414  23.186  10.660
64060W        W30491  30.163  23.076   2.439
64061W        W30492  40.562  36.958  12.114
64062W        W30493   5.991  33.963   2.604
64063W        W30494  36.164   4.793   0.644
64064W        W30495   0.710  44.495   2.282
64065W        W30496  31.119  33.384   0.923
64066W        W30497  28.363  37.358  12.031
64067W        W30498  40.717  32.957  10.234
64068W        W30499  41.815  24.543  11.791
64069W        W30500  19.876  40.472   4.197
64070W        W30501  15.032   0.784  11.276
64071W        W30502  28.593  33.445  13.888
64072W        W30503  24.489  41.357   0.537
64073W        W30504  44.819   9.900  11.664
64074W        W30505   3.362  43.907  12.383
64075W        W30506  32.489  23.049  11.660
64076W        W30507  13.766  25.586   0.746
64077W        W30508  32.882  39.938   1.449
64078W        W30509  36.949   2.817  11.714
64079W        W30510  10.743  16.898  12.004
64080W        W30511  15.012  27.086  13.745
64081W        W30512  23.149  20.257  13.153
64082W        W30513   9.269  11.773   4.430
64083W        W30514   0.124  37.384  11.115
64084W        W30515  17.117  21.111  11.984
64085W        W30516  13.860  10.887   1.651
64086W        W30517  17.187  25.128  14.744
64087W        W30518  11.667  35.053  11.190
64088W        W30519  38.609  33.989   2.726
64089W        W30520  29.763  33.526   1.331
64090W        W30521  37.990  43.617   3.613
64091W        W30522  14.693  16.256  10.341
64092W        W30523   4.615  28.479  12.082
64093W        W30524  42.341  41.095  13.581
64094W        W30525  39.963  31.290   9.802
64095W        W30526  18.552  15.320  11.585
64096W        W30527  35.714  26.858  12.105
64097W        W30528   0.772   7.406  12.999
64098W        W30529   0.325  26.978  13.983
64099W        W30530  35.936  37.405  13.097
64100W        W30531  18.955  41.038   2.435
64101W        W30532  34.263  14.828   4.262
64102W        W30533  10.175  41.429   2.835
64103W        W30534  33.489   5.765   2.157
64104W        W30535   7.805  43.869   2.260
64105W        W30536  29.918  19.627  13.879
64106W        W30537  44.482  25.063   0.474
64107W        W30538  31.362  16.682   3.375
64108W        W30539  13.600  30.243  13.078
64109W        W30540  32.927  31.792  11.606
64110W        W30541   7.402  11.242   2.314
64111W        W30542  24.003  16.163  11.380
64112W        W30543  43.845  32.045   1.815
64113W        W30544  35.913  29.004  12.578
64114W        W30545   9.107  32.467   3.280
64115W        W30546   3.778  18.191  11.149
64116W        W30547   7.276  23.780  11.334
64117W        W30548  15.572  43.355   3.594
64118W        W30549   5.785  37.952   2.294
64119W        W30550  25.197  27.554   0.546
64120W        W30551  17.163  36.187   0.898
64121W        W30552  22.740  22.847   1.514
64122W        W30553  16.765  12.066  12.664
64123W        W30554  35.122  36.852   4.469
64124W        W30555  15.585  43.577  11.433
64125W        W30556  14.642  29.798   1.673
64126W        W30557  15.797   6.779  10.700
64127W        W30558  16.052  21.034   1.410
64128W        W30559  44.940   4.354   3.935
64129W        W30560  40.273  11.855  12.926
64130W        W30561  17.096  23.704   4.098
64131W        W30562   2.693  19.473  14.358
64132W        W30563  11.964  42.056   3.880
64133W        W30564  36.073  27.190  13.943
64134W        W30565  11.924  24.601  14.638
64135W        W30566  39.339  44.046   1.814
64136W        W30567  36.991  34.168   3.647
64137W        W30568  20.510   6.808   4.668
64138W        W30569  30.894   9.167  12.054
64139W        W30570  31.417   4.979  12.586
64140W        W30571  23.071  11.818  13.156
64141W        W30572   9.047   5.281  13.070
64142W        W30573  38.895  38.762  13.074
64143W        W30574  42.309  28.238   2.918
64144W        W30575   3.143   6.824   4.258
64145W        W30576  25.893  40.671  14.840
64146W        W30577  41.450   8.661   2.420
64147W        W30578  21.635  29.873  10.248
64148W        W30579  24.171   4.279  14.447
64149W        W30580  13.220  23.004  10.600
64150W        W30581  40.680  30.814   4.053
64151W        W30582   2.783  32.456   1.906
64152W        W30583   0.272  39.802   2.383
64153W        W30584  13.134  24.656   2.351
64154W        W30585  33.062  29.090   4.641
64155W        W30586  42.935  41.389   2.383
64156W        W30587  39.371  41.977  13.986
64157W        W30588   1.951  22.516   4.103
64158W        W30589  23.113   2.233  10.939
64159W        W30590  40.849  35.466  13.866
64160W        W30591  12.321   2.382  12.380
64161W        W30592  32.088  12.595  11.452
64162W        W30593   2.271   5.414  11.134
64163W        W30594   2.405  23.637   2.544
64164W        W30595  15.800  11.870  10.697
64165W        W30596   6.000  14.615   1.355
64166W        W30597  37.600  15.856  13.894
64167W        W30598  24.922  17.794   0.381
64168W        W30599   5.821  13.972   2.742
64169W        W30600   3.049  37.917  13.054
64170W        W30601  31.361  20.321  13.549
64171W        W30602  14.478  41.588  10.109
64172W        W30603  19.877  42.936   3.747
64173W        W30604  26.682  22.484  13.649
64174W        W30605   5.315   1.203   1.400
64175W        W30606   1.208  25.608  11.984
64176W        W30607  38.693  27.389   4.051
64177W        W30608  28.073  15.736   1.361
64178W        W30609  16.708   6.378   3.845
64179W        W30610   7.628  40.092  14.934
64180W        W30611   7.345   2.055   3.948
64181W        W30612  19.447  23.789   1.408
64182W        W30613  41.629  42.253  12.944
64183W        W30614  44.287  32.366  12.079
64184W        W30615  10.780  33.816  13.912
64185W        W30616  15.823  24.394   0.076
64186W        W30617  35.165  11.236  11.069
64187W        W30618   7.755  34.314   4.145
64188W        W30619  11.174   0.837   0.540
64189W        W30620  33.514   3.810  14.089
64190W        W30621   3.085  10.243   0.975
64191W        W30622  26.392  29.209   2.747
64192W        W30623  25.304  44.079  11.540
64193W        W30624  34.375   5.533   0.657
64194W        W30625  12.833  37.306  14.822
64195W        W30626  32.141   5.360   1.249
64196W        W30627  15.285  33.190   2.262
64197W        W30628   3.552  33.767  11.114
64198W        W30629  15.686  31.983  14.863
64199W        W30630  34.915  15.767   3.226
64200W        W30631  32.169  13.755  13.913
64201W        W30632  34.926  23.630   3.469
64202W        W30633  27.935  25.272  14.122
64203W        W30634  27.170  41.285   3.196
64204W        W30635  19.991  28.995  12.233
64205W        W30636  28.720  38.237  10.924
64206W        W30637  13.703  28.983   1.488
64207W        W30638  39.416  35.030  10.734
64208W        W30639  37.095  11.373  13.808
64209W        W30640  25.636   7.469   1.327
64210W        W30641  32.166  15.333   2.299
64211W        W30642  15.365  12.113  14.736
64212W        W30643  14.780  40.341   4.810
64213W        W30644  14.091  13.553  12.604
64214W        W30645  41.076   6.344   4.606
64215W        W30646  27.979  28.509   2.870
64216W        W30647   5.920  10.665   3.666
64217W        W30648  36.319   8.176  11.403
64218W        W30649  13.361  38.789   1.681
64219W        W30650  35.284  25.196   4.703
64220W        W30651  19.287  37.814  13.539
64221W        W30652  37.750   6.991  11.584
64222W        W30653   6.833   7.833   1.595
64223W        W30654  26.220   4.422  11.642
64224W        W30655  36.696  37.746  12.519
64225W        W30656  13.105   3.320  12.223
64226W        W30657  19.540  36.920  11.423
64227W        W30658  28.244  22.175  12.670
64228W        W30659  16.036   1.780  11.644
64229W        W30660  23.655  32.212  14.025
64230W        W30661  36.881   9.800  11.890
64231W        W30662   1.523  22.806   2.824
64232W        W30663   8.890   8.735  14.076
64233W        W30664  36.609  25.350   3.556
64234W        W30665   3.915  16.647   3.701
64235W        W30666  34.006  16.876   0.864
64236W        W30667  33.074  10.347   3.156
64237W        W30668  20.569  41.035  13.874
64238W        W30669   4.224   4.232  13.837
64239W        W30670   3.183  13.759   2.673
64240W        W30671  18.166  39.075   2.782
64241W        W30672  39.809  16.147   0.441
64242W        W30673  44.944  36.442  13.132
64243W        W30674  13.308  17.780   0.465
64244W        W30675  17.081  32.457   3.167
64245W        W30676  31.550   7.440  11.463
64246W        W30677   0.975  43.298  12.249
64247W        W30678  12.952  32.067   2.404
64248W        W30679  44.308  28.598   1.617
64249W        W30680  10.843   4.338   1.323
64250W        W30681  29.391  36.094  12.566
64251W        W30682  20.274  24.027  10.531
64252W        W30683  29.141   5.396  13.962
64253W        W30684   0.916  13.774  14.875
64254W        W30685  18.776   2.783   2.231
64255W        W30686  37.419  12.234  13.546
64256W        W30687   7.256   4.502   1.065
64257W        W30688  36.095  16.019   3.658
64258W        W30689  26.648  13.340  13.835
64259W        W30690  34.739  40.653   4.498
64260W        W30691  34.041  18.750   4.389
64261W        W30692  37.127  27.445   9.772
64262W        W30693   1.543   7.454   1.769
64263W        W30694  25.207  21.651  12.686
64264W        W30695   3.491  20.196  13.432
64265W        W30696   0.286   2.208   5.080
64266W        W30697  32.224  32.926   1.664
64267W        W30698   2.535  34.739  13.785
64268W        W30699  11.139  34.638  12.273
64269W        W30700  24.493  23.190  14.490
64270W        W30701  28.588   3.121  11.107
64271W        W30702  40.905   8.345  13.851
64272W        W30703  13.866  11.082  12.505
64273W        W30704  42.010  11.412   0.350
64274W        W30705  12.982  17.391   0.539
64275W        W30706  24.403   2.748   1.378
64276W        W30707  21.754   1.026   4.027
64277W        W30708  36.574   8.476   0.476
64278W        W30709  22.043  31.512   0.846
64279W        W30710  39.125  33.974   2.835
64280W        W30711  30.526  27.447   2.607
64281W        W30712   7.359  13.275  13.033
64282W        W30713  30.666  12.156  12.485
64283W        W30714   8.693  40.929  12.287
64284W        W30715  36.499   2.070  10.818
64285W        W30716  13.828  13.391   3.787
64286W        W30717  40.916  14.101   2.921
64287W        W30718  33.869  22.994   2.191
64288W        W30719   0.426  14.388  14.615
64289W        W30720   6.503  16.605   0.373
64290W        W30721  15.999   0.268  13.123
64291W        W30722  37.834  30.594  14.915
64292W        W30723   2.250  41.276  14.471
64293W        W30724  32.888  29.138  12.538
64294W        W30725  36.963  12.587  10.821
64295W        W30726  40.479  15.307  13.954
64296W        W30727  36.572  37.868  11.446
64297W        W30728  23.743  38.349  10.712
64298W        W30729  35.656  21.036   2.087
64299W        W30730  29.596  14.885  13.214
64300W        W30731  21.060  38.854   2.373
64301W        W30732  31.058  18.424  11.336
64302W        W30733  11.289   1.314   0.342
64303W        W30734  20.080  11.567   4.715
64304W        W30735  25.148   2.971   4.804
64305W        W30736  36.366  41.769   1.758
64306W        W30737  19.884  30.814  13.906
64307W        W30738  39.942  43.412   0.914
64308W        W30739   1.672  40.313  12.496
64309W        W30740   6.431  42.711  13.127
64310W        W30741  35.772   1.570  12.927
64311W        W30742   3.897  23.586   1.264
64312W        W30743  18.644  43.108   5.082
64313W        W30744   5.784  37.482   1.900
64314W        W30745   9.281  37.339   0.690
64315W        W30746  22.224  13.423   3.794
64316W        W30747  37.144  43.719   4.029
64317W        W30748   3.467  13.308  14.453
64318W        W30749  17.645  32.027  11.416
64319W        W30750  21.054  24.048  14.765
64320W        W30751  18.746  17.569  12.793
64321W        W30752   9.134  30.431   3.400
64322W        W30753  28.258  14.841   2.761
64323W        W30754  37.103  33.438   0.966
64324W        W30755   3.332  27.827  13.521
64325W        W30756  27.676  16.252  13.068
64326W        W30757  16.700  18.639  12.371
64327W        W30758   1.447  16.481  12.931
64328W        W30759  43.019  26.733   1.409
64329W        W30760   4.313  11.235  11.966
64330W        W30761   4.522  39.516   0.984
64331W        W30762  13.513  26.933  12.439
64332W        W30763   9.727  16.205  14.298
64333W        W30764  17.308  20.082  11.019
64334W        W30765  41.327  35.854   4.251
64335W        W30766  17.808  10.830  10.946
64336W        W30767  30.416  41.107  13.097
64337W        W30768  23.087  10.018  12.432
64338W        W30769   9.870   3.299   1.786
64339W        W30770  12.238  26.473   0.751
64340W        W30771   1.022  27.303  10.648
64341W        W30772  27.507   2.426  13.174
64342W        W30773  28.854  10.198   3.129
64343W        W30774  20.797  14.635   4.720
64344W        W30775   0.801   7.660   4.700
64345W        W30776  27.130  24.238  12.044
64346W        W30777  17.642  35.428  11.172
64347W        W30778  29.864   1.754   1.217
64348W        W30779  30.537  26.117  10.766
64349W        W30780   1.645  14.797   0.029
64350W        W30781   5.778  29.517  14.773
64351W        W30782  19.729  34.987   4.573
64352W        W30783   5.609  30.466  10.660
64353W        W30784  15.695  25.217   0.684
64354W        W30785  44.832  26.651   4.211
64355W        W30786   7.450  19.587  10.763
64356W        W30787   7.926  32.801  13.022
64357W        W30788  16.840   0.856  12.892
64358W        W30789   9.905  23.127  10.690
64359W        W30790  25.508  13.627  13.955
64360W        W30791  44.337  35.397   1.823
64361W        W30792  43.254  36.516  13.389
64362W        W30793   2.773  41.178  11.875
64363W        W30794  30.065  39.046  13.961
64364W        W30795  16.980  11.177   0.902
64365W        W30796   6.777  36.525   1.969
64366W        W30797  33.418  36.903   0.874
64367W        W30798  37.989  15.668  10.933
64368W        W30799  36.094   2.266  11.649
64369W        W30800  38.911  31.434   1.184
64370W        W30801  40.470  21.511  12.132
64371W        W30802  15.488   1.393  10.462
64372W        W30803  35.032  22.968   4.322
64373W        W30804  41.991  14.321   1.301
64374W        W30805  15.021  26.249  14.112
64375W        W30806  10.708  17.644  14.841
64376W        W30807  42.838  13.897  13.537
64377W        W30808  38.431  41.803   3.312
64378W        W30809  30.220  27.961  11.951
64379W        W30810   3.304   2.934   3.902
64380W        W30811  31.012  26.932  10.761
64381W        W30812   0.853  44.284   4.472
64382W        W30813  33.837  23.196   3.535
64383W        W30814   9.264  29.524   3.338
64384W        W30815  14.600  23.186   1.656
64385W        W30816  38.483  10.386   3.229
64386W        W30817  19.226  39.431   4.573
64387W        W30818  12.479  23.590  11.275
64388W        W30819  16.239   9.662  10.952
64389W        W30820   6.272  24.230  12.533
64390W        W30821  44.376   2.496  12.379
64391W        W30822  40.399  27.992   0.483
64392W        W30823  20.231   7.461  13.918
64393W        W30824  36.402  10.290   3.116
64394W        W30825  31.800   2.292   4.910
64395W        W30826  22.672  14.412   0.963
64396W        W30827  40.333  32.586   3.639
64397W        W30828  33.931  28.131   1.720
64398W        W30829  38.961  19.249   3.728
64399W        W30830  39.471  34.509   2.171
64400W        W30831  44.828   7.982  12.059
64401W        W30832  36.293  24.157  14.836
64402W        W30833  12.226   3.953   3.233
64403W        W30834  16.600  43.626  12.630
64404W        W30835   2.990  17.325  14.945
64405W        W30836   9.224  32.120  10.485
64406W        W30837   6.035   5.232  13.492
64407W        W30838  16.110  29.932  13.856
64408W        W30839  38.801  34.857   1.286
64409W        W30840  26.561  34.297   3.644
64410W        W30841   7.657  12.176   2.663
64411W        W30842  34.626  18.130  14.087
64412W        W30843  37.855  41.018  10.250
64413W        W30844   2.676  37.375   4.186
64414W        W30845   1.769  32.483   2.712
64415W        W30846  38.145  42.453   4.799
64416W        W30847  27.718  15.058   1.132
64417W        W30848  30.889  16.722  13.166
64418W        W30849   5.583  13.682  12.052
64419W        W30850  11.428  27.130  13.002
64420W        W30851  16.108   2.929  12.062
64421W        W30852   2.892  10.956  11.446
64422W        W30853  16.304   3.403  13.872
64423W        W30854   3.420  38.815  13.913
64424W        W30855  15.868  22.159   4.575
64425W        W30856  14.780  21.074   0.764
64426W        W30857   4.591  20.942  14.158
64427W        W30858   5.019  32.567  10.282
64428W        W30859  18.798  37.350  11.465
64429W        W30860   6.929  20.219   4.762
64430W        W30861  32.146   5.298  11.083
64431W        W30862  26.859   9.937  11.975
64432W        W30863   9.654  35.223  12.603
64433W        W30864  20.082  11.402   2.139
64434W        W30865   3.591  22.513  10.406
64435W        W30866   9.713  37.134   0.895
64436W        W30867   5.709  11.630  11.830
64437W        W30868  14.890  42.241  11.459
64438W        W30869  18.300  14.845  11.657
64439W        W30870   2.876   3.883   3.642
64440W        W30871  40.859  12.725   4.588
64441W        W30872  43.499   7.391   1.465
64442W        W30873  37.564  23.653  13.013
64443W        W30874  33.860  41.323   1.814
64444W        W30875  27.432  16.552  11.541
64445W        W30876  13.555  31.470  13.799
64446W        W30877  23.028   9.152   4.273
64447W        W30878  10.266   7.136  14.401
64448W        W30879   2.025  28.519  13.231
64449W        W30880  42.810  18.336  14.429
64450W        W30881  12.086  18.725   1.379
64451W        W30882  34.580   2.208  13.395
64452W        W30883  34.201  32.221   1.273
64453W        W30884  21.001   0.028  12.816
64454W        W30885  14.079  43.837   1.814
64455W        W30886   5.443   4.322   1.881
64456W        W30887   2.371   1.421   4.207
64457W        W30888  25.419  13.275  13.569
64458W        W30889  14.194  10.642  11.638
64459W        W30890   2.351  32.091  12.531
64460W        W30891  18.734  23.008   4.635
64461W        W30892  11.688   7.350  10.060
64462W        W30893  34.665   5.762  12.051
64463W        W30894  42.867  16.099   3.941
64464W        W30895  15.841  15.988   2.649
64465W        W30896  38.907  26.682   2.930
64466W        W30897   0.344   9.474   1.658
64467W        W30898  18.727  38.535  13.303
64468W        W30899  18.043  20.517  13.941
64469W        W30900   0.026  13.337   1.773
64470W        W30901  18.181  35.941  14.640
64471W        W30902  26.667   7.923  10.711
64472W        W30903  36.382  40.916  13.870
64473W        W30904  14.857   9.750  12.532
64474W        W30905  17.831  36.798  14.511
64475W        W30906  29.071   3.973   0.082
64476W        W30907  37.911  38.041  14.792
64477W        W30908   0.571  19.990  11.181
64478W        W30909  30.039   0.898   0.208
64479W        W30910   2.790  36.441   1.173
64480W        W30911   1.274   8.675  14.694
64481W        W30912   1.209  22.499   4.463
64482W        W30913   6.230  44.685   1.923
64483W        W30914  22.369  26.481  14.796
64484W        W30915  12.466  19.043  12.511
64485W        W30916   2.944  12.730   1.308
64486W        W30917   7.995  41.703  14.835
64487W        W30918  11.192  29.527   0.052
64488W        W30919  18.133  12.095  11.463
64489W        W30920   3.790   0.764   3.679
64490W        W30921  40.293  22.461  12.136
64491W        W30922  44.374  18.188   1.786
64492W        W30923  18.011  40.162   1.192
64493W        W30924  21.045  10.149   1.788
64494W        W30925  16.927  38.841  14.499
64495W        W30926  32.246  23.129  12.093
64496W        W30927  24.636  28.214   2.649
64497W        W30928  30.067  42.044  13.007
64498W        W30929  23.608  44.524  10.589
64499W        W30930  33.020  20.353   3.141
64500W        W30931  16.485  35.694   1.610
64501W        W30932   1.332  42.851   1.937
64502W        W30933  28.189  41.711  10.948
64503W        W30934  11.850  18.096   0.327
64504W        W30935   5.424  15.844  13.392
64505W        W30936  24.027   4.330   4.184
64506W        W30937  31.194  22.139   3.396
64507W        W30938  18.649  23.586  11.616
64508W        W30939  44.697   8.723   4.586
64509W        W30940  38.887  35.832  13.044
64510W        W30941  14.738  43.239   4.180
64511W        W30942  12.862  26.079  11.956
64512W        W30943   7.904  33.634   2.147
64513W        W30944  16.582  25.001  12.112
64514W        W30945  26.418   4.178   3.798
64515W        W30946  16.826   7.942   1.775
64516W        W30947  11.776  31.470   3.224
64517W        W30948  11.134  42.776  11.914
64518W        W30949  36.841  16.802  14.476
64519W        W30950  41.061  25.743   1.283
64520W        W30951  29.000  21.064   4.394
64521W        W30952  32.054  25.555   0.041
64522W        W30953   7.579  34.854   3.758
64523W        W30954  21.767  14.674  12.394
64524W        W30955  37.595  38.930   2.657
64525W        W30956  27.705   6.685   1.646
64526W        W30957  22.732  15.721   3.854
64527W        W30958   5.817  32.007  12.662
64528W        W30959  22.525  11.044   2.732
64529W        W30960   9.545  44.566   1.931
64530W        W30961   3.008   1.886  12.767
64531W        W30962  32.338  11.798   3.856
64532W        W30963  42.261  27.556   3.611
64533W        W30964  35.138   4.121   1.507
64534W        W30965  26.598   0.089   3.373
64535W        W30966  36.577  30.083  12.656
64536W        W30967  28.055   1.732   0.353
64537W        W30968   7.735  24.451  10.755
64538W        W30969  27.353  40.480  12.083
64539W        W30970   3.029  33.883  13.349
64540W        W30971  42.967  33.856   2.429
64541W        W30972  22.569   7.655  13.518
64542W        W30973  42.862  41.044   3.666
64543W        W30974  23.495  31.189   2.404
64544W        W30975  18.540  20.473  10.727
64545W        W30976  32.682  13.713  13.917
64546W        W30977  24.518  39.981   2.794
64547W        W30978  41.174  35.465   4.559
64548W        W30979   0.066  23.567   1.817
64549W        W30980  16.737  25.083   5.269
64550W        W30981  27.198   6.933   1.634
64551W        W30982  41.077  42.938  12.473
64552W        W30983  23.604  33.998  14.359
64553W        W30984   8.000  37.136  12.055
64554W        W30985   1.329  35.488   1.107
64555W        W30986  25.179   9.868   2.458
64556W        W30987  27.229  30.027   0.063
64557W        W30988  10.841  20.133  13.888
64558W        W30989   0.301   4.092  11.935
64559W        W30990  43.513  43.895   1.784
64560W        W30991  41.976  31.655  11.239
64561W        W30992  24.145  12.264  13.553
64562W        W30993  26.061  21.609   0.167
64563W        W30994  38.880  23.794  11.983
64564W        W30995  28.027  15.081   0.697
64565W        W30996  12.739  20.096   1.807
64566W        W30997   1.428  32.838   3.481
64567W        W30998  26.763  21.287  14.853
64568W        W30999  30.630  39.780   4.484
64569W        W31000   2.890  25.920   0.273
64570W        W31001  42.830  18.817   0.372
64571W        W31002   8.304   7.303  14.958
64572W        W31003   1.516  22.114   0.339
64573W        W31004   5.132  27.048  10.560
64574W        W31005  37.137  37.623  14.431
64575W        W31006  18.195  37.148  10.736
64576W        W31007  42.261  13.845  13.974
64577W        W31008   9.651  17.147  13.478
64578W        W31009  41.217   4.882  11.891
64579W        W31010   2.989  21.603   2.295
64580W        W31011  13.870  24.536  13.496
64581W        W31012   4.704   4.905  13.456
64582W        W31013  20.745  13.587  13.459
64583W        W31014  23.813  20.669   0.430
64584W        W31015   2.700  24.767   4.119
64585W        W31016  25.991  11.483   3.238
64586W        W31017  12.221   7.740  12.940
64587W        W31018   6.935  42.855   4.486
64588W        W31019  44.742   5.706   0.300
64589W        W31020  26.770  19.099  12.626
64590W        W31021  39.296   6.670  10.766
64591W        W31022  11.392  20.627  12.591
64592W        W31023  25.980  37.607  13.842
64593W        W31024  20.584  22.712   4.578
64594W        W31025   2.280   8.595   3.932
64595W        W31026  28.574  42.956   4.286
64596W        W31027  28.153  39.606   4.196
64597W        W31028   4.260  34.103   4.960
64598W        W31029  28.570  11.947   4.651
64599W        W31030  24.663  29.105  14.047
64600W        W31031  11.110  37.167  12.900
64601W        W31032  32.518   0.151   2.805
64602W        W31033  30.305   2.782   0.487
64603W        W31034  19.234  15.326   5.125
64604W        W31035   9.044  39.088   3.985
64605W        W31036   1.857   7.329  14.438
64606W        W31037  10.216  24.255  14.523
64607W        W31038  35.482   6.185   2.150
64608W        W31039  18.645  24.173  13.808
64609W        W31040   5.712  27.054   2.944
64610W        W31041   9.656   2.643   3.566
64611W        W31042   1.925  30.187  11.997
64612W        W31043  41.795   2.163  12.187
64613W        W31044  17.125  19.548  10.108
64614W        W31045  32.482  34.878   1.665
64615W        W31046   4.196  25.726  13.861
64616W        W31047  37.406  14.696   2.590
64617W        W31048  29.591  11.406   3.802
64618W        W31049  40.857   6.675   1.592
64619W        W31050  16.058  22.139   2.000
64620W        W31051  16.228   0.326   4.282
64621W        W31052  39.050  33.578   3.210
64622W        W31053  31.713  14.629   2.639
64623W        W31054  24.494  27.063  10.062
64624W        W31055  32.083  19.059  14.812
64625W        W31056  33.421  11.103  11.935
64626W        W31057  11.788  19.363  14.388
64627W        W31058  21.771  39.408   2.839
64628W        W31059  11.584  25.308  14.453
64629W        W31060  16.417  28.751   2.744
64630W        W31061   4.484   8.871  13.445
64631W        W31062  25.473  22.730  11.397
64632W        W31063   3.906  25.634  13.438
64633W        W31064   3.210  19.524  14.427
64634W        W31065  24.814   9.688   2.782
64635W        W31066  21.447   9.397  11.057
64636W        W31067  36.350  17.390   3.254
64637W        W31068  26.607  11.907  11.475
64638W        W31069  27.669  14.608  14.999
64639W        W31070   6.868  33.563  12.088
64640W        W31071  33.948  27.464   3.498
64641W        W31072   0.994  44.173  10.765
64642W        W31073   0.368  31.095  12.953
64643W        W31074  37.589  34.163   5.432
64644W        W31075  27.566  30.815  13.086
64645W        W31076   3.478   0.694  13.031
64646W        W31077  40.300  39.401   3.142
64647W        W31078  14.651  21.989   5.208
64648W        W31079  34.551  39.636  13.762
64649W        W31080  39.437  10.522  13.843
64650W        W31081   8.727  11.189   0.661
64651W        W31082  21.174  15.114  11.144
64652W        W31083   5.654  24.338  14.891
64653W        W31084   0.490  11.270  11.932
64654W        W31085  16.671   5.304   2.544
64655W        W31086  31.371  13.279  13.912
64656W        W31087  35.679  28.591  13.424
64657W        W31088   5.780   6.957   2.633
64658W        W31089  32.148  34.844  12.966
64659W        W31090  26.943  24.566   1.860
64660W        W31091  18.108  44.069  14.348
64661W        W31092  19.341  29.544   0.744
64662W        W31093  39.738  11.261  13.448
64663W        W31094  37.432  20.770   4.251
64664W        W31095  38.905  21.721  12.165
64665W        W31096  25.517  14.568   0.320
64666W        W31097  20.667  19.298  13.336
64667W        W31098  12.826   0.207   0.940
64668W        W31099  42.700  19.749   1.437
64669W        W31100  30.254   6.871   1.334
64670W        W31101  36.836  36.056  10.285
64671W        W31102  14.127  39.960  13.920
64672W        W31103  15.247  20.038   3.130
64673W        W31104  22.646  30.424   1.847
64674W        W31105   7.601  15.415  12.893
64675W        W31106  36.918  41.870  13.972
64676W        W31107  16.188  30.345   4.155
64677W        W31108  34.054  16.044  10.582
64678W        W31109  31.070  23.970  11.853
64679W        W31110   2.747   8.670   4.144
64680W        W31111  37.907  13.396   4.498
64681W        W31112  35.894  17.667   2.165
64682W        W31113  23.048  35.524  12.020
64683W        W31114  30.564  33.535   2.252
64684W        W31115  14.729  43.536  11.712
64685W        W31116   0.721   1.372   0.154
64686W        W31117  34.574  39.266  14.666
64687W        W31118   6.679   7.039  11.175
64688W        W31119  29.543  17.317   3.661
64689W        W31120  34.670  16.976  14.542
64690W        W31121   7.125  21.607  12.923
64691W        W31122  37.645  25.193   1.190
64692W        W31123  29.672  41.621  12.996
64693W        W31124  29.955  18.050   0.840
64694W        W31125  38.515  33.656   4.010
64695W        W31126  40.901  21.767   3.777
64696W        W31127  25.027  15.109  12.866
64697W        W31128   4.947  39.928   3.596
64698W        W31129  35.908  12.414  10.552
64699W        W31130  41.956  16.130  14.287
64700W        W31131  43.842   7.794   2.796
64701W        W31132  32.922  19.390  14.461
64702W        W31133   7.850  40.962  10.735
64703W        W31134  15.133  14.895   1.143
64704W        W31135  15.299  16.817   2.726
64705W        W31136  17.166  17.099  11.209
64706W        W31137  31.028  41.535   2.726
64707W        W31138  32.623  39.231  14.844
64708W        W31139   2.541  37.118  11.102
64709W        W31140  23.292  18.172  14.400
64710W        W31141  37.962  32.490   1.881
64711W        W31142  10.087  19.175   0.150
64712W        W31143  21.696  32.973  12.100
64713W        W31144  27.983  32.155   3.153
64714W        W31145  39.574   4.923   0.313
64715W        W31146  37.681  14.263  14.610
64716W        W31147   4.329  15.655   3.150
64717W        W31148  25.039  26.428  11.163
64718W        W31149   3.775  26.108   0.248
64719W        W31150  41.190  24.538   1.421
64720W        W31151  27.100  40.909   2.760
64721W        W31152   2.260  14.121   2.357
64722W        W31153  10.067  31.562   0.124
64723W        W31154  13.656   9.681   4.053
64724W        W31155  10.714  23.916   4.140
64725W        W31156  39.332   0.874   0.399
64726W        W31157   3.184  25.070  13.390
64727W        W31158  43.280  33.421   1.797
64728W        W31159  26.208  27.644   3.636
64729W        W31160  34.439   8.651   0.677
64730W        W31161  35.258  18.157   3.295
64731W        W31162  23.629   5.404  10.468
64732W        W31163   4.886  22.329  13.267
64733W        W31164  26.520  12.914  11.553
64734W        W31165  24.339  12.655   4.204
64735W        W31166  12.096  10.694   2.998
64736W        W31167  27.523  17.291  14.580
64737W        W31168  40.493  10.561   0.436
64738W        W31169  44.261  10.407   3.357
64739W        W31170  12.089  32.527  11.485
64740W        W31171   3.666  19.580  14.817
64741W        W31172  25.978  39.762   5.608
64742W        W31173   5.491  29.669   4.021
64743W        W31174  43.761  34.923   1.728
64744W        W31175  21.965  16.150   2.457
64745W        W31176  31.539  13.529  11.525
64746W        W31177  39.964  27.901   0.772
64747W        W31178  39.872   1.938  13.517
64748W        W31179   3.406  29.609   1.908
64749W        W31180  23.768  25.433   0.773
64750W        W31181  38.097  13.857  12.233
64751W        W31182  28.445  17.957  11.061
64752W        W31183  23.992  15.878   4.098
64753W        W31184  20.109  13.683  13.801
64754W        W31185  43.427  21.046  11.218
64755W        W31186  36.014  40.019   1.224
64756W        W31187  31.362  10.094  12.019
64757W        W31188  42.244  17.167   2.144
64758W        W31189  27.723  11.264  12.976
64759W        W31190   0.042   6.888  14.719
64760W        W31191  41.806  26.902   0.005
64761W        W31192  29.280   4.696   3.452
64762W        W31193  30.576   3.197   0.314
64763W        W31194  10.111  18.025  13.245
64764W        W31195  26.250  11.389   2.253
64765W        W31196  35.915  39.124  13.027
64766W        W31197  11.915  14.582  11.458
64767W        W31198  34.415  32.446  14.256
64768W        W31199  27.232  12.656   2.809
64769W        W31200  41.481  26.087  12.677
64770W        W31201   9.709  19.000  11.568
64771W        W31202  33.436   0.200  11.697
64772W        W31203  14.737   6.461   5.008
64773W        W31204  22.512  18.463  14.785
64774W        W31205  33.721  25.566  13.131
64775W        W31206   8.316  41.333  14.387
64776W        W31207  38.017   2.213   1.761
64777W        W31208  30.504   8.866   0.590
64778W        W31209  24.496  15.676  10.624
64779W        W31210  38.790  18.379   0.904
64780W        W31211  33.432  20.095  10.131
64781W        W31212   3.466  31.049  14.421
64782W        W31213   3.203   9.075  10.694
64783W        W31214  31.252  20.434  11.823
64784W        W31215  23.947   0.806   3.569
64785W        W31216   8.300   4.718  12.950
64786W        W31217   5.825   5.654  14.491
64787W        W31218  24.269  18.179   1.801
64788W        W31219  28.062  19.278  13.038
64789W        W31220  12.851  28.473   2.615
64790W        W31221  42.543  12.921   3.170
64791W        W31222  41.157  39.508   3.699
64792W        W31223  42.546   3.059  12.900
64793W        W31224  21.278   0.424   5.095
64794W        W31225  28.053  29.845  12.466
64795W        W31226  21.936  12.769   4.531
64796W        W31227  41.259  34.357   2.226
64797W        W31228  29.961  15.760   1.208
64798W        W31229   0.953  36.424  14.285
64799W        W31230   3.103  36.294  10.658
64800W        W31231  23.545  44.688  11.635
64801W        W31232   8.689  37.033  12.356
64802W        W31233  34.594  19.788  10.715
64803W        W31234   7.902  27.664   0.353
64804W        W31235  12.205   8.336  12.627
64805W        W31236   1.442  44.044   1.012
64806W        W31237  36.916   5.505  14.888
64807W        W31238  20.886  41.533   2.258
64808W        W31239  35.866   6.897  13.597
64809W        W31240  18.365   6.013  11.121
64810W        W31241  21.164   4.048  12.843
64811W        W31242  40.384   1.410  11.077
64812W        W31243  13.713  11.114   4.201
64813W        W31244  11.669   4.768   0.399
64814W        W31245  10.709  24.403   2.224
64815W        W31246  39.946  22.146   2.325
64816W        W31247   1.435  25.937   0.541
64817W        W31248  19.153   5.728  10.888
64818W        W31249  22.618  21.747   1.991
64819W        W31250  36.633  39.935   3.427
64820W        W31251  31.587  33.117   0.932
64821W        W31252  22.522  20.450  14.304
64822W        W31253  22.832   5.442  11.261
64823W        W31254  20.426  22.785   1.389
64824W        W31255   1.531  26.494  11.556
64825W        W31256  34.940  33.064  13.856
64826W        W31257  38.587   6.304  14.864
64827W        W31258  22.301  31.129   1.469
64828W        W31259  30.780  18.740   3.007
64829W        W31260  40.962  32.945  14.762
64830W        W31261   3.714  20.176  13.892
64831W        W31262   6.641  27.021  11.476
64832W        W31263  44.803  14.364   4.137
64833W        W31264  28.965  23.189   1.828
64834W        W31265  21.727  10.723  12.630
64835W        W31266  41.054  28.906  11.019
64836W        W31267   5.160  42.740  13.384
64837W        W31268   8.350  26.541  13.973
64838W        W31269  32.422  34.722  13.406
64839W        W31270  19.139  30.921  11.657
64840W        W31271  20.130   6.674  13.466
64841W        W31272   0.003  13.081  14.318
64842W        W31273   9.457  15.021   2.791
64843W        W31274  44.892  32.450   2.354
64844W        W31275   4.674  19.922  12.372
64845W        W31276  28.889  24.773  11.220
64846W        W31277  18.299  32.439   3.856
64847W        W31278   4.431  34.429  11.607
64848W        W31279  20.400  26.099   1.355
64849W        W31280   1.875  21.835  12.445
64850W        W31281  31.544  10.206  10.715
64851W        W31282  26.011  25.999  13.646
64852W        W31283   0.724  39.398  13.021
64853W        W31284  38.385   4.668   4.050
64854W        W31285  33.601  36.267   3.223
64855W        W31286  12.789   1.467   1.402
64856W        W31287   5.393  26.708   4.844
64857W        W31288  34.360  16.109  14.906
64858W        W31289   7.276  24.644  14.554
64859W        W31290   8.042   4.839   1.440
64860W        W31291  41.907  16.336   2.410
64861W        W31292  30.995  16.538   0.870
64862W        W31293  41.942  32.855   2.943
64863W        W31294  24.244  37.559   2.829
64864W        W31295   9.674  15.858   2.910
64865W        W31296  14.738  42.862   4.524
64866W        W31297  12.600  15.940   2.633
64867W        W31298  27.036  21.994   1.737
64868W        W31299  43.494  36.601  10.743
64869W        W31300  18.771  19.866   4.513
64870W        W31301   0.278  23.050   1.756
64871W        W31302   1.321   8.081  14.048
64872W        W31303   4.978  31.641  14.524
64873W        W31304  20.389   1.615   4.240
64874W        W31305  16.003   9.807   1.299
64875W        W31306  10.201  40.213   3.830
64876W        W31307  15.780  35.574   0.738
64877W        W31308   9.108   9.658  14.193
64878W        W31309  11.957  35.932  11.678
64879W        W31310   3.240  11.406   2.381
64880W        W31311  38.822  41.943  11.687
64881W        W31312  10.105   0.795  10.725
64882W        W31313  13.591  29.528   4.624
64883W        W31314  25.541  44.862  13.763
64884W        W31315  27.146  33.109  10.946
64885W        W31316  41.892   7.092  14.605
64886W        W31317  11.585  24.080   3.616
64887W        W31318  40.658  11.336  11.907
64888W        W31319   8.118  36.611  11.974
64889W        W31320  42.908   1.962  11.630
64890W        W31321  26.152  32.604  14.031
64891W        W31322  14.608   3.755  13.868
64892W        W31323  15.007   0.910  12.046
64893W        W31324  38.529  31.539   1.794
64894W        W31325   1.705  14.539  13.530
64895W        W31326  20.779  32.438  14.159
64896W        W31327  37.081  40.274   0.710
64897W        W31328   4.332  37.331   0.053
64898W        W31329  24.754  12.147   4.709
64899W        W31330  33.537   9.538  10.565
64900W        W31331  42.297  23.562   4.630
64901W        W31332   4.814  43.432   4.140
64902W        W31333  19.990   6.535  11.547
64903W        W31334  31.080  11.815  14.414
64904W        W31335  37.827   7.687   3.239
64905W        W31336  12.613  26.218   0.483
64906W        W31337  17.553  17.106  10.418
64907W        W31338  37.914  44.202  11.035
64908W        W31339  41.041  37.933  11.245
64909W        W31340  38.800  17.367   0.845
64910W        W31341   9.970   4.700   2.314
64911W        W31342   7.856  11.699   3.968
64912W        W31343  32.935  11.093  13.066
64913W        W31344  22.247  26.286   0.260
64914W        W31345  23.795  22.042   1.748
64915W        W31346  22.538  33.833   1.962
64916W        W31347  11.659   1.779  12.512
64917W        W31348  35.854  10.244   0.521
64918W        W31349  17.003  28.554   3.725
64919W        W31350  38.589  17.271  13.973
64920W        W31351   0.450  33.612   4.964
64921W        W31352  21.807  10.270   2.323
64922W        W31353   9.344  11.727  13.863
64923W        W31354  23.019  25.135  10.518
64924W        W31355  40.970  12.186   0.966
64925W        W31356  15.503  43.384  12.889
64926W        W31357  10.792  44.722  13.570
64927W        W31358   6.945   4.169   0.028
64928W        W31359   4.316   3.826  12.518
64929W        W31360  38.001  13.805   1.001
64930W        W31361   4.968  30.330  13.966
64931W        W31362   1.442   5.246   4.215
64932W        W31363  38.976   6.968  12.839
64933W        W31364  39.063   1.965  13.383
64934W        W31365  19.684   7.903   2.559
64935W        W31366  10.180  13.794   4.552
64936W        W31367   6.112  32.116   4.358
64937W        W31368  12.523  37.122  11.085
64938W        W31369  34.169  44.439   4.533
64939W        W31370  23.524  40.493  12.906
64940W        W31371   8.761   7.429   4.670
64941W        W31372  23.125  42.255   3.556
64942W        W31373   6.334  29.693   0.478
64943W        W31374  21.551  18.719   9.894
64944W        W31375  38.111  26.665   3.638
64945W        W31376  26.015   6.654  11.987
64946W        W31377  32.819  36.017   2.755
64947W        W31378  44.902  19.589  14.463
64948W        W31379  16.796  36.114   3.232
64949W        W31380   8.443  20.114  11.877
64950W        W31381  35.310  30.098   2.818
64951W        W31382   9.296  22.460   1.201
64952W        W31383  36.536  42.905   4.403
64953W        W31384  24.244  37.327   3.300
64954W        W31385  19.227  12.152   0.229
64955W        W31386  33.160   8.692  10.695
64956W        W31387  30.509  33.303   3.088
64957W        W31388  20.517   0.558  11.190
64958W        W31389  11.673  15.606   3.891
64959W        W31390  25.554  25.718  12.467
64960W        W31391   8.082  39.281   2.612
64961W        W31392  36.537   5.174  11.474
64962W        W31393   7.444  30.164   2.964
64963W        W31394  16.018  20.750   4.238
64964W        W31395   7.689  12.720   4.366
64965W        W31396  31.929  32.141  10.609
64966W        W31397   3.414  15.549   0.909
64967W        W31398   3.267  21.006   2.738
64968W        W31399   9.504  19.225   5.412
64969W        W31400  29.242  39.918  12.806
64970W        W31401  44.433   4.465  10.917
64971W        W31402  37.996   2.087   2.607
64972W        W31403  43.596  15.534  12.918
64973W        W31404   4.710  38.590  10.742
64974W        W31405  19.697  44.932  11.159
64975W        W31406   2.333  37.027   0.319
64976W        W31407  28.608  37.684  11.719
64977W        W31408  37.835   5.295  11.172
64978W        W31409  38.102  19.170  10.623
64979W        W31410   6.725  14.855   4.697
64980W        W31411  31.079  11.522  12.808
64981W        W31412   1.009   3.449   0.656
64982W        W31413  11.737  22.029   1.797
64983W        W31414   7.366  11.467   4.660
64984W        W31415  42.354   7.396  14.059
64985W        W31416  15.734  34.070   1.718
64986W        W31417  30.240   1.794   0.836
64987W        W31418  43.536  42.995   1.295
64988W        W31419   5.444  44.688  12.006
64989W        W31420  29.456  21.617  14.403
64990W        W31421  26.734  10.532   0.297
64991W        W31422  29.949  29.800   4.553
64992W        W31423  44.357  41.351   2.626
64993W        W31424  16.902  13.465   3.183
64994W        W31425  26.941   6.234   2.676
64995W        W31426  41.986   5.427  11.915
64996W        W31427  11.271  37.395  14.360
64997W        W31428  33.519  37.973  11.769
64998W        W31429  26.908   8.911  13.944
64999W        W31430  11.349   5.851   2.668
65000W        W31431  15.104  34.978   0.884
65001W        W31432   8.521   1.250  12.484
65002W        W31433   3.505  12.334   0.270
65003W        W31434  32.983  25.538   4.634
65004W        W31435  22.091  35.560  10.477
65005W        W31436  38.976   6.345   1.198
65006W        W31437  29.061   9.633  12.559
65007W        W31438   4.215   2.364   1.349
65008W        W31439   0.922  12.066  10.736
65009W        W31440  41.053  26.662  12.884
65010W        W31441  25.959  17.623  14.707
65011W        W31442  33.433   2.358   2.275
65012W        W31443  25.334  28.637  13.797
65013W        W31444  14.635  25.105   2.354
65014W        W31445   7.269  31.105  12.999
65015W        W31446  38.064   1.346  14.011
65016W        W31447  37.619  32.467   2.292
65017W        W31448  29.542  17.433  14.737
65018W        W31449  14.423   8.394   0.317
65019W        W31450  31.557  22.631   0.534
65020W        W31451   3.813   5.692  12.169
65021W        W31452   2.953   5.214   0.816
65022W        W31453  26.470   2.518  10.808
65023W        W31454  30.358   4.823   1.553
65024W        W31455  39.476  29.296   1.161
65025W        W31456   7.070  40.622   2.091
65026W        W31457  20.735  31.069   1.830
65027W        W31458  23.672  40.420  10.320
65028W        W31459   0.027  21.898  11.650
65029W        W31460  26.024  13.596   3.679
65030W        W31461  39.340  35.094   4.515
65031W        W31462  29.155  17.051  11.095
65032W        W31463  39.930   5.321  10.875
65033W        W31464  32.687  15.723   1.665
65034W        W31465  44.954  13.861   4.070
65035W        W31466  19.501   1.393  13.905
65036W        W31467  17.616  44.425  14.744
65037W        W31468  38.766   8.200   0.398
65038W        W31469   8.834   4.520  11.147
65039W        W31470  10.556  13.770   1.034
65040W        W31471  13.783  44.911   0.877
65041W        W31472   7.054   9.073   3.324
65042W        W31473  12.290  17.945   2.359
65043W        W31474  28.301  11.643  13.433
65044W        W31475  34.592  34.665   1.487
65045W        W31476  30.091   0.370   2.494
65046W        W31477  17.777  32.980  14.924
65047W        W31478  15.129  23.549   3.448
65048W        W31479  13.813  39.100   4.130
65049W        W31480  41.482  22.669   3.686
65050W        W31481  17.470   0.010   3.695
65051W        W31482  43.919  16.418  11.969
65052W        W31483  20.111  17.868  10.418
65053W        W31484  40.891   0.150   3.271
65054W        W31485   9.678  11.403  13.477
65055W        W31486  18.187  30.670  13.460
65056W        W31487  25.114   9.299  11.921
65057W        W31488  36.025   2.797  12.508
65058W        W31489  43.403  17.745  13.969
65059W        W31490   6.897  37.346   1.898
65060W        W31491   5.400  41.448   3.938
65061W        W31492  10.281  14.156  11.166
65062W        W31493  21.108   7.800   4.125
65063W        W31494  20.075  35.926   4.458
65064W        W31495  21.865   5.060  10.947
65065W        W31496   9.269   5.776  12.287
65066W        W31497  14.387  29.639  14.780
65067W        W31498  11.594  14.142  13.041
65068W        W31499  42.846  25.663  13.114
65069W        W31500  39.996  19.668  14.823
65070W        W31501  28.698  16.348  13.478
65071W        W31502  36.036  24.992   4.069
65072W        W31503  40.938  20.056   2.102
65073W        W31504  31.417  10.597  13.064
65074W        W31505  39.809  16.720  12.405
65075W        W31506  38.143  39.024  14.370
65076W        W31507  34.154  25.609   4.146
65077W        W31508   2.196  17.005  14.392
65078W        W31509  41.406  38.954   0.475
65079W        W31510  32.944  21.764   1.939
65080W        W31511  41.438  13.312   0.379
65081W        W31512  31.975  11.770   2.441
65082W        W31513  33.330  20.725  13.527
65083W        W31514  27.734  42.915  10.755
65084W        W31515  42.228  30.407  13.878
65085W        W31516  21.463  10.701   2.224
65086W        W31517  22.776  13.336  12.990
65087W        W31518  21.809  36.569  14.864
65088W        W31519  12.316  19.503   0.919
65089W        W31520  44.910  11.611   1.917
65090W        W31521  41.402  39.449  13.056
65091W        W31522  44.838  12.047   2.207
65092W        W31523  33.193  23.147  10.778
65093W        W31524  34.964  42.706   0.335
65094W        W31525  10.679  39.818  12.599
65095W        W31526   2.693  41.389   4.680
65096W        W31527  31.909   2.401  11.574
65097W        W31528  20.665  20.989   5.032
65098W        W31529   6.352  39.064   0.977
65099W        W31530   7.776  28.710   1.855
65100W        W31531  25.653  10.309  10.741
65101W        W31532   4.070  37.909   4.942
65102W        W31533  19.812  28.411   3.294
65103W        W31534  23.243  20.495   2.361
65104W        W31535  29.498  32.500   1.290
65105W        W31536  18.262  14.254  12.319
65106W        W31537  23.286  36.324  13.351
65107W        W31538  25.642  21.707  14.296
65108W        W31539  28.173  16.870   2.255
65109W        W31540  29.360  14.285  11.466
65110W        W31541  11.610   8.912   3.250
65111W        W31542  22.278  18.422   1.549
65112W        W31543   0.067  16.873   3.206
65113W        W31544   1.358  27.063   2.350
65114W        W31545  35.036  30.858   1.063
65115W        W31546  32.975  35.911   2.276
65116W        W31547  25.590  38.891   1.330
65117W        W31548  20.726  31.849   0.534
65118W        W31549   2.526   3.361  13.594
65119W        W31550   0.465   7.872   1.325
65120W        W31551  38.307  31.558  12.505
65121W        W31552   7.603  15.764   9.813
65122W        W31553   3.568  25.408  11.566
65123W        W31554   6.144  30.940   1.937
65124W        W31555  16.514  34.922  11.287
65125W        W31556   7.388  44.863   3.741
65126W        W31557  10.521  34.107   4.118
65127W        W31558  13.384  26.595   1.847
65128W        W31559  42.846   6.245  12.865
65129W        W31560  28.140  37.570   1.384
65130W        W31561  36.529   5.687   1.212
65131W        W31562  20.554  43.538   3.169
65132W        W31563  17.427  22.075   4.779
65133W        W31564  16.600   6.263  13.329
65134W        W31565  19.174  28.588  13.345
65135W        W31566  43.436  20.563   0.324
65136W        W31567  25.546  25.310   0.451
65137W        W31568  26.062  35.128   0.767
65138W        W31569  28.144  17.657   0.654
65139W        W31570  20.156   5.101  10.523
65140W        W31571  39.603  18.219   3.222
65141W        W31572  38.504  43.686   3.604
65142W        W31573  32.660   8.744   2.329
65143W        W31574  28.499  40.867   3.419
65144W        W31575  39.237  11.259  13.628
65145W        W31576  43.398  25.575  11.571
65146W        W31577  38.957   1.750   0.444
65147W        W31578  14.732  22.598   5.519
65148W        W31579  20.616  20.965   5.555
65149W        W31580   6.537   5.304   0.219
65150W        W31581  21.035  37.968  14.913
65151W        W31582  16.961  33.004  12.602
65152W        W31583  10.149   7.777   5.011
65153W        W31584  41.354  38.205   4.531
65154W        W31585  42.967  18.993   0.859
65155W        W31586  40.466  15.574   1.310
65156W        W31587  30.843  24.532  14.361
65157W        W31588  24.779   8.244  13.049
65158W        W31589  40.857  25.245  14.829
65159W        W31590  33.494   7.183  14.475
65160W        W31591  38.878  42.806  10.528
65161W        W31592  31.933   8.167   4.784
65162W        W31593  35.567  22.067   2.184
65163W        W31594   7.457  18.666  11.637
65164W        W31595  28.767   2.496   2.204
65165W        W31596  22.497  31.481  12.375
65166W        W31597  28.413  31.434   2.158
65167W        W31598  22.152  36.414  13.913
65168W        W31599  11.987  31.957   2.465
65169W        W31600  26.140  17.562   4.300
65170W        W31601  18.218  23.510   0.320
65171W        W31602  40.060   0.242   0.218
65172W        W31603  23.038  36.221   0.703
65173W        W31604  32.427  30.216  11.877
65174W        W31605   7.079  37.685  13.541
65175W        W31606  10.404  14.362  14.281
65176W        W31607   1.095  32.111   0.274
65177W        W31608  29.126  21.337  13.838
65178W        W31609  21.178  27.937   5.011
65179W        W31610  11.633   4.631  11.017
65180W        W31611  33.044  40.714  11.397
65181W        W31612  21.231  29.747   3.338
65182W        W31613  25.185   9.576  13.880
65183W        W31614  22.147  10.687   2.730
65184W        W31615  20.259  42.340   4.348
65185W        W31616  25.552  38.348  14.938
65186W        W31617  24.194  29.028  14.863
65187W        W31618   0.203   3.159  11.538
65188W        W31619  12.605  42.261   1.322
65189W        W31620  31.626  32.505  14.766
65190W        W31621  17.354  40.908   3.719
65191W        W31622  36.921  35.149  14.209
65192W        W31623   7.434  44.526   1.777
65193W        W31624  17.399  41.433  11.147
65194W        W31625  12.160  41.836   4.874
65195W        W31626  22.885   5.140   2.794
65196W        W31627  17.727   9.404   1.856
65197W        W31628  35.103  31.961  13.298
65198W        W31629  23.785  41.959  12.041
65199W        W31630  29.337  40.028  11.860
65200W        W31631  36.355  28.986   2.251
65201W        W31632  26.463  33.007  14.943
65202W        W31633  12.028  42.899   3.724
65203W        W31634  19.778  33.660   2.307
65204W        W31635  39.305  10.373  12.171
65205W        W31636   8.110  42.305  12.407
65206W        W31637  12.295  37.823   4.595
65207W        W31638  32.571  26.960  11.476
65208W        W31639  38.628  31.411  13.919
65209W        W31640   3.838  24.929   1.745
65210W        W31641  32.206  29.417  11.507
65211W        W31642  36.601  32.369   5.024
65212W        W31643   1.823  11.644   0.337
65213W        W31644   9.284  12.381  10.756
65214W        W31645  34.919  32.528  13.050
65215W        W31646  30.103  33.498   0.721
65216W        W31647  15.593  27.510  10.680
65217W        W31648  20.172  43.000  12.812
65218W        W31649  40.969   9.782   3.872
65219W        W31650  32.169  28.611   0.438
65220W        W31651  35.821   9.715   0.839
65221W        W31652  15.662  33.369   2.634
65222W        W31653  22.788  17.030   4.946
65223W        W31654  14.749  13.682  11.486
65224W        W31655  38.105  13.288  13.874
65225W        W31656   1.522   2.290  13.454
65226W        W31657  18.164  16.008  11.884
65227W        W31658  28.756  34.623  14.995
65228W        W31659  27.096  26.341   1.584
65229W        W31660  34.061  32.370  13.573
65230W        W31661  20.776  34.301  13.415
65231W        W31662   4.721  39.806   1.721
65232W        W31663  41.380  10.252  12.916
65233W        W31664  27.272  29.650  12.777
65234W        W31665   3.232  15.254   3.604
65235W        W31666  42.059  37.807   0.405
65236W        W31667  32.273  32.308   1.690
65237W        W31668  20.257  20.918   1.694
65238W        W31669   4.214  12.938   2.396
65239W        W31670  30.390  10.310   1.240
65240W        W31671  31.216  38.858  13.287
65241W        W31672  24.741  41.790   0.420
65242W        W31673  10.664  15.948  13.376
65243W        W31674  17.234  15.612   2.573
65244W        W31675  23.666  15.037   0.300
65245W        W31676  26.251  39.482   1.786
65246W        W31677  34.619  16.030   4.502
65247W        W31678  17.680  36.038   3.249
65248W        W31679  11.293  36.620  11.810
65249W        W31680   3.233  39.264  12.963
65250W        W31681   0.191  23.809  14.869
65251W        W31682  28.915   9.734   2.834
65252W        W31683  41.387  12.279   2.175
65253W        W31684   4.627  22.019   0.732
65254W        W31685  38.059  18.796   1.845
65255W        W31686  22.096  14.220  12.390
65256W        W31687  28.529  41.976  12.040
65257W        W31688   9.278  41.788   3.901
65258W        W31689  36.059  14.714   3.929
65259W        W31690  14.576  13.706  12.724
65260W        W31691  21.151  35.332   2.798
65261W        W31692   6.484  25.523  11.507
65262W        W31693  13.239   5.367  12.127
65263W        W31694  29.701  10.388  12.352
65264W        W31695   6.821   5.889  14.279
65265W        W31696  18.489  24.602   0.372
65266W        W31697  35.068   3.418   3.150
65267W        W31698  10.915  31.068  11.138
65268W        W31699   6.432  43.186  13.339
65269W        W31700  20.956  41.557  11.614
65270W        W31701  28.358  17.646   2.262
65271W        W31702  40.639  44.702  14.856
65272W        W31703  18.039  24.121   3.602
65273W        W31704   8.687  17.249   3.238
65274W        W31705  22.714  35.949   3.720
65275W        W31706  44.652  14.533  12.801
65276W        W31707  22.824  38.672  14.329
65277W        W31708  27.977   6.455  13.610
65278W        W31709  21.570   7.812  12.902
65279W        W31710  12.890  17.240   1.542
65280W        W31711  10.371   2.058   4.528
65281W        W31712  23.278  38.306  14.654
65282W        W31713  35.428  19.590   1.084
65283W        W31714  27.562   2.954  11.558
65284W        W31715  26.364   6.334   5.499
65285W        W31716   5.174   3.397   0.305
65286W        W31717  16.095   0.402  11.786
65287W        W31718  26.093   3.662   2.776
65288W        W31719   4.268  34.021   3.332
65289W        W31720  32.590  13.852   0.186
65290W        W31721  15.295   5.347  14.838
65291W        W31722  18.345  26.174  13.462
65292W        W31723  11.692  12.279  11.687
65293W        W31724  25.135  19.578   3.501
65294W        W31725   8.032  44.351  12.481
65295W        W31726  33.330  21.572  12.195
65296W        W31727  21.763   3.814   0.872
65297W        W31728  41.251  26.373  11.107
65298W        W31729  10.675  16.743   2.332
65299W        W31730  15.736  18.246  11.155
65300W        W31731   4.752  13.786  14.832
65301W        W31732  36.254  34.943  13.024
65302W        W31733  11.823   2.234   4.155
65303W        W31734  15.916  32.779   4.938
65304W        W31735  14.318  43.378   1.763
65305W        W31736   1.965  28.070   2.800
65306W        W31737  21.747  14.811   2.421
65307W        W31738  26.139  32.085   1.810
65308W        W31739  24.468  30.357   1.641
65309W        W31740  16.246  38.953  11.851
65310W        W31741   4.554  27.016  13.454
65311W        W31742  24.980   2.476  14.717
65312W        W31743  35.834   9.211   0.677
65313W        W31744  40.510  36.117  11.447
65314W        W31745  24.136  44.408   2.748
65315W        W31746  10.769  38.221   3.427
65316W        W31747  15.319  41.397  14.979
65317W        W31748  30.209  18.458  13.368
65318W        W31749  27.404   8.138   4.370
65319W        W31750  27.071  18.126   1.440
65320W        W31751   7.745  21.095   1.730
65321W        W31752  11.696   8.785  10.332
65322W        W31753  30.933  43.997  11.464
65323W        W31754   1.714   9.691   1.190
65324W        W31755   8.880  20.587  14.444
65325W        W31756  21.523   5.343  12.177
65326W        W31757  19.672  41.605  11.579
65327W        W31758  18.763   0.566  12.480
65328W        W31759  25.049   5.784  12.948
65329W        W31760  17.959  32.628   4.183
65330W        W31761  24.584  34.564   4.821
65331W        W31762   6.451   5.878   4.659
65332W        W31763  42.048  10.092   2.313
65333W        W31764  32.841  13.424   1.835
65334W        W31765  15.667  33.386   4.325
65335W        W31766  21.501  18.215  11.522
65336W        W31767  12.461   1.814  11.633
65337W        W31768  26.484  19.043   0.491
65338W        W31769  39.812  28.212  11.236
65339W        W31770  14.579  34.378   0.224
65340W        W31771   7.162  23.041   0.942
65341W        W31772  36.568  37.438   2.300
65342W        W31773  10.735  39.043  13.105
65343W        W31774  30.359  18.515   5.038
65344W        W31775  39.732  17.103   0.752
65345W        W31776  17.204  32.832   2.549
65346W        W31777  42.508  14.535  14.971
65347W        W31778  18.127   2.747   4.426
65348W        W31779  12.454  33.529  13.287
65349W        W31780  36.510  31.163  13.385
65350W        W31781  26.745   5.940  13.964
65351W        W31782   5.384  13.264   3.878
65352W        W31783  28.989  10.447   4.495
65353W        W31784  37.815   0.537  11.602
65354W        W31785  43.358  35.379  14.736
65355W        W31786  13.646  10.938  10.975
65356W        W31787   9.745   3.357   1.261
65357W        W31788  40.939   5.121   2.780
65358W        W31789  31.343  19.625  13.947
65359W        W31790  34.547   3.721   3.296
65360W        W31791  42.512  41.448   4.219
65361W        W31792  37.676   7.215   3.835
65362W        W31793  13.078  44.908   0.441
65363W        W31794  10.387  13.816  14.281
65364W        W31795  25.701  37.787   3.598
65365W        W31796  42.001   5.816   3.144
65366W        W31797  15.072  21.242   2.986
65367W        W31798  29.403  17.747   1.975
65368W        W31799  34.406  43.490  14.007
65369W        W31800  40.959   7.777   3.594
65370W        W31801   9.771  18.833  12.888
65371W        W31802   9.723  43.983  12.618
65372W        W31803  39.356   7.300   3.188
65373W        W31804  26.583  13.500  14.333
65374W        W31805  41.872  37.958  12.638
65375W        W31806  38.184  41.965   4.579
65376W        W31807  26.013  41.245  10.958
65377W        W31808  42.300  26.924  14.925
65378W        W31809  30.004  33.892  10.696
65379W        W31810  35.005  20.680  11.487
65380W        W31811  32.977   3.935   3.906
65381W        W31812  39.315  39.708   1.691
65382W        W31813  10.150  26.149   3.898
65383W        W31814   3.846  11.367  12.126
65384W        W31815  37.243  35.397   4.336
65385W        W31816  16.678   5.989  11.619
65386W        W31817  12.844  31.947  14.363
65387W        W31818  44.791  38.018  14.944
65388W        W31819  18.519  23.213  14.476
65389W        W31820  39.080   8.782  13.827
65390W        W31821  23.050  17.764  14.877
65391W        W31822   0.482  12.878  14.313
65392W        W31823  38.624  33.873  12.398
65393W        W31824  43.044   6.849   3.564
65394W        W31825  28.665  42.393  14.463
65395W        W31826  11.543  25.682   2.132
65396W        W31827  30.630  24.010  10.580
65397W        W31828  44.975  26.942  11.592
65398W        W31829  32.906  12.262   2.233
65399W        W31830   4.372   5.721  11.598
65400W        W31831   8.210   9.091   3.224
65401W        W31832  33.163  42.478   3.200
65402W        W31833  36.012  15.579   1.877
65403W        W31834   9.715  39.122   1.503
65404W        W31835   6.170   1.778   1.737
65405W        W31836  14.693   0.830   1.319
65406W        W31837   5.721  36.856  13.946
65407W        W31838  17.453  43.657  12.437
65408W        W31839  29.781  24.370   0.012
65409W        W31840  10.521  41.642   2.409
65410W        W31841  26.492  19.792  10.992
65411W        W31842  13.304   0.376   1.170
65412W        W31843  26.539  40.811   1.854
65413W        W31844  40.967  33.237   0.375
65414W        W31845  16.795  32.972   3.740
65415W        W31846  13.276  35.285   1.447
65416W        W31847  33.009  31.471  12.096
65417W        W31848  29.125  19.340  14.339
65418W        W31849  43.787  38.013   4.613
65419W        W31850  26.184  11.769  13.578
65420W        W31851  37.328  33.515   2.740
65421W        W31852  10.420  17.456   3.581
65422W        W31853  37.017  23.450  14.822
65423W        W31854   6.778   0.253   2.486
65424W        W31855   9.003  32.150  14.941
65425W        W31856   8.046  37.938   0.501
65426W        W31857  25.937  15.055  13.045
65427W        W31858   9.350  28.087  11.931
65428W        W31859  26.022  14.764   0.269
65429W        W31860  27.601  42.311   0.944
65430W        W31861  43.456  32.433  10.708
65431W        W31862  18.652  11.801  13.604
65432W        W31863  39.939  22.600  10.712
65433W        W31864  12.810  17.848  13.757
65434W        W31865  27.929   0.447   3.546
65435W        W31866  23.042  37.980   2.301
65436W        W31867  26.098  44.052  12.905
65437W        W31868   4.504  22.552  12.016
65438W        W31869  12.629  35.625   0.741
65439W        W31870   7.615  30.632   1.748
65440W        W31871   4.828  29.660  13.390
65441W        W31872   3.851  30.435   2.825
65442W        W31873  27.111  42.241   3.305
65443W        W31874   9.722  27.117  13.401
65444W        W31875  36.137  33.798   0.707
65445W        W31876  23.228  40.598   5.201
65446W        W31877  19.503  24.209  13.390
65447W        W31878   7.961  36.170  12.870
65448W        W31879  14.650  10.345  13.862
65449W        W31880  25.545  27.179   1.713
65450W        W31881   9.611  14.719   1.212
65451W        W31882  44.427  31.512   2.327
65452W        W31883  30.083  10.998   0.375
65453W        W31884   0.926  18.830   0.337
65454W        W31885  27.102  20.184   0.436
65455W        W31886   7.619   7.646   0.913
65456W        W31887  26.161  16.568  11.277
65457W        W31888   2.509  29.425   2.779
65458W        W31889  10.482   1.668  11.565
65459W        W31890  36.365  32.394  12.602
65460W        W31891  37.939  26.548  11.430
65461W        W31892  43.989   6.082  13.981
65462W        W31893   4.656  25.229   5.372
65463W        W31894  38.342  19.385  13.294
65464W        W31895  27.187  33.328   0.273
65465W        W31896   7.778   5.766  12.373
65466W        W31897  25.562  44.895  12.509
65467W        W31898  42.859  28.538   0.947
65468W        W31899  18.403   0.911   3.077
65469W        W31900  40.311   1.315   0.854
65470W        W31901  35.967  20.519   3.773
65471W        W31902   5.143  15.426  13.477
65472W        W31903  23.886  28.482   1.677
65473W        W31904  36.041   0.211  11.558
65474W        W31905  14.855  18.070   1.695
65475W        W31906   7.079   9.741   0.360
65476W        W31907  16.552  12.821  14.700
65477W        W31908  35.891   6.898   4.181
65478W        W31909  17.461  17.749  14.875
65479W        W31910   2.884  39.911   4.477
65480W        W31911  19.149  17.876  11.616
65481W        W31912  24.280  35.459   3.190
65482W        W31913  29.530   8.989   5.237
65483W        W31914  22.030  21.368   3.729
65484W        W31915  34.908  17.811  14.712
65485W        W31916  43.406   2.431  13.897
65486W        W31917   4.790  16.824   0.846
65487W        W31918  43.423  13.508  11.681
65488W        W31919  34.928   7.449   1.466
65489W        W31920  40.519  28.919   0.409
65490W        W31921  26.016  32.095  13.869
65491W        W31922  28.406  29.121  11.976
65492W        W31923  39.762   7.412  11.192
65493W        W31924  14.692  16.637  13.393
65494W        W31925  31.997  28.571  13.157
65495W        W31926  39.991  23.379   3.530
65496W        W31927  36.099   1.008  13.661
65497W        W31928  38.881  40.192  12.012
65498W        W31929   6.354  21.060   3.420
65499W        W31930  32.613   4.721  12.128
65500W        W31931  10.357  23.725   0.756
65501W        W31932  13.284  41.429   2.196
65502W        W31933   8.890   6.447   4.542
65503W        W31934  30.431  34.687  11.534
65504W        W31935  25.023  20.006   3.206
65505W        W31936   7.940  40.050   4.695
65506W        W31937  19.762  37.004  13.801
65507W        W31938  37.437  28.407   0.387
65508W        W31939   4.315  44.185   4.190
65509W        W31940   1.346  35.985  13.887
65510W        W31941  25.458   3.421  14.824
65511W        W31942  26.204  11.272  12.881
65512W        W31943  18.842   4.151   1.338
65513W        W31944  20.176  20.087  14.373
65514W        W31945   3.104  19.235   1.763
65515W        W31946  38.972  25.093   2.749
65516W        W31947  40.692  22.191   0.737
65517W        W31948  14.812   8.892  14.844
65518W        W31949  18.658  13.297   2.850
65519W        W31950  12.783  22.248  14.897
65520W        W31951  27.081  14.208   4.987
65521W        W31952   9.115  31.029   4.182
65522W        W31953  44.411  44.462  12.652
65523W        W31954  27.635  21.250  11.523
65524W        W31955   8.217   8.136   4.994
65525W        W31956  27.487   7.358   2.833
65526W        W31957  24.975  28.482  11.651
65527W        W31958  38.349   6.639  13.498
65528W        W31959  25.205  23.950   1.776
65529W        W31960  31.990  32.868  11.076
65530W        W31961   8.708  16.285   3.956
65531W        W31962  22.682  12.638  14.827
65532W        W31963   8.623  34.314   3.592
65533W        W31964  26.290   1.760   0.051
65534W        W31965  27.527  42.231   1.879
65535W        W31966  42.787  29.646   2.703
65536W        W31967   1.091  11.603   5.064
65537W        W31968  40.838  18.039  11.049
65538W        W31969   1.809  40.466  13.485
65539W        W31970  13.291  19.803   0.753
65540W        W31971  17.323  30.818   2.766
65541W        W31972  25.444  29.013   2.728
65542W        W31973   1.485  23.965   0.216
65543W        W31974  30.670   5.029  13.401
65544W        W31975   6.963  28.014  11.438
65545W        W31976   1.933  44.484   3.580
65546W        W31977  10.036  26.512   3.232
65547W        W31978  31.566  40.005  12.965
65548W        W31979   1.789  43.029  14.436
65549W        W31980  40.939  44.575   0.399
65550W        W31981   4.890  10.406   2.143
65551W        W31982   3.801  30.450  12.782
65552W        W31983   8.328  16.111   1.882
65553W        W31984  28.955  18.067  11.126
65554W        W31985  13.152  42.469   0.217
65555W        W31986   3.693   7.813  10.751
65556W        W31987  39.955  23.580  11.585
65557W        W31988  23.689  16.859  12.962
65558W        W31989   0.910  39.824   0.896
65559W        W31990  34.038  26.259  11.013
65560W        W31991  26.608  21.194   3.633
65561W        W31992  34.919  15.342  14.725
65562W        W31993   0.235  39.271   2.925
65563W        W31994   6.692  17.537   3.870
65564W        W31995   5.292  30.565   4.083
65565W        W31996  40.784  20.269  14.797
65566W        W31997  16.056  15.558   2.849
65567W        W31998  22.937  35.836  13.888
65568W        W31999  34.848  16.299   3.242
65569W        W32000  36.125  40.684  11.164
65570W        W32001  13.219  24.026   0.199
65571W        W32002  28.078  30.852   4.677
65572W        W32003  27.245  36.130  12.137
65573W        W32004  27.781  18.724   2.798
65574W        W32005   5.186  38.001  12.379
65575W        W32006   4.057  31.360  11.173
65576W        W32007   9.405  28.255  12.827
65577W        W32008  13.285  19.217  13.126
65578W        W32009  37.028  10.817  13.836
65579W        W32010  29.775   7.934   1.932
65580W        W32011  29.906  37.631  14.491
65581W        W32012  29.143  10.724   4.066
65582W        W32013  26.181  19.680   2.164
65583W        W32014  18.054   0.217   0.846
65584W        W32015  43.457   5.166  12.075
65585W        W32016  28.465  33.106   1.232
65586W        W32017  14.333  40.953  11.608
65587W        W32018  31.032  27.371  13.855
65588W        W32019  39.787  29.521  12.457
65589W        W32020  44.464  30.702   4.742
65590W        W32021   2.780   4.443  14.346
65591W        W32022  14.630  14.904   5.429
65592W        W32023  22.933  40.959   3.938
65593W        W32024  28.460   5.366   1.239
65594W        W32025  38.994  12.486   2.752
65595W        W32026  40.008   7.814   4.649
65596W        W32027   7.046  23.496  10.164
65597W        W32028  27.007  14.000   3.221
65598W        W32029  44.390   7.594  10.570
65599W        W32030  25.683  27.005  11.913
65600W        W32031  28.547  38.162   4.552
65601W        W32032  12.089  24.376   9.787
65602W        W32033   3.376  42.325   4.596
65603W        W32034   2.996  42.902   1.202
65604W        W32035  36.384  27.115  14.370
65605W        W32036   4.453  40.792  10.518
65606W        W32037  11.233  42.365   3.430
65607W        W32038   3.307   3.705   0.318
65608W        W32039  35.527  42.792   1.818
65609W        W32040   5.231   0.497   4.351
65610W        W32041  27.758   2.217  13.571
65611W        W32042   4.399  34.077  13.118
65612W        W32043  11.475  35.939  13.615
65613W        W32044   7.373  40.724   3.072
65614W        W32045   6.613  30.855   1.716
65615W        W32046  34.287  23.776  13.892
65616W        W32047  30.598  23.040  12.110
65617W        W32048   0.110  41.379  14.284
65618W        W32049  30.932   1.007  10.889
65619W        W32050  33.061  43.295   4.194
65620W        W32051  37.802   9.520  12.787
65621W        W32052  38.456  18.085  12.469
65622W        W32053  38.420   7.248   3.106
65623W        W32054   7.893  35.814   3.591
65624W        W32055  24.742   5.920   0.819
65625W        W32056  12.593   2.880   0.348
65626W        W32057   8.210  15.018   0.281
65627W        W32058  28.712  19.458  14.846
65628W        W32059  18.032  40.426  13.454
65629W        W32060  31.462   7.323   3.768
65630W        W32061  18.071   2.842   0.478
65631W        W32062   8.203  26.524   1.362
65632W        W32063  40.070  11.292   4.942
65633W        W32064   4.164  31.968  12.157
65634W        W32065  35.360   3.362   2.700
65635W        W32066  10.379  37.755   4.672
65636W        W32067   9.847  22.574  12.687
65637W        W32068  29.095  42.800   4.161
65638W        W32069  20.143  34.315   0.965
65639W        W32070  12.041  38.432   3.568
65640W        W32071  36.470   7.611  14.106
65641W        W32072  19.059  20.582  13.739
65642W        W32073  38.508  11.445   2.317
65643W        W32074  15.609  16.898   4.062
65644W        W32075  31.857  41.076   4.205
65645W        W32076  39.650  31.762  10.286
65646W        W32077   1.054  14.312  11.229
65647W        W32078  25.601  35.781  11.286
65648W        W32079   7.872   7.533   3.150
65649W        W32080  21.028  35.591   3.287
65650W        W32081  36.370  18.707   1.376
65651W        W32082  27.397   5.991   2.705
65652W        W32083  27.608  12.743   2.192
65653W        W32084  23.246  28.126   5.308
65654W        W32085  42.794  11.202  13.420
65655W        W32086  17.739   0.744   2.702
65656W        W32087  28.157   9.216   2.831
65657W        W32088  28.009  11.675  13.867
65658W        W32089  31.057   9.613  11.072
65659W        W32090  18.309   2.289  12.816
65660W        W32091  24.946  41.901   4.071
65661W        W32092  29.102   2.628   0.112
65662W        W32093  37.355  33.447  14.141
65663W        W32094  17.288  15.218  13.796
65664W        W32095  27.128  23.995  12.999
65665W        W32096  36.398  31.601   0.035
65666W        W32097  33.826  22.214  14.072
65667W        W32098   0.493  23.005  13.869
65668W        W32099   2.827  12.388   2.664
65669W        W32100   2.314  42.549   3.810
65670W        W32101  10.821  35.879  11.700
65671W        W32102  34.898  42.208   0.391
65672W        W32103  41.671  33.178   4.852
65673W        W32104   2.540  13.946   1.954
65674W        W32105  10.111  17.585   3.171
65675W        W32106  29.427   1.741  13.988
65676W        W32107   6.627  28.054   2.787
65677W        W32108  43.301  22.661   4.910
65678W        W32109  20.195  43.090  11.954
65679W        W32110   3.231  24.796   4.097
65680W        W32111   5.369  10.704   1.270
65681W        W32112   7.666  11.941   0.281
65682W        W32113  34.399  20.310  12.016
65683W        W32114  39.426   1.779  10.916
65684W        W32115  20.431  20.258   2.389
65685W        W32116  36.872  15.648   2.930
65686W        W32117  11.919  22.218   0.905
65687W        W32118  10.409  10.320  14.393
65688W        W32119  19.213  18.728   3.358
65689W        W32120  10.450  29.649  11.216
65690W        W32121   4.112  36.493   0.258
65691W        W32122  30.127   0.649   2.003
65692W        W32123  39.058  10.674   0.737
65693W        W32124  12.944  30.600  11.067
65694W        W32125  26.566  22.613  13.151
65695W        W32126  35.373  39.407  13.372
65696W        W32127  37.877  38.731  12.874
65697W        W32128  29.494   0.799  13.927
65698W        W32129  27.467  34.401   3.340
65699W        W32130  36.076   5.183   2.760
65700W        W32131  37.082  15.317  10.730
65701W        W32132  25.658  23.140  12.634
65702W        W32133  34.538   5.109   4.533
65703W        W32134  36.452  16.578  14.746
65704W        W32135  17.092  25.653  14.523
65705W        W32136   3.937  26.718  11.119
65706W        W32137  31.338  28.731  13.124
65707W        W32138   9.715  20.251   0.317
65708W        W32139  12.744   4.204  12.554
65709W        W32140  11.296  23.092   3.509
65710W        W32141  37.576  14.731   0.780
65711W        W32142  28.715  20.614   1.175
65712W        W32143  16.273  28.159  12.367
65713W        W32144  27.461  43.274   1.952
65714W        W32145   3.078   1.645  13.841
65715W        W32146  23.157   1.454  12.140
65716W        W32147   7.376  37.281   4.536
65717W        W32148  22.759   5.154   0.338
65718W        W32149  23.331  23.560  13.115
65719W        W32150  22.659   7.192  10.906
65720W        W32151  26.699  37.604  11.117
65721W        W32152  34.283  41.558   1.601
65722W        W32153  43.691  28.054   2.177
65723W        W32154   3.878  33.474  13.149
65724W        W32155  29.611  40.937   3.770
65725W        W32156   9.886  36.866  12.511
65726W        W32157   0.310  42.997  13.922
65727W        W32158   2.998  34.700  11.458
65728W        W32159  15.300  28.688  11.656
65729W        W32160  44.668  34.819   1.776
65730W        W32161  38.645   1.198   0.196
65731W        W32162  28.675  26.324  14.829
65732W        W32163  34.209  36.168   4.257
65733W        W32164  21.352  34.134  13.963
65734W        W32165  10.782  29.706  12.082
65735W        W32166  21.695  14.062  13.550
65736W        W32167  34.396  24.146  13.561
65737W        W32168  11.382  26.810  11.520
65738W        W32169  31.758   6.362   2.292
65739W        W32170  36.136  18.962   3.663
65740W        W32171  34.952  27.694   4.474
65741W        W32172   8.676  30.508   2.608
65742W        W32173  37.322   4.591  11.743
65743W        W32174  17.704   6.127   2.343
65744W        W32175  37.571   6.547   0.399
65745W        W32176  26.089  36.617   2.661
65746W        W32177  29.435  19.477  12.004
65747W        W32178   1.033  31.730  11.201
65748W        W32179  18.645   1.225   1.387
65749W        W32180  43.228  13.325  11.236
65750W        W32181  11.435  29.660   4.178
65751W        W32182  22.308  40.957   2.007
65752W        W32183   5.013  16.801   1.670
65753W        W32184   8.691  30.575  10.750
65754W        W32185   1.820  13.095   4.356
65755W        W32186   7.049  43.405   2.320
65756W        W32187  19.002  36.366   2.110
65757W        W32188  35.315  26.513  12.920
65758W        W32189  20.941  34.966   3.809
65759W        W32190  33.891  42.223   3.646
65760W        W32191  33.463  24.458  11.188
65761W        W32192  10.737  43.096   2.260
65762W        W32193  18.247  32.224   0.712
65763W        W32194  39.875  31.725  12.952
65764W        W32195  15.672  16.534  13.505
65765W        W32196   2.922  41.676  11.787
65766W        W32197  42.354  36.064   2.816
65767W        W32198  34.914  11.686   2.802
65768W        W32199  39.772  34.075  11.596
65769W        W32200  34.790   5.094   4.069
65770W        W32201  35.183   5.044  13.658
65771W        W32202  18.712  18.543   0.434
65772W        W32203  43.937  44.244  13.598
65773W        W32204  44.763   3.449   0.181
65774W        W32205   7.437   5.965   0.932
65775W        W32206  13.411  40.284   3.445
65776W        W32207  30.944  30.595   2.074
65777W        W32208  36.839  41.428   2.618
65778W        W32209  21.808  41.840  12.154
65779W        W32210  26.134  36.982  12.663
65780W        W32211  43.473  42.644  12.445
65781W        W32212  27.375  44.692  11.748
65782W        W32213  43.962  10.545  13.982
65783W        W32214   9.753  39.861  12.396
65784W        W32215  24.026  13.161  12.502
65785W        W32216  21.561  19.223  13.510
65786W        W32217  10.139  40.413  13.601
65787W        W32218  32.397  14.853  14.373
65788W        W32219  31.092   4.906  14.002
65789W        W32220   3.194  34.050   0.173
65790W        W32221  41.239  28.915  12.822
65791W        W32222  26.923  14.383   3.569
65792W        W32223   7.088  12.892  14.793
65793W        W32224  35.104  19.459   0.682
65794W        W32225  31.625  26.594   0.952
65795W        W32226  15.704  25.076   3.145
65796W        W32227  39.876   6.210  10.389
65797W        W32228  22.423  40.083   2.745
65798W        W32229  17.561  34.777  12.803
65799W        W32230  12.800  12.666   2.110
65800W        W32231  26.711   7.823   0.280
65801W        W32232  42.751  28.628   3.207
65802W        W32233  44.297   9.424  11.178
65803W        W32234  37.535   6.107   3.349
65804W        W32235  23.522  30.573   0.633
65805W        W32236   7.583  12.894  11.051
65806W        W32237  11.115  40.481   1.825
65807W        W32238  26.191  12.191  13.859
65808W        W32239  10.989   2.204   0.769
65809W        W32240  25.937   2.015   1.357
65810W        W32241  10.764  16.210   1.308
65811W        W32242  43.294  23.662   1.355
65812W        W32243  35.049   3.311   4.043
65813W        W32244  36.575  35.349  13.344
65814W        W32245  44.853  21.006  12.520
65815W        W32246  18.853  32.447  11.693
65816W        W32247  25.723   0.081  12.967
65817W        W32248  24.843  34.144   1.765
65818W        W32249  16.614  19.927  14.529
65819W        W32250  27.117  23.823  10.798
65820W        W32251  13.509   5.677   4.060
65821W        W32252   4.374  33.420  14.736
65822W        W32253  34.905  36.609  13.810
65823W        W32254  29.121  16.777  10.658
65824W        W32255  22.298  34.957   4.124
65825W        W32256   1.509   8.196   3.151
65826W        W32257  25.540  34.985   0.901
65827W        W32258  16.812  23.608  14.143
65828W        W32259  26.226   5.401  11.677
65829W        W32260  12.734  25.251   0.462
65830W        W32261   1.429  20.722  13.571
65831W        W32262  34.627  21.037  14.783
65832W        W32263  40.548  42.602   0.180
65833W        W32264  27.867  43.768  10.185
65834W        W32265  13.265  11.101  10.240
65835W        W32266  41.790  34.557   4.633
65836W        W32267  29.419  11.372   0.241
65837W        W32268  40.986  40.593  10.822
65838W        W32269  44.698  19.257   2.659
65839W        W32270   7.618   2.474   4.099
65840W        W32271   0.015  25.271  12.131
65841W        W32272   0.517  19.238  14.091
65842W        W32273   8.680  12.167  14.706
65843W        W32274  20.066  33.656  12.847
65844W        W32275   1.307  28.734   3.310
65845W        W32276  30.977  32.454   3.693
65846W        W32277  13.371   7.865   4.020
65847W        W32278  30.598   5.115  10.531
65848W        W32279  23.693   3.740  13.745
65849W        W32280  28.926   1.370  14.400
65850W        W32281  23.033   4.515  11.231
65851W        W32282  28.200  30.397  13.350
65852W        W32283  11.252  36.555   2.810
65853W        W32284  26.564  44.855   4.642
65854W        W32285  27.637  31.907   0.383
65855W        W32286  28.484  26.657   0.268
65856W        W32287   7.500   7.228   4.147
65857W        W32288  29.638   3.360  12.391
65858W        W32289  16.187  29.194   1.708
65859W        W32290  19.344  42.825   3.712
65860W        W32291  36.656  24.631   2.371
65861W        W32292   9.804   6.198   3.824
65862W        W32293  36.979  37.161   2.881
65863W        W32294  21.976   4.509  13.910
65864W        W32295  13.755  37.367   1.859
65865W        W32296  24.275  31.195   4.879
65866W        W32297  35.129  18.232   1.355
65867W        W32298  39.591   7.660  10.751
65868W        W32299  14.652  16.612   2.258
65869W        W32300  12.641  24.118  13.910
65870W        W32301  25.955   5.820  10.770
65871W        W32302   4.581  25.217  11.691
65872W        W32303  17.305  23.730   5.354
65873W        W32304   6.491  35.488   4.397
65874W        W32305   1.601  41.384  13.898
65875W        W32306  15.083  35.341   1.299
65876W        W32307  17.246  20.803   0.930
65877W        W32308  17.592  30.177  13.929
65878W        W32309  38.227  36.368   1.702
65879W        W32310  26.143  13.593  11.248
65880W        W32311  29.720  29.144   2.687
65881W        W32312   6.197  41.765   4.166
65882W        W32313  44.475  22.615  11.684
65883W        W32314  25.047   2.415   2.609
65884W        W32315  13.320  12.326  12.071
65885W        W32316  33.428  19.094   0.294
65886W        W32317   9.231  31.399   1.303
65887W        W32318  41.402   9.971   0.745
65888W        W32319  31.205  11.610   3.196
65889W        W32320   2.184  17.205   0.440
65890W        W32321  36.307  29.528   3.197
65891W        W32322  40.852   6.135  14.487
65892W        W32323  37.885  13.857  13.787
65893W        W32324  23.103  23.438   1.914
65894W        W32325  27.499  15.413   4.644
65895W        W32326   1.373  30.965  10.490
65896W        W32327   0.307  19.531   0.373
65897W        W32328  44.932  13.198   3.260
65898W        W32329  29.008   9.337   1.135
65899W        W32330  22.520  15.436   4.773
65900W        W32331  16.765  22.613   4.584
65901W        W32332   7.443  26.925  12.049
65902W        W32333  21.496  27.010   0.921
65903W        W32334  24.746  15.842  12.587
65904W        W32335  32.338  26.646  11.159
65905W        W32336   4.315   7.867   3.231
65906W        W32337   2.839  28.152  14.964
65907W        W32338  27.890  29.404  11.670
65908W        W32339   9.310  38.308  12.431
65909W        W32340  14.293  11.876   1.754
65910W        W32341  36.214  29.633  12.127
65911W        W32342  23.716  14.267   3.685
65912W        W32343   9.203  14.300   5.043
65913W        W32344  14.709  34.066   4.685
65914W        W32345  31.599  14.344  11.180
65915W        W32346  23.723  18.554   1.817
65916W        W32347  35.987  27.412  14.852
65917W        W32348  40.307  41.021  14.254
65918W        W32349  21.243  24.509   0.801
65919W        W32350  17.568  42.607   2.561
65920W        W32351  37.614  32.465  14.233
65921W        W32352   7.114   7.583  14.910
65922W        W32353  14.584  27.851   1.937
65923W        W32354  33.376   3.106  13.428
65924W        W32355  33.167  26.724   0.974
65925W        W32356  22.726  16.596   1.426
65926W        W32357  24.727  35.864   2.469
65927W        W32358   4.256  21.989   4.204
65928W        W32359   9.860  17.695  11.663
65929W        W32360  12.612  17.149   2.843
65930W        W32361   1.204  24.658   3.239
65931W        W32362  12.019   0.253   4.183
65932W        W32363  39.516  36.028   0.763
65933W        W32364  28.703  12.368  14.467
65934W        W32365  28.393  26.742  13.494
65935W        W32366  36.368   2.469  13.705
65936W        W32367   5.958  11.404   2.151
65937W        W32368  39.409   7.538  13.485
65938W        W32369  38.401  21.583  14.812
65939W        W32370  40.354  38.135   0.320
65940W        W32371  42.991   4.636  10.809
65941W        W32372   6.948  33.900  12.654
65942W        W32373   1.337  44.675  11.041
65943W        W32374  31.469  16.123   0.440
65944W        W32375  25.736  30.146   0.440
65945W        W32376   9.717  29.980   0.750
65946W        W32377  41.446   5.659  10.889
65947W        W32378   4.504  18.768   4.501
65948W        W32379  37.544  15.214  14.424
65949W        W32380  18.547  18.274  14.545
65950W        W32381   1.900  16.449   1.719
65951W        W32382  19.593  32.974  13.472
65952W        W32383   2.687  15.317   2.328
65953W        W32384  23.534  25.517  11.623
65954W        W32385   3.847  41.370  11.523
65955W        W32386   4.500  17.292   9.854
65956W        W32387  42.305  23.758   1.171
65957W        W32388  40.099  20.322   1.854
65958W        W32389   9.588  34.846   2.816
65959W        W32390  30.404  34.393   2.732
65960W        W32391  15.821   9.176  13.921
65961W        W32392  43.436  43.919  11.501
65962W        W32393   6.275  29.140  10.232
65963W        W32394   0.732   5.662  11.599
65964W        W32395  43.301  42.972   0.696
65965W        W32396   5.454  14.268  10.721
65966W        W32397  18.338  35.400  11.810
65967W        W32398  15.391  29.516   4.281
65968W        W32399  33.995  12.126  11.178
65969W        W32400  28.044  33.807   4.841
65970W        W32401  29.221  34.681  12.496
65971W        W32402  23.212  19.054   0.217
65972W        W32403   1.491  20.641   1.912
65973W        W32404  13.380  20.367  13.047
65974W        W32405  32.429  27.631  11.100
65975W        W32406  18.759  44.683   0.470
65976W        W32407  21.799   5.806   3.966
65977W        W32408  20.214  32.952   0.706
65978W        W32409   7.033  26.079   3.866
65979W        W32410  43.882  25.060   1.427
65980W        W32411  28.120   3.740   4.026
65981W        W32412  20.735  22.533  14.420
65982W        W32413  12.986  21.299   2.878
65983W        W32414  37.698  15.178  13.171
65984W        W32415  10.381  31.985  12.161
65985W        W32416  15.819  27.617  12.947
65986W        W32417  32.950   2.058   3.673
65987W        W32418  40.612  35.804  13.523
65988W        W32419   6.544  36.155  12.506
65989W        W32420  43.437  13.461  14.510
65990W        W32421  20.648  25.661   2.336
65991W        W32422  43.693   9.734   3.614
65992W        W32423  34.622  33.535  11.558
65993W        W32424  19.234  40.727   3.795
65994W        W32425   7.934  38.888  13.420
65995W        W32426   1.762  23.735  11.148
65996W        W32427  41.812  35.904   4.966
65997W        W32428  43.778  11.459   2.858
65998W        W32429   0.291   2.236   4.556
65999W        W32430  33.036  32.619  13.913
66000W        W32431  25.079  29.569   0.283
66001W        W32432   9.349  36.078   2.708
66002W        W32433  18.708  19.228   1.444
66003W        W32434  35.085  39.771   3.185
66004W        W32435   9.633   7.584  11.777
66005W        W32436   3.233  33.581   4.374
66006W        W32437   4.250  16.889   4.578
66007W        W32438  31.120  23.562   1.086
66008W        W32439  14.190  23.122   1.262
66009W        W32440  17.970  39.519   0.599
66010W        W32441  33.407   1.308   3.065
66011W        W32442   3.850   5.556  13.142
66012W        W32443  30.176  20.027   3.138
66013W        W32444   6.180  42.899   2.188
66014W        W32445  39.975   8.607   5.208
66015W        W32446   2.360  22.950  13.599
66016W        W32447  32.147  25.452  13.452
66017W        W32448  29.320  38.037   4.164
66018W        W32449  12.226  22.404  11.225
66019W        W32450  13.688   3.885   2.130
66020W        W32451  18.254   3.268   4.471
66021W        W32452   4.277  31.872   4.181
66022W        W32453  24.864  11.200  12.605
66023W        W32454  20.983  37.565   4.467
66024W        W32455   9.276  41.156  13.148
66025W        W32456  29.290  10.853   4.563
66026W        W32457   9.350  39.525   1.460
66027W        W32458  40.954   2.699   2.257
66028W        W32459   0.371  23.429   0.791
66029W        W32460  37.115  27.888  11.559
66030W        W32461   9.409   1.632   2.231
66031W        W32462  29.258  16.182  11.700
66032W        W32463   0.015   8.425  11.637
66033W        W32464   3.906  29.700  13.367
66034W        W32465  37.082   7.744  11.483
66035W        W32466  31.884   8.729   1.245
66036W        W32467  21.373  15.713   4.656
66037W        W32468  16.688  35.124   3.355
66038W        W32469  29.290  38.557  14.824
66039W        W32470  13.288  23.532   5.173
66040W        W32471   6.338  14.248   0.543
66041W        W32472   1.141  21.448  11.093
66042W        W32473   3.511  22.342   2.384
66043W        W32474  27.275  21.052   0.791
66044W        W32475  14.014  40.350   4.950
66045W        W32476   8.853   3.376  12.369
66046W        W32477   6.892  28.159   2.325
66047W        W32478   8.956  23.283   0.741
66048W        W32479  24.994   8.170   4.372
66049W        W32480  34.607   2.755   3.364
66050W        W32481   4.730  16.239   4.241
66051W        W32482  27.309  19.921   5.004
66052W        W32483   2.682   8.807   4.636
66053W        W32484   2.248   6.184   4.923
66054W        W32485  24.295   4.410  13.606
66055W        W32486  19.508  10.130  11.801
66056W        W32487  14.847  40.603   3.868
66057W        W32488  18.598  12.801   1.224
66058W        W32489  14.066  37.377   1.023
66059W        W32490  20.589  20.149   4.642
66060W        W32491  30.613  18.853   0.996
66061W        W32492  11.282  39.538  10.459
66062W        W32493  28.695   4.948   0.863
66063W        W32494  42.885  36.107  13.474
66064W        W32495  27.702  16.397   1.000
66065W        W32496  29.475  44.099   5.022
66066W        W32497  36.583  34.030   4.596
66067W        W32498  30.197   9.304   3.645
66068W        W32499  11.148   1.373   4.292
66069W        W32500  14.655  30.001  11.901
66070W        W32501  18.625  22.266  14.318
66071W        W32502  15.289   5.823   3.486
66072W        W32503   6.161  18.424  14.492
66073W        W32504  12.657  19.893   4.191
66074W        W32505   0.505   8.441   3.141
66075W        W32506  19.081   0.571   2.884
66076W        W32507  13.624   5.342   0.030
66077W        W32508  41.487   1.503   3.274
66078W        W32509  11.859  34.361  13.894
66079W        W32510  31.086  22.652  10.906
66080W        W32511  44.191  40.984  13.380
66081W        W32512  22.591  42.977  14.607
66082W        W32513   0.322  38.117   4.389
66083W        W32514  32.217  29.685  14.831
66084W        W32515  17.137  14.316  14.858
66085W        W32516  29.962  14.878  13.621
66086W        W32517  43.070   3.329  14.549
66087W        W32518  42.041   2.707  12.886
66088W        W32519  37.469  22.311   2.191
66089W        W32520  26.311  30.545  10.926
66090W        W32521  13.700  28.811   4.107
66091W        W32522  12.893  18.022   4.339
66092W        W32523  24.221  25.584  12.187
66093W        W32524   8.450   5.787  14.544
66094W        W32525  16.034  14.867  12.063
66095W        W32526  11.901  15.178   4.090
66096W        W32527  25.718   1.729   2.865
66097W        W32528  35.249  31.104   1.782
66098W        W32529  38.519  33.066   2.597
66099W        W32530  24.839  13.057   1.942
66100W        W32531   4.864  42.639  11.649
66101W        W32532   9.772  36.701  12.984
66102W        W32533  17.821  13.288   1.403
66103W        W32534   3.497   4.658   3.329
66104W        W32535   8.659   0.337   2.087
66105W        W32536   9.276  42.090   0.713
66106W        W32537  31.818  42.345   4.670
66107W        W32538   7.762  11.743   3.452
66108W        W32539  28.235  20.196  11.219
66109W        W32540  28.771   9.638  13.504
66110W        W32541  43.441   3.637  11.998
66111W        W32542  10.216   2.942  13.814
66112W        W32543  24.084  21.744   0.311
66113W        W32544  24.138  11.810   0.878
66114W        W32545  16.276  43.486   4.151
66115W        W32546  33.059  24.493   2.839
66116W        W32547  31.610  15.978  14.025
66117W        W32548   1.286  24.726  14.473
66118W        W32549  43.366  36.365   1.754
66119W        W32550  41.853   7.132   4.039
66120W        W32551  35.940  21.631   3.086
66121W        W32552  16.440  33.170   4.062
66122W        W32553  44.004  38.560  13.074
66123W        W32554  43.299  21.083  11.694
66124W        W32555  26.538  28.527  13.480
66125W        W32556  13.666   5.485   4.944
66126W        W32557  32.160  24.963  13.306
66127W        W32558  33.924  34.937  12.396
66128W        W32559  11.629  32.811   1.559
66129W        W32560  24.483   5.403  12.526
66130W        W32561  42.043  30.068   0.417
66131W        W32562  40.907   5.933  12.758
66132W        W32563  33.686  39.718   1.094
66133W        W32564  18.729  15.998   4.098
66134W        W32565  36.328  12.870  11.219
66135W        W32566  31.433  14.715   2.217
66136W        W32567  24.079  42.347  13.821
66137W        W32568  40.789  39.345  10.400
66138W        W32569  42.786  38.014  14.964
66139W        W32570  21.007  33.014  13.452
66140W        W32571  30.716  40.824   2.338
66141W        W32572  23.245  22.705   1.437
66142W        W32573  28.671   3.686   3.285
66143W        W32574   5.696  25.160  11.306
66144W        W32575  23.043  20.390   0.969
66145W        W32576   5.818  21.901   3.318
66146W        W32577   9.968  42.173  11.019
66147W        W32578  25.065   5.913  13.850
66148W        W32579  25.737  43.282  11.538
66149W        W32580  30.100  44.191  12.509
66150W        W32581  19.231   0.432  12.673
66151W        W32582  43.826   8.823  14.959
66152W        W32583  14.233  25.806   4.497
66153W        W32584  19.363   0.355   0.641
66154W        W32585  41.302   7.699   4.241
66155W        W32586  27.471  23.858   4.201
66156W        W32587  34.849  29.840  12.512
66157W        W32588  13.183   8.403  11.562
66158W        W32589  41.820   1.819   2.387
66159W        W32590  23.681  18.777  10.726
66160W        W32591  34.414  10.387   0.514
66161W        W32592  28.110  36.835  14.284
66162W        W32593   3.270  32.492   3.718
66163W        W32594  44.856  26.739   0.334
66164W        W32595  33.169  20.152  13.945
66165W        W32596  18.498   4.765  13.363
66166W        W32597   8.253  25.081  12.950
66167W        W32598  26.761   1.696  14.757
66168W        W32599  44.002  13.869  12.954
66169W        W32600  38.906  17.302  14.397
66170W        W32601  15.649  20.234   0.369
66171W        W32602  37.404   2.828   1.247
66172W        W32603  43.469  26.470   1.307
66173W        W32604  36.249  14.663   0.429
66174W        W32605  44.049  39.465  12.113
66175W        W32606   3.402  31.905   0.636
66176W        W32607  23.237  24.518   0.906
66177W        W32608  28.070  43.938  14.933
66178W        W32609  25.060  23.085   0.237
66179W        W32610  28.550  26.630   2.100
66180W        W32611  22.772  18.604   1.662
66181W        W32612   3.281  26.030   4.004
66182W        W32613  43.556  17.685   3.162
66183W        W32614   3.785  23.439  10.713
66184W        W32615  15.202  38.339  14.901
66185W        W32616  32.184  13.565   4.084
66186W        W32617  15.282  28.563  12.998
66187W        W32618  27.832  36.265  10.971
66188W        W32619   5.090  38.302   2.815
66189W        W32620   6.250  26.713   3.674
66190W        W32621  19.220   9.760  11.225
66191W        W32622  13.309  29.764   2.747
66192W        W32623  24.549   5.644   4.741
66193W        W32624  13.542  10.386   4.685
66194W        W32625  24.595  43.691  11.934
66195W        W32626  34.866  16.771  14.973
66196W        W32627  30.398   9.798  11.573
66197W        W32628   0.705  35.970   2.709
66198W        W32629   7.237  37.318   2.279
66199W        W32630  44.480  15.345  14.679
66200W        W32631   0.781  20.209   1.693
66201W        W32632  13.044  42.526   1.203
66202W        W32633  13.836  25.081  13.318
66203W        W32634   2.925   6.463   0.347
66204W        W32635  17.383  13.640  11.142
66205W        W32636  13.248  14.255  13.700
66206W        W32637  37.001   1.404   3.208
66207W        W32638  17.087  43.191   1.059
66208W        W32639  26.090  34.335   3.917
66209W        W32640   0.815  13.650   3.131
66210W        W32641  11.028  31.839  14.320
66211W        W32642  43.946  35.920  11.034
66212W        W32643  10.176   1.192  12.931
66213W        W32644  15.272  12.108  12.987
66214W        W32645  32.892  20.989  14.841
66215W        W32646   9.671  31.360  13.921
66216W        W32647  11.555  29.207   0.776
66217W        W32648  43.969  42.054  14.616
66218W        W32649  36.826  34.680  11.101
66219W        W32650  36.962  29.012   0.965
66220W        W32651   6.929  36.028  12.193
66221W        W32652   5.811   4.695   1.847
66222W        W32653   6.762  25.054   0.932
66223W        W32654  38.690   4.205   2.340
66224W        W32655  26.110  18.568   5.229
66225W        W32656  16.122  20.551   1.211
66226W        W32657   1.675   2.411   3.649
66227W        W32658  15.364  36.450   3.206
66228W        W32659  39.236  35.683   2.856
66229W        W32660   6.085   9.979   0.307
66230W        W32661  21.377  11.692   1.016
66231W        W32662  39.737  24.668  13.518
66232W        W32663  32.146  21.461  13.083
66233W        W32664  20.595  27.762   4.267
66234W        W32665  37.460  21.606   3.265
66235W        W32666  42.838  25.935  14.002
66236W        W32667  33.040   7.630   1.098
66237W        W32668  37.396  42.615  11.639
66238W        W32669  31.425   4.080  12.448
66239W        W32670  19.697   4.865  10.572
66240W        W32671  20.216   3.880  14.304
66241W        W32672   5.475  40.628  11.549
66242W        W32673  40.399  34.195   2.233
66243W        W32674  38.340   3.472  12.008
66244W        W32675  35.882  12.628  11.088
66245W        W32676  36.491  31.414  11.544
66246W        W32677  20.366  15.374  10.272
66247W        W32678  34.876  20.654  12.467
66248W        W32679  13.391  40.377   5.288
66249W        W32680  42.836  19.271   1.305
66250W        W32681   5.968  22.326  14.704
66251W        W32682  38.943  22.973   0.990
66252W        W32683  21.516  34.497  11.097
66253W        W32684  29.881   3.269   4.107
66254W        W32685  15.028  10.891  12.595
66255W        W32686  25.723  39.009  14.007
66256W        W32687  29.829  43.597   0.568
66257W        W32688   1.510  25.121  11.394
66258W        W32689   2.250  11.276   1.225
66259W        W32690   5.406  37.940  14.711
66260W        W32691  18.727  26.365  11.935
66261W        W32692   8.427  14.749  11.682
66262W        W32693  18.610  23.467   1.622
66263W        W32694  25.555  22.455   3.771
66264W        W32695  36.016  39.572   4.103
66265W        W32696  33.576  13.890   4.183
66266W        W32697  17.265  22.222   2.908
66267W        W32698  42.302  11.369   4.695
66268W        W32699  25.837   9.430  14.528
66269W        W32700  40.431  33.392  10.343
66270W        W32701  32.575  38.594   2.485
66271W        W32702  39.569   1.558   3.161
66272W        W32703  35.036  20.213   2.842
66273W        W32704  17.591  24.542   0.896
66274W        W32705  24.400  28.065  11.414
66275W        W32706   8.510  37.840  13.987
66276W        W32707   3.323  37.377  13.350
66277W        W32708   7.800   1.668  12.805
66278W        W32709   1.418  16.201   4.037
66279W        W32710  21.958   6.314  13.528
66280W        W32711  19.706   5.203  13.839
66281W        W32712  18.656  37.458  12.411
66282W        W32713  15.834  43.929  14.966
66283W        W32714  16.541  39.268   3.912
66284W        W32715  27.467  11.315  11.000
66285W        W32716  24.007   1.372  12.827
66286W        W32717  18.717  38.791  11.622
66287W        W32718  10.437  14.762  12.876
66288W        W32719  19.713  15.803   0.451
66289W        W32720  38.428  39.272  12.373
66290W        W32721  15.205  29.107  14.467
66291W        W32722   1.731   3.789   1.291
66292W        W32723   6.400  16.048  11.407
66293W        W32724  26.694  32.568  14.767
66294W        W32725  44.177  27.820   2.262
66295W        W32726   7.851  35.340  12.133
66296W        W32727   0.250   1.535   0.732
66297W        W32728  18.015  35.315   2.132
66298W        W32729  23.188   6.374   2.240
66299W        W32730  10.865  12.879   1.664
66300W        W32731  31.531  27.083   0.219
66301W        W32732   5.003  26.283  13.090
66302W        W32733  29.256  40.674   1.728
66303W        W32734  16.697  12.421   2.280
66304W        W32735   8.359  33.539  14.536
66305W        W32736  34.143  22.805  14.512
66306W        W32737  36.845  26.734   2.151
66307W        W32738  36.117  43.870   4.059
66308W        W32739  36.917  29.349   4.086
66309W        W32740  28.775  35.147  12.427
66310W        W32741   4.918  25.572   3.410
66311W        W32742  40.140   9.857   1.648
66312W        W32743  13.857  10.425  14.422
66313W        W32744  13.119  31.952  10.281
66314W        W32745  26.608   8.668   0.467
66315W        W32746  14.470  34.309   2.760
66316W        W32747  23.696  27.324  14.444
66317W        W32748  16.928  19.068  10.246
66318W        W32749  11.171  34.602   3.183
66319W        W32750  29.733  27.569   4.054
66320W        W32751  44.240  17.936   4.755
66321W        W32752  38.775  12.354   4.136
66322W        W32753  28.942  30.052  12.481
66323W        W32754  10.617   7.761   4.812
66324W        W32755  32.851  24.893   0.761
66325W        W32756  11.676   0.641   0.365
66326W        W32757  23.721  12.337  11.985
66327W        W32758  29.627  38.299  13.808
66328W        W32759  15.409  11.079   4.106
66329W        W32760  22.448  41.907   4.339
66330W        W32761  23.732   7.149   4.518
66331W        W32762  11.829  36.189  14.843
66332W        W32763  26.062  38.936   0.221
66333W        W32764   0.909  19.794   4.968
66334W        W32765  24.772  33.594  13.976
66335W        W32766  34.325  34.372   2.612
66336W        W32767  44.427  12.840  11.128
66337W        W32768  15.308   8.175  12.830
66338W        W32769  30.011  34.551  12.112
66339W        W32770  16.999  30.838  13.838
66340W        W32771   6.716  40.358   2.402
66341W        W32772  39.593   6.363  12.087
66342W        W32773  42.705  34.006  13.132
66343W        W32774   9.100  26.587   1.733
66344W        W32775  13.317  39.526   1.249
66345W        W32776  10.360  31.785  13.174
66346W        W32777   3.353  26.790   4.561
66347W        W32778  19.059  22.030   2.800
66348W        W32779   0.973  22.169   0.323
66349W        W32780  34.610  23.632  11.837
66350W        W32781  26.529   8.648   4.510
66351W        W32782  21.900   6.855   3.646
66352W        W32783  12.322  41.848  11.587
66353W        W32784   0.728   5.745   3.695
66354W        W32785  30.224  27.471   4.151
66355W        W32786  32.059  27.671  13.123
66356W        W32787  41.255  10.102   1.811
66357W        W32788  25.210   9.292   1.362
66358W        W32789   8.875   7.330   0.720
66359W        W32790   4.189  42.330   2.944
66360W        W32791   2.581   0.715  11.984
66361W        W32792   1.863  38.880   3.195
66362W        W32793  32.832  24.177  14.449
66363W        W32794  39.612  12.830   3.228
66364W        W32795  31.163  35.339   2.674
66365W        W32796  24.998  44.080  14.867
66366W        W32797   7.501  22.980   3.815
66367W        W32798  33.132  34.922   3.834
66368W        W32799  30.916   4.228  12.190
66369W        W32800   7.174  24.950   3.696
66370W        W32801   9.357  11.272   4.789
66371W        W32802  21.062  39.876  13.444
66372W        W32803  24.969  41.434   2.042
66373W        W32804  25.747  34.072   1.866
66374W        W32805   5.716  24.746  11.629
66375W        W32806  27.546  38.657  10.578
66376W        W32807   2.537  15.007   4.110
66377W        W32808  27.078  41.875  10.460
66378W        W32809  36.263  43.850   2.359
66379W        W32810  16.232   8.098   0.386
66380W        W32811  10.050  34.128   3.879
66381W        W32812  18.941  21.720  10.541
66382W        W32813   1.776  43.982  11.660
66383W        W32814  10.546  16.934   9.935
66384W        W32815   0.379  43.344   1.948
66385W        W32816  21.483  44.928  13.963
66386W        W32817  14.175  27.208  14.040
66387W        W32818  24.891  10.166   3.631
66388W        W32819   3.914  25.426   1.003
66389W        W32820  11.582  17.658   4.621
66390W        W32821   5.602  35.268   4.326
66391W        W32822  10.507  24.238   1.775
66392W        W32823   7.908  30.868   0.180
66393W        W32824  39.867  24.120  14.751
66394W        W32825   6.247  42.883  12.104
66395W        W32826  14.706  33.820   3.338
66396W        W32827  19.697  20.746  14.788
66397W        W32828   2.539  34.026   4.128
66398W        W32829  14.383  24.008  11.425
66399W        W32830  18.013  22.676   4.487
66400W        W32831  13.693  13.878  12.465
66401W        W32832   6.677  33.622  14.431
66402W        W32833  39.556  24.974  12.991
66403W        W32834  38.362   5.898   0.158
66404W        W32835   6.262  43.258   0.976
66405W        W32836   0.486  26.312  11.730
66406W        W32837  17.282  44.345   4.186
66407W        W32838   1.896  12.078   1.357
66408W        W32839  27.681  38.907  14.890
66409W        W32840  26.656  14.055   2.839
66410W        W32841   2.522   5.470   2.267
66411W        W32842  37.866  32.083  13.603
66412W        W32843  16.595  26.016   2.646
66413W        W32844  28.903  15.315   3.087
66414W        W32845  17.777  13.579   3.265
66415W        W32846  15.643  13.502   4.542
66416W        W32847  39.755  30.160   2.671
66417W        W32848   6.625  23.129  14.512
66418W        W32849  18.322  41.687  11.974
66419W        W32850  12.217   5.464   3.103
66420W        W32851  34.550  12.801  11.644
66421W        W32852   1.754  10.298  10.510
66422W        W32853  35.069  13.315   3.100
66423W        W32854  36.959   5.112  13.964
66424W        W32855   7.475  31.416  14.385
66425W        W32856  27.578  41.107   2.799
66426W        W32857  21.613   8.332  14.764
66427W        W32858   8.596  15.696  11.688
66428W        W32859  18.735  11.136  11.001
66429W        W32860  26.830  44.439  14.517
66430W        W32861   2.409  27.470   4.502
66431W        W32862  37.419   8.756   4.179
66432W        W32863  16.110  39.988  13.974
66433W        W32864  36.101  11.674  14.889
66434W        W32865  23.141  44.033  13.936
66435W        W32866  17.990  38.945  13.574
66436W        W32867  24.612  44.805  10.647
66437W        W32868  40.577  37.083  13.567
66438W        W32869  33.479   6.826   5.010
66439W        W32870  11.351  31.460   2.347
66440W        W32871  30.383   8.373  14.376
66441W        W32872  30.185  41.027   2.148
66442W        W32873  20.140  24.504   3.482
66443W        W32874  20.104  37.550  13.090
66444W        W32875  18.472  19.263   9.730
66445W        W32876  42.602  39.363  11.537
66446W        W32877  18.473  42.981   0.770
66447W        W32878   9.016   7.540   3.714
66448W        W32879  11.318  22.116   4.682
66449W        W32880   7.282  35.683  11.511
66450W        W32881  10.465  10.298  11.612
66451W        W32882   7.544  15.177  14.320
66452W        W32883  39.540  14.340  11.107
66453W        W32884  25.584  17.243  13.481
66454W        W32885  12.556  12.069  10.712
66455W        W32886   7.078  16.390  14.924
66456W        W32887  25.916  44.889  13.406
66457W        W32888  30.045  14.331   2.809
66458W        W32889  44.057  22.573  10.794
66459W        W32890  38.457  18.235  13.777
66460W        W32891  36.419   7.747  12.124
66461W        W32892  23.421  32.419   4.924
66462W        W32893   3.757  11.305   2.672
66463W        W32894   8.432  44.073  11.121
66464W        W32895   4.964  39.496   3.876
66465W        W32896   0.982   7.626  11.013
66466W        W32897  11.124   4.682   0.371
66467W        W32898  37.050   1.241  14.043
66468W        W32899   2.682  10.254  11.878
66469W        W32900   5.162  11.470  11.991
66470W        W32901  42.310   0.256   0.993
66471W        W32902  44.261   6.112   4.589
66472W        W32903  11.831  18.596   0.927
66473W        W32904  29.978   4.446   0.773
66474W        W32905  17.599  32.114   1.263
66475W        W32906   5.682  36.958   4.074
66476W        W32907  26.701  17.366   1.728
66477W        W32908  22.540  14.835  14.940
66478W        W32909  33.923  16.915   0.006
66479W        W32910  26.746  11.284   1.243
66480W        W32911  30.082  37.186   0.745
66481W        W32912  36.069   1.942   3.910
66482W        W32913  18.181   7.408   0.731
66483W        W32914   0.872   9.438  14.592
66484W        W32915  18.523  14.160   3.209
66485W        W32916  29.717  11.427  13.843
66486W        W32917   1.610  34.873   4.070
66487W        W32918   4.312  35.070   3.347
66488W        W32919  42.952  10.444  12.059
66489W        W32920  29.428  18.612   3.084
66490W        W32921  19.673  34.977  12.681
66491W        W32922   5.934  25.878  13.337
66492W        W32923  18.721  32.019   0.733
66493W        W32924  28.793  26.232  12.846
66494W        W32925   7.111   3.329   4.460
66495W        W32926  32.068  31.367   4.839
66496W        W32927  14.094  19.053   3.282
66497W        W32928   8.055   9.638   2.248
66498W        W32929  12.102  29.082  12.606
66499W        W32930  22.327  42.449  13.792
66500W        W32931  11.540  23.506   4.366
66501W        W32932   3.404  22.541   3.999
66502W        W32933  22.489   7.206  11.393
66503W        W32934  37.453   9.233   0.512
66504W        W32935  36.385  17.632   4.569
66505W        W32936   0.117  12.604  14.537
66506W        W32937   5.857   0.952   4.231
66507W        W32938   0.099  38.676  12.472
66508W        W32939   0.921  33.503  10.603
66509W        W32940  25.004  29.190   3.988
66510W        W32941   5.737  25.448   2.686
66511W        W32942  16.060  30.902  13.121
66512W        W32943  21.651  16.949   4.109
66513W        W32944  14.647  44.113  13.376
66514W        W32945  44.867   1.634  13.948
66515W        W32946   9.670  27.329  12.573
66516W        W32947  38.470  41.390  12.263
66517W        W32948  28.267  28.084   2.771
66518W        W32949  38.317  16.729  11.305
66519W        W32950  10.742  31.635   3.313
66520W        W32951  10.711  37.028   0.404
66521W        W32952  20.354  27.696  13.819
66522W        W32953  41.064   5.339  11.653
66523W        W32954  37.836  43.413  13.976
66524W        W32955  14.356  25.956  12.031
66525W        W32956   1.781  44.760  12.659
66526W        W32957  22.753  34.945  14.416
66527W        W32958   5.809  29.708  14.287
66528W        W32959  29.921   9.963   0.365
66529W        W32960  38.041   5.414   1.754
66530W        W32961  27.512   8.500  10.716
66531W        W32962  30.687  24.282  11.333
66532W        W32963   5.637  18.588   3.598
66533W        W32964   2.363   5.929  11.237
66534W        W32965  10.225  44.826   4.164
66535W        W32966  35.516  27.011   0.978
66536W        W32967   6.723  38.044  14.845
66537W        W32968  10.946  32.547   1.764
66538W        W32969  31.388  12.466   0.501
66539W        W32970  12.572  26.611  13.531
66540W        W32971  18.023  11.657  14.904
66541W        W32972  40.782  37.398   0.494
66542W        W32973  14.808   4.386   2.781
66543W        W32974  25.745  33.567  14.751
66544W        W32975   1.688  25.755  14.488
66545W        W32976  24.105  33.440  14.330
66546W        W32977  12.289  13.196  12.458
66547W        W32978  29.571   3.320  10.964
66548W        W32979   3.452  32.878  14.027
66549W        W32980  22.591   4.969  13.118
66550W        W32981  29.874  34.449   2.840
66551W        W32982  16.640   2.735   2.922
66552W        W32983  34.884  11.296  14.693
66553W        W32984  30.659  35.387   2.817
66554W        W32985   2.269   2.778  14.755
66555W        W32986  19.341  17.247   0.851
66556W        W32987  15.873  30.793   2.664
66557W        W32988  18.032  17.058   4.941
66558W        W32989  10.213  10.290  12.087
66559W        W32990  37.436  15.625   2.144
66560W        W32991  28.995  24.630   0.304
66561W        W32992   1.697  33.875   0.258
66562W        W32993  22.777  30.277   2.338
66563W        W32994  31.981  25.929  11.705
66564W        W32995  12.310   2.390   2.327
66565W        W32996  22.765   8.944   3.401
66566W        W32997  43.918  38.731   3.042
66567W        W32998  30.923  24.524   9.744
66568W        W32999  27.022  27.258  13.234
66569W        W33000  26.480  26.988   4.715
66570W        W33001  13.173  26.692  12.749
66571W        W33002  32.446   3.929  10.709
66572W        W33003  44.735  13.888   2.333
66573W        W33004  26.066  21.609  10.898
66574W        W33005  25.543  12.667   2.490
66575W        W33006  18.112  41.881   4.639
66576W        W33007  10.214  34.362   0.383
66577W        W33008  30.896  32.866  14.952
66578W        W33009  15.199  16.283   0.604
66579W        W33010  12.058   6.853   4.528
66580W        W33011  22.701  13.226   0.697
66581W        W33012  26.160  29.577  10.791
66582W        W33013  35.043  30.181   4.184
66583W        W33014  44.955  41.374  13.360
66584W        W33015  17.362  29.703   5.097
66585W        W33016   4.935  41.047   2.658
66586W        W33017  34.923  32.323  11.792
66587W        W33018  39.715   9.257   0.435
66588W        W33019  32.822   2.106  13.922
66589W        W33020  36.430  18.448   0.349
66590W        W33021  39.351  44.066  13.090
66591W        W33022  43.126  34.564  13.496
66592W        W33023  40.937   1.088  14.919
66593W        W33024  35.922  32.348   2.888
66594W        W33025  14.114  12.681   2.163
66595W        W33026  26.172  11.731  11.721
66596W        W33027  13.324  20.100  13.504
66597W        W33028   8.785  16.206  14.722
66598W        W33029  26.729  27.513  14.838
66599W        W33030   4.243  17.818   3.726
66600W        W33031   2.944  43.276   2.093
66601W        W33032   4.205  11.327   1.451
66602W        W33033  10.082  30.976   0.821
66603W        W33034  25.551  27.782   1.737
66604W        W33035  13.189  31.710   0.196
66605W        W33036  38.914  22.298   2.314
66606W        W33037  35.281  13.537  11.158
66607W        W33038  20.169  28.429   0.995
66608W        W33039  12.537  36.245  12.524
66609W        W33040  15.545  22.129  11.784
66610W        W33041  39.054   6.516   9.957
66611W        W33042  21.774  44.872   2.748
66612W        W33043  24.581  33.584   4.503
66613W        W33044  42.909   6.940   2.188
66614W        W33045  37.237  40.443  12.997
66615W        W33046  13.313  13.087   0.771
66616W        W33047  31.646  15.679   0.738
66617W        W33048  37.630  30.710  14.445
66618W        W33049   3.894  44.239   0.818
66619W        W33050  11.232  15.981   4.349
66620W        W33051   7.784  13.688  10.814
66621W        W33052  12.499  34.458   1.773
66622W        W33053  12.371  34.924  11.385
66623W        W33054  24.261   8.962  14.574
66624W        W33055  26.443  17.927  12.479
66625W        W33056  24.645  23.132   0.921
66626W        W33057  33.353  27.147   1.195
66627W        W33058  10.605   0.452  13.323
66628W        W33059  18.641  14.719  10.826
66629W        W33060  40.105  22.910   2.746
66630W        W33061   6.797  26.389   4.776
66631W        W33062  39.400  30.001  14.367
66632W        W33063  20.233   6.364   4.502
66633W        W33064  20.816  29.601   4.999
66634W        W33065   6.266  11.931  12.472
66635W        W33066  34.868  33.486   1.011
66636W        W33067   0.501  29.117   3.708
66637W        W33068   1.071  34.629  14.088
66638W        W33069  12.702  33.065   4.781
66639W        W33070  37.360  38.853  12.912
66640W        W33071  38.265   0.859  12.526
66641W        W33072   5.958   6.165   2.304
66642W        W33073  22.319  20.416   4.756
66643W        W33074  34.528  41.332  13.863
66644W        W33075   1.326  11.612   0.225
66645W        W33076   5.817  26.966   3.912
66646W        W33077  13.380  13.388   2.160
66647W        W33078  17.800  11.673  11.543
66648W        W33079  16.013  29.157   4.697
66649W        W33080  20.558  35.633   2.270
66650W        W33081  17.393  26.064  12.621
66651W        W33082   0.137   1.852  13.568
66652W        W33083  17.265  13.671  12.600
66653W        W33084  35.623  18.660  11.563
66654W        W33085  36.326  12.403   1.700
66655W        W33086  23.779  38.273  12.596
66656W        W33087   9.771  16.987   4.626
66657W        W33088  18.713  37.147  10.721
66658W        W33089  41.805   1.497   1.294
66659W        W33090  12.868  15.186  12.240
66660W        W33091  22.024  34.726  14.045
66661W        W33092  15.356  38.517   3.750
66662W        W33093  20.045  40.058  14.875
66663W        W33094  38.320   9.591   3.680
66664W        W33095  43.991  28.389  12.066
66665W        W33096  41.129  26.524   1.250
66666W        W33097  37.775  20.631   2.127
66667W        W33098  30.298  16.272  11.540
66668W        W33099  13.933  10.191   0.864
66669W        W33100   9.798   5.418  13.467
66670W        W33101  28.520  18.964  12.875
66671W        W33102   9.146  33.700  14.913
66672W        W33103  41.769  12.144   4.567
66673W        W33104  32.139  32.637   2.653
66674W        W33105  42.061  38.513   0.921
66675W        W33106  37.469  25.773  14.877
66676W        W33107  14.771  39.857  14.226
66677W        W33108  21.017  43.896  12.850
66678W        W33109  36.069  37.512   2.224
66679W        W33110  29.640  32.136   2.275
66680W        W33111  37.870  40.486   4.872
66681W        W33112  26.608  27.483   4.531
66682W        W33113   0.734  28.313  12.952
66683W        W33114  43.997  36.497   0.411
66684W        W33115  27.538   6.419   0.786
66685W        W33116   0.901   6.802  12.376
66686W        W33117  35.598  18.314   1.170
66687W        W33118  37.923  18.048  11.604
66688W        W33119  14.706  26.186   3.854
66689W        W33120   8.593  30.069   2.230
66690W        W33121  15.682   2.395  14.807
66691W        W33122   7.237  18.786   2.819
66692W        W33123  30.614  20.471  14.753
66693W        W33124  20.675  19.481  13.940
66694W        W33125  40.004  17.551  11.930
66695W        W33126  29.623   2.662  14.948
66696W        W33127  41.065  18.510  12.946
66697W        W33128  25.809   0.852   3.250
66698W        W33129  41.073   8.673   0.775
66699W        W33130  30.727  38.990  12.744
66700W        W33131   9.252  20.042  13.330
66701W        W33132  20.384  15.825  12.058
66702W        W33133  25.010   2.647   4.062
66703W        W33134  14.294  26.109   3.060
66704W        W33135  12.259  11.853  12.911
66705W        W33136  10.873  41.066   4.691
66706W        W33137  20.392  41.459  13.355
66707W        W33138  42.897  32.117  13.923
66708W        W33139  31.029  18.664   2.151
66709W        W33140  20.983  44.330  14.977
66710W        W33141  24.996   4.015  12.386
66711W        W33142  34.986  16.544   0.420
66712W        W33143  15.424  26.996  10.694
66713W        W33144   8.957  16.622  10.408
66714W        W33145  41.032  16.739   1.970
66715W        W33146  10.722  40.800   3.697
66716W        W33147  25.523  25.911  14.520
66717W        W33148  19.294  40.452  14.381
66718W        W33149  23.553  21.412   2.286
66719W        W33150  40.092  20.488  11.581
66720W        W33151  37.013  12.155  12.023
66721W        W33152  20.005   2.693   2.001
66722W        W33153  32.960  35.072  14.858
66723W        W33154  27.434   1.849  14.774
66724W        W33155  43.535  18.263   4.374
66725W        W33156   9.090  10.031   1.552
66726W        W33157  40.545  24.972   2.260
66727W        W33158  29.563  42.117  12.828
66728W        W33159   6.000  21.696  11.260
66729W        W33160  23.023  34.827   2.766
66730W        W33161  31.757  27.472  13.496
66731W        W33162  36.502  28.045   3.106
66732W        W33163  34.324  40.939   3.565
66733W        W33164  29.159  13.030  13.603
66734W        W33165  39.562  33.405  14.463
66735W        W33166  25.671  16.120  13.955
66736W        W33167   9.300  42.943   3.372
66737W        W33168  19.166   1.777  14.097
66738W        W33169   5.830   8.431  13.869
66739W        W33170  34.506  16.224  10.927
66740W        W33171   9.695   1.237   3.149
66741W        W33172  21.160   5.770  10.561
66742W        W33173  41.598  16.652   4.020
66743W        W33174   2.564  30.469   2.821
66744W        W33175  23.043  23.979   0.089
66745W        W33176  14.118  17.167   5.030
66746W        W33177   9.442  31.242  11.598
66747W        W33178  20.174   6.535   4.977
66748W        W33179  14.293  26.868  13.534
66749W        W33180  28.146  13.091  14.470
66750W        W33181  28.086  29.820   1.548
66751W        W33182  44.262  18.358  12.880
66752W        W33183  12.292  25.704  12.853
66753W        W33184  16.755   9.003   2.770
66754W        W33185  42.980  14.374   4.510
66755W        W33186  10.716   1.370  14.477
66756W        W33187  39.349  27.048  14.173
66757W        W33188  15.312   8.948  12.392
66758W        W33189  21.938  22.693  14.016
66759W        W33190  30.033  28.515   4.597
66760W        W33191  22.926  35.598  11.155
66761W        W33192  13.592  42.839  13.185
66762W        W33193  20.478   2.129  11.855
66763W        W33194   9.218  14.678  11.031
66764W        W33195  12.117  44.738  12.857
66765W        W33196  40.496  10.256  14.598
66766W        W33197  32.508   3.869   0.634
66767W        W33198  19.181   4.353  10.497
66768W        W33199  41.749  28.582  12.932
66769W        W33200  32.326  16.660  12.564
66770W        W33201  11.612  25.046   4.315
66771W        W33202  31.081  27.354  14.937
66772W        W33203   8.631  42.376   2.852
66773W        W33204  36.616  37.567   1.356
66774W        W33205  39.514  27.079  11.667
66775W        W33206   2.204  31.536  10.702
66776W        W33207  33.408   1.358  12.793
66777W        W33208  35.450  13.053  13.394
66778W        W33209  27.828  29.567   0.626
66779W        W33210  17.999  32.397   2.892
66780W        W33211   7.617   7.023  13.741
66781W        W33212  40.833  14.691  10.728
66782W        W33213  29.980  26.738   0.255
66783W        W33214   1.261  15.330   2.195
66784W        W33215  12.242  18.540  14.325
66785W        W33216  18.724  23.481   4.466
66786W        W33217  28.168  25.464  14.572
66787W        W33218  23.439   1.321   2.581
66788W        W33219  19.325  32.150   0.545
66789W        W33220   5.314  16.172   1.349
66790W        W33221   1.221  42.817  11.085
66791W        W33222  40.713  27.990  11.074
66792W        W33223  40.783  36.553   0.786
66793W        W33224  29.596  25.754  14.627
66794W        W33225   4.442  38.268  11.061
66795W        W33226  20.049  24.974  14.837
66796W        W33227   9.794   0.190   0.338
66797W        W33228  22.666  10.556   3.439
66798W        W33229  24.960   0.019   0.973
66799W        W33230  35.133  42.085  14.469
66800W        W33231  13.892  17.646  10.783
66801W        W33232  32.391  40.103  11.147
66802W        W33233  42.902  37.473  10.934
66803W        W33234  15.705  31.953  12.085
66804W        W33235  22.076  23.742   0.470
66805W        W33236  23.952  32.573  14.295
66806W        W33237  24.332   9.184   4.493
66807W        W33238   8.773  26.111   3.698
66808W        W33239  22.890   4.277  13.800
66809W        W33240  12.344  24.236  11.489
66810W        W33241  10.821  30.217  12.166
66811W        W33242  28.172  27.607   4.054
66812W        W33243  30.932   1.745   4.152
66813W        W33244  16.557  41.335   3.656
66814W        W33245  12.947  23.997   3.268
66815W        W33246   3.926   2.419   4.614
66816W        W33247  39.733  26.663   2.691
66817W        W33248   6.731  21.344  14.502
66818W        W33249  44.683   0.951  12.509
66819W        W33250   2.953   6.367   1.670
66820W        W33251  10.179  16.616   2.413
66821W        W33252  17.355  26.808   0.264
66822W        W33253  22.142  42.803   3.303
66823W        W33254   1.193   2.315   3.825
66824W        W33255  14.669   1.288   2.209
66825W        W33256  22.237  18.812   2.894
66826W        W33257  42.266  20.683   3.647
66827W        W33258  29.721  26.621   2.827
66828W        W33259  21.725  18.649   3.365
66829W        W33260  42.611  17.284  13.485
66830W        W33261   7.854  23.793   1.380
66831W        W33262  37.929  14.349   2.377
66832W        W33263  44.211  20.038   0.867
66833W        W33264  12.818   5.620  14.612
66834W        W33265   5.143  32.085  14.769
66835W        W33266  40.519  41.504   2.723
66836W        W33267   4.749  43.647  10.683
66837W        W33268  33.943   3.418   2.423
66838W        W33269  10.585  39.297   2.663
66839W        W33270  30.381  21.145   0.300
66840W        W33271  41.662  25.119  13.826
66841W        W33272  12.208  17.287   4.092
66842W        W33273   5.383  21.163  14.507
66843W        W33274  29.073  13.628  14.424
66844W        W33275  44.244  32.911  11.225
66845W        W33276  18.396  10.837   1.917
66846W        W33277  42.306  43.516  12.485
66847W        W33278  40.864  36.338  12.508
66848W        W33279   3.160   3.774  14.221
66849W        W33280  25.351  26.580  14.783
66850W        W33281  31.493  37.974   3.874
66851W        W33282  31.020   3.927  11.097
66852W        W33283   0.496  27.757   4.440
66853W        W33284   5.776  10.330   3.307
66854W        W33285   4.361  19.523   1.382
66855W        W33286  39.066  30.650   0.452
66856W        W33287  44.369  12.704   1.750
66857W        W33288   9.451  14.186  10.319
66858W        W33289  13.678  35.956  13.334
66859W        W33290   9.333  30.000   3.590
66860W        W33291  24.519  16.724   2.685
66861W        W33292  41.018   8.844   3.730
66862W        W33293  37.600  34.604  13.674
66863W        W33294  13.161   2.408  13.791
66864W        W33295  12.269   5.164  11.189
66865W        W33296  29.478   4.149  10.977
66866W        W33297  17.180  21.784  14.362
66867W        W33298  43.284   8.748  11.592
66868W        W33299  33.180  31.514  13.022
66869W        W33300  42.314   9.648   3.695
66870W        W33301   1.389  12.863   0.536
66871W        W33302  10.440  42.132   2.218
66872W        W33303  37.009   3.308   0.415
66873W        W33304  32.949   3.112  12.264
66874W        W33305  22.753  42.832  12.765
66875W        W33306  40.828  26.271  14.348
66876W        W33307  22.208  13.136   4.216
66877W        W33308  36.955   5.717  12.100
66878W        W33309   2.622  19.021   0.216
66879W        W33310  28.985  28.398  12.085
66880W        W33311   7.589  10.622   0.488
66881W        W33312  11.910  25.433   3.587
66882W        W33313  20.034  31.587   0.371
66883W        W33314  40.452   2.463  12.466
66884W        W33315  19.247  23.061  13.518
66885W        W33316  39.937  32.456   1.321
66886W        W33317  36.863  12.291   1.728
66887W        W33318  16.521  34.637   2.284
66888W        W33319  39.879   0.675   4.307
66889W        W33320  40.040   8.426  11.146
66890W        W33321  26.242  33.242   2.320
66891W        W33322  42.595  13.378  13.929
66892W        W33323  38.312  36.467  10.452
66893W        W33324  22.004  14.118   2.399
66894W        W33325  17.429  41.131   3.248
66895W        W33326  13.308  27.134   2.604
66896W        W33327  43.357   7.142   0.480
66897W        W33328  38.474   5.139   4.254
66898W        W33329  19.331  38.968   1.279
66899W        W33330   0.673  28.970   4.185
66900W        W33331  36.422  33.497   3.819
66901W        W33332  40.316  26.769  14.000
66902W        W33333  15.617  43.080  11.544
66903W        W33334  16.810  23.857  12.082
66904W        W33335   5.144   0.933  12.694
66905W        W33336  33.701  20.630   4.154
66906W        W33337  39.693  30.617   1.838
66907W        W33338  25.515   1.519   3.279
66908W        W33339  39.842  36.983   2.407
66909W        W33340  16.311   4.214  11.704
66910W        W33341  23.211  16.721   3.893
66911W        W33342   4.137  42.807   2.239
66912W        W33343   0.650   0.258   0.110
66913W        W33344   8.162  24.234   1.518
66914W        W33345   6.828   0.717   2.177
66915W        W33346  43.009  25.602  11.234
66916W        W33347  43.432  40.520  11.702
66917W        W33348  20.658  40.587   0.301
66918W        W33349  18.616  43.632  13.109
66919W        W33350  44.502  12.108   4.509
66920W        W33351  10.275  15.243  11.583
66921W        W33352  20.809   7.585  12.043
66922W        W33353  19.258  16.552   3.515
66923W        W33354  24.918  21.088  13.449
66924W        W33355  25.426  10.313  14.894
66925W        W33356   0.791  28.946  12.136
66926W        W33357  22.184  37.328   4.885
66927W        W33358  42.264  20.652   1.340
66928W        W33359  26.721  16.333   0.763
66929W        W33360  34.074   0.331  11.996
66930W        W33361  38.841  11.354  13.935
66931W        W33362  44.881  43.739  12.849
66932W        W33363   6.844  10.065   0.693
66933W        W33364  41.501  16.482   1.637
66934W        W33365  14.565  39.421   0.357
66935W        W33366   8.648  25.238   1.299
66936W        W33367  30.981  16.177  12.446
66937W        W33368  17.098  17.828  14.389
66938W        W33369   6.760  38.560   3.701
66939W        W33370  40.443  16.224   0.429
66940W        W33371  35.898  36.788   1.332
66941W        W33372  40.937  20.584   2.940
66942W        W33373  39.382   1.407   0.392
66943W        W33374   3.380  14.896   0.234
66944W        W33375   6.665   0.761   4.799
66945W        W33376  14.108   5.009  12.152
66946W        W33377  42.582   1.896   3.759
66947W        W33378  39.791  15.547  10.970
66948W        W33379  35.073   8.280  10.884
66949W        W33380  32.629  43.515  14.472
66950W        W33381  15.784  18.247   3.235
66951W        W33382  28.961  41.837   1.688
66952W        W33383  32.503  33.471   0.741
66953W        W33384  26.022  25.657  11.602
66954W        W33385  14.042   3.481  13.105
66955W        W33386  29.773   3.389   3.612
66956W        W33387  11.603   4.799  10.528
66957W        W33388   9.424   2.140  11.191
66958W        W33389   6.627   7.206   2.828
66959W        W33390  37.156  22.558  12.478
66960W        W33391  32.193  21.661  10.454
66961W        W33392   6.470  16.979  11.606
66962W        W33393  44.237  40.945   4.446
66963W        W33394  21.737  39.247  14.897
66964W        W33395  13.235   3.413  12.717
66965W        W33396  17.039  16.004   3.740
66966W        W33397   2.061   6.165   3.579
66967W        W33398  27.444  11.726  13.019
66968W        W33399  37.120  28.688  11.198
66969W        W33400   9.974  10.026   9.933
66970W        W33401  20.486   7.160  12.028
66971W        W33402  28.937  23.802  12.016
66972W        W33403  23.062   9.938   0.327
66973W        W33404  27.803  35.119   2.333
66974W        W33405  42.468  11.674  12.637
66975W        W33406  19.206  18.114   2.609
66976W        W33407  23.504  26.561   4.953
66977W        W33408   5.396  43.658   1.795
66978W        W33409  30.220  19.172   4.521
66979W        W33410   3.232  40.988   2.402
66980W        W33411  43.116  10.029   4.756
66981W        W33412   6.746  44.054  12.598
66982W        W33413  32.634   7.884   0.748
66983W        W33414  25.996  17.438   3.824
66984W        W33415  12.095  16.346   0.537
66985W        W33416  19.027  33.910   0.328
66986W        W33417   1.396  37.263   4.738
66987W        W33418  29.462  26.901  12.855
66988W        W33419  13.971  37.661  12.168
66989W        W33420  38.152  31.391   3.221
66990W        W33421  44.739  37.041  10.959
66991W        W33422  39.293  20.511   1.952
66992W        W33423  20.799  11.697  14.795
66993W        W33424  17.036  36.433  14.338
66994W        W33425   3.756  13.082  12.830
66995W        W33426  32.175   9.828   2.886
66996W        W33427   5.750  14.780   0.903
66997W        W33428  12.528   9.728  11.896
66998W        W33429  40.748  18.659   4.623
66999W        W33430  20.640  27.294  14.832
67000W        W33431  27.527  41.382  14.363
67001W        W33432  16.130  33.150   4.462
67002W        W33433  42.514   6.835   3.561
67003W        W33434  24.010  24.305   4.123
67004W        W33435  42.482  33.038   2.216
67005W        W33436  44.769   4.623  14.760
67006W        W33437  42.465  42.107   1.319
67007W        W33438  41.107  41.058  13.372
67008W        W33439   1.327  12.825   4.081
67009W        W33440  44.997  34.500  13.601
67010W        W33441  24.598  13.194  12.398
67011W        W33442  12.847  31.058   3.176
67012W        W33443   6.353  21.480   1.578
67013W        W33444  27.606  26.129   1.665
67014W        W33445  24.689  38.821  12.477
67015W        W33446  30.569  14.267  12.518
67016W        W33447   0.042  19.628   2.880
67017W        W33448  43.085   1.840   1.325
67018W        W33449  28.078  18.128  12.057
67019W        W33450  15.182  16.636   4.259
67020W        W33451  32.999  10.324  14.690
67021W        W33452  41.364  18.613   0.283
67022W        W33453  30.665  30.487  12.986
67023W        W33454   0.816  12.773   2.840
67024W        W33455  29.543   8.410  12.513
67025W        W33456  40.066   3.842   0.536
67026W        W33457  14.654  20.082   3.777
67027W        W33458  31.029  19.161   5.105
67028W        W33459   8.647  31.912  11.645
67029W        W33460   9.799  30.905  10.336
67030W        W33461  39.533  41.004   3.992
67031W        W33462  21.256  31.799   3.261
67032W        W33463  28.655  40.468  12.517
67033W        W33464  18.510   3.306   3.438
67034W        W33465  17.080  27.241   0.990
67035W        W33466  18.349  17.149   3.604
67036W        W33467  40.834   5.169  12.089
67037W        W33468   3.688  24.255  13.785
67038W        W33469   3.920  18.360   0.969
67039W        W33470  17.923  39.507  12.108
67040W        W33471  43.584  43.575   4.254
67041W        W33472  14.454  44.580  13.714
67042W        W33473  36.165   1.419   0.886
67043W        W33474  25.571  30.114   0.944
67044W        W33475  32.582   7.428  11.591
67045W        W33476  38.830  18.626   4.658
67046W        W33477  14.076  14.184   1.329
67047W        W33478  23.671  10.158   3.154
67048W        W33479  42.294  44.321  13.837
67049W        W33480  34.811  17.813  13.750
67050W        W33481  36.608  24.130   4.754
67051W        W33482  16.384  33.644  13.001
67052W        W33483  28.485  37.132  13.389
67053W        W33484  29.245  10.436  13.178
67054W        W33485  11.015  30.095   2.833
67055W        W33486   9.499   3.859   2.149
67056W        W33487  35.089  17.197   4.298
67057W        W33488  34.273  15.249   1.378
67058W        W33489  23.213  28.715  11.406
67059W        W33490  25.536  21.981  14.751
67060W        W33491  44.391  24.162  12.998
67061W        W33492  36.897  39.541  14.377
67062W        W33493  11.358   4.978  11.255
67063W        W33494  29.668  10.460  12.869
67064W        W33495   5.352  26.773   3.732
67065W        W33496  24.324   8.466  13.148
67066W        W33497   9.706  38.909  14.239
67067W        W33498  41.219  34.235   0.877
67068W        W33499  13.055  25.888  14.410
67069W        W33500  32.663  31.534   1.210
67070W        W33501  30.912  13.649  13.653
67071W        W33502   8.414  18.587   0.210
67072W        W33503  14.817  37.990  12.409
67073W        W33504  11.851  25.982  11.977
67074W        W33505  14.751   3.473   0.713
67075W        W33506   1.953  41.787  13.113
67076W        W33507  16.610   3.177   3.685
67077W        W33508  23.505   8.407  11.474
67078W        W33509  36.464  36.153  11.618
67079W        W33510  37.809  23.084   0.636
67080W        W33511  30.100  13.896  12.553
67081W        W33512  22.545   7.627  10.137
67082W        W33513  14.288  31.525  12.076
67083W        W33514   0.893  12.583  14.403
67084W        W33515  11.755  11.869  12.969
67085W        W33516  21.679  32.444   4.514
67086W        W33517  30.527   7.978   2.637
67087W        W33518  25.436  19.412   1.660
67088W        W33519  20.646  25.806   4.464
67089W        W33520  23.321  20.552  12.775
67090W        W33521  13.116  34.126  14.442
67091W        W33522  40.976  38.624   0.082
67092W        W33523  26.493  25.443   2.349
67093W        W33524   6.676   5.783  13.314
67094W        W33525  22.285  44.792   2.890
67095W        W33526  35.433  26.011   3.098
67096W        W33527  25.928  31.419   0.495
67097W        W33528  42.823  31.149  11.084
67098W        W33529  23.582  37.808  13.447
67099W        W33530   7.181   7.730  13.383
67100W        W33531   6.716  31.477  14.082
67101W        W33532   3.324  24.094   1.427
67102W        W33533  16.275   0.268   2.946
67103W        W33534  29.215  40.409  11.482
67104W        W33535  42.788   9.813  12.711
67105W        W33536  21.638  14.881  11.122
67106W        W33537   8.339  17.379  10.915
67107W        W33538  29.511  42.781   3.346
67108W        W33539  21.795  27.580   1.421
67109W        W33540  39.515  31.116   1.790
67110W        W33541  12.517  35.344  12.072
67111W        W33542  35.398  18.669  13.087
67112W        W33543   4.826  13.134   1.462
67113W        W33544   2.975  39.634  14.504
67114W        W33545   7.877  10.824  14.443
67115W        W33546  30.481  36.107  12.925
67116W        W33547  32.147   6.796  12.860
67117W        W33548  12.725  11.887   3.785
67118W        W33549  36.944   9.154   4.614
67119W        W33550  10.274  19.605   4.488
67120W        W33551  17.337  26.305   3.318
67121W        W33552  31.831  35.534   3.545
67122W        W33553  44.786  35.332   4.825
67123W        W33554  44.002  25.488   4.074
67124W        W33555  42.494  38.078  13.904
67125W        W33556  30.073  42.606   0.352
67126W        W33557  28.649  17.192   2.247
67127W        W33558  33.930  21.145   2.780
67128W        W33559  27.202   4.377   0.163
67129W        W33560  17.765  14.623   4.178
67130W        W33561  11.277  30.081  13.323
67131W        W33562  16.803   3.726   1.694
67132W        W33563   2.848  33.429  14.594
67133W        W33564  17.897  10.889   1.767
67134W        W33565  17.349  21.039  13.310
67135W        W33566  44.977   4.327  13.903
67136W        W33567   2.183  44.429   2.152
67137W        W33568  30.999  35.081  10.462
67138W        W33569  35.552  39.895  13.486
67139W        W33570   0.376  15.839  14.318
67140W        W33571  26.423   7.978   2.401
67141W        W33572  17.381  43.484  12.970
67142W        W33573   8.380  42.517   1.960
67143W        W33574   0.367  14.179   3.765
67144W        W33575  27.022   0.462   2.374
67145W        W33576  35.513  37.390  14.889
67146W        W33577  24.699  33.628  12.961
67147W        W33578   9.793  13.309  10.416
67148W        W33579  36.897  20.773  10.982
67149W        W33580   1.382   2.781   4.603
67150W        W33581   6.376  22.701  10.481
67151W        W33582  34.389  40.628  11.730
67152W        W33583  23.159   8.052  11.657
67153W        W33584  37.934  44.850   4.626
67154W        W33585  14.165  28.193   1.893
67155W        W33586  42.248   4.697  11.963
67156W        W33587  13.906  40.905   2.852
67157W        W33588   5.907  20.498   4.243
67158W        W33589  20.594  12.826   2.930
67159W        W33590   3.243   6.744  14.404
67160W        W33591   0.406  29.435   4.087
67161W        W33592  30.180  29.882   2.318
67162W        W33593  18.461  15.067   3.694
67163W        W33594  15.359  27.083   4.006
67164W        W33595  25.095   6.377   4.676
67165W        W33596  12.968   9.679  12.586
67166W        W33597  25.988  32.833  11.219
67167W        W33598   8.864  44.276   1.311
67168W        W33599  21.060  19.819  13.904
67169W        W33600  18.375  31.603  14.498
67170W        W33601  32.518  40.067  14.282
67171W        W33602  31.646  38.531   0.392
67172W        W33603  39.530  41.906  13.492
67173W        W33604  37.800  38.308  11.619
67174W        W33605  37.564  30.581  12.115
67175W        W33606   6.434  41.640  13.890
67176W        W33607  15.172  19.574   0.935
67177W        W33608  18.589  28.280   2.600
67178W        W33609   3.165   2.210   2.849
67179W        W33610  32.861   1.990  14.879
67180W        W33611   5.413  31.426   4.611
67181W        W33612  37.798   3.455   3.845
67182W        W33613  32.637  37.940  12.383
67183W        W33614  38.750   7.679   1.322
67184W        W33615  33.843  28.892   0.739
67185W        W33616  32.963  40.556   1.718
67186W        W33617  33.351   8.803   0.069
67187W        W33618  11.925  24.688   4.088
67188W        W33619  43.712   2.900   4.542
67189W        W33620  14.535  29.062   2.593
67190W        W33621   7.599  35.451  11.147
67191W        W33622  15.537  22.935   4.962
67192W        W33623  15.082  28.108   1.894
67193W        W33624  15.094   5.533   4.178
67194W        W33625  22.012   2.201   3.351
67195W        W33626  24.132  17.701   4.100
67196W        W33627  44.346   6.694  10.109
67197W        W33628  22.498  20.387  10.251
67198W        W33629  15.649  32.046  12.973
67199W        W33630  11.217   0.491  13.006
67200W        W33631   4.550  17.429  12.142
67201W        W33632   5.252  30.406  13.339
67202W        W33633   7.923  14.622  12.551
67203W        W33634  12.646  28.230   2.189
67204W        W33635  37.867  37.234  12.523
67205W        W33636  17.798  30.373   3.638
67206W        W33637   0.335   9.226   4.958
67207W        W33638  24.734   6.740   2.840
67208W        W33639  33.913   1.818   2.248
67209W        W33640   2.618   0.210   3.137
67210W        W33641  31.888  38.931   2.208
67211W        W33642  29.072  29.079  14.342
67212W        W33643  24.684   5.352  13.425
67213W        W33644  33.094  19.642  13.104
67214W        W33645   3.888  16.608   4.866
67215W        W33646  32.328  26.166   2.851
67216W        W33647  41.824  41.076  14.505
67217W        W33648   4.669   6.785   2.169
67218W        W33649  40.044  39.998  12.017
67219W        W33650  20.002  18.156   0.408
67220W        W33651   3.434  14.979   0.742
67221W        W33652   9.560  30.372   3.112
67222W        W33653   6.797  21.994  12.042
67223W        W33654  29.926  39.995  14.545
67224W        W33655  32.392  36.921   4.044
67225W        W33656   5.596   3.318   1.503
67226W        W33657  41.371  19.629   4.672
67227W        W33658  39.303  32.468  12.805
67228W        W33659  16.680   4.663  10.719
67229W        W33660  12.480  25.606  13.746
67230W        W33661  37.397  27.127   2.831
67231W        W33662  34.987  16.298  11.178
67232W        W33663  32.025   8.833  14.677
67233W        W33664   1.057   2.047  11.155
67234W        W33665  12.576  23.623   9.823
67235W        W33666  19.583   3.804   0.907
67236W        W33667   5.200  44.818   2.557
67237W        W33668  15.999   0.114   4.769
67238W        W33669  15.395  12.593  10.486
67239W        W33670  25.386   9.227   0.433
67240W        W33671  35.100  20.607  13.940
67241W        W33672   1.970   7.403  13.799
67242W        W33673  21.260  16.628   3.610
67243W        W33674  28.768  13.857  13.566
67244W        W33675  44.300  29.237  12.074
67245W        W33676  12.090  28.639  14.458
67246W        W33677  39.752   2.235   2.367
67247W        W33678  42.231  36.046   4.692
67248W        W33679  37.835   5.752   4.899
67249W        W33680  21.058  12.676   4.758
67250W        W33681  40.445  44.422   3.619
67251W        W33682  12.178  43.382   3.075
67252W        W33683  32.402  22.581   4.222
67253W        W33684  12.996  20.132   2.309
67254W        W33685   5.736  41.971  13.421
67255W        W33686   9.559   0.792   2.343
67256W        W33687  16.875  28.108   1.780
67257W        W33688  21.111   1.073   5.116
67258W        W33689  20.573  13.342  11.199
67259W        W33690  24.127  40.526   0.967
67260W        W33691  15.096  42.518   0.337
67261W        W33692   7.804   6.026  13.926
67262W        W33693   2.856  43.231  12.467
67263W        W33694  43.380  15.303   1.192
67264W        W33695  32.578   1.955  14.442
67265W        W33696  19.024  27.071  10.473
67266W        W33697  11.380   1.295  10.604
67267W        W33698  33.326  28.516  14.022
67268W        W33699  22.959   5.600   4.553
67269W        W33700  35.382   6.668   1.217
67270W        W33701  38.451  44.853   2.311
67271W        W33702  36.404  40.996  13.061
67272W        W33703  34.570  34.413  11.236
67273W        W33704  38.140  44.468  14.921
67274W        W33705  24.084  17.594   2.642
67275W        W33706  26.680  30.336  11.196
67276W        W33707   7.184   5.994  12.633
67277W        W33708  27.456   5.185  13.911
67278W        W33709  29.084  44.264  11.285
67279W        W33710  13.314   6.351   3.292
67280W        W33711   3.690  13.830   0.403
67281W        W33712  23.460   0.008  13.058
67282W        W33713  20.566  28.262   4.258
67283W        W33714   7.062   9.653  13.057
67284W        W33715  44.191  29.815   4.643
67285W        W33716  12.230   8.363  14.110
67286W        W33717  35.462  28.096   1.637
67287W        W33718  38.714   5.984  14.414
67288W        W33719  12.621  23.774  14.484
67289W        W33720  39.847  14.723  11.262
67290W        W33721  26.545  22.216  10.477
67291W        W33722  44.643  37.974   2.668
67292W        W33723  10.730   2.413   4.548
67293W        W33724  12.219  27.577   0.522
67294W        W33725  32.147  27.126  12.390
67295W        W33726  42.518  27.550  11.591
67296W        W33727  13.726  24.144   2.710
67297W        W33728  24.951  25.447   3.155
67298W        W33729  28.823   9.305  13.976
67299W        W33730  21.138  31.033  12.453
67300W        W33731  32.186  35.351  13.043
67301W        W33732  20.933   3.798   2.279
67302W        W33733  43.937  25.433   2.214
67303W        W33734  41.295  15.610  14.581
67304W        W33735  32.245  41.672  10.433
67305W        W33736  38.387   0.941   4.282
67306W        W33737  43.479  23.047  13.306
67307W        W33738  23.923  37.795  14.265
67308W        W33739   8.402  41.060   0.468
67309W        W33740  13.350  16.289  10.681
67310W        W33741  21.082  12.659  13.823
67311W        W33742  16.742   6.782  12.562
67312W        W33743  44.931  38.085  11.001
67313W        W33744  31.253  11.497   4.657
67314W        W33745   3.470  31.605  12.034
67315W        W33746  15.813  34.203  14.907
67316W        W33747   7.836  33.622   4.786
67317W        W33748  32.381  44.532  10.690
67318W        W33749  37.500  42.704  12.460
67319W        W33750   8.464  17.833   1.389
67320W        W33751  21.225  14.090   0.290
67321W        W33752  14.443  25.447   4.192
67322W        W33753  40.839  19.708  12.896
67323W        W33754  10.418  15.483   4.044
67324W        W33755  27.387  34.591  11.212
67325W        W33756  20.909  30.409   9.960
67326W        W33757  21.586  24.633   2.619
67327W        W33758  44.816  37.292   4.115
67328W        W33759  20.759  42.364  10.902
67329W        W33760  31.552  33.595   0.725
67330W        W33761  30.430  43.476   3.670
67331W        W33762  36.543   9.583   1.372
67332W        W33763  39.826  10.344  12.074
67333W        W33764  21.685   8.636  12.447
67334W        W33765   6.637  28.055   4.622
67335W        W33766  44.857   8.688   1.246
67336W        W33767  19.791  33.109  12.017
67337W        W33768  31.428  42.804   2.118
67338W        W33769  10.895   4.256  12.993
67339W        W33770  25.691   7.408  10.242
67340W        W33771   1.397  28.530  11.655
67341W        W33772  34.781   5.179   0.704
67342W        W33773  11.745  12.456   0.648
67343W        W33774   2.607   4.928  10.222
67344W        W33775  19.479  38.480  11.232
67345W        W33776  25.570  36.129   0.350
67346W        W33777   5.217   8.762   1.966
67347W        W33778  22.500   5.163  13.602
67348W        W33779  22.170  35.310   1.255
67349W        W33780  38.840  14.268  13.833
67350W        W33781  25.179  31.531   1.835
67351W        W33782  30.928  16.093   1.302
67352W        W33783   3.891  42.512   0.531
67353W        W33784  42.563  38.564  14.096
67354W        W33785  39.990   4.206   3.323
67355W        W33786  43.506  20.539   0.859
67356W        W33787  32.154  42.688   2.408
67357W        W33788  11.672  17.898  14.781
67358W        W33789   2.811  11.357   2.669
67359W        W33790   8.889   1.832   4.150
67360W        W33791  27.155   1.747   4.036
67361W        W33792  14.805   0.796  13.600
67362W        W33793   6.273  23.786   3.179
67363W        W33794  14.840   5.428  14.323
67364W        W33795  43.596  10.657  11.045
67365W        W33796  10.922  28.136  14.759
67366W        W33797  26.621  38.391   2.279
67367W        W33798  30.402  12.277  13.990
67368W        W33799  18.790  44.130   0.413
67369W        W33800   2.982   7.483  12.276
67370W        W33801   3.968   8.195  14.249
67371W        W33802   4.380  13.229   4.867
67372W        W33803  36.310   6.246   0.421
67373W        W33804  13.158  21.184   0.327
67374W        W33805  21.737  16.570  14.230
67375W        W33806   2.831  13.648  12.659
67376W        W33807  38.443   8.298   4.794
67377W        W33808  28.657   7.532   2.287
67378W        W33809   0.318  36.440  13.522
67379W        W33810  40.469  23.049  14.807
67380W        W33811  39.422   1.564  11.449
67381W        W33812  36.727  10.356  13.861
67382W        W33813  43.625  17.420  11.749
67383W        W33814  18.248   8.263   2.268
67384W        W33815  42.892  16.107   4.484
67385W        W33816  28.385   2.675  11.184
67386W        W33817   5.269  20.581   0.803
67387W        W33818  31.573   5.384  10.752
67388W        W33819  29.985  20.137   0.178
67389W        W33820  17.052   1.857  12.165
67390W        W33821  28.617  26.431   3.248
67391W        W33822  26.823   6.932  10.357
67392W        W33823  27.642  10.122  10.462
67393W        W33824  33.882  36.951   1.141
67394W        W33825   1.077  44.478  14.607
67395W        W33826   3.702   4.177   3.181
67396W        W33827  24.289  21.973   9.869
67397W        W33828  18.648   7.430  11.019
67398W        W33829  11.199  22.749   4.088
67399W        W33830  13.845  22.043   0.824
67400W        W33831  39.143  29.975  10.620
67401W        W33832  44.632  32.459  14.022
67402W        W33833  26.451  31.420   2.201
67403W        W33834  33.089  39.580  12.781
67404W        W33835  23.267  23.398   3.211
67405W        W33836   2.849   4.134   2.112
67406W        W33837  35.334  41.670  13.169
67407W        W33838  19.895  19.858   0.401
67408W        W33839  29.139  16.291  13.146
67409W        W33840  34.759  10.307   0.052
67410W        W33841  16.702  24.567   0.928
67411W        W33842  30.590  44.972  12.581
67412W        W33843  17.094  17.359   4.116
67413W        W33844  29.560  10.184  10.598
67414W        W33845  28.735  26.979   2.480
67415W        W33846  19.044  24.152   3.911
67416W        W33847  18.400  39.030   4.072
67417W        W33848  37.085  19.675  11.572
67418W        W33849  42.524   9.235  11.637
67419W        W33850   4.414  20.463  14.040
67420W        W33851   9.752  34.259   2.280
67421W        W33852  15.069  17.594   9.591
67422W        W33853  40.986  40.311  11.238
67423W        W33854  43.418  13.504  13.989
67424W        W33855  44.099  33.499   2.865
67425W        W33856  43.215  22.155  12.848
67426W        W33857  36.722  43.385   4.650
67427W        W33858   2.297  42.633  11.281
67428W        W33859  35.958   1.490   0.366
67429W        W33860  24.208  28.171   1.365
67430W        W33861  18.433  43.892   4.081
67431W        W33862  39.880  34.818  14.739
67432W        W33863  40.308   5.679  12.497
67433W        W33864  39.569   7.131  10.672
67434W        W33865   7.472  18.208  11.911
67435W        W33866  21.093  35.354  12.013
67436W        W33867  34.098  29.857   2.251
67437W        W33868  40.167  30.163   9.852
67438W        W33869  37.109  22.676  10.963
67439W        W33870   4.385   7.159  13.525
67440W        W33871   6.003  43.008  13.077
67441W        W33872  29.528  12.079   2.581
67442W        W33873  10.557  34.206  12.209
67443W        W33874  33.894   5.727   2.485
67444W        W33875  29.551  21.276  12.526
67445W        W33876   1.207  38.383   0.905
67446W        W33877  20.842  24.838   0.290
67447W        W33878  35.419  29.404  12.817
67448W        W33879  10.379  18.553  14.450
67449W        W33880  33.697  42.587   5.286
67450W        W33881  20.514  35.555   0.745
67451W        W33882  28.933  24.396   3.560
67452W        W33883  35.438  34.870   4.166
67453W        W33884   8.802  44.899   4.825
67454W        W33885  18.893  26.486   0.264
67455W        W33886  44.683   7.077   0.749
67456W        W33887  14.732  43.812   4.975
67457W        W33888   5.281  15.122   4.619
67458W        W33889   5.183  36.555  10.687
67459W        W33890  10.693  14.919   2.768
67460W        W33891   8.081  15.615  11.771
67461W        W33892  28.591   2.442   4.583
67462W        W33893  18.533  19.147   3.365
67463W        W33894   5.394   8.594   4.498
67464W        W33895  15.221  20.486   3.378
67465W        W33896   8.435  42.921   0.777
67466W        W33897  36.162  39.485  13.959
67467W        W33898  41.745  11.435  13.431
67468W        W33899  35.995   8.343   1.260
67469W        W33900  23.499  29.427   1.680
67470W        W33901  20.563   9.754  14.065
67471W        W33902  42.367  10.855  10.387
67472W        W33903   5.696  29.534   2.692
67473W        W33904  28.538  36.169   3.649
67474W        W33905  20.570   9.106   2.764
67475W        W33906  17.919  16.369   9.835
67476W        W33907  17.373   6.429  12.036
67477W        W33908  20.210  26.962   1.728
67478W        W33909  41.795   4.000   2.747
67479W        W33910  36.901   1.675  14.891
67480W        W33911  37.077  42.514   9.943
67481W        W33912  15.295  16.161   2.992
67482W        W33913   8.321   3.889  14.875
67483W        W33914   7.368   8.739  11.202
67484W        W33915  17.052  30.887   1.875
67485W        W33916  24.049   8.030  13.070
67486W        W33917   2.631  32.934  13.429
67487W        W33918  41.950   3.086  12.179
67488W        W33919  29.047  11.564  11.173
67489W        W33920  15.756   7.263   0.721
67490W        W33921   6.394  15.047  14.971
67491W        W33922  37.195  33.799   5.155
67492W        W33923  20.038  32.802  11.619
67493W        W33924  34.678  17.559  10.535
67494W        W33925  19.790  10.920  14.956
67495W        W33926   3.905  22.421  12.401
67496W        W33927  18.411  38.516   0.284
67497W        W33928  12.075  38.386   0.692
67498W        W33929   2.718  39.178   0.912
67499W        W33930  38.823  33.756   4.444
67500W        W33931  26.463  43.470   0.296
67501W        W33932  14.225  38.717   3.760
67502W        W33933   7.428  26.937   4.235
67503W        W33934  10.192  44.009  11.664
67504W        W33935  26.771   8.622   3.580
67505W        W33936  11.566   1.396   2.792
67506W        W33937   7.568  18.655  14.567
67507W        W33938   2.319  29.934   2.733
67508W        W33939   9.900  15.413  13.978
67509W        W33940  39.423  31.990  12.977
67510W        W33941  22.495   5.700   0.866
67511W        W33942   8.969  37.434   3.344
67512W        W33943   8.696  22.817  13.291
67513W        W33944  41.307  22.467   4.125
67514W        W33945  16.284   5.249   3.422
67515W        W33946  15.596  26.078   5.292
67516W        W33947  23.622  23.285   1.168
67517W        W33948  27.161  38.829  14.276
67518W        W33949  32.882  14.600  13.445
67519W        W33950  18.601   6.146  11.637
67520W        W33951   1.624  10.037   0.796
67521W        W33952  12.746  34.683   4.148
67522W        W33953  22.843  43.735   4.483
67523W        W33954  35.576  32.434   3.719
67524W        W33955  44.986  38.179  12.447
67525W        W33956   5.428  19.740  13.826
67526W        W33957  42.503  28.650  12.473
67527W        W33958  14.668  21.643  13.076
67528W        W33959  30.585   4.105   3.707
67529W        W33960  38.049  41.820   1.113
67530W        W33961  27.636  43.216  14.501
67531W        W33962  26.574   3.233  10.010
67532W        W33963  42.900  22.421  12.414
67533W        W33964   0.681   7.031  11.965
67534W        W33965  37.579  26.941   4.127
67535W        W33966   5.980  27.922  13.909
67536W        W33967  44.822  13.478   0.673
67537W        W33968  32.090  11.365   2.810
67538W        W33969   8.902  41.554   1.801
67539W        W33970  44.282  44.790   2.639
67540W        W33971  11.552   2.890  11.594
67541W        W33972  43.429  26.868  11.211
67542W        W33973   4.071  41.753  13.544
67543W        W33974  27.708  21.713  13.422
67544W        W33975  14.167  29.918   0.890
67545W        W33976   3.547  30.095  11.507
67546W        W33977   6.645  29.171   1.329
67547W        W33978  41.342   1.182   2.895
67548W        W33979  12.255  14.041   0.846
67549W        W33980  35.144   3.072   0.270
67550W        W33981  30.006  33.147   2.422
67551W        W33982  19.222  30.774   4.208
67552W        W33983  40.811  38.583   2.278
67553W        W33984  21.230   3.715  14.510
67554W        W33985   1.884  21.622   1.232
67555W        W33986  16.085  37.558   2.875
67556W        W33987   6.143  18.088   2.793
67557W        W33988  12.405  32.546  11.892
67558W        W33989   6.321  43.381  12.854
67559W        W33990  39.954  18.799   3.681
67560W        W33991  33.514  22.007   4.543
67561W        W33992  29.948  23.405  14.301
67562W        W33993  32.275  28.863  14.581
67563W        W33994   3.072  20.999  14.039
67564W        W33995  37.588  34.039  11.169
67565W        W33996   9.492  22.138  11.487
67566W        W33997   4.354  31.534  14.941
67567W        W33998   7.024  24.158  11.653
67568W        W33999  23.222  17.307  14.123
67569W        W34000  26.831  23.924   2.208
67570W        W34001  37.454  36.469  14.717
67571W        W34002  10.327  19.550   0.426
67572W        W34003   3.758  42.854  13.399
67573W        W34004  39.028   3.199   4.554
67574W        W34005   2.253  28.110   3.248
67575W        W34006  35.830   6.934   1.333
67576W        W34007   9.399   3.242  13.034
67577W        W34008   6.399  37.208  12.846
67578W        W34009  40.467  33.530  14.977
67579W        W34010  31.757   6.480   0.861
67580W        W34011   6.312  10.663   4.372
67581W        W34012  10.390  36.898  12.474
67582W        W34013  36.886  33.655   4.754
67583W        W34014  37.484  24.624   1.713
67584W        W34015  40.320   1.886  11.264
67585W        W34016  12.510  14.790  13.801
67586W        W34017   5.001  24.687   3.213
67587W        W34018  44.872  13.841  10.843
67588W        W34019  34.571  38.652  11.582
67589W        W34020  26.042  32.597   1.910
67590W        W34021  30.559   8.777   0.105
67591W        W34022  35.496   1.140   4.824
67592W        W34023  16.143  12.131  14.512
67593W        W34024   9.935  34.959  10.757
67594W        W34025  32.716  22.111   2.244
67595W        W34026  44.832  36.394   3.587
67596W        W34027  40.933  44.352   3.717
67597W        W34028  22.645  40.840   4.693
67598W        W34029  23.948  18.750  11.610
67599W        W34030  28.585  19.434   0.736
67600W        W34031  40.429  30.606  13.440
67601W        W34032  12.739  12.856   3.583
67602W        W34033  10.323   6.646   3.177
67603W        W34034  27.787  11.351   1.970
67604W        W34035  28.934  19.443  13.802
67605W        W34036  11.370   8.024   0.283
67606W        W34037  26.502  17.237   4.119
67607W        W34038  11.939   7.752  10.734
67608W        W34039  10.418  17.696  12.519
67609W        W34040  38.447  27.945  14.379
67610W        W34041  40.744  26.478  11.072
67611W        W34042   9.717   2.929  13.967
67612W        W34043   5.210  43.823   1.094
67613W        W34044  42.613  28.252  13.983
67614W        W34045  20.108  30.597  10.978
67615W        W34046   6.919  35.372   0.040
67616W        W34047  19.696  42.806   0.088
67617W        W34048  14.252   1.302  10.020
67618W        W34049  36.566  42.417   4.607
67619W        W34050  44.385  39.783   1.743
67620W        W34051   1.148  16.312   3.584
67621W        W34052  33.870  17.201  11.500
67622W        W34053  43.937  36.004   3.395
67623W        W34054   0.506  21.909   0.991
67624W        W34055  19.635  20.545   4.219
67625W        W34056  26.118  15.139   4.622
67626W        W34057  13.345  44.707   1.823
67627W        W34058  41.000  29.223  13.615
67628W        W34059   0.290  37.865  14.960
67629W        W34060  17.212  14.467   3.218
67630W        W34061  36.137  44.551  13.827
67631W        W34062  31.471  33.162  11.816
67632W        W34063  12.567  37.764   1.417
67633W        W34064  40.617  33.238  11.726
67634W        W34065   9.608  15.058  11.105
67635W        W34066  19.479   4.329  14.270
67636W        W34067   7.847   2.838  10.526
67637W        W34068  32.355  27.329   1.272
67638W        W34069  20.024   1.392   1.532
67639W        W34070   6.662   3.507  12.018
67640W        W34071  21.592  29.925   4.196
67641W        W34072  10.127  38.187   4.542
67642W        W34073  21.201  36.675  11.555
67643W        W34074  15.229   9.204  12.880
67644W        W34075  23.929  36.870   3.299
67645W        W34076  15.344   0.392   1.417
67646W        W34077   4.178  20.832  13.212
67647W        W34078  32.139  26.072   2.363
67648W        W34079  14.098  17.923  14.324
67649W        W34080   2.555  15.721   1.786
67650W        W34081  13.240   1.696   1.004
67651W        W34082  36.357  24.977   2.625
67652W        W34083  31.877  32.113  13.500
67653W        W34084  17.316   0.266   4.098
67654W        W34085   8.850  34.665   4.002
67655W        W34086  15.413  27.208   2.316
67656W        W34087  28.905  28.918  12.067
67657W        W34088  21.333  31.651  14.204
67658W        W34089  19.114  42.524  13.738
67659W        W34090  10.840   9.333  11.664
67660W        W34091  16.482  18.942   4.594
67661W        W34092   9.649   1.578  13.337
67662W        W34093  15.811  17.618   3.598
67663W        W34094  36.150  44.435   1.287
67664W        W34095  21.083  36.651  13.133
67665W        W34096  33.303  14.188  10.573
67666W        W34097  37.340  22.347   1.222
67667W        W34098  44.177  28.298   2.073
67668W        W34099  30.024  37.564  11.594
67669W        W34100  10.609  24.200  13.711
67670W        W34101  36.530  30.876  11.625
67671W        W34102  41.718  38.519  13.811
67672W        W34103  21.067  43.141  13.122
67673W        W34104  41.030   5.057   4.523
67674W        W34105  41.657  30.246   1.433
67675W        W34106  44.939  27.604   1.071
67676W        W34107   2.228  41.884   0.250
67677W        W34108  44.798  19.687  11.676
67678W        W34109   5.801  36.315  12.048
67679W        W34110   8.703  35.045  12.258
67680W        W34111  29.499   0.882  14.479
67681W        W34112  29.648  40.926   4.824
67682W        W34113  18.107  25.042   5.113
67683W        W34114   9.243   7.205  14.369
67684W        W34115  28.384  34.492  13.382
67685W        W34116  35.891  40.831  12.392
67686W        W34117  17.264  16.757   4.128
67687W        W34118  16.264  25.719  14.504
67688W        W34119  32.151  33.589  12.527
67689W        W34120  28.556   7.735   0.809
67690W        W34121   1.825  32.581   1.829
67691W        W34122  41.876  29.273   1.474
67692W        W34123  22.050  10.114   3.559
67693W        W34124  18.400   6.475   0.353
67694W        W34125  41.572  41.447   4.570
67695W        W34126  35.310  12.242   1.469
67696W        W34127  24.949  16.547  13.026
67697W        W34128   2.020  17.784   3.377
67698W        W34129  36.848  42.340  14.157
67699W        W34130  36.004  13.996  11.452
67700W        W34131  28.250  16.654   4.199
67701W        W34132  19.772  10.747  12.516
67702W        W34133  21.318  11.615   4.017
67703W        W34134  25.720   9.285   2.873
67704W        W34135  18.628  23.090  11.441
67705W        W34136  12.255  24.218   1.417
67706W        W34137  38.899  12.501  10.705
67707W        W34138  18.166   9.672   3.354
67708W        W34139  29.798   1.880   3.620
67709W        W34140  23.216  27.760   4.441
67710W        W34141  15.061  37.837   0.273
67711W        W34142  33.375  30.071   2.663
67712W        W34143   8.217  34.028   4.811
67713W        W34144  42.193  42.291   4.579
67714W        W34145  37.000  27.218  10.262
67715W        W34146  26.511  40.459  12.802
67716W        W34147  37.224  39.574  11.729
67717W        W34148  14.943  35.568  13.922
67718W        W34149  21.549  27.997  14.392
67719W        W34150  37.436  44.874   2.488
67720W        W34151  41.401  25.330  13.424
67721W        W34152  38.019  20.371   3.481
67722W        W34153   9.135  37.301  12.380
67723W        W34154   5.687  17.754  14.934
67724W        W34155  35.954  40.326   4.093
67725W        W34156  14.575   1.727   0.297
67726W        W34157  22.666   7.758   2.171
67727W        W34158  20.237  19.035   0.564
67728W        W34159  17.558  27.695   0.438
67729W        W34160  30.678   0.790   4.901
67730W        W34161   8.160  32.826   1.772
67731W        W34162  18.780   5.995  14.021
67732W        W34163  44.910  30.328   1.609
67733W        W34164  21.406   9.513  11.551
67734W        W34165  23.190  34.888   4.167
67735W        W34166  40.992  42.884  13.369
67736W        W34167  10.777  33.118   0.515
67737W        W34168  13.027  38.620   3.914
67738W        W34169  29.075   1.844   2.811
67739W        W34170  38.931  39.422  14.495
67740W        W34171   6.654  35.377   1.264
67741W        W34172  35.642  44.899  11.509
67742W        W34173  17.157  31.956   4.353
67743W        W34174   4.422  38.802   0.053
67744W        W34175  30.979  36.558  14.471
67745W        W34176  27.101  23.498   3.308
67746W        W34177  23.797   9.095  14.763
67747W        W34178  11.862  12.666   3.218
67748W        W34179  37.520   2.459  12.495
67749W        W34180  33.720   2.282   4.633
67750W        W34181   8.890  35.234   2.407
67751W        W34182  23.871  38.893   5.328
67752W        W34183  32.078  35.446   2.542
67753W        W34184   3.826  10.747   0.847
67754W        W34185  40.356  35.074   4.564
67755W        W34186   7.348  17.657  13.533
67756W        W34187  24.042   9.747   0.960
67757W        W34188   3.324  20.218  10.767
67758W        W34189   1.900  38.295   4.211
67759W        W34190  44.844   9.414  11.871
67760W        W34191  25.212  41.910   3.605
67761W        W34192  22.627   9.943   2.824
67762W        W34193   0.367  12.757   1.690
67763W        W34194  24.247  24.267  13.810
67764W        W34195   8.343  16.315  14.304
67765W        W34196  37.322  40.741   0.763
67766W        W34197   3.443  11.312  13.061
67767W        W34198  38.558  17.076  14.715
67768W        W34199  22.966  12.119  11.318
67769W        W34200  23.053  30.299   0.610
67770W        W34201   8.301  20.178   4.431
67771W        W34202  31.733   5.673  11.144
67772W        W34203  13.639  29.183  10.689
67773W        W34204  33.107  26.609   3.890
67774W        W34205  26.572  27.264  11.896
67775W        W34206  33.630  27.981  11.394
67776W        W34207  26.436   6.949  11.990
67777W        W34208  33.629  33.619  11.676
67778W        W34209  17.346  39.285   4.547
67779W        W34210  29.113  19.260  11.596
67780W        W34211  25.136  40.995   4.130
67781W        W34212  15.210   3.396   4.473
67782W        W34213  11.297  20.485   0.106
67783W        W34214  20.183  22.692  11.973
67784W        W34215  41.582  40.595  11.441
67785W        W34216  43.825  24.417  13.955
67786W        W34217   8.291  22.631  12.358
67787W        W34218  22.156  23.644   3.984
67788W        W34219  13.317  32.041   1.957
67789W        W34220  31.416  31.909   4.743
67790W        W34221  16.823   9.339   4.377
67791W        W34222  23.255  24.697  13.512
67792W        W34223  11.629  27.999   1.170
67793W        W34224  39.841  39.616   2.419
67794W        W34225  12.180  28.222   1.325
67795W        W34226  42.313  18.301  13.408
67796W        W34227  37.454   6.861  14.989
67797W        W34228  34.519  26.038   0.236
67798W        W34229  37.012  15.307  14.381
67799W        W34230  19.652  26.592  10.500
67800W        W34231  14.606  42.464  14.357
67801W        W34232  37.309  22.232   2.669
67802W        W34233  16.076  17.516   1.337
67803W        W34234   7.546  29.378   0.603
67804W        W34235  10.951  23.234  11.915
67805W        W34236  11.951  13.211   3.711
67806W        W34237  40.446  21.312   2.338
67807W        W34238  14.383  11.789  14.829
67808W        W34239  11.732  12.289  12.581
67809W        W34240  23.314  17.404  12.418
67810W        W34241  26.219  24.996   2.781
67811W        W34242  37.356  14.348  13.034
67812W        W34243  16.852  10.059   2.177
67813W        W34244  12.968   9.097  13.475
67814W        W34245  30.337  38.841  12.004
67815W        W34246  44.796  39.083   3.849
67816W        W34247  44.271  36.428  14.963
67817W        W34248  22.598  37.335  12.855
67818W        W34249  42.137  29.484  14.783
67819W        W34250  41.401  36.105  11.566
67820W        W34251  13.417  30.264   2.657
67821W        W34252  31.168  41.957  12.219
67822W        W34253  20.105   7.197  14.335
67823W        W34254  16.886  34.519  13.386
67824W        W34255  23.791  30.038   3.167
67825W        W34256  10.772  11.806  11.942
67826W        W34257  15.317  11.659   1.466
67827W        W34258  36.404  36.546  13.438
67828W        W34259   1.006  36.275   4.830
67829W        W34260   7.695  16.994   1.857
67830W        W34261  18.076  25.263  10.601
67831W        W34262  29.776   9.310   0.520
67832W        W34263  19.692  14.699   1.831
67833W        W34264  43.011  19.343  13.102
67834W        W34265  22.787  32.361   3.719
67835W        W34266  44.604  17.180  12.032
67836W        W34267  37.337  23.718   0.105
67837W        W34268  29.418  19.828   3.696
67838W        W34269  15.676  18.989  10.706
67839W        W34270  28.596  13.887  10.608
67840W        W34271  12.360  30.479   2.184
67841W        W34272  38.991  11.708   2.318
67842W        W34273  25.104  23.162   1.268
67843W        W34274  18.530   6.218   1.352
67844W        W34275  37.044  36.365  13.056
67845W        W34276  42.331  26.744  11.646
67846W        W34277  43.811  13.730  14.246
67847W        W34278  20.847  20.487  14.883
67848W        W34279   8.618   5.996   3.654
67849W        W34280   5.804  39.936  12.626
67850W        W34281  11.943  29.481  13.970
67851W        W34282  36.661  13.797  12.897
67852W        W34283  21.229  41.120   2.331
67853W        W34284  34.043   1.930  10.769
67854W        W34285  18.678   1.328   4.431
67855W        W34286  12.210  20.933  11.617
67856W        W34287  37.519   1.249   3.273
67857W        W34288  42.269  12.209   3.657
67858W        W34289  10.105  25.847  12.637
67859W        W34290  19.763  25.673  13.358
67860W        W34291  39.722  34.471   1.316
67861W        W34292  34.154  44.224  12.968
67862W        W34293  24.628  30.229   0.110
67863W        W34294   1.748   1.813  14.436
67864W        W34295   7.069   2.273  12.047
67865W        W34296  11.555  44.028  10.814
67866W        W34297  18.068  14.683  13.545
67867W        W34298  36.400   8.605  11.123
67868W        W34299  14.758   7.474   2.391
67869W        W34300   6.669  41.574  14.370
67870W        W34301  35.990  16.640   1.026
67871W        W34302  23.496  36.310   1.839
67872W        W34303  29.126  28.285  13.984
67873W        W34304  22.247  44.232   4.097
67874W        W34305  39.516   9.631   0.124
67875W        W34306  36.394   7.741  11.165
67876W        W34307   6.770  38.661   2.278
67877W        W34308  16.401   7.027  14.314
67878W        W34309   3.779   6.532  11.625
67879W        W34310   3.882  17.641  13.455
67880W        W34311  25.152  28.233  12.420
67881W        W34312  14.208  14.706  13.301
67882W        W34313  22.300  32.495   3.855
67883W        W34314  18.887  23.466  11.144
67884W        W34315  13.451  33.145   3.978
67885W        W34316  17.521   1.666   4.239
67886W        W34317   4.638  35.565   4.216
67887W        W34318   3.343  17.674  10.026
67888W        W34319  24.945  17.747   4.695
67889W        W34320  41.289  39.486  14.820
67890W        W34321   8.686  22.021  14.581
67891W        W34322  14.237  43.498   4.926
67892W        W34323  26.290   1.304   4.914
67893W        W34324   8.058  36.911  10.742
67894W        W34325  16.663  31.518  10.914
67895W        W34326  38.575  12.236  12.561
67896W        W34327  34.390  17.630  10.949
67897W        W34328  19.638   4.711   0.070
67898W        W34329  36.343  39.564   1.269
67899W        W34330  39.337  43.210   2.136
67900W        W34331  34.933  14.718   1.857
67901W        W34332  34.926  24.129   1.930
67902W        W34333   3.584   7.228   1.872
67903W        W34334  17.525   9.323  10.799
67904W        W34335  35.328  14.138  12.921
67905W        W34336  43.549  33.156   3.654
67906W        W34337   7.085  40.852  12.077
67907W        W34338  40.387  12.352   2.650
67908W        W34339  34.009  32.602   2.218
67909W        W34340   3.174   8.875  12.200
67910W        W34341   1.083  13.147  11.070
67911W        W34342  42.275  31.997   4.058
67912W        W34343  27.421  24.043   1.390
67913W        W34344  16.877  15.321   3.299
67914W        W34345  41.835  24.699   0.424
67915W        W34346   8.289  42.882   4.136
67916W        W34347  18.156  34.958  10.715
67917W        W34348   9.241   3.711  12.433
67918W        W34349  41.894  19.583  13.498
67919W        W34350  11.562  11.652   1.251
67920W        W34351  42.716  24.254  13.491
67921W        W34352  44.713   5.393  13.937
67922W        W34353  33.146   2.891  14.474
67923W        W34354   6.903   2.989   4.819
67924W        W34355  36.571  17.950   3.205
67925W        W34356  20.190  14.554   2.217
67926W        W34357  24.577  40.290  12.965
67927W        W34358  37.280  28.038   1.106
67928W        W34359   7.887   6.584   4.718
67929W        W34360  28.173  29.752  11.087
67930W        W34361  11.676  29.046   1.255
67931W        W34362  40.905   2.829  12.015
67932W        W34363  25.044  12.254  10.458
67933W        W34364   4.258  41.597   0.146
67934W        W34365   8.250   2.207   2.113
67935W        W34366  14.968  18.408   4.964
67936W        W34367   5.674  40.306  11.906
67937W        W34368  34.522  32.626   1.377
67938W        W34369  42.885  26.375   3.653
67939W        W34370   5.988  32.199  14.559
67940W        W34371  41.858   8.228   0.280
67941W        W34372   4.149  41.730  12.458
67942W        W34373  39.047  14.298  11.257
67943W        W34374   2.711  12.689   0.231
67944W        W34375  41.526   6.974  12.521
67945W        W34376  43.087  15.346  12.413
67946W        W34377  16.178  30.437  14.826
67947W        W34378  10.628  36.566  10.642
67948W        W34379   8.752  36.628   2.354
67949W        W34380  27.420  38.690  13.372
67950W        W34381   8.413  25.581  13.004
67951W        W34382  18.593  22.197   3.729
67952W        W34383  44.877  41.857  13.043
67953W        W34384  43.732   3.739   2.832
67954W        W34385  29.118   7.942   0.935
67955W        W34386   7.121  39.437   4.607
67956W        W34387  37.133   7.263   3.770
67957W        W34388  36.292  32.566  11.241
67958W        W34389  33.945  27.755  14.001
67959W        W34390   4.441  20.750  14.851
67960W        W34391   7.814  12.767   0.457
67961W        W34392  14.104  33.897  10.716
67962W        W34393  37.951  22.231  10.792
67963W        W34394  18.111  38.472  14.516
67964W        W34395   1.839  33.595   4.378
67965W        W34396  37.910  44.357   4.806
67966W        W34397  26.794  25.755  14.131
67967W        W34398  32.919  27.093   0.671
67968W        W34399  16.813  39.481   3.063
67969W        W34400   5.612  17.797  12.905
67970W        W34401  11.279  37.777  13.407
67971W        W34402  38.091  19.738  12.922
67972W        W34403  30.879  38.900   3.086
67973W        W34404  27.986  44.264   1.342
67974W        W34405  12.946  26.822   3.797
67975W        W34406  41.063  15.637   0.491
67976W        W34407   7.241  11.911  12.644
67977W        W34408  35.456   6.706   2.132
67978W        W34409  30.837  35.091   0.452
67979W        W34410  32.095  37.587  10.717
67980W        W34411  22.030  26.233  12.435
67981W        W34412  16.786  32.249   0.734
67982W        W34413   3.004  36.441  13.116
67983W        W34414  17.585   9.708  10.465
67984W        W34415  26.948   5.414   3.859
67985W        W34416  42.896  10.623   4.586
67986W        W34417  24.923   8.210   0.766
67987W        W34418  14.687  13.841  11.007
67988W        W34419  17.415   4.952   4.562
67989W        W34420  26.198   5.547   2.470
67990W        W34421   9.163  40.962   2.208
67991W        W34422  23.015  10.489  12.630
67992W        W34423  16.140  13.299   0.910
67993W        W34424  12.422  36.299  14.596
67994W        W34425   5.331   0.992   4.116
67995W        W34426  29.743   0.698   4.948
67996W        W34427  20.979  15.319  11.561
67997W        W34428  44.888  31.070   3.310
67998W        W34429   7.773  39.075   0.229
67999W        W34430  24.149   8.431   1.370
68000W        W34431   8.084  12.631   3.675
68001W        W34432  27.292   4.422   4.670
68002W        W34433   4.148  12.164   1.803
68003W        W34434  41.859  32.381  11.889
68004W        W34435  35.323  41.623  10.411
68005W        W34436  23.807  34.964   2.199
68006W        W34437  32.293  11.452  10.088
68007W        W34438  16.824  11.202   4.313
68008W        W34439  20.616  25.899  14.935
68009W        W34440   6.777   7.438  13.827
68010W        W34441  39.755  14.178   2.558
68011W        W34442  43.729  31.405  11.554
68012W        W34443  14.197  14.037  12.568
68013W        W34444   7.020   6.094   2.439
68014W        W34445  33.016  26.586   1.843
68015W        W34446  23.322  36.139   2.663
68016W        W34447  14.598  27.060   3.316
68017W        W34448   1.230  22.957   1.358
68018W        W34449  23.261   0.908   2.813
68019W        W34450  20.590  42.998  14.085
68020W        W34451   6.829  25.047  10.677
68021W        W34452   3.696  21.727  13.028
68022W        W34453  10.424  40.254  14.908
68023W        W34454  40.526   9.434   3.195
68024W        W34455  12.724  30.013  14.355
68025W        W34456  21.248  31.466   2.262
68026W        W34457   5.539  33.312  13.435
68027W        W34458  33.379  19.883   3.989
68028W        W34459  10.834  27.836   1.991
68029W        W34460  22.014  27.530   3.797
68030W        W34461  17.693  28.028  11.088
68031W        W34462  44.020  24.793   0.467
68032W        W34463  44.853  15.393   4.102
68033W        W34464  13.584  11.661   3.352
68034W        W34465  43.259  17.106   3.182
68035W        W34466  12.316  35.400  14.355
68036W        W34467  35.594  18.266   0.682
68037W        W34468  34.965  36.069   1.006
68038W        W34469   9.395  34.753  11.190
68039W        W34470  30.516   1.248  14.387
68040W        W34471   3.891   2.806  12.980
68041W        W34472  22.235   8.071   2.168
68042W        W34473  18.131  15.201  11.304
68043W        W34474  36.839   1.540  13.420
68044W        W34475  37.434  35.426   2.709
68045W        W34476  12.428  33.393  11.896
68046W        W34477  28.198  15.232   1.172
68047W        W34478  20.342  43.008   2.030
68048W        W34479  24.974   7.958   2.391
68049W        W34480  24.643   3.328  11.110
68050W        W34481  31.692   8.402  12.525
68051W        W34482   7.156  23.944  13.587
68052W        W34483  25.492   9.242  14.177
68053W        W34484  29.978  31.862   2.577
68054W        W34485  20.346  35.574   1.236
68055W        W34486  39.763  13.862  11.082
68056W        W34487  43.342  32.874   2.705
68057W        W34488   8.247  14.854   2.370
68058W        W34489  15.104  14.635   5.452
68059W        W34490  36.371  37.386  10.691
68060W        W34491   2.817  30.498  12.931
68061W        W34492   6.430   6.813  14.947
68062W        W34493  34.925  22.237  12.480
68063W        W34494  17.467   2.627   1.877
68064W        W34495  35.111  21.052  13.040
68065W        W34496  11.940  14.187   0.036
68066W        W34497  16.661  42.527  13.394
68067W        W34498   6.019   4.880   3.438
68068W        W34499  33.389  38.570  14.026
68069W        W34500   3.403   8.388   3.197
68070W        W34501  13.482   8.331   4.160
68071W        W34502  42.518  10.243   2.165
68072W        W34503   2.779   4.270   3.979
68073W        W34504  31.601  34.377   4.149
68074W        W34505  33.114   1.562  11.122
68075W        W34506  22.125  43.905   3.454
68076W        W34507  43.232   8.698   4.551
68077W        W34508   9.405   3.341  13.916
68078W        W34509  15.283  21.200  13.002
68079W        W34510   9.445  11.263   3.258
68080W        W34511  26.525  25.069  12.073
68081W        W34512  15.582  15.812   4.193
68082W        W34513  14.173  24.435  14.957
68083W        W34514  23.513  21.833  14.419
68084W        W34515  41.370   7.464   3.742
68085W        W34516  25.554   8.382  11.702
68086W        W34517  31.904  33.635   0.317
68087W        W34518  42.537   7.377  12.036
68088W        W34519   2.981  10.957   2.347
68089W        W34520   8.910  13.910   2.695
68090W        W34521   2.984  39.552  14.000
68091W        W34522  38.030  13.685  13.293
68092W        W34523  37.480  16.211  11.622
68093W        W34524  19.837  41.429  14.279
68094W        W34525  13.644   5.818  10.717
68095W        W34526  34.994  44.042   4.609
68096W        W34527  18.272  43.719   1.329
68097W        W34528  24.256  36.457   4.403
68098W        W34529  18.106  41.380  14.489
68099W        W34530  14.168  20.193   1.834
68100W        W34531  23.772   9.484  12.107
68101W        W34532  15.303  21.178  10.636
68102W        W34533  33.092  41.493   3.201
68103W        W34534  24.010  43.177  10.741
68104W        W34535  23.274  25.062   2.147
68105W        W34536  32.565  18.692   3.144
68106W        W34537  44.902   6.111  14.353
68107W        W34538   2.018  28.481   0.059
68108W        W34539  22.687  11.379   2.398
68109W        W34540  35.054  31.221  14.565
68110W        W34541  20.191  41.925  13.317
68111W        W34542  36.427  12.157   3.625
68112W        W34543  38.135  14.178   3.655
68113W        W34544  28.219  19.796   0.905
68114W        W34545  39.035  20.041  13.847
68115W        W34546  27.464   1.283   0.901
68116W        W34547  12.202  37.585  10.991
68117W        W34548   2.766  10.752   3.852
68118W        W34549  35.001  34.334  14.996
68119W        W34550   8.728  33.578   0.177
68120W        W34551  12.349   8.367  13.615
68121W        W34552  22.634  35.587  11.645
68122W        W34553  25.550  40.021  11.507
68123W        W34554  13.505  36.146  12.874
68124W        W34555   8.031   6.545  10.759
68125W        W34556  28.082  29.884  14.619
68126W        W34557  33.442   9.850   2.734
68127W        W34558  30.199  11.456  11.062
68128W        W34559  24.175  15.364   2.379
68129W        W34560  20.485  17.147  11.021
68130W        W34561  15.031  27.666  11.998
68131W        W34562  19.148  28.509   2.961
68132W        W34563   3.582  19.173  14.478
68133W        W34564   3.683  11.334  12.604
68134W        W34565  40.113  37.063  11.348
68135W        W34566   0.271  36.909   2.830
68136W        W34567  12.667  39.823  13.915
68137W        W34568  16.086  41.508   4.325
68138W        W34569  30.946  38.553   4.406
68139W        W34570   6.743  25.304  11.124
68140W        W34571  24.557   9.325  14.306
68141W        W34572  24.205  32.516   2.753
68142W        W34573  38.956  11.395  12.795
68143W        W34574  32.668   0.894   3.158
68144W        W34575  42.583  43.961  12.555
68145W        W34576   8.240  40.087  10.637
68146W        W34577  21.164   7.401   1.188
68147W        W34578  20.693   9.566  12.184
68148W        W34579   4.668  11.372   1.970
68149W        W34580  28.850   9.230  12.328
68150W        W34581  10.113  41.880  14.490
68151W        W34582  26.531  26.025   4.122
68152W        W34583  41.929  12.571   3.159
68153W        W34584  24.172  36.933  11.935
68154W        W34585  24.041  17.513  14.048
68155W        W34586   6.035  32.023   4.870
68156W        W34587  29.322  34.770  14.884
68157W        W34588  38.528  27.410  11.955
68158W        W34589  24.241  15.698   2.782
68159W        W34590  32.867  32.725   5.021
68160W        W34591   4.927  23.010   0.849
68161W        W34592   1.718  30.892   2.849
68162W        W34593  37.474  15.562  13.470
68163W        W34594  43.031  36.571   4.969
68164W        W34595  22.798  19.583   2.236
68165W        W34596  24.523  15.982  11.497
68166W        W34597  44.930  17.959   1.863
68167W        W34598  20.065   5.631  10.627
68168W        W34599   8.960   8.920  11.585
68169W        W34600  44.333  10.805   1.775
68170W        W34601   6.362  20.232   5.584
68171W        W34602   1.122  39.810  13.548
68172W        W34603  23.469   1.996   2.338
68173W        W34604   1.009  33.418  14.943
68174W        W34605  32.452  24.769  11.172
68175W        W34606   8.832  26.162  14.303
68176W        W34607  39.900  25.570  11.997
68177W        W34608  40.418  31.653  13.501
68178W        W34609  20.652  26.431  11.374
68179W        W34610  26.094  23.650   0.872
68180W        W34611  20.108  10.574   3.280
68181W        W34612  39.611  20.222   2.643
68182W        W34613   7.219  28.975  10.609
68183W        W34614  21.797   0.872   1.285
68184W        W34615   5.674  27.817   4.356
68185W        W34616  26.978  41.375  12.488
68186W        W34617  18.013   8.433   2.741
68187W        W34618   6.998  19.043   2.256
68188W        W34619  12.123   8.062  11.236
68189W        W34620   4.215  14.921   4.501
68190W        W34621  31.155   6.937   3.499
68191W        W34622   4.274  37.128  10.721
68192W        W34623  12.727  42.532  12.427
68193W        W34624  39.366  22.989  12.168
68194W        W34625  16.774   6.897   1.808
68195W        W34626   8.262  30.015  13.161
68196W        W34627  42.080  18.668   3.609
68197W        W34628  39.759  26.448  11.151
68198W        W34629  23.071  36.850  11.685
68199W        W34630  28.223  19.620   2.328
68200W        W34631   6.378  13.155  12.898
68201W        W34632   8.887  38.784   2.578
68202W        W34633  44.992   2.350   0.874
68203W        W34634  44.519   1.610   3.240
68204W        W34635  42.130  44.707   1.767
68205W        W34636  28.677  41.772  13.947
68206W        W34637  25.715  17.121   1.144
68207W        W34638   0.826  25.829   1.241
68208W        W34639  35.428  39.110  11.787
68209W        W34640  28.033  19.705  12.119
68210W        W34641   9.758  37.514  14.259
68211W        W34642  21.929   6.018  14.834
68212W        W34643   2.379  30.492  11.678
68213W        W34644  14.390  40.996  12.120
68214W        W34645   4.544  13.741  11.134
68215W        W34646  43.052  14.586   0.708
68216W        W34647  32.230   7.816   3.500
68217W        W34648  40.304  32.330   2.687
68218W        W34649   5.116  35.575   3.476
68219W        W34650  22.261  12.888   0.094
68220W        W34651   3.675  29.542  12.018
68221W        W34652  39.469  43.365   1.216
68222W        W34653  19.506   7.983   4.533
68223W        W34654  13.746  35.850  14.976
68224W        W34655  33.763  21.542  14.545
68225W        W34656  24.994   6.532  11.531
68226W        W34657   7.378  27.190  13.084
68227W        W34658  24.745  11.440   3.699
68228W        W34659  14.648  36.846   2.787
68229W        W34660  42.708   8.373  11.145
68230W        W34661  22.472   9.121  12.822
68231W        W34662  23.557  25.470   1.893
68232W        W34663  36.908  12.655   3.096
68233W        W34664   2.443   6.444  11.212
68234W        W34665  38.450  31.059   3.478
68235W        W34666  35.934  40.360  14.439
68236W        W34667  20.999  33.011   0.810
68237W        W34668  37.056  34.475   0.454
68238W        W34669  10.392  44.294   3.752
68239W        W34670  14.769  18.590   1.773
68240W        W34671  26.604   0.340  14.996
68241W        W34672  14.788  17.629   2.306
68242W        W34673  36.518  35.686   4.105
68243W        W34674  32.070  24.122   3.523
68244W        W34675  11.448   2.924  10.482
68245W        W34676  34.066   8.981   1.169
68246W        W34677  15.982  27.084  11.527
68247W        W34678  30.355   5.506  12.068
68248W        W34679   8.685  31.627   0.851
68249W        W34680  28.663  40.810  10.493
68250W        W34681  37.413   9.525  10.677
68251W        W34682  12.226  41.421   2.578
68252W        W34683  26.529  37.583  14.770
68253W        W34684   0.438   8.399   0.482
68254W        W34685  14.287  30.274  11.593
68255W        W34686  10.607  41.810  14.397
68256W        W34687  17.169  42.984   2.794
68257W        W34688  20.543  33.880   0.280
68258W        W34689  20.076  19.032  14.488
68259W        W34690   5.204  11.147  14.873
68260W        W34691  26.192   5.855   5.425
68261W        W34692   9.279  12.756   0.310
68262W        W34693   3.542  13.327   2.829
68263W        W34694  41.920  23.679  11.477
68264W        W34695   7.211  34.617   2.207
68265W        W34696   9.635  19.578  13.544
68266W        W34697  12.782  25.181   4.023
68267W        W34698  16.263  43.967  13.930
68268W        W34699  13.272  20.321   3.706
68269W        W34700  26.254  28.081   4.039
68270W        W34701  25.175  34.623   3.592
68271W        W34702  32.064  26.585   2.272
68272W        W34703  22.602   8.717  12.436
68273W        W34704  44.026  17.260  13.527
68274W        W34705  11.636  22.436   4.094
68275W        W34706  41.591   1.973   4.648
68276W        W34707  37.373  43.594  14.033
68277W        W34708   8.442   1.899   3.200
68278W        W34709  41.462  40.293  12.454
68279W        W34710  18.423  32.960   0.329
68280W        W34711  32.385  44.381  14.835
68281W        W34712  33.873  26.502  13.567
68282W        W34713  37.872  35.165   2.158
68283W        W34714  23.971  11.671   3.405
68284W        W34715   9.491  18.570  12.522
68285W        W34716  35.439  42.834   4.088
68286W        W34717  15.777  24.637   2.898
68287W        W34718   0.952   9.992  10.661
68288W        W34719  36.340  13.805  11.835
68289W        W34720  30.815   2.550   4.749
68290W        W34721  19.138  14.748  13.631
68291W        W34722  25.997   3.961   3.225
68292W        W34723   5.381  27.115  11.004
68293W        W34724  29.191  35.102  10.729
68294W        W34725  40.371  38.861  12.926
68295W        W34726  37.185  21.674  12.584
68296W        W34727  13.120   1.231   0.661
68297W        W34728  23.190   4.307  14.262
68298W        W34729  38.405  31.105  14.249
68299W        W34730   0.252  44.418  14.092
68300W        W34731  28.008  14.832  14.677
68301W        W34732  35.104  20.572   4.411
68302W        W34733  10.696   0.046   2.346
68303W        W34734   7.373   0.191  13.512
68304W        W34735   1.291  13.561   1.444
68305W        W34736   1.919  38.821   0.673
68306W        W34737  35.845  28.014  10.315
68307W        W34738  26.931  27.065   4.389
68308W        W34739  39.041  32.743  12.449
68309W        W34740   2.418  31.386   4.459
68310W        W34741  23.133  14.253  12.413
68311W        W34742  11.181  14.200   5.081
68312W        W34743  32.695  27.399   1.696
68313W        W34744   7.402  13.668  13.361
68314W        W34745  16.667  31.754   2.487
68315W        W34746  25.705  20.911  13.138
68316W        W34747  41.133   6.905  11.177
68317W        W34748  37.801  39.665  10.358
68318W        W34749  32.763  22.180   4.132
68319W        W34750  42.417  40.308  12.543
68320W        W34751   1.534  26.211  14.265
68321W        W34752  17.287  22.335   0.905
68322W        W34753  26.987  27.059  14.905
68323W        W34754   1.893  11.745   3.605
68324W        W34755  13.799  21.186  12.718
68325W        W34756  17.184  18.579   1.487
68326W        W34757   0.265   6.544  14.369
68327W        W34758   4.983  14.718   2.218
68328W        W34759  29.033  29.581  13.860
68329W        W34760  28.492  33.031   2.624
68330W        W34761  23.152  33.361  11.370
68331W        W34762  34.970   5.963  11.125
68332W        W34763   1.545  24.660   0.948
68333W        W34764  43.767  29.522   4.692
68334W        W34765  16.137  35.260   1.860
68335W        W34766  25.605   2.472   0.421
68336W        W34767  26.949  34.846  12.588
68337W        W34768   7.861  19.230  11.086
68338W        W34769  12.435  36.115  11.612
68339W        W34770   0.892  32.270  11.356
68340W        W34771  35.135   3.905   2.389
68341W        W34772  37.472  29.324  10.715
68342W        W34773  15.220  22.422  11.079
68343W        W34774   0.515  27.195   3.842
68344W        W34775  21.686   7.212   2.987
68345W        W34776  21.178   8.457   0.029
68346W        W34777   8.690  29.342   4.068
68347W        W34778  41.417  19.679   1.440
68348W        W34779  42.061   5.793   1.352
68349W        W34780  10.629  16.679   1.481
68350W        W34781   3.013  23.784  12.482
68351W        W34782  30.996  11.146   3.109
68352W        W34783  18.345  43.754   3.589
68353W        W34784   3.816  23.783   5.052
68354W        W34785   2.547  40.461   3.186
68355W        W34786  23.381  21.169   3.031
68356W        W34787   0.553  26.249   1.347
68357W        W34788  30.372  23.543   3.283
68358W        W34789  10.237   9.369   1.164
68359W        W34790  22.169  44.975  13.427
68360W        W34791   4.515  33.850  14.010
68361W        W34792   3.617  21.620   1.837
68362W        W34793  39.403  26.198  11.974
68363W        W34794  39.604  30.986   4.459
68364W        W34795  26.019  36.525  13.409
68365W        W34796  14.795  14.582   5.019
68366W        W34797   0.664  26.023   1.845
68367W        W34798  29.362  37.567   0.386
68368W        W34799   5.797  34.856   3.384
68369W        W34800   5.259  28.134   4.400
68370W        W34801  11.624   8.718  11.353
68371W        W34802  27.153   0.474   4.350
68372W        W34803   2.286  11.937   4.653
68373W        W34804   6.464   5.322  11.220
68374W        W34805  42.532  19.954  11.665
68375W        W34806  11.433  28.135   3.510
68376W        W34807  33.415  21.183  10.633
68377W        W34808  26.978   0.873   4.618
68378W        W34809  44.843   4.778   3.645
68379W        W34810   8.444   9.267   2.276
68380W        W34811   5.470  41.286   3.471
68381W        W34812  18.589  13.287  13.017
68382W        W34813  25.774  37.380  12.483
68383W        W34814  44.872  31.917   1.254
68384W        W34815  26.202  16.317  13.127
68385W        W34816  14.125  16.942  12.647
68386W        W34817  29.705  12.274   1.633
68387W        W34818  35.881  26.083  11.081
68388W        W34819   1.222  16.458   2.835
68389W        W34820  26.542  35.064   0.367
68390W        W34821  16.181  41.076   2.539
68391W        W34822   0.350   9.661  14.024
68392W        W34823  40.228  23.592  12.764
68393W        W34824  44.217  30.566  12.369
68394W        W34825  22.885  34.184  13.472
68395W        W34826  27.615   3.776   4.116
68396W        W34827   9.341  13.316  10.792
68397W        W34828   2.042   5.433   3.045
68398W        W34829  23.505  11.857  11.954
68399W        W34830  37.890  33.119  14.740
68400W        W34831   5.477  11.145   0.326
68401W        W34832  28.671  40.921   0.918
68402W        W34833  14.299  44.442   4.783
68403W        W34834  19.651  41.328  14.882
68404W        W34835  27.328   3.260   4.076
68405W        W34836  34.649  42.676   3.274
68406W        W34837   9.180  40.899  12.466
68407W        W34838  16.243  32.979   2.140
68408W        W34839  23.774   1.637  13.487
68409W        W34840  38.065  24.707  12.080
68410W        W34841  19.828  44.544  11.986
68411W        W34842  37.039  37.837   4.915
68412W        W34843   7.673   9.409  13.831
68413W        W34844  32.995  26.979  12.331
68414W        W34845  35.424   0.361   0.757
68415W        W34846  15.413  39.514  11.943
68416W        W34847  11.344  21.282   3.255
68417W        W34848  25.633  43.304  10.787
68418W        W34849  18.521  16.805  10.702
68419W        W34850   2.652  34.886  11.059
68420W        W34851   5.436  19.748  11.544
68421W        W34852   7.661  28.671  11.669
68422W        W34853  19.703   7.291   0.729
68423W        W34854  25.442  32.322  12.877
68424W        W34855  26.919  33.073   1.343
68425W        W34856  25.870  35.270   3.835
68426W        W34857  17.481  35.699   4.435
68427W        W34858  41.570  21.587   1.996
68428W        W34859  11.333  18.039   1.220
68429W        W34860  22.565  35.149  10.025
68430W        W34861  27.561   8.902  14.421
68431W        W34862  44.715  14.867   2.378
68432W        W34863  28.525  27.738   3.700
68433W        W34864  35.087  30.514  13.853
68434W        W34865   2.717   1.626  13.477
68435W        W34866  31.567  23.639  14.914
68436W        W34867  34.840  14.005  12.900
68437W        W34868   4.372  34.326  14.173
68438W        W34869  44.742   8.710  12.580
68439W        W34870  10.403   1.825   2.287
68440W        W34871   0.471   0.897   0.324
68441W        W34872  16.695  32.209   2.256
68442W        W34873  43.030  43.967  14.568
68443W        W34874  44.315   7.772   2.572
68444W        W34875  32.885  42.840   0.098
68445W        W34876  39.069   6.879   1.945
68446W        W34877  28.435  44.462  13.858
68447W        W34878  24.200  39.396   2.739
68448W        W34879  24.182  43.514  11.655
68449W        W34880  39.226   6.745  11.480
68450W        W34881  17.743   8.377   0.243
68451W        W34882  24.795   8.345  11.385
68452W        W34883   9.830  39.304   2.366
68453W        W34884  43.549  30.371   0.194
68454W        W34885  39.961  37.509  12.973
68455W        W34886  17.789  43.365  13.270
68456W        W34887  20.590  43.908   1.342
68457W        W34888  37.060  40.068  11.823
68458W        W34889  44.375   9.630  11.671
68459W        W34890   6.905  35.674   0.935
68460W        W34891  22.121  13.757  14.643
68461W        W34892  10.432   7.326  11.187
68462W        W34893  13.165  22.123   0.318
68463W        W34894   6.725   7.912  13.624
68464W        W34895  15.083   1.200  11.594
68465W        W34896   9.394  35.941  13.028
68466W        W34897  18.038  10.398  11.888
68467W        W34898  44.041  10.357  12.762
68468W        W34899  10.572  38.364   2.200
68469W        W34900  19.227  13.682   4.958
68470W        W34901  33.312  30.441   1.817
68471W        W34902  24.954  17.548   2.766
68472W        W34903   2.505   9.104   1.442
68473W        W34904  15.677  25.227  13.414
68474W        W34905  30.025  26.613  14.331
68475W        W34906  38.610  25.148   1.473
68476W        W34907  16.304   4.928   2.599
68477W        W34908  44.632   0.514  11.607
68478W        W34909  26.271   7.855  12.962
68479W        W34910  14.145  41.256  12.510
68480W        W34911  13.748   2.971   4.554
68481W        W34912  40.335  44.872   2.059
68482W        W34913   8.991  15.034   0.613
68483W        W34914  35.274  19.948   3.808
68484W        W34915  17.040  25.222  10.642
68485W        W34916  29.586  40.069   4.662
68486W        W34917  15.601  14.705   9.948
68487W        W34918   8.289   4.925  14.427
68488W        W34919   7.944  20.024   4.060
68489W        W34920  32.535  13.352   0.277
68490W        W34921  43.493  10.223   3.659
68491W        W34922  30.657  26.439  12.018
68492W        W34923  39.978  20.674   0.958
68493W        W34924  13.798  34.496  14.505
68494W        W34925  10.728  26.616  10.739
68495W        W34926  19.753  16.745   4.083
68496W        W34927   1.180  14.787   4.293
68497W        W34928  20.870  41.476   1.134
68498W        W34929  10.919  31.010   4.684
68499W        W34930  19.536  26.240  12.575
68500W        W34931  27.602  19.975   1.381
68501W        W34932  40.510   9.726  13.051
68502W        W34933   8.048  19.226  13.526
68503W        W34934  36.199   2.311  12.622
68504W        W34935  41.474  26.611   3.224
68505W        W34936  32.128  42.707   1.173
68506W        W34937  14.782  14.139  14.652
68507W        W34938   8.264  40.295   1.793
68508W        W34939  32.357  23.272   0.768
68509W        W34940  37.391  15.335   1.372
68510W        W34941  36.289   7.689  13.596
68511W        W34942  33.047  37.245   3.775
68512W        W34943   4.546  27.345   0.745
68513W        W34944  15.745  33.248   4.807
68514W        W34945  12.883  16.728   3.071
68515W        W34946  16.866  18.713  11.011
68516W        W34947  18.286  39.362   5.003
68517W        W34948  38.186   1.995   5.298
68518W        W34949  35.154   2.219  14.756
68519W        W34950  31.621  19.810   3.536
68520W        W34951  34.335  39.750   0.415
68521W        W34952  16.443  29.483   2.144
68522W        W34953  40.897  39.899  13.551
68523W        W34954  39.927  20.708  14.822
68524W        W34955  15.797   6.674  14.425
68525W        W34956  13.156  40.589   3.060
68526W        W34957  14.163   2.565   4.181
68527W        W34958  44.739  12.752  13.566
68528W        W34959  13.389   9.356  11.674
68529W        W34960  27.737  40.141   4.065
68530W        W34961  22.097   7.398   1.293
68531W        W34962  12.878   5.207  12.480
68532W        W34963   4.669  21.145  11.928
68533W        W34964  11.717  23.836   2.751
68534W        W34965  35.833  32.675   1.435
68535W        W34966  41.769  43.673  13.062
68536W        W34967  10.224   1.465   1.393
68537W        W34968  20.090   0.447   1.374
68538W        W34969  27.632  36.504  13.404
68539W        W34970   4.627  12.335   1.842
68540W        W34971   1.760  26.545   0.984
68541W        W34972  29.178  30.710   1.355
68542W        W34973  26.154  40.900   0.550
68543W        W34974  25.987  41.810  13.043
68544W        W34975  27.653   7.183   1.585
68545W        W34976  24.073  21.966  11.942
68546W        W34977   1.996   3.672   4.705
68547W        W34978  35.610  14.302  14.499
68548W        W34979  12.805  12.930   0.764
68549W        W34980  35.191   3.904  11.215
68550W        W34981  11.335  43.739   3.111
68551W        W34982  31.104   4.888  14.934
68552W        W34983  13.945   7.084  11.588
68553W        W34984  12.066   8.238   1.390
68554W        W34985  43.956   8.790  13.908
68555W        W34986  16.394  19.242  12.496
68556W        W34987  25.516  40.329   0.912
68557W        W34988  29.890  12.931  13.969
68558W        W34989   0.389  36.190  13.076
68559W        W34990   2.716   3.133   2.220
68560W        W34991   0.029   5.685   4.333
68561W        W34992  22.676  14.164   4.784
68562W        W34993   3.668  42.918   1.770
68563W        W34994  42.718  21.691   3.234
68564W        W34995  44.886  32.324  12.455
68565W        W34996  26.507   2.405  11.300
68566W        W34997  22.105  38.575   3.239
68567W        W34998  34.999  34.126  13.842
68568W        W34999  13.714   5.554  14.455
68569W        W35000  34.542  30.406   4.151
68570W        W35001  32.582  41.468  11.528
68571W        W35002  32.876  13.961   1.815
68572W        W35003  26.193  21.090   1.860
68573W        W35004  25.042  14.854   1.443
68574W        W35005  37.541  26.484  14.389
68575W        W35006  33.272  22.270   4.136
68576W        W35007  17.686  13.665  13.375
68577W        W35008  20.803  39.494  12.570
68578W        W35009   8.313  16.193  14.908
68579W        W35010  29.508  43.254  14.780
68580W        W35011  21.685   6.466   4.586
68581W        W35012  32.497  40.414   0.214
68582W        W35013  25.660   0.789   0.803
68583W        W35014  22.046  35.554  12.584
68584W        W35015  44.786  23.456  10.744
68585W        W35016  29.455  25.919   2.237
68586W        W35017   2.232   1.177  10.646
68587W        W35018  36.921   4.916  12.530
68588W        W35019  25.668   4.029  10.692
68589W        W35020  13.220  21.592  11.104
68590W        W35021   1.280  42.941  12.461
68591W        W35022  11.925  10.003   1.190
68592W        W35023  27.785   3.874  12.084
68593W        W35024  21.207  14.610   0.199
68594W        W35025  19.742  28.058   3.672
68595W        W35026  10.900  23.455   1.542
68596W        W35027   9.398  14.097   2.724
68597W        W35028   3.453  36.106   1.832
68598W        W35029   4.251   2.763  12.278
68599W        W35030  42.271   7.866   2.487
68600W        W35031  37.218  19.205   0.426
68601W        W35032  11.245  18.519   4.560
68602W        W35033  34.395  13.911  11.203
68603W        W35034   9.463  38.992  13.653
68604W        W35035   4.504   0.328   2.698
68605W        W35036  26.169  42.575  10.633
68606W        W35037  34.633  33.104   0.724
68607W        W35038   6.544   6.797  12.382
68608W        W35039  37.098  25.481  13.482
68609W        W35040  36.449  28.933  14.326
68610W        W35041  34.859  14.301  13.673
68611W        W35042  29.048  42.555   3.159
68612W        W35043   5.349  44.187   3.111
68613W        W35044   4.781   8.426   2.889
68614W        W35045  19.999  35.782   3.971
68615W        W35046  13.165  32.448   1.323
68616W        W35047  13.132  20.776   0.878
68617W        W35048  40.803  17.503  14.927
68618W        W35049  36.572   6.132   3.099
68619W        W35050  19.724  22.614   4.005
68620W        W35051  38.353  24.447  12.938
68621W        W35052  18.760  39.604   4.714
68622W        W35053  13.962  22.034  10.869
68623W        W35054   9.604  38.740   1.182
68624W        W35055  10.051  33.111  10.307
68625W        W35056  28.668  10.797  14.730
68626W        W35057  23.070   4.286  10.765
68627W        W35058  22.744  34.873  12.974
68628W        W35059  26.172  34.727  13.887
68629W        W35060  29.071   3.088  14.377
68630W        W35061  29.902  33.003   1.452
68631W        W35062  12.255  24.473   3.734
68632W        W35063  37.308  26.520   4.090
68633W        W35064   9.597  39.418   1.912
68634W        W35065  15.068  12.547  10.860
68635W        W35066  19.168  20.181   4.380
68636W        W35067  28.475  17.944  12.910
68637W        W35068  14.080  43.430   2.243
68638W        W35069   4.776   7.506  12.427
68639W        W35070  29.629  34.857   0.777
68640W        W35071   1.455  40.468   2.340
68641W        W35072  23.178  14.348   3.637
68642W        W35073  20.016  35.178   3.784
68643W        W35074  12.626  25.978   1.015
68644W        W35075  38.812  42.962   3.737
68645W        W35076   4.313  18.746   2.079
68646W        W35077  41.349  20.556   0.693
68647W        W35078  20.696  43.400  14.434
68648W        W35079   1.471  17.487  13.918
68649W        W35080   3.465   3.964  11.257
68650W        W35081   7.803  15.166   2.263
68651W        W35082   7.416  35.956   1.673
68652W        W35083  12.381  21.355   4.075
68653W        W35084  10.023  37.618  10.589
68654W        W35085  11.300  18.495  11.354
68655W        W35086  10.746  33.096  12.574
68656W        W35087  42.433  15.076  11.159
68657W        W35088  43.113  10.840  11.051
68658W        W35089  18.845  43.177   2.388
68659W        W35090  11.369   6.337   4.756
68660W        W35091  29.546  29.162  13.498
68661W        W35092  35.409  12.369  10.755
68662W        W35093  40.250  35.915  12.999
68663W        W35094  21.630  29.924  13.009
68664W        W35095  25.044  24.711  12.524
68665W        W35096  33.555  22.535   3.209
68666W        W35097  43.847   6.706   0.931
68667W        W35098  41.235   3.736  13.003
68668W        W35099   1.801  26.658   2.806
68669W        W35100  12.749  12.085   4.258
68670W        W35101  31.881  22.010  10.643
68671W        W35102   8.728  34.985   0.921
68672W        W35103   1.978  15.810  11.430
68673W        W35104  37.425   6.650  14.514
68674W        W35105   2.534  26.549  10.698
68675W        W35106  39.349  23.786   0.451
68676W        W35107  39.077  42.461  11.767
68677W        W35108  11.929  43.261  13.726
68678W        W35109  26.411  31.461   0.332
68679W        W35110   1.046  29.436  13.422
68680W        W35111  22.059  34.019   0.073
68681W        W35112  18.364   0.818   1.731
68682W        W35113   2.498  34.918  11.557
68683W        W35114  16.308   4.482  14.521
68684W        W35115   3.393  12.784  11.384
68685W        W35116  14.033  27.096  10.858
68686W        W35117  15.984  15.422  10.843
68687W        W35118  23.651   3.208  13.768
68688W        W35119  10.785  23.952   1.411
68689W        W35120  39.359  17.555   4.322
68690W        W35121  39.117  40.050   0.310
68691W        W35122  40.188  18.584  12.643
68692W        W35123  33.865  19.094  12.489
68693W        W35124  27.546   3.773  14.329
68694W        W35125  43.859  20.995  11.516
68695W        W35126  32.290  24.210   3.989
68696W        W35127  29.447  29.055  11.352
68697W        W35128  16.965  34.359   3.602
68698W        W35129  34.414  35.405  10.918
68699W        W35130  13.594  13.151   1.222
68700W        W35131   1.042  14.400   1.832
68701W        W35132   3.213  35.541  14.885
68702W        W35133  26.900  17.320  14.329
68703W        W35134  39.001   7.921  12.801
68704W        W35135  18.303  12.768  14.436
68705W        W35136  18.049  28.724  14.359
68706W        W35137  21.700  29.404   4.190
68707W        W35138   1.890   5.115   1.081
68708W        W35139  28.980  28.297   4.142
68709W        W35140  14.662   0.841  14.098
68710W        W35141   9.939  15.574   0.900
68711W        W35142  18.779  11.663   3.092
68712W        W35143   8.445  42.072   3.263
68713W        W35144  25.796   6.663   3.683
68714W        W35145  13.334  32.210  11.240
68715W        W35146  39.797  36.895   3.310
68716W        W35147  34.415  34.426   0.591
68717W        W35148  26.445  12.170  11.083
68718W        W35149  28.099  22.690   0.402
68719W        W35150  19.146   8.612   4.244
68720W        W35151  37.434  22.955   4.517
68721W        W35152   8.936  39.944   4.558
68722W        W35153  26.354  40.585  10.598
68723W        W35154  42.352  43.007   2.817
68724W        W35155   7.801   7.702  12.147
68725W        W35156  30.828  17.974  13.048
68726W        W35157  44.135  25.030   3.841
68727W        W35158  32.479   3.263   3.800
68728W        W35159  17.509  11.132   3.211
68729W        W35160  31.906  36.314   2.674
68730W        W35161  30.491  21.563  14.966
68731W        W35162   8.925  15.805   1.815
68732W        W35163  21.517  44.544  14.306
68733W        W35164  14.324   4.366  12.895
68734W        W35165   7.810  44.937  11.754
68735W        W35166   2.471  44.983   0.337
68736W        W35167  44.828  14.694   0.476
68737W        W35168  43.956  39.021   1.172
68738W        W35169  40.454   2.315  14.917
68739W        W35170  23.483  35.781  10.571
68740W        W35171  30.084  34.037  14.799
68741W        W35172  24.109  32.084  14.305
68742W        W35173  24.210  10.376   2.275
68743W        W35174  32.084  44.201   4.280
68744W        W35175  21.862   0.290   0.900
68745W        W35176  28.420  29.924  13.366
68746W        W35177   3.497   1.985   2.230
68747W        W35178  44.217  34.862  14.335
68748W        W35179  22.700  28.261  12.021
68749W        W35180  16.692  41.424  14.809
68750W        W35181  34.012   6.675   4.848
68751W        W35182   1.374  27.447  13.943
68752W        W35183  16.296  24.462  13.857
68753W        W35184  41.315  41.894   3.676
68754W        W35185   3.488  10.388   4.214
68755W        W35186  36.383  11.078  10.683
68756W        W35187  35.912   5.799  13.500
68757W        W35188  27.003   6.483   1.459
68758W        W35189  35.027  33.277   2.872
68759W        W35190  21.672   3.152  14.307
68760W        W35191  26.631  10.392  13.002
68761W        W35192  29.013   6.447  12.071
68762W        W35193  18.166  12.289  10.494
68763W        W35194   2.806   3.955   1.275
68764W        W35195  11.309  41.846   0.391
68765W        W35196  28.629  23.573   3.738
68766W        W35197  44.307  36.105  12.950
68767W        W35198  41.766   7.422   4.473
68768W        W35199   1.218  14.314  13.542
68769W        W35200  31.203  32.833  12.152
68770W        W35201   6.406   5.452   4.207
68771W        W35202  17.835   1.363   0.472
68772W        W35203   1.426  11.724  10.736
68773W        W35204  15.922  28.352   1.669
68774W        W35205  25.177   7.454  10.239
68775W        W35206  12.459  13.201   0.445
68776W        W35207  21.292  25.986   4.117
68777W        W35208  21.215  40.946   3.694
68778W        W35209  24.580   3.394  13.425
68779W        W35210  15.334  25.267  14.800
68780W        W35211   0.502  20.240   3.888
68781W        W35212  17.856   0.782   1.656
68782W        W35213  31.977  16.639  14.866
68783W        W35214  38.559  25.623  12.848
68784W        W35215  43.508  36.563  12.940
68785W        W35216   0.127   3.381  14.799
68786W        W35217  32.816   5.814  14.216
68787W        W35218  44.489  32.079  14.799
68788W        W35219  37.806  44.817   1.297
68789W        W35220  44.774  18.366  13.951
68790W        W35221  11.155  31.876   0.754
68791W        W35222  22.984   1.331   2.871
68792W        W35223   8.402  14.243  12.966
68793W        W35224  20.313  16.290   1.730
68794W        W35225  35.006  17.063   3.816
68795W        W35226  41.003   4.885   2.325
68796W        W35227   2.825  37.033   0.559
68797W        W35228  21.264   3.348   4.133
68798W        W35229  19.105  26.874  13.436
68799W        W35230   7.251  32.402  12.517
68800W        W35231  44.989  44.393  14.524
68801W        W35232  30.646  21.545  14.062
68802W        W35233   2.687  22.024  12.144
68803W        W35234  12.261  43.210  11.091
68804W        W35235  25.083   3.548  12.566
68805W        W35236  21.056   1.027   0.256
68806W        W35237  32.022  31.611  10.695
68807W        W35238  42.778   3.742  10.779
68808W        W35239  19.205  42.009  13.605
68809W        W35240   8.446  11.896   2.812
68810W        W35241   7.744   0.876   1.870
68811W        W35242  32.396  34.035   1.461
68812W        W35243   2.797  35.273  14.085
68813W        W35244   2.544   0.446   1.788
68814W        W35245  20.292  24.965   3.752
68815W        W35246  43.266  25.021   0.916
68816W        W35247  41.538  19.119   2.797
68817W        W35248  16.634  25.237  13.629
68818W        W35249   1.730  20.087  12.424
68819W        W35250   0.988  34.665   1.200
68820W        W35251   8.906  12.338  11.607
68821W        W35252  10.867   7.777  12.668
68822W        W35253  38.357   8.815   1.030
68823W        W35254   0.944  40.407   3.664
68824W        W35255   6.824   0.362  14.756
68825W        W35256  26.026  28.366  11.621
68826W        W35257  21.618  37.941  14.180
68827W        W35258  26.990   1.416   2.901
68828W        W35259  20.266  15.198  12.025
68829W        W35260  35.641  19.306   0.679
68830W        W35261  18.521  13.746   0.336
68831W        W35262   8.233  38.136   3.766
68832W        W35263  40.824  10.659   1.951
68833W        W35264  21.146   3.289   2.364
68834W        W35265  25.125  18.611   1.977
68835W        W35266   0.120  42.251   1.792
68836W        W35267  28.694  24.026  13.312
68837W        W35268  34.334  21.733  12.116
68838W        W35269  14.571  28.068  13.152
68839W        W35270  35.875   4.981  13.362
68840W        W35271   4.097   4.437   4.096
68841W        W35272  28.034  42.932  11.187
68842W        W35273  29.055  17.686   0.446
68843W        W35274  42.587  36.517   0.512
68844W        W35275  22.450  16.839  10.096
68845W        W35276  15.821   6.192  11.766
68846W        W35277  13.891  20.691   2.400
68847W        W35278   4.916  36.823   0.949
68848W        W35279  32.591  26.656  12.202
68849W        W35280   5.667  39.478   4.548
68850W        W35281  33.967  40.998   4.986
68851W        W35282  14.179  23.924   1.952
68852W        W35283  20.949  20.362  11.040
68853W        W35284  19.995  23.736   4.162
68854W        W35285  19.533  32.392  11.063
68855W        W35286  37.435  16.012  12.093
68856W        W35287   8.271  28.187  11.085
68857W        W35288  42.264  29.956  14.947
68858W        W35289  42.569  15.044  14.957
68859W        W35290  17.172  37.082   0.692
68860W        W35291  42.880  20.008  12.487
68861W        W35292  26.130  13.155  12.945
68862W        W35293  24.626  35.529   1.639
68863W        W35294  19.121  30.515   3.767
68864W        W35295  16.720  33.158   2.281
68865W        W35296  32.983  14.826   2.085
68866W        W35297   6.303  22.627  14.993
68867W        W35298   2.357  29.753  13.287
68868W        W35299  28.956  44.863   3.324
68869W        W35300  21.443  19.836   4.131
68870W        W35301   4.309  19.335   3.700
68871W        W35302  22.740  13.730   1.620
68872W        W35303  22.928  13.717   0.694
68873W        W35304  41.563   9.155  11.493
68874W        W35305  25.108   9.178  12.844
68875W        W35306  25.652   3.415  13.476
68876W        W35307  27.475   3.680   1.305
68877W        W35308  24.687   0.679   2.708
68878W        W35309  24.601  41.944   4.885
68879W        W35310  38.084  36.212   2.195
68880W        W35311   4.975  16.188  10.585
68881W        W35312   1.220  12.601  12.561
68882W        W35313  21.659   3.033   4.061
68883W        W35314  32.134  35.369  11.056
68884W        W35315  32.722  14.902  10.634
68885W        W35316  41.783  34.531  10.568
68886W        W35317  23.933  10.098   0.221
68887W        W35318  40.783  36.817  13.979
68888W        W35319  15.674  14.021  12.063
68889W        W35320  33.852   0.957   0.469
68890W        W35321  21.517   1.048   0.454
68891W        W35322  22.186  13.133   0.526
68892W        W35323  15.917   4.892   3.406
68893W        W35324  12.789  22.286  10.314
68894W        W35325   0.254   8.678  10.682
68895W        W35326  41.271  42.533  11.111
68896W        W35327   8.313  15.685  11.268
68897W        W35328  22.984  40.918   2.842
68898W        W35329  17.189  38.913   4.090
68899W        W35330  34.084  40.786  12.117
68900W        W35331  38.402  33.301  13.317
68901W        W35332  41.642  19.099  13.466
68902W        W35333  34.062  26.990   3.252
68903W        W35334  36.888  20.103  14.030
68904W        W35335  42.014  41.616  12.331
68905W        W35336  30.010  29.757   3.710
68906W        W35337  34.510  16.612   2.827
68907W        W35338   0.447  15.791   0.725
68908W        W35339   6.437  42.351   1.494
68909W        W35340  15.140   5.305   0.326
68910W        W35341   0.291  43.339   4.035
68911W        W35342  21.482  35.402  14.369
68912W        W35343   7.310   0.840   4.486
68913W        W35344  32.388   8.021  14.913
68914W        W35345  16.143  23.821   0.808
68915W        W35346  40.452  19.522   3.648
68916W        W35347  19.542  23.484   4.111
68917W        W35348  32.114   9.551  13.445
68918W        W35349  16.309  38.453   0.318
68919W        W35350  17.047  13.370   4.229
68920W        W35351  35.325   6.664  14.786
68921W        W35352  34.691   9.288  12.519
68922W        W35353   2.437  39.798  13.198
68923W        W35354  11.709   3.370  14.671
68924W        W35355  44.987   2.378  12.726
68925W        W35356  14.909   7.495  13.048
68926W        W35357  19.233  27.454  10.747
68927W        W35358   8.892   2.192   1.495
68928W        W35359  11.584  34.376   1.260
68929W        W35360   5.788   8.731   0.761
68930W        W35361  14.059  41.514   1.412
68931W        W35362   8.388  11.484   0.366
68932W        W35363  27.151  17.275   3.343
68933W        W35364  26.102   7.287  11.042
68934W        W35365  36.533  13.887  13.397
68935W        W35366  43.518   4.934  11.623
68936W        W35367  38.916   1.145   3.609
68937W        W35368  40.282  40.878  12.892
68938W        W35369  33.563  15.358   3.747
68939W        W35370  18.896   6.353   0.455
68940W        W35371  12.844  36.293   0.070
68941W        W35372  28.661  41.356   3.673
68942W        W35373  34.137  30.109  12.038
68943W        W35374   3.497  37.090   3.828
68944W        W35375  22.286  35.939  12.049
68945W        W35376   1.434  17.526   2.846
68946W        W35377  25.574  40.783  13.578
68947W        W35378  32.585  11.078   2.866
68948W        W35379   4.717   2.244   2.754
68949W        W35380  35.014  43.525   1.592
68950W        W35381   7.669   3.508   0.525
68951W        W35382  11.666  38.866  10.165
68952W        W35383  37.071  24.983  14.433
68953W        W35384  12.722  13.456  11.526
68954W        W35385  20.987   2.008   2.439
68955W        W35386  33.687   2.356   0.980
68956W        W35387   7.651  43.523   1.877
68957W        W35388   5.606  29.270  12.948
68958W        W35389   0.929  34.052   0.616
68959W        W35390   6.139  17.514   1.398
68960W        W35391   8.779   7.457  11.618
68961W        W35392  40.474  30.728  14.892
68962W        W35393  14.057  15.860   2.723
68963W        W35394  27.035  29.146  14.512
68964W        W35395  36.445  27.094   2.178
68965W        W35396  26.963  40.393   0.691
68966W        W35397  25.857  39.148  11.694
68967W        W35398  11.782  31.446  11.181
68968W        W35399  17.596  16.137   4.561
68969W        W35400  23.138  24.458   3.369
68970W        W35401  14.793   8.669   3.623
68971W        W35402  18.816  20.800   2.171
68972W        W35403  23.722  38.117  13.875
68973W        W35404   5.969   4.876  13.054
68974W        W35405  27.001  40.605  12.966
68975W        W35406   1.834   1.470  10.806
68976W        W35407  37.306  41.788  12.597
68977W        W35408   3.372  42.105  12.458
68978W        W35409  35.489  13.598   4.445
68979W        W35410  19.020  24.671   0.303
68980W        W35411   0.968  14.951   2.893
68981W        W35412  10.548  22.164  13.045
68982W        W35413  29.440   9.353   2.225
68983W        W35414  44.433  15.593  11.625
68984W        W35415  39.402   4.449  11.969
68985W        W35416   0.247  24.695   1.357
68986W        W35417  25.779   0.482  11.400
68987W        W35418   3.788   1.129  10.731
68988W        W35419  23.724  19.317  10.738
68989W        W35420  21.220  34.530   3.860
68990W        W35421  27.604  38.474   0.770
68991W        W35422   9.128  19.921  11.216
68992W        W35423  36.081  17.206   4.592
68993W        W35424   9.102  17.785  12.124
68994W        W35425  30.479   1.343  12.009
68995W        W35426   8.098   7.149  11.136
68996W        W35427   9.661   3.445   3.828
68997W        W35428  25.598  23.425   0.925
68998W        W35429  35.334  33.128  12.069
68999W        W35430   8.453   2.660   0.460
69000W        W35431  33.685  16.209   1.018
69001W        W35432  32.075  44.794  13.236
69002W        W35433  20.812  29.804  10.908
69003W        W35434  12.339  22.041  10.421
69004W        W35435  36.536  11.412   0.760
69005W        W35436  19.525  36.631  14.153
69006W        W35437  38.623  14.687   0.013
69007W        W35438  33.557   9.644  13.499
69008W        W35439   5.358  10.192   1.352
69009W        W35440  12.991  20.646   0.380
69010W        W35441  33.022  32.269  12.522
69011W        W35442  34.869  30.173   1.997
69012W        W35443   6.776   0.478   1.104
69013W        W35444   2.276  36.671  14.925
69014W        W35445  22.134  37.324   2.831
69015W        W35446   3.508  10.320   3.177
69016W        W35447  16.613  10.603  12.355
69017W        W35448   5.689  13.710   0.339
69018W        W35449  17.651  34.703  10.990
69019W        W35450  39.991   5.208  11.815
69020W        W35451  31.418   4.478  12.807
69021W        W35452  21.666  17.237   1.488
69022W        W35453  44.384  29.853  10.732
69023W        W35454  18.499  37.289   4.796
69024W        W35455  34.617  22.129   2.917
69025W        W35456  36.852   3.018  12.175
69026W        W35457  29.871  19.202  12.864
69027W        W35458  44.881  23.657   4.598
69028W        W35459  22.065   5.847  13.323
69029W        W35460  17.135   6.202   4.146
69030W        W35461  30.458  11.990  12.031
69031W        W35462  40.718  26.607   2.743
69032W        W35463  40.304  15.687  13.268
69033W        W35464  22.252  11.282   4.484
69034W        W35465  31.085   4.829   0.823
69035W        W35466  27.871  43.223   5.161
69036W        W35467  36.169  15.784   1.417
69037W        W35468  19.917  20.769  11.853
69038W        W35469   8.930  13.132  12.148
69039W        W35470  27.375  17.768   3.230
69040W        W35471  16.530  43.268  13.873
69041W        W35472   4.960   0.030   0.792
69042W        W35473  16.517  34.095  11.502
69043W        W35474   5.320  39.142  13.836
69044W        W35475  38.384  10.350  10.970
69045W        W35476  34.098  29.879   0.904
69046W        W35477   8.159  29.113  14.550
69047W        W35478  29.588  28.891  12.822
69048W        W35479  26.276   0.883  14.393
69049W        W35480  39.339  11.300  13.128
69050W        W35481   4.308  38.886   2.670
69051W        W35482  15.558   5.901   5.400
69052W        W35483  34.513  19.988  13.851
69053W        W35484  16.979  39.353   4.168
69054W        W35485  16.026  26.099  13.892
69055W        W35486  44.909  37.427  11.580
69056W        W35487  11.567  41.346   4.032
69057W        W35488  13.547  42.404   3.239
69058W        W35489  14.152  21.182  14.387
69059W        W35490   3.400  39.836   4.481
69060W        W35491  36.933  24.049   2.977
69061W        W35492   1.355  39.433  10.770
69062W        W35493   7.163  34.645   3.521
69063W        W35494  10.339  34.536  12.911
69064W        W35495  19.583   6.852   0.503
69065W        W35496  31.904  43.117   4.286
69066W        W35497  34.600  21.806   0.191
69067W        W35498  23.136   3.714  11.641
69068W        W35499  11.373  11.394  11.241
69069W        W35500  35.187   6.879  14.295
69070W        W35501  42.551   5.669   1.302
69071W        W35502  34.810   8.434  13.984
69072W        W35503  19.694   9.240   5.215
69073W        W35504  16.706  44.918  14.804
69074W        W35505  25.201  22.237   0.196
69075W        W35506  41.211  14.661   0.431
69076W        W35507  26.981  29.418  11.382
69077W        W35508   5.686   9.746   2.282
69078W        W35509  13.615  39.057   1.241
69079W        W35510  40.294  36.028  12.481
69080W        W35511  23.286  18.250  11.304
69081W        W35512   6.715  20.636   4.523
69082W        W35513  28.390  18.170  11.535
69083W        W35514  15.307  11.598  13.004
69084W        W35515  12.834   5.478  13.435
69085W        W35516  31.995  14.658  12.193
69086W        W35517   4.392   1.167  14.430
69087W        W35518  37.146  17.283   3.700
69088W        W35519  25.034   8.295  11.832
69089W        W35520   1.812  37.539  14.697
69090W        W35521  30.994  21.390  12.410
69091W        W35522  12.188  33.137  13.045
69092W        W35523  22.020   5.402  13.584
69093W        W35524  13.303  26.669  14.030
69094W        W35525  34.454  34.109   4.261
69095W        W35526  30.464  15.833  10.389
69096W        W35527  28.375  22.698   4.605
69097W        W35528   6.420  29.249   3.639
69098W        W35529  18.552  22.291   2.926
69099W        W35530  18.162  11.158  13.018
69100W        W35531  36.359  21.319   2.824
69101W        W35532  44.531  17.985   4.321
69102W        W35533  20.231  25.745  13.597
69103W        W35534  30.192  15.160   3.438
69104W        W35535   0.917  29.013   1.376
69105W        W35536  25.471   7.840  11.051
69106W        W35537  38.676  22.644  14.267
69107W        W35538   1.970  21.037  10.128
69108W        W35539  10.781  16.513   3.651
69109W        W35540  44.019  16.360   1.778
69110W        W35541  44.297  40.497  10.487
69111W        W35542  29.137   3.439  10.703
69112W        W35543  15.096  37.842   2.276
69113W        W35544  30.154  12.808   0.956
69114W        W35545  14.726  18.488  14.849
69115W        W35546  44.508  15.149   1.590
69116W        W35547   8.130   4.878  14.939
69117W        W35548  13.355   1.243   0.203
69118W        W35549  29.210   2.709  12.169
69119W        W35550   8.867  11.615  11.968
69120W        W35551  21.991  34.514  14.910
69121W        W35552  42.532  24.036  13.059
69122W        W35553  33.108  22.741  11.564
69123W        W35554  31.191  43.781   2.503
69124W        W35555  44.860  16.892   1.174
69125W        W35556  43.973  10.360  10.160
69126W        W35557  21.553  44.595   0.381
69127W        W35558   0.321   1.402  12.649
69128W        W35559  40.792   9.197  11.953
69129W        W35560  43.277  13.920   1.373
69130W        W35561   5.364   0.730  14.411
69131W        W35562  17.200   4.483  14.013
69132W        W35563   0.467  40.595   0.455
69133W        W35564  39.346  34.467   2.714
69134W        W35565   1.325  44.749   2.750
69135W        W35566  27.890   7.382  11.111
69136W        W35567  31.228  37.321  14.046
69137W        W35568  25.281   9.094  12.364
69138W        W35569  33.515  30.514   3.135
69139W        W35570   5.359  35.853  12.564
69140W        W35571  25.051   0.489  14.175
69141W        W35572  26.684  19.764  14.388
69142W        W35573   8.141  36.132   4.411
69143W        W35574  15.566  28.027   1.459
69144W        W35575  31.609   9.322  12.608
69145W        W35576  27.300  29.249  11.032
69146W        W35577   9.633  25.588   3.286
69147W        W35578  38.521   7.307  11.713
69148W        W35579  42.798  15.121   4.152
69149W        W35580  35.577  37.444  11.303
69150W        W35581  19.570  31.631  13.245
69151W        W35582   1.761   0.350   1.207
69152W        W35583  10.922  10.846   1.277
69153W        W35584  32.878  41.752  10.743
69154W        W35585  33.030   1.002   2.787
69155W        W35586  33.478  16.688   2.197
69156W        W35587  13.824  35.902   2.401
69157W        W35588  27.477   5.473   2.762
69158W        W35589  44.525  22.483  14.187
69159W        W35590  15.244  31.852   4.492
69160W        W35591  31.888  29.426   0.770
69161W        W35592  41.211  24.666   2.773
69162W        W35593  25.339  27.824  13.862
69163W        W35594  40.766  38.130  14.992
69164W        W35595  35.889   8.417  12.546
69165W        W35596  29.878  44.259  10.650
69166W        W35597  19.470   6.342   1.202
69167W        W35598   6.821  36.930  11.123
69168W        W35599  26.793  35.967   2.357
69169W        W35600  33.003   5.732  14.685
69170W        W35601  34.976   2.691  11.610
69171W        W35602   7.286   2.891   2.783
69172W        W35603   3.248   9.827   3.153
69173W        W35604  12.016  22.378  11.717
69174W        W35605  39.489  27.130  10.672
69175W        W35606  23.533  44.011  11.217
69176W        W35607  39.135  15.234   4.988
69177W        W35608  26.157   3.741  11.194
69178W        W35609  13.710  27.250  12.834
69179W        W35610   1.409  12.266  10.771
69180W        W35611  28.758  39.142   0.811
69181W        W35612  19.647  40.322  13.537
69182W        W35613  17.798  33.679   3.368
69183W        W35614  26.336   2.297   2.703
69184W        W35615  12.599  36.351  10.737
69185W        W35616  21.440  17.720   4.318
69186W        W35617  28.965  32.090   2.695
69187W        W35618   4.453  41.227  14.727
69188W        W35619  20.517  18.206  13.446
69189W        W35620   0.985   6.779   2.604
69190W        W35621   3.067  10.667  12.017
69191W        W35622  29.484   7.370  14.786
69192W        W35623  37.041  32.633   1.678
69193W        W35624  17.440  11.281  14.224
69194W        W35625   1.343  12.314  14.362
69195W        W35626  43.248   0.065   0.280
69196W        W35627   3.639  33.047  13.308
69197W        W35628   6.771  39.702  14.013
69198W        W35629  16.128   7.208   4.536
69199W        W35630  44.231  33.164  12.458
69200W        W35631  27.112   9.472  10.237
69201W        W35632  22.060  38.032   2.409
69202W        W35633  34.720  36.184  14.777
69203W        W35634  21.118  41.462   5.147
69204W        W35635   1.435  32.477   4.265
69205W        W35636  14.475   4.304   3.169
69206W        W35637   2.725  12.381   1.761
69207W        W35638  20.189  38.001   3.270
69208W        W35639  36.804  32.502   1.224
69209W        W35640  36.328   7.797   3.827
69210W        W35641   4.733  15.316  13.217
69211W        W35642  42.510  14.225   3.771
69212W        W35643  32.630   2.953  11.468
69213W        W35644  33.669  33.973   3.563
69214W        W35645  23.746   3.832   1.828
69215W        W35646  37.979  20.627  13.438
69216W        W35647  13.393  32.801   0.037
69217W        W35648  37.052  29.314   2.924
69218W        W35649  14.626  15.165   1.125
69219W        W35650  31.753   6.729   1.341
69220W        W35651  44.718  18.122  12.002
69221W        W35652   6.352   7.292   3.631
69222W        W35653  27.039  36.768   4.652
69223W        W35654  37.546  21.616   3.895
69224W        W35655  32.526  27.164   4.825
69225W        W35656  35.436  31.115  11.575
69226W        W35657  33.897  25.673  12.651
69227W        W35658   1.346  21.243   3.252
69228W        W35659  25.407  31.476   3.695
69229W        W35660  17.083   4.136   3.270
69230W        W35661  36.046  11.874   3.834
69231W        W35662  34.395  30.986  12.339
69232W        W35663  37.450  42.997  12.043
69233W        W35664  25.074  43.919   2.372
69234W        W35665  10.938   0.129  11.920
69235W        W35666  19.510  32.176   1.353
69236W        W35667   5.388  39.374   2.361
69237W        W35668  30.198  32.041  11.071
69238W        W35669  15.741   6.936   3.135
69239W        W35670   8.323  43.280  13.275
69240W        W35671   5.241   9.496   4.210
69241W        W35672  38.244  31.463  11.289
69242W        W35673   4.455  43.989   2.803
69243W        W35674   0.321   7.707   0.024
69244W        W35675   5.258  10.640  13.846
69245W        W35676  38.766  17.373   1.653
69246W        W35677  13.336  20.837  14.998
69247W        W35678  33.609  36.147   9.903
69248W        W35679  32.015  44.710   4.259
69249W        W35680  18.408  32.099   0.251
69250W        W35681  29.314  20.127  12.025
69251W        W35682  26.080  15.615   3.296
69252W        W35683  15.268  42.317  10.585
69253W        W35684   5.479  20.656  11.126
69254W        W35685  26.283  23.342   1.767
69255W        W35686  24.605  16.866  12.523
69256W        W35687  41.797  26.415  12.433
69257W        W35688  25.784  10.463   2.328
69258W        W35689  38.907   8.158  14.901
69259W        W35690  36.138  14.229  13.385
69260W        W35691  29.035  15.289   1.275
69261W        W35692   7.203   1.404  11.932
69262W        W35693  41.975  14.653  11.779
69263W        W35694  23.228  13.799  11.542
69264W        W35695   7.395  24.440   2.944
69265W        W35696  23.524  37.403  14.389
69266W        W35697  38.843  10.128  14.865
69267W        W35698  38.399  41.252  14.488
69268W        W35699  34.572   9.202   4.317
69269W        W35700  17.128  39.310  14.472
69270W        W35701  19.950  16.657  11.566
69271W        W35702  33.838   9.929   4.230
69272W        W35703  11.957   1.261  11.118
69273W        W35704  42.394  32.815  13.726
69274W        W35705  21.254   7.337   1.707
69275W        W35706  40.841  10.369  11.202
69276W        W35707  41.285   0.445  12.881
69277W        W35708   3.221  25.030   5.035
69278W        W35709  24.751  17.023   2.312
69279W        W35710  22.394  20.249   0.489
69280W        W35711  41.047  33.599   2.068
69281W        W35712  29.014  20.325   0.873
69282W        W35713  38.678  25.506  10.742
69283W        W35714   2.282  27.385  10.980
69284W        W35715  18.511  26.927  13.249
69285W        W35716   5.093  21.656  10.293
69286W        W35717   6.303  11.620  11.136
69287W        W35718  27.322  42.396  14.351
69288W        W35719  15.003   7.323  10.684
69289W        W35720  18.568   8.420   1.302
69290W        W35721   8.918  22.590   1.742
69291W        W35722   2.947  22.982  11.455
69292W        W35723  33.509  44.079   0.448
69293W        W35724  38.522  18.141   0.464
69294W        W35725  24.149  23.253  13.687
69295W        W35726   1.725  27.145   0.307
69296W        W35727  18.621  18.947   4.449
69297W        W35728   4.409  31.626  10.412
69298W        W35729  18.577   2.847   0.324
69299W        W35730  40.055  31.396  11.249
69300W        W35731   2.948  21.076   9.897
69301W        W35732  37.452  28.689   4.402
69302W        W35733  22.129  20.603   0.245
69303W        W35734   0.779   8.771   0.354
69304W        W35735   3.282  36.150  12.721
69305W        W35736  10.692  27.776  14.458
69306W        W35737   0.212   2.248   2.138
69307W        W35738  15.546  14.849   3.317
69308W        W35739  20.505  11.613  11.729
69309W        W35740  26.169  34.213   4.880
69310W        W35741  26.763   3.710   1.628
69311W        W35742  35.259  31.912   4.368
69312W        W35743  17.674  21.424   1.356
69313W        W35744  19.812  15.016  13.348
69314W        W35745  11.422  22.602   4.553
69315W        W35746  12.262  32.070   1.710
69316W        W35747  31.604  17.560   2.081
69317W        W35748  23.992   7.391  10.408
69318W        W35749  38.729  38.610   5.255
69319W        W35750  24.882  25.707   4.065
69320W        W35751  18.819  19.992  13.066
69321W        W35752  28.083  37.851   0.303
69322W        W35753   2.863  10.574  14.331
69323W        W35754  31.388  34.036  10.506
69324W        W35755   8.488  22.732   3.872
69325W        W35756   8.155  28.787   3.711
69326W        W35757  18.683  30.006  11.702
69327W        W35758  22.269  23.683   3.280
69328W        W35759  25.665  41.515  11.192
69329W        W35760  25.776  38.515   0.392
69330W        W35761  12.655  36.490   3.705
69331W        W35762  16.692  36.930   2.440
69332W        W35763  31.878  27.249   2.190
69333W        W35764  31.810  43.310   2.738
69334W        W35765  15.668  38.532  10.801
69335W        W35766   0.983  30.431  11.636
69336W        W35767  15.108  26.810   5.036
69337W        W35768  39.610  13.746   1.772
69338W        W35769   6.281  27.564   1.824
69339W        W35770   6.753  25.429   3.709
69340W        W35771  16.841  34.980   1.343
69341W        W35772   0.436   2.677  10.696
69342W        W35773  31.595  18.854   0.751
69343W        W35774  15.044  17.927   4.804
69344W        W35775  15.770  42.901  12.026
69345W        W35776  17.619   0.964   0.684
69346W        W35777  24.605  40.585  12.002
69347W        W35778  22.642  23.914   2.645
69348W        W35779  12.106  18.566  11.839
69349W        W35780  27.219   7.765   4.067
69350W        W35781  37.532  35.428  12.853
69351W        W35782  13.396  22.731   1.043
69352W        W35783  25.071  12.999  12.456
69353W        W35784   3.253  28.621   3.613
69354W        W35785   2.446   5.975  11.752
69355W        W35786  35.863  32.031  14.591
69356W        W35787  25.132  32.489   1.409
69357W        W35788  35.376  44.272  13.473
69358W        W35789   4.726  21.020   3.596
69359W        W35790  43.773  13.714  10.799
69360W        W35791  12.926  30.459  11.937
69361W        W35792   2.937  16.817  12.780
69362W        W35793  10.396  14.106  10.676
69363W        W35794  35.328  17.931  14.975
69364W        W35795  21.636  44.361  12.938
69365W        W35796  13.395   1.910  14.982
69366W        W35797   8.232  13.753   0.167
69367W        W35798   1.861  24.291   2.468
69368W        W35799   2.354   6.589   3.707
69369W        W35800  21.022   4.617   3.354
69370W        W35801  35.384  32.796  13.860
69371W        W35802   7.150  10.651   0.225
69372W        W35803   4.138  15.549  12.077
69373W        W35804  29.666  27.420  13.829
69374W        W35805  14.779  19.261   4.875
69375W        W35806  26.401   4.174  11.142
69376W        W35807  32.558  26.544   2.098
69377W        W35808   6.349  29.882  12.164
69378W        W35809   6.647   9.138   0.873
69379W        W35810  32.961   4.448   2.259
69380W        W35811  36.829  26.675  10.468
69381W        W35812  40.429  26.000  11.319
69382W        W35813  34.106  17.118  11.945
69383W        W35814  33.331   8.340   4.624
69384W        W35815  30.814   8.343  10.697
69385W        W35816  26.399  38.039   4.138
69386W        W35817  15.339  41.026   4.891
69387W        W35818  33.577  29.141  11.866
69388W        W35819   0.230  44.780  12.805
69389W        W35820  34.375  30.895   9.758
69390W        W35821  12.697  23.891  11.654
69391W        W35822  42.298  29.894  14.002
69392W        W35823  44.375   8.320   4.702
69393W        W35824  32.006   9.590   5.154
69394W        W35825  13.125  36.285   2.617
69395W        W35826   0.347  21.707  14.998
69396W        W35827  39.740   2.420  12.103
69397W        W35828  13.213  28.406   0.235
69398W        W35829  14.249   2.848   4.686
69399W        W35830  24.635  42.526  13.917
69400W        W35831   1.918  20.832  12.877
69401W        W35832  21.989  33.451  11.492
69402W        W35833  40.478  13.596  13.425
69403W        W35834   5.916  22.206   0.217
69404W        W35835  42.912  17.678   1.451
69405W        W35836  19.782  40.347   3.333
69406W        W35837  42.535  14.727   3.628
69407W        W35838  28.615  21.301  12.513
69408W        W35839   4.282  22.479   4.343
69409W        W35840  41.505  19.499  10.781
69410W        W35841  27.646  11.695   1.016
69411W        W35842  38.491  28.684  14.835
69412W        W35843   2.193   5.213   1.924
69413W        W35844   8.191  36.657  13.982
69414W        W35845  42.345   3.664  11.225
69415W        W35846   6.346  18.520   4.096
69416W        W35847  34.503  40.586   1.863
69417W        W35848  42.318  11.213  12.793
69418W        W35849  19.701  21.468   4.207
69419W        W35850  19.904  36.366   1.414
69420W        W35851  32.301  14.933   3.167
69421W        W35852  14.879   2.485  14.296
69422W        W35853   1.709  38.982  12.014
69423W        W35854  44.780  41.273  11.931
69424W        W35855  41.952  10.263  13.082
69425W        W35856  13.217  12.634   3.691
69426W        W35857   6.958  23.418  13.538
69427W        W35858   2.347  39.479   0.027
69428W        W35859  29.094  43.076  11.513
69429W        W35860  14.673  38.081   3.255
69430W        W35861  26.251  25.512  12.038
69431W        W35862  38.425   2.894   2.189
69432W        W35863  29.634   1.761  13.063
69433W        W35864  19.236  12.539   2.878
69434W        W35865   5.509  17.735  12.083
69435W        W35866  38.289  44.782  13.351
69436W        W35867  22.338  23.801   9.911
69437W        W35868  23.295  33.860   4.160
69438W        W35869  33.030   3.714   4.921
69439W        W35870   8.816  21.058   0.615
69440W        W35871  40.901  24.636  13.677
69441W        W35872  12.381  18.676   2.820
69442W        W35873  17.722  15.128  11.005
69443W        W35874   4.940  41.478   1.237
69444W        W35875  44.121  21.070  13.118
69445W        W35876  35.804   7.203   1.759
69446W        W35877  25.248  33.101  13.067
69447W        W35878  34.033   9.025   0.635
69448W        W35879  28.452  23.989  14.918
69449W        W35880  14.071  25.452   3.756
69450W        W35881  24.077  36.935   4.567
69451W        W35882  19.027  35.602  13.413
69452W        W35883  18.197  17.184   0.763
69453W        W35884  38.149  27.156   3.319
69454W        W35885  28.651  39.130  10.603
69455W        W35886  31.030  27.034   3.676
69456W        W35887  16.720   4.781   2.360
69457W        W35888  14.079   5.333  14.768
69458W        W35889  33.826   3.844   2.704
69459W        W35890   8.669  11.341  12.378
69460W        W35891  29.818  44.540  13.844
69461W        W35892  24.096  31.973   4.203
69462W        W35893  18.293  40.748  13.122
69463W        W35894  29.482  15.517   1.256
69464W        W35895  40.005  14.215   1.795
69465W        W35896  13.063   9.740  13.082
69466W        W35897  22.566  35.340  14.676
69467W        W35898  15.375   3.899   0.362
69468W        W35899   9.217  15.209   4.167
69469W        W35900  33.128  13.236   0.811
69470W        W35901  11.630  30.005  10.685
69471W        W35902  24.112  29.874   2.225
69472W        W35903  18.745   2.189  12.191
69473W        W35904  44.526  13.702   1.838
69474W        W35905  19.645  18.466   1.792
69475W        W35906   9.699   3.803  11.530
69476W        W35907  41.381   3.318  13.392
69477W        W35908   0.027  22.024   0.253
69478W        W35909  44.867   9.417   3.647
69479W        W35910  12.851  10.256  14.648
69480W        W35911  13.699  28.412   3.753
69481W        W35912  24.481  10.240   2.700
69482W        W35913  36.793   5.247   2.150
69483W        W35914  15.948  40.312  11.962
69484W        W35915  19.437   3.028   4.070
69485W        W35916  28.874  26.577  11.215
69486W        W35917  16.395  26.535   0.017
69487W        W35918  11.891  13.117   2.253
69488W        W35919  28.465  31.484   0.290
69489W        W35920  32.440  16.513  13.484
69490W        W35921  31.320  23.163  14.927
69491W        W35922  16.758  35.829  11.697
69492W        W35923   5.443  21.088   1.936
69493W        W35924  34.984  36.474  12.096
69494W        W35925  18.054   8.997   1.989
69495W        W35926  37.328  44.405  14.519
69496W        W35927   5.409  19.682  12.081
69497W        W35928   3.296   9.847  14.130
69498W        W35929  41.867   3.700   1.359
69499W        W35930  26.551  37.154   3.074
69500W        W35931  13.305  11.060  13.341
69501W        W35932   1.469   2.706  13.715
69502W        W35933  23.172  21.249   1.746
69503W        W35934  11.966   5.800  14.711
69504W        W35935  28.048  24.392   4.638
69505W        W35936  41.882  19.210  10.571
69506W        W35937  39.360  12.747  10.699
69507W        W35938  19.986  25.321  11.140
69508W        W35939  26.127  29.472  10.262
69509W        W35940  25.285   3.690  10.648
69510W        W35941  11.635  14.748  14.287
69511W        W35942  31.167  24.675   4.191
69512W        W35943  31.047   4.654   1.400
69513W        W35944   7.332  13.766   4.171
69514W        W35945  35.002  14.347   4.557
69515W        W35946  40.328  16.753  12.464
69516W        W35947  38.102  41.910  11.126
69517W        W35948   9.125   3.275   0.084
69518W        W35949  21.592  21.244   2.659
69519W        W35950  17.172  35.285  12.614
69520W        W35951  26.190  20.056   2.692
69521W        W35952  39.315  21.173  14.406
69522W        W35953  18.126   7.310   4.670
69523W        W35954  33.187  36.297   4.473
69524W        W35955  43.439  15.779  10.594
69525W        W35956  33.372  28.948   0.954
69526W        W35957  22.240  31.037   3.733
69527W        W35958  39.799  35.597   0.963
69528W        W35959  11.722  15.233   0.062
69529W        W35960   9.635  30.502  14.013
69530W        W35961  19.671   9.162  13.569
69531W        W35962  30.375   0.501  11.600
69532W        W35963  32.135  22.564   2.815
69533W        W35964  29.061  44.001  10.440
69534W        W35965  42.977  24.793   4.902
69535W        W35966  35.834  20.734  14.758
69536W        W35967  14.332  38.452   4.601
69537W        W35968  32.097  19.915  11.564
69538W        W35969  19.667  22.709   0.796
69539W        W35970  34.156   3.226  10.613
69540W        W35971  21.896   3.079  14.845
69541W        W35972  11.886  19.504  13.027
69542W        W35973   0.458  12.804  11.095
69543W        W35974  34.049  10.749  13.019
69544W        W35975  41.423   2.384   2.924
69545W        W35976  28.211  22.529   0.897
69546W        W35977  13.237  14.622   3.720
69547W        W35978   3.677  31.977  12.849
69548W        W35979  12.452  11.008   2.762
69549W        W35980  15.604  13.977   3.023
69550W        W35981  15.989  21.190   3.926
69551W        W35982   9.194   9.391   1.859
69552W        W35983  40.257  17.152  14.472
69553W        W35984   0.007  18.113  12.414
69554W        W35985   5.853  16.117  13.471
69555W        W35986   8.036  11.710  14.042
69556W        W35987  44.828  38.924  12.083
69557W        W35988  38.010  31.275   1.506
69558W        W35989   0.531  24.453   2.682
69559W        W35990  28.950  35.411   3.326
69560W        W35991  13.886  43.303  12.505
69561W        W35992   9.735  33.942  13.957
69562W        W35993   8.317  33.100   2.810
69563W        W35994  11.846  43.771   3.179
69564W        W35995  38.145  26.590  13.337
69565W        W35996  26.650  31.393   4.630
69566W        W35997   2.262   6.882   1.893
69567W        W35998  27.222  19.910   4.495
69568W        W35999  21.215  29.510   2.875
69569W        W36000  34.099  41.115   1.352
69570W        W36001  43.835  31.400  13.531
69571W        W36002  23.738   8.893  12.382
69572W        W36003  24.189  11.739  12.432
69573W        W36004  16.556  44.183   4.583
69574W        W36005   5.838   7.349  13.140
69575W        W36006  37.215  39.011   3.772
69576W        W36007  23.704  37.110   3.730
69577W        W36008  39.023  27.217  10.928
69578W        W36009  20.421   4.342  11.616
69579W        W36010  29.273  36.439   1.749
69580W        W36011  20.816   3.332  13.911
69581W        W36012  40.603  23.712  11.673
69582W        W36013   9.547  15.063  12.974
69583W        W36014  23.233   3.086   2.358
69584W        W36015  38.854  34.339  13.243
69585W        W36016   1.873  22.741  14.243
69586W        W36017  18.148   7.867  13.126
69587W        W36018  10.230   7.468   4.096
69588W        W36019  28.895   4.981   1.344
69589W        W36020  44.506   9.351  14.955
69590W        W36021  38.542   6.285  10.718
69591W        W36022  12.356   6.422   4.570
69592W        W36023  40.088   5.931   1.500
69593W        W36024  14.577  31.551  12.595
69594W        W36025   2.224   5.193  12.643
69595W        W36026   0.852  43.979   2.224
69596W        W36027   0.852  32.571  13.348
69597W        W36028  28.484  12.909  11.029
69598W        W36029   3.742  29.555  12.900
69599W        W36030  20.680   9.177  12.541
69600W        W36031   5.726   3.250   0.428
69601W        W36032  17.721  13.271   4.975
69602W        W36033  15.166   5.963  10.795
69603W        W36034   5.442  33.134  13.905
69604W        W36035  16.739  28.224   4.067
69605W        W36036  30.393  15.777   2.192
69606W        W36037  22.428  17.750   0.387
69607W        W36038  44.331  16.496  13.400
69608W        W36039  30.594  27.513   0.812
69609W        W36040  37.788  24.680  10.971
69610W        W36041  20.979  19.146  12.945
69611W        W36042  44.836   4.857   4.171
69612W        W36043  21.186  30.226   0.102
69613W        W36044  28.953  35.127  14.927
69614W        W36045  17.269  12.297  10.429
69615W        W36046  39.445  10.020  14.014
69616W        W36047   2.146  36.385  11.547
69617W        W36048  35.809  23.011  11.537
69618W        W36049  25.697  26.089   3.236
69619W        W36050   7.867  14.246  12.086
69620W        W36051   5.446  37.435   4.105
69621W        W36052  31.517  38.359   4.634
69622W        W36053  16.710  35.924   4.259
69623W        W36054   4.219   7.583  13.894
69624W        W36055   8.370  34.516  12.247
69625W        W36056  23.578  39.840   1.153
69626W        W36057  12.127  28.932  14.028
69627W        W36058  26.975   7.325   4.295
69628W        W36059  25.405  20.303  12.395
69629W        W36060  29.553  20.298   0.385
69630W        W36061  25.355  42.320   4.823
69631W        W36062   1.438  36.398  10.979
69632W        W36063   4.587   9.888  13.968
69633W        W36064  18.041  24.046   5.060
69634W        W36065  30.516  21.715  13.562
69635W        W36066  20.259  43.395  13.113
69636W        W36067  38.314  30.072   1.849
69637W        W36068  25.730  29.097  10.243
69638W        W36069  19.474   3.053  10.519
69639W        W36070   5.932  21.645   3.756
69640W        W36071  17.558   8.717  11.549
69641W        W36072   5.583  26.145   0.726
69642W        W36073   2.241  27.982   2.343
69643W        W36074  21.974  21.593  13.943
69644W        W36075  35.561  31.030  13.423
69645W        W36076  35.381  12.309   2.443
69646W        W36077  15.952  37.163  14.000
69647W        W36078  41.825  14.877   4.056
69648W        W36079  22.589   3.349   0.686
69649W        W36080  42.230  28.527  14.755
69650W        W36081  14.802  27.998  14.547
69651W        W36082   0.895  11.889  11.562
69652W        W36083  12.128  14.541   0.780
69653W        W36084  28.706  28.614   3.302
69654W        W36085   8.416  36.963  12.935
69655W        W36086  43.386  39.010  11.742
69656W        W36087  38.014  11.463  13.815
69657W        W36088  19.690  36.746   0.659
69658W        W36089  30.936  30.663   1.440
69659W        W36090   5.780  16.245  12.952
69660W        W36091  25.042  11.346  14.966
69661W        W36092  35.024  37.054   0.745
69662W        W36093   6.361   1.250  14.217
69663W        W36094  24.511   6.237   2.725
69664W        W36095   4.714  14.718  14.345
69665W        W36096   4.411  44.996   0.943
69666W        W36097  44.233  39.162  11.301
69667W        W36098  38.037  37.096  14.555
69668W        W36099  21.166  29.693  11.727
69669W        W36100  18.554  18.128   3.770
69670W        W36101  35.572  36.393   2.111
69671W        W36102   1.838  19.973   2.223
69672W        W36103  17.117  22.073  13.055
69673W        W36104   1.452  35.593  14.194
69674W        W36105  28.812   3.922   3.795
69675W        W36106  10.917   4.005   3.707
69676W        W36107  26.751  12.168   0.765
69677W        W36108  14.720  44.025  11.585
69678W        W36109  34.753   1.962  11.512
69679W        W36110  25.916  38.274  14.491
69680W        W36111  44.969  16.723   4.915
69681W        W36112  33.557  38.364  14.996
69682W        W36113  39.498  16.657   4.077
69683W        W36114  29.154   6.953  13.815
69684W        W36115   1.939   7.355  11.922
69685W        W36116  38.983  23.872   4.228
69686W        W36117  19.856   8.245  12.568
69687W        W36118   6.457  40.449  11.569
69688W        W36119  33.647  14.756  11.093
69689W        W36120  21.171  32.617  11.898
69690W        W36121  33.455   5.817   4.200
69691W        W36122   8.123  17.671  13.000
69692W        W36123   1.094   1.856   1.803
69693W        W36124   5.467  41.854   2.582
69694W        W36125  10.053  23.084   0.394
69695W        W36126  42.851  35.378   0.944
69696W        W36127   9.646  18.903   0.015
69697W        W36128   8.012  35.845  13.717
69698W        W36129  13.540  25.838  13.782
69699W        W36130  29.455  12.603  12.507
69700W        W36131  38.185  23.582   5.179
69701W        W36132  41.963  25.288   4.185
69702W        W36133  30.394  11.871  10.803
69703W        W36134  20.050  44.424   2.395
69704W        W36135  20.530  20.993   9.812
69705W        W36136  32.629  25.286  11.469
69706W        W36137  19.203   8.127   2.385
69707W        W36138   8.401  10.940   2.695
69708W        W36139  11.095  12.745  10.964
69709W        W36140  38.995  29.001  12.589
69710W        W36141  32.630   1.513  14.720
69711W        W36142   8.290   8.976  13.339
69712W        W36143  18.183   0.885  11.190
69713W        W36144  21.577   4.676   9.822
69714W        W36145  11.207  35.065  13.630
69715W        W36146   5.939  38.982  12.975
69716W        W36147   9.972  30.552   4.011
69717W        W36148   4.124  11.184  11.400
69718W        W36149   2.229  25.922  12.241
69719W        W36150  42.777  10.674  10.675
69720W        W36151  26.399  10.202  13.419
69721W        W36152  41.479  39.329   1.194
69722W        W36153  24.745  32.785   0.871
69723W        W36154  36.499   4.211   3.189
69724W        W36155  29.210   8.501   4.161
69725W        W36156  11.933   2.627  11.334
69726W        W36157  18.561  23.101   0.360
69727W        W36158  29.202  36.408  14.300
69728W        W36159  40.062  13.703   3.829
69729W        W36160  17.581  14.860  13.544
69730W        W36161  38.050  30.050  12.881
69731W        W36162  16.692  42.924  10.701
69732W        W36163  16.980  16.242   4.553
69733W        W36164  27.631  10.895   2.898
69734W        W36165   2.113  23.230   0.441
69735W        W36166  35.532  20.826   0.749
69736W        W36167  44.370   8.439  13.388
69737W        W36168   2.410   7.898   0.714
69738W        W36169  37.042  32.762   2.237
69739W        W36170   1.476  21.084  13.967
69740W        W36171  43.945   8.485   2.225
69741W        W36172  33.360  34.291  10.145
69742W        W36173  38.090  38.320  13.763
69743W        W36174  40.298  42.433  13.380
69744W        W36175  21.191   5.819   4.764
69745W        W36176  11.446   6.729  10.650
69746W        W36177  18.746   0.906   2.660
69747W        W36178  22.501  15.733   0.933
69748W        W36179  33.294   8.926  12.512
69749W        W36180  26.310  44.490  14.603
69750W        W36181  31.688   8.850  10.946
69751W        W36182  11.229  23.516   4.786
69752W        W36183   5.535  23.656   3.648
69753W        W36184  44.042  36.418   1.732
69754W        W36185  10.227  17.945  10.375
69755W        W36186  44.881  35.972   2.427
69756W        W36187  29.380   1.247   0.340
69757W        W36188  32.863  21.521  13.560
69758W        W36189  12.592  44.305  14.781
69759W        W36190  12.347   4.373  14.461
69760W        W36191  44.089  43.554   4.529
69761W        W36192  29.162   5.174  11.562
69762W        W36193  17.713   0.220   0.420
69763W        W36194  10.653   2.949  12.149
69764W        W36195  36.432  28.659  14.752
69765W        W36196  42.819  19.624  10.550
69766W        W36197  36.229   2.317   2.398
69767W        W36198  28.019  35.078   1.828
69768W        W36199  19.259  10.951   3.276
69769W        W36200  19.097  35.872   1.949
69770W        W36201  24.606   1.297   4.493
69771W        W36202  27.908  14.841   4.275
69772W        W36203  14.315  14.315   3.322
69773W        W36204  32.627  27.553  11.939
69774W        W36205  17.696   6.444   1.938
69775W        W36206  18.417  38.576   1.471
69776W        W36207  35.937  38.468  11.909
69777W        W36208   9.351  16.874  11.538
69778W        W36209   1.984  34.920  11.677
69779W        W36210   7.689  18.631  12.103
69780W        W36211   6.219  41.267   3.463
69781W        W36212  36.812  21.519  13.444
69782W        W36213  23.924  44.166  10.798
69783W        W36214  21.264  18.712  10.335
69784W        W36215  24.167  37.547   4.591
69785W        W36216  24.138  14.626  12.956
69786W        W36217  15.146   4.486  13.894
69787W        W36218   3.937  22.064   2.270
69788W        W36219  37.874  17.796   0.750
69789W        W36220  26.693  36.876  11.945
69790W        W36221  34.828  36.591   1.886
69791W        W36222  32.951  20.218   4.872
69792W        W36223  24.060  38.304  11.982
69793W        W36224  40.572  30.491   1.404
69794W        W36225  23.385   5.796  13.055
69795W        W36226   0.002  41.105   1.039
69796W        W36227  28.368  25.478   1.855
69797W        W36228  12.100   3.398   3.262
69798W        W36229  12.590  24.966  12.973
69799W        W36230  39.221  37.243  10.850
69800W        W36231  37.048  28.354   4.624
69801W        W36232  32.397  29.497   3.676
69802W        W36233  32.832  13.442   3.732
69803W        W36234   2.279  33.309  13.342
69804W        W36235   3.762   0.438   0.407
69805W        W36236   8.601  19.210  14.404
69806W        W36237  40.447  16.192  14.423
69807W        W36238  41.355  39.644  13.552
69808W        W36239  10.706  12.278  12.567
69809W        W36240  26.563  29.624   1.586
69810W        W36241  18.834  13.359  11.638
69811W        W36242  21.008  39.954   2.884
69812W        W36243  13.200  22.491  10.546
69813W        W36244   7.463  22.365  12.562
69814W        W36245   0.487  17.661  13.068
69815W        W36246  30.838  20.324  13.517
69816W        W36247  15.240  32.439  10.671
69817W        W36248  16.634  44.417   0.982
69818W        W36249  15.324  44.820   4.079
69819W        W36250  27.595  44.371   0.850
69820W        W36251   0.972  33.894   2.362
69821W        W36252  16.194  41.665   3.846
69822W        W36253  29.380  31.581   3.703
69823W        W36254  18.297   8.623  14.832
69824W        W36255  43.354  18.871  11.611
69825W        W36256   0.774  14.861  12.093
69826W        W36257   7.383  12.476  14.730
69827W        W36258  22.230  36.407  11.044
69828W        W36259   2.617   0.084  14.445
69829W        W36260   9.119  24.126  13.434
69830W        W36261  15.332  44.366  12.892
69831W        W36262   3.405   6.939   3.353
69832W        W36263  27.056  42.999  11.492
69833W        W36264  19.111  43.449  13.647
69834W        W36265   6.393  14.147   0.016
69835W        W36266   7.010  30.793   4.583
69836W        W36267  37.028  39.941   1.269
69837W        W36268  32.551  31.404   2.755
69838W        W36269  18.208  26.948  14.012
69839W        W36270  33.419   7.283   5.285
69840W        W36271   7.749  44.028   3.194
69841W        W36272  29.513  35.927  12.053
69842W        W36273  32.514   8.668   3.256
69843W        W36274  29.937  32.397   4.013
69844W        W36275  35.466   4.194  14.123
69845W        W36276   1.746  31.734   1.420
69846W        W36277  40.656  25.274  11.764
69847W        W36278  26.628  30.488   3.717
69848W        W36279  10.417  26.931  14.976
69849W        W36280  29.442   1.406  14.437
69850W        W36281   6.426   9.787  12.594
69851W        W36282  30.864  33.961   1.705
69852W        W36283  43.749  42.853   4.972
69853W        W36284  42.340  30.394   0.714
69854W        W36285  17.695   0.836  14.734
69855W        W36286  18.090  36.546   0.299
69856W        W36287   3.761  13.151  14.043
69857W        W36288  43.047  19.014  14.026
69858W        W36289  43.011  38.788   1.129
69859W        W36290  29.971  28.517  12.084
69860W        W36291  15.829  39.538  13.096
69861W        W36292  41.965   3.511   2.691
69862W        W36293  39.069   2.418   4.045
69863W        W36294  22.759  38.494  12.526
69864W        W36295  24.400  32.034   2.843
69865W        W36296  11.371  18.612  13.591
69866W        W36297  12.284  34.530  10.605
69867W        W36298  41.341  12.068   1.700
69868W        W36299   2.235   7.929   0.216
69869W        W36300  24.140  37.001   0.237
69870W        W36301   0.547  21.038  13.308
69871W        W36302  31.636  28.288  12.434
69872W        W36303  37.980   0.863  13.777
69873W        W36304  25.361   3.409   1.122
69874W        W36305  34.881   3.210  13.919
69875W        W36306  33.582  30.965  14.939
69876W        W36307  24.727  44.777   1.645
69877W        W36308  20.588  36.380   3.325
69878W        W36309   4.796  18.829   1.878
69879W        W36310   4.064   5.906   1.462
69880W        W36311  11.272  32.435  13.320
69881W        W36312  31.139  19.497  11.720
69882W        W36313   5.659   8.483   2.887
69883W        W36314  21.618  42.987  13.782
69884W        W36315  22.741   9.135   1.469
69885W        W36316   1.907   8.132   2.806
69886W        W36317   7.491  19.201  10.109
69887W        W36318   6.805  38.066  12.648
69888W        W36319  42.054  41.955  13.632
69889W        W36320  29.625  29.125   0.359
69890W        W36321  43.754  38.282  12.655
69891W        W36322  20.734   4.362  12.858
69892W        W36323  32.469  38.617  11.074
69893W        W36324   3.209   1.125  13.864
69894W        W36325   2.036  11.099  13.471
69895W        W36326  35.119  17.041  13.951
69896W        W36327  41.235  27.883  11.173
69897W        W36328  32.716  15.516  13.545
69898W        W36329  10.597   9.452   3.613
69899W        W36330  35.783   3.178   4.512
69900W        W36331   3.711  26.566   0.500
69901W        W36332  25.437  41.820  10.722
69902W        W36333  17.157  34.614  11.144
69903W        W36334  38.501  10.798  12.020
69904W        W36335  38.234  39.384   1.368
69905W        W36336  31.718  33.346   2.849
69906W        W36337  24.972   3.714   0.330
69907W        W36338  29.167   1.235  14.865
69908W        W36339  14.573  14.012   2.815
69909W        W36340  42.355  41.582  13.368
69910W        W36341   8.972  17.072  10.153
69911W        W36342  40.967   5.840  11.693
69912W        W36343   8.676  31.477  11.404
69913W        W36344  23.491  11.188   2.626
69914W        W36345  33.528   9.731   1.240
69915W        W36346  19.607  42.959   3.314
69916W        W36347  10.894  24.756   3.901
69917W        W36348  14.284  12.786  14.936
69918W        W36349  15.266  38.348   0.437
69919W        W36350  40.052  38.982  11.997
69920W        W36351   4.938  15.510   4.506
69921W        W36352  18.297  21.650   3.349
69922W        W36353  23.636   0.636   1.446
69923W        W36354  32.403   1.854   0.630
69924W        W36355   5.813   4.944   9.949
69925W        W36356  18.272  12.430   0.993
69926W        W36357  34.916  35.467   4.713
69927W        W36358  39.483  13.306   0.999
69928W        W36359   2.398  21.132   4.064
69929W        W36360  15.749   8.407  12.047
69930W        W36361  26.708   7.715   4.094
69931W        W36362   8.478  29.929   0.132
69932W        W36363  31.090  16.993  10.912
69933W        W36364  23.684  43.727   0.654
69934W        W36365   3.862  29.070  13.037
69935W        W36366  28.702   2.558   1.244
69936W        W36367  18.483  18.941  10.206
69937W        W36368  21.615  13.368  14.825
69938W        W36369  37.133  19.121  11.471
69939W        W36370   5.158  13.592  13.049
69940W        W36371  17.671  35.824  12.910
69941W        W36372  23.214   1.230  10.429
69942W        W36373  28.012   3.458   2.735
69943W        W36374  34.332  42.777   4.166
69944W        W36375  41.922  13.552   2.271
69945W        W36376  35.030   1.923   4.966
69946W        W36377  15.143  37.379  14.994
69947W        W36378   5.763  23.792  13.014
69948W        W36379  33.363  16.072  13.498
69949W        W36380   8.614  28.145  14.844
69950W        W36381  38.419  32.160   1.172
69951W        W36382  28.348  44.751  11.626
69952W        W36383  15.129  21.377  11.524
69953W        W36384   9.650  15.275  14.418
69954W        W36385  27.142  18.102   5.508
69955W        W36386  14.097  18.788  12.592
69956W        W36387  35.740   7.902   0.991
69957W        W36388  10.683  23.039   4.265
69958W        W36389  33.220   9.758  11.222
69959W        W36390  33.504  21.789   4.079
69960W        W36391  40.312  22.571   0.699
69961W        W36392  33.158  19.510  10.938
69962W        W36393  31.495  34.094   0.993
69963W        W36394   9.417  21.268  12.163
69964W        W36395  17.054  31.452   1.127
69965W        W36396  35.383   7.463   1.693
69966W        W36397  30.043   5.216   0.448
69967W        W36398  40.741   4.033   1.913
69968W        W36399  13.863  31.159  12.005
69969W        W36400   7.329  15.596  13.518
69970W        W36401  41.551   5.058  13.131
69971W        W36402  29.582  27.603  10.683
69972W        W36403   8.023  31.456  12.996
69973W        W36404  21.697  12.979   1.473
69974W        W36405   4.458  14.667   2.250
69975W        W36406  12.302  17.615  14.065
69976W        W36407  36.741  38.968  11.012
69977W        W36408  27.977  37.356  14.408
69978W        W36409  37.547  19.025  14.486
69979W        W36410  34.670  19.861   3.361
69980W        W36411  30.957   4.337  13.139
69981W        W36412  26.137   0.133  11.324
69982W        W36413  23.183  40.564  12.313
69983W        W36414   7.730  32.881   4.037
69984W        W36415  19.715   7.922  13.971
69985W        W36416  42.794  34.372  14.497
69986W        W36417   8.080  40.049   1.372
69987W        W36418  30.200   2.428   1.873
69988W        W36419  42.369   8.302  12.128
69989W        W36420  30.424  35.867   1.194
69990W        W36421  42.241  12.362   4.462
69991W        W36422  40.548  41.824   0.863
69992W        W36423   2.930   8.383  14.421
69993W        W36424   7.649  40.024   0.535
69994W        W36425  25.977  40.797  14.300
69995W        W36426  17.625  13.760  11.965
69996W        W36427  41.407  25.700   3.365
69997W        W36428   2.467  44.574  13.493
69998W        W36429  44.353  31.931   1.585
69999W        W36430  23.076  11.615  13.619
70000W        W36431   7.180   8.721  14.319
70001W        W36432  14.368  11.610   1.326
70002W        W36433  26.019  29.723   0.364
70003W        W36434   1.601  23.455   0.431
70004W        W36435  42.888  39.880   3.630
70005W        W36436  13.252  37.952   0.821
70006W        W36437  12.238  39.818   4.651
70007W        W36438  15.512  33.344  11.031
70008W        W36439   9.690  30.917  10.839
70009W        W36440  16.562  25.018   1.614
70010W        W36441   1.061  29.582  11.113
70011W        W36442  16.087  43.053  14.940
70012W        W36443  29.584  44.080  11.147
70013W        W36444  25.507  11.609  14.930
70014W        W36445  16.007   8.231   1.382
70015W        W36446  29.450  41.612  13.451
70016W        W36447   4.047   8.246   0.423
70017W        W36448  20.683   1.232  14.935
70018W        W36449  35.783  16.537  10.788
70019W        W36450  24.690  24.747  14.301
70020W        W36451  36.111  40.814   4.132
70021W        W36452  16.336   3.903   0.254
70022W        W36453  28.423   2.121   1.231
70023W        W36454  10.336  30.221  11.483
70024W        W36455   3.730  38.864   2.168
70025W        W36456  34.177  30.133   1.386
70026W        W36457  30.866   8.244  11.950
70027W        W36458   5.983  28.968  13.096
70028W        W36459   8.795  28.409   4.215
70029W        W36460  30.146  26.627  13.817
70030W        W36461   5.397  33.697  13.061
70031W        W36462  35.423  27.258  11.231
70032W        W36463  21.636  15.766  10.812
70033W        W36464  28.463  23.556  11.993
70034W        W36465  33.861   3.383   0.474
70035W        W36466  21.527  33.055   2.352
70036W        W36467  26.264   2.685  13.682
70037W        W36468  31.572  14.939   4.090
70038W        W36469  29.071  30.360   3.192
70039W        W36470  28.560  25.249   0.993
70040W        W36471  27.544  42.456   2.371
70041W        W36472  12.765  17.831   2.201
70042W        W36473   5.891  17.373  13.617
70043W        W36474  38.999  43.432   0.424
70044W        W36475   6.713  41.438  11.028
70045W        W36476  40.382  36.751  13.195
70046W        W36477  42.001  32.372  12.846
70047W        W36478  22.309   1.948   2.787
70048W        W36479  36.352  38.343   3.122
70049W        W36480  12.807   7.445   0.535
70050W        W36481   4.160   0.223  13.401
70051W        W36482  33.628  40.337  10.754
70052W        W36483  40.279  33.539   0.950
70053W        W36484  13.836  22.826   3.235
70054W        W36485   9.893   1.641  14.788
70055W        W36486   2.929   0.480  12.431
70056W        W36487  38.778   3.262   3.729
70057W        W36488  44.471  13.032   4.144
70058W        W36489  24.773  31.164  13.982
70059W        W36490  14.586  43.926   0.273
70060W        W36491  15.344  13.111   3.173
70061W        W36492  21.784  23.125   4.837
70062W        W36493  22.541  15.541   4.287
70063W        W36494   6.047  14.363   2.976
70064W        W36495   8.662  28.729   3.791
70065W        W36496  19.708  31.126   0.416
70066W        W36497  13.862  26.529  14.718
70067W        W36498  24.378  19.784  11.584
70068W        W36499   8.852  36.796  14.866
70069W        W36500  18.273  40.643  11.958
70070W        W36501  39.545  42.401   3.794
70071W        W36502  41.503   5.644   4.041
70072W        W36503  44.459  36.262   1.361
70073W        W36504   9.530   6.358  12.092
70074W        W36505  31.299   7.768   0.289
70075W        W36506  43.552  40.724   2.380
70076W        W36507  10.163  44.013  13.536
70077W        W36508  27.414  33.354   3.702
70078W        W36509  42.767  14.781   1.875
70079W        W36510  10.268  35.262  11.328
70080W        W36511  20.636  17.147  12.747
70081W        W36512  30.638  35.046   1.686
70082W        W36513   3.465  36.856   1.287
70083W        W36514  16.486  12.197   3.861
70084W        W36515  21.529   5.440   4.648
70085W        W36516  38.747  31.562   0.271
70086W        W36517  32.959  39.313  11.210
70087W        W36518  27.113   5.376  12.484
70088W        W36519  13.804  31.857   0.964
70089W        W36520   8.808  32.422   2.689
70090W        W36521  36.012  10.444  13.867
70091W        W36522  28.283  20.522   1.419
70092W        W36523   7.954   0.721   0.317
70093W        W36524  30.702  32.126  11.207
70094W        W36525   5.878  33.389   0.761
70095W        W36526   4.736  44.276   0.493
70096W        W36527   5.904  38.589   2.187
70097W        W36528  20.020  35.623  14.974
70098W        W36529  14.079   6.146   1.728
70099W        W36530  23.210  34.645   4.622
70100W        W36531  30.057  44.756  14.302
70101W        W36532  27.148  41.461   2.700
70102W        W36533  29.258  10.948  11.828
70103W        W36534  22.218   9.833  10.654
70104W        W36535  34.858  33.012   2.221
70105W        W36536  12.278  44.976  13.296
70106W        W36537  19.285  36.896  14.551
70107W        W36538  19.056  25.583  11.636
70108W        W36539  14.234  15.843  12.662
70109W        W36540   3.909  27.220   3.273
70110W        W36541  35.600  17.905   4.394
70111W        W36542  21.155  24.305   1.272
70112W        W36543  36.856  39.436   0.329
70113W        W36544  11.311  23.695  11.532
70114W        W36545   1.283   2.653   0.797
70115W        W36546  17.298  22.274  14.557
70116W        W36547  24.450   0.110  13.065
70117W        W36548  43.337  33.227   4.121
70118W        W36549  10.192  28.935  12.901
70119W        W36550  40.303  16.501   3.999
70120W        W36551   8.250   3.448  14.543
70121W        W36552  43.710  36.798   2.651
70122W        W36553  23.614   0.060  11.269
70123W        W36554  33.699  42.516   4.016
70124W        W36555   1.341  16.049   3.186
70125W        W36556   7.885  27.854  11.202
70126W        W36557   7.756   6.150  11.596
70127W        W36558   0.844  12.398  13.408
70128W        W36559  40.955  15.759   1.453
70129W        W36560  12.183  23.578  10.151
70130W        W36561  13.682  41.088   0.655
70131W        W36562  24.163  16.239   0.836
70132W        W36563  41.352  21.117   1.327
70133W        W36564   6.156  31.665   2.788
70134W        W36565  24.689  12.080  12.228
70135W        W36566   4.927   4.316   1.854
70136W        W36567  38.452  36.138  13.164
70137W        W36568  20.579  26.348   9.999
70138W        W36569   4.389   6.580  13.922
70139W        W36570  39.921  38.350   0.495
70140W        W36571   7.365  28.857  14.940
70141W        W36572  29.689   6.160   2.354
70142W        W36573  36.005  37.536  12.199
70143W        W36574  27.947  20.508  13.858
70144W        W36575  11.099  28.644  12.039
70145W        W36576   4.948  28.306   4.757
70146W        W36577  27.176  24.679  11.108
70147W        W36578  15.488  21.253  13.952
70148W        W36579   7.157  36.087   3.163
70149W        W36580  44.399  10.279  11.072
70150W        W36581  37.151  19.049   3.651
70151W        W36582  31.638  31.165  13.979
70152W        W36583  19.264  38.302   0.822
70153W        W36584  13.752  29.200   0.281
70154W        W36585  36.126  44.335   3.116
70155W        W36586   3.811   7.002   4.581
70156W        W36587  10.030  32.350  12.079
70157W        W36588  23.346  43.501   4.551
70158W        W36589  37.007  43.560  10.147
70159W        W36590  22.546  26.387   4.554
70160W        W36591  28.975   3.457  14.954
70161W        W36592  33.727  44.823  11.870
70162W        W36593  44.827  13.394  12.499
70163W        W36594  16.696  17.765  13.017
70164W        W36595  36.633  37.031  14.374
70165W        W36596  15.351   2.265   0.499
70166W        W36597   4.746  10.806   0.992
70167W        W36598  11.770  11.565   4.116
70168W        W36599  34.987  40.350   1.737
70169W        W36600   8.429  12.134  12.776
70170W        W36601  35.894  34.683   1.847
70171W        W36602  36.579  41.299   0.939
70172W        W36603  22.319  13.792   4.772
70173W        W36604   7.644  34.950  11.277
70174W        W36605  42.044  15.224   1.857
70175W        W36606  10.678  19.357   1.239
70176W        W36607   4.065  14.384  14.688
70177W        W36608  32.409  34.645  14.291
70178W        W36609  10.315  22.229  14.670
70179W        W36610  19.120   8.146  11.891
70180W        W36611   3.140  20.693   1.804
70181W        W36612  31.991  34.524   1.517
70182W        W36613  13.673  15.662   4.261
70183W        W36614  20.099  11.611  13.953
70184W        W36615  36.925  39.596   3.170
70185W        W36616  44.182  29.225  13.319
70186W        W36617   0.390  43.903  12.888
70187W        W36618  12.433  23.420   2.460
70188W        W36619   4.035  14.440   4.552
70189W        W36620  17.744   0.318   1.318
70190W        W36621   6.152   7.376   2.673
70191W        W36622  22.841  11.350   1.926
70192W        W36623  41.617  43.400  14.320
70193W        W36624   7.573   0.242  11.069
70194W        W36625   6.704  16.131  13.604
70195W        W36626   9.880  10.729  13.204
70196W        W36627  31.628  23.938  13.887
70197W        W36628  38.114  19.312   1.785
70198W        W36629  10.787  23.440  12.396
70199W        W36630  15.625  39.265   3.679
70200W        W36631  40.436  38.014  11.076
70201W        W36632  29.729  22.834  12.506
70202W        W36633  14.351   9.729  10.923
70203W        W36634  37.829  41.942  10.665
70204W        W36635  19.629  19.716   1.442
70205W        W36636  42.011  20.069   0.363
70206W        W36637  10.611  14.719  13.748
70207W        W36638  39.153  13.354   4.015
70208W        W36639  17.435  10.570  11.175
70209W        W36640   0.494  11.771  12.047
70210W        W36641  30.107   6.963   3.522
70211W        W36642   9.672  39.813  11.536
70212W        W36643  34.849  34.951   3.208
70213W        W36644  34.942  31.328   0.845
70214W        W36645   1.163  26.651  10.322
70215W        W36646  36.560   4.330  14.358
70216W        W36647  15.094   4.365   0.338
70217W        W36648   3.465  11.658   4.572
70218W        W36649   8.639  35.366  14.279
70219W        W36650  37.439  28.523  12.104
70220W        W36651  41.821  12.214  11.885
70221W        W36652  22.786   5.786   1.290
70222W        W36653  35.395  29.507   4.732
70223W        W36654  14.138  19.294  12.912
70224W        W36655  16.783  44.060   0.618
70225W        W36656   1.721  42.833  12.170
70226W        W36657  15.671   6.938  10.204
70227W        W36658   2.241   7.396   2.312
70228W        W36659  35.092  36.455   2.303
70229W        W36660  29.738  42.068  11.217
70230W        W36661  22.604  38.079  13.346
70231W        W36662  39.539  26.942   4.134
70232W        W36663  18.756   4.444   4.826
70233W        W36664  32.033  26.267  13.859
70234W        W36665  33.399  26.040   4.918
70235W        W36666   5.325  13.746   4.556
70236W        W36667  14.853   1.424   5.028
70237W        W36668  28.708  39.273   1.743
70238W        W36669  42.702  10.224   3.828
70239W        W36670   4.675  14.810  13.280
70240W        W36671  28.687   1.296   3.316
70241W        W36672  13.174  29.207  12.387
70242W        W36673  30.692   8.129   2.027
70243W        W36674  31.387  21.038   4.569
70244W        W36675  11.162  31.974  10.846
70245W        W36676  18.740  25.102   0.337
70246W        W36677  32.562  39.021   2.771
70247W        W36678  11.808  35.434  14.533
70248W        W36679  19.222  37.622  12.504
70249W        W36680  38.455   6.618  11.096
70250W        W36681  16.027   4.774  11.599
70251W        W36682  35.930  42.863   3.584
70252W        W36683  20.249  23.082   4.764
70253W        W36684   5.750  42.957   3.253
70254W        W36685   7.300  22.767   4.596
70255W        W36686   9.399  28.904  12.178
70256W        W36687   4.401  27.857  11.502
70257W        W36688  39.886  35.787   0.490
70258W        W36689  29.034  14.196  12.775
70259W        W36690  33.992  38.059  14.450
70260W        W36691  27.934   0.387  12.203
70261W        W36692  12.587  21.240  14.775
70262W        W36693  27.611   2.999   0.449
70263W        W36694  19.633  21.189   2.787
70264W        W36695  43.177  39.561   4.624
70265W        W36696  37.684  24.434   3.834
70266W        W36697  15.057   6.351   4.612
70267W        W36698  40.989  31.214  13.017
70268W        W36699  39.769  31.345   2.365
70269W        W36700  20.150  20.590  10.629
70270W        W36701  32.362  34.107  10.824
70271W        W36702  28.928   5.437  13.021
70272W        W36703  21.696  40.650  10.213
70273W        W36704   6.282  14.237   3.990
70274W        W36705  38.930  29.113   4.738
70275W        W36706  33.949  33.098  13.822
70276W        W36707   7.627  37.487   1.148
70277W        W36708  38.024  30.454  13.640
70278W        W36709  19.113  19.298  11.092
70279W        W36710  11.422  33.164   4.210
70280W        W36711  35.856  39.506   1.159
70281W        W36712  16.030  40.195   3.735
70282W        W36713  32.046  12.386   3.612
70283W        W36714   8.762  34.093  14.998
70284W        W36715  39.294   8.891  11.607
70285W        W36716   1.239  36.645   4.013
70286W        W36717   0.819   0.440   2.310
70287W        W36718  30.172   8.369   2.770
70288W        W36719  37.529  42.342   2.182
70289W        W36720  36.515  40.521  14.847
70290W        W36721  21.821  42.188   4.464
70291W        W36722   8.606  17.509   3.690
70292W        W36723  11.771  25.490   4.093
70293W        W36724  18.083  35.268   2.892
70294W        W36725  33.015   5.296   1.654
70295W        W36726  42.988  29.630  12.492
70296W        W36727  27.311  22.916  12.034
70297W        W36728  40.796  41.708  13.807
70298W        W36729  36.440  17.365  12.533
70299W        W36730  32.110  25.129   0.370
70300W        W36731  24.859   5.674  14.310
70301W        W36732  36.986  41.915   3.556
70302W        W36733   5.562   0.579  12.109
70303W        W36734  27.940  32.455   5.081
70304W        W36735  24.531  13.947  14.891
70305W        W36736   4.831  25.089  10.725
70306W        W36737  18.878   9.816  13.543
70307W        W36738  26.894  33.102  11.492
70308W        W36739  20.201   4.983  11.422
70309W        W36740  11.446  14.971   4.152
70310W        W36741  29.578  34.069   1.317
70311W        W36742   2.258  17.573  11.494
70312W        W36743  29.488   9.959   5.010
70313W        W36744  37.726  23.542   0.871
70314W        W36745  15.008  38.991  11.850
70315W        W36746  38.953  22.364   3.978
70316W        W36747   7.872   6.830  11.912
70317W        W36748  25.883  23.473   0.262
70318W        W36749  26.110   4.903   3.330
70319W        W36750  12.838  34.623  13.416
70320W        W36751  44.318  37.566  10.446
70321W        W36752   6.784  41.390  13.003
70322W        W36753  36.558  35.313  13.883
70323W        W36754  38.337   7.373  12.973
70324W        W36755  42.516  31.842  14.122
70325W        W36756  35.050  41.876  14.006
70326W        W36757  42.840  21.177   4.564
70327W        W36758  37.989  33.011  13.421
70328W        W36759  31.137  36.551  13.505
70329W        W36760  36.205   4.997  11.111
70330W        W36761  33.670  25.676   4.057
70331W        W36762   7.241  44.737   1.310
70332W        W36763   8.883  29.861  14.356
70333W        W36764  19.311  41.470   4.553
70334W        W36765  19.855  36.990   3.648
70335W        W36766  43.105  19.294  11.769
70336W        W36767  11.949   6.820  10.697
70337W        W36768  34.514  13.719   4.648
70338W        W36769   8.776   6.935  12.461
70339W        W36770  28.448  13.136  12.213
70340W        W36771  28.081  34.022   3.936
70341W        W36772  31.633  27.610  14.510
70342W        W36773  36.633   8.962  13.548
70343W        W36774  13.253   8.732   2.489
70344W        W36775  44.604  33.807  11.085
70345W        W36776  37.216  34.838  13.928
70346W        W36777   3.711   9.354  13.759
70347W        W36778  31.080  32.309   2.290
70348W        W36779  41.847  24.588  14.666
70349W        W36780  32.931  25.527  11.812
70350W        W36781  37.109  15.790  13.781
70351W        W36782  30.787  41.994   1.619
70352W        W36783   9.934  24.694  14.324
70353W        W36784  17.593  41.039  14.870
70354W        W36785  10.754   5.853   1.413
70355W        W36786  21.899  31.591  10.460
70356W        W36787   6.587  43.601   2.215
70357W        W36788  37.989  23.780   2.664
70358W        W36789  41.756  38.130   0.092
70359W        W36790  43.029  42.771  13.447
70360W        W36791  36.059  26.933  11.722
70361W        W36792  19.910  34.312   3.256
70362W        W36793  38.829  31.011   0.870
70363W        W36794  35.985   9.185   2.548
70364W        W36795  27.015  39.862  11.292
70365W        W36796  18.293  32.967   4.377
70366W        W36797  30.321   1.949  12.539
70367W        W36798  26.880  26.673  11.146
70368W        W36799  43.854  15.556  12.439
70369W        W36800  28.989   8.958   0.748
70370W        W36801  30.079   2.789  11.942
70371W        W36802   5.871  14.295   0.778
70372W        W36803   8.507  15.448   3.646
70373W        W36804  12.395  17.285   4.559
70374W        W36805  38.495  13.183  13.531
70375W        W36806   0.042  15.477   0.871
70376W        W36807  34.427  28.689   2.873
70377W        W36808  30.433   5.207  13.846
70378W        W36809  14.779   6.977   1.153
70379W        W36810  24.828  42.403   4.771
70380W        W36811  33.904  16.113  13.392
70381W        W36812  29.059  24.918  14.857
70382W        W36813  30.858  36.608  11.640
70383W        W36814  32.375  31.536   3.250
70384W        W36815   2.833  40.442   0.532
70385W        W36816  19.795  34.661   2.574
70386W        W36817  13.180  40.364  12.607
70387W        W36818  43.770  30.659  13.947
70388W        W36819  32.668  31.048   2.133
70389W        W36820  40.586  28.454  13.310
70390W        W36821   2.268  31.128  11.003
70391W        W36822  28.261  26.490   0.731
70392W        W36823  14.290  33.998   0.452
70393W        W36824  35.435  22.653   3.045
70394W        W36825  36.426   3.836   4.673
70395W        W36826  37.070  40.436  14.802
70396W        W36827  21.727  30.196  13.421
70397W        W36828  37.133  27.117  13.011
70398W        W36829   0.946  21.673  10.667
70399W        W36830   7.193  18.065   0.201
70400W        W36831  16.451  25.439   9.834
70401W        W36832  25.762  27.742   2.281
70402W        W36833  26.160   8.530   4.162
70403W        W36834  15.699  27.677  13.448
70404W        W36835   7.496  18.192  14.768
70405W        W36836  14.843  21.805  14.516
70406W        W36837  33.150  22.192   1.708
70407W        W36838  18.958  10.045   0.267
70408W        W36839  32.053  39.961  12.037
70409W        W36840   8.569  17.141  12.353
70410W        W36841  31.779  33.935   3.381
70411W        W36842  42.105  19.053   0.942
70412W        W36843   9.888  12.675   4.202
70413W        W36844  42.074  27.799   3.162
70414W        W36845   7.728  39.391  11.597
70415W        W36846  42.813  28.760   4.092
70416W        W36847  18.646  26.856   4.031
70417W        W36848  21.632  18.354  13.785
70418W        W36849   9.899  38.017  10.878
70419W        W36850  31.457  35.093   2.238
70420W        W36851  12.146  44.720   1.314
70421W        W36852  37.377  32.006  11.708
70422W        W36853  30.114  34.619   0.901
70423W        W36854  40.049  29.920   0.198
70424W        W36855  13.413  31.796   5.032
70425W        W36856  25.035  38.023  10.459
70426W        W36857  43.789   1.425   1.636
70427W        W36858  12.349  10.144  12.423
70428W        W36859   8.552  22.245   4.068
70429W        W36860  20.152  40.986  13.006
70430W        W36861  39.723   9.767   3.296
70431W        W36862  35.437  39.165  12.287
70432W        W36863  14.839  17.063  13.616
70433W        W36864  33.423   8.167  13.116
70434W        W36865  36.874   7.492  11.072
70435W        W36866  26.209  38.537  10.724
70436W        W36867  40.470  31.097  11.141
70437W        W36868  15.282  28.008  13.293
70438W        W36869  33.361   1.990  14.830
70439W        W36870   0.115  11.066  12.181
70440W        W36871  26.299  27.898   2.273
70441W        W36872  23.670   7.814   0.475
70442W        W36873   8.443   9.194  12.037
70443W        W36874  20.968   2.790   0.679
70444W        W36875  24.656  23.936  13.840
70445W        W36876  33.577  19.458   1.861
70446W        W36877  10.825   2.004   3.085
70447W        W36878  32.646   5.292   4.667
70448W        W36879  25.041  11.186   0.467
70449W        W36880  26.690  14.211  14.922
70450W        W36881  31.031  15.085   1.485
70451W        W36882  37.070  34.173   4.815
70452W        W36883  43.610  39.301   4.502
70453W        W36884  40.677  25.535  11.327
70454W        W36885  37.494  42.347  10.253
70455W        W36886   6.431  18.840   1.434
70456W        W36887  32.616  17.133  11.146
70457W        W36888   4.183  16.729   2.003
70458W        W36889  27.823  40.973  14.933
70459W        W36890  17.139   6.918  12.125
70460W        W36891  26.600  18.426  11.234
70461W        W36892  11.908  24.576   1.257
70462W        W36893  32.796  26.995  14.751
70463W        W36894  35.603  27.608  14.318
70464W        W36895  42.060  11.371  11.861
70465W        W36896  12.120  30.136  14.478
70466W        W36897  41.948  10.798   2.875
70467W        W36898  17.639  14.027   4.193
70468W        W36899  30.921  11.308  14.345
70469W        W36900  30.363  42.504  13.037
70470W        W36901   1.950  41.603   1.676
70471W        W36902  25.497  24.730  10.776
70472W        W36903  22.966  18.856  13.755
70473W        W36904  26.478  36.267   0.326
70474W        W36905  13.148  43.506   1.233
70475W        W36906   5.252  15.208  13.929
70476W        W36907  33.550  15.358   9.933
70477W        W36908   2.740   5.929   2.728
70478W        W36909  38.138   8.360   1.130
70479W        W36910  12.825  27.178   2.244
70480W        W36911  43.001  11.649  12.857
70481W        W36912  29.502  23.960  14.879
70482W        W36913  36.635   6.543  10.245
70483W        W36914  17.337  31.861  13.154
70484W        W36915  28.773  39.051  11.326
70485W        W36916  32.822  25.190   1.731
70486W        W36917  29.709  14.012   2.542
70487W        W36918  11.367   3.722   1.724
70488W        W36919  10.922  30.926  12.221
70489W        W36920  44.023  13.632   4.121
70490W        W36921  27.903  14.908  12.055
70491W        W36922   9.748   9.099  14.035
70492W        W36923  26.915  31.147   4.254
70493W        W36924  42.938   4.813   3.732
70494W        W36925  19.646  25.094   1.627
70495W        W36926   9.917  17.339  12.099
70496W        W36927  31.524  25.625  12.387
70497W        W36928  40.345  43.452   1.737
70498W        W36929  38.264  18.771   3.194
70499W        W36930   6.184   6.815  11.940
70500W        W36931  28.691  31.648   2.828
70501W        W36932  29.647  10.621   3.252
70502W        W36933   3.218  38.985   2.766
70503W        W36934  36.352  23.500  12.598
70504W        W36935   5.381   7.410  13.379
70505W        W36936  30.211  42.825   1.309
70506W        W36937  40.573  40.987  14.723
70507W        W36938  30.020  43.176   0.961
70508W        W36939  25.665  22.307   1.993
70509W        W36940  38.341  39.577   0.901
70510W        W36941  15.269  14.885   0.217
70511W        W36942  15.236  17.783  11.966
70512W        W36943  24.782  32.010   2.491
70513W        W36944  25.230  44.970   4.626
70514W        W36945  31.041  37.123   0.304
70515W        W36946   6.804  44.479   1.282
70516W        W36947  15.522   2.265  10.481
70517W        W36948   0.802  11.874   1.513
70518W        W36949  20.136  28.342   2.034
70519W        W36950  25.572   7.853  14.445
70520W        W36951   4.827   5.565   1.645
70521W        W36952   2.484  20.586   0.768
70522W        W36953  26.951  32.609   1.981
70523W        W36954  34.456   9.406  10.644
70524W        W36955  29.255  22.415  10.785
70525W        W36956  29.407  11.341   4.733
70526W        W36957  28.218   1.442   4.597
70527W        W36958  38.972   8.824  13.336
70528W        W36959  15.169  14.677   2.151
70529W        W36960  12.209  32.121   3.384
70530W        W36961  20.693   2.169   0.134
70531W        W36962   5.399  10.927   0.792
70532W        W36963  26.687   8.873  12.020
70533W        W36964  40.510  34.610  12.483
70534W        W36965  40.009  43.858   1.203
70535W        W36966  44.369  27.417  10.957
70536W        W36967   6.426  25.535  13.281
70537W        W36968  44.087  26.154  11.434
70538W        W36969  32.322  38.240  14.862
70539W        W36970  39.849  28.127  12.164
70540W        W36971  34.054  43.501  14.955
70541W        W36972  39.342  28.122  11.487
70542W        W36973   2.537  23.007  12.394
70543W        W36974   3.960  25.617  12.557
70544W        W36975  39.961  41.901  10.857
70545W        W36976  17.923   4.778  11.175
70546W        W36977  16.846  36.369   2.315
70547W        W36978   3.458  17.080  14.973
70548W        W36979  37.354  34.463  10.293
70549W        W36980   8.187  30.630  13.435
70550W        W36981   5.114  42.231  13.483
70551W        W36982   2.305  35.851   4.287
70552W        W36983  15.414  12.469   4.552
70553W        W36984  15.764   9.213  12.329
70554W        W36985  10.927   3.724   3.192
70555W        W36986   2.016  41.892   1.246
70556W        W36987   6.261  42.460   2.446
70557W        W36988  29.479   4.798  12.177
70558W        W36989  17.550   1.653   2.172
70559W        W36990  26.181  41.301  14.252
70560W        W36991  14.712  20.865   3.044
70561W        W36992  22.067   2.585  12.005
70562W        W36993  34.022  21.239   0.857
70563W        W36994  15.477  17.393   3.923
70564W        W36995  33.413   8.921   4.135
70565W        W36996  43.473   2.669   4.160
70566W        W36997   7.851  21.270  14.964
70567W        W36998  41.855  33.834  12.402
70568W        W36999   8.948  41.370  12.463
70569W        W37000  34.073  36.310  12.552
70570W        W37001   6.327  21.492   2.106
70571W        W37002  19.573  36.189  12.984
70572W        W37003   0.035  10.171  12.082
70573W        W37004  17.523  41.953   4.157
70574W        W37005  13.639   2.387   2.803
70575W        W37006  14.615  14.528   0.416
70576W        W37007  11.598  44.332   1.611
70577W        W37008  26.124   5.708   2.946
70578W        W37009  39.318  36.520   0.775
70579W        W37010  41.830  12.253   1.851
70580W        W37011   5.492   7.490   3.799
70581W        W37012  10.447  12.257  13.013
70582W        W37013   1.413   5.432   4.749
70583W        W37014  39.311  11.908   1.881
70584W        W37015  37.315  21.066  11.077
70585W        W37016  21.498  23.980   1.041
70586W        W37017  27.025  22.585  12.841
70587W        W37018  14.767   7.970   0.093
70588W        W37019   5.678   1.928  13.997
70589W        W37020  39.922  43.088  14.485
70590W        W37021  37.883   4.198  12.953
70591W        W37022  19.493  27.913  10.679
70592W        W37023   2.250  20.028  13.542
70593W        W37024  18.690  28.252   3.102
70594W        W37025  19.245  34.141  12.888
70595W        W37026  43.423   7.746   3.160
70596W        W37027  12.191  25.111  10.678
70597W        W37028  33.099  26.695  13.982
70598W        W37029  25.589  41.911   1.752
70599W        W37030   8.916   2.025  11.066
70600W        W37031  36.298  40.447   1.177
70601W        W37032  11.036  37.030  13.732
70602W        W37033   3.388  30.702  14.831
70603W        W37034  27.207  13.138   3.924
70604W        W37035  31.022  18.066   1.065
70605W        W37036  21.301  37.930   3.208
70606W        W37037  21.676  12.625   1.904
70607W        W37038  41.931  27.534  12.982
70608W        W37039  41.825   6.315  11.394
70609W        W37040   1.691  21.756   2.315
70610W        W37041  11.092  24.995   1.175
70611W        W37042  38.948   0.045   2.331
70612W        W37043  10.357   7.758  10.680
70613W        W37044  28.158  20.877  12.983
70614W        W37045  31.544  17.783   4.066
70615W        W37046  34.103  44.495   1.177
70616W        W37047  35.177  31.312   1.315
70617W        W37048  36.530  16.177   1.777
70618W        W37049  25.442   3.859   4.631
70619W        W37050   8.620   0.478  11.043
70620W        W37051  32.103   7.939  10.703
70621W        W37052  20.337  11.633  12.261
70622W        W37053   3.183  11.925   0.246
70623W        W37054  28.380   0.042  11.219
70624W        W37055  31.691  31.295  14.509
70625W        W37056  24.082  37.773  10.933
70626W        W37057  14.739   7.674   0.522
70627W        W37058  14.244  26.098   4.079
70628W        W37059  33.110  39.701  11.614
70629W        W37060  28.411   1.737   0.873
70630W        W37061  35.921  36.077   0.041
70631W        W37062   8.962   5.921  11.181
70632W        W37063  27.484   1.436   1.815
70633W        W37064  39.614   3.764  14.784
70634W        W37065   2.251  13.918   0.452
70635W        W37066  32.864  29.533   1.974
70636W        W37067  42.005  19.560  10.942
70637W        W37068  22.614  17.996   1.569
70638W        W37069  30.889  38.078  12.464
70639W        W37070  14.368  27.066   0.423
70640W        W37071   8.717   6.319  14.188
70641W        W37072  33.907  38.228  11.970
70642W        W37073  30.498  37.785  14.728
70643W        W37074  14.493  23.707   4.107
70644W        W37075  42.543  26.230  11.685
70645W        W37076   6.201   2.209   1.441
70646W        W37077  26.681   3.719   3.671
70647W        W37078  15.864  18.583   1.906
70648W        W37079  43.189  21.482   3.250
70649W        W37080   1.756   0.310   4.733
70650W        W37081  12.766   4.187   3.431
70651W        W37082   1.501   7.869   3.618
70652W        W37083  35.038  13.763  10.759
70653W        W37084  31.298  13.611   4.941
70654W        W37085   3.295  37.123  12.466
70655W        W37086  26.296  11.713  14.500
70656W        W37087  25.628  33.914  12.952
70657W        W37088  44.903  12.657   4.632
70658W        W37089  32.384  23.560   1.902
70659W        W37090  25.280  28.826   4.991
70660W        W37091  24.134  35.033  12.773
70661W        W37092  27.441   4.459   3.759
70662W        W37093  18.029  16.853  10.606
70663W        W37094  16.609   1.174  13.362
70664W        W37095  17.289  16.769   2.467
70665W        W37096  42.287  33.334  13.790
70666W        W37097  39.526  12.318   1.423
70667W        W37098   0.039  18.787   1.339
70668W        W37099  35.025   1.473   2.712
70669W        W37100  13.521  27.117   3.201
70670W        W37101   5.725  39.503  12.917
70671W        W37102  12.854  36.750  14.780
70672W        W37103   5.737  30.865  11.688
70673W        W37104  16.303   8.614   0.405
70674W        W37105  36.374  35.804  13.377
70675W        W37106  40.947   7.253   3.529
70676W        W37107  43.884  27.231  14.571
70677W        W37108  42.576   6.991  13.846
70678W        W37109   8.400  15.325   4.776
70679W        W37110  32.204  29.936  12.251
70680W        W37111  41.273  24.783  12.475
70681W        W37112   4.814  10.358  14.202
70682W        W37113  43.509  34.042   2.507
70683W        W37114  43.721  43.950   0.006
70684W        W37115  35.823   7.800   3.976
70685W        W37116  23.989  33.200  10.414
70686W        W37117  18.694  28.182   1.697
70687W        W37118   8.290   5.228   4.675
70688W        W37119  43.829  24.945   4.821
70689W        W37120  24.436   9.535   4.105
70690W        W37121  25.979  16.562   1.190
70691W        W37122  34.481  11.903  11.605
70692W        W37123  40.418  35.218  10.311
70693W        W37124  17.700   5.441  13.404
70694W        W37125  39.502   2.731  13.387
70695W        W37126   8.573   0.748   3.680
70696W        W37127  24.179  18.679  11.146
70697W        W37128  25.669  39.201  12.191
70698W        W37129  15.542  39.996  13.898
70699W        W37130  28.406  23.632  14.529
70700W        W37131  39.391  14.747  10.405
70701W        W37132  26.670  23.135   4.876
70702W        W37133  37.474  37.573  12.588
70703W        W37134  37.520  15.070   4.129
70704W        W37135  30.021  33.215  10.293
70705W        W37136  33.935   5.996   4.142
70706W        W37137   9.389  20.473   1.711
70707W        W37138  26.620  29.481   2.314
70708W        W37139  16.352  35.373  13.549
70709W        W37140   8.129  20.178  10.375
70710W        W37141  16.359   7.502  10.896
70711W        W37142   7.730  27.461   0.822
70712W        W37143  31.065  26.440   0.204
70713W        W37144   9.805  32.576   2.690
70714W        W37145  36.033  18.316   1.440
70715W        W37146   8.611  43.406   0.817
70716W        W37147   0.417  43.893   1.932
70717W        W37148  28.233  34.802   0.877
70718W        W37149  24.652  29.716   1.393
70719W        W37150  23.960  30.897  14.992
70720W        W37151  16.791  10.259   1.263
70721W        W37152  29.771  19.088   5.064
70722W        W37153   0.423  29.391  10.686
70723W        W37154   6.851  42.542  14.785
70724W        W37155   0.272  14.216  10.747
70725W        W37156   3.805  37.318   0.429
70726W        W37157  36.005  37.768   4.926
70727W        W37158  15.575   6.669  13.110
70728W        W37159  18.869  23.346  12.619
70729W        W37160  15.677  15.765  12.284
70730W        W37161  25.533  26.667   3.372
70731W        W37162   8.553  32.685  12.033
70732W        W37163  37.674  19.721  10.460
70733W        W37164   8.422  14.144   0.817
70734W        W37165  12.290  38.823  10.750
70735W        W37166  11.925  36.624   0.381
70736W        W37167  21.968  30.120   2.321
70737W        W37168  18.479  17.249  14.347
70738W        W37169  29.585  22.341  11.182
70739W        W37170  44.221  25.075   1.828
70740W        W37171   1.124  12.851  12.121
70741W        W37172  32.346  31.033   1.399
70742W        W37173  27.669   5.166   9.708
70743W        W37174  16.609  43.221   1.794
70744W        W37175  40.397   3.533   0.233
70745W        W37176  32.484  32.239  10.685
70746W        W37177  20.241   8.253  11.907
70747W        W37178  36.618   8.112   2.330
70748W        W37179   1.692   1.582   2.725
70749W        W37180   2.074  44.961  14.421
70750W        W37181  13.860  22.553  11.658
70751W        W37182  11.790  24.166  10.782
70752W        W37183   5.177  25.423   2.335
70753W        W37184  18.373  24.191   4.618
70754W        W37185   2.401   2.773  10.642
70755W        W37186   7.401  34.149  11.701
70756W        W37187  22.059   8.363  14.131
70757W        W37188  24.229  33.133  12.951
70758W        W37189  36.686  34.522  13.477
70759W        W37190  35.015  40.783  11.248
70760W        W37191  17.687   2.887  13.003
70761W        W37192  22.169  31.427  11.480
70762W        W37193  14.534  14.746  14.096
70763W        W37194  26.570  18.855  14.853
70764W        W37195  19.108   4.831   3.171
70765W        W37196  26.679   4.836  12.353
70766W        W37197  10.727  35.545  14.485
70767W        W37198  36.933  15.659   0.900
70768W        W37199  20.018  16.796  13.888
70769W        W37200  20.317  20.829   0.377
70770W        W37201  17.595  19.737  13.671
70771W        W37202  30.840  13.825  12.581
70772W        W37203  31.856  29.151   1.193
70773W        W37204   9.450  16.653  13.417
70774W        W37205  22.297  44.853  11.084
70775W        W37206  38.884  37.037  11.169
70776W        W37207   5.635  15.061  11.856
70777W        W37208   9.430  10.873   0.926
70778W        W37209  43.963  37.793  10.783
70779W        W37210   4.874  22.480  12.436
70780W        W37211  35.093  25.274  14.404
70781W        W37212   8.628   7.982  10.750
70782W        W37213  38.567  42.740   2.009
70783W        W37214  34.625  18.679   1.995
70784W        W37215  19.608   5.735   0.892
70785W        W37216   7.709  39.539  14.442
70786W        W37217   5.665  25.516   0.414
70787W        W37218  12.057  13.648  12.377
70788W        W37219  23.126  25.547  10.807
70789W        W37220  10.281   0.678  12.871
70790W        W37221  33.922  17.371   0.877
70791W        W37222  17.274  18.622   4.535
70792W        W37223  27.332  35.018   2.131
70793W        W37224  23.711  23.932  11.643
70794W        W37225  34.914  32.506  14.527
70795W        W37226   5.644   9.822  11.188
70796W        W37227  26.050  30.554   0.338
70797W        W37228  10.350   2.701   2.695
70798W        W37229   8.370  27.205   2.134
70799W        W37230  25.138  39.995   9.827
70800W        W37231   4.592  28.021   1.352
70801W        W37232  36.537  25.830  10.712
70802W        W37233  35.914  15.155   1.586
70803W        W37234   4.702  31.969   1.169
70804W        W37235   9.985  44.768  13.071
70805W        W37236  42.497  30.055   2.891
70806W        W37237  11.410  14.838   0.058
70807W        W37238  36.140   7.920   2.012
70808W        W37239  33.075  14.299   2.194
70809W        W37240  28.548   1.512   0.243
70810W        W37241  13.302  42.584  14.178
70811W        W37242  30.176  15.819   4.448
70812W        W37243  28.727  11.849  12.527
70813W        W37244  13.217  12.388   3.198
70814W        W37245  18.280  40.268  12.931
70815W        W37246   3.182  41.440  13.546
70816W        W37247  27.635  27.353   1.265
70817W        W37248   1.959   4.920  11.966
70818W        W37249  22.898  28.036   1.406
70819W        W37250   3.934  11.755  12.474
70820W        W37251  35.071   5.886  10.639
70821W        W37252  26.191  41.274  12.017
70822W        W37253  29.003   4.627   0.535
70823W        W37254  16.586  24.465  14.309
70824W        W37255   2.187  16.798   2.857
70825W        W37256  17.879  37.729   2.283
70826W        W37257   3.187  44.327  11.999
70827W        W37258  22.953   7.684  12.908
70828W        W37259  29.677  34.374  14.891
70829W        W37260   3.757  43.481  12.935
70830W        W37261  22.247  35.827  12.991
70831W        W37262  30.010  17.286   1.262
70832W        W37263  39.293  14.182   1.092
70833W        W37264  37.024  31.311  12.721
70834W        W37265  36.281   4.230   2.710
70835W        W37266  21.573  26.543  12.346
70836W        W37267   6.336  24.976   2.613
70837W        W37268   5.866  24.512   3.748
70838W        W37269  21.821   7.297   4.897
70839W        W37270  42.457  40.275  11.535
70840W        W37271   3.498  12.244  13.092
70841W        W37272  10.226  34.434  14.402
70842W        W37273  22.558  34.311   3.614
70843W        W37274  23.851  40.057   4.176
70844W        W37275  35.093   4.284  14.496
70845W        W37276  26.741   2.538   4.056
70846W        W37277  10.529  34.951   5.062
70847W        W37278  27.548  35.318  14.919
70848W        W37279  19.475  36.204   1.841
70849W        W37280  34.611  28.430  10.752
70850W        W37281  15.188  22.679  10.648
70851W        W37282  33.116  40.728  13.567
70852W        W37283  20.966  25.541   3.363
70853W        W37284  41.253   5.266  11.178
70854W        W37285  21.299   7.363   4.744
70855W        W37286  40.697  14.684  13.827
70856W        W37287  41.943  15.379   2.734
70857W        W37288  22.159  32.701   1.916
70858W        W37289  39.119  30.955  12.471
70859W        W37290  11.092  34.108   3.280
70860W        W37291  13.405   3.680  14.453
70861W        W37292  17.089  21.181   3.785
70862W        W37293  34.930   6.848  13.313
70863W        W37294  41.437  14.213   1.869
70864W        W37295  41.762  29.945   3.610
70865W        W37296  44.301  15.219  11.109
70866W        W37297  17.121  16.227   3.264
70867W        W37298  26.797   0.431   1.508
70868W        W37299   5.250   0.498  13.949
70869W        W37300   6.627  15.880  14.845
70870W        W37301  13.836  33.467   4.160
70871W        W37302  17.284   3.976  13.560
70872W        W37303  40.656  35.247   3.685
70873W        W37304  23.693   7.521   3.705
70874W        W37305   1.862   4.069  14.125
70875W        W37306  13.391   7.893  13.947
70876W        W37307   6.161  43.987  11.929
70877W        W37308  32.366  22.310   1.082
70878W        W37309   9.274  21.061  13.550
70879W        W37310  30.124  40.108  12.569
70880W        W37311  42.799   1.409   2.606
70881W        W37312   4.751  26.068  10.786
70882W        W37313  38.092  20.650  12.065
70883W        W37314   1.811  30.075  14.871
70884W        W37315  26.718   0.651  11.443
70885W        W37316  44.603  43.012   2.236
70886W        W37317   0.394  15.224   2.247
70887W        W37318  13.766  30.970   2.205
70888W        W37319  12.849  26.495  13.101
70889W        W37320  32.725   0.794   9.755
70890W        W37321  34.027  36.385   4.713
70891W        W37322  39.128  13.209  10.779
70892W        W37323  13.983   8.925  13.450
70893W        W37324  14.084  12.016   3.639
70894W        W37325  10.826  11.306  12.087
70895W        W37326  31.052  17.558  12.142
70896W        W37327  14.019  22.186  11.349
70897W        W37328  39.783  40.521   0.757
70898W        W37329  14.982  16.437  13.026
70899W        W37330  17.505  38.294   1.365
70900W        W37331  21.483  33.561  13.257
70901W        W37332  24.979  39.175  14.513
70902W        W37333   1.727  17.829   4.330
70903W        W37334  23.126  25.689   3.113
70904W        W37335  11.372  18.810   0.903
70905W        W37336  36.467   5.160  12.404
70906W        W37337  43.899  33.214  10.755
70907W        W37338   2.339  38.309   4.512
70908W        W37339  16.187   1.423   3.700
70909W        W37340   9.708  20.294  13.290
70910W        W37341  29.605  40.923  14.581
70911W        W37342  27.173  12.666   3.707
70912W        W37343  12.632  26.755   1.377
70913W        W37344   3.853  38.542  12.996
70914W        W37345  24.480  28.400   4.523
70915W        W37346   6.251   0.533   4.587
70916W        W37347   0.529  11.148   2.212
70917W        W37348  30.030  24.010   4.482
70918W        W37349  29.606   5.904   0.303
70919W        W37350  28.554  30.024   3.637
70920W        W37351  44.911  42.487  12.467
70921W        W37352  37.846  27.116   1.886
70922W        W37353  29.992   9.151   3.208
70923W        W37354  29.857  17.098  12.501
70924W        W37355  36.857  16.744   2.658
70925W        W37356   6.913  29.027  11.420
70926W        W37357  36.199  11.432  14.055
70927W        W37358  27.875  33.509   3.858
70928W        W37359  11.046   6.983  11.966
70929W        W37360  24.646  32.018  14.427
70930W        W37361  34.381  11.946  12.336
70931W        W37362  39.264  33.791   1.869
70932W        W37363  22.118  28.660   3.253
70933W        W37364  25.037  27.965   0.837
70934W        W37365  22.776  38.534  11.633
70935W        W37366  28.112  12.693   4.722
70936W        W37367   7.758   7.382  12.961
70937W        W37368  20.732  30.457   2.329
70938W        W37369   4.839  10.204  12.081
70939W        W37370   8.628   0.462   4.369
70940W        W37371   0.251   3.777   1.246
70941W        W37372  37.957  41.047  14.289
70942W        W37373  14.897   6.207   3.809
70943W        W37374  43.898   1.015  11.166
70944W        W37375  40.813  37.546   2.347
70945W        W37376  27.484  10.166   4.952
70946W        W37377  40.648  40.266   9.964
70947W        W37378  35.000  35.878   0.519
70948W        W37379  10.551  23.824   3.631
70949W        W37380   5.349  41.270  10.650
70950W        W37381   3.772  39.925  14.549
70951W        W37382  40.451  35.962  14.378
70952W        W37383   3.863  22.276   0.679
70953W        W37384  13.409  32.552   3.207
70954W        W37385  11.626  15.954  12.204
70955W        W37386   3.763  32.443   4.567
70956W        W37387  16.238  15.050   3.911
70957W        W37388  31.090  36.839  11.223
70958W        W37389  33.680  20.680   3.647
70959W        W37390  13.350  14.268  14.201
70960W        W37391  15.085  40.145   0.888
70961W        W37392  24.726  25.236  11.642
70962W        W37393  42.967  39.476   2.308
70963W        W37394  33.429  14.175  14.908
70964W        W37395   0.918  34.349  13.685
70965W        W37396  31.926  44.970   3.787
70966W        W37397  27.524  36.847  11.487
70967W        W37398  32.055  38.813  11.478
70968W        W37399  21.198  26.970  12.726
70969W        W37400  16.910  42.664   2.489
70970W        W37401   2.006  33.927   2.617
70971W        W37402  44.568  44.328   4.712
70972W        W37403  13.611  25.768  12.857
70973W        W37404  39.879  42.045   1.432
70974W        W37405  24.794  25.731  14.873
70975W        W37406   7.964  16.763  12.441
70976W        W37407   7.322  29.470  10.667
70977W        W37408  17.306  14.249   1.261
70978W        W37409  40.730  22.125   1.727
70979W        W37410  25.659  38.718  11.423
70980W        W37411  12.187  25.671   3.235
70981W        W37412  25.275  15.236  10.436
70982W        W37413  24.158  44.283   0.376
70983W        W37414  11.620   8.973  13.491
70984W        W37415  36.339   4.520   4.158
70985W        W37416  10.707  44.361   1.768
70986W        W37417  17.238  25.225   1.198
70987W        W37418  35.067  16.065   3.644
70988W        W37419   3.403  20.669   0.931
70989W        W37420  19.718  38.612  10.341
70990W        W37421  43.545  43.970   2.763
70991W        W37422  29.572  34.016   2.746
70992W        W37423   8.216  29.554  12.889
70993W        W37424  18.017  28.546   3.755
70994W        W37425  21.545   5.377  11.630
70995W        W37426  32.760   6.798   1.150
70996W        W37427  23.194  40.476   4.203
70997W        W37428  33.545  40.925   1.606
70998W        W37429   7.604   1.300   4.310
70999W        W37430  25.137  43.499  12.603
71000W        W37431   3.320  36.906  11.533
71001W        W37432  21.088  13.698   2.645
71002W        W37433  28.917  11.219   4.695
71003W        W37434  13.291  32.829   0.866
71004W        W37435  12.506  16.597  13.431
71005W        W37436  44.703   0.236  14.884
71006W        W37437  35.905  40.881  12.896
71007W        W37438  25.093   0.475   0.769
71008W        W37439  10.700  38.326  10.799
71009W        W37440   5.347  12.912   4.690
71010W        W37441  44.523  25.192  10.718
71011W        W37442   5.306  30.949  10.755
71012W        W37443  34.052   7.201   2.405
71013W        W37444  30.865  34.490   2.180
71014W        W37445   6.743  25.238  13.539
71015W        W37446  29.964  30.001  13.396
71016W        W37447  30.623   9.279   1.645
71017W        W37448   0.203  22.289   3.512
71018W        W37449  37.430  26.630   0.966
71019W        W37450  22.956   5.257  14.844
71020W        W37451  30.454  27.750  14.373
71021W        W37452  27.975  16.270  11.146
71022W        W37453  33.084  10.654  11.304
71023W        W37454  30.506  36.586   2.754
71024W        W37455   9.593  42.807  11.088
71025W        W37456  35.354  11.484  10.648
71026W        W37457   6.198  22.719  13.590
71027W        W37458   1.714  27.968   2.357
71028W        W37459  15.871  38.989  11.518
71029W        W37460  11.860  12.065   4.129
71030W        W37461  19.581  38.976   2.880
71031W        W37462   0.856  39.479  14.013
71032W        W37463   2.462  42.047  14.831
71033W        W37464   2.361   7.246  14.099
71034W        W37465  42.996   3.326  13.101
71035W        W37466   3.229   3.970   2.830
71036W        W37467  13.856  21.933  10.341
71037W        W37468  17.127  32.685   1.670
71038W        W37469  16.166  20.876  10.723
71039W        W37470  32.915   6.285  11.988
71040W        W37471  29.691  38.942  12.621
71041W        W37472  27.212  28.276  11.104
71042W        W37473  31.450  40.921  10.799
71043W        W37474   8.798  30.714  14.753
71044W        W37475  44.270   3.777  14.486
71045W        W37476  32.401  24.150   1.263
71046W        W37477  25.798  12.688   1.603
71047W        W37478  21.433  32.903   1.090
71048W        W37479  29.527  15.522  10.670
71049W        W37480  16.857  24.773  10.441
71050W        W37481  16.727  28.088  11.252
71051W        W37482  29.077  39.651   1.792
71052W        W37483  42.528  35.019  14.704
71053W        W37484  10.126  17.834  11.226
71054W        W37485  18.944  20.761  10.858
71055W        W37486  11.818   7.646  13.593
71056W        W37487  24.212   9.957   1.408
71057W        W37488  20.898  27.990  12.753
71058W        W37489  27.964  18.668   2.293
71059W        W37490  25.263  36.609  12.456
71060W        W37491   6.427  38.622   2.782
71061W        W37492  23.802  26.773   9.956
71062W        W37493  11.947   5.943  10.277
71063W        W37494  22.992  22.549   1.886
71064W        W37495  33.947  12.120  12.541
71065W        W37496  42.412  39.160   3.748
71066W        W37497  12.363  38.304   2.737
71067W        W37498  38.031   0.311   1.993
71068W        W37499  26.563  23.245   0.986
71069W        W37500  37.917   1.934  13.928
71070W        W37501  31.566  32.950   3.157
71071W        W37502   1.160  37.518  11.154
71072W        W37503  38.025   3.998   1.217
71073W        W37504  23.750  22.639  12.925
71074W        W37505   3.692  30.733   3.258
71075W        W37506  24.217  16.260   4.537
71076W        W37507  12.089  44.938  10.956
71077W        W37508  37.043  42.163   0.898
71078W        W37509  10.244  41.512  12.157
71079W        W37510  32.242  41.182   1.260
71080W        W37511  42.281  40.719   3.087
71081W        W37512  19.823  10.457   1.986
71082W        W37513   0.007  10.767   1.591
71083W        W37514  16.609  19.631  10.920
71084W        W37515  39.990  21.609  14.799
71085W        W37516  36.203  11.364   0.339
71086W        W37517  22.010  18.092  10.273
71087W        W37518  36.596  33.319  12.246
71088W        W37519   9.918  14.335   1.440
71089W        W37520  25.072  16.239   1.457
71090W        W37521  39.561  44.446   0.184
71091W        W37522  21.510   7.117  12.160
71092W        W37523  15.692  34.623   0.878
71093W        W37524  25.837   9.807   2.826
71094W        W37525  30.030  15.530  14.691
71095W        W37526  40.396  34.763   3.668
71096W        W37527  12.519  40.364  13.357
71097W        W37528  37.583  18.671  13.445
71098W        W37529  15.274  32.266   3.224
71099W        W37530  35.123  12.382  12.830
71100W        W37531   0.198  18.162  14.736
71101W        W37532  40.413  41.452  14.538
71102W        W37533  43.438  41.250   4.155
71103W        W37534   0.622  10.241   4.593
71104W        W37535  15.369  28.224  10.850
71105W        W37536  24.788   2.751   4.518
71106W        W37537  34.176   6.308  13.091
71107W        W37538  14.681  37.593  14.866
71108W        W37539   4.333  37.142  13.883
71109W        W37540  10.619   0.786  10.675
71110W        W37541  19.717  31.441  11.193
71111W        W37542  24.089   2.359   3.724
71112W        W37543   0.292  16.041   0.265
71113W        W37544  29.453  20.059   4.160
71114W        W37545  43.471  11.116   4.130
71115W        W37546  36.868  35.037  13.595
71116W        W37547   5.576   1.767  11.724
71117W        W37548  33.358  17.379   4.058
71118W        W37549   5.398  12.320   3.115
71119W        W37550  37.486  18.083   1.872
71120W        W37551  29.105  16.810  12.417
71121W        W37552  25.558  32.800  12.016
71122W        W37553  42.819  31.143   1.900
71123W        W37554   6.307  36.365  13.894
71124W        W37555  27.395  34.740  12.842
71125W        W37556  33.119  40.095   3.303
71126W        W37557  26.649   8.869  14.426
71127W        W37558   3.237   1.847  11.785
71128W        W37559  11.633  39.575  11.380
71129W        W37560  34.484  19.810  12.133
71130W        W37561  29.710  22.649   4.495
71131W        W37562   7.174  44.882  14.038
71132W        W37563  31.490   8.675   1.612
71133W        W37564  39.391  13.225   3.452
71134W        W37565  29.203  11.085   2.930
71135W        W37566  14.375   8.428   3.312
71136W        W37567   7.831  41.013   3.724
71137W        W37568  35.071  20.267   3.356
71138W        W37569  35.253  20.279  11.708
71139W        W37570  30.529  24.034   3.283
71140W        W37571  34.995   7.167   1.893
71141W        W37572  41.983  16.602  13.396
71142W        W37573  33.764  23.911   5.164
71143W        W37574  25.526  35.456   2.095
71144W        W37575  26.602  38.283   2.781
71145W        W37576  27.494  43.869  13.977
71146W        W37577  20.539  35.861  11.495
71147W        W37578  33.805  24.399   1.357
71148W        W37579  36.432  18.511   4.492
71149W        W37580  37.391  25.999   2.229
71150W        W37581  10.842  17.873   4.080
71151W        W37582  23.091  11.306   3.279
71152W        W37583  44.216  18.776   1.834
71153W        W37584  17.033   9.782   1.204
71154W        W37585  19.269  15.184  14.844
71155W        W37586  40.420  30.890   1.699
71156W        W37587   4.815  15.352   1.817
71157W        W37588  25.516  39.519  14.136
71158W        W37589  33.305  12.533  10.880
71159W        W37590  36.756  25.140   4.783
71160W        W37591  23.556  12.140  11.536
71161W        W37592   7.393  41.505   1.979
71162W        W37593   2.477  18.379   3.786
71163W        W37594  26.410  29.078   4.105
71164W        W37595   1.928  36.512  11.099
71165W        W37596   6.995  38.521  13.531
71166W        W37597  34.448  11.047   3.164
71167W        W37598  40.990  38.382   4.137
71168W        W37599   4.837  38.986   1.411
71169W        W37600  44.926  42.991  11.549
71170W        W37601  43.753  22.547  11.214
71171W        W37602   6.748  36.993   2.243
71172W        W37603   2.384  35.043  13.020
71173W        W37604  26.994  22.937  12.441
71174W        W37605  43.321  34.015  13.759
71175W        W37606  34.852   1.729  12.986
71176W        W37607   7.305  25.073  10.886
71177W        W37608  35.090   2.130  10.834
71178W        W37609  38.785  41.519   3.043
71179W        W37610  18.251  42.040  14.000
71180W        W37611  11.976   5.228   1.727
71181W        W37612  28.024  13.331  13.518
71182W        W37613   6.429  14.143  11.900
71183W        W37614  41.542   0.969   0.756
71184W        W37615   0.300  39.706   3.719
71185W        W37616  28.060  11.096  14.536
71186W        W37617  19.302   6.949  11.079
71187W        W37618  19.029  33.479   1.922
71188W        W37619  13.312   3.525   3.717
71189W        W37620  42.422  17.719  12.608
71190W        W37621  37.824   5.818  10.283
71191W        W37622  11.789  23.067   3.321
71192W        W37623   1.435  41.507   0.362
71193W        W37624  33.893  25.123   3.046
71194W        W37625  36.000  36.878  10.646
71195W        W37626  23.577  11.160  13.054
71196W        W37627  35.423  44.227   1.906
71197W        W37628  31.533  35.099   0.721
71198W        W37629  42.062  25.958   1.837
71199W        W37630  23.684  31.545  12.983
71200W        W37631  44.012   7.964   2.186
71201W        W37632  38.351  34.489   0.515
71202W        W37633  29.903  37.837  12.473
71203W        W37634  29.440  44.346  12.007
71204W        W37635  11.687  35.437   2.294
71205W        W37636  10.756  11.518  14.383
71206W        W37637  38.356   4.489  13.775
71207W        W37638   6.282  21.803   3.082
71208W        W37639  20.696  24.731   2.254
71209W        W37640  13.737  20.069   0.683
71210W        W37641  40.868  37.979  10.761
71211W        W37642   7.581  13.317   4.380
71212W        W37643  22.744   1.171  11.936
71213W        W37644  24.672  37.777   1.252
71214W        W37645   9.614  43.956  14.998
71215W        W37646  39.032  31.337   1.679
71216W        W37647  30.997  27.254   3.203
71217W        W37648  35.831  18.341  14.765
71218W        W37649  38.435   7.252   1.571
71219W        W37650  29.994   0.979   0.758
71220W        W37651  19.747  37.347   1.246
71221W        W37652  38.561  18.878   1.867
71222W        W37653  14.613   6.335  10.945
71223W        W37654  35.008  42.781   3.651
71224W        W37655  22.586  15.749   3.366
71225W        W37656  42.510   9.405  12.504
71226W        W37657   9.109   2.810  13.072
71227W        W37658   3.946  43.862   2.747
71228W        W37659  21.139  22.614   1.848
71229W        W37660  12.183  24.682   2.421
71230W        W37661  11.189  34.616  12.788
71231W        W37662  43.336  25.863   0.645
71232W        W37663  23.200  16.240  11.976
71233W        W37664  27.662  40.390   3.262
71234W        W37665  42.576  40.468   4.614
71235W        W37666  17.445  14.824   2.163
71236W        W37667  15.208  19.562   3.372
71237W        W37668  15.919   2.268  11.913
71238W        W37669  10.927   8.869  11.910
71239W        W37670  27.238  35.107   2.915
71240W        W37671  10.482  32.850   2.444
71241W        W37672  20.541  10.062   1.852
71242W        W37673  36.308   9.598  11.319
71243W        W37674  36.605  23.269  12.146
71244W        W37675   5.814  28.250   0.362
71245W        W37676  25.089  13.462   4.514
71246W        W37677  14.271  27.222   2.666
71247W        W37678  28.541  33.737  14.403
71248W        W37679  27.601  23.350  13.152
71249W        W37680  39.983  34.852   1.985
71250W        W37681  14.323  35.581  12.589
71251W        W37682  35.405  32.534   2.872
71252W        W37683   5.717  43.796  11.076
71253W        W37684  43.437  11.300   2.127
71254W        W37685  12.269  31.624   3.401
71255W        W37686  15.804  12.635  12.007
71256W        W37687   3.900  16.849  12.498
71257W        W37688  35.354   7.276  12.632
71258W        W37689  23.615  29.306  14.455
71259W        W37690  28.263  18.560  13.971
71260W        W37691   4.239   6.705   2.425
71261W        W37692   1.578  32.011   4.446
71262W        W37693   6.088  37.582  10.198
71263W        W37694  19.362  40.459   0.428
71264W        W37695  29.157  42.057   0.200
71265W        W37696  36.268  32.460   3.280
71266W        W37697  10.968  43.632  13.563
71267W        W37698  14.589  23.641   2.817
71268W        W37699  28.573  37.443  11.263
71269W        W37700  16.889  33.383  14.890
71270W        W37701  37.980  35.895   4.228
71271W        W37702  32.413  32.594   3.950
71272W        W37703  18.257  17.225   4.511
71273W        W37704  40.820   7.459  13.899
71274W        W37705  26.111  25.591  13.348
71275W        W37706  11.375  15.887   0.748
71276W        W37707   6.336  27.718  10.320
71277W        W37708  36.000   4.149   4.668
71278W        W37709  36.259   0.776   0.399
71279W        W37710  36.902  11.751  14.547
71280W        W37711  10.635  35.856   4.569
71281W        W37712  30.344  41.379  13.543
71282W        W37713   4.232   0.410   0.217
71283W        W37714  18.038  36.536   2.808
71284W        W37715   9.123  39.800  11.593
71285W        W37716  34.387  21.096  10.509
71286W        W37717  35.527   9.115  11.554
71287W        W37718  21.628  41.272  14.847
71288W        W37719  17.855  44.140   4.901
71289W        W37720  26.306  16.757   0.446
71290W        W37721  41.959   5.957  12.151
71291W        W37722  40.995  14.860  11.652
71292W        W37723  26.273   5.710   0.709
71293W        W37724   9.978  13.682  13.349
71294W        W37725  29.944  23.153   4.590
71295W        W37726  24.297  19.716  13.270
71296W        W37727  30.076  11.383   1.335
71297W        W37728  44.423  24.702  10.590
71298W        W37729  15.826   0.540  13.533
71299W        W37730  28.936  28.005  13.536
71300W        W37731  21.194   0.995  12.027
71301W        W37732  10.273  19.216  10.440
71302W        W37733  23.638   1.904   3.117
71303W        W37734  10.622  18.677   1.331
71304W        W37735  13.461  20.657  13.475
71305W        W37736  42.177  22.581  12.144
71306W        W37737  14.141  27.889   0.228
71307W        W37738  37.077  32.122   1.475
71308W        W37739  15.203  21.732   2.906
71309W        W37740  30.689   1.541   0.906
71310W        W37741  34.976  39.048  14.120
71311W        W37742  30.147  19.675  11.197
71312W        W37743  40.730  44.122   3.272
71313W        W37744  23.645   7.289   2.856
71314W        W37745  29.481  37.342  10.146
71315W        W37746  12.211  35.592   3.867
71316W        W37747  36.031  13.100   3.161
71317W        W37748  32.700  21.759  10.424
71318W        W37749   4.439   4.327   1.525
71319W        W37750  21.699  39.407  12.461
71320W        W37751  29.370  25.137   3.839
71321W        W37752  26.407  19.510   1.190
71322W        W37753  22.691  18.675   3.585
71323W        W37754  11.021  36.034  14.479
71324W        W37755  13.329  21.256   0.860
71325W        W37756   0.288  20.386  14.262
71326W        W37757  36.677  11.252  14.375
71327W        W37758  40.133  28.720  13.358
71328W        W37759  19.148   9.851   0.965
71329W        W37760   1.702  28.105   0.924
71330W        W37761   8.409   5.519   3.130
71331W        W37762  29.567  21.654   2.721
71332W        W37763  32.659  26.208  13.424
71333W        W37764  19.261   0.914  11.073
71334W        W37765  42.853  35.050  13.467
71335W        W37766  13.745  40.681   3.986
71336W        W37767  30.397  19.346   2.841
71337W        W37768  26.682  30.500  12.546
71338W        W37769  24.739  15.061   3.244
71339W        W37770  11.687  33.539   2.914
71340W        W37771   6.017  34.914   1.025
71341W        W37772   7.389   2.875   4.349
71342W        W37773  15.370  21.010   0.019
71343W        W37774  26.172  11.730   0.325
71344W        W37775   1.985  34.441  10.709
71345W        W37776  31.915  12.816  13.116
71346W        W37777   1.169  18.581  11.167
71347W        W37778  36.729  40.591  12.936
71348W        W37779  15.958  28.493   3.751
71349W        W37780  32.016   7.673  11.144
71350W        W37781  23.937  26.491   3.848
71351W        W37782  23.097  22.912  14.331
71352W        W37783  13.079   9.921  13.966
71353W        W37784  40.079  37.982   0.814
71354W        W37785  34.840  21.257  10.297
71355W        W37786  40.649  27.758  11.531
71356W        W37787  27.676  13.357  10.699
71357W        W37788  21.792  37.023   2.475
71358W        W37789   4.048  23.672  14.394
71359W        W37790  43.281   6.830   4.087
71360W        W37791  30.471  41.031   0.410
71361W        W37792  41.356  27.983   2.804
71362W        W37793   0.915  42.797  12.058
71363W        W37794  26.163  28.961  13.896
71364W        W37795  11.877   0.364  10.679
71365W        W37796  11.412  20.753   1.591
71366W        W37797  31.384  34.270  11.480
71367W        W37798  11.289   2.569   0.959
71368W        W37799  27.372   6.369  11.920
71369W        W37800  36.481  18.200   1.208
71370W        W37801   8.196   1.268  13.939
71371W        W37802   2.304  35.281  12.548
71372W        W37803  41.902  44.158   3.218
71373W        W37804   9.631  19.289   3.202
71374W        W37805  24.550  22.614   4.090
71375W        W37806  12.165   0.769  12.921
71376W        W37807   2.089   5.211   0.483
71377W        W37808   7.447  31.612   4.804
71378W        W37809  35.329   1.041   4.079
71379W        W37810  16.140  36.319   3.666
71380W        W37811   4.678  24.507  12.479
71381W        W37812   0.460  44.778   0.002
71382W        W37813  19.816  17.697  10.862
71383W        W37814  15.546  12.878  14.325
71384W        W37815   5.726  39.821   1.001
71385W        W37816  23.748  15.613  11.036
71386W        W37817  40.267  10.640   4.416
71387W        W37818  32.189  16.290   1.033
71388W        W37819  26.563   6.741  11.530
71389W        W37820  10.058  40.760  14.022
71390W        W37821  22.329  23.632  10.417
71391W        W37822  32.300  12.078   1.895
71392W        W37823   8.822  44.870  11.637
71393W        W37824  10.590  14.989  11.239
71394W        W37825  13.637   2.379  14.275
71395W        W37826  40.013  21.075   2.562
71396W        W37827  32.727  43.321   2.785
71397W        W37828  33.461   6.464   2.836
71398W        W37829  15.069   5.724   5.312
71399W        W37830  30.169  11.676   0.913
71400W        W37831  14.111  30.063   1.890
71401W        W37832  13.972  41.358  13.129
71402W        W37833  14.182  32.569  14.681
71403W        W37834  35.446  10.057   0.252
71404W        W37835  40.683  24.314  11.594
71405W        W37836  21.116  16.273   1.463
71406W        W37837   8.568  43.838   4.099
71407W        W37838  37.782  20.510  11.673
71408W        W37839   7.255  22.651  12.174
71409W        W37840  23.941   5.197   5.064
71410W        W37841  26.678  38.795  11.595
71411W        W37842  22.175  12.550  14.723
71412W        W37843   4.726  18.282  13.036
71413W        W37844  16.944  41.454  11.392
71414W        W37845  17.906  41.207  11.101
71415W        W37846   9.315  14.696  12.091
71416W        W37847   9.846  12.803  10.551
71417W        W37848  33.716  17.954  12.810
71418W        W37849   9.926  37.058  13.365
71419W        W37850  39.981   2.701   2.356
71420W        W37851  33.146  15.621  12.947
71421W        W37852  26.515  24.680   3.739
71422W        W37853  39.045   2.826  14.309
71423W        W37854  34.492  14.371  12.924
71424W        W37855  35.464  24.608   0.069
71425W        W37856  37.786  37.803   0.813
71426W        W37857   5.009  29.492   4.163
71427W        W37858  37.783  25.622  12.960
71428W        W37859  13.102   7.136  13.481
71429W        W37860  44.095  28.688  14.715
71430W        W37861  29.602  24.847   4.771
71431W        W37862  20.805  36.406   0.824
71432W        W37863   6.390  31.095  13.310
71433W        W37864  21.194  35.823  14.296
71434W        W37865  17.123   7.232  14.152
71435W        W37866  24.198  37.658   1.072
71436W        W37867  23.748   1.795  12.981
71437W        W37868  14.762  35.388   0.896
71438W        W37869  28.284  38.781   3.189
71439W        W37870  37.617  40.069  13.084
71440W        W37871  29.104  16.520   3.750
71441W        W37872  33.372   4.164   0.453
71442W        W37873  37.841  33.434  14.316
71443W        W37874  19.899  37.004   2.623
71444W        W37875  28.543  15.266  12.695
71445W        W37876  26.456  34.082   0.201
71446W        W37877   4.798  23.657  14.990
71447W        W37878  42.992  35.029  11.909
71448W        W37879  31.016   3.338  14.967
71449W        W37880  12.206   3.448  10.435
71450W        W37881  37.938  13.724   0.418
71451W        W37882   7.321  33.150  13.085
71452W        W37883  36.407  15.077  12.126
71453W        W37884   8.910  44.488   4.507
71454W        W37885  13.828   7.705  14.883
71455W        W37886  25.118  27.209   4.922
71456W        W37887  21.542  18.081  12.443
71457W        W37888   3.982  42.566  10.906
71458W        W37889   9.185  28.990   3.167
71459W        W37890  36.778  21.042   0.164
71460W        W37891  37.182  35.000   0.449
71461W        W37892   2.399  31.420  12.983
71462W        W37893  28.118  42.654  12.455
71463W        W37894  25.692   3.455   1.517
71464W        W37895  14.061   3.929  12.096
71465W        W37896  36.923   9.732   2.687
71466W        W37897  33.704  30.278   4.001
71467W        W37898   8.391  11.435   4.070
71468W        W37899   6.965  29.574   1.215
71469W        W37900   8.854   8.191  12.996
71470W        W37901  43.893  17.608  11.323
71471W        W37902  43.546  35.922   3.810
71472W        W37903  13.354   7.985   4.532
71473W        W37904  18.386   1.571   5.058
71474W        W37905  31.614   8.868  13.889
71475W        W37906  42.013  26.836   0.947
71476W        W37907   1.006  42.166   3.120
71477W        W37908  16.801  16.352  11.524
71478W        W37909   8.937  23.443  12.153
71479W        W37910   2.444  40.608   4.086
71480W        W37911   7.892  31.817   3.020
71481W        W37912  36.385  16.927   1.189
71482W        W37913  21.745  24.113   1.464
71483W        W37914  33.086  30.941  12.085
71484W        W37915   4.320   9.430  10.977
71485W        W37916  13.103  40.907  12.938
71486W        W37917   4.285   4.188   3.681
71487W        W37918   7.386   2.452   3.617
71488W        W37919  31.628  43.001  13.036
71489W        W37920  33.109  21.906  11.209
71490W        W37921  12.542   9.874   2.186
71491W        W37922   4.287   1.906   3.931
71492W        W37923   8.024  27.534  14.035
71493W        W37924  16.761  33.658  11.419
71494W        W37925   8.405  32.663  11.179
71495W        W37926   4.091  34.964  12.646
71496W        W37927   8.921  19.304  10.631
71497W        W37928  32.691  43.840  14.904
71498W        W37929  28.938  33.354  13.375
71499W        W37930   4.906  39.860   4.580
71500W        W37931  21.047  17.680  13.873
71501W        W37932   9.317  38.940   3.392
71502W        W37933  12.274  39.182   3.283
71503W        W37934  11.637  26.442  11.858
71504W        W37935  26.902  10.619  11.664
71505W        W37936  11.662  19.521   2.379
71506W        W37937  31.969  28.038   5.199
71507W        W37938  44.981  23.015   2.285
71508W        W37939  38.119   0.927   3.355
71509W        W37940   3.119  32.440   3.226
71510W        W37941  12.328  42.185  14.998
71511W        W37942  32.387  42.665   0.146
71512W        W37943   2.204  13.666   2.830
71513W        W37944  11.185  34.171   0.475
71514W        W37945  17.524  16.270  10.176
71515W        W37946  12.794   3.943   1.760
71516W        W37947  36.656  19.681   3.946
71517W        W37948  11.895  22.633  14.624
71518W        W37949   1.866  36.629  14.130
71519W        W37950  25.428  35.638   1.187
71520W        W37951  12.257  35.218   3.476
71521W        W37952  31.554  15.949   4.033
71522W        W37953   4.347  21.753   2.365
71523W        W37954   8.628  37.852   3.539
71524W        W37955  14.282  12.602  12.117
71525W        W37956  43.462  24.143   1.417
71526W        W37957  11.870  26.649   2.726
71527W        W37958  40.867  38.486  10.710
71528W        W37959  16.565  13.420   4.043
71529W        W37960  27.540   3.972   3.633
71530W        W37961  10.432  11.195  13.813
71531W        W37962  20.828  36.100  12.517
71532W        W37963  13.385  16.505   0.388
71533W        W37964  15.254  32.887   4.640
71534W        W37965  35.579  22.813  14.415
71535W        W37966  10.589   8.945   2.684
71536W        W37967   9.747  32.434  11.586
71537W        W37968  17.132  36.828  13.451
71538W        W37969  17.255   1.853  14.971
71539W        W37970  17.206  36.321  14.840
71540W        W37971  42.172  15.186  13.060
71541W        W37972  14.299  31.992  13.820
71542W        W37973   2.163  16.128   3.580
71543W        W37974  31.364   1.391  10.808
71544W        W37975  26.921  43.951  14.725
71545W        W37976  30.882  31.122   1.699
71546W        W37977   7.877  26.237  13.456
71547W        W37978  17.082   3.961  14.037
71548W        W37979  38.109  18.634  13.570
71549W        W37980   7.495  31.053   1.408
71550W        W37981   5.801   7.312  12.622
71551W        W37982  33.683  18.959  14.075
71552W        W37983  27.918  26.986  14.046
71553W        W37984  18.661  30.759   2.245
71554W        W37985  14.798   4.758   1.841
71555W        W37986   4.873  14.337   4.102
71556W        W37987  39.007   7.156  12.351
71557W        W37988  44.322   4.498  12.055
71558W        W37989   7.637   7.524  14.998
71559W        W37990  31.575   1.803   0.678
71560W        W37991   9.662   9.164  11.513
71561W        W37992  26.005  10.925   2.382
71562W        W37993   2.758  42.310  14.488
71563W        W37994  32.009   2.957  13.795
71564W        W37995   7.746  13.424   3.707
71565W        W37996  17.693  15.315   0.283
71566W        W37997  39.933  11.704  11.648
71567W        W37998  18.175  14.953  10.768
71568W        W37999  36.074  26.739   1.735
71569W        W38000  20.048  42.205  14.295
71570W        W38001  42.371   9.133   0.951
71571W        W38002  31.550  40.484   2.861
71572W        W38003  31.407  14.783  14.621
71573W        W38004  10.831   5.754  11.485
71574W        W38005   0.907  40.881  14.418
71575W        W38006  28.232  39.014  12.499
71576W        W38007  35.620  13.643  11.582
71577W        W38008  30.124  17.143  11.147
71578W        W38009  25.717  18.530   1.444
71579W        W38010  41.442  27.105  12.048
71580W        W38011  43.390  26.131   2.190
71581W        W38012  28.568  23.235  11.581
71582W        W38013  34.209  17.878  12.959
71583W        W38014  32.573  18.707  12.853
71584W        W38015  14.587  13.597   1.009
71585W        W38016  22.704  19.284  14.893
71586W        W38017   0.453   1.219   1.122
71587W        W38018  44.453  36.216   0.416
71588W        W38019  38.978  27.075  13.278
71589W        W38020  39.659   4.430  13.585
71590W        W38021  12.252  30.424   0.906
71591W        W38022  28.356   2.326  14.374
71592W        W38023  17.753  16.734  10.150
71593W        W38024  37.606  19.928  12.999
71594W        W38025  30.395  29.411   3.741
71595W        W38026  26.252   8.615   9.902
71596W        W38027  32.578   2.740   0.702
71597W        W38028  28.736  44.842  12.008
71598W        W38029  20.747  39.011  12.927
71599W        W38030   2.787  27.362  10.776
71600W        W38031  37.663  26.554   1.856
71601W        W38032  17.561   2.371  10.641
71602W        W38033   6.474  33.957   3.775
71603W        W38034  11.549  41.830  14.469
71604W        W38035   3.953  26.762   2.360
71605W        W38036  30.454  31.381   1.346
71606W        W38037   0.690  14.766  14.843
71607W        W38038  19.177  36.842  10.192
71608W        W38039   0.247   4.206  12.448
71609W        W38040   7.998   2.417  14.450
71610W        W38041  18.864  21.205  12.657
71611W        W38042  36.006  16.773  14.079
71612W        W38043  42.607  11.481   2.719
71613W        W38044  38.900  10.270   0.442
71614W        W38045  18.549  26.707   2.742
71615W        W38046  29.005  16.296  12.636
71616W        W38047   1.060  10.788  10.421
71617W        W38048  39.759  23.234  11.930
71618W        W38049   4.170  10.843  12.816
71619W        W38050  44.860  40.006  12.474
71620W        W38051  29.989  20.169   1.707
71621W        W38052   4.838   1.215   4.298
71622W        W38053   6.868  33.977   4.571
71623W        W38054   3.446  24.245  10.622
71624W        W38055  35.351   6.343  11.120
71625W        W38056  37.832  43.825  13.635
71626W        W38057   6.047  10.856  13.252
71627W        W38058  37.463  28.493  13.967
71628W        W38059  30.447  39.809   1.469
71629W        W38060  35.845   2.518  12.057
71630W        W38061  20.517  44.758  10.745
71631W        W38062  19.174  20.465   0.840
71632W        W38063  10.715  40.795  10.494
71633W        W38064  43.632  18.927  14.653
71634W        W38065  29.760  11.781   1.817
71635W        W38066  10.189  30.592  13.798
71636W        W38067  23.085  40.555   4.708
71637W        W38068   3.388  26.750   0.149
71638W        W38069   8.362  19.208  10.911
71639W        W38070  14.110  14.794  10.280
71640W        W38071   1.817  43.557  14.286
71641W        W38072  28.233  39.659   1.843
71642W        W38073  41.244  39.976   1.455
71643W        W38074   8.236  14.446   1.182
71644W        W38075  28.941  18.929  12.544
71645W        W38076  17.745  27.223   0.258
71646W        W38077   4.666  35.824  12.913
71647W        W38078  23.931   4.320   1.713
71648W        W38079  24.533  14.165  13.846
71649W        W38080  26.149  20.624   0.068
71650W        W38081   6.739  17.600  14.414
71651W        W38082  43.303  27.887   1.342
71652W        W38083  33.613  39.964   4.849
71653W        W38084  16.979  15.842   4.896
71654W        W38085   8.728   0.306   1.226
71655W        W38086   6.688   1.492  13.234
71656W        W38087  14.728   2.942   4.971
71657W        W38088   9.924   0.045   0.833
71658W        W38089   2.408  31.064  14.226
71659W        W38090  14.634  10.694  13.403
71660W        W38091   8.379   4.473   3.950
71661W        W38092  13.242   6.748  14.118
71662W        W38093  42.422  11.204   3.755
71663W        W38094  20.397  15.966   3.232
71664W        W38095  42.278   6.310   2.426
71665W        W38096  23.458  23.909  12.106
71666W        W38097   8.729  13.268   3.685
71667W        W38098  33.364  38.772   5.126
71668W        W38099  20.139   5.246  11.884
71669W        W38100  30.491  37.807   4.938
71670W        W38101  44.113  44.897   0.921
71671W        W38102  21.962  31.125   4.721
71672W        W38103   5.724  26.643   2.110
71673W        W38104  14.338  17.186  14.781
71674W        W38105  40.925  43.113   3.368
71675W        W38106   7.288   3.654   1.303
71676W        W38107  43.187  26.023   4.217
71677W        W38108  36.629  29.789   4.536
71678W        W38109  32.995  43.390   4.695
71679W        W38110  32.202  13.187  13.455
71680W        W38111   7.289  18.734  10.205
71681W        W38112   4.190   3.598   1.919
71682W        W38113  22.249   4.836  12.490
71683W        W38114  29.518   4.244   4.163
71684W        W38115  25.408  15.353  14.972
71685W        W38116   4.029  43.571  12.502
71686W        W38117   0.248   7.672   1.869
71687W        W38118  12.594  31.779   1.438
71688W        W38119  21.800  21.452   3.264
71689W        W38120  39.384  30.115   0.809
71690W        W38121  35.872  38.296   1.457
71691W        W38122   0.665  30.529  11.228
71692W        W38123  35.010  29.300  13.098
71693W        W38124   3.347  34.686   3.682
71694W        W38125  17.213  14.205   2.772
71695W        W38126   6.415   7.932  12.025
71696W        W38127   8.151  25.340  13.390
71697W        W38128  35.863   1.515  11.997
71698W        W38129  14.121  22.984  11.640
71699W        W38130  16.636   8.513  11.462
71700W        W38131  42.924  20.773  11.515
71701W        W38132  17.833   0.362  14.897
71702W        W38133  42.481  28.306  11.004
71703W        W38134  19.646  43.642  10.984
71704W        W38135   2.797   6.080  14.011
71705W        W38136  16.273  19.759  14.876
71706W        W38137  43.629  27.232  12.070
71707W        W38138   4.127  40.852  14.906
71708W        W38139  21.964  26.521  13.578
71709W        W38140  40.598  29.417   4.154
71710W        W38141  43.689   0.330  14.786
71711W        W38142   8.201  17.128   2.275
71712W        W38143  29.210  26.548   0.708
71713W        W38144  42.954  15.574   3.025
71714W        W38145  39.513  34.720   3.141
71715W        W38146  21.504  12.610  11.640
71716W        W38147  17.423  39.264   9.986
71717W        W38148   2.108  33.775  10.083
71718W        W38149  32.937   4.950   2.988
71719W        W38150  11.062   9.456   3.862
71720W        W38151  44.471  40.868  14.907
71721W        W38152   8.976  22.949  11.932
71722W        W38153  22.262  43.185  10.296
71723W        W38154  33.431  12.033   1.220
71724W        W38155  25.564   9.891   4.763
71725W        W38156  27.922  29.969  13.470
71726W        W38157  20.073  40.878   1.088
71727W        W38158  33.053  40.852  14.474
71728W        W38159  29.557  40.792  13.625
71729W        W38160   8.649  31.378  12.665
71730W        W38161  36.189  18.028  11.529
71731W        W38162  39.985  26.926  14.926
71732W        W38163  27.090   0.711  12.137
71733W        W38164   9.715  24.520  12.429
71734W        W38165  33.300  22.191   0.343
71735W        W38166   3.011   8.915  13.192
71736W        W38167   8.334  41.563   3.312
71737W        W38168  12.831  17.644  10.728
71738W        W38169   8.417  13.206  11.443
71739W        W38170  15.627   8.131   3.732
71740W        W38171   1.295  18.877  14.323
71741W        W38172  10.139  25.127  10.819
71742W        W38173  32.554   1.969   4.432
71743W        W38174  44.671   2.229   0.442
71744W        W38175  12.835  23.515   4.007
71745W        W38176   3.478  37.114  14.893
71746W        W38177   7.859  27.193  11.867
71747W        W38178  30.679  38.474  11.215
71748W        W38179  39.904  24.031   0.638
71749W        W38180  18.244  38.051   1.669
71750W        W38181  29.427   0.780   0.010
71751W        W38182  40.082  40.220  13.816
71752W        W38183  16.550   8.804  14.416
71753W        W38184   4.275   5.205   0.303
71754W        W38185  15.577  17.648  11.599
71755W        W38186   8.121   7.773  14.883
71756W        W38187  17.002  37.788  10.966
71757W        W38188   7.915  24.693   1.392
71758W        W38189  21.939  24.599   4.173
71759W        W38190  24.589   7.479  14.222
71760W        W38191   7.301  29.914   2.510
71761W        W38192  38.477  13.326   3.783
71762W        W38193  13.263  23.519   0.035
71763W        W38194  19.863  16.151   4.802
71764W        W38195   5.270  16.807  13.136
71765W        W38196   8.490  18.269  11.857
71766W        W38197  34.556  34.532   4.566
71767W        W38198  43.809  40.003   4.668
71768W        W38199  43.023  33.612  11.973
71769W        W38200   2.566  11.980   0.961
71770W        W38201  39.575  20.671   2.358
71771W        W38202  36.319  21.648  12.906
71772W        W38203  39.847  12.680   3.676
71773W        W38204  26.352  22.632   3.617
71774W        W38205  16.047  34.266   4.837
71775W        W38206  21.150  18.186  13.872
71776W        W38207  20.717  37.351  10.203
71777W        W38208  32.865   8.910   0.224
71778W        W38209  28.386  44.149  10.743
71779W        W38210  27.717  33.901  12.045
71780W        W38211  31.625   3.828  12.994
71781W        W38212  36.552  37.846  12.021
71782W        W38213  19.730   2.065   0.259
71783W        W38214  30.113   2.547  13.133
71784W        W38215  25.708  42.019  12.660
71785W        W38216  21.083   4.468   4.911
71786W        W38217  21.980  29.576  12.131
71787W        W38218  29.037  43.456   4.825
71788W        W38219   7.073   1.308   2.277
71789W        W38220  11.305   2.157   2.936
71790W        W38221  43.453  43.991  13.658
71791W        W38222  44.077   7.778   4.336
71792W        W38223  35.050  16.181   0.774
71793W        W38224   8.306  17.818  11.651
71794W        W38225  11.222  14.278   2.286
71795W        W38226  12.787  33.677   4.224
71796W        W38227  16.722  44.270  11.520
71797W        W38228  39.528  36.080   2.747
71798W        W38229  40.639  15.261   3.612
71799W        W38230   5.522  29.053  11.302
71800W        W38231   3.809  10.291  11.117
71801W        W38232   7.578  43.324   2.334
71802W        W38233  18.651  37.299  13.926
71803W        W38234  42.736  21.221   2.450
71804W        W38235  19.322  44.289   3.752
71805W        W38236  19.269   2.441   4.594
71806W        W38237  44.817  29.124  11.214
71807W        W38238  40.867  21.942   0.260
71808W        W38239   0.292   6.382  12.503
71809W        W38240   3.734  36.039  14.845
71810W        W38241  17.758  22.578   0.860
71811W        W38242  19.012   9.291  11.964
71812W        W38243  14.337  33.915  12.361
71813W        W38244  12.899  15.633   3.590
71814W        W38245  24.494  13.345   3.818
71815W        W38246  43.402  37.431  12.460
71816W        W38247  43.756  22.641   2.682
71817W        W38248  44.954   6.358   1.707
71818W        W38249  16.270  17.995   1.279
71819W        W38250   2.451   3.371   4.038
71820W        W38251  43.500  22.316   4.029
71821W        W38252  15.821  22.550   0.384
71822W        W38253  34.057  18.339   4.743
71823W        W38254  41.021  27.958  13.998
71824W        W38255  40.435  20.040  11.750
71825W        W38256  36.861  27.429  11.671
71826W        W38257  35.936  17.035   2.804
71827W        W38258  43.564  38.544  13.912
71828W        W38259  40.649  28.446   0.804
71829W        W38260  15.713  11.092   4.547
71830W        W38261   0.204  24.124   1.763
71831W        W38262  23.952   4.869  10.677
71832W        W38263  23.471  12.151   1.809
71833W        W38264  41.843   3.435  11.300
71834W        W38265   9.774  27.230   1.943
71835W        W38266  14.395   2.885  11.774
71836W        W38267  16.624   7.072  10.706
71837W        W38268  26.044   7.198   4.556
71838W        W38269  10.826  12.660  13.683
71839W        W38270   4.310  15.592  13.336
71840W        W38271  30.307  19.235   1.185
71841W        W38272   5.359  29.203  14.847
71842W        W38273  21.414  44.894   1.337
71843W        W38274   6.742  34.215   0.775
71844W        W38275   4.824  17.581   0.521
71845W        W38276  31.588  43.513  12.949
71846W        W38277   8.322  22.135   1.328
71847W        W38278  17.633  30.672  10.577
71848W        W38279  44.741  24.543  14.372
71849W        W38280   5.209  32.070   1.255
71850W        W38281  32.580   5.243  14.264
71851W        W38282  11.199  10.828  14.041
71852W        W38283  13.688  29.449  12.449
71853W        W38284  41.032  34.652   4.868
71854W        W38285  30.877  39.888   4.047
71855W        W38286   5.205  43.210   3.911
71856W        W38287   3.880  27.499  10.800
71857W        W38288  25.933   1.483  12.576
71858W        W38289  12.259  25.704   3.827
71859W        W38290  11.252  39.388   1.274
71860W        W38291  41.321  26.710  12.450
71861W        W38292   9.319   0.267  12.786
71862W        W38293   7.749  12.645   2.453
71863W        W38294  33.535  27.777   4.157
71864W        W38295  32.747  11.858  11.392
71865W        W38296  16.097   8.842  10.321
71866W        W38297  28.188  18.178   0.252
71867W        W38298   0.844  36.692   3.642
71868W        W38299   3.746  32.976   4.527
71869W        W38300   7.949  10.294  13.238
71870W        W38301  24.602  34.770   0.977
71871W        W38302  25.714  36.965  10.939
71872W        W38303  29.689  40.023  10.951
71873W        W38304  41.505  29.958   0.341
71874W        W38305  37.249   6.630  13.849
71875W        W38306  22.974  14.834   0.774
71876W        W38307   3.382  23.000  13.576
71877W        W38308  30.372  17.217  11.611
71878W        W38309  23.571  14.841   1.020
71879W        W38310  40.294  37.424  14.402
71880W        W38311  38.023  40.657  13.921
71881W        W38312  37.911  21.503   1.773
71882W        W38313  16.327  16.448  11.310
71883W        W38314  41.847  37.030  10.816
71884W        W38315  16.750   4.470  11.535
71885W        W38316  11.115  18.160  11.015
71886W        W38317   9.703  42.951   3.692
71887W        W38318   9.848   5.324   3.536
71888W        W38319  41.042  30.382   3.707
71889W        W38320   1.306  27.060  12.996
71890W        W38321  16.855   2.415  12.963
71891W        W38322  35.340   6.258  12.265
71892W        W38323  17.145  35.639  14.024
71893W        W38324  24.528   6.396  11.682
71894W        W38325  19.255  31.157  11.224
71895W        W38326  18.984  43.521  11.763
71896W        W38327  16.094  31.368   1.080
71897W        W38328  41.982  33.433  12.076
71898W        W38329  15.588  39.537   1.844
71899W        W38330  18.084   2.222   2.857
71900W        W38331  20.650   0.818  14.496
71901W        W38332  13.932  14.242   1.925
71902W        W38333  35.611   2.264   0.696
71903W        W38334  24.699  33.193   3.966
71904W        W38335  40.852  26.463   0.796
71905W        W38336  17.681  35.919  12.036
71906W        W38337  44.896   5.213   0.324
71907W        W38338  26.353  14.134  11.436
71908W        W38339  30.108  35.169  13.368
71909W        W38340  28.367  17.143   4.069
71910W        W38341   9.212  34.313  11.974
71911W        W38342   9.925   3.388  13.824
71912W        W38343  19.698  35.919  14.672
71913W        W38344  26.261   6.549  13.894
71914W        W38345  30.455  43.539   4.571
71915W        W38346  15.810  11.800  14.761
71916W        W38347  44.871  12.538   2.432
71917W        W38348  15.250  29.956  10.947
71918W        W38349  21.166  34.637   9.885
71919W        W38350  13.704  10.081  14.933
71920W        W38351  40.096  33.391   3.155
71921W        W38352   0.362   6.652   1.929
71922W        W38353  39.253   4.653   9.972
71923W        W38354  29.602  23.677  12.650
71924W        W38355  15.669  35.045   1.952
71925W        W38356  16.249  40.690  10.747
71926W        W38357  19.749  33.946   0.932
71927W        W38358  42.913  28.661  10.894
71928W        W38359   4.456   7.187   1.543
71929W        W38360   7.679  19.967  12.455
71930W        W38361  42.121  11.982   1.526
71931W        W38362   1.992  38.652  12.330
71932W        W38363  17.635   1.411  11.664
71933W        W38364  38.801  40.927   4.652
71934W        W38365  31.483  25.648  14.981
71935W        W38366  16.826   6.699   1.272
71936W        W38367  10.700  27.073   0.457
71937W        W38368  10.143  24.321   0.060
71938W        W38369   2.173  11.849  11.226
71939W        W38370  10.319   2.401  10.767
71940W        W38371  34.169   9.096   2.697
71941W        W38372  21.206  31.614  11.432
71942W        W38373  24.628  35.584   3.999
71943W        W38374   4.770  11.185  12.190
71944W        W38375  34.145  14.263   2.429
71945W        W38376  18.597   4.422  14.041
71946W        W38377  12.419  26.926   0.949
71947W        W38378  13.104  25.036   0.765
71948W        W38379  17.742  36.844   1.109
71949W        W38380   0.190   5.221   4.187
71950W        W38381  14.122  21.605  10.661
71951W        W38382  36.646  23.113   3.593
71952W        W38383  38.239  29.987   2.796
71953W        W38384  42.371  13.629  13.511
71954W        W38385  44.583  15.685   0.796
71955W        W38386  13.062  15.279  14.523
71956W        W38387   1.412   3.213   4.287
71957W        W38388  38.073   7.818  11.657
71958W        W38389  26.199  37.821  11.208
71959W        W38390  37.903   9.513   4.611
71960W        W38391  40.806  17.144  14.555
71961W        W38392  30.539  35.119   3.247
71962W        W38393  14.987   4.166   1.671
71963W        W38394  23.982  27.824   4.638
71964W        W38395  27.131  11.696   3.807
71965W        W38396  24.653  16.024  12.104
71966W        W38397  41.081   1.830  13.412
71967W        W38398  19.169  13.186  13.991
71968W        W38399  11.522   2.739  12.402
71969W        W38400  19.527   8.007  11.636
71970W        W38401   4.887   3.988   2.317
71971W        W38402  21.172   7.000  13.961
71972W        W38403   6.881  33.107  12.321
71973W        W38404  15.224  38.098  14.323
71974W        W38405   1.898  20.290   2.663
71975W        W38406   3.389  44.809  11.889
71976W        W38407  24.814  19.558   0.935
71977W        W38408   6.469   0.238   3.344
71978W        W38409   8.259  40.151  13.666
71979W        W38410  25.662  21.621  13.362
71980W        W38411  10.292  14.108   1.736
71981W        W38412  13.252  37.804  11.216
71982W        W38413   7.418  20.201   0.417
71983W        W38414  27.718  20.601   3.163
71984W        W38415  41.579   2.882   4.577
71985W        W38416  13.265  34.527  11.534
71986W        W38417  22.930  17.851  13.885
71987W        W38418  39.227  19.537   0.248
71988W        W38419   2.732  36.580   3.408
71989W        W38420  27.691  42.849   1.012
71990W        W38421  13.637   3.132   3.606
71991W        W38422  31.183   5.729   4.444
71992W        W38423  18.224  22.822  13.561
71993W        W38424  40.845  24.268  13.291
71994W        W38425  11.347  30.845  14.367
71995W        W38426  40.549  30.062   4.575
71996W        W38427  35.004  10.690   3.781
71997W        W38428  30.833  15.532   5.195
71998W        W38429  14.052   5.703  12.937
71999W        W38430  13.242  28.479  13.365
72000W        W38431  42.991   0.381  13.336
72001W        W38432  15.665  17.023   1.939
72002W        W38433  18.880  25.951   2.446
72003W        W38434  23.930  14.182   4.161
72004W        W38435  26.260  14.329   2.715
72005W        W38436  15.009  14.965  11.458
72006W        W38437  34.552  39.328   4.472
72007W        W38438   1.848  24.818  14.389
72008W        W38439  34.224  24.688   1.451
72009W        W38440  15.214  30.338  13.433
72010W        W38441  28.856  33.154  12.526
72011W        W38442  12.703  15.342  11.276
72012W        W38443  39.707  36.810  14.872
72013W        W38444  19.294  19.194  11.562
72014W        W38445  21.671  10.908   2.663
72015W        W38446  22.090  35.605  11.523
72016W        W38447  16.945  38.080   2.842
72017W        W38448  28.705   4.922  11.705
72018W        W38449  27.921  22.541   2.270
72019W        W38450  20.624   1.755   2.734
72020W        W38451   0.071  33.596  11.105
72021W        W38452  24.509  33.740  11.558
72022W        W38453   6.753  18.873   4.132
72023W        W38454  22.717  20.516  11.064
72024W        W38455  10.805  20.818  13.946
72025W        W38456  23.610  26.686  12.097
72026W        W38457  31.888   9.700  12.977
72027W        W38458   3.247  10.659   1.556
72028W        W38459   1.877   1.993  11.697
72029W        W38460  30.172  10.675   2.282
72030W        W38461  29.455   1.520   3.752
72031W        W38462  37.337   8.124  11.687
72032W        W38463  43.991  13.255  12.210
72033W        W38464  41.036  16.100   3.706
72034W        W38465  36.319  40.215  11.349
72035W        W38466  34.830  10.170  10.096
72036W        W38467   8.085  14.213   0.371
72037W        W38468   2.355   2.762  12.721
72038W        W38469  14.244   8.151   4.726
72039W        W38470   5.184   1.740  14.175
72040W        W38471   5.814  24.963  12.590
72041W        W38472  19.543   7.766   0.093
72042W        W38473  13.301  26.012   0.240
72043W        W38474  26.210  41.507   3.752
72044W        W38475  41.346  37.666   3.676
72045W        W38476  24.966  27.412  12.806
72046W        W38477  14.179  18.760   0.040
72047W        W38478   3.365  42.110   3.251
72048W        W38479  11.809  26.380  13.991
72049W        W38480  36.136  33.861  11.131
72050W        W38481  42.780  17.466   2.350
72051W        W38482  13.124   3.870   0.866
72052W        W38483  17.622  35.515  13.363
72053W        W38484  44.842  42.451  10.665
72054W        W38485  16.653   5.460  14.760
72055W        W38486  14.411  40.630   1.534
72056W        W38487   9.696  29.491   4.687
72057W        W38488  24.733   3.361   2.869
72058W        W38489  11.210   6.014   1.704
72059W        W38490  17.555  21.217   1.833
72060W        W38491  26.988  40.454  12.473
72061W        W38492  17.974  10.795   2.725
72062W        W38493  22.600  30.111  13.863
72063W        W38494  18.551   8.194   3.653
72064W        W38495  26.333  10.836   0.590
72065W        W38496  21.685  25.947   1.367
72066W        W38497   1.609   3.474  11.539
72067W        W38498  27.909  41.516   0.819
72068W        W38499   2.693  20.617  14.660
72069W        W38500  39.516   9.857  14.534
72070W        W38501  37.049  43.017  10.207
72071W        W38502   1.379   4.918   2.892
72072W        W38503   4.735  25.760   0.488
72073W        W38504   2.329   2.025   4.174
72074W        W38505  33.053   7.349  10.728
72075W        W38506  43.805  17.967   0.547
72076W        W38507   6.188   1.911  14.896
72077W        W38508  26.985  30.961  11.721
72078W        W38509  34.315  19.640   4.869
72079W        W38510  32.504  12.603  11.162
72080W        W38511  20.246  38.130   1.872
72081W        W38512  41.582  28.773  12.473
72082W        W38513  10.135  37.536   1.974
72083W        W38514  35.637  27.120   2.073
72084W        W38515  24.086   1.151  10.145
72085W        W38516  13.456   9.124  14.046
72086W        W38517  33.006  44.439   2.833
72087W        W38518  40.805  22.702   0.742
72088W        W38519  13.200  11.343   2.296
72089W        W38520  14.490  26.260   4.532
72090W        W38521  41.549  35.946  13.628
72091W        W38522   3.806  24.950   1.222
72092W        W38523  41.117  25.434  11.087
72093W        W38524   9.453  43.929   0.875
72094W        W38525  36.096  18.654   1.846
72095W        W38526   0.406  12.100  12.511
72096W        W38527  36.965  28.547  13.926
72097W        W38528  11.703  43.504   2.183
72098W        W38529  34.577  33.092  12.536
72099W        W38530  23.054  22.147   4.052
72100W        W38531  20.027  24.006  12.427
72101W        W38532  19.692  30.201  14.297
72102W        W38533  30.934  43.556   1.274
72103W        W38534   8.133  29.911  11.599
72104W        W38535  13.071  38.421   0.752
72105W        W38536   3.318  41.754   3.669
72106W        W38537   2.848  13.420   2.853
72107W        W38538  12.242  21.661  12.107
72108W        W38539  32.070  25.340   4.704
72109W        W38540   1.355  33.734   0.696
72110W        W38541  38.405  39.383   2.262
72111W        W38542  27.073  42.945   2.698
72112W        W38543   2.782   4.302  11.817
72113W        W38544  41.565  32.172  14.722
72114W        W38545  26.335  10.498   2.337
72115W        W38546  11.875  16.093  14.570
72116W        W38547  41.972   7.787   4.889
72117W        W38548  34.952  31.963  13.805
72118W        W38549  11.576  18.378  14.981
72119W        W38550  12.265   5.965   3.209
72120W        W38551   6.645  15.929   3.458
72121W        W38552  17.041   0.713  14.252
72122W        W38553  20.674   2.233   2.925
72123W        W38554  30.925  30.831   4.005
72124W        W38555  27.960  30.348  12.460
72125W        W38556   0.976  36.093  14.869
72126W        W38557  42.308  13.678  12.633
72127W        W38558  42.575  12.653  10.974
72128W        W38559   3.450  22.020   0.492
72129W        W38560   2.989  32.941  14.258
72130W        W38561  35.943  29.068   1.927
72131W        W38562  15.064   0.711   3.488
72132W        W38563   6.910  31.043   3.225
72133W        W38564  24.654  26.913   1.275
72134W        W38565  32.174  10.163   0.282
72135W        W38566  30.845  13.315  14.050
72136W        W38567  13.747  30.474   3.238
72137W        W38568  24.511  42.252   3.829
72138W        W38569  35.013  11.140   1.601
72139W        W38570  29.954  37.045   2.190
72140W        W38571  31.680  25.205  13.318
72141W        W38572   0.946  40.967  11.591
72142W        W38573   4.188   8.591   4.396
72143W        W38574  14.523  24.930   4.096
72144W        W38575  35.680  19.158  11.499
72145W        W38576  24.007  40.305   4.612
72146W        W38577  36.134  27.168   1.210
72147W        W38578  17.775  44.264   3.057
72148W        W38579  20.161  19.743  10.089
72149W        W38580  18.054  28.208  14.375
72150W        W38581  37.797  26.115   4.569
72151W        W38582  32.934  14.613   4.447
72152W        W38583  12.149  21.518  14.742
72153W        W38584  22.301   5.880  10.674
72154W        W38585  10.789  25.187  11.948
72155W        W38586   0.953  41.297  10.717
72156W        W38587  42.739  28.804   1.814
72157W        W38588  19.667  37.391  12.395
72158W        W38589  14.377  20.577  12.495
72159W        W38590   5.950  19.996   2.132
72160W        W38591  28.471  38.052  13.835
72161W        W38592   8.989  16.507  11.596
72162W        W38593  17.996  28.914  13.850
72163W        W38594   2.984  10.899   0.751
72164W        W38595  38.724  35.669  11.355
72165W        W38596  25.366   2.958   1.413
72166W        W38597  35.564   6.350  13.261
72167W        W38598   7.749  31.533   0.207
72168W        W38599  40.303  11.218   2.258
72169W        W38600  27.584  39.854   0.715
72170W        W38601  21.167  12.263  11.932
72171W        W38602  25.045  37.630   0.485
72172W        W38603   8.026   4.133   1.499
72173W        W38604  13.276  36.655   0.094
72174W        W38605  35.338  25.590   2.137
72175W        W38606  28.213   9.951   4.544
72176W        W38607  41.949  32.041   1.392
72177W        W38608  41.095  14.107  11.175
72178W        W38609  41.787  29.759   1.320
72179W        W38610  15.671  40.982  14.832
72180W        W38611  19.550  19.588   4.324
72181W        W38612  12.663  27.506  14.732
72182W        W38613   1.454   6.863   2.368
72183W        W38614  36.301  43.320   1.925
72184W        W38615  14.864  34.543  10.712
72185W        W38616  23.253  17.812  12.103
72186W        W38617  17.254  24.757  13.805
72187W        W38618  40.088  29.708  14.318
72188W        W38619  25.033  26.567   0.200
72189W        W38620  12.188   3.152   2.806
72190W        W38621  37.504   1.139   1.605
72191W        W38622  18.715  39.802  11.085
72192W        W38623  38.414  17.699   1.460
72193W        W38624  41.255   0.488  13.792
72194W        W38625  37.022  13.612   4.617
72195W        W38626  42.750  13.914   2.152
72196W        W38627  44.864  32.939  14.866
72197W        W38628   2.502  33.989   2.738
72198W        W38629   1.245  29.992   0.994
72199W        W38630  28.131  35.890   0.891
72200W        W38631  35.019  17.285   4.799
72201W        W38632   3.725   7.143  12.154
72202W        W38633  39.010  15.160   0.917
72203W        W38634  25.644  17.956   0.848
72204W        W38635  25.731  27.615   3.424
72205W        W38636  20.131  27.388   2.378
72206W        W38637  41.639  36.942   4.692
72207W        W38638   1.672  21.921   3.749
72208W        W38639   5.270  43.481   4.391
72209W        W38640  35.601  16.586  14.565
72210W        W38641  22.207  36.878   4.628
72211W        W38642  16.151  33.445  12.545
72212W        W38643  11.905   2.818   3.445
72213W        W38644  11.679  29.758  11.649
72214W        W38645  24.686   7.046   1.271
72215W        W38646  14.223  22.541  14.026
72216W        W38647  37.278  31.432   3.607
72217W        W38648  41.541  10.436  13.377
72218W        W38649  25.665  14.357   0.786
72219W        W38650   2.495   0.192   1.345
72220W        W38651  26.062  39.886   3.564
72221W        W38652  25.169  26.110   3.916
72222W        W38653  23.705  33.646  11.675
72223W        W38654  11.259  30.049  11.950
72224W        W38655   9.226   2.915   0.816
72225W        W38656  22.259  42.114  14.733
72226W        W38657  12.203   3.871  11.120
72227W        W38658  12.968  15.512  14.031
72228W        W38659   4.706  37.008  12.219
72229W        W38660  11.974   2.612  10.098
72230W        W38661   9.113  34.474   3.588
72231W        W38662  35.447   9.140  12.087
72232W        W38663  38.560  18.322  11.182
72233W        W38664  39.542  14.878   2.756
72234W        W38665  32.101  35.435   3.087
72235W        W38666  42.930  33.267   5.003
72236W        W38667   2.917  18.273   2.297
72237W        W38668  19.119  22.092   1.914
72238W        W38669  40.995  17.142   0.976
72239W        W38670   8.222  35.895  10.637
72240W        W38671   0.730  43.982   3.072
72241W        W38672  34.969  32.584   1.891
72242W        W38673  18.441  29.113  11.615
72243W        W38674  26.176   5.356  10.741
72244W        W38675   4.471  41.479  12.118
72245W        W38676  20.620  11.675  13.968
72246W        W38677  38.381  21.286   2.821
72247W        W38678  15.225  18.786   4.190
72248W        W38679  40.536  21.458   3.970
72249W        W38680   3.157   0.109   4.195
72250W        W38681   2.795  20.579   3.272
72251W        W38682  25.500  36.331   2.399
72252W        W38683   4.806   1.210  12.114
72253W        W38684   6.220   7.226   3.155
72254W        W38685  16.572   6.761  11.119
72255W        W38686   4.318  31.905  14.311
72256W        W38687  43.056  16.617  13.026
72257W        W38688  16.404   9.020   4.180
72258W        W38689  35.584  41.845  14.434
72259W        W38690   3.274  38.385   4.578
72260W        W38691  33.378  26.520   5.242
72261W        W38692   4.224  18.078  13.121
72262W        W38693  35.088  42.433  14.921
72263W        W38694   4.350  25.177  10.886
72264W        W38695  25.805  13.106   3.800
72265W        W38696  37.753  39.945  13.588
72266W        W38697   8.163  32.384   0.987
72267W        W38698  27.194  12.187  12.884
72268W        W38699  32.816   7.124   4.623
72269W        W38700  44.518   0.471  12.477
72270W        W38701   2.695  39.510   4.752
72271W        W38702  16.102   6.876   0.693
72272W        W38703  44.474   6.391   4.191
72273W        W38704  31.805  12.883  10.670
72274W        W38705   6.075  34.888  13.993
72275W        W38706  34.419  32.150  11.956
72276W        W38707  26.666   5.247  14.353
72277W        W38708   8.092  23.297   1.436
72278W        W38709  33.903  18.270  13.241
72279W        W38710  16.321   4.882  12.507
72280W        W38711  39.045  44.167   1.349
72281W        W38712  28.241  28.644   4.730
72282W        W38713  38.441  15.579   2.114
72283W        W38714  38.470  14.945   1.612
72284W        W38715   7.897  13.130   1.733
72285W        W38716   1.875  10.358  12.344
72286W        W38717  35.770   0.973  14.616
72287W        W38718  38.968   3.029   1.234
72288W        W38719  31.242   6.923  12.641
72289W        W38720  37.895  20.240   4.208
72290W        W38721  32.908  32.331   0.698
72291W        W38722   4.483  10.725   0.180
72292W        W38723  43.704  21.982  12.980
72293W        W38724  24.207  32.196   1.913
72294W        W38725  10.207  29.633  10.727
72295W        W38726  41.079   9.126  10.689
72296W        W38727  14.190  38.336  10.408
72297W        W38728   5.479   9.017   4.166
72298W        W38729  43.186   8.639   5.039
72299W        W38730  41.841  13.038   2.312
72300W        W38731   4.353  32.568  10.927
72301W        W38732  26.548   2.731   5.095
72302W        W38733  31.196  31.646   0.305
72303W        W38734  35.877   9.398  11.117
72304W        W38735  24.526  34.635  11.196
72305W        W38736  38.583  17.808   3.925
72306W        W38737  13.727  33.529   3.636
72307W        W38738  14.838  41.978   0.255
72308W        W38739  11.797  40.123   0.673
72309W        W38740   5.684  26.809   0.384
72310W        W38741   6.352   8.132  13.931
72311W        W38742   1.928  10.873   3.264
72312W        W38743  31.683   6.779  10.271
72313W        W38744   7.850  26.943   1.675
72314W        W38745  11.901  39.885   4.252
72315W        W38746  11.528  23.517  11.098
72316W        W38747  19.829  32.024  12.471
72317W        W38748  39.359   0.068  11.556
72318W        W38749  17.597  14.558   2.877
72319W        W38750  29.906  13.357   0.902
72320W        W38751  24.342  31.060   4.071
72321W        W38752  33.043   3.047  11.757
72322W        W38753  15.300  25.490   2.615
72323W        W38754   5.011  22.583  11.950
72324W        W38755   0.205   2.496  13.952
72325W        W38756  16.756  17.747   1.865
72326W        W38757  21.375  18.491  14.237
72327W        W38758  12.580   3.991   5.102
72328W        W38759  20.565  14.826  14.325
72329W        W38760   8.638   5.177   2.202
72330W        W38761   2.708  32.598   0.989
72331W        W38762  20.263   3.278   1.423
72332W        W38763  12.296  41.199  10.420
72333W        W38764  28.212   3.512  11.122
72334W        W38765  15.371   0.906   2.649
72335W        W38766  40.740  30.976  13.906
72336W        W38767   1.227   5.472  11.039
72337W        W38768  31.496  22.503   0.039
72338W        W38769   2.984   0.943  13.034
72339W        W38770  25.224  37.331   3.274
72340W        W38771  23.868  16.770   4.509
72341W        W38772  15.903   1.524   4.149
72342W        W38773  23.597   1.172  12.123
72343W        W38774   1.971  28.911   3.595
72344W        W38775  17.152  36.374   1.869
72345W        W38776  34.754  12.910  10.287
72346W        W38777  11.332  10.175  13.229
72347W        W38778   9.171  30.003   3.098
72348W        W38779   3.519   5.876   4.334
72349W        W38780   1.074  24.765  13.973
72350W        W38781  32.074  25.000   2.200
72351W        W38782  18.225  28.186  13.470
72352W        W38783  40.076   7.362   3.883
72353W        W38784   8.387   3.898  13.546
72354W        W38785  24.191  43.368  11.177
72355W        W38786  44.127   4.816   4.329
72356W        W38787  10.426  10.124   5.037
72357W        W38788  16.461  23.152  10.234
72358W        W38789  21.599   0.977  11.245
72359W        W38790  18.670  29.285   3.599
72360W        W38791  11.392  34.930   4.414
72361W        W38792  12.361   8.374  12.141
72362W        W38793  42.613  42.734  14.499
72363W        W38794  18.788   5.471  10.618
72364W        W38795  22.929  44.907   0.251
72365W        W38796  38.190  44.439   3.319
72366W        W38797   4.822  41.402  13.561
72367W        W38798  11.095  19.286   0.847
72368W        W38799  37.171  33.834  13.853
72369W        W38800  34.276  36.145  12.078
72370W        W38801  33.404  23.149   1.324
72371W        W38802  35.832  27.517   4.577
72372W        W38803  42.981  23.695  13.957
72373W        W38804  23.615  23.263  13.594
72374W        W38805   3.247  33.694   2.313
72375W        W38806  13.130   2.773   2.770
72376W        W38807  34.642  38.497  10.719
72377W        W38808  30.679  14.434   0.297
72378W        W38809  39.509   7.804   4.840
72379W        W38810  38.919  42.010   0.344
72380W        W38811  38.059  30.090  14.998
72381W        W38812  42.749  39.452   2.798
72382W        W38813  25.766  28.594   0.728
72383W        W38814  28.123  34.354   4.922
72384W        W38815  17.029  32.000  10.309
72385W        W38816   6.283  37.897   0.301
72386W        W38817  18.598  24.142  13.291
72387W        W38818  19.130  25.275   3.261
72388W        W38819  26.745  21.101  10.485
72389W        W38820  43.832  44.501   3.367
72390W        W38821  37.371  19.087  13.190
72391W        W38822  33.342  27.595   1.458
72392W        W38823  12.326  25.530   0.648
72393W        W38824  41.976   5.891  11.649
72394W        W38825  31.675  39.086   1.758
72395W        W38826  28.576  25.202   3.738
72396W        W38827   5.365  15.713   4.049
72397W        W38828   4.331  35.103  12.112
72398W        W38829  42.513  20.823   2.748
72399W        W38830   5.854  19.566  14.035
72400W        W38831  21.627  42.963   2.402
72401W        W38832   9.763  10.083   1.020
72402W        W38833   0.361  20.832  10.745
72403W        W38834  32.071  15.024   2.713
72404W        W38835  22.086  33.402   5.265
72405W        W38836   1.533  12.344   2.312
72406W        W38837  12.717  36.116   0.548
72407W        W38838  23.686   7.397   0.189
72408W        W38839  18.799  28.145  12.975
72409W        W38840  23.715  20.046  11.446
72410W        W38841   6.382  27.843  12.587
72411W        W38842  17.143  26.463   1.852
72412W        W38843   5.226  19.588   0.721
72413W        W38844  26.943   6.752   2.600
72414W        W38845  41.301  42.785  10.652
72415W        W38846   0.655  20.435  12.421
72416W        W38847  39.551  42.439  11.972
72417W        W38848  33.842  41.596   1.353
72418W        W38849  44.422  19.062  13.390
72419W        W38850  13.591  30.709  12.365
72420W        W38851  33.661   7.295  13.995
72421W        W38852  17.568  32.724   2.199
72422W        W38853  26.218  30.588  14.814
72423W        W38854   9.223  18.361  12.954
72424W        W38855  31.339  42.882   3.098
72425W        W38856  26.903  26.316   3.900
72426W        W38857  17.308  37.185   1.204
72427W        W38858  13.054   7.625   1.661
72428W        W38859  37.961  17.117  10.560
72429W        W38860  26.730  10.687   3.263
72430W        W38861  29.834  13.775  11.207
72431W        W38862  11.191  27.488  13.312
72432W        W38863  16.157   2.858  10.688
72433W        W38864  11.386  42.758   2.721
72434W        W38865  23.842   0.906   4.670
72435W        W38866  44.208  35.298   0.233
72436W        W38867  44.026  43.790   1.636
72437W        W38868   4.353  15.289  11.467
72438W        W38869  28.064  24.456   2.217
72439W        W38870   9.405  44.936  14.304
72440W        W38871  14.751   6.547   4.161
72441W        W38872   2.168   6.407  11.644
72442W        W38873  30.890  26.690  12.556
72443W        W38874  41.380  18.304   3.644
72444W        W38875  42.331   2.245   0.913
72445W        W38876  42.298  41.496  11.926
72446W        W38877  31.002  26.682  11.209
72447W        W38878  17.456  11.341   0.913
72448W        W38879   6.028   2.052  11.066
72449W        W38880   9.916   9.053   2.713
72450W        W38881  23.952  35.899   5.069
72451W        W38882   1.092  24.532  12.426
72452W        W38883  23.251  11.149  13.459
72453W        W38884  20.288   1.237   3.907
72454W        W38885  31.513  26.028  13.838
72455W        W38886   3.971   6.993  11.369
72456W        W38887  23.306  44.814  10.903
72457W        W38888  20.637  12.833  14.536
72458W        W38889  18.492  38.938   2.261
72459W        W38890  15.531   6.797  13.997
72460W        W38891   2.453  41.416   3.807
72461W        W38892   2.548  31.497   1.473
72462W        W38893   9.261  21.375   4.706
72463W        W38894  37.538  37.109   3.704
72464W        W38895  43.810   2.692  14.146
72465W        W38896  37.010   2.501   3.224
72466W        W38897   3.318  36.623  12.544
72467W        W38898  20.526   7.416  10.769
72468W        W38899  14.278  30.943  14.882
72469W        W38900  44.257   7.418   2.955
72470W        W38901  29.683  39.087  10.773
72471W        W38902  26.524  24.886   3.232
72472W        W38903  25.000  39.023  12.852
72473W        W38904  18.186  22.396   0.471
72474W        W38905  33.124  30.396  12.198
72475W        W38906  14.329  10.710   1.724
72476W        W38907  44.207  16.398  12.665
72477W        W38908  35.465  20.555   3.151
72478W        W38909  40.779  33.279  14.017
72479W        W38910  16.935  29.682  10.607
72480W        W38911  28.952  18.655  12.096
72481W        W38912  18.214   9.667   2.460
72482W        W38913  43.234  18.723  14.998
72483W        W38914  16.619   1.684   3.611
72484W        W38915  17.537   8.873  14.462
72485W        W38916  23.575  14.253   4.575
72486W        W38917  36.002  17.072  12.439
72487W        W38918  27.914   0.400  12.701
72488W        W38919  18.775  19.689   1.683
72489W        W38920  37.315  15.780   4.554
72490W        W38921   0.025  19.644   1.854
72491W        W38922   0.007   3.737  10.548
72492W        W38923  11.718   3.331  10.686
72493W        W38924  22.513  19.190  12.495
72494W        W38925   1.418  14.742  13.914
72495W        W38926  23.497   5.649   4.678
72496W        W38927  13.531   3.505   4.548
72497W        W38928  18.900  16.357   1.844
72498W        W38929  41.442  19.224   3.440
72499W        W38930  43.017  37.433   2.162
72500W        W38931  18.097   7.389   1.246
72501W        W38932  39.097  21.671   1.337
72502W        W38933  23.046   9.241   2.851
72503W        W38934  18.513  30.932   1.368
72504W        W38935  25.476  22.175   1.543
72505W        W38936  18.703  14.884  11.317
72506W        W38937  41.425  37.636  13.326
72507W        W38938  43.297  30.936   0.359
72508W        W38939  35.837  43.878  12.532
72509W        W38940  23.502  35.359   1.986
72510W        W38941   4.793  12.348  11.416
72511W        W38942  41.336  26.998   0.240
72512W        W38943  22.685   0.508   1.816
72513W        W38944   7.259  25.733   2.966
72514W        W38945  15.078  31.630  11.605
72515W        W38946  35.326  41.611   0.017
72516W        W38947  15.988   7.881   3.182
72517W        W38948  39.177   2.501   0.053
72518W        W38949  31.418  42.981   0.226
72519W        W38950  16.587  36.133  10.759
72520W        W38951  25.788   5.760   5.120
72521W        W38952  43.944  16.211   4.586
72522W        W38953  42.829  18.259   3.638
72523W        W38954  28.627  11.421   0.787
72524W        W38955  18.591  43.858  14.170
72525W        W38956   5.828  10.855   0.030
72526W        W38957   1.799  41.927  13.585
72527W        W38958  29.549  34.040  10.447
72528W        W38959  31.596  29.626  14.018
72529W        W38960   9.663  32.061   1.759
72530W        W38961   6.135  14.940   9.619
72531W        W38962  25.864  16.934   4.906
72532W        W38963  19.648  30.424  11.113
72533W        W38964  25.624  25.839  13.360
72534W        W38965  39.449  39.449  12.762
72535W        W38966  29.959  25.689   4.600
72536W        W38967   9.735  32.331   2.229
72537W        W38968   3.725  14.241   3.186
72538W        W38969   3.500  37.868  11.488
72539W        W38970   1.201  24.286  11.158
72540W        W38971  40.793  20.784  10.788
72541W        W38972  40.257  34.690  12.003
72542W        W38973  27.312  26.027   0.759
72543W        W38974  20.561  36.853   3.093
72544W        W38975  31.058  15.951  13.977
72545W        W38976  35.921  33.402   3.694
72546W        W38977   0.791  26.211   2.699
72547W        W38978  43.793  16.220   2.216
72548W        W38979  36.533  11.809   4.609
72549W        W38980  40.576  17.234  14.089
72550W        W38981  37.522  17.146   4.552
72551W        W38982  12.596  11.258   0.403
72552W        W38983   3.051   4.815   9.865
72553W        W38984  31.115  35.370   0.800
72554W        W38985  11.961  24.764   1.778
72555W        W38986  30.687  19.024  14.792
72556W        W38987  37.604  34.733   2.348
72557W        W38988  14.548  29.544   4.568
72558W        W38989  12.069  34.480   2.064
72559W        W38990  17.694  39.980  12.828
72560W        W38991  18.170  12.325  12.109
72561W        W38992  35.839  25.752   1.429
72562W        W38993  22.294   2.912  12.335
72563W        W38994  10.694  40.070  14.039
72564W        W38995   0.555   2.832  11.734
72565W        W38996  43.586  42.916  13.623
72566W        W38997  34.988  39.002  12.074
72567W        W38998   1.190  21.677   4.125
72568W        W38999  22.094  31.638  11.944
72569W        W39000  37.044   0.165  11.981
72570W        W39001   3.483   4.670  14.929
72571W        W39002  28.903  13.002  11.925
72572W        W39003  38.514  12.246  14.811
72573W        W39004  39.963  38.657   0.911
72574W        W39005   1.421  37.631  11.621
72575W        W39006  26.749  35.942  13.340
72576W        W39007  10.433  31.413  12.819
72577W        W39008  12.559  27.356   2.638
72578W        W39009  34.719  36.717  14.790
72579W        W39010  10.030  27.278   2.701
72580W        W39011  43.388  31.743   1.711
72581W        W39012  10.216  44.958   1.474
72582W        W39013  41.164   7.932  12.627
72583W        W39014   1.551  12.421  12.940
72584W        W39015   2.414   5.337   0.914
72585W        W39016   2.204  34.399  12.297
72586W        W39017  13.139   3.520   4.198
72587W        W39018   2.640  29.404  11.905
72588W        W39019   8.104   3.272   4.525
72589W        W39020  25.401  29.534   2.697
72590W        W39021  27.428  22.138  13.497
72591W        W39022   1.030  40.120  14.970
72592W        W39023   8.382  13.248  13.047
72593W        W39024  29.533   1.480  12.567
72594W        W39025  16.822  20.679  14.991
72595W        W39026  11.872  17.534  13.350
72596W        W39027  35.928  15.231  13.520
72597W        W39028   6.167  31.540  13.398
72598W        W39029  28.034  34.375   1.105
72599W        W39030  26.290  25.491  11.179
72600W        W39031  27.465  14.140   4.255
72601W        W39032  23.305  30.937   3.808
72602W        W39033  34.563  29.051   4.556
72603W        W39034  13.052   6.890   3.660
72604W        W39035  33.914  10.781   4.194
72605W        W39036  22.032  17.690  14.404
72606W        W39037  35.599  15.635  14.742
72607W        W39038  39.629  21.749   1.204
72608W        W39039  12.265  32.482   3.721
72609W        W39040  40.863  43.097   0.266
72610W        W39041  33.412  37.192   2.407
72611W        W39042  30.082  30.692  11.584
72612W        W39043  26.389  19.734  13.982
72613W        W39044  15.306  27.162  12.725
72614W        W39045   1.246   2.358  14.047
72615W        W39046  12.922   5.995   0.026
72616W        W39047  40.514  10.190   3.146
72617W        W39048  34.129  23.285  12.482
72618W        W39049   6.858  39.308   4.162
72619W        W39050  15.781  37.179  12.336
72620W        W39051  24.212   9.420  14.816
72621W        W39052  33.470  32.029   0.797
72622W        W39053  25.051   8.169  13.698
72623W        W39054   9.349  18.226   4.465
72624W        W39055   8.221  10.714  13.087
72625W        W39056  36.615  21.109   4.327
72626W        W39057   2.518  24.531   3.569
72627W        W39058  43.543  35.695  13.392
72628W        W39059  42.836  28.475  11.358
72629W        W39060  23.759   1.861  14.326
72630W        W39061  31.588  24.778   3.324
72631W        W39062  35.134  28.086   1.171
72632W        W39063  16.368  34.562   4.077
72633W        W39064  43.296  37.813  13.311
72634W        W39065  24.839  27.422   3.207
72635W        W39066  39.988  13.264   1.286
72636W        W39067   7.696   3.222   4.076
72637W        W39068   6.276  32.994   1.882
72638W        W39069  21.012   6.937   0.977
72639W        W39070  12.443   2.760   1.345
72640W        W39071   5.878  31.945  12.167
72641W        W39072   5.779   3.322  13.360
72642W        W39073  39.403  19.581  10.629
72643W        W39074   8.527  15.936   2.359
72644W        W39075  34.177  22.105   2.127
72645W        W39076  25.973  32.071  11.569
72646W        W39077  12.960   1.698   3.761
72647W        W39078  43.311   9.408  14.322
72648W        W39079  29.819  42.584  13.876
72649W        W39080  41.865  26.247   4.123
72650W        W39081   1.318  17.002   3.430
72651W        W39082  37.224  20.264  13.242
72652W        W39083   3.939   6.138   3.375
72653W        W39084  29.920  35.783  11.006
72654W        W39085  20.589  32.970   2.269
72655W        W39086  31.419  22.552   2.278
72656W        W39087  10.001  21.753  12.470
72657W        W39088  37.469  14.402   2.149
72658W        W39089   5.239   8.959   0.933
72659W        W39090  38.600  34.896   4.966
72660W        W39091  20.588  32.499  13.699
72661W        W39092   3.399  25.153  10.746
72662W        W39093  30.212  13.007  12.920
72663W        W39094  13.653  26.951   1.539
72664W        W39095  38.924  19.581   2.604
72665W        W39096   9.146  23.291  13.232
72666W        W39097  23.652  40.780  10.705
72667W        W39098  39.702  27.509   2.159
72668W        W39099  29.895  39.062   1.355
72669W        W39100   9.584  40.141  14.683
72670W        W39101  32.768  29.641  13.431
72671W        W39102  37.036  40.993  12.043
72672W        W39103  12.822  38.908  10.801
72673W        W39104  22.249  35.117   2.332
72674W        W39105   0.319  10.645  13.953
72675W        W39106   6.952  15.795  10.824
72676W        W39107  36.472   8.593  14.821
72677W        W39108  26.015  34.859   4.103
72678W        W39109  32.188  30.633  14.722
72679W        W39110  35.604  11.665  14.943
72680W        W39111  38.354  28.007   2.756
72681W        W39112  39.113   4.522   4.176
72682W        W39113  23.498  22.159  13.579
72683W        W39114  37.637  40.320  13.937
72684W        W39115  10.852  36.469   1.134
72685W        W39116  28.936  36.995  12.638
72686W        W39117   9.664  29.478  11.577
72687W        W39118  26.255  41.532  11.317
72688W        W39119  25.255  37.683  13.338
72689W        W39120  21.576  15.849   2.303
72690W        W39121  34.318  38.700   5.505
72691W        W39122   2.731   0.746   4.605
72692W        W39123   6.708  16.405   3.217
72693W        W39124  43.210  44.340   1.270
72694W        W39125  32.045   3.510  12.931
72695W        W39126  44.616  24.372   2.788
72696W        W39127  38.988  30.027  12.539
72697W        W39128  31.410  41.481   1.966
72698W        W39129   7.916  13.676  13.401
72699W        W39130  27.599  23.014   1.067
72700W        W39131  34.702  19.732   0.442
72701W        W39132  37.635  40.275   4.132
72702W        W39133  20.763  33.892  10.662
72703W        W39134  25.045  26.529   1.207
72704W        W39135   0.378  22.507   0.283
72705W        W39136  21.082  42.100  10.061
72706W        W39137  42.729  23.122  10.639
72707W        W39138  19.521  43.334   0.320
72708W        W39139  21.813  33.484   2.450
72709W        W39140  35.547  20.059  11.333
72710W        W39141  39.149  37.791  11.536
72711W        W39142  12.076  43.372  12.472
72712W        W39143  43.217  18.617   3.259
72713W        W39144  25.730  30.455   3.624
72714W        W39145  11.696  32.583  12.481
72715W        W39146  43.332  23.030  12.412
72716W        W39147  36.709  34.302   1.326
72717W        W39148  36.860  41.310   1.373
72718W        W39149   5.808   9.736  13.464
72719W        W39150  43.598  42.795  10.886
72720W        W39151   1.431   4.244   2.635
72721W        W39152  22.884  31.579  13.476
72722W        W39153  35.096  16.263   4.532
72723W        W39154   7.625  13.100   2.199
72724W        W39155  18.811  41.789   0.798
72725W        W39156  27.088  32.182  10.973
72726W        W39157   6.941  37.546  14.829
72727W        W39158  30.448   1.493   1.789
72728W        W39159   7.832  12.498  14.414
72729W        W39160  15.714  42.114  11.558
72730W        W39161  23.203  22.449  14.566
72731W        W39162  17.970  44.446  12.390
72732W        W39163  11.669  25.050   3.814
72733W        W39164  37.330  23.061  14.685
72734W        W39165  37.279  37.182   0.265
72735W        W39166  17.923  43.815   3.963
72736W        W39167  27.036  22.017  10.562
72737W        W39168  24.935   8.556  14.012
72738W        W39169  25.283  17.831   2.447
72739W        W39170  44.441   4.954  10.683
72740W        W39171  35.105  41.019  14.379
72741W        W39172  34.414  37.459  14.324
72742W        W39173  13.838  35.517   0.763
72743W        W39174  13.322  34.256  11.966
72744W        W39175  32.915  36.225   3.506
72745W        W39176  10.776  34.912   0.812
72746W        W39177  15.534  28.449   0.353
72747W        W39178   8.227  39.630  14.430
72748W        W39179  16.206  39.808  10.930
72749W        W39180   1.037  10.587   3.266
72750W        W39181  15.234  13.249  14.540
72751W        W39182   4.910  31.073  14.525
72752W        W39183  35.339  32.648   1.035
72753W        W39184  17.253  40.921  14.085
72754W        W39185  36.565  26.438   4.962
72755W        W39186  17.282  28.326  10.643
72756W        W39187  41.317  18.012   2.575
72757W        W39188  26.195  30.685  11.417
72758W        W39189  14.773  26.017  14.535
72759W        W39190  43.610   1.887   1.384
72760W        W39191   9.190  27.960   4.598
72761W        W39192  35.350  26.236  14.377
72762W        W39193   0.526  18.375  14.383
72763W        W39194  33.537  16.614   0.244
72764W        W39195   3.944   6.312   1.860
72765W        W39196  30.653   9.990  11.153
72766W        W39197  19.574   2.534   0.425
72767W        W39198  10.223  18.586   0.368
72768W        W39199  22.363   7.802   2.643
72769W        W39200  19.833  23.670   1.090
72770W        W39201  37.956   2.247  14.800
72771W        W39202   2.463  15.074  12.464
72772W        W39203  37.483  22.712   4.053
72773W        W39204  43.855  20.648  12.995
72774W        W39205  22.550  16.177  12.541
72775W        W39206   6.819  31.988  11.652
72776W        W39207  16.430  15.062  14.087
72777W        W39208  16.995  37.826   0.145
72778W        W39209  31.940  30.533   1.245
72779W        W39210  25.984  34.622   0.823
72780W        W39211  34.575  26.991  12.906
72781W        W39212  34.807  27.027   2.712
72782W        W39213   9.687  29.608   1.637
72783W        W39214   2.506  10.343   3.146
72784W        W39215  32.454  11.048  11.658
72785W        W39216  12.839   7.437  11.700
72786W        W39217  39.833  24.163   1.716
72787W        W39218  34.107  31.020   3.656
72788W        W39219  38.414  25.789   3.374
72789W        W39220  18.637   3.825  14.113
72790W        W39221  35.648  12.214   0.487
72791W        W39222  40.872  12.676   0.817
72792W        W39223  16.814  14.774  13.854
72793W        W39224  18.476  19.137   3.891
72794W        W39225  21.860   2.881   4.501
72795W        W39226  24.282  26.012  13.449
72796W        W39227   4.279  26.422   1.041
72797W        W39228   9.725  22.028  12.810
72798W        W39229   7.746  40.131  10.481
72799W        W39230  27.357   3.438  11.555
72800W        W39231   0.546  31.956   2.736
72801W        W39232   6.478  15.236   2.633
72802W        W39233  37.069  23.024   0.121
72803W        W39234  25.618  33.381  12.838
72804W        W39235  16.009  34.983  14.985
72805W        W39236  31.015  10.256   3.695
72806W        W39237  18.979  35.282  11.193
72807W        W39238  16.897  14.158  12.893
72808W        W39239  39.571  10.976   0.303
72809W        W39240  10.853  10.186  12.901
72810W        W39241   9.419  22.556  11.217
72811W        W39242  41.605   1.112  14.328
72812W        W39243  39.129  20.711   0.173
72813W        W39244  13.822  15.426  11.885
72814W        W39245   3.796  31.489  14.064
72815W        W39246  38.547  21.808  11.543
72816W        W39247  11.755  32.090   0.293
72817W        W39248  20.904  11.058   1.600
72818W        W39249  32.615  16.120   0.760
72819W        W39250  24.679  34.193   3.296
72820W        W39251  22.739  36.607   0.859
72821W        W39252   8.946  14.754   1.873
72822W        W39253  13.004  32.727   4.026
72823W        W39254   2.242  37.652  14.980
72824W        W39255  34.874   0.098  12.875
72825W        W39256   5.284  22.455   1.616
72826W        W39257  14.856   2.190   4.592
72827W        W39258   1.498   4.677  12.096
72828W        W39259  26.477  18.254   2.783
72829W        W39260  37.541  33.589   1.204
72830W        W39261  12.099  11.790  14.349
72831W        W39262  17.241  17.402  10.705
72832W        W39263  37.223   4.825   4.601
72833W        W39264  44.203  35.451  10.806
72834W        W39265   4.438   5.519  11.140
72835W        W39266  25.831   7.367  14.425
72836W        W39267  13.850   1.203   0.299
72837W        W39268  14.303  23.612   3.253
72838W        W39269  28.461   5.384   2.590
72839W        W39270   6.189  35.061   4.568
72840W        W39271  26.548  25.645  11.609
72841W        W39272  39.425  12.944   4.453
72842W        W39273  40.424  35.166  11.729
72843W        W39274  18.119  27.746  11.706
72844W        W39275  14.222  17.550   3.354
72845W        W39276   9.826   3.925   4.923
72846W        W39277  24.141  28.520   2.179
72847W        W39278  40.746  15.868   3.316
72848W        W39279  25.848   2.753  13.401
72849W        W39280  37.455  37.384  11.353
72850W        W39281  13.122   0.487  11.103
72851W        W39282  43.812   9.309  10.948
72852W        W39283  42.563  26.076   1.794
72853W        W39284   1.714   4.383   0.344
72854W        W39285  39.044  20.073   1.828
72855W        W39286  22.711   2.376   3.775
72856W        W39287  40.517  12.559   3.283
72857W        W39288   8.259   5.287  12.903
72858W        W39289  32.114  29.540  13.990
72859W        W39290  41.486  21.049  10.710
72860W        W39291   7.763   6.968   3.450
72861W        W39292  28.131  26.599   3.205
72862W        W39293  22.954  16.779  11.937
72863W        W39294  37.194  34.871  10.033
72864W        W39295  38.816   3.924  13.089
72865W        W39296  37.915   2.713   3.418
72866W        W39297   1.842  35.071   2.686
72867W        W39298  23.447  24.895  14.967
72868W        W39299  44.802   8.430  13.028
72869W        W39300  19.556  21.652  11.700
72870W        W39301  11.915  36.037   5.085
72871W        W39302  13.195   7.632  13.529
72872W        W39303  37.994  23.213  12.129
72873W        W39304  11.386  31.964   2.469
72874W        W39305   3.918  43.342  13.407
72875W        W39306  32.619  39.229   1.841
72876W        W39307  41.389  13.867  10.652
72877W        W39308   7.930   8.916   3.658
72878W        W39309  44.926  14.660  11.939
72879W        W39310   7.169  43.586   0.881
72880W        W39311  25.287  13.644   0.418
72881W        W39312  43.402   4.334   2.344
72882W        W39313  12.195   6.000   9.822
72883W        W39314  24.024  11.911  11.943
72884W        W39315  20.770   9.071   0.497
72885W        W39316  28.125   4.754   3.764
72886W        W39317  15.743  17.539   1.931
72887W        W39318  25.180   0.459   4.864
72888W        W39319  28.259  10.343  12.980
72889W        W39320  10.096  19.309   1.190
72890W        W39321  39.966  40.943   1.757
72891W        W39322  41.827  33.879  11.083
72892W        W39323  33.032  19.498  11.434
72893W        W39324  29.939  43.008   3.146
72894W        W39325  39.894  30.194  10.298
72895W        W39326  36.293   9.942  10.514
72896W        W39327  10.454  33.486   3.245
72897W        W39328  27.532  27.154   3.045
72898W        W39329  29.486  39.510  12.034
72899W        W39330  29.054  27.752  10.699
72900W        W39331  32.446   0.514  10.711
72901W        W39332  37.789  40.969   0.822
72902W        W39333  37.270  38.479   0.280
72903W        W39334  29.129   2.440  10.955
72904W        W39335  26.373  24.157  14.983
72905W        W39336   3.275  37.800  14.790
72906W        W39337  29.641  43.863  12.723
72907W        W39338  26.453  20.177   3.173
72908W        W39339  40.404  30.706  12.515
72909W        W39340  18.576  37.502  11.899
72910W        W39341  18.818  11.190  11.913
72911W        W39342  28.603  40.830   1.823
72912W        W39343  38.419   9.625  10.754
72913W        W39344  26.176  31.105   3.784
72914W        W39345   1.333  12.840  14.514
72915W        W39346  18.704   1.071  12.365
72916W        W39347   6.648   5.937   0.912
72917W        W39348  18.029  12.562  11.658
72918W        W39349  15.093  18.516  11.584
72919W        W39350  22.403   2.490   1.513
72920W        W39351   1.768   4.760   0.683
72921W        W39352   0.922  35.851   4.059
72922W        W39353   3.516  26.010  13.369
72923W        W39354  23.151   0.519   3.100
72924W        W39355  11.533  43.267  12.510
72925W        W39356   4.450  15.811  12.387
72926W        W39357   2.819  10.827  12.474
72927W        W39358  28.931   3.736   4.631
72928W        W39359  40.155   2.419  13.993
72929W        W39360  34.475  35.974  12.534
72930W        W39361  32.268  38.850  14.872
72931W        W39362  26.599  11.108   4.397
72932W        W39363  20.204  39.587   0.927
72933W        W39364  40.980  30.187   0.247
72934W        W39365  41.862   1.206  13.883
72935W        W39366  41.450  20.068  14.269
72936W        W39367   8.902   1.670   2.276
72937W        W39368  32.814   6.505  11.057
72938W        W39369   8.918  30.160  13.843
72939W        W39370  20.411  39.077   2.139
72940W        W39371  42.304   1.987  14.050
72941W        W39372  13.266  22.966   4.054
72942W        W39373  22.164   5.241   0.390
72943W        W39374   3.884  14.071  14.324
72944W        W39375  21.182  13.034   5.114
72945W        W39376  43.855  35.994  13.773
72946W        W39377  25.942   2.077  11.880
72947W        W39378   5.674  12.116  11.301
72948W        W39379  23.477  35.129   0.471
72949W        W39380  26.258  37.745   0.440
72950W        W39381   9.992  36.138  14.296
72951W        W39382   5.840  31.953   1.854
72952W        W39383  29.378  15.070  10.476
72953W        W39384   5.688  17.581   3.610
72954W        W39385   7.908  25.608  11.122
72955W        W39386  13.125  21.465  10.621
72956W        W39387  39.373  19.105  14.415
72957W        W39388  15.687  21.028  10.977
72958W        W39389  22.125  12.154   1.240
72959W        W39390  19.045   2.587  14.882
72960W        W39391  25.761  23.162   3.228
72961W        W39392  40.030  20.504  14.341
72962W        W39393  34.051  18.997  12.005
72963W        W39394  14.657  16.709  14.554
72964W        W39395  39.583  22.772   0.342
72965W        W39396  19.658  26.605  12.045
72966W        W39397  40.085  41.287  11.486
72967W        W39398  16.518  20.192   3.397
72968W        W39399  14.583  12.030   3.872
72969W        W39400  12.087  21.859  10.003
72970W        W39401  33.585  41.422   5.026
72971W        W39402  43.433  32.526  12.624
72972W        W39403  32.080  43.893  12.010
72973W        W39404   2.449  23.296   0.897
72974W        W39405   1.903  37.113   3.269
72975W        W39406   8.267  23.749   2.322
72976W        W39407  21.229  12.845  10.264
72977W        W39408  13.971  38.092  12.583
72978W        W39409  44.922  23.474  11.633
72979W        W39410  14.920  28.377  13.345
72980W        W39411  14.413  11.805  10.521
72981W        W39412  24.698  22.395   5.044
72982W        W39413   9.225  10.936   1.907
72983W        W39414   7.296   7.403  11.585
72984W        W39415  11.668   8.288  10.521
72985W        W39416  15.241  33.948   1.840
72986W        W39417  18.738  15.075  14.844
72987W        W39418  39.952  36.294   4.151
72988W        W39419   3.289  37.112   2.878
72989W        W39420  20.208  30.937   2.780
72990W        W39421  25.219  43.581   1.017
72991W        W39422  23.697  39.050  11.420
72992W        W39423  24.797  18.656   0.335
72993W        W39424  40.086  17.107  13.974
72994W        W39425  24.826   1.726   4.238
72995W        W39426  28.629  26.503   4.151
72996W        W39427  44.382  10.104   2.602
72997W        W39428  37.878  22.310  14.854
72998W        W39429  39.504   3.769   2.266
72999W        W39430   3.993  41.046   2.780
73000W        W39431  19.909  38.263   4.878
73001W        W39432  35.064  20.221  11.242
73002W        W39433   4.594   7.754  12.017
73003W        W39434   2.419   5.857  12.265
73004W        W39435  34.453  19.544   1.943
73005W        W39436  38.146  34.643   5.023
73006W        W39437  18.991  41.566   2.237
73007W        W39438  20.759  12.712   2.439
73008W        W39439  26.881  15.258   0.766
73009W        W39440   6.957  32.398   4.926
73010W        W39441  20.597  18.738  13.352
73011W        W39442  42.512  18.759  14.430
73012W        W39443  34.370  31.009   4.888
73013W        W39444   2.245  28.685  11.379
73014W        W39445  42.510  40.071  10.768
73015W        W39446  38.345  18.761  10.412
73016W        W39447  32.366  40.596   2.665
73017W        W39448  17.702  15.173   1.243
73018W        W39449  35.777  29.644   5.064
73019W        W39450  19.039  28.932   1.879
73020W        W39451  37.937  31.453  11.766
73021W        W39452  34.077  22.977  13.584
73022W        W39453  29.627  36.977  11.955
73023W        W39454  37.047  28.869  13.522
73024W        W39455  35.693  33.424   4.547
73025W        W39456  29.310  30.850  14.806
73026W        W39457  38.634  13.962   1.829
73027W        W39458  15.466   5.702  13.012
73028W        W39459  14.918  31.875  12.389
73029W        W39460  12.603  25.976  14.087
73030W        W39461  31.714  20.136  14.834
73031W        W39462  25.459  15.681  14.095
73032W        W39463  28.805   3.782   0.883
73033W        W39464  38.716   2.470  14.115
73034W        W39465  41.592  29.178   4.067
73035W        W39466  20.649  37.548   2.138
73036W        W39467  38.251  11.726  11.537
73037W        W39468  41.037   3.819   1.550
73038W        W39469  38.089  10.758   0.417
73039W        W39470  23.155  27.305  11.610
73040W        W39471  43.279  20.152  11.227
73041W        W39472  22.555  38.995  11.456
73042W        W39473  13.239  22.577  13.045
73043W        W39474  36.792  16.223  14.457
73044W        W39475  27.827  13.894  10.797
73045W        W39476  19.476  10.559  12.141
73046W        W39477  38.581  33.920   0.380
73047W        W39478  37.275   2.658  13.745
73048W        W39479   3.811  31.900   4.420
73049W        W39480  12.936  33.976   2.907
73050W        W39481   5.299  42.914  12.468
73051W        W39482  41.943  30.803   0.012
73052W        W39483  30.505  34.339  11.879
73053W        W39484  23.593  26.031  11.580
73054W        W39485  15.675  25.723   3.904
73055W        W39486   3.891   3.388  14.721
73056W        W39487   8.288  30.189   3.397
73057W        W39488  44.146   8.636  12.651
73058W        W39489  25.022  29.943   2.158
73059W        W39490  37.320  30.270  14.288
73060W        W39491  23.621  27.049  13.042
73061W        W39492  36.355  12.793   1.339
73062W        W39493  26.382  34.864  14.825
73063W        W39494   2.508  15.562  13.403
73064W        W39495  17.039  43.364  14.531
73065W        W39496  22.649  43.825  13.790
73066W        W39497   4.817  14.739   0.331
73067W        W39498  11.411   3.260  13.033
73068W        W39499  16.094  29.172   0.321
73069W        W39500  22.489   5.804  11.153
73070W        W39501  22.595  44.526  10.307
73071W        W39502  11.754  36.799  14.423
73072W        W39503  13.184  11.269  12.072
73073W        W39504  42.497  19.263  12.496
73074W        W39505  39.455  33.028  14.098
73075W        W39506  26.606  38.505  14.972
73076W        W39507   2.617  19.118   0.720
73077W        W39508  41.251  19.054  12.151
73078W        W39509   7.283  25.724   0.423
73079W        W39510  41.332  39.511   1.646
73080W        W39511  29.803  24.791  12.207
73081W        W39512  21.567  22.241   1.787
73082W        W39513   1.403  13.773   4.294
73083W        W39514  42.352  20.804  12.468
73084W        W39515  15.540  38.778   1.194
73085W        W39516  27.523  26.144   2.703
73086W        W39517  38.900  43.387  10.451
73087W        W39518  36.438  21.437  12.067
73088W        W39519   0.830   8.640   2.784
73089W        W39520  15.675  34.366   2.745
73090W        W39521   6.813  30.029  11.552
73091W        W39522  23.740  21.575  12.108
73092W        W39523  40.038  21.021  13.353
73093W        W39524  40.793   0.303  13.985
73094W        W39525   2.713  13.657   0.512
73095W        W39526  40.404  36.826   4.140
73096W        W39527  42.983   7.605  11.911
73097W        W39528  37.901  33.159  12.533
73098W        W39529  38.432  25.456   1.864
73099W        W39530  30.994   5.147   0.384
73100W        W39531  23.571  34.217  12.971
73101W        W39532  32.014   4.185   4.178
73102W        W39533  34.269  12.410   1.395
73103W        W39534   6.881  28.074  10.411
73104W        W39535   0.539  42.899  13.069
73105W        W39536  27.771  36.877   3.263
73106W        W39537  43.876  37.417   0.964
73107W        W39538  23.660  29.189  10.647
73108W        W39539  39.793  19.323   1.939
73109W        W39540  40.428  10.752   1.581
73110W        W39541  35.886  16.348   0.305
73111W        W39542  24.271  26.131  11.016
73112W        W39543  27.892  20.812  10.145
73113W        W39544  28.274  32.297  14.307
73114W        W39545   3.859  26.835  12.464
73115W        W39546  27.413  13.659   4.031
73116W        W39547  34.336   3.133  12.054
73117W        W39548  26.243   4.780  12.061
73118W        W39549  16.738  44.131  12.662
73119W        W39550  39.428  40.076  10.328
73120W        W39551  11.350  35.454   2.726
73121W        W39552  23.810  23.062  14.035
73122W        W39553  21.567  22.102  14.717
73123W        W39554  23.937  44.748   0.353
73124W        W39555  26.026   9.955  11.471
73125W        W39556  39.363  28.684  10.613
73126W        W39557  38.928  15.410  14.425
73127W        W39558  25.335  25.720   0.694
73128W        W39559  12.839  20.552   2.043
73129W        W39560  18.044  12.315   0.502
73130W        W39561  41.816   0.177   0.779
73131W        W39562  43.525  13.707   0.940
73132W        W39563  22.506  26.465  13.792
73133W        W39564   4.430  30.096  10.785
73134W        W39565  18.765   4.888  14.344
73135W        W39566   6.152  38.779   3.699
73136W        W39567  17.674  40.397  12.543
73137W        W39568  17.577  42.843  13.329
73138W        W39569  22.976  28.669  12.122
73139W        W39570  38.349  15.557  12.087
73140W        W39571   8.135  40.576  10.452
73141W        W39572  21.234  16.506  14.344
73142W        W39573  41.397   9.331   1.211
73143W        W39574   4.008   5.890  12.686
73144W        W39575  30.012  27.952   3.175
73145W        W39576  29.955   0.209  11.568
73146W        W39577  18.241  32.222  10.202
73147W        W39578  15.663  13.024   3.589
73148W        W39579   1.253   3.786   2.406
73149W        W39580  28.802  44.776  11.382
73150W        W39581   5.675  21.658  13.109
73151W        W39582  37.084   0.359   3.214
73152W        W39583  27.407   4.833   2.173
73153W        W39584   3.420  30.464  12.447
73154W        W39585  29.448  20.724   2.292
73155W        W39586  42.773  41.622  12.066
73156W        W39587   0.423  28.635  11.927
73157W        W39588   4.855  42.817  14.113
73158W        W39589   2.718   9.347  13.064
73159W        W39590  23.147  41.239   2.374
73160W        W39591  11.171   2.937  12.714
73161W        W39592  11.610   8.078  14.835
73162W        W39593  16.298  28.306  11.090
73163W        W39594  29.138  26.588   4.233
73164W        W39595  15.587  41.409   0.445
73165W        W39596   4.525  30.122   4.913
73166W        W39597  31.609  32.779  12.486
73167W        W39598  19.189   7.132   0.709
73168W        W39599   7.226  20.759   2.373
73169W        W39600   7.823   4.014  13.972
73170W        W39601  10.959  13.510   0.838
73171W        W39602  26.529  34.675  13.394
73172W        W39603  42.574  34.499  11.016
73173W        W39604   2.920  14.109   0.728
73174W        W39605  14.155  42.222  12.565
73175W        W39606  30.245   2.091   2.274
73176W        W39607   9.786  39.138   0.395
73177W        W39608  22.330  25.051  12.874
73178W        W39609  37.267  18.642   2.262
73179W        W39610  17.556  34.265  14.079
73180W        W39611   6.643  13.632  13.814
73181W        W39612  31.557  39.357   2.205
73182W        W39613  27.891   3.341  11.542
73183W        W39614  18.607  11.590   3.981
73184W        W39615  16.228  33.330  13.485
73185W        W39616   0.966  42.270  11.967
73186W        W39617  25.107   1.390  12.525
73187W        W39618  24.398   3.957  11.650
73188W        W39619   8.958  25.040   2.490
73189W        W39620   9.706  40.308   3.434
73190W        W39621   8.265  13.721  14.664
73191W        W39622   9.679  29.568  13.763
73192W        W39623  39.375  15.787  13.455
73193W        W39624  11.663   1.891   2.646
73194W        W39625  14.198   2.544   5.114
73195W        W39626  43.955  34.212  10.636
73196W        W39627   2.308  28.416   2.637
73197W        W39628  44.346  20.718   3.233
73198W        W39629  11.732  18.253  11.608
73199W        W39630  26.914  21.202  10.981
73200W        W39631  26.961   3.595   2.928
73201W        W39632  15.546  11.744   2.622
73202W        W39633  25.799  19.036   2.662
73203W        W39634  11.333  14.153   4.223
73204W        W39635   9.718   9.850   4.336
73205W        W39636  20.316   6.660  11.911
73206W        W39637  44.731   7.444   2.736
73207W        W39638  25.995  37.850   4.490
73208W        W39639  21.722  23.501  11.118
73209W        W39640   9.613  24.448   0.728
73210W        W39641  22.280  14.061  11.491
73211W        W39642  13.310  27.170  14.540
73212W        W39643  15.344   9.224  11.962
73213W        W39644   1.120  18.144  13.306
73214W        W39645  30.636  37.880   1.181
73215W        W39646  35.099   9.094   3.158
73216W        W39647  30.850   9.195   0.754
73217W        W39648  18.113  44.728  11.689
73218W        W39649   6.550   9.586   2.131
73219W        W39650  37.825  25.151   4.545
73220W        W39651  29.105  20.231  14.957
73221W        W39652  15.322  13.342   0.456
73222W        W39653  13.199  29.002  13.320
73223W        W39654  25.734  34.595   1.846
73224W        W39655  26.342   5.696   9.911
73225W        W39656   2.271  29.938   0.873
73226W        W39657  22.513  29.603  13.888
73227W        W39658  37.240   5.492   1.810
73228W        W39659  22.965  16.642   0.912
73229W        W39660  37.132  27.667  12.054
73230W        W39661   8.741  30.112  12.956
73231W        W39662  40.874  41.948   1.281
73232W        W39663  44.881  42.093   0.877
73233W        W39664  12.307   9.169   1.873
73234W        W39665   2.738   5.587  11.975
73235W        W39666  40.550  13.090   3.290
73236W        W39667   5.662  14.736  11.319
73237W        W39668  32.152  26.714  13.047
73238W        W39669   2.637  26.035  12.550
73239W        W39670  10.333   1.947   3.224
73240W        W39671  36.590  28.223  11.888
73241W        W39672   8.765  38.052  12.394
73242W        W39673   1.202  11.926   2.363
73243W        W39674  18.598   8.753  12.253
73244W        W39675   3.748   8.224  12.295
73245W        W39676  19.027   1.361  10.994
73246W        W39677  35.422   1.039   3.578
73247W        W39678  17.902   0.990   3.173
73248W        W39679  23.232  10.418   1.289
73249W        W39680  39.822  31.821   5.047
73250W        W39681  36.271  24.523   0.367
73251W        W39682  21.585  32.989   3.948
73252W        W39683  12.310  42.752   0.679
73253W        W39684  31.621  21.704   2.789
73254W        W39685  38.551  40.329  14.622
73255W        W39686  29.173  19.821  14.135
73256W        W39687  42.543  19.877   0.083
73257W        W39688  20.249  39.852  11.720
73258W        W39689  39.547  41.348   2.361
73259W        W39690  12.187   7.367  13.339
73260W        W39691  32.140   1.436  11.938
73261W        W39692  40.148   7.892   1.599
73262W        W39693  43.643  20.755  14.884
73263W        W39694  34.677   9.768  12.020
73264W        W39695  14.776  13.233  13.261
73265W        W39696  30.552  41.792   1.191
73266W        W39697  16.650  34.388   2.755
73267W        W39698   2.740  36.060  10.219
73268W        W39699  36.625  43.438   0.951
73269W        W39700  35.965  10.863   3.606
73270W        W39701  34.745   5.478  14.855
73271W        W39702  15.667   2.711  10.672
73272W        W39703  36.107  26.103  13.781
73273W        W39704  44.103  30.375   4.459
73274W        W39705   7.619  11.746  11.697
73275W        W39706  35.565  27.122  11.700
73276W        W39707  31.939   4.506   2.706
73277W        W39708  19.709  18.789   2.188
73278W        W39709   9.043  12.106  12.039
73279W        W39710   9.283  20.630  12.563
73280W        W39711  20.190   1.770   1.874
73281W        W39712   7.993   8.142  11.919
73282W        W39713  32.226   5.848  10.388
73283W        W39714  14.163  43.475  11.152
73284W        W39715  18.410  42.190  11.989
73285W        W39716  21.860   8.566   4.176
73286W        W39717  31.984  25.622  11.289
73287W        W39718   1.184  36.106  11.303
73288W        W39719  31.054  42.299  12.611
73289W        W39720  40.370  24.789  14.286
73290W        W39721  34.167  12.783  14.451
73291W        W39722  10.860  19.520  14.502
73292W        W39723  21.045   5.341  12.402
73293W        W39724   3.637   6.220   0.896
73294W        W39725  26.231  30.656  13.422
73295W        W39726   8.325   4.248  12.413
73296W        W39727  30.385  24.622  13.896
73297W        W39728  42.115  16.567   3.350
73298W        W39729  41.556  13.320  11.407
73299W        W39730  24.251  22.025  10.693
73300W        W39731  25.924   9.267  12.271
73301W        W39732  43.237  20.182  12.140
73302W        W39733  10.160  28.685  11.039
73303W        W39734  42.864  44.414   4.210
73304W        W39735  37.542  42.361   1.359
73305W        W39736   4.397   8.877  14.062
73306W        W39737  26.102  43.773   2.257
73307W        W39738  42.312  22.285  12.565
73308W        W39739   0.479  23.734  14.440
73309W        W39740   0.539  18.037   4.943
73310W        W39741   0.705  28.080  13.423
73311W        W39742   6.912  32.612   0.469
73312W        W39743  11.246  19.001  11.413
73313W        W39744  31.250  34.021   3.260
73314W        W39745  15.725  26.574  10.773
73315W        W39746  32.664  42.463   3.258
73316W        W39747  39.343  10.566  10.704
73317W        W39748   9.247  13.049   1.369
73318W        W39749  43.789  43.452   1.244
73319W        W39750   6.810   9.289   4.276
73320W        W39751   7.840  36.988   4.840
73321W        W39752  27.298  18.806   2.912
73322W        W39753   5.132  12.541   0.169
73323W        W39754   5.217  36.154  14.638
73324W        W39755  10.646   3.235   2.305
73325W        W39756  21.740   0.647  10.335
73326W        W39757  40.100  26.450  10.721
73327W        W39758   6.683  23.020   0.031
73328W        W39759  32.355  40.248  14.743
73329W        W39760  29.983   6.523  12.623
73330W        W39761  25.957  39.962   1.802
73331W        W39762  20.237  32.788  14.774
73332W        W39763  44.779  12.476  11.144
73333W        W39764   6.141   7.305  12.175
73334W        W39765   4.410  34.318  14.698
73335W        W39766  37.025  34.232  14.804
73336W        W39767  37.179  18.131   2.325
73337W        W39768  40.937  21.568   3.312
73338W        W39769  16.245  34.660  13.891
73339W        W39770  41.833  27.709  14.902
73340W        W39771  37.388  44.942  11.141
73341W        W39772   6.777  41.308  11.531
73342W        W39773  26.873  18.045  14.746
73343W        W39774  31.627  12.862   1.249
73344W        W39775   4.339  20.960   4.000
73345W        W39776  30.493  32.116   0.908
73346W        W39777   3.329  18.623   0.645
73347W        W39778  22.483  31.542   2.588
73348W        W39779  35.467  23.383  12.415
73349W        W39780  37.491  33.555  10.077
73350W        W39781  23.274   0.437  13.805
73351W        W39782  22.584  39.150   0.443
73352W        W39783   5.763  40.335   3.218
73353W        W39784   5.226  32.097  10.498
73354W        W39785  23.454  12.209   0.076
73355W        W39786  13.233  21.269  12.813
73356W        W39787  20.445  40.780   4.216
73357W        W39788   9.692  24.733   3.112
73358W        W39789  32.427  17.997  14.030
73359W        W39790  28.554  30.442  12.932
73360W        W39791   1.253   4.698   2.451
73361W        W39792  41.991  21.210  10.668
73362W        W39793   7.509  37.988   0.913
73363W        W39794  35.380  27.158  12.578
73364W        W39795  17.099  27.556  12.190
73365W        W39796  38.560  13.664  12.391
73366W        W39797  15.142   1.321   4.608
73367W        W39798   4.180  14.761   1.817
73368W        W39799  41.152  35.920  10.929
73369W        W39800  31.135   4.421   4.254
73370W        W39801  41.683   5.144   0.949
73371W        W39802  31.800  40.784   4.647
73372W        W39803  43.330   4.929   4.123
73373W        W39804  17.863  33.667   4.205
73374W        W39805  24.037  41.243  14.001
73375W        W39806  44.205   7.641  11.514
73376W        W39807  15.585  10.737  11.903
73377W        W39808  38.463  26.898  12.037
73378W        W39809  14.205  29.910  12.108
73379W        W39810  34.440  15.575  12.478
73380W        W39811  33.636   7.491  11.609
73381W        W39812  15.504  10.637   3.759
73382W        W39813  11.013  39.788  11.930
73383W        W39814  26.203   6.125   2.379
73384W        W39815   3.651   9.742   2.803
73385W        W39816  25.141  34.291   2.234
73386W        W39817  42.768  16.887  11.022
73387W        W39818  25.140   9.087  10.418
73388W        W39819   6.728  29.919  13.880
73389W        W39820  33.417  10.282  13.362
73390W        W39821  28.431   7.913  13.334
73391W        W39822  41.473  13.399  13.147
73392W        W39823   2.632   7.723  13.031
73393W        W39824  12.756  21.130  12.995
73394W        W39825  25.470  44.701  13.223
73395W        W39826  19.074  38.825   0.853
73396W        W39827   8.161  11.926   0.587
73397W        W39828  40.850   2.075  14.698
73398W        W39829   1.813   4.407   4.076
73399W        W39830  36.324  28.974  11.110
73400W        W39831  37.799   0.452   0.019
73401W        W39832   9.308  17.788   4.718
73402W        W39833  17.587   1.743   1.237
73403W        W39834  44.907  43.701  13.747
73404W        W39835  39.640   6.292  13.013
73405W        W39836  16.662  10.379   1.769
73406W        W39837   9.536  22.436   4.264
73407W        W39838  33.869  28.130  14.344
73408W        W39839  32.616  20.615   1.343
73409W        W39840  18.056  13.755  14.419
73410W        W39841  38.955  40.798  11.191
73411W        W39842   3.852   7.856   0.130
73412W        W39843  42.819  14.923   2.397
73413W        W39844  11.246  39.534   4.440
73414W        W39845  37.793   0.102   2.781
73415W        W39846   5.448  26.421  12.203
73416W        W39847  27.254  33.958  14.410
73417W        W39848   7.198  38.516  11.897
73418W        W39849   5.248  27.265   3.618
73419W        W39850  12.329  34.964   1.778
73420W        W39851  29.427  22.096   2.944
73421W        W39852  38.586   6.172   1.884
73422W        W39853   3.867  24.543  13.385
73423W        W39854  37.103  19.198   0.921
73424W        W39855  38.267  14.188  11.074
73425W        W39856   7.867  42.996  14.903
73426W        W39857  31.176  44.400  13.529
73427W        W39858  28.411  44.406  14.389
73428W        W39859  24.822  18.358  13.539
73429W        W39860  42.286   2.678  10.656
73430W        W39861  19.159   9.889  13.971
73431W        W39862   4.805  32.094  13.476
73432W        W39863  33.543  31.008   0.855
73433W        W39864  23.514  13.903  14.025
73434W        W39865  17.102   6.194   2.848
73435W        W39866  24.478   1.789  10.498
73436W        W39867  21.105   3.935   0.036
73437W        W39868  18.289   6.690   4.894
73438W        W39869  16.033  20.423  12.031
73439W        W39870  29.285  31.260   1.083
73440W        W39871  20.497  35.272  10.750
73441W        W39872  18.200  43.921  11.818
73442W        W39873   3.211  30.652   5.102
73443W        W39874  24.799   5.850   2.933
73444W        W39875  10.715  13.144  11.746
73445W        W39876  21.768   1.501   0.522
73446W        W39877  36.335   2.311  12.107
73447W        W39878  14.332  26.668  10.698
73448W        W39879   4.059   5.814  14.913
73449W        W39880  44.042  12.900   1.346
73450W        W39881  17.941   4.354   3.642
73451W        W39882  26.954   5.860  11.593
73452W        W39883  38.328  20.985   1.151
73453W        W39884  29.168  11.297  13.339
73454W        W39885   9.179  19.705   2.811
73455W        W39886   6.307  44.752  14.429
73456W        W39887   5.570  35.048  12.300
73457W        W39888  31.367  40.421   0.887
73458W        W39889  28.539  25.159  11.402
73459W        W39890   8.747  16.649   9.932
73460W        W39891  34.943  29.499  13.976
73461W        W39892  29.083  21.050  12.521
73462W        W39893  14.125  41.470  11.524
73463W        W39894   5.335  38.940  14.497
73464W        W39895   2.002  30.099   3.229
73465W        W39896   1.300   4.836   0.917
73466W        W39897  37.987  43.265   4.126
73467W        W39898  25.727   7.306  13.465
73468W        W39899  40.520  40.519  14.257
73469W        W39900   0.446  43.867  14.914
73470W        W39901  36.903   0.558   1.956
73471W        W39902  36.555   7.830   4.678
73472W        W39903  30.545   2.388   3.282
73473W        W39904  19.517  25.635   1.052
73474W        W39905   7.234  17.534   2.277
73475W        W39906  36.256  19.819   2.476
73476W        W39907  31.927   9.766  11.642
73477W        W39908  12.822   8.937  10.695
73478W        W39909  31.999  35.181   3.937
73479W        W39910  40.046  22.595  12.577
73480W        W39911  13.701  10.288  13.539
73481W        W39912   0.157   5.949   2.886
73482W        W39913   1.478   9.435   3.118
73483W        W39914   9.459  21.536   1.693
73484W        W39915   8.027  24.830  13.400
73485W        W39916  16.325  21.816  11.120
73486W        W39917  27.087  29.026   0.042
73487W        W39918  40.347  30.601  11.178
73488W        W39919  39.643  33.170  13.607
73489W        W39920  33.997  30.549  11.828
73490W        W39921  11.680  35.496  10.951
73491W        W39922   2.032  30.171   4.136
73492W        W39923  16.787  19.148  10.754
73493W        W39924  25.469   1.978   0.382
73494W        W39925   7.761  36.260  11.993
73495W        W39926  28.141   2.383  14.835
73496W        W39927  28.556  19.071   1.122
73497W        W39928   6.204  40.257   0.017
73498W        W39929  38.890  14.816  10.541
73499W        W39930  19.838  24.747   1.262
73500W        W39931  11.388  15.677   2.943
73501W        W39932  17.244  17.010   3.656
73502W        W39933  19.572  42.023  12.509
73503W        W39934  27.650  26.730   4.873
73504W        W39935   7.032  30.941  12.564
73505W        W39936  21.731   9.933   2.716
73506W        W39937  27.196  41.139  11.658
73507W        W39938   2.327   3.924  11.333
73508W        W39939  23.410  20.977  11.546
73509W        W39940   2.757   7.891   0.326
73510W        W39941  22.543  11.484   0.767
73511W        W39942  11.519   6.778  11.953
73512W        W39943   3.919   2.428  12.604
73513W        W39944  20.608  36.166  12.047
73514W        W39945  25.651  21.258   2.946
73515W        W39946  23.253  16.539  13.807
73516W        W39947   4.133   9.074   4.183
73517W        W39948   6.433  39.993  13.770
73518W        W39949  30.494   7.452   2.698
73519W        W39950  17.733  35.295   0.393
73520W        W39951  10.300  36.821   4.496
73521W        W39952  33.007  39.045   1.402
73522W        W39953  11.828  18.115  10.639
73523W        W39954   3.915  12.891   4.611
73524W        W39955  44.478  20.592   4.128
73525W        W39956  38.782  44.124  10.273
73526W        W39957   0.947  25.718   2.822
73527W        W39958   6.923  34.964   3.198
73528W        W39959   7.915  44.766   3.779
73529W        W39960   4.433  38.021   0.426
73530W        W39961  35.827   3.518   0.466
73531W        W39962   8.621   3.355   2.491
73532W        W39963   3.789  17.626   3.968
73533W        W39964   8.149  17.416   9.706
73534W        W39965  42.401   0.995  14.885
73535W        W39966  13.703   7.822  13.493
73536W        W39967  19.747  21.375  10.368
73537W        W39968  44.690  20.498   1.498
73538W        W39969  25.165   3.728  11.998
73539W        W39970  23.168   6.490  14.449
73540W        W39971  35.474   8.748   4.189
73541W        W39972  17.648  24.880   4.993
73542W        W39973   1.475  10.440  14.026
73543W        W39974  17.722  18.512   0.433
73544W        W39975  41.862  10.646  12.075
73545W        W39976  23.016   1.431   4.217
73546W        W39977  35.607  39.908   3.232
73547W        W39978  25.187   4.084  14.344
73548W        W39979  20.927   0.779   4.316
73549W        W39980  20.007  15.064   1.366
73550W        W39981  19.971   7.691  13.532
73551W        W39982  29.960  43.196  12.592
73552W        W39983  33.539   8.578  13.577
73553W        W39984  23.252  17.136  13.101
73554W        W39985  10.343  27.661  10.073
73555W        W39986  31.230  24.665   4.766
73556W        W39987  20.986  19.285  11.082
73557W        W39988  39.353  26.140  14.545
73558W        W39989  32.103  38.101  12.557
73559W        W39990  33.367   5.406  14.817
73560W        W39991  20.969  28.973  12.584
73561W        W39992   5.803   0.256   4.590
73562W        W39993   5.618  11.179   1.218
73563W        W39994   3.667  22.040  12.052
73564W        W39995   2.772  39.977   1.461
73565W        W39996  15.017   0.812  13.103
73566W        W39997  34.632  28.608  13.577
73567W        W39998  19.471  19.924  14.621
73568W        W39999   1.870  19.773   2.705
73569W        W40000  24.732  38.489   2.739
73570W        W40001  11.051  29.925   4.480
73571W        W40002  17.539  43.253   1.850
73572W        W40003  43.039  28.771  11.769
73573W        W40004  23.309  37.285   2.780
73574W        W40005  15.724  44.880   1.093
73575W        W40006  18.207  35.811   1.909
73576W        W40007  23.647  12.971   3.407
73577W        W40008  26.288  23.603   2.692
73578W        W40009  18.543   2.210   4.021
73579W        W40010  12.731  13.495  10.720
73580W        W40011  43.249  12.403   0.059
73581W        W40012  23.609  37.585  13.910
73582W        W40013  44.352  21.404   3.827
73583W        W40014  10.613   1.701  10.736
73584W        W40015  30.594  34.620   3.154
73585W        W40016   0.915   1.854   3.861
73586W        W40017  10.278  25.103  13.071
73587W        W40018  18.821   3.342  10.211
73588W        W40019  36.833   6.167  13.021
73589W        W40020  22.194  38.558  13.896
73590W        W40021   7.378   1.031  11.110
73591W        W40022  34.378  23.169   2.173
73592W        W40023   5.495  26.515  13.031
73593W        W40024   5.254   3.524   0.793
73594W        W40025  37.495   6.996  12.880
73595W        W40026  19.482  28.827   1.650
73596W        W40027  41.201  14.360   4.199
73597W        W40028   5.283   9.945  12.009
73598W        W40029   6.916  15.559   3.209
73599W        W40030  20.641  40.803  12.875
73600W        W40031  15.790  12.633   2.583
73601W        W40032   9.125   2.792   1.672
73602W        W40033   7.048   0.396   4.796
73603W        W40034   6.661  24.579  10.805
73604W        W40035  27.405  26.570   1.915
73605W        W40036  13.617  27.119  11.150
73606W        W40037  30.989   3.969   4.014
73607W        W40038  26.561  44.817  10.677
73608W        W40039  41.568  20.991   0.881
73609W        W40040  32.147  39.334   0.260
73610W        W40041  33.173  34.479  12.566
73611W        W40042   6.922  41.351  12.489
73612W        W40043  13.891  42.462  11.630
73613W        W40044  17.156  39.834  11.971
73614W        W40045  17.391  13.174   2.290
73615W        W40046  26.602  42.540  12.781
73616W        W40047   0.788  19.403   4.609
73617W        W40048  10.216   4.222   4.697
73618W        W40049  16.494  23.496   9.832
73619W        W40050  18.874  39.897   5.519
73620W        W40051  25.682   8.710   4.289
73621W        W40052  22.677  29.693   2.726
73622W        W40053  44.791  27.232  11.171
73623W        W40054   3.797  31.359   1.809
73624W        W40055   8.497   5.253   4.191
73625W        W40056  42.517  31.969   4.559
73626W        W40057  19.514   0.784  14.444
73627W        W40058  44.768  16.401   2.319
73628W        W40059  44.400  29.625  13.575
73629W        W40060  34.764  19.711   4.527
73630W        W40061  19.568  12.427   0.516
73631W        W40062  41.834   5.043   2.751
73632W        W40063  12.772  13.279  12.618
73633W        W40064  17.648  24.341   3.291
73634W        W40065  27.303  22.100   3.915
73635W        W40066  32.548  17.579   3.807
73636W        W40067   8.805  16.605  14.363
73637W        W40068  23.748  28.441   0.435
73638W        W40069  29.122   4.126  14.581
73639W        W40070   8.947  12.359   1.828
73640W        W40071   3.001  32.590  12.714
73641W        W40072  31.436  22.085  14.111
73642W        W40073  10.222  11.275   2.572
73643W        W40074  20.294  15.561   2.898
73644W        W40075  21.052  27.154  11.715
73645W        W40076  29.012  34.338   0.410
73646W        W40077  31.835   3.104  10.373
73647W        W40078  34.607  11.291   4.507
73648W        W40079  37.406  31.185  13.549
73649W        W40080  19.331  26.108  11.345
73650W        W40081  26.433  30.595   0.720
73651W        W40082  35.872  30.892   3.244
73652W        W40083  21.999  30.099  12.694
73653W        W40084  14.246  30.002  11.141
73654W        W40085   6.063  28.101  11.600
73655W        W40086  19.712  40.373   2.820
73656W        W40087   0.018  38.630  10.539
73657W        W40088  12.629  26.557   2.322
73658W        W40089  15.291  41.982   1.836
73659W        W40090  36.452  12.318   0.711
73660W        W40091  18.056   0.765  13.513
73661W        W40092  25.081   6.265  11.088
73662W        W40093  13.668  15.658  12.767
73663W        W40094  43.998  14.303  12.004
73664W        W40095  44.521   8.233   2.436
73665W        W40096  40.060  31.132   1.985
73666W        W40097  40.528  23.551   0.791
73667W        W40098  37.353  11.628   1.605
73668W        W40099  28.912  30.617   3.632
73669W        W40100  12.307  25.342  14.713
73670W        W40101   3.081  32.560  12.223
73671W        W40102  44.323  34.565  10.725
73672W        W40103  35.657   3.622  11.169
73673W        W40104   7.463   6.237   3.844
73674W        W40105  15.783   7.719  10.419
73675W        W40106  12.205  21.100   3.658
73676W        W40107  34.347  44.203  13.447
73677W        W40108  22.979  14.831   0.247
73678W        W40109  41.477  44.382   2.181
73679W        W40110  21.528  43.727  11.274
73680W        W40111  17.662  21.482  12.835
73681W        W40112  28.180  16.229  10.682
73682W        W40113  40.088  18.108  12.394
73683W        W40114  43.881  42.425  11.097
73684W        W40115  14.333  19.518   3.277
73685W        W40116  42.387   7.391  14.570
73686W        W40117  34.905   4.685   1.952
73687W        W40118  24.787  39.467  13.649
73688W        W40119  13.718  35.353   1.742
73689W        W40120  22.751  38.558  13.338
73690W        W40121  12.339  38.367  14.769
73691W        W40122   5.656  32.681  11.107
73692W        W40123  33.786  23.703  14.009
73693W        W40124  10.091   1.922  10.664
73694W        W40125  38.966  17.297   4.659
73695W        W40126  34.823  27.440  12.974
73696W        W40127   5.218  22.505  11.471
73697W        W40128  29.779   9.405  13.988
73698W        W40129  11.866  31.671   3.703
73699W        W40130   3.343  35.358   0.362
73700W        W40131  23.692  36.473  12.418
73701W        W40132  21.234  44.800  12.406
73702W        W40133  32.510  18.635   3.667
73703W        W40134  30.596  10.444  12.307
73704W        W40135   5.789  12.584   2.873
73705W        W40136  40.073  38.351   1.802
73706W        W40137   1.691  13.841   3.170
73707W        W40138   9.928  14.150   2.781
73708W        W40139  20.303  32.474   4.470
73709W        W40140   1.437  31.480   0.225
73710W        W40141  43.914   5.266  11.871
73711W        W40142  17.336   3.455   2.644
73712W        W40143  33.827  34.934  10.492
73713W        W40144  44.026  15.071  12.440
73714W        W40145  20.893  35.595  13.900
73715W        W40146  41.298   2.386  12.063
73716W        W40147  19.232  43.296   0.780
73717W        W40148  22.738  37.879   3.229
73718W        W40149  17.934  43.415   2.213
73719W        W40150  40.817  31.535  10.763
73720W        W40151  12.250   9.644  13.632
73721W        W40152  15.318  39.850  11.417
73722W        W40153  24.883  23.553  14.562
73723W        W40154  42.242  10.186  14.756
73724W        W40155   1.252   0.743  13.959
73725W        W40156  38.871  37.929  10.292
73726W        W40157   8.767  11.855   1.723
73727W        W40158  43.115  25.620  14.955
73728W        W40159  24.388  21.416   5.058
73729W        W40160  14.466  40.880  14.817
73730W        W40161  13.781  42.331   2.802
73731W        W40162  14.087  15.586   1.776
73732W        W40163  20.155  12.876  11.548
73733W        W40164  11.053  26.058  13.843
73734W        W40165  25.594  20.256   1.851
73735W        W40166  14.183  34.987  11.056
73736W        W40167   2.672  10.178   2.235
73737W        W40168  24.325  41.313   1.400
73738W        W40169  27.250  40.525  14.366
73739W        W40170  29.943  20.053   2.243
73740W        W40171   4.987  14.660   1.315
73741W        W40172   0.997   5.162   4.946
73742W        W40173   9.781  32.145  14.326
73743W        W40174   9.278  38.042  11.998
73744W        W40175   5.556  38.262  11.163
73745W        W40176  36.934  25.158  10.898
73746W        W40177   0.034  42.474   4.447
73747W        W40178  27.545  30.547  12.662
73748W        W40179   9.350  30.073  14.725
73749W        W40180  28.682   9.839  14.818
73750W        W40181   6.291  22.689  14.450
73751W        W40182   5.258  36.115  12.127
73752W        W40183   7.228   6.430  12.360
73753W        W40184  11.572  39.973  11.064
73754W        W40185  33.518  11.693   4.399
73755W        W40186  33.934  21.792   1.759
73756W        W40187   1.027  32.952   1.683
73757W        W40188  36.539  17.162   1.911
73758W        W40189   7.907  15.441   3.527
73759W        W40190   1.340  37.644  14.490
73760W        W40191   1.395  24.489  12.009
73761W        W40192  35.714   5.286   1.659
73762W        W40193  38.825  17.125   0.361
73763W        W40194  13.276  41.833  12.783
73764W        W40195  37.663  28.290  14.394
73765W        W40196  38.992  31.604   2.978
73766W        W40197  33.502   5.502  11.675
73767W        W40198  31.716   3.240   3.349
73768W        W40199  19.791  16.769   0.262
73769W        W40200  31.284   9.785   2.463
73770W        W40201  42.374  23.344  13.496
73771W        W40202  30.064  20.715   0.098
73772W        W40203   2.733   7.929   3.647
73773W        W40204  34.009  32.675   0.513
73774W        W40205  35.932  10.149  14.549
73775W        W40206  29.422   7.916  11.634
73776W        W40207  43.293   0.785   4.174
73777W        W40208  23.437  10.993   3.077
73778W        W40209  21.642  32.672   3.069
73779W        W40210   2.865  15.629  11.093
73780W        W40211  33.976   0.908  10.212
73781W        W40212   7.584  30.051   2.094
73782W        W40213  14.308  42.707  10.583
73783W        W40214  27.852   4.676   2.361
73784W        W40215  28.147  21.517   4.602
73785W        W40216  42.388  15.522   4.231
73786W        W40217  18.360   8.354  12.438
73787W        W40218  30.727  31.383   0.361
73788W        W40219  17.233  13.791   3.965
73789W        W40220   0.080  12.094  10.757
73790W        W40221  12.739   3.258  13.370
73791W        W40222  15.119   2.247  11.571
73792W        W40223  23.036  38.305   0.126
73793W        W40224  16.286  27.207   4.486
73794W        W40225  13.364  35.337   2.864
73795W        W40226  24.204  31.895  13.333
73796W        W40227  43.478  20.741   4.276
73797W        W40228  15.251  22.172  12.184
73798W        W40229  43.988  44.857  14.778
73799W        W40230  33.514   3.318  13.874
73800W        W40231  23.538  23.422   0.647
73801W        W40232  44.393  40.274  12.402
73802W        W40233  16.859  33.101  14.049
73803W        W40234  37.676   4.416  12.414
73804W        W40235  23.971   7.344   4.107
73805W        W40236  26.954   2.900  12.438
73806W        W40237  22.121   7.035   2.291
73807W        W40238   4.279  33.458   0.243
73808W        W40239   7.554  37.231  14.368
73809W        W40240   2.853  42.985   3.280
73810W        W40241  15.645  39.054  13.136
73811W        W40242  25.470  20.952   2.578
73812W        W40243  31.020  30.315   2.560
73813W        W40244  41.331  30.931   2.705
73814W        W40245  14.567  21.298   0.359
73815W        W40246  14.235  41.712  10.557
73816W        W40247  18.259  25.096  11.054
73817W        W40248   3.310  13.729  12.855
73818W        W40249  32.104  16.621  10.177
73819W        W40250  34.793  32.574   4.058
73820W        W40251  40.644  20.071   4.467
73821W        W40252  27.148   7.472  11.508
73822W        W40253  44.347   7.645  12.856
73823W        W40254   0.864  36.808   2.007
73824W        W40255   1.768  31.102   0.339
73825W        W40256  28.109   3.832   3.149
73826W        W40257   9.216  27.045   3.242
73827W        W40258  11.744  31.404  10.665
73828W        W40259   8.402   1.389   4.463
73829W        W40260  31.644  22.960   1.996
73830W        W40261  39.012  23.881   3.183
73831W        W40262  39.331  28.027   4.528
73832W        W40263  35.437  37.651  12.201
73833W        W40264  29.469  26.664   0.269
73834W        W40265  21.763   6.424  13.980
73835W        W40266  38.325   3.772   4.002
73836W        W40267   9.250  40.764   0.045
73837W        W40268  40.650  15.630  11.332
73838W        W40269  13.745  24.944  13.815
73839W        W40270  29.526  26.917  13.903
73840W        W40271  41.821   2.448   4.672
73841W        W40272  11.225  22.646   1.648
73842W        W40273  31.084  19.096  13.497
73843W        W40274  26.918   0.316  12.397
73844W        W40275  33.506  11.535   1.247
73845W        W40276  34.093  24.274   1.748
73846W        W40277   9.221  10.407   1.886
73847W        W40278   8.709  19.581  14.061
73848W        W40279  31.665  43.806  14.953
73849W        W40280   0.847  40.979  12.470
73850W        W40281  12.918  21.116  11.944
73851W        W40282   1.987  20.156   4.108
73852W        W40283  22.408  40.479   3.088
73853W        W40284  11.884   6.367  12.642
73854W        W40285  30.676   4.599   3.610
73855W        W40286   2.806   0.784   0.830
73856W        W40287  13.738  38.628  11.953
73857W        W40288   0.904  36.521  11.063
73858W        W40289  22.937  40.268   2.185
73859W        W40290  20.725  20.712   1.877
73860W        W40291   2.742   1.290  14.003
73861W        W40292  37.111  40.782  13.388
73862W        W40293   6.008   5.311   0.326
73863W        W40294  12.187   3.144   0.542
73864W        W40295   8.500  13.871  14.229
73865W        W40296  31.886  25.592   3.455
73866W        W40297  24.303  23.153   4.702
73867W        W40298  44.842  37.940   3.303
73868W        W40299   8.048   4.319  13.577
73869W        W40300  12.322   3.026  12.926
73870W        W40301   9.795  24.048  12.645
73871W        W40302   1.786  25.144  12.715
73872W        W40303  26.961  17.557   2.283
73873W        W40304  30.430  44.190   0.761
73874W        W40305  16.267  34.954   4.771
73875W        W40306  35.772  22.696   3.912
73876W        W40307  20.210   1.049  14.693
73877W        W40308  39.140  16.699  13.887
73878W        W40309  40.423  25.556  12.126
73879W        W40310  34.088   7.197   1.883
73880W        W40311   7.147  10.823   3.140
73881W        W40312   8.964  26.386   2.214
73882W        W40313  24.672  41.832   2.183
73883W        W40314  36.294  40.832   0.728
73884W        W40315  29.599  20.581   1.323
73885W        W40316  31.995  23.318   1.148
73886W        W40317  12.936  23.414   2.331
73887W        W40318  22.836  38.842  12.048
73888W        W40319  14.623  36.900  10.706
73889W        W40320  30.426  32.129  10.619
73890W        W40321  11.800  26.893   3.615
73891W        W40322  15.328  43.428   1.863
73892W        W40323  37.400   2.071   3.703
73893W        W40324   9.288  10.841  11.874
73894W        W40325  38.268   4.628   3.150
73895W        W40326  25.817   2.898   3.864
73896W        W40327  17.878   0.784  12.931
73897W        W40328  18.023  16.316   3.127
73898W        W40329  20.756   9.033  10.585
73899W        W40330   1.303  10.283   1.801
73900W        W40331   2.122   6.442   3.138
73901W        W40332  12.391  22.170  12.098
73902W        W40333  33.902  32.328  12.603
73903W        W40334   7.149  18.683   3.782
73904W        W40335  41.826  25.461  12.673
73905W        W40336  42.774  31.184  12.966
73906W        W40337  33.092  42.315  12.044
73907W        W40338  37.956  12.910   1.004
73908W        W40339  15.134  38.335   2.331
73909W        W40340  36.321  40.347   2.794
73910W        W40341  18.091  24.899  14.170
73911W        W40342  34.991  43.647   2.613
73912W        W40343  26.771  17.010   5.306
73913W        W40344  16.774  14.297   1.884
73914W        W40345  26.035  34.824   0.276
73915W        W40346  42.031  26.436  14.985
73916W        W40347  28.526   9.487  14.385
73917W        W40348  32.937  33.119  10.628
73918W        W40349  13.235  29.567   0.801
73919W        W40350  12.498  39.311  10.707
73920W        W40351  38.538  38.542   1.742
73921W        W40352  10.283  41.130  12.524
73922W        W40353  10.525   8.216  13.370
73923W        W40354  23.474  20.284   0.454
73924W        W40355  12.762   1.723  13.374
73925W        W40356  37.366  26.656  13.895
73926W        W40357   5.994  16.588   0.432
73927W        W40358  23.608  20.157  13.333
73928W        W40359  33.035  22.655   4.830
73929W        W40360  28.935  11.383  12.395
73930W        W40361   9.671  13.622   0.798
73931W        W40362  42.938   4.759  14.185
73932W        W40363  33.530  20.412   1.654
73933W        W40364  25.956  18.603  12.102
73934W        W40365   2.721  17.212   4.122
73935W        W40366   1.873  37.889   2.705
73936W        W40367  33.227  43.859  14.086
73937W        W40368  15.997  36.279   1.857
73938W        W40369  17.166   7.101  12.616
73939W        W40370  10.625  17.823  12.053
73940W        W40371  39.444  40.490  13.626
73941W        W40372  29.334  42.546  13.053
73942W        W40373  30.069   7.809   3.975
73943W        W40374  30.041  37.114  14.437
73944W        W40375  32.907  24.723  14.061
73945W        W40376  36.476   2.305   4.648
73946W        W40377  10.820  35.318  13.957
73947W        W40378  37.613  24.057   0.763
73948W        W40379  35.922  39.507   3.062
73949W        W40380  40.569  16.308  12.512
73950W        W40381  12.215  42.356   2.006
73951W        W40382  24.950   5.919  10.672
73952W        W40383   0.039  12.070   0.274
73953W        W40384   3.385  40.375  12.826
73954W        W40385  22.518  23.393  12.424
73955W        W40386   0.818  17.722   3.874
73956W        W40387  24.228  27.086   3.336
73957W        W40388  29.137   4.654  14.524
73958W        W40389  41.956  27.924  10.355
73959W        W40390  21.368   2.747  13.548
73960W        W40391  12.029  37.443  13.018
73961W        W40392  42.393  10.850   1.519
73962W        W40393   7.903  13.686   4.139
73963W        W40394  24.212  16.254  12.326
73964W        W40395   5.887  31.111  12.562
73965W        W40396  10.857  41.847   2.801
73966W        W40397   0.819  21.318  11.507
73967W        W40398  15.570  38.870   3.318
73968W        W40399  37.955  37.323   0.875
73969W        W40400  35.396  27.616   3.754
73970W        W40401  19.723  28.173  12.981
73971W        W40402  22.825   4.650   4.561
73972W        W40403  35.545  19.615   3.481
73973W        W40404  29.137   4.496   0.021
73974W        W40405  42.451   1.753  14.488
73975W        W40406  25.283   3.298   0.291
73976W        W40407  29.001   9.278  11.846
73977W        W40408  40.905  41.485   2.350
73978W        W40409  32.424  34.544   1.134
73979W        W40410  44.917  41.011  10.786
73980W        W40411  36.914  38.436   2.405
73981W        W40412  18.002  38.570  10.810
73982W        W40413  37.497   3.164  10.679
73983W        W40414  16.353   3.071   2.652
73984W        W40415   5.574  37.662  10.493
73985W        W40416   1.442   3.591   4.648
73986W        W40417  31.637  20.696   4.267
73987W        W40418   2.450   8.297  10.889
73988W        W40419  25.640  12.444  14.489
73989W        W40420  17.328  15.639   3.462
73990W        W40421  40.541  42.218   1.713
73991W        W40422  44.090  28.057  11.577
73992W        W40423  20.178   0.567  10.768
73993W        W40424  25.143  30.571   2.188
73994W        W40425  16.518  31.127   4.213
73995W        W40426  39.168   0.316   2.758
73996W        W40427  24.205   9.816  12.111
73997W        W40428  27.226  22.492  12.379
73998W        W40429  30.486  43.276   5.005
73999W        W40430  38.499  36.806  14.238
74000W        W40431  22.097  13.721  12.619
74001W        W40432  42.678  19.741  10.044
74002W        W40433  32.023  11.418  12.983
74003W        W40434  41.930   0.993   2.216
74004W        W40435  22.613  10.416   0.820
74005W        W40436  37.755  18.722   1.399
74006W        W40437  20.244  40.985   3.793
74007W        W40438  31.660  42.870  13.844
74008W        W40439  44.710  39.974  11.981
74009W        W40440  36.594  21.076  13.587
74010W        W40441  40.412  38.182   9.586
74011W        W40442  23.496  29.045   0.437
74012W        W40443   3.077  43.210   0.766
74013W        W40444  27.683  35.082  11.023
74014W        W40445  18.732  41.130  10.211
74015W        W40446  14.759  13.543   2.840
74016W        W40447  15.284  26.797  11.965
74017W        W40448   0.261  26.939   4.249
74018W        W40449  29.488  33.811   1.851
74019W        W40450  30.557   9.489  11.146
74020W        W40451  12.561  44.242   1.634
74021W        W40452  31.959  39.347   4.892
74022W        W40453  40.481  33.555  13.696
74023W        W40454   8.640  19.819   0.501
74024W        W40455  36.845  30.985  11.180
74025W        W40456  30.543   5.387  14.435
74026W        W40457   7.013  15.612   1.931
74027W        W40458  41.990  16.560  11.505
74028W        W40459  11.298  15.612   1.906
74029W        W40460   1.756   4.162   0.922
74030W        W40461  38.351  28.205   3.248
74031W        W40462  38.861   3.054  12.821
74032W        W40463  39.370  31.719   1.072
74033W        W40464  24.522   4.219   3.318
74034W        W40465  41.601  14.046  11.074
74035W        W40466  41.139  17.147  10.723
74036W        W40467  10.610  22.630  14.875
74037W        W40468  10.224  20.501   4.153
74038W        W40469  13.472  41.522   3.530
74039W        W40470  37.102  31.983  13.986
74040W        W40471  27.564  14.742  11.483
74041W        W40472  14.133  14.522  11.144
74042W        W40473  15.460  30.908   1.754
74043W        W40474  15.987  15.153   5.090
74044W        W40475  36.758   0.059  13.288
74045W        W40476  24.737  15.791   1.659
74046W        W40477  12.817  42.465  14.369
74047W        W40478   9.299  36.414  13.914
74048W        W40479  39.511  25.085  12.492
74049W        W40480   4.874  37.829  13.355
74050W        W40481   3.435  15.562  13.826
74051W        W40482  34.998  23.475  13.058
74052W        W40483   8.264  11.032  12.154
74053W        W40484  12.377  30.737   1.298
74054W        W40485  16.434  43.818  13.069
74055W        W40486   2.887  42.243  12.559
74056W        W40487  31.165  26.457  12.933
74057W        W40488   2.426  24.538   0.833
74058W        W40489  10.692  44.639   4.041
74059W        W40490  34.859  36.380  14.285
74060W        W40491  18.103  42.206  13.514
74061W        W40492  32.348  32.479  11.104
74062W        W40493  25.000   9.876  13.427
74063W        W40494  40.705  35.143   0.820
74064W        W40495  18.838  15.878   0.289
74065W        W40496   5.699  28.200   2.178
74066W        W40497  38.965   2.817  10.669
74067W        W40498   0.670  22.630   1.730
74068W        W40499  35.893  34.293  14.429
74069W        W40500  17.519  21.835  13.964
74070W        W40501  32.040  25.565   2.447
74071W        W40502  26.001   1.390  14.819
74072W        W40503  25.671  43.444   2.128
74073W        W40504  17.615  12.252   1.894
74074W        W40505   8.620  12.644   2.800
74075W        W40506  17.937  16.033  14.792
74076W        W40507  14.085  38.524  12.343
74077W        W40508  39.012  36.123   0.883
74078W        W40509   6.620  30.634  12.540
74079W        W40510  12.690  25.154  11.574
74080W        W40511   7.995   1.260  11.585
74081W        W40512  27.962  15.576   0.852
74082W        W40513  43.046  25.112  11.456
74083W        W40514   8.165  36.955   2.558
74084W        W40515  39.460   5.888  10.330
74085W        W40516  12.356  22.956   2.698
74086W        W40517  34.066   5.181  12.444
74087W        W40518  40.060  36.036   0.912
74088W        W40519   9.934  31.983   0.362
74089W        W40520  24.188  29.156  13.838
74090W        W40521  36.062   7.674   0.542
74091W        W40522  24.808  41.356   0.101
74092W        W40523  35.087  11.383  12.480
74093W        W40524  15.862  19.181   0.394
74094W        W40525   5.350   6.015  10.997
74095W        W40526   4.786  34.911  11.983
74096W        W40527  26.972  15.866   3.320
74097W        W40528  25.749  42.248  10.745
74098W        W40529  35.407  39.631  11.807
74099W        W40530  26.414  12.149  12.436
74100W        W40531   4.163  20.244   3.840
74101W        W40532  41.329  17.315   3.239
74102W        W40533   4.059  39.327   0.880
74103W        W40534   0.620  38.950   2.672
74104W        W40535  35.583   1.707   2.290
74105W        W40536  43.359  14.400   2.217
74106W        W40537  20.501  28.986   0.458
74107W        W40538  19.713  27.361  12.910
74108W        W40539  17.276   0.541   1.392
74109W        W40540  11.450   7.366   1.887
74110W        W40541   7.783  20.310  11.051
74111W        W40542  19.543   9.377  10.678
74112W        W40543  32.973  31.497   0.470
74113W        W40544  25.552  19.994  10.853
74114W        W40545  43.511  20.118   2.344
74115W        W40546  41.796  36.642   1.728
74116W        W40547   0.282   3.370   5.253
74117W        W40548  11.832  17.701   2.394
74118W        W40549  21.562  19.693  13.756
74119W        W40550  17.349   1.191   4.133
74120W        W40551  17.015  11.693   3.596
74121W        W40552  16.792  31.304   3.781
74122W        W40553  42.086   7.676  10.961
74123W        W40554  23.839  36.167  12.821
74124W        W40555  38.950  37.804   4.624
74125W        W40556  27.208   9.556  12.071
74126W        W40557  44.569  22.818  13.800
74127W        W40558  29.181  12.690  14.970
74128W        W40559   0.356  14.755   4.654
74129W        W40560   9.219   5.695  12.790
74130W        W40561  35.820   2.673   4.464
74131W        W40562  41.319  20.412   2.105
74132W        W40563   1.011  25.207  12.846
74133W        W40564   8.117  15.613  14.012
74134W        W40565  12.168  28.207   2.826
74135W        W40566  36.575  34.121  12.061
74136W        W40567  39.871  13.184   0.287
74137W        W40568  18.332  21.856  13.580
74138W        W40569   5.701  23.961   2.544
74139W        W40570  43.781   0.878   4.348
74140W        W40571  31.750   7.139   5.402
74141W        W40572  14.317  20.842  11.619
74142W        W40573  43.241  16.499  11.265
74143W        W40574  43.796  32.894  12.558
74144W        W40575   8.977  26.219   2.749
74145W        W40576   2.170  33.192   2.308
74146W        W40577  13.357  38.286   4.106
74147W        W40578  38.440  30.530   2.739
74148W        W40579  12.753  42.882   3.147
74149W        W40580  27.057  40.897  10.807
74150W        W40581  38.634  15.191   4.771
74151W        W40582  27.561  31.621   4.940
74152W        W40583   7.345  30.285   3.455
74153W        W40584  24.795  26.101  13.483
74154W        W40585  20.737   5.514   1.841
74155W        W40586  13.741  16.332  11.028
74156W        W40587  35.320  26.126  13.463
74157W        W40588   2.311  17.278  14.894
74158W        W40589  23.239  15.665  14.143
74159W        W40590  25.899  14.374   2.372
74160W        W40591   7.152  33.649   4.273
74161W        W40592  11.664  11.621   3.166
74162W        W40593  35.560  31.549  12.507
74163W        W40594  32.876  40.170  14.688
74164W        W40595   6.810  41.360   0.745
74165W        W40596  10.007  32.226  11.175
74166W        W40597  25.485  22.590   3.283
74167W        W40598  23.836  25.242   3.248
74168W        W40599   4.215  19.161  12.263
74169W        W40600  36.590   2.353   0.957
74170W        W40601  30.096  31.817  13.614
74171W        W40602  24.585  15.760  13.438
74172W        W40603  21.322  42.814   4.485
74173W        W40604  25.913  21.216  14.380
74174W        W40605  40.514   8.813   2.440
74175W        W40606  38.923  19.768  10.717
74176W        W40607  11.451  36.384  14.484
74177W        W40608   7.345  39.417  12.367
74178W        W40609  20.127   7.822  14.291
74179W        W40610  42.330   8.196   0.552
74180W        W40611  31.980  13.345   2.307
74181W        W40612  17.191   3.011  13.934
74182W        W40613  43.737  34.769  13.527
74183W        W40614  35.839  12.191   1.527
74184W        W40615   9.200   8.088  13.939
74185W        W40616  21.136   4.060   1.859
74186W        W40617  17.830  11.652   2.264
74187W        W40618   0.352  29.695   4.529
74188W        W40619  18.259  33.051  12.101
74189W        W40620  44.579   4.740   2.794
74190W        W40621  34.270  25.430  11.792
74191W        W40622  13.101  11.299   4.845
74192W        W40623   2.802  22.866   2.655
74193W        W40624  17.609  39.629  13.613
74194W        W40625   4.330  23.626   4.162
74195W        W40626  29.176  37.104   0.904
74196W        W40627   8.156  20.607   4.132
74197W        W40628   7.707  12.785  12.347
74198W        W40629  14.851  10.418   4.191
74199W        W40630  34.765  40.742  14.964
74200W        W40631  40.941  38.668   5.674
74201W        W40632  27.924   9.316   3.286
74202W        W40633  33.412  14.340  12.046
74203W        W40634  10.901   4.277  14.443
74204W        W40635  18.432   9.655  12.452
74205W        W40636  43.281  12.383   3.681
74206W        W40637  23.060  25.707   4.701
74207W        W40638  38.906  12.058   3.615
74208W        W40639  23.347   8.743  14.004
74209W        W40640   2.434  37.409   9.730
74210W        W40641   2.283  30.684  13.530
74211W        W40642  40.805  42.682   4.156
74212W        W40643  25.185  25.389  14.753
74213W        W40644  34.442  42.416  10.483
74214W        W40645   4.189  35.770   5.022
74215W        W40646  11.567   1.687  14.412
74216W        W40647  38.443  14.295   2.212
74217W        W40648  26.681   7.222   0.783
74218W        W40649  38.067  29.269  12.091
74219W        W40650  35.948   5.001  12.863
74220W        W40651  21.331  22.699   2.726
74221W        W40652  12.644   0.836  13.103
74222W        W40653   5.683  14.095   3.307
74223W        W40654  43.265   8.230   3.299
74224W        W40655  40.807  39.545   1.626
74225W        W40656  18.112  15.559  14.063
74226W        W40657  21.848  29.047   2.845
74227W        W40658   7.459   0.584   0.323
74228W        W40659   8.505  15.841   4.219
74229W        W40660  11.636  32.480  14.721
74230W        W40661  11.205  27.562   3.645
74231W        W40662  16.585   5.809   1.277
74232W        W40663  30.717  20.928  11.645
74233W        W40664  35.844  34.349  12.484
74234W        W40665  26.725  40.894  12.530
74235W        W40666   4.190  34.485   4.612
74236W        W40667  15.731  20.563  10.720
74237W        W40668   7.284  35.941   0.740
74238W        W40669   1.518  41.535  11.939
74239W        W40670   9.338  32.635  13.499
74240W        W40671  34.151  41.957  12.876
74241W        W40672  24.982  16.263  11.505
74242W        W40673  11.769  13.674   3.657
74243W        W40674  26.864   1.251  14.498
74244W        W40675  23.848  43.987   2.833
74245W        W40676   0.777  21.970  14.844
74246W        W40677  25.643  27.647  11.091
74247W        W40678  43.741  31.412   0.822
74248W        W40679  38.070  29.958  13.401
74249W        W40680  31.031  27.316   0.958
74250W        W40681   1.401  13.328  14.330
74251W        W40682  44.460  43.570   4.155
74252W        W40683   1.469   7.930  12.544
74253W        W40684  20.095  39.730   3.150
74254W        W40685  13.496  29.091   0.738
74255W        W40686  38.968  16.174  11.742
74256W        W40687   2.684  44.208  11.911
74257W        W40688  44.344  31.157   4.497
74258W        W40689  18.063  25.462   4.314
74259W        W40690  27.985  35.647   0.444
74260W        W40691  25.808  25.432   4.223
74261W        W40692   1.576  29.006  12.471
74262W        W40693  28.234   2.214   2.336
74263W        W40694  13.793  44.278   2.115
74264W        W40695  30.480  41.156   3.852
74265W        W40696  15.838  23.485   0.539
74266W        W40697  36.413  17.475   2.318
74267W        W40698  12.720  15.374  14.917
74268W        W40699   9.310  11.892  14.382
74269W        W40700   6.943  27.393  12.005
74270W        W40701   9.659  12.802   1.139
74271W        W40702  35.827  14.612  13.449
74272W        W40703   6.434   2.229  13.327
74273W        W40704  40.630  12.770  14.466
74274W        W40705   1.354  42.753   0.414
74275W        W40706  42.332   0.904   3.718
74276W        W40707   6.605   4.641   2.277
74277W        W40708  39.015  19.504   4.482
74278W        W40709   9.033  32.572  12.157
74279W        W40710  11.335  19.252  14.126
74280W        W40711  18.810  38.551   1.872
74281W        W40712  10.591  43.809   3.760
74282W        W40713  11.850   1.462   2.391
74283W        W40714  11.942   0.026   3.720
74284W        W40715  22.521  22.432  12.524
74285W        W40716  40.839  10.468  10.317
74286W        W40717  39.562  31.493  14.755
74287W        W40718  28.360  22.218   4.136
74288W        W40719   9.749  42.494   1.755
74289W        W40720  12.863  25.164  13.675
74290W        W40721  24.897  17.553  14.023
74291W        W40722   9.280  33.818   3.380
74292W        W40723  44.488   8.837  13.012
74293W        W40724  40.349   1.833  10.748
74294W        W40725  34.525  16.179   1.767
74295W        W40726  34.028  32.292  10.698
74296W        W40727  40.267  27.788  14.480
74297W        W40728  26.529  17.295   2.290
74298W        W40729  15.358  11.976   4.518
74299W        W40730  16.038  19.264   4.006
74300W        W40731  11.204  38.404   0.935
74301W        W40732  10.391  37.657   1.163
74302W        W40733   9.870   0.842  14.726
74303W        W40734  40.338  34.118   4.564
74304W        W40735  26.690  19.690   1.680
74305W        W40736   4.317  41.009  13.141
74306W        W40737   6.518  36.175  11.393
74307W        W40738  41.777  26.936  12.446
74308W        W40739  33.102  30.476  13.000
74309W        W40740  38.073  13.648   3.761
74310W        W40741   1.533  35.849  13.408
74311W        W40742  22.978  40.572   0.344
74312W        W40743  24.595  38.841  14.484
74313W        W40744  40.454   2.864   2.242
74314W        W40745  12.760   0.420   2.930
74315W        W40746  18.680  12.249   1.863
74316W        W40747  17.115  42.454  12.724
74317W        W40748  14.218  38.814   4.263
74318W        W40749   4.139  42.255   0.138
74319W        W40750  32.856  29.028   4.186
74320W        W40751  19.702  12.816  11.730
74321W        W40752  29.168  28.947  13.830
74322W        W40753  24.962  33.122  13.905
74323W        W40754  26.871   6.989  12.292
74324W        W40755  25.701  19.175  14.098
74325W        W40756  17.270  22.111  12.153
74326W        W40757  28.497   0.290  13.758
74327W        W40758  10.678  17.786  13.940
74328W        W40759   7.800  27.652   2.784
74329W        W40760   1.026  19.243  14.041
74330W        W40761   1.496  21.240  14.937
74331W        W40762  10.768  39.277   3.621
74332W        W40763  15.259  16.860  12.897
74333W        W40764  33.368  33.927  11.129
74334W        W40765   4.371  42.415  14.234
74335W        W40766  41.446  24.522   4.094
74336W        W40767  42.490   2.564   0.345
74337W        W40768  18.281  42.299   2.289
74338W        W40769  19.990  11.094  14.019
74339W        W40770  24.155  36.905  14.338
74340W        W40771  44.544  22.335  12.502
74341W        W40772  16.290   2.900  13.701
74342W        W40773  13.919  25.273   2.860
74343W        W40774  36.527  13.650   0.504
74344W        W40775  39.094   0.666   3.581
74345W        W40776  16.630  30.625   4.183
74346W        W40777   6.000  37.008   1.846
74347W        W40778   6.003  30.640   2.808
74348W        W40779  22.772  39.966  10.216
74349W        W40780  19.047  22.460  12.082
74350W        W40781  17.372  14.689  13.097
74351W        W40782  15.169   7.749   1.250
74352W        W40783  14.745  30.635   4.533
74353W        W40784  42.662   0.247   1.370
74354W        W40785  33.653  23.702  12.032
74355W        W40786   0.181  24.294  10.717
74356W        W40787  42.999  30.616  12.114
74357W        W40788  13.321  10.894  13.834
74358W        W40789  34.138   6.239   1.961
74359W        W40790  12.489  22.234  13.942
74360W        W40791  28.350  16.129   4.213
74361W        W40792  41.245  26.520   2.739
74362W        W40793  40.396  25.183  13.420
74363W        W40794  20.756  24.566  12.082
74364W        W40795  19.238  18.018  10.703
74365W        W40796  23.248  24.164  11.687
74366W        W40797  37.499  21.307  13.890
74367W        W40798  29.345   8.392   3.675
74368W        W40799  23.235  10.647  14.959
74369W        W40800  16.525  39.601   0.746
74370W        W40801  43.400  26.040   4.685
74371W        W40802  14.638  15.312   3.208
74372W        W40803  26.918  30.703   0.844
74373W        W40804   3.471   5.275   0.861
74374W        W40805  20.184   3.518   4.144
74375W        W40806   9.426   6.860   1.292
74376W        W40807   1.856  27.659  11.028
74377W        W40808  33.230  30.922  10.720
74378W        W40809  36.088  35.053   4.889
74379W        W40810  25.066  13.279   1.286
74380W        W40811   0.767  21.033  11.072
74381W        W40812  13.833  15.735  12.288
74382W        W40813  30.070  37.841  13.397
74383W        W40814  42.940  10.167   2.900
74384W        W40815  22.129  37.471  12.583
74385W        W40816  26.824  22.619  14.623
74386W        W40817   2.958  32.895  14.776
74387W        W40818  41.871  13.770  13.030
74388W        W40819  23.153  10.698   4.522
74389W        W40820  34.604  21.898  11.684
74390W        W40821  18.996   9.006  12.412
74391W        W40822  11.942  10.475  13.328
74392W        W40823   8.221   3.207  14.993
74393W        W40824  24.804  19.647  11.937
74394W        W40825  25.798  31.108  12.337
74395W        W40826  29.564  20.642   2.811
74396W        W40827   4.586  34.887  12.510
74397W        W40828  35.825  11.937  11.665
74398W        W40829  41.543  30.969  14.238
74399W        W40830   0.707   1.299   0.667
74400W        W40831  20.598  11.447   1.449
74401W        W40832  37.809  44.937   0.776
74402W        W40833  13.728  43.463   1.852
74403W        W40834  37.309  15.495   4.978
74404W        W40835  31.990  39.843  13.441
74405W        W40836  10.341   2.986  14.999
74406W        W40837   7.128  16.578  11.207
74407W        W40838   2.377  38.466  14.049
74408W        W40839   9.125  19.728  13.742
74409W        W40840   8.701  14.185   1.262
74410W        W40841  31.528  42.184  11.942
74411W        W40842  25.194  34.575   1.808
74412W        W40843  43.189   4.761   2.826
74413W        W40844  38.983  33.027   0.330
74414W        W40845  27.379  23.574  14.373
74415W        W40846  38.459  19.342   2.667
74416W        W40847   9.307  11.306   4.181
74417W        W40848  28.417  31.209  12.621
74418W        W40849  41.571  24.443   0.847
74419W        W40850  34.704  31.502   1.268
74420W        W40851  16.313  18.732   1.674
74421W        W40852  29.452  38.281   1.777
74422W        W40853   5.841   4.812   0.844
74423W        W40854  40.316  12.366  14.348
74424W        W40855   4.829  20.242  12.012
74425W        W40856  24.174  30.006   2.727
74426W        W40857  39.493   3.419  11.077
74427W        W40858  28.624   8.616   1.547
74428W        W40859   2.347  44.935   1.814
74429W        W40860   4.535  13.370  12.286
74430W        W40861  37.883  17.417   2.090
74431W        W40862  19.602  26.740  13.496
74432W        W40863  14.291  25.905  14.708
74433W        W40864  26.536  36.245   4.274
74434W        W40865  37.982  16.610  14.572
74435W        W40866   3.725  40.319   4.525
74436W        W40867   1.514  15.162   4.153
74437W        W40868  28.711  34.430  11.646
74438W        W40869  25.411  26.718  13.522
74439W        W40870   8.310   6.403   3.564
74440W        W40871  22.179   4.786   3.564
74441W        W40872   4.307  44.283  12.469
74442W        W40873  32.036  21.765   3.710
74443W        W40874  13.313  16.320  12.502
74444W        W40875  35.276   5.937   0.784
74445W        W40876  17.866   3.880   3.419
74446W        W40877  22.562  19.541   0.814
74447W        W40878   1.810  22.943  12.907
74448W        W40879   0.747   1.667  12.854
74449W        W40880  43.561   0.867   1.270
74450W        W40881  29.391  28.891  10.886
74451W        W40882  26.422  35.884  10.246
74452W        W40883  11.408  31.924   3.790
74453W        W40884  23.034  32.991  14.834
74454W        W40885  24.627   6.876  11.454
74455W        W40886  14.332  40.224  12.402
74456W        W40887  23.310  29.862   1.337
74457W        W40888  38.964  42.439   3.787
74458W        W40889   7.877   0.831   2.359
74459W        W40890  13.372  42.844   2.474
74460W        W40891  24.983  12.766  14.981
74461W        W40892   9.858  44.909   3.623
74462W        W40893   1.423   3.036  10.685
74463W        W40894   3.880   3.974   2.150
74464W        W40895   9.290  27.601  14.953
74465W        W40896  32.013   3.921   1.447
74466W        W40897  38.482  21.555  12.432
74467W        W40898  29.528  43.407   1.291
74468W        W40899  37.618  36.361   5.301
74469W        W40900  14.275   0.152  12.074
74470W        W40901  14.437   8.750  13.276
74471W        W40902   6.663  16.942   3.194
74472W        W40903  44.099  19.323   1.955
74473W        W40904  40.212  14.231   2.358
74474W        W40905  37.773   6.046   2.445
74475W        W40906  28.401  26.484  12.573
74476W        W40907  15.957  12.588  12.901
74477W        W40908  16.225  12.927   0.547
74478W        W40909  12.074   2.932   0.996
74479W        W40910  43.544  32.157  14.737
74480W        W40911  37.861  42.741   0.786
74481W        W40912   7.214  43.764  10.824
74482W        W40913  26.590  44.408   2.836
74483W        W40914  37.958  14.964   1.561
74484W        W40915  42.817   0.780  12.124
74485W        W40916   5.241  41.536  11.720
74486W        W40917  43.794   4.780   0.183
74487W        W40918  28.829  42.524   2.687
74488W        W40919  33.457  29.047   3.773
74489W        W40920  19.163  21.983   3.598
74490W        W40921   5.382  12.621  14.400
74491W        W40922  26.450  16.582  14.399
74492W        W40923   6.685   6.692   4.039
74493W        W40924   6.190   1.482   4.216
74494W        W40925   0.853  11.667   0.509
74495W        W40926  11.609  30.947  14.901
74496W        W40927  35.057  19.294   4.624
74497W        W40928  14.578  18.956   0.841
74498W        W40929   0.942   0.943   4.300
74499W        W40930  13.740   4.377  13.952
74500W        W40931   9.221  18.042   3.998
74501W        W40932   0.224  38.086   3.766
74502W        W40933   1.249  20.763  14.974
74503W        W40934  21.065  38.344   2.341
74504W        W40935  35.442   4.865  14.986
74505W        W40936  23.636   7.243  10.777
74506W        W40937   8.431   2.689   4.461
74507W        W40938   0.223  15.737  13.433
74508W        W40939  24.950  41.593   2.544
74509W        W40940  10.202  43.089  11.410
74510W        W40941  27.868  14.710  11.075
74511W        W40942  22.756   4.020  14.261
74512W        W40943  23.776   0.290   2.405
74513W        W40944  31.956  41.910   3.815
74514W        W40945   0.252  20.697  12.588
74515W        W40946  11.371  13.705   3.954
74516W        W40947  12.801  37.278   1.732
74517W        W40948  41.773  32.941  11.238
74518W        W40949  11.434  40.067   1.020
74519W        W40950  36.450  36.464  12.087
74520W        W40951   5.910   6.448   2.736
74521W        W40952  30.044   1.911   0.341
74522W        W40953  40.824  26.172   1.439
74523W        W40954  34.891   2.009   2.646
74524W        W40955  18.902  19.320  13.463
74525W        W40956  42.033   3.542   1.851
74526W        W40957  16.889  30.553  10.762
74527W        W40958  21.585  41.507  12.486
74528W        W40959  26.601  23.685  14.891
74529W        W40960  36.081  32.899   0.970
74530W        W40961  14.622  40.335   0.690
74531W        W40962  40.293   2.014   5.147
74532W        W40963   7.250   7.698  12.185
74533W        W40964  28.756   8.276   4.369
74534W        W40965  35.297  21.115   0.345
74535W        W40966   5.262  23.115   2.983
74536W        W40967   5.417  24.214   3.670
74537W        W40968   2.698  39.856  13.677
74538W        W40969  41.260  17.211  13.574
74539W        W40970  41.797  41.340   3.315
74540W        W40971   6.836  20.450   2.291
74541W        W40972  14.283  10.172  14.256
74542W        W40973  34.010  23.504  13.562
74543W        W40974  43.084  34.944  12.969
74544W        W40975  43.953  16.861   1.900
74545W        W40976  37.984  31.540  12.931
74546W        W40977  38.405  28.500  12.272
74547W        W40978  17.723  38.742  11.596
74548W        W40979   0.706  12.851  11.853
74549W        W40980  41.486  36.025  13.109
74550W        W40981  14.700  34.368   4.271
74551W        W40982  18.016  25.214  13.392
74552W        W40983  14.196  38.968  12.082
74553W        W40984  21.576   1.264   3.600
74554W        W40985  16.161   8.722  11.394
74555W        W40986   1.285  31.363  10.788
74556W        W40987   2.569  26.707  10.192
74557W        W40988  32.411  41.844   2.083
74558W        W40989  27.452   4.948  11.854
74559W        W40990  41.481  22.610  13.998
74560W        W40991  44.488  44.782   1.358
74561W        W40992  36.360  33.508  11.479
74562W        W40993  43.046  17.312   2.767
74563W        W40994  11.852  17.222   4.800
74564W        W40995  27.764  40.948  12.535
74565W        W40996  36.728   3.788   5.076
74566W        W40997   8.291  42.532   4.534
74567W        W40998  12.301  34.174   0.010
74568W        W40999  23.801  22.684  11.051
74569W        W41000  44.174  11.612   2.442
74570W        W41001  41.376  24.600   1.896
74571W        W41002   7.620   7.453  13.454
74572W        W41003  37.507  37.323  11.871
74573W        W41004  15.726  21.232  11.984
74574W        W41005  30.713  22.787   0.929
74575W        W41006  17.749   8.728   2.351
74576W        W41007   4.743  23.210   1.298
74577W        W41008   2.403  33.103   3.885
74578W        W41009  23.181  21.891  13.904
74579W        W41010  21.905   9.652  11.583
74580W        W41011  13.069  10.422   4.412
74581W        W41012  31.227  30.875  13.567
74582W        W41013  23.747  11.811  10.676
74583W        W41014  15.898   7.806  12.904
74584W        W41015  17.047  18.008  11.939
74585W        W41016  18.758  34.973   4.028
74586W        W41017   4.906  42.341   3.486
74587W        W41018  41.938  24.224   2.368
74588W        W41019  12.748  16.457   0.909
74589W        W41020   9.825  33.443   4.422
74590W        W41021   8.187   7.778   3.656
74591W        W41022  35.632  29.505   0.127
74592W        W41023  10.065  28.869   9.963
74593W        W41024  38.455  27.196   4.523
74594W        W41025  37.939  37.554  12.940
74595W        W41026  33.305  22.182  14.241
74596W        W41027  41.847  41.006   4.638
74597W        W41028  32.176  33.633   1.168
74598W        W41029  37.241  21.146   3.292
74599W        W41030  42.890  25.145   1.249
74600W        W41031  36.625  26.160  13.807
74601W        W41032   7.821  22.740  12.561
74602W        W41033  44.893  10.820  11.662
74603W        W41034   7.167  29.093   2.227
74604W        W41035  19.997  32.008   4.270
74605W        W41036  21.008  26.946  13.572
74606W        W41037  39.039  16.439  14.397
74607W        W41038  29.718  35.883  12.940
74608W        W41039  24.227   7.704  12.492
74609W        W41040  15.124   4.127  11.884
74610W        W41041  14.922  42.804  13.138
74611W        W41042  23.889  21.088  11.427
74612W        W41043  23.962  27.611   2.580
74613W        W41044  21.975   3.778   2.219
74614W        W41045  23.827  29.909  12.166
74615W        W41046  27.949  18.452  11.663
74616W        W41047   1.528  30.005   4.139
74617W        W41048  16.206  17.232  10.641
74618W        W41049  44.419  44.823  14.015
74619W        W41050   9.931  35.198  13.835
74620W        W41051   6.437  41.584  12.256
74621W        W41052  16.583  29.245  13.620
74622W        W41053  33.941  30.901  13.142
74623W        W41054   2.355  26.060   4.393
74624W        W41055  18.522  34.505  14.872
74625W        W41056  43.335   2.885   3.714
74626W        W41057  17.582   3.691   0.022
74627W        W41058  43.414   5.399   2.295
74628W        W41059   8.182  19.662  14.530
74629W        W41060  17.622  42.761   1.998
74630W        W41061  22.408  20.738   0.664
74631W        W41062  43.950  38.516   4.649
74632W        W41063  32.004  36.523   0.293
74633W        W41064   5.513  11.912   4.282
74634W        W41065  44.980  20.498   0.226
74635W        W41066  13.988  26.701  12.421
74636W        W41067   5.425  23.081   0.730
74637W        W41068   4.617   9.090  14.919
74638W        W41069  17.358   2.129   2.416
74639W        W41070  36.125  26.511  11.204
74640W        W41071   1.183  28.059   0.986
74641W        W41072  20.589  13.852  11.136
74642W        W41073  36.339  30.089  11.265
74643W        W41074  44.804  29.174  12.135
74644W        W41075   1.634  21.664   3.304
74645W        W41076  36.133  13.487  11.475
74646W        W41077  32.059  33.949   1.906
74647W        W41078  44.816   1.421   2.505
74648W        W41079  19.939  42.514   0.756
74649W        W41080  18.968  16.613  11.624
74650W        W41081  35.429  38.727   4.584
74651W        W41082  27.078  36.337  12.611
74652W        W41083  25.019  44.507   0.196
74653W        W41084   9.114   6.474   1.084
74654W        W41085  17.152  21.558   1.428
74655W        W41086  26.918  23.321  10.918
74656W        W41087   0.913  42.109   2.273
74657W        W41088  19.222  39.835   3.361
74658W        W41089  24.585  31.439   0.720
74659W        W41090  36.180   8.158  13.430
74660W        W41091   1.853   3.433   0.326
74661W        W41092  19.864   5.160   0.240
74662W        W41093  12.038  39.408  10.917
74663W        W41094  27.485   5.766  14.469
74664W        W41095  38.865   0.819  14.304
74665W        W41096  43.901   1.900  12.777
74666W        W41097  35.913  11.446   2.176
74667W        W41098  42.886  32.173  11.969
74668W        W41099  21.091  39.055  11.938
74669W        W41100   0.489  36.514  14.548
74670W        W41101   0.518   7.418  14.630
74671W        W41102  33.492  25.957  11.097
74672W        W41103  39.311  25.897   4.074
74673W        W41104  23.557  37.609  11.214
74674W        W41105   9.637  17.247  10.707
74675W        W41106  12.645  30.487   3.975
74676W        W41107   2.484  10.985   0.848
74677W        W41108  30.577  10.317  11.599
74678W        W41109  16.429  36.809   2.859
74679W        W41110  16.167   3.409   3.798
74680W        W41111  18.715  24.182  14.317
74681W        W41112   1.218  40.978   3.618
74682W        W41113   6.793  20.960  11.991
74683W        W41114  14.557  14.086   9.982
74684W        W41115  14.852   6.223  10.484
74685W        W41116  33.920   3.147   0.003
74686W        W41117   2.191  37.894   3.619
74687W        W41118  13.607  42.036   1.937
74688W        W41119  25.984  37.577   0.861
74689W        W41120  40.427  11.045   0.258
74690W        W41121   4.482  14.347  10.674
74691W        W41122   5.703  21.585  11.671
74692W        W41123  15.372  25.440   2.068
74693W        W41124  24.586  15.037   1.232
74694W        W41125  39.473  27.714   1.346
74695W        W41126  31.952   8.614  10.053
74696W        W41127  31.870  31.421   3.344
74697W        W41128  39.348  30.968   0.821
74698W        W41129  20.423   3.691  13.879
74699W        W41130  43.368  37.387   1.087
74700W        W41131  16.799  19.286  13.137
74701W        W41132  30.238  36.520  12.499
74702W        W41133  17.123  42.925  10.984
74703W        W41134   4.274   5.390   4.158
74704W        W41135  26.646  11.154  13.505
74705W        W41136  35.061   0.839  11.170
74706W        W41137  23.013  33.204   0.311
74707W        W41138  11.183  41.732   1.329
74708W        W41139  38.584   3.511  11.122
74709W        W41140  29.913  17.703   0.197
74710W        W41141  19.377   4.334  13.388
74711W        W41142  31.400  40.769   4.302
74712W        W41143  40.081  31.905  11.224
74713W        W41144  17.776  32.103  13.017
74714W        W41145  39.765   0.770   1.323
74715W        W41146   8.279   5.890  14.075
74716W        W41147   5.314  18.727   1.840
74717W        W41148  32.466  25.987  13.855
74718W        W41149  28.082  43.296  10.820
74719W        W41150  44.502  11.382  13.833
74720W        W41151  39.887   3.455  13.391
74721W        W41152  19.640  34.494   4.908
74722W        W41153  18.523   0.948  11.645
74723W        W41154  28.532  17.543  14.891
74724W        W41155   6.820  28.727  13.133
74725W        W41156  18.259   4.305  13.456
74726W        W41157   4.721  21.535   3.680
74727W        W41158  31.113  15.092   3.705
74728W        W41159  38.005   6.926  14.997
74729W        W41160  20.183  13.364   0.008
74730W        W41161   3.303  43.408  12.192
74731W        W41162  12.447  18.087   1.856
74732W        W41163   0.089  29.043  12.567
74733W        W41164  11.457  17.104   0.385
74734W        W41165  21.962  28.925   0.482
74735W        W41166  27.207  38.926  12.414
74736W        W41167  23.760   3.737   2.699
74737W        W41168  14.170   7.835  10.220
74738W        W41169  23.326  18.519  13.376
74739W        W41170  41.318  24.892   1.035
74740W        W41171   8.125  11.697  11.562
74741W        W41172  36.057  11.194   1.743
74742W        W41173   9.204  42.555  14.821
74743W        W41174   7.247  31.901  11.929
74744W        W41175  30.911  34.289   3.631
74745W        W41176  14.823  24.352   3.314
74746W        W41177  39.193  26.147   0.403
74747W        W41178  19.126  16.631   1.482
74748W        W41179   0.825   1.800  11.551
74749W        W41180  21.203  12.313  10.918
74750W        W41181  24.260  43.886   1.865
74751W        W41182  23.273  26.192  14.548
74752W        W41183  22.646  39.955   0.849
74753W        W41184  28.657   0.498  11.211
74754W        W41185  32.481  40.441   3.864
74755W        W41186  10.638  40.196   0.414
74756W        W41187  30.051   5.163  14.454
74757W        W41188  36.826  39.092   2.941
74758W        W41189   0.223  18.172  11.141
74759W        W41190  16.595   9.052   0.242
74760W        W41191  36.326  42.767   2.614
74761W        W41192  38.829  12.292   4.658
74762W        W41193  43.730  40.422  13.043
74763W        W41194  30.941  30.515   3.057
74764W        W41195  21.116  21.307  11.994
74765W        W41196  19.518  24.543  12.993
74766W        W41197  30.538   4.470  13.413
74767W        W41198  25.947   7.350   2.839
74768W        W41199  34.143  14.226  11.585
74769W        W41200  34.971  10.205  10.648
74770W        W41201  29.491  39.560  10.777
74771W        W41202  33.956  37.555  14.574
74772W        W41203   0.423  36.219  11.779
74773W        W41204  30.726   7.353  11.988
74774W        W41205  30.389  12.929  11.031
74775W        W41206  43.810  34.024   1.187
74776W        W41207  21.840  44.298   2.129
74777W        W41208  40.402  21.009   3.747
74778W        W41209  17.600  10.317  13.412
74779W        W41210   6.897  32.965  13.325
74780W        W41211  36.084   7.296   0.907
74781W        W41212  23.534  25.680   0.390
74782W        W41213  14.694  11.676  11.875
74783W        W41214   7.108   5.365  14.349
74784W        W41215  34.277   3.390  12.503
74785W        W41216  40.445  13.311   3.767
74786W        W41217  20.196  11.136   0.268
74787W        W41218   9.102  22.777   2.604
74788W        W41219  39.340  14.806  11.420
74789W        W41220   0.278  12.388   3.027
74790W        W41221   6.313  18.868  10.281
74791W        W41222  16.708   1.730  14.237
74792W        W41223  20.576   7.846   3.270
74793W        W41224  33.191  24.617   3.322
74794W        W41225  19.248  17.610   0.429
74795W        W41226  33.941   7.423   1.000
74796W        W41227  32.606  24.084   0.794
74797W        W41228  24.024  34.544   3.047
74798W        W41229  17.856   8.531  11.147
74799W        W41230  35.770  10.087   2.637
74800W        W41231  22.460   6.266  11.858
74801W        W41232  12.390  36.786  12.555
74802W        W41233  30.965  25.021  14.563
74803W        W41234   0.038  43.428   0.397
74804W        W41235   7.944  36.525   4.159
74805W        W41236   6.510  38.512  12.642
74806W        W41237  29.295  25.071   0.326
74807W        W41238  42.271   0.853  13.986
74808W        W41239  29.887  18.205  12.993
74809W        W41240  41.856  44.165  13.012
74810W        W41241   9.820   6.822   0.429
74811W        W41242   7.217  17.375  14.564
74812W        W41243  19.253  16.920  11.329
74813W        W41244  27.727  43.460   2.334
74814W        W41245  17.627  31.009  14.378
74815W        W41246  15.361  12.106  13.888
74816W        W41247   5.100  30.470  10.788
74817W        W41248   9.949  43.523  12.491
74818W        W41249  29.806  18.540   0.813
74819W        W41250  35.411  42.485   3.083
74820W        W41251   2.548  27.975  10.171
74821W        W41252  34.500  38.391   4.578
74822W        W41253   2.615  44.361  13.918
74823W        W41254  39.591  12.933  13.438
74824W        W41255  16.933  31.501   1.642
74825W        W41256  40.041  34.192  14.034
74826W        W41257   4.823   1.916   1.207
74827W        W41258  33.295   6.858   4.503
74828W        W41259  16.719  21.535   3.147
74829W        W41260  40.969   8.626   1.695
74830W        W41261  27.332  19.222   0.148
74831W        W41262  25.021  39.094   0.412
74832W        W41263  41.931  40.207   0.818
74833W        W41264  10.071   5.467  11.475
74834W        W41265  13.740  38.435  14.034
74835W        W41266  21.823   7.878  12.012
74836W        W41267  31.669   2.252   3.649
74837W        W41268  36.298   3.932  11.971
74838W        W41269   0.923  11.883  13.392
74839W        W41270   8.905  33.482   4.557
74840W        W41271  30.547   4.445   4.118
74841W        W41272   9.079  15.857  11.627
74842W        W41273  26.623  35.573   2.068
74843W        W41274  14.190   4.425   2.264
74844W        W41275  39.939  11.538   2.832
74845W        W41276  39.256  16.546  11.539
74846W        W41277  10.690  41.631   1.516
74847W        W41278  18.154  26.014   4.684
74848W        W41279  25.665  24.896   0.778
74849W        W41280   3.003   5.711   2.326
74850W        W41281   3.293   0.983   0.797
74851W        W41282  40.869  18.195   3.621
74852W        W41283  12.077   4.689  12.115
74853W        W41284   0.392  44.081   1.439
74854W        W41285  11.652  17.287  11.011
74855W        W41286  16.399  15.501   4.158
74856W        W41287   2.672   5.306   1.807
74857W        W41288  24.096   4.494   3.419
74858W        W41289   4.381  39.233   1.382
74859W        W41290  35.432   7.665   3.163
74860W        W41291  31.195  17.692  13.620
74861W        W41292  29.060  32.930  11.165
74862W        W41293  39.380  14.361  11.652
74863W        W41294  23.145   7.097   2.753
74864W        W41295   1.802  13.801   5.058
74865W        W41296  30.999  21.550  13.690
74866W        W41297  12.004  43.415   3.584
74867W        W41298  21.437   5.626  13.134
74868W        W41299   5.523  43.318   0.276
74869W        W41300  11.276  39.949  11.518
74870W        W41301  22.822   8.712   4.415
74871W        W41302  39.570  35.566  13.497
74872W        W41303  23.177  33.890  12.998
74873W        W41304  11.329  25.073  12.015
74874W        W41305   5.711  15.328   4.864
74875W        W41306  23.444  42.852   4.996
74876W        W41307  31.694  43.499  10.943
74877W        W41308  27.038   2.857   2.183
74878W        W41309  43.301  29.686   4.828
74879W        W41310  21.742  39.886  12.106
74880W        W41311  44.320  40.870   2.853
74881W        W41312  30.553  22.001   0.417
74882W        W41313   0.674   5.587  10.290
74883W        W41314  23.121   6.810  11.930
74884W        W41315  40.752  23.254  11.980
74885W        W41316  22.566  31.857  11.977
74886W        W41317  30.397   4.318   2.321
74887W        W41318  19.388  21.960   1.480
74888W        W41319   4.720   0.998   2.234
74889W        W41320   3.437   3.294  14.975
74890W        W41321  19.245  26.249   3.335
74891W        W41322  23.583   9.842   2.353
74892W        W41323  22.479  29.035   0.430
74893W        W41324  19.782  20.825  13.482
74894W        W41325  10.275  25.718   0.429
74895W        W41326  22.656   3.148   4.819
74896W        W41327  33.804  30.673   0.485
74897W        W41328  22.582  29.280   2.180
74898W        W41329  41.450  33.421   2.362
74899W        W41330  30.632   6.794  14.706
74900W        W41331  14.034  34.936  14.337
74901W        W41332  41.885   7.177  14.043
74902W        W41333  35.469  14.143   4.400
74903W        W41334   5.355  20.818  13.743
74904W        W41335  25.421  21.220   1.409
74905W        W41336  43.415  11.127   2.633
74906W        W41337   1.142  41.497  14.938
74907W        W41338  15.359   2.305   4.548
74908W        W41339   2.909  33.868  14.227
74909W        W41340   6.692  17.090   0.421
74910W        W41341  19.207  26.988  14.421
74911W        W41342  29.597  41.741  11.601
74912W        W41343  20.003  13.574   1.309
74913W        W41344   1.032  41.381  12.026
74914W        W41345  40.548  33.651   3.238
74915W        W41346  33.313  38.837   0.040
74916W        W41347  11.422  34.992   3.903
74917W        W41348  16.962  24.519   4.449
74918W        W41349   8.870  17.533  13.362
74919W        W41350  16.563  26.102  14.760
74920W        W41351  24.613  11.675   4.215
74921W        W41352  15.005  22.398  13.396
74922W        W41353  27.952  27.821   4.518
74923W        W41354  21.163  14.271  14.795
74924W        W41355  38.443  43.811   0.366
74925W        W41356  20.976   5.305   3.859
74926W        W41357  23.106  38.009  13.386
74927W        W41358  26.164  14.750  14.360
74928W        W41359  43.896  17.193  10.469
74929W        W41360  33.340  21.306   4.044
74930W        W41361  26.929   7.330  12.707
74931W        W41362  24.962  10.725  11.425
74932W        W41363  26.732  10.606   4.404
74933W        W41364  13.253  13.683  10.652
74934W        W41365  35.323  27.437   4.746
74935W        W41366   6.231  38.176  14.883
74936W        W41367   2.306  25.571   2.616
74937W        W41368  34.521  38.820   2.495
74938W        W41369  32.481  40.867  10.762
74939W        W41370  31.346  38.389   4.128
74940W        W41371   5.352  23.164  13.375
74941W        W41372  17.353  33.116   3.759
74942W        W41373  43.952  18.614  14.361
74943W        W41374  35.018  15.137   2.730
74944W        W41375  30.076  14.378  12.421
74945W        W41376   6.744   7.216   0.844
74946W        W41377  37.494   7.319  13.291
74947W        W41378  28.685  19.627   3.257
74948W        W41379  40.333  29.726  12.511
74949W        W41380  20.482  21.624  11.438
74950W        W41381   6.846   3.959   1.414
74951W        W41382  17.799  21.020   1.050
74952W        W41383  41.870  42.388   2.968
74953W        W41384  11.641  22.229  12.491
74954W        W41385  28.565  24.649   3.836
74955W        W41386   4.148  19.181   2.413
74956W        W41387  12.889   2.474   4.436
74957W        W41388  21.832  15.602   1.424
74958W        W41389   3.831  41.871   4.227
74959W        W41390  36.863  27.568  13.011
74960W        W41391  37.701  13.364   0.967
74961W        W41392   2.004  15.632   3.590
74962W        W41393  34.366  14.583   1.886
74963W        W41394   3.003  38.680   1.323
74964W        W41395  44.899  19.285   3.595
74965W        W41396  33.357  27.076   2.722
74966W        W41397  19.296  42.843  11.412
74967W        W41398  43.816  39.917  14.256
74968W        W41399  25.501  39.835   2.745
74969W        W41400   5.157  29.680   3.630
74970W        W41401   0.993  30.417   1.663
74971W        W41402   9.009  15.291   3.715
74972W        W41403   0.845  28.997   4.715
74973W        W41404  15.166  44.699  14.357
74974W        W41405  31.127  28.124  12.528
74975W        W41406  22.452   4.868  11.652
74976W        W41407  34.087  10.127  10.216
74977W        W41408  40.866  15.407   4.486
74978W        W41409  25.934  24.548   2.715
74979W        W41410  37.775  40.596   3.764
74980W        W41411   3.580  13.329  11.846
74981W        W41412  43.041  18.794  14.516
74982W        W41413  19.499  32.322   3.515
74983W        W41414   1.245  19.487   1.384
74984W        W41415  15.606   7.414   3.275
74985W        W41416  15.186  26.456  11.594
74986W        W41417  28.152  26.865  11.572
74987W        W41418  11.740   9.716   4.894
74988W        W41419  32.406   8.280   2.324
74989W        W41420   7.001  29.400  11.080
74990W        W41421  40.325   2.753   4.125
74991W        W41422  15.816  15.016  12.967
74992W        W41423  32.073   6.886   3.526
74993W        W41424   7.443   2.440   0.833
74994W        W41425  17.635  38.614   3.173
74995W        W41426  35.087  14.861   1.353
74996W        W41427  26.500  32.638   1.675
74997W        W41428  27.940  18.749   4.582
74998W        W41429  30.189  17.786   1.210
74999W        W41430  18.703  14.170  12.058
75000W        W41431  11.823  25.026  12.059
75001W        W41432  35.501  28.685  10.876
75002W        W41433  17.303  22.387  13.416
75003W        W41434  27.490  42.446   4.096
75004W        W41435  20.359  24.457   3.948
75005W        W41436  32.993  36.286   4.003
75006W        W41437  17.592  14.068   3.139
75007W        W41438  12.828  16.167   4.383
75008W        W41439  10.313  10.756  10.554
75009W        W41440  29.286  30.764  13.508
75010W        W41441  34.494  32.564  13.360
75011W        W41442  24.702  38.377  10.591
75012W        W41443  15.175  40.285  10.636
75013W        W41444   1.366  19.648   3.648
75014W        W41445   1.488  22.592  11.692
75015W        W41446  27.181  29.656  12.278
75016W        W41447   3.310  23.970  12.961
75017W        W41448  27.370  16.739   3.167
75018W        W41449  10.772  39.356   0.057
75019W        W41450  34.667  30.857  13.799
75020W        W41451  18.726  41.062  14.036
75021W        W41452  43.817   1.364   4.113
75022W        W41453  35.866  29.923  11.390
75023W        W41454  26.906   1.954  12.404
75024W        W41455  22.691   4.462  13.033
75025W        W41456  34.466  14.893  14.252
75026W        W41457   1.017  19.562   0.853
75027W        W41458  16.620   2.636   1.561
75028W        W41459  26.145  27.692   1.469
75029W        W41460   3.319  39.096   0.330
75030W        W41461  33.339  16.197   1.969
75031W        W41462  24.564  16.867  14.430
75032W        W41463  20.690  18.226  14.806
75033W        W41464  18.647  24.594   1.711
75034W        W41465  20.524   1.530   0.906
75035W        W41466  26.305  13.843  12.218
75036W        W41467  44.303  44.470  14.563
75037W        W41468  44.458  15.654  10.572
75038W        W41469   2.233  27.378  12.438
75039W        W41470  41.497   8.929   0.888
75040W        W41471  19.592   3.625  11.764
75041W        W41472  37.863  29.978   0.990
75042W        W41473  31.039  42.816  14.890
75043W        W41474   9.678  14.543  11.210
75044W        W41475  25.271  34.518  13.888
75045W        W41476  13.104  20.154  14.446
75046W        W41477  41.966  33.915   2.151
75047W        W41478  12.704  37.983  11.363
75048W        W41479  13.582   6.336   0.527
75049W        W41480  29.505  26.207  13.328
75050W        W41481  37.092  26.659   3.642
75051W        W41482  39.104   9.548   0.990
75052W        W41483  15.693   2.285  10.958
75053W        W41484  30.553   3.710  12.890
75054W        W41485   5.373   8.069  14.377
75055W        W41486   7.810  32.282  13.964
75056W        W41487  26.767  43.920   2.124
75057W        W41488  21.978  35.533  12.041
75058W        W41489  15.570  16.238  12.105
75059W        W41490  18.173   8.701  12.809
75060W        W41491  25.397  12.326  13.569
75061W        W41492  11.865   6.799  12.942
75062W        W41493  30.779   5.270  11.094
75063W        W41494  16.427   7.642   4.491
75064W        W41495  34.369  41.140  13.397
75065W        W41496  42.345  29.486   2.231
75066W        W41497  22.655  36.042   4.602
75067W        W41498  36.403   3.755   3.416
75068W        W41499  12.169   6.971  11.257
75069W        W41500  38.340   3.343  14.252
75070W        W41501  13.144  39.603  14.869
75071W        W41502  33.871  40.107  13.866
75072W        W41503  38.481  20.440  13.382
75073W        W41504   2.285   5.130  10.713
75074W        W41505   4.250  35.664   4.543
75075W        W41506  43.004  41.715  14.393
75076W        W41507  23.596  21.501   0.300
75077W        W41508  44.875  16.879   3.912
75078W        W41509   5.415  24.795  14.916
75079W        W41510  26.416  39.522  14.532
75080W        W41511  16.620  11.577   1.065
75081W        W41512  41.463  16.795  14.888
75082W        W41513   8.666  31.770  14.761
75083W        W41514   7.154  28.513  10.922
75084W        W41515  36.040  34.819  11.638
75085W        W41516  16.282   4.952  14.289
75086W        W41517  35.922  21.257  14.734
75087W        W41518  17.194   0.215   0.654
75088W        W41519  20.486   3.462  11.917
75089W        W41520  15.036  37.269   4.920
75090W        W41521  40.332  44.814  12.645
75091W        W41522  20.761  24.361  11.622
75092W        W41523  22.544   6.861   0.827
75093W        W41524  18.602  16.269  12.415
75094W        W41525  42.942  22.268  11.320
75095W        W41526  36.034  33.481  13.297
75096W        W41527   8.696  30.367   3.109
75097W        W41528  14.082   9.723  14.040
75098W        W41529   6.638  11.143   1.967
75099W        W41530  12.637  22.085   3.166
75100W        W41531  40.292  33.485  11.381
75101W        W41532  38.860  37.496  14.467
75102W        W41533   2.981  29.142  11.031
75103W        W41534   6.700  20.128  11.549
75104W        W41535   7.418  32.621   0.377
75105W        W41536  44.343  18.687  13.888
75106W        W41537  16.687   8.912   1.312
75107W        W41538  20.317   0.241  13.472
75108W        W41539   0.966  40.735   3.237
75109W        W41540  34.161  35.484   4.111
75110W        W41541  29.745  30.924   3.153
75111W        W41542  26.710  28.588  12.248
75112W        W41543  17.741  28.943  14.939
75113W        W41544  11.391  33.694   0.383
75114W        W41545  35.128  10.710  11.921
75115W        W41546  25.218   6.326   1.188
75116W        W41547  29.858  12.432  13.877
75117W        W41548   1.846  24.715   2.130
75118W        W41549  36.027  32.956  11.503
75119W        W41550  42.480  16.185   1.569
75120W        W41551  18.373   9.854  13.485
75121W        W41552   8.288   9.957   2.820
75122W        W41553  33.013   2.057  11.171
75123W        W41554  12.726   6.457  14.797
75124W        W41555  26.496  24.743  13.559
75125W        W41556  19.310  14.825  14.114
75126W        W41557  16.542  24.049   3.695
75127W        W41558  41.569  42.863  13.438
75128W        W41559  37.933  18.607  11.699
75129W        W41560  21.524  21.007   3.447
75130W        W41561  36.554   7.257   2.180
75131W        W41562  33.167  44.472   0.431
75132W        W41563   7.248  20.975   2.843
75133W        W41564  32.171   0.762  14.220
75134W        W41565   6.420  16.019   3.020
75135W        W41566  12.781  42.016   3.197
75136W        W41567  18.068  38.428   5.088
75137W        W41568  34.856  26.597   3.029
75138W        W41569   0.732   8.926   3.211
75139W        W41570  13.636  27.449   0.724
75140W        W41571   1.072  36.423   2.696
75141W        W41572  23.768  31.188  12.138
75142W        W41573   2.105  26.482   1.377
75143W        W41574  35.045   5.907   2.296
75144W        W41575   8.697  38.087  14.883
75145W        W41576  13.153  42.384   0.723
75146W        W41577  13.109  15.673  13.538
75147W        W41578   0.515  33.574   3.956
75148W        W41579   8.804   5.330  13.748
75149W        W41580  40.667  20.997   2.691
75150W        W41581  43.114  14.409  13.857
75151W        W41582  25.065   9.331  14.489
75152W        W41583  36.604  40.839   3.548
75153W        W41584  33.577  42.468   0.674
75154W        W41585  38.917  16.772  12.484
75155W        W41586  17.298  43.113   4.942
75156W        W41587   6.433  39.820   3.078
75157W        W41588  44.612  44.894   0.830
75158W        W41589  21.861   1.080   1.758
75159W        W41590  19.070  27.939  11.630
75160W        W41591  29.504   9.960   3.539
75161W        W41592  22.270   2.587   3.591
75162W        W41593   5.959  31.440   1.885
75163W        W41594  30.442  16.663   2.437
75164W        W41595  15.554  24.971  14.395
75165W        W41596  24.159  12.599  13.964
75166W        W41597  24.387  21.564  14.165
75167W        W41598  34.817  12.772   1.382
75168W        W41599  25.159  19.883   4.920
75169W        W41600   9.050  22.206  14.906
75170W        W41601   6.178  28.414   3.198
75171W        W41602  38.839   1.633   4.532
75172W        W41603  36.866  26.001   1.759
75173W        W41604  37.038  34.083  10.467
75174W        W41605  17.602  44.777  12.522
75175W        W41606  32.077  22.282  10.242
75176W        W41607  34.144   0.338  14.115
75177W        W41608  23.635  31.980   3.962
75178W        W41609  44.471  40.504   4.505
75179W        W41610  37.527   9.230   2.328
75180W        W41611  41.603   3.266   0.873
75181W        W41612  30.157  43.775  11.935
75182W        W41613  17.821  20.076  11.014
75183W        W41614  38.331  23.986  11.126
75184W        W41615  10.288   6.149   3.313
75185W        W41616  23.252   4.899   3.068
75186W        W41617   9.252  25.812  12.588
75187W        W41618  37.865   5.333   0.087
75188W        W41619  22.459  36.338  12.889
75189W        W41620  27.587  26.186  12.946
75190W        W41621  37.121  32.126  11.258
75191W        W41622  41.936  15.606   0.196
75192W        W41623   0.271   7.414  11.616
75193W        W41624   6.902  21.534   4.212
75194W        W41625  10.124  17.798  12.106
75195W        W41626   4.348  28.784   3.589
75196W        W41627   5.284  10.109   2.316
75197W        W41628  39.162  36.930   1.733
75198W        W41629   8.455  39.258  11.245
75199W        W41630  15.761   3.491  12.465
75200W        W41631  25.016   4.689   0.226
75201W        W41632  29.393  25.276  10.558
75202W        W41633   1.128  35.161  14.961
75203W        W41634  34.026  42.630   2.340
75204W        W41635  25.637   9.376   4.840
75205W        W41636  36.425  23.224  10.803
75206W        W41637  26.411  20.055   9.829
75207W        W41638  14.387  27.227   0.930
75208W        W41639  30.556  34.887   2.670
75209W        W41640  13.761  22.739   4.089
75210W        W41641  40.034  38.485  13.047
75211W        W41642  44.690  13.804  11.868
75212W        W41643  39.975  16.819  14.814
75213W        W41644  23.363  25.918  11.126
75214W        W41645   1.991  36.922   4.218
75215W        W41646  25.071   1.295  13.047
75216W        W41647   7.833  40.529  12.471
75217W        W41648  34.642  28.602   5.471
75218W        W41649  38.852  37.763   1.777
75219W        W41650   8.278  37.993  12.050
75220W        W41651  41.781   0.863   0.288
75221W        W41652  21.582  44.941  11.562
75222W        W41653   9.181  35.171   2.824
75223W        W41654  10.585   4.383  14.823
75224W        W41655   8.247   1.746  12.527
75225W        W41656  38.447  24.683  12.486
75226W        W41657  43.526  40.318  14.444
75227W        W41658   2.127  11.685   2.611
75228W        W41659  27.926  31.132   4.255
75229W        W41660  12.251  11.733  13.860
75230W        W41661  13.373  30.827  11.918
75231W        W41662  21.309  16.263   1.002
75232W        W41663  22.227  38.470  12.503
75233W        W41664  15.671   6.734   4.194
75234W        W41665  42.513   8.203   1.068
75235W        W41666  13.256  31.547   2.151
75236W        W41667  32.974  12.580   4.040
75237W        W41668  39.379  31.498  12.896
75238W        W41669  38.754  27.617  10.636
75239W        W41670  39.969   8.759  13.882
75240W        W41671   8.454   7.222   2.210
75241W        W41672  12.594   4.663   3.330
75242W        W41673  41.396  31.256  11.526
75243W        W41674  13.654  13.947  14.524
75244W        W41675  29.632  18.026   2.346
75245W        W41676   8.707   7.078  10.750
75246W        W41677   6.348  39.261  14.789
75247W        W41678  10.803  10.294   1.934
75248W        W41679  37.371   0.899   5.264
75249W        W41680  24.630   2.173  12.993
75250W        W41681   1.564  31.096   3.312
75251W        W41682  12.106  24.565   3.262
75252W        W41683   0.759  23.702  10.808
75253W        W41684  23.087   2.362  12.666
75254W        W41685  15.581  36.446  11.975
75255W        W41686  35.281   2.357   2.832
75256W        W41687  38.886   1.878   4.083
75257W        W41688   3.905   4.349   0.076
75258W        W41689  36.147  24.415   1.709
75259W        W41690  29.949   9.220  12.357
75260W        W41691  36.842  29.013   3.665
75261W        W41692  13.097   9.642   4.225
75262W        W41693  12.081  36.982  11.858
75263W        W41694  21.446  20.222  13.791
75264W        W41695   9.760  19.298  11.159
75265W        W41696  43.884  27.415  13.135
75266W        W41697  31.529  32.579  14.242
75267W        W41698  11.614   9.697  13.023
75268W        W41699  17.272   4.982  14.213
75269W        W41700  39.524   5.750   2.703
75270W        W41701  20.031  15.346  11.612
75271W        W41702   7.171   0.402  13.944
75272W        W41703  26.217  28.717  12.169
75273W        W41704  42.308  12.381  11.986
75274W        W41705  13.741  31.436  14.314
75275W        W41706  31.615   9.210   1.357
75276W        W41707  13.176  16.066  11.118
75277W        W41708  42.201  17.961  14.704
75278W        W41709  11.196  25.612  13.104
75279W        W41710  19.995  31.319  14.012
75280W        W41711  35.240  19.797   2.616
75281W        W41712  42.005   1.785  13.032
75282W        W41713  42.865  44.864  12.126
75283W        W41714   4.197  39.444  11.449
75284W        W41715  30.681  29.458  13.092
75285W        W41716   2.874   1.519   1.383
75286W        W41717   0.773   0.532  14.056
75287W        W41718  43.319   0.297   4.937
75288W        W41719  25.289  37.373   4.738
75289W        W41720  28.735  36.877   0.157
75290W        W41721  24.225  44.858  14.069
75291W        W41722   0.620   5.957   0.540
75292W        W41723   6.473  35.094   0.841
75293W        W41724  26.400  33.084  12.462
75294W        W41725  18.688  14.012  14.902
75295W        W41726   4.471   8.590  14.954
75296W        W41727  29.984   8.837   3.671
75297W        W41728  38.542  33.638   3.287
75298W        W41729  20.139  11.609   1.248
75299W        W41730  29.525  34.980   4.857
75300W        W41731  11.083  23.199  11.414
75301W        W41732  12.981  44.610  13.945
75302W        W41733  35.373   1.000  12.929
75303W        W41734  28.543   2.848   3.780
75304W        W41735  36.058  28.951  11.560
75305W        W41736  17.761  10.417   0.970
75306W        W41737  17.235  21.974   0.502
75307W        W41738   4.338  38.767  11.033
75308W        W41739  42.744  27.079  11.593
75309W        W41740  11.875  15.027  11.091
75310W        W41741   9.092  24.662   4.983
75311W        W41742  38.908  43.245  13.794
75312W        W41743  38.023  36.086   5.053
75313W        W41744  16.963   2.790   1.931
75314W        W41745   3.816  42.007  13.925
75315W        W41746  25.797  20.115  14.279
75316W        W41747  35.832   3.004   2.782
75317W        W41748  27.107  20.829  10.177
75318W        W41749  20.176  35.126  14.845
75319W        W41750  22.580   9.444  10.693
75320W        W41751  11.142   5.323   2.152
75321W        W41752  44.852  11.375  11.260
75322W        W41753   0.918  44.830   4.460
75323W        W41754  42.864  23.293  11.483
75324W        W41755   6.832   2.890  10.841
75325W        W41756  42.703  38.475   3.250
75326W        W41757   4.917  33.137  12.004
75327W        W41758  40.124  10.290  12.492
75328W        W41759  42.019  31.857  13.017
75329W        W41760  14.858  38.757  14.814
75330W        W41761   1.414  27.423  10.961
75331W        W41762   3.435   9.037   1.455
75332W        W41763   2.755  29.957  12.637
75333W        W41764  10.623   4.270   4.054
75334W        W41765  24.673  44.205   0.489
75335W        W41766  27.957  28.019  14.690
75336W        W41767  37.939  41.473   3.317
75337W        W41768  31.005  38.370  13.401
75338W        W41769   6.925  36.970   0.760
75339W        W41770  34.609  38.131  13.852
75340W        W41771  20.241  12.584  11.124
75341W        W41772  35.729  32.115   4.938
75342W        W41773  37.477  29.200   3.219
75343W        W41774  16.277  19.305  10.667
75344W        W41775  15.280  27.634  12.934
75345W        W41776  20.262  10.056   2.634
75346W        W41777   0.313   4.453   3.535
75347W        W41778  35.128  23.491   1.281
75348W        W41779   6.163  28.434  13.811
75349W        W41780  36.521  17.696  12.153
75350W        W41781   9.733  10.820   3.285
75351W        W41782  40.153  25.173   3.167
75352W        W41783  38.815   8.405  10.598
75353W        W41784  17.391  24.719  13.129
75354W        W41785   2.292  24.065   0.002
75355W        W41786  11.254  22.550  13.376
75356W        W41787  43.361  15.800   4.364
75357W        W41788  40.606  44.641  13.069
75358W        W41789  36.348  15.245   4.244
75359W        W41790   8.724   4.805   5.168
75360W        W41791   5.475  43.926   4.225
75361W        W41792  40.411  25.280  12.551
75362W        W41793   1.944  14.161  12.098
75363W        W41794  31.186   3.253  11.517
75364W        W41795  19.132  41.643  14.061
75365W        W41796  33.832  20.478  12.274
75366W        W41797  11.737  24.569   2.208
75367W        W41798  27.175  16.651   0.076
75368W        W41799  30.711  43.808  11.898
75369W        W41800   7.320  40.049   0.937
75370W        W41801  22.650  10.444  10.170
75371W        W41802  37.923   8.691   0.728
75372W        W41803  38.655   7.861   1.830
75373W        W41804  10.353  33.324   0.303
75374W        W41805  41.040  30.471   2.821
75375W        W41806  28.972  27.456   0.544
75376W        W41807   1.534  12.388  13.882
75377W        W41808  31.370  21.798  13.443
75378W        W41809  20.471  30.196   3.675
75379W        W41810  42.941   5.680   4.094
75380W        W41811  17.822   4.837   2.566
75381W        W41812  20.962  34.161   0.973
75382W        W41813  14.885  12.564  10.373
75383W        W41814  21.066  35.633   2.375
75384W        W41815  30.453  30.633   4.364
75385W        W41816  23.206   7.663   1.891
75386W        W41817  33.366  19.671   4.479
75387W        W41818   0.967  39.813   3.926
75388W        W41819  16.095  27.169   1.183
75389W        W41820   2.670  37.562  14.300
75390W        W41821   5.225  24.161  13.308
75391W        W41822  13.263  34.652   2.137
75392W        W41823  15.543  44.291  12.008
75393W        W41824  14.794  32.083  13.737
75394W        W41825  43.890  41.326   4.427
75395W        W41826  22.380   9.073   0.749
75396W        W41827  35.302   2.172   2.347
75397W        W41828  19.226  19.186  13.955
75398W        W41829  31.192  18.600   2.642
75399W        W41830  36.041   5.440   1.241
75400W        W41831  23.853  11.081   0.441
75401W        W41832   1.654   2.479  10.716
75402W        W41833  25.069  22.584   4.764
75403W        W41834  37.595  42.578  14.309
75404W        W41835  22.652  16.185  11.449
75405W        W41836   1.430  12.685   3.008
75406W        W41837  14.731  27.156   3.805
75407W        W41838  22.089   9.821  12.071
75408W        W41839  37.063  40.809   1.384
75409W        W41840  29.264  44.730  12.689
75410W        W41841  31.351  16.802   1.504
75411W        W41842  32.709   9.791  11.202
75412W        W41843  31.547  41.170  14.366
75413W        W41844   4.902   8.268  13.018
75414W        W41845   2.193  40.822   3.223
75415W        W41846   6.672  34.920   3.654
75416W        W41847  43.135   3.190  13.588
75417W        W41848  10.253  38.204  10.557
75418W        W41849   4.363  34.310   0.202
75419W        W41850  44.251  28.323   3.027
75420W        W41851   5.817  40.461  10.632
75421W        W41852  12.354   7.827  14.883
75422W        W41853  26.925  12.256   4.068
75423W        W41854   9.243   8.783   3.846
75424W        W41855  28.491   7.333   0.015
75425W        W41856   1.370   3.505  10.457
75426W        W41857  43.430  18.688   0.975
75427W        W41858  20.028  24.462  12.874
75428W        W41859  13.750  24.946  12.643
75429W        W41860  23.053  43.813  12.030
75430W        W41861  30.164  15.668   2.730
75431W        W41862   3.014  40.505  13.151
75432W        W41863  15.712  24.260  13.499
75433W        W41864   1.132  17.152  13.438
75434W        W41865  22.750   7.134  12.635
75435W        W41866  17.837   6.435   4.922
75436W        W41867   2.171  34.303  10.069
75437W        W41868  38.425  42.549  12.995
75438W        W41869  26.189   1.616   1.599
75439W        W41870  23.371  27.527   9.922
75440W        W41871  24.966  26.616  10.690
75441W        W41872  33.596  12.918  10.714
75442W        W41873  39.450  40.487   1.229
75443W        W41874  10.710  41.002  12.851
75444W        W41875  24.511  21.917   5.127
75445W        W41876  29.928   1.765  13.961
75446W        W41877  33.918  13.230   3.283
75447W        W41878  28.594  19.201   1.633
75448W        W41879  15.791  35.099  14.514
75449W        W41880  38.953  13.196   0.249
75450W        W41881   5.822  13.728  13.429
75451W        W41882  39.623  32.994   3.693
75452W        W41883  29.501  27.407   4.478
75453W        W41884  17.048  22.657   1.270
75454W        W41885  17.244   0.201   3.221
75455W        W41886   7.154   0.554  10.991
75456W        W41887  28.034  12.744  12.863
75457W        W41888   5.387  34.711   1.420
75458W        W41889  30.691   9.718   1.928
75459W        W41890  28.581  17.353  11.679
75460W        W41891   3.064   0.407   3.327
75461W        W41892   9.806  33.873   2.648
75462W        W41893  12.638  20.989   0.245
75463W        W41894   0.504   2.177   2.557
75464W        W41895  18.630  25.073  12.845
75465W        W41896   7.827   9.372   3.973
75466W        W41897   9.764  36.181  13.831
75467W        W41898  39.354   5.003  13.244
75468W        W41899  22.422  32.155  11.530
75469W        W41900   4.958  32.970   1.631
75470W        W41901  12.094  32.737  13.422
75471W        W41902  11.372  41.254   1.413
75472W        W41903  27.582  34.238   0.936
75473W        W41904  44.467   3.260  14.303
75474W        W41905  17.754  41.856   0.865
75475W        W41906  20.176  36.020  10.284
75476W        W41907  10.568  32.463   2.106
75477W        W41908  17.614   0.725   4.239
75478W        W41909  23.601  39.461  11.993
75479W        W41910   1.292   0.866   1.830
75480W        W41911   7.408  36.383  13.505
75481W        W41912  25.190   2.929  14.905
75482W        W41913  22.568  23.541   4.308
75483W        W41914  11.891  14.138  12.522
75484W        W41915  28.422  43.941   1.428
75485W        W41916  18.284  41.415   1.245
75486W        W41917  38.018  41.004   3.535
75487W        W41918  30.954  14.725  11.239
75488W        W41919   5.545  44.486  13.063
75489W        W41920  39.504   4.288   2.419
75490W        W41921  39.781  15.159   3.466
75491W        W41922  28.932  28.372  11.288
75492W        W41923   3.152  26.736  10.021
75493W        W41924   3.865  15.276   4.337
75494W        W41925  30.551  14.783  14.865
75495W        W41926  44.924  30.454  11.723
75496W        W41927  17.896  34.969  14.395
75497W        W41928  12.878  43.991   1.301
75498W        W41929  13.893   5.670   1.720
75499W        W41930  10.891  22.550   0.329
75500W        W41931  10.667  40.479  12.845
75501W        W41932   3.139  10.293   0.454
75502W        W41933  35.859  28.486  11.688
75503W        W41934  36.531   7.209  13.735
75504W        W41935  27.393   5.862   1.850
75505W        W41936  29.634  10.871  11.449
75506W        W41937  28.277   2.188  13.578
75507W        W41938  17.283  33.186   2.914
75508W        W41939  21.528  35.511  12.439
75509W        W41940  12.364  17.651  13.566
75510W        W41941   9.428   9.302   0.351
75511W        W41942  42.538  41.274  12.985
75512W        W41943   7.396  38.560   0.810
75513W        W41944  15.481  18.323  14.478
75514W        W41945  23.085   4.677   1.739
75515W        W41946  24.175  42.237   4.676
75516W        W41947  44.624  30.558   2.585
75517W        W41948  40.040  11.504   4.130
75518W        W41949  28.853  42.349   1.830
75519W        W41950  30.265  19.467  10.751
75520W        W41951   2.855  25.257  13.746
75521W        W41952  24.706  17.192   0.910
75522W        W41953  28.974  26.163   2.232
75523W        W41954  28.409   9.751   4.991
75524W        W41955  38.274  44.960   2.827
75525W        W41956  40.029  42.008  12.545
75526W        W41957  19.313  26.977   1.432
75527W        W41958   0.888  32.350  12.861
75528W        W41959  26.620  14.207   1.340
75529W        W41960   5.364  26.653  11.235
75530W        W41961  30.976  24.699   3.715
75531W        W41962   8.486  29.432  13.477
75532W        W41963  41.529  11.833   4.229
75533W        W41964   9.096  19.740  11.851
75534W        W41965  12.864  23.389   4.903
75535W        W41966  11.824  41.428  12.166
75536W        W41967  17.732  13.777   3.744
75537W        W41968  31.627  22.198  13.649
75538W        W41969  37.560  37.355   1.279
75539W        W41970  32.366   2.652  12.943
75540W        W41971  31.151  30.561  11.344
75541W        W41972  15.034  40.777  13.890
75542W        W41973  25.640   3.471   0.698
75543W        W41974  28.689  37.594  13.935
75544W        W41975  34.007  44.940   4.487
75545W        W41976  18.030  17.733   3.047
75546W        W41977  27.924  23.710   0.386
75547W        W41978  16.968  16.446   0.873
75548W        W41979  21.194  19.361  12.067
75549W        W41980  22.906  41.880  13.592
75550W        W41981  26.186  32.861   0.392
75551W        W41982  27.636   2.043  12.812
75552W        W41983  38.970  28.046  14.334
75553W        W41984  25.702   2.977  14.918
75554W        W41985  40.430  25.485  13.021
75555W        W41986  22.453   1.234   0.390
75556W        W41987  28.060   0.218  11.675
75557W        W41988   3.298  17.725   5.183
75558W        W41989   6.793  37.853  13.141
75559W        W41990  37.663  36.462  13.338
75560W        W41991  13.342  36.147   1.730
75561W        W41992  37.925  25.229  12.222
75562W        W41993   6.299  20.072  14.305
75563W        W41994   7.710  22.324   3.883
75564W        W41995  22.102  35.972  10.791
75565W        W41996  43.562  41.825  11.781
75566W        W41997  36.597  17.724   1.366
75567W        W41998  27.775  29.339   2.861
75568W        W41999  15.464  18.824   2.274
75569W        W42000  33.125   9.654   2.332
75570W        W42001  31.999  43.495   0.740
75571W        W42002  37.701  11.177  14.530
75572W        W42003   0.201   1.340   0.240
75573W        W42004   8.941  21.603  12.599
75574W        W42005  25.085   1.053  13.537
75575W        W42006   1.635  41.469  13.387
75576W        W42007  42.547  33.960  10.703
75577W        W42008  20.159   6.346   1.754
75578W        W42009  36.565  32.590  13.040
75579W        W42010   8.448  40.835   4.379
75580W        W42011   0.937  27.010   1.821
75581W        W42012  17.327  30.073  14.375
75582W        W42013  43.281  21.524   1.386
75583W        W42014  37.922  35.848  12.627
75584W        W42015  29.052   2.574  10.466
75585W        W42016   5.148  15.672   2.671
75586W        W42017  29.096  34.842  13.345
75587W        W42018   3.713  28.726   0.405
75588W        W42019  30.111   0.968  11.269
75589W        W42020  25.460  42.806   3.074
75590W        W42021  16.155   7.401   3.230
75591W        W42022   7.545   8.754   2.611
75592W        W42023   3.687  30.925   4.200
75593W        W42024   8.347  27.089  13.999
75594W        W42025  24.167  25.172   4.063
75595W        W42026  21.316   0.372  11.540
75596W        W42027  25.134  13.330   2.255
75597W        W42028  33.092  14.678   4.933
75598W        W42029  29.883  30.501  11.138
75599W        W42030  32.408  17.104   2.989
75600W        W42031  23.420   6.287   3.617
75601W        W42032  24.519  22.539  12.486
75602W        W42033  21.489  25.419   5.062
75603W        W42034  23.961  13.262  14.791
75604W        W42035  41.516  33.982   0.405
75605W        W42036  30.472  26.327  14.635
75606W        W42037  43.632   2.997  12.807
75607W        W42038   3.495  26.622   1.402
75608W        W42039   6.939  27.162  13.398
75609W        W42040  24.000  29.528  12.969
75610W        W42041  35.725  23.094   2.119
75611W        W42042  11.847   7.484   3.853
75612W        W42043  27.689  27.597   3.842
75613W        W42044   5.453   2.678  11.016
75614W        W42045   6.724  27.207  14.361
75615W        W42046  37.750  12.280   4.037
75616W        W42047  22.035  41.037   1.581
75617W        W42048  12.149  43.735   0.364
75618W        W42049  29.609  22.105  14.548
75619W        W42050  31.175  17.773   1.852
75620W        W42051  36.461  33.957   4.094
75621W        W42052  20.124   6.614  10.728
75622W        W42053   9.350  10.237  12.686
75623W        W42054   7.360  38.120  12.165
75624W        W42055  34.821  18.698  13.120
75625W        W42056  28.866   8.772  14.840
75626W        W42057  21.527  41.459   3.488
75627W        W42058  18.394   5.771  13.393
75628W        W42059  43.431  32.094   3.618
75629W        W42060  31.694  24.026  11.233
75630W        W42061  39.820  21.171   1.620
75631W        W42062  24.103  44.405  12.884
75632W        W42063  37.499  27.552  11.436
75633W        W42064  36.430  16.119  12.045
75634W        W42065  27.540  18.694  11.894
75635W        W42066   8.343  18.450  13.394
75636W        W42067  38.363  17.722   0.932
75637W        W42068   6.292   5.728  14.266
75638W        W42069  22.637  23.377   1.458
75639W        W42070  42.052  29.396  12.315
75640W        W42071   0.483  28.894  14.193
75641W        W42072   5.825   8.532   4.226
75642W        W42073  25.564   0.271   0.743
75643W        W42074   3.312  26.698   2.766
75644W        W42075  33.983   8.404   0.758
75645W        W42076  11.754  26.392  13.080
75646W        W42077  35.790  13.176   3.621
75647W        W42078   8.867  15.740  12.123
75648W        W42079  34.663   6.328  13.860
75649W        W42080  38.061   5.376   1.198
75650W        W42081   2.920  39.002  10.725
75651W        W42082  44.251  26.178  13.889
75652W        W42083  15.614  23.238   1.486
75653W        W42084  32.073  27.547   2.886
75654W        W42085  30.412  20.967   4.487
75655W        W42086  14.080  34.654   2.649
75656W        W42087   4.740  17.080  10.856
75657W        W42088  10.238  15.206   4.909
75658W        W42089  22.856   1.704  11.243
75659W        W42090  32.175   5.790  10.917
75660W        W42091  17.995  15.153   1.814
75661W        W42092  44.363  38.771   4.966
75662W        W42093  25.545  22.324  11.069
75663W        W42094  37.461  42.896  11.152
75664W        W42095  19.726  28.369   1.748
75665W        W42096  22.476   8.839  14.878
75666W        W42097  29.474   5.852   0.813
75667W        W42098  44.379  32.175  11.595
75668W        W42099  17.770   9.568   4.179
75669W        W42100  17.079  22.149  14.002
75670W        W42101  29.521  19.341   3.755
75671W        W42102  12.362  25.982  11.151
75672W        W42103   0.926  35.113  13.955
75673W        W42104  22.893   4.189   1.716
75674W        W42105  34.552  36.955  14.353
75675W        W42106   4.695   0.337  11.795
75676W        W42107  15.164   7.218   1.430
75677W        W42108  44.596  42.255  12.813
75678W        W42109   3.937  36.502  12.148
75679W        W42110  28.913  16.740  13.234
75680W        W42111   0.812  23.496  12.651
75681W        W42112  21.468   0.498   2.959
75682W        W42113  15.326   9.466  12.438
75683W        W42114  22.442  25.424  12.452
75684W        W42115  22.510  33.609  12.432
75685W        W42116  27.436  14.527  12.842
75686W        W42117  17.068  17.497  12.026
75687W        W42118   0.497  25.996  11.265
75688W        W42119  28.986  12.145   4.403
75689W        W42120   9.841   3.449   2.832
75690W        W42121  32.398  35.876   2.402
75691W        W42122  25.693  24.948   2.957
75692W        W42123  25.271  26.229  13.392
75693W        W42124   9.676  33.895   4.143
75694W        W42125  14.512  28.159  14.977
75695W        W42126   9.468   7.785   3.768
75696W        W42127  18.812  18.756   4.920
75697W        W42128  36.623  24.083  14.365
75698W        W42129  21.081  22.638  12.383
75699W        W42130  39.476  38.521  13.838
75700W        W42131   3.193  17.274   0.429
75701W        W42132  23.323  43.664  11.608
75702W        W42133  44.422  14.296  13.972
75703W        W42134  19.730  11.724   2.649
75704W        W42135  38.212   0.858  10.707
75705W        W42136  26.588   2.284  12.162
75706W        W42137  36.521   0.287  12.116
75707W        W42138  12.656  19.026   1.856
75708W        W42139  12.346  24.036  14.852
75709W        W42140  19.988  38.526  14.099
75710W        W42141  29.360   3.851   3.672
75711W        W42142  38.066  28.210  11.171
75712W        W42143  19.478  22.061  14.226
75713W        W42144  19.812  33.492   4.217
75714W        W42145  14.321   7.766   4.354
75715W        W42146   8.208  31.910   0.826
75716W        W42147  17.316  37.770  12.376
75717W        W42148   0.842  43.579   1.850
75718W        W42149  32.944  39.763  13.235
75719W        W42150  31.028  19.291  14.516
75720W        W42151   7.023  10.285   3.232
75721W        W42152  41.801  35.010  13.539
75722W        W42153   3.355  44.416  12.489
75723W        W42154  44.268  42.230  11.370
75724W        W42155   9.795  44.673   4.824
75725W        W42156  42.102  39.539   4.629
75726W        W42157  40.525   6.185   4.088
75727W        W42158  24.188  16.375   2.205
75728W        W42159  37.360  32.695  10.121
75729W        W42160  29.151  10.247   1.821
75730W        W42161  23.758   4.858  12.369
75731W        W42162  14.226   7.950  13.527
75732W        W42163   6.246  16.298  12.042
75733W        W42164   2.773  33.022   4.267
75734W        W42165  44.844  23.691  12.982
75735W        W42166  40.852   2.150  10.639
75736W        W42167  43.560  28.702   3.605
75737W        W42168  15.939  41.560  13.028
75738W        W42169  31.160  41.419  12.265
75739W        W42170  14.589  16.582   0.871
75740W        W42171  28.359  41.976   2.212
75741W        W42172  22.204   3.489  14.918
75742W        W42173   5.385  37.903   1.300
75743W        W42174  36.252   5.126   1.611
75744W        W42175  16.690  28.668   2.296
75745W        W42176  43.944  36.021   0.179
75746W        W42177  38.956   6.875  13.349
75747W        W42178  33.580  17.122  13.633
75748W        W42179  12.261  26.299   2.606
75749W        W42180  32.383   5.822   1.296
75750W        W42181  21.518  42.329   3.721
75751W        W42182  18.309   7.884  12.105
75752W        W42183  10.296   0.450  14.595
75753W        W42184   5.841  33.088  14.230
75754W        W42185   0.378   5.449  10.704
75755W        W42186  36.902  16.828   3.778
75756W        W42187  17.598  27.971   2.706
75757W        W42188  16.077  18.108   2.714
75758W        W42189   5.407  10.501  14.304
75759W        W42190   4.583  37.403  14.234
75760W        W42191  35.418   8.200  12.718
75761W        W42192  29.402  35.376   3.068
75762W        W42193  14.434  28.676   1.774
75763W        W42194  44.813  37.720   3.801
75764W        W42195  35.346  24.181   4.209
75765W        W42196  42.988   8.257   1.887
75766W        W42197  43.074   6.306  13.880
75767W        W42198  27.702  10.637  10.586
75768W        W42199   6.375   2.318  14.475
75769W        W42200   4.958  33.667   5.050
75770W        W42201  25.968  42.885  14.391
75771W        W42202  17.976  41.843   2.310
75772W        W42203  15.269  12.784   3.816
75773W        W42204  42.721  44.743   4.568
75774W        W42205   5.313   6.272  13.874
75775W        W42206  36.071  33.660   0.204
75776W        W42207  17.523  12.215   0.383
75777W        W42208   8.237  21.142   3.679
75778W        W42209  13.625   3.171  14.361
75779W        W42210  27.066  11.535   0.277
75780W        W42211   8.938  14.753  12.576
75781W        W42212  15.255  24.908   2.896
75782W        W42213  24.453  23.664  10.951
75783W        W42214  37.795   1.744   1.803
75784W        W42215  24.226   3.012  11.037
75785W        W42216  36.778  26.006  14.307
75786W        W42217   8.227   8.813   4.055
75787W        W42218  29.879  25.716   3.787
75788W        W42219  34.128  38.460  10.624
75789W        W42220  33.269   6.249   1.582
75790W        W42221  22.132  25.806  14.401
75791W        W42222  30.389  15.603  12.924
75792W        W42223  32.964  36.465  10.755
75793W        W42224  42.901  36.183   1.931
75794W        W42225  15.678  26.013   2.773
75795W        W42226  43.018  11.803  13.363
75796W        W42227   4.436  19.826   3.705
75797W        W42228  28.215  13.373   4.114
75798W        W42229   1.746  34.588   2.021
75799W        W42230  42.298   8.611   5.222
75800W        W42231  37.874   5.890  14.874
75801W        W42232  32.808  29.257   2.403
75802W        W42233  34.636  42.184   3.047
75803W        W42234  23.588  39.371  14.532
75804W        W42235  11.252  17.015  13.031
75805W        W42236   0.489  12.602  13.737
75806W        W42237  36.054  25.084   1.230
75807W        W42238   7.739  29.383  13.032
75808W        W42239  44.085  44.384   3.829
75809W        W42240  10.148  42.403  13.887
75810W        W42241  39.820   3.535  10.685
75811W        W42242  38.285  25.198   4.774
75812W        W42243  29.273  27.098   4.131
75813W        W42244   5.319  20.196   3.612
75814W        W42245  13.792  13.115  12.914
75815W        W42246  14.627  10.879   2.657
75816W        W42247  34.543  27.702   4.143
75817W        W42248   7.695  41.926   4.984
75818W        W42249  38.499  21.967   2.321
75819W        W42250  29.705  16.308   0.028
75820W        W42251  18.574  19.156  11.953
75821W        W42252  41.361  27.393   3.564
75822W        W42253  28.927  34.890  11.103
75823W        W42254   8.623  33.008  12.419
75824W        W42255  37.142  27.422  14.315
75825W        W42256   0.544  16.634  13.301
75826W        W42257  11.251  33.112   1.386
75827W        W42258  36.341  34.070   2.542
75828W        W42259  10.893  21.565  10.564
75829W        W42260  33.446  39.844  13.071
75830W        W42261  36.679  41.702  10.181
75831W        W42262  18.183  15.075  13.903
75832W        W42263  35.910  42.988  14.842
75833W        W42264   8.823  40.275   3.211
75834W        W42265  33.829   5.239  10.428
75835W        W42266  15.739  33.263  13.351
75836W        W42267  41.933   6.794  11.556
75837W        W42268  43.411   6.769  11.270
75838W        W42269  42.470  29.592   3.128
75839W        W42270  34.624  37.892   3.141
75840W        W42271  19.747   4.722  14.031
75841W        W42272  40.291  15.634   0.807
75842W        W42273  41.321   2.581   4.961
75843W        W42274  10.217  29.343  14.894
75844W        W42275  35.126  13.830  11.570
75845W        W42276  27.920  23.692  13.424
75846W        W42277  30.671   0.274  14.818
75847W        W42278  35.950  27.424  11.188
75848W        W42279  39.006  38.952  11.673
75849W        W42280  30.860  31.910  11.648
75850W        W42281   0.870  31.172  10.529
75851W        W42282  13.704  18.066  13.020
75852W        W42283   1.010  37.366  13.220
75853W        W42284  18.069  33.388   1.789
75854W        W42285  12.623   0.738  13.604
75855W        W42286  13.370  16.643  12.059
75856W        W42287  31.972  43.019   0.207
75857W        W42288  35.263  44.637  11.300
75858W        W42289   0.348   7.191   0.097
75859W        W42290  40.998  22.001  13.461
75860W        W42291  27.966  11.676   4.599
75861W        W42292   0.915  36.950  14.176
75862W        W42293  38.645  14.341   3.651
75863W        W42294   0.970   9.389   3.230
75864W        W42295  34.457   0.780   2.674
75865W        W42296  38.612  41.481  14.913
75866W        W42297  29.719  20.515  12.047
75867W        W42298  23.506  39.984   2.782
75868W        W42299  33.995  11.102   3.726
75869W        W42300  22.278  14.352  11.928
75870W        W42301   9.193  44.210   1.734
75871W        W42302   4.469  10.377  13.828
75872W        W42303  24.270  15.772   3.661
75873W        W42304   5.699  42.759  12.137
75874W        W42305  40.992   6.424  10.438
75875W        W42306  29.463   3.968  11.560
75876W        W42307  29.136  40.440   0.410
75877W        W42308   2.499   6.896   2.352
75878W        W42309  27.194  13.702  13.358
75879W        W42310  31.157  10.823  13.497
75880W        W42311  15.283  30.521   4.245
75881W        W42312   2.947  27.763  13.980
75882W        W42313  26.168  30.468  13.913
75883W        W42314  36.202  11.726  12.748
75884W        W42315  13.825  35.975  11.970
75885W        W42316   4.168  35.347   2.649
75886W        W42317  11.254  34.587  11.543
75887W        W42318  42.877  27.773   1.610
75888W        W42319  13.752  34.973   2.865
75889W        W42320  15.754   5.984  14.911
75890W        W42321  29.592  18.542   1.444
75891W        W42322  23.577  29.231   2.604
75892W        W42323  29.185  13.212   2.367
75893W        W42324   5.927  20.329   0.342
75894W        W42325  23.179  33.929  13.904
75895W        W42326  18.235  43.124   4.449
75896W        W42327   6.620  27.716  11.171
75897W        W42328   8.195  27.946   2.936
75898W        W42329   9.918  20.563   3.729
75899W        W42330   0.213  22.887  11.102
75900W        W42331  11.741  16.005  12.684
75901W        W42332  18.097  26.166   2.127
75902W        W42333  22.018  22.177  11.205
75903W        W42334  39.390  29.827   1.250
75904W        W42335  18.777  10.890  14.887
75905W        W42336   5.254  18.638   1.213
75906W        W42337  29.160  38.328  13.547
75907W        W42338  27.992  33.011  13.555
75908W        W42339  31.196   0.340  13.506
75909W        W42340   2.304  36.893  14.367
75910W        W42341   3.531  37.897   3.253
75911W        W42342  31.335  28.267  13.406
75912W        W42343  22.600  19.587   1.759
75913W        W42344  10.256  17.052  10.387
75914W        W42345  32.473  44.226  12.141
75915W        W42346  42.046   7.194  10.742
75916W        W42347  24.052  12.044  12.972
75917W        W42348  24.519  30.673   1.222
75918W        W42349  16.536  44.747  14.338
75919W        W42350  32.158  27.731   1.598
75920W        W42351  30.095  25.083  13.139
75921W        W42352  22.959   2.818  12.926
75922W        W42353  26.938  34.341   3.283
75923W        W42354  30.527  28.960  11.952
75924W        W42355   5.939  41.553  14.759
75925W        W42356  44.484   5.587  14.859
75926W        W42357  17.799  10.157   3.217
75927W        W42358   6.844  10.101   4.382
75928W        W42359  13.681  44.566   4.092
75929W        W42360  20.571  21.181   2.423
75930W        W42361   7.811   2.134   3.757
75931W        W42362  37.462  26.287  14.882
75932W        W42363  25.469   3.653  14.366
75933W        W42364   9.676  26.360   4.039
75934W        W42365  36.509  31.169   3.980
75935W        W42366  15.540  21.689  11.489
75936W        W42367  40.549  25.634   1.318
75937W        W42368   7.608  21.103  13.473
75938W        W42369  15.220  21.957   0.860
75939W        W42370   1.051  43.093   2.443
75940W        W42371  15.802  32.809  13.004
75941W        W42372  33.109  39.037   1.913
75942W        W42373  22.723  34.047  11.547
75943W        W42374  19.541  34.595  14.822
75944W        W42375  16.088   4.998  12.069
75945W        W42376  13.144  15.644   1.366
75946W        W42377   4.775  32.356   3.753
75947W        W42378   9.687  18.094  12.523
75948W        W42379  33.222  13.117   3.573
75949W        W42380  38.159  41.752  14.810
75950W        W42381  38.996  16.631   2.853
75951W        W42382  30.570  44.923   4.539
75952W        W42383  22.647  29.482   1.704
75953W        W42384  11.392  10.202  13.971
75954W        W42385   4.527  20.421  13.369
75955W        W42386   5.217   2.928  13.444
75956W        W42387   7.631  42.334   2.656
75957W        W42388   7.373  40.209  14.396
75958W        W42389  18.234  15.889   3.374
75959W        W42390   8.692  24.358   1.516
75960W        W42391  10.362   4.311  12.114
75961W        W42392  38.568   9.100   2.304
75962W        W42393  33.848  13.156  14.214
75963W        W42394  35.569  26.143  11.993
75964W        W42395   1.829  34.360   1.060
75965W        W42396  22.541  31.481   4.069
75966W        W42397  28.726  29.050   2.958
75967W        W42398  23.633   2.103   4.723
75968W        W42399  39.922  29.136   4.660
75969W        W42400  41.519  30.031   3.173
75970W        W42401  10.825  40.609   0.701
75971W        W42402  28.033  43.103  10.347
75972W        W42403  44.016  23.767   0.557
75973W        W42404  44.988  42.951   1.264
75974W        W42405  26.160  17.973   3.633
75975W        W42406  44.813  22.439   0.463
75976W        W42407  35.892  34.332   0.900
75977W        W42408  22.495  26.762  14.366
75978W        W42409  43.438   3.408  14.085
75979W        W42410   7.008  10.900   2.256
75980W        W42411  41.289   9.696   2.176
75981W        W42412  12.572  10.675  14.435
75982W        W42413  34.461  36.580   4.459
75983W        W42414  35.381  32.618  14.726
75984W        W42415  30.916  11.665  10.651
75985W        W42416  34.502  30.378  13.650
75986W        W42417  15.068   1.168   3.175
75987W        W42418   1.884  25.802   4.987
75988W        W42419  17.016  18.723   0.951
75989W        W42420  34.872  16.726  12.951
75990W        W42421  24.540   7.882  14.561
75991W        W42422  23.637   5.174   4.567
75992W        W42423  20.278  42.418  11.139
75993W        W42424  22.486  16.564   4.586
75994W        W42425  41.791  30.860  11.576
75995W        W42426  31.179   3.482   0.749
75996W        W42427   7.888   4.227  12.057
75997W        W42428  10.375   5.792   0.927
75998W        W42429  29.176   9.617   3.257
75999W        W42430  35.494  37.340   4.378
76000W        W42431  18.674   6.398   2.370
76001W        W42432  10.865  21.013   2.436
76002W        W42433   6.285   9.279  12.566
76003W        W42434  39.816  38.404  11.659
76004W        W42435  18.714   8.804  11.304
76005W        W42436   3.656  19.697  13.506
76006W        W42437  34.943  33.761   2.743
76007W        W42438  18.319  25.458  13.021
76008W        W42439  33.817   2.391  13.790
76009W        W42440  40.315  18.611  10.598
76010W        W42441  41.361  26.329   4.827
76011W        W42442  35.026  19.022   4.181
76012W        W42443  14.399   5.708   1.855
76013W        W42444  27.376  11.471  13.897
76014W        W42445  28.866   7.854  10.741
76015W        W42446  33.314  44.578  12.819
76016W        W42447  43.443  11.827   3.827
76017W        W42448  14.628   8.690   0.756
76018W        W42449  38.885  24.669   2.432
76019W        W42450  36.072  16.046   2.737
76020W        W42451  34.405   4.734  13.345
76021W        W42452  12.806  14.948   0.761
76022W        W42453  10.386  13.233  14.412
76023W        W42454  44.889   2.421  12.227
76024W        W42455  12.595  23.418   1.004
76025W        W42456  44.304  26.766   2.213
76026W        W42457  23.157  27.974   9.717
76027W        W42458   1.717  26.197   2.580
76028W        W42459   8.939  34.363  12.858
76029W        W42460  15.008  20.120  14.690
76030W        W42461  10.530  36.219  13.469
76031W        W42462  17.253   5.434  13.129
76032W        W42463  28.418  43.723   0.542
76033W        W42464  35.978   0.063   2.621
76034W        W42465   2.524   1.227   2.214
76035W        W42466   6.363  14.615  12.074
76036W        W42467  21.710   6.701   3.184
76037W        W42468  39.546  43.219  11.162
76038W        W42469  22.087  41.499   3.769
76039W        W42470  32.452  21.630  12.334
76040W        W42471  13.217  42.698   4.165
76041W        W42472  21.097  22.233   0.051
76042W        W42473   9.885  23.489   0.746
76043W        W42474  44.555  32.144  10.329
76044W        W42475  33.516  14.391  10.127
76045W        W42476  31.047   5.367   2.647
76046W        W42477   3.185  12.116   3.555
76047W        W42478   7.456   5.176   1.437
76048W        W42479  25.764  33.995   2.660
76049W        W42480   2.205  43.325  14.526
76050W        W42481  26.798  18.022   9.874
76051W        W42482  27.934  28.894  11.599
76052W        W42483  41.189  28.583   0.967
76053W        W42484  28.862  43.973  14.424
76054W        W42485  31.100  40.731   1.489
76055W        W42486  37.630   2.556   1.654
76056W        W42487  10.652  33.623   4.104
76057W        W42488  14.622  17.306   4.222
76058W        W42489   8.805  12.853  11.523
76059W        W42490  28.827  41.883  12.456
76060W        W42491  31.303  21.702  12.095
76061W        W42492  38.826  22.559   1.881
76062W        W42493  14.591  41.010  11.124
76063W        W42494  25.523   6.470  10.940
76064W        W42495   1.432  44.938   4.600
76065W        W42496  25.252   8.555   0.969
76066W        W42497  16.057  37.464  14.424
76067W        W42498  36.317  21.226   4.756
76068W        W42499  34.881  32.998   4.344
76069W        W42500  34.049  40.426  11.037
76070W        W42501  27.926  36.689  14.751
76071W        W42502  14.726  41.845   3.055
76072W        W42503  13.047   5.268   0.554
76073W        W42504  19.561  26.309  14.433
76074W        W42505  37.862  15.790   4.476
76075W        W42506   0.016  36.290   2.055
76076W        W42507   6.242  12.430   4.652
76077W        W42508   4.857  41.888   3.205
76078W        W42509  21.512  44.315  13.832
76079W        W42510   5.223  16.967   2.625
76080W        W42511  14.690   4.584   2.319
76081W        W42512  20.948  11.656   4.951
76082W        W42513   3.852  29.146  12.532
76083W        W42514  22.769   5.702  12.572
76084W        W42515  24.567  30.106   2.358
76085W        W42516   5.170  35.465   0.369
76086W        W42517  25.321  29.103  11.935
76087W        W42518  29.727  22.171  11.636
76088W        W42519  31.517  28.547   3.209
76089W        W42520  43.447   6.398   3.860
76090W        W42521  39.981  20.464  12.456
76091W        W42522  11.398  18.438  14.270
76092W        W42523  18.399  11.366   2.762
76093W        W42524  36.901   8.327   0.069
76094W        W42525   1.964  13.447   3.340
76095W        W42526  35.560  31.534   2.822
76096W        W42527  37.993  34.529  12.849
76097W        W42528  23.001  19.509   0.450
76098W        W42529   8.238   5.004   0.976
76099W        W42530  23.668  33.641   2.749
76100W        W42531  23.757  29.341   3.816
76101W        W42532   3.504  31.907  13.869
76102W        W42533  34.883  37.934  10.925
76103W        W42534  30.552  37.642  13.223
76104W        W42535   4.164   9.920  11.168
76105W        W42536  14.334  37.654  13.327
76106W        W42537  14.719   4.771   0.322
76107W        W42538  27.645   3.109   2.560
76108W        W42539  30.532   6.274  14.843
76109W        W42540  30.693  17.797   2.647
76110W        W42541  24.532   4.257  12.769
76111W        W42542   3.386  16.842  13.066
76112W        W42543  13.140   5.696   2.696
76113W        W42544  40.904   2.835  11.481
76114W        W42545  16.329  44.475  12.461
76115W        W42546  19.848  23.471  13.912
76116W        W42547  17.039  43.373  12.604
76117W        W42548   1.921  19.528  14.151
76118W        W42549  22.797  16.550   3.632
76119W        W42550  12.776  41.996  14.654
76120W        W42551  26.083  44.310   0.475
76121W        W42552  26.199   8.609  14.318
76122W        W42553   2.675   9.644  11.301
76123W        W42554  37.986  37.111  12.024
76124W        W42555  17.550  29.617  14.577
76125W        W42556  12.145  13.871   1.315
76126W        W42557  23.652  36.283  13.759
76127W        W42558   4.867   7.278  10.232
76128W        W42559  23.942  24.133   0.350
76129W        W42560  19.042  29.000   1.322
76130W        W42561   0.864   4.144   3.798
76131W        W42562   2.430  23.122  11.542
76132W        W42563  17.695  41.875   1.871
76133W        W42564  10.241   9.845  14.368
76134W        W42565   4.588   8.155  10.807
76135W        W42566  13.362  34.819  12.032
76136W        W42567  37.964  44.804   1.800
76137W        W42568  18.581   7.059   4.646
76138W        W42569   9.584  20.372   2.181
76139W        W42570   5.400  12.860   0.955
76140W        W42571  25.666  32.086   0.730
76141W        W42572   5.497  27.420   4.056
76142W        W42573  24.476  12.580  11.660
76143W        W42574  44.465   2.660   3.217
76144W        W42575  43.527  17.134   0.385
76145W        W42576  10.102  39.006   1.818
76146W        W42577  16.391   2.244  12.114
76147W        W42578  29.517  32.444  14.480
76148W        W42579   0.985   4.756  11.562
76149W        W42580  23.139  10.816   3.498
76150W        W42581  32.188   9.268  14.390
76151W        W42582  13.227  39.850   0.838
76152W        W42583   9.691   1.959   4.773
76153W        W42584  28.453  23.094  14.704
76154W        W42585  24.467  19.752   3.931
76155W        W42586  44.808  27.992  13.069
76156W        W42587  37.875  13.119  12.803
76157W        W42588  21.165  40.436   2.835
76158W        W42589  25.465   4.001   3.203
76159W        W42590  26.026  22.481  10.320
76160W        W42591   4.912  43.032  14.985
76161W        W42592  16.041   6.648   2.824
76162W        W42593   7.676  44.208   5.070
76163W        W42594  22.114  44.416   3.618
76164W        W42595   9.347  25.006   4.697
76165W        W42596  31.084  23.088  10.613
76166W        W42597  38.662  42.026  14.850
76167W        W42598   5.660  35.624   2.862
76168W        W42599  23.016  20.231   2.802
76169W        W42600  27.451  12.319  11.610
76170W        W42601  14.133  42.101  14.883
76171W        W42602  20.482  30.945   2.318
76172W        W42603  23.120  11.304   3.776
76173W        W42604  15.242  30.879  12.543
76174W        W42605   2.905  33.486  11.153
76175W        W42606  42.114  23.099  13.097
76176W        W42607  36.897  24.168  12.074
76177W        W42608  11.478  44.604   2.956
76178W        W42609  35.531  16.086  13.020
76179W        W42610  23.608  32.908   1.350
76180W        W42611  16.027  10.252  13.542
76181W        W42612   3.264  41.159  12.607
76182W        W42613  29.550  43.472  13.445
76183W        W42614  21.515  37.521   5.413
76184W        W42615  15.864  30.580   2.180
76185W        W42616   2.439   8.762  13.875
76186W        W42617   5.062   9.756   3.675
76187W        W42618  11.953  11.327  13.744
76188W        W42619  41.761  13.774   0.377
76189W        W42620  10.200  40.828   1.420
76190W        W42621  37.120  16.702   1.646
76191W        W42622  33.220  12.705  10.403
76192W        W42623  41.789  32.984   1.495
76193W        W42624  20.192   9.153  14.810
76194W        W42625  25.428  44.796   0.973
76195W        W42626  23.643  36.160   1.354
76196W        W42627  41.269  23.007   0.841
76197W        W42628  20.571  27.991   1.375
76198W        W42629  29.180  22.184  14.845
76199W        W42630  24.516  42.011  14.492
76200W        W42631  22.940  21.289  13.398
76201W        W42632  24.936  14.744  11.167
76202W        W42633   9.904  19.573   1.832
76203W        W42634  36.760  42.327   2.795
76204W        W42635  11.160  18.211  14.722
76205W        W42636  40.794  40.344   2.698
76206W        W42637  29.726   3.750   3.239
76207W        W42638  42.457   8.642   0.805
76208W        W42639  29.166   5.173  14.490
76209W        W42640  30.960  41.272  10.873
76210W        W42641  16.773  37.578   4.976
76211W        W42642  16.331   6.705   3.667
76212W        W42643  22.631   6.246  10.860
76213W        W42644   6.799  21.464  13.607
76214W        W42645  21.992  33.949  11.144
76215W        W42646  34.958  28.221   1.685
76216W        W42647  37.539  15.016   5.078
76217W        W42648  43.016  21.619  14.892
76218W        W42649  30.774  14.192   4.166
76219W        W42650  20.496   4.283  12.398
76220W        W42651  36.455  30.301  13.103
76221W        W42652  33.619  17.630  11.553
76222W        W42653  25.247  30.980  13.846
76223W        W42654  31.701   9.809   2.104
76224W        W42655   5.597   5.281  14.238
76225W        W42656  42.980   7.037  11.125
76226W        W42657  31.152  28.866   0.297
76227W        W42658  12.969   8.746  11.162
76228W        W42659  17.399  19.634   4.264
76229W        W42660   2.950  35.741  13.489
76230W        W42661   3.777   8.785  14.321
76231W        W42662   4.280   8.181  11.660
76232W        W42663  33.962  14.697  14.319
76233W        W42664  35.467   9.948  14.325
76234W        W42665  23.011  32.985   3.755
76235W        W42666  26.271  24.438   3.216
76236W        W42667  21.737  29.379  10.065
76237W        W42668   9.420  41.557   0.750
76238W        W42669  37.589  15.638  14.775
76239W        W42670  28.815  11.589  13.623
76240W        W42671  42.233  37.325   0.228
76241W        W42672  32.136  14.611   4.957
76242W        W42673  36.952   6.110   4.089
76243W        W42674   2.843  44.936  13.124
76244W        W42675   1.060  32.109  13.427
76245W        W42676  26.446   2.102  13.957
76246W        W42677   1.004  18.174   4.087
76247W        W42678  16.269  26.450  13.558
76248W        W42679  33.460   6.951   0.824
76249W        W42680  42.815  44.339   1.647
76250W        W42681  23.930  33.174  14.820
76251W        W42682  39.832  21.754  13.800
76252W        W42683  36.098  39.050   3.221
76253W        W42684   7.298   2.407   1.707
76254W        W42685  18.641  20.750   3.991
76255W        W42686   8.229  44.446   9.816
76256W        W42687   4.289  22.219   0.366
76257W        W42688   1.422  41.064  12.177
76258W        W42689  22.169  33.193  12.350
76259W        W42690  40.501  44.468   2.383
76260W        W42691  21.305  10.215   2.304
76261W        W42692   4.506  31.061  12.041
76262W        W42693  39.501  41.840  12.567
76263W        W42694  16.314  22.192  13.564
76264W        W42695  13.752  44.396   3.603
76265W        W42696  25.180  39.286  11.976
76266W        W42697  38.943  15.679  10.484
76267W        W42698  44.882  24.155  12.775
76268W        W42699  13.991  25.241   1.631
76269W        W42700  37.578  25.745   3.675
76270W        W42701  11.591  41.415  10.629
76271W        W42702  31.869   1.912  13.007
76272W        W42703  30.077  19.789   1.172
76273W        W42704   6.497  36.579   4.636
76274W        W42705  11.355  22.674  14.281
76275W        W42706  32.364  29.150   1.384
76276W        W42707  40.099  41.076  11.964
76277W        W42708  10.115   3.814   0.343
76278W        W42709  13.733  30.157   3.674
76279W        W42710   3.141  12.131   3.023
76280W        W42711   8.429  13.651  13.391
76281W        W42712  10.768  25.072   0.677
76282W        W42713  33.975  24.118   4.519
76283W        W42714  23.563  20.277   4.050
76284W        W42715  27.548  29.136   1.294
76285W        W42716  31.620   6.643  13.985
76286W        W42717  36.801   4.610   4.405
76287W        W42718  41.095  42.479  12.081
76288W        W42719  37.686  25.545  14.411
76289W        W42720   4.890   2.702   4.609
76290W        W42721  36.538   8.912  10.721
76291W        W42722  20.547   5.736   0.470
76292W        W42723  11.879  39.385   2.387
76293W        W42724   1.034  40.762  12.026
76294W        W42725  18.236  31.884  13.066
76295W        W42726  12.812  27.923   3.703
76296W        W42727   3.980  26.993   3.726
76297W        W42728  12.093  34.042  10.394
76298W        W42729  10.810   0.390  14.806
76299W        W42730  10.220   5.263   0.933
76300W        W42731  44.676   9.227   2.171
76301W        W42732  11.877  33.953   0.288
76302W        W42733  15.628   7.260   4.345
76303W        W42734   8.174  30.619   3.672
76304W        W42735  30.588  16.135  11.131
76305W        W42736  15.873  40.954   0.309
76306W        W42737  28.410  39.508   1.376
76307W        W42738   5.679   4.225   0.463
76308W        W42739   6.445  38.048  11.304
76309W        W42740  29.753  39.713  14.961
76310W        W42741  36.675  23.646   2.721
76311W        W42742  23.639  20.657  10.601
76312W        W42743  29.210  12.617   0.934
76313W        W42744  17.288  23.583  12.050
76314W        W42745  12.643  14.965  10.921
76315W        W42746  16.592  41.061   3.171
76316W        W42747  40.798  42.297  11.181
76317W        W42748   2.638  25.997   3.963
76318W        W42749  43.832   7.204  10.636
76319W        W42750  40.344  27.193  14.360
76320W        W42751  39.479  31.028  13.394
76321W        W42752  34.967  35.344   3.652
76322W        W42753  28.523   4.158   3.145
76323W        W42754  20.009  41.200  11.557
76324W        W42755  18.161  37.361   3.290
76325W        W42756  25.733  44.427  13.564
76326W        W42757   2.451  25.490  13.474
76327W        W42758  27.716  30.910  12.320
76328W        W42759   0.178  18.605   2.843
76329W        W42760  10.829  31.480  11.438
76330W        W42761  44.211  30.165  12.689
76331W        W42762  14.804   3.826  13.369
76332W        W42763   1.571  15.617   1.856
76333W        W42764  23.285  41.532  14.360
76334W        W42765  43.476  20.570  10.493
76335W        W42766  28.072  13.334  11.013
76336W        W42767  16.280  18.504   1.210
76337W        W42768  20.128  22.476   1.733
76338W        W42769   9.682  17.313   0.238
76339W        W42770  19.339  24.621  11.566
76340W        W42771  30.992  31.027  10.128
76341W        W42772   9.346  23.158  13.729
76342W        W42773   4.755  31.098   0.904
76343W        W42774  25.173   6.133   0.167
76344W        W42775  28.521  14.355  12.615
76345W        W42776   9.859  16.323  10.685
76346W        W42777   2.880   2.066   3.877
76347W        W42778  37.645   2.936  14.912
76348W        W42779  16.197   6.177   1.316
76349W        W42780  42.746  30.722  10.824
76350W        W42781  21.645  27.164   3.071
76351W        W42782   5.366  30.966   2.311
76352W        W42783  41.037  22.147  11.225
76353W        W42784  24.723  17.179   4.553
76354W        W42785  19.637   6.226   1.707
76355W        W42786  15.360  31.551  12.944
76356W        W42787  44.357  11.117   2.668
76357W        W42788  15.850   8.732  13.006
76358W        W42789   7.359  21.764   3.178
76359W        W42790   6.317  19.695  13.805
76360W        W42791  15.799  35.870  11.771
76361W        W42792  26.966  27.972  14.867
76362W        W42793   6.312  39.381   2.224
76363W        W42794  31.487  39.284   4.141
76364W        W42795  28.274  16.249  14.830
76365W        W42796   8.565  10.431   4.433
76366W        W42797  40.796  10.573   2.484
76367W        W42798  25.726  30.771  10.134
76368W        W42799  15.106  13.512   0.889
76369W        W42800  43.063  41.693  11.170
76370W        W42801  44.356  37.989  14.036
76371W        W42802   2.809  21.309   2.697
76372W        W42803   2.830   2.788  12.468
76373W        W42804  42.396  16.556   0.069
76374W        W42805  18.824   2.691  12.267
76375W        W42806  37.435  10.644  14.928
76376W        W42807  31.710  20.670   4.788
76377W        W42808  43.174  29.119  13.899
76378W        W42809  21.026   8.092   5.058
76379W        W42810   5.272  38.982   4.214
76380W        W42811  18.114  20.204  14.858
76381W        W42812  40.788   7.055  13.559
76382W        W42813  33.351  27.701  10.751
76383W        W42814  27.263  29.445   2.787
76384W        W42815   9.257  17.237   2.817
76385W        W42816  38.839  17.872   0.781
76386W        W42817   4.693  28.708   1.983
76387W        W42818  12.355   6.517  12.474
76388W        W42819  14.145  36.571   0.444
76389W        W42820  31.440  29.988   2.474
76390W        W42821  35.105  27.853  14.762
76391W        W42822  44.463  12.025   2.570
76392W        W42823  18.624  24.829  14.901
76393W        W42824  29.579  42.234  14.636
76394W        W42825  42.296   6.166   3.417
76395W        W42826  23.783  35.000  10.725
76396W        W42827  34.148  28.444   0.729
76397W        W42828   7.135  25.569   4.499
76398W        W42829   7.250  33.115   5.029
76399W        W42830  12.842  14.389  11.612
76400W        W42831  25.278  23.181   4.152
76401W        W42832   4.636  12.658   1.423
76402W        W42833  33.842   8.136   4.626
76403W        W42834  15.026  38.969  13.773
76404W        W42835  26.686  24.411   2.283
76405W        W42836  44.947   1.427   3.015
76406W        W42837  31.975  13.162   4.756
76407W        W42838  12.792  36.515   0.939
76408W        W42839  27.893  28.650  12.984
76409W        W42840  44.709  42.242   4.122
76410W        W42841  28.942  33.777  14.080
76411W        W42842  42.310  27.575  10.575
76412W        W42843  26.490  22.982  11.568
76413W        W42844   4.739  25.961   4.646
76414W        W42845  42.452  23.470   1.687
76415W        W42846  11.285  12.606  13.892
76416W        W42847  31.953  39.833  11.142
76417W        W42848  10.736   9.916   2.284
76418W        W42849  35.198   7.650   4.567
76419W        W42850  25.103   5.455   3.163
76420W        W42851  43.792   8.727  14.424
76421W        W42852   6.433  30.407  14.827
76422W        W42853  14.042  31.618  12.536
76423W        W42854   6.804  19.984   3.790
76424W        W42855  35.945  21.554  14.252
76425W        W42856  20.281  33.922   3.368
76426W        W42857  43.483  15.875  12.561
76427W        W42858  24.003  32.239   4.622
76428W        W42859   4.041  16.486   9.942
76429W        W42860  43.228   1.515   5.153
76430W        W42861  13.754  15.607   2.224
76431W        W42862  14.728  41.886  10.527
76432W        W42863  39.717   5.522  14.522
76433W        W42864  11.338  25.922   2.887
76434W        W42865  33.698  31.871  10.629
76435W        W42866  21.807  13.416   1.177
76436W        W42867  43.599  42.593   0.909
76437W        W42868  12.912  21.434   1.207
76438W        W42869  28.009   2.241  13.114
76439W        W42870  13.382  32.594  12.104
76440W        W42871  33.945   4.281   4.331
76441W        W42872  11.347  29.948   0.662
76442W        W42873  35.968  38.273  11.411
76443W        W42874  42.822  44.549   2.667
76444W        W42875  17.759  40.872  13.351
76445W        W42876  17.698  38.086   3.254
76446W        W42877  24.534  18.328   3.276
76447W        W42878  30.208  16.243   1.997
76448W        W42879  38.353   0.986  13.037
76449W        W42880  18.668   6.482  10.772
76450W        W42881  41.532  18.275  12.415
76451W        W42882   6.488  23.667   3.992
76452W        W42883  11.171  23.462  13.212
76453W        W42884  39.879   7.547  12.048
76454W        W42885  34.918  40.045  10.739
76455W        W42886  25.965   2.900   4.369
76456W        W42887  37.579   1.407  11.127
76457W        W42888  39.738   4.178   0.756
76458W        W42889  18.944  17.156  12.398
76459W        W42890  20.500   7.798   4.662
76460W        W42891  36.876  11.278   2.173
76461W        W42892  26.445  25.670   4.850
76462W        W42893  35.059  31.007  14.100
76463W        W42894  24.046  28.047  10.298
76464W        W42895   3.272  31.134   1.339
76465W        W42896   8.778  30.673  10.239
76466W        W42897  32.989  20.231   0.327
76467W        W42898  39.789  26.280  14.301
76468W        W42899   0.335  10.121  12.537
76469W        W42900  13.615  32.166  13.366
76470W        W42901   9.942  38.999  10.797
76471W        W42902  11.646  31.853  10.913
76472W        W42903   0.065  24.552  12.466
76473W        W42904   0.365  25.668   3.650
76474W        W42905  12.978  20.484  13.489
76475W        W42906   5.929  36.543  11.113
76476W        W42907  35.205  35.066   2.347
76477W        W42908  10.136  24.271  13.555
76478W        W42909  15.636  18.276   0.562
76479W        W42910  43.208   7.171   2.805
76480W        W42911  19.158  39.450  10.565
76481W        W42912   9.247  23.360  11.148
76482W        W42913  43.508   7.452  14.794
76483W        W42914  32.182  42.997  13.016
76484W        W42915  33.477  13.831  11.682
76485W        W42916   6.212  32.591   2.238
76486W        W42917  39.921  15.534   4.715
76487W        W42918  28.606  35.542   1.539
76488W        W42919  21.553  33.166   0.434
76489W        W42920  36.847  41.953   9.736
76490W        W42921  38.919   8.414   1.784
76491W        W42922  24.477  42.035  13.978
76492W        W42923  11.738  17.530   3.776
76493W        W42924  23.625   2.093   1.846
76494W        W42925  30.420  39.455  13.416
76495W        W42926  33.364   0.497   4.984
76496W        W42927  28.376  42.506   4.525
76497W        W42928  37.385   6.816   3.665
76498W        W42929  36.996  11.107   4.915
76499W        W42930  21.545  32.323   1.748
76500W        W42931  19.008   2.645  13.535
76501W        W42932  21.198   4.213   3.611
76502W        W42933   9.324  10.080  11.373
76503W        W42934  30.683  28.512  14.931
76504W        W42935  44.866  16.755   4.413
76505W        W42936  16.212  30.164  14.362
76506W        W42937  20.618  36.933  10.548
76507W        W42938  25.021  26.509   2.176
76508W        W42939  29.117   7.907  11.174
76509W        W42940  17.713  40.485   4.834
76510W        W42941  35.903  31.471   3.213
76511W        W42942  29.220  41.254  12.947
76512W        W42943  20.147  38.911  13.795
76513W        W42944   0.777  12.279   3.059
76514W        W42945  44.575  29.736   2.310
76515W        W42946   6.260  21.800   0.339
76516W        W42947  34.060  18.724   3.823
76517W        W42948  43.449   1.138  12.594
76518W        W42949  29.499   4.770  14.095
76519W        W42950  35.937  28.252   4.195
76520W        W42951  26.747  32.911   4.824
76521W        W42952  31.876  24.257  12.038
76522W        W42953   8.215  11.501  13.596
76523W        W42954  33.078   4.380  14.584
76524W        W42955  18.792  39.252   0.591
76525W        W42956  12.008  20.996   4.127
76526W        W42957  37.512  18.147  10.649
76527W        W42958  13.825  29.579  13.815
76528W        W42959  42.710  19.131   3.665
76529W        W42960  29.633  26.177   0.893
76530W        W42961  42.423  19.687   4.744
76531W        W42962  22.082  38.041  10.870
76532W        W42963  41.961  15.758  10.982
76533W        W42964  16.950  18.217  13.144
76534W        W42965  18.220  33.975  13.766
76535W        W42966  24.027   0.855   1.693
76536W        W42967  12.854  44.272  13.097
76537W        W42968  36.343  12.150  14.782
76538W        W42969  13.081  42.149  10.493
76539W        W42970   8.709  36.351  14.609
76540W        W42971  27.145  11.753  12.584
76541W        W42972  20.473  40.312  11.773
76542W        W42973  26.663   2.289   4.539
76543W        W42974  17.156   5.323   2.724
76544W        W42975  38.148  37.281  10.212
76545W        W42976  39.097  27.300  11.861
76546W        W42977  41.516  43.908   1.933
76547W        W42978  32.392  19.737  14.297
76548W        W42979  20.276  37.773  13.557
76549W        W42980  20.855  43.042   4.585
76550W        W42981  21.086  44.999   0.481
76551W        W42982  40.415  40.473   3.090
76552W        W42983   9.149  41.830   4.896
76553W        W42984  38.002  18.311  14.026
76554W        W42985  28.666   4.870  14.549
76555W        W42986  29.909  14.856   1.069
76556W        W42987  14.118  26.386   3.665
76557W        W42988  41.391   4.746   1.846
76558W        W42989  36.068   9.080  12.874
76559W        W42990  36.964  41.483   4.464
76560W        W42991   6.587   6.313  14.551
76561W        W42992  39.017  40.165  14.786
76562W        W42993  44.655  31.879  10.774
76563W        W42994  44.842  24.806  12.053
76564W        W42995  43.522  14.383   1.320
76565W        W42996  16.609  38.878  12.197
76566W        W42997  24.633  38.786  11.494
76567W        W42998   9.715  39.434  13.565
76568W        W42999  33.858  24.142  11.886
76569W        W43000  39.550  13.329   4.813
76570W        W43001  20.249  23.557   4.561
76571W        W43002  10.571   9.333  10.678
76572W        W43003  23.528  38.385   4.108
76573W        W43004  10.203  31.917   3.660
76574W        W43005  42.016   4.445  13.499
76575W        W43006  17.733   3.886   4.691
76576W        W43007  30.796  20.173  13.027
76577W        W43008   1.719   0.322  14.262
76578W        W43009  19.874  28.868   5.095
76579W        W43010  42.452   3.056  12.014
76580W        W43011  15.639  11.699   0.239
76581W        W43012  14.625  22.415  13.737
76582W        W43013  32.829  30.663   1.786
76583W        W43014  16.112   7.148   0.081
76584W        W43015  17.433  39.777   9.993
76585W        W43016  22.072  35.123  11.774
76586W        W43017  37.557  38.849   1.195
76587W        W43018  33.508  11.809   0.235
76588W        W43019  42.259   2.228   2.339
76589W        W43020  20.198  20.136  12.358
76590W        W43021  18.562  28.246  14.374
76591W        W43022  32.132  23.768  13.456
76592W        W43023  30.983  42.831   3.960
76593W        W43024  28.410  32.238  11.566
76594W        W43025  30.803  39.972  12.505
76595W        W43026  11.141   6.977   1.673
76596W        W43027  28.606  36.953   1.676
76597W        W43028  21.365  43.308   3.829
76598W        W43029  21.865  41.018  10.551
76599W        W43030   7.219  30.930  12.083
76600W        W43031  43.051  27.822   2.779
76601W        W43032  12.411  13.607  13.333
76602W        W43033   2.886  13.668   1.017
76603W        W43034  21.809   1.838  10.740
76604W        W43035  36.367  26.777  12.119
76605W        W43036  13.315  20.258   0.450
76606W        W43037   7.314  31.379  10.628
76607W        W43038   1.871  37.246  11.605
76608W        W43039  10.974  16.774   3.232
76609W        W43040  29.602  17.721   2.806
76610W        W43041  19.883   1.723  11.068
76611W        W43042  39.780  40.881   4.749
76612W        W43043  24.995  20.049  14.194
76613W        W43044  33.854  26.989  11.693
76614W        W43045  38.829  12.189   0.755
76615W        W43046   2.079  19.128  14.471
76616W        W43047  25.679   3.031   3.163
76617W        W43048  38.032  34.370   3.761
76618W        W43049  17.307  19.922   5.088
76619W        W43050  18.035  42.369  14.366
76620W        W43051  22.738  15.126   3.149
76621W        W43052  42.870  25.144   4.510
76622W        W43053  39.049   8.679   0.860
76623W        W43054  39.487  33.410   2.325
76624W        W43055  41.908  32.600  13.718
76625W        W43056  17.056  26.446  14.991
76626W        W43057  41.195  24.667  10.577
76627W        W43058  14.789  27.444   2.199
76628W        W43059  28.908   5.285   3.568
76629W        W43060  24.194  16.013   3.197
76630W        W43061  21.962  21.546  12.450
76631W        W43062  30.877  35.619   0.382
76632W        W43063  38.518   6.185   4.851
76633W        W43064  31.038   8.100   0.744
76634W        W43065  34.222  20.993  13.391
76635W        W43066  32.471   4.636   2.315
76636W        W43067  40.084  21.595   1.392
76637W        W43068  39.553  38.566  12.844
76638W        W43069  28.213  26.976  13.075
76639W        W43070  37.480  40.785   3.131
76640W        W43071  33.700  11.327   5.117
76641W        W43072  42.579  40.744   5.070
76642W        W43073  37.895  26.563   0.236
76643W        W43074  13.138  34.108  10.722
76644W        W43075   4.732  25.679  13.851
76645W        W43076  16.705  22.071   3.665
76646W        W43077  36.034   6.195   2.665
76647W        W43078   8.205  23.579  11.575
76648W        W43079  32.854   0.753   4.342
76649W        W43080  28.664  44.871  14.406
76650W        W43081  19.017  40.258   4.149
76651W        W43082  14.641  15.864  11.141
76652W        W43083  11.511  34.575   3.554
76653W        W43084  32.998   5.341   2.158
76654W        W43085  18.596  21.121  10.658
76655W        W43086  26.046  26.450   1.690
76656W        W43087  17.252  29.024   3.843
76657W        W43088  33.888  40.432   3.261
76658W        W43089  21.176  15.081  14.451
76659W        W43090   3.819  43.837  10.674
76660W        W43091  40.312  20.098   4.041
76661W        W43092  13.201  17.635   1.389
76662W        W43093  37.545  32.103  12.203
76663W        W43094  21.080  43.853   1.487
76664W        W43095   3.414  40.632   1.700
76665W        W43096  41.804  31.387  14.423
76666W        W43097  32.669  12.107   4.120
76667W        W43098   5.192  32.901  13.487
76668W        W43099  36.026  29.250   4.127
76669W        W43100   5.732  14.610   0.390
76670W        W43101  38.599   8.821   1.871
76671W        W43102  26.635   3.998  13.402
76672W        W43103  10.887   4.045  13.456
76673W        W43104  38.150   7.864   1.973
76674W        W43105  43.731  27.973  11.185
76675W        W43106  25.923   7.422   4.093
76676W        W43107  18.739  19.872   0.343
76677W        W43108  11.662  10.654   3.935
76678W        W43109  37.558  14.256   3.640
76679W        W43110   7.137  16.531   2.371
76680W        W43111  13.156   5.883   3.158
76681W        W43112   4.652   0.455  13.487
76682W        W43113  27.916  34.584   1.906
76683W        W43114  27.394  21.717   1.392
76684W        W43115   9.680  33.489   1.845
76685W        W43116  43.740  36.965  14.932
76686W        W43117   2.444  27.867   2.817
76687W        W43118  28.943  31.648  12.821
76688W        W43119  25.681  44.523  10.995
76689W        W43120   4.903  21.179  12.996
76690W        W43121  26.789   5.642   0.781
76691W        W43122  20.624   0.338  13.057
76692W        W43123  17.767  24.463  12.844
76693W        W43124  41.859  23.466   3.429
76694W        W43125  43.363  39.270  14.812
76695W        W43126   3.342  10.703   1.048
76696W        W43127  22.091  12.449  13.858
76697W        W43128  11.994  42.455   3.438
76698W        W43129  12.800  32.196   1.922
76699W        W43130   2.230  14.629   2.253
76700W        W43131  14.082   3.453   3.234
76701W        W43132  32.761  17.318  14.732
76702W        W43133  14.860  11.693  10.268
76703W        W43134  28.511  42.850   0.420
76704W        W43135  35.378  36.956   4.037
76705W        W43136  25.213  43.543  11.569
76706W        W43137  17.644  31.826   4.082
76707W        W43138  24.068  25.652   2.562
76708W        W43139  17.574  19.655  10.822
76709W        W43140   8.357  36.352   4.917
76710W        W43141  14.266  31.167  12.437
76711W        W43142  30.594  28.650  13.920
76712W        W43143  36.670  36.060  14.311
76713W        W43144  10.233  16.082   3.155
76714W        W43145  22.818  38.459   0.800
76715W        W43146  41.931  21.050   4.576
76716W        W43147   1.254  36.495   2.199
76717W        W43148  41.122  12.665  12.090
76718W        W43149  36.068  35.946   4.824
76719W        W43150  37.222  15.048  12.499
76720W        W43151  44.380  21.837   2.929
76721W        W43152  18.443   1.881   2.395
76722W        W43153  34.878   0.540  11.608
76723W        W43154  18.865  36.563  11.327
76724W        W43155  20.188   2.301   0.230
76725W        W43156   8.791  22.534   2.271
76726W        W43157  44.537  14.207   1.898
76727W        W43158  29.829  21.577   4.130
76728W        W43159  41.917  25.127  14.513
76729W        W43160  39.351  18.594  14.465
76730W        W43161  10.575  11.322  11.641
76731W        W43162  11.083   3.837  14.272
76732W        W43163  43.186   3.206   9.801
76733W        W43164   7.180  23.712  13.127
76734W        W43165  31.503  27.063   4.431
76735W        W43166  37.474  42.960   4.734
76736W        W43167   0.299  40.922   3.364
76737W        W43168  23.661  35.038  12.517
76738W        W43169  35.700   2.349  14.775
76739W        W43170  24.190  24.565  11.201
76740W        W43171   8.296  31.056   4.261
76741W        W43172  44.385  23.447   2.854
76742W        W43173  15.812  22.123   1.558
76743W        W43174  22.730  33.566   2.813
76744W        W43175  13.237  35.544  13.415
76745W        W43176  43.296  25.656  13.954
76746W        W43177  30.892   4.010   4.999
76747W        W43178  17.065  31.818  10.782
76748W        W43179  27.918  23.949   0.874
76749W        W43180  38.439  23.870   4.826
76750W        W43181  31.318  38.894  12.087
76751W        W43182  11.239  16.712   3.726
76752W        W43183  31.958  10.591   0.479
76753W        W43184  13.182  12.339   4.123
76754W        W43185   8.667  30.065   3.992
76755W        W43186  21.181  42.142  14.756
76756W        W43187  26.828  29.240   1.847
76757W        W43188   3.434   3.261   1.041
76758W        W43189  21.733   1.780   3.606
76759W        W43190  22.922   0.473  12.522
76760W        W43191  42.537  19.279   0.762
76761W        W43192  17.674   6.705   0.264
76762W        W43193   2.129  40.426   4.464
76763W        W43194  40.441  23.550  13.704
76764W        W43195  41.254   9.642   3.141
76765W        W43196  42.221  10.706  12.940
76766W        W43197  14.187   0.845  12.312
76767W        W43198  11.511  39.450  10.907
76768W        W43199  15.119  24.568  11.079
76769W        W43200  13.185  24.605   3.155
76770W        W43201  31.064  39.964  14.255
76771W        W43202  38.465   2.011  11.960
76772W        W43203  27.004  17.746  10.913
76773W        W43204  18.133  21.345  10.747
76774W        W43205   4.681  24.195   1.328
76775W        W43206  31.651  10.397   0.870
76776W        W43207  30.171  42.108   0.295
76777W        W43208  42.799  13.713   0.517
76778W        W43209  20.419   2.914   2.304
76779W        W43210  14.068   7.831  12.969
76780W        W43211  30.174   9.598  13.726
76781W        W43212  31.357  16.102   2.657
76782W        W43213  10.105   4.257  12.571
76783W        W43214  27.222  16.535   2.232
76784W        W43215  20.049  34.546   4.589
76785W        W43216  44.101  22.076   1.034
76786W        W43217  33.621  43.596  14.638
76787W        W43218  21.675  28.452   3.421
76788W        W43219  18.239  10.550   0.814
76789W        W43220  30.773  41.288   0.782
76790W        W43221   1.490  43.544   3.341
76791W        W43222  19.890  36.129  14.205
76792W        W43223  37.883   7.896   1.164
76793W        W43224  35.362  33.467   1.898
76794W        W43225  35.704  35.512  11.484
76795W        W43226  36.448   0.896   2.760
76796W        W43227  25.982  21.771  12.960
76797W        W43228  27.769   0.669   1.374
76798W        W43229  34.783  11.405   1.142
76799W        W43230  20.549   3.481  10.918
76800W        W43231  41.566   2.137  11.109
76801W        W43232  16.668  13.805   1.750
76802W        W43233  14.365  32.247   4.431
76803W        W43234   6.968  38.057  10.628
76804W        W43235  32.832  28.566  13.955
76805W        W43236  35.971  36.401   0.441
76806W        W43237  15.127  15.176   3.280
76807W        W43238  20.206  29.528  12.552
76808W        W43239  21.923  16.585   0.937
76809W        W43240  31.363  24.904  12.969
76810W        W43241  20.582   9.666  12.701
76811W        W43242  14.094  34.687  13.850
76812W        W43243  21.129  18.315  11.135
76813W        W43244  37.621  29.397   1.853
76814W        W43245  29.986  29.182  13.078
76815W        W43246  35.864  37.535  14.062
76816W        W43247  36.315  36.473  10.719
76817W        W43248  36.953  28.575  12.989
76818W        W43249  36.357   5.315  10.671
76819W        W43250   3.479  27.468   3.189
76820W        W43251  10.221   3.210  11.082
76821W        W43252  37.017  24.081   1.477
76822W        W43253  21.143   1.434  14.614
76823W        W43254   8.196   4.020   2.692
76824W        W43255  17.839  11.183   1.330
76825W        W43256  44.810  29.959  13.443
76826W        W43257  38.471  16.239  12.533
76827W        W43258   0.295  12.832   1.162
76828W        W43259  14.644  32.036  13.237
76829W        W43260  18.164  13.396   3.643
76830W        W43261   8.219  32.074   2.695
76831W        W43262  24.185   1.233   0.288
76832W        W43263  27.526  34.791  10.619
76833W        W43264  28.381  19.235   0.238
76834W        W43265  43.498  37.934  12.348
76835W        W43266  13.857  37.468  13.255
76836W        W43267  12.625   5.176   3.252
76837W        W43268  31.162   0.527  10.680
76838W        W43269  13.329  13.924  12.855
76839W        W43270  26.729  41.367  12.038
76840W        W43271  41.503  14.827  11.652
76841W        W43272  11.710  36.812  11.553
76842W        W43273   4.887  41.363  13.045
76843W        W43274  29.829   4.315  11.304
76844W        W43275  37.567   4.459  10.908
76845W        W43276  18.798  37.905  12.108
76846W        W43277  15.533  13.557   3.311
76847W        W43278  36.882  24.684  14.038
76848W        W43279  37.486  12.053   2.783
76849W        W43280  38.529   6.411   0.378
76850W        W43281  36.634  17.370  11.367
76851W        W43282   4.700  16.120  12.004
76852W        W43283  33.981  12.863   4.916
76853W        W43284   3.935  29.092  12.015
76854W        W43285   4.616  11.165  11.199
76855W        W43286   9.752  38.851   3.095
76856W        W43287  30.819  30.464  14.457
76857W        W43288  40.369  33.013   0.989
76858W        W43289  11.357  31.350  12.769
76859W        W43290  21.208   9.405  12.327
76860W        W43291  41.827  41.988   3.736
76861W        W43292  35.379  27.421  13.898
76862W        W43293  19.243  36.076   4.746
76863W        W43294   2.565  26.696   1.489
76864W        W43295  17.745  31.507   0.918
76865W        W43296   1.561  20.642  12.535
76866W        W43297  32.347  42.538  14.244
76867W        W43298  16.799  20.303  13.233
76868W        W43299  44.190  35.911   1.700
76869W        W43300  14.100  28.603   4.581
76870W        W43301   9.359  42.810   1.849
76871W        W43302  13.495   7.389  13.929
76872W        W43303  25.730  20.118  10.377
76873W        W43304  44.533  37.571  14.276
76874W        W43305  41.303   8.728  12.774
76875W        W43306   3.374  15.222  13.426
76876W        W43307  37.766   1.703   0.971
76877W        W43308  29.436  16.662  13.396
76878W        W43309  43.425  38.152   3.706
76879W        W43310  30.029  44.223  13.400
76880W        W43311  15.620  18.076  13.248
76881W        W43312  38.578  11.625  10.716
76882W        W43313  21.548   0.805  11.703
76883W        W43314  20.742  34.613   0.343
76884W        W43315  23.700   3.007  14.311
76885W        W43316  17.757   7.775  13.818
76886W        W43317  32.532   4.210  11.129
76887W        W43318   3.517   0.374   2.815
76888W        W43319  14.612  18.633  12.503
76889W        W43320   6.657  20.273  10.681
76890W        W43321  21.704  17.684   1.255
76891W        W43322  21.324  18.812  14.665
76892W        W43323  32.789  30.558  13.384
76893W        W43324  32.542  43.534   0.774
76894W        W43325  20.489  27.592   0.293
76895W        W43326  38.819  39.898   1.610
76896W        W43327   7.331  20.219   2.318
76897W        W43328   9.844   1.864  14.314
76898W        W43329  30.916   1.381  13.071
76899W        W43330  35.482  16.209   1.687
76900W        W43331   0.187   8.823   2.396
76901W        W43332   1.396  36.443  14.902
76902W        W43333  34.949   5.021   0.040
76903W        W43334   6.712  21.762   2.787
76904W        W43335  25.189  41.335   3.729
76905W        W43336  16.721  19.201   3.338
76906W        W43337   5.500  30.661   2.715
76907W        W43338  16.391  10.213  12.068
76908W        W43339  15.239   2.835   4.477
76909W        W43340  31.654  22.606  14.140
76910W        W43341   8.448  20.998  13.879
76911W        W43342  16.749  38.038   4.674
76912W        W43343   9.193  37.942  13.043
76913W        W43344  29.376  12.826   3.196
76914W        W43345  30.381  23.720  11.974
76915W        W43346  14.160  11.735  11.940
76916W        W43347  44.276  43.565  14.494
76917W        W43348  18.825  26.116  13.179
76918W        W43349  35.042   6.928   2.348
76919W        W43350  19.383  16.236  10.718
76920W        W43351  28.366  43.774  14.520
76921W        W43352  14.830   9.477   1.937
76922W        W43353   3.991  42.781   3.081
76923W        W43354   9.143   4.632  14.302
76924W        W43355  40.393  18.474   1.763
76925W        W43356  33.283  18.096  10.107
76926W        W43357  12.382  11.505  10.628
76927W        W43358   8.696  29.614  12.093
76928W        W43359  34.950  40.271   2.255
76929W        W43360  10.704  33.889  10.384
76930W        W43361  27.854  28.852  14.766
76931W        W43362  30.848  16.578  11.076
76932W        W43363  28.170  14.665  10.627
76933W        W43364   1.898   2.806  12.977
76934W        W43365  21.675  15.221  13.794
76935W        W43366  19.143  36.969  13.161
76936W        W43367   9.595   0.476  13.496
76937W        W43368  10.791  41.305   4.245
76938W        W43369  32.373  12.566   2.814
76939W        W43370  25.082  39.669   1.244
76940W        W43371  13.793  36.603  11.387
76941W        W43372  27.580  26.887  14.526
76942W        W43373  15.151  30.375   4.724
76943W        W43374   7.419   3.626  10.408
76944W        W43375   6.462  28.381  14.833
76945W        W43376  26.745  33.378  11.109
76946W        W43377   9.727  15.912   4.693
76947W        W43378  26.155  18.788   1.921
76948W        W43379   4.144  24.168  14.570
76949W        W43380  23.193   6.273  13.090
76950W        W43381  13.722  12.768  11.128
76951W        W43382  27.553  36.519   2.612
76952W        W43383  20.355  36.406  13.283
76953W        W43384  16.844   5.744   1.776
76954W        W43385  42.381  38.581   0.016
76955W        W43386  10.287  34.823   0.669
76956W        W43387   3.887  44.805   0.075
76957W        W43388  15.129  28.765  12.126
76958W        W43389  39.391  21.441  11.212
76959W        W43390   7.742   6.329   1.234
76960W        W43391   6.429  28.067  14.096
76961W        W43392   8.992  17.180   5.043
76962W        W43393  22.535   3.960  11.198
76963W        W43394  38.104  11.765   4.568
76964W        W43395   4.872   3.189   0.702
76965W        W43396  11.069  38.192   2.281
76966W        W43397   9.239  22.956  11.486
76967W        W43398  10.353  35.836  14.815
76968W        W43399   4.902  27.199  14.397
76969W        W43400  40.258  13.511   0.178
76970W        W43401  13.897  13.015  12.054
76971W        W43402   0.811  15.100  14.464
76972W        W43403  21.233  32.669   1.483
76973W        W43404   4.632  32.139  12.116
76974W        W43405  40.105  25.035  13.796
76975W        W43406   9.099  43.682   1.857
76976W        W43407  18.693   9.591   0.243
76977W        W43408  35.800   8.268   3.714
76978W        W43409   4.658  28.531  14.015
76979W        W43410   7.645  24.021   2.799
76980W        W43411  21.579   4.691  14.863
76981W        W43412   5.703  38.544   3.464
76982W        W43413   3.835  18.704   1.876
76983W        W43414  12.541  32.340   0.721
76984W        W43415   7.181  32.645   1.881
76985W        W43416   4.943  39.195   0.802
76986W        W43417  34.421  20.094   4.651
76987W        W43418   7.900  11.203   1.362
76988W        W43419  44.488  13.715  12.965
76989W        W43420   6.258   9.169   3.523
76990W        W43421  11.203  17.571   4.278
76991W        W43422  39.523  28.540   2.741
76992W        W43423  39.788  21.834  11.232
76993W        W43424   3.853  37.232   1.939
76994W        W43425   8.329  42.335  14.203
76995W        W43426  27.590  34.627   1.313
76996W        W43427   6.628  30.883   4.246
76997W        W43428  28.253  18.563   2.704
76998W        W43429  10.848  36.642   4.082
76999W        W43430  17.302  22.129  11.613
77000W        W43431  38.408  15.569   0.195
77001W        W43432   1.811  13.105  12.055
77002W        W43433   2.990   2.371   0.965
77003W        W43434   5.409  35.021   0.422
77004W        W43435  26.684  44.920   0.276
77005W        W43436  26.503  41.926   4.020
77006W        W43437  21.798  35.819  13.299
77007W        W43438  42.101  21.163  14.118
77008W        W43439  40.903  25.167  10.705
77009W        W43440  43.439  27.412  13.387
77010W        W43441   6.585  14.097  14.330
77011W        W43442  25.162  29.629   1.358
77012W        W43443   7.469  39.028  11.312
77013W        W43444  41.806  12.662   4.467
77014W        W43445  15.716  15.746   2.216
77015W        W43446  28.130  35.330  10.824
77016W        W43447  33.494  31.188  11.912
77017W        W43448  35.312  40.910  13.917
77018W        W43449  21.068  20.688   1.316
77019W        W43450  17.786  30.649   2.178
77020W        W43451  28.505  16.359  11.990
77021W        W43452  18.642  24.126   1.362
77022W        W43453  21.507   2.020   4.025
77023W        W43454   6.761  13.314   4.704
77024W        W43455   7.397  19.028  14.229
77025W        W43456  39.908  41.593   0.567
77026W        W43457  14.675  40.222   1.192
77027W        W43458   7.962  12.201  13.941
77028W        W43459  11.158   6.895  11.047
77029W        W43460  33.398  24.053   3.108
77030W        W43461  23.616  12.365   2.754
77031W        W43462  25.260  11.250   4.534
77032W        W43463  17.872  44.423   2.001
77033W        W43464  19.521  16.263  12.409
77034W        W43465   3.211   4.798  12.425
77035W        W43466   9.619  43.525  14.699
77036W        W43467  13.575  29.576  11.020
77037W        W43468  13.131  43.103  10.821
77038W        W43469  23.272  36.653   0.816
77039W        W43470   4.701  22.543   0.776
77040W        W43471  31.933  26.704  13.617
77041W        W43472  18.859  24.149   4.714
77042W        W43473  27.811   5.944  13.516
77043W        W43474  14.323   9.740  13.550
77044W        W43475  16.187  12.608   3.702
77045W        W43476  38.078  29.022   1.062
77046W        W43477  34.840  30.649  12.866
77047W        W43478  29.734  12.402  11.060
77048W        W43479  40.091   6.704  14.893
77049W        W43480  32.454  17.783  11.675
77050W        W43481  21.071   4.314   0.695
77051W        W43482  31.044   0.858   3.383
77052W        W43483   9.965  39.706  11.933
77053W        W43484  10.872  40.974  13.872
77054W        W43485  36.399  34.286  13.881
77055W        W43486  15.287  25.034   1.195
77056W        W43487   2.780   7.899   4.553
77057W        W43488  41.408  15.546  12.126
77058W        W43489   8.091  38.849  14.870
77059W        W43490  28.223  28.450   3.329
77060W        W43491   9.084  10.873  13.239
77061W        W43492  27.515   2.198  14.039
77062W        W43493  19.108  26.058  11.818
77063W        W43494  10.470  12.223  12.098
77064W        W43495  29.487  16.072   4.286
77065W        W43496  12.604  27.791   1.383
77066W        W43497  18.219  40.035   2.296
77067W        W43498   5.433   3.603  11.173
77068W        W43499  27.594  25.315  11.418
77069W        W43500  31.611  31.872   3.197
77070W        W43501  14.839  16.531  11.754
77071W        W43502  12.650  18.988   4.396
77072W        W43503  33.211  39.207  10.190
77073W        W43504  11.308  31.709   0.276
77074W        W43505  43.882  32.106   2.397
77075W        W43506  39.084   8.307  14.081
77076W        W43507  21.165  30.437   1.263
77077W        W43508   3.929  36.851  13.960
77078W        W43509  44.166  19.023  14.805
77079W        W43510   0.714   7.491   4.187
77080W        W43511   7.693  20.859   1.262
77081W        W43512  42.403  44.290   2.472
77082W        W43513  37.919   2.960   4.416
77083W        W43514  35.294  37.612   0.300
77084W        W43515  42.966  32.403  12.445
77085W        W43516   6.584  20.004  12.910
77086W        W43517  39.825  42.243   2.334
77087W        W43518  27.130  44.004  12.864
77088W        W43519  28.191  34.038   2.955
77089W        W43520  41.367  33.583   2.856
77090W        W43521   0.454  13.202   2.471
77091W        W43522  15.591  14.217  13.483
77092W        W43523   1.513  42.401  11.062
77093W        W43524   5.646  39.581   0.548
77094W        W43525  29.589  27.160  12.422
77095W        W43526  42.339  24.912  11.147
77096W        W43527  24.392  35.370  13.489
77097W        W43528   9.610  13.865   1.265
77098W        W43529  33.015  44.872  13.526
77099W        W43530  43.051  13.155   4.987
77100W        W43531   8.768   2.655  10.655
77101W        W43532  20.304  12.086   3.210
77102W        W43533  22.611   9.321  13.273
77103W        W43534  16.871  16.005   2.622
77104W        W43535  14.469  31.644   4.298
77105W        W43536  40.851  26.477  12.387
77106W        W43537  16.324  41.672   0.070
77107W        W43538  41.455  21.503   3.869
77108W        W43539  12.988  30.382   0.110
77109W        W43540  18.242  30.589   3.869
77110W        W43541  19.081   7.320   1.183
77111W        W43542  39.050  11.464   2.783
77112W        W43543  23.406  37.925  14.260
77113W        W43544   2.041  15.249  12.975
77114W        W43545  17.218  40.563   4.151
77115W        W43546  34.979  40.240  11.207
77116W        W43547  30.638  22.138  11.488
77117W        W43548   8.671  11.249  13.585
77118W        W43549  16.714  33.915   3.657
77119W        W43550  15.229  24.461  10.575
77120W        W43551  24.438  13.310   2.863
77121W        W43552  35.627   1.684  11.161
77122W        W43553   1.491  41.965   2.930
77123W        W43554  28.008  41.448  13.435
77124W        W43555  35.064   5.765  10.134
77125W        W43556   2.204   7.431  12.906
77126W        W43557  13.782  16.792   3.086
77127W        W43558  11.269   2.179   1.940
77128W        W43559  40.028  11.868   0.200
77129W        W43560  41.303  36.192  14.434
77130W        W43561  22.284  15.964   4.151
77131W        W43562  26.447  24.490   1.351
77132W        W43563  44.137  14.863  10.260
77133W        W43564  24.374   6.733   0.395
77134W        W43565  32.882  38.632  13.865
77135W        W43566  22.347  18.110   3.043
77136W        W43567  10.290  36.820   1.352
77137W        W43568  23.787  41.522  14.455
77138W        W43569  10.249   0.358  14.070
77139W        W43570  17.124  41.911  11.553
77140W        W43571  10.972  19.840  11.659
77141W        W43572  12.287  31.339  11.153
77142W        W43573  32.611  18.041  13.535
77143W        W43574   1.436  14.704   1.545
77144W        W43575  19.066   4.443  11.531
77145W        W43576  41.472   6.408   2.797
77146W        W43577  20.190  27.965   1.708
77147W        W43578  15.668   4.299   2.242
77148W        W43579  24.655  30.188  11.896
77149W        W43580  34.551  21.639   3.119
77150W        W43581  41.513   3.787   4.022
77151W        W43582   3.085  41.862  13.214
77152W        W43583   0.902  28.444  12.045
77153W        W43584  35.409  24.185  12.818
77154W        W43585  30.125  26.314   0.018
77155W        W43586  20.051  37.803   4.645
77156W        W43587  19.685  24.088   1.778
77157W        W43588  21.254  29.473   0.907
77158W        W43589  33.809  30.071  10.176
77159W        W43590   5.207  19.348   4.328
77160W        W43591  35.573  19.911  12.609
77161W        W43592   5.947  39.785  14.039
77162W        W43593  24.938  44.926   3.653
77163W        W43594  23.136  12.892  12.286
77164W        W43595   8.884  25.978   3.206
77165W        W43596  27.857  10.787   4.203
77166W        W43597  41.621  42.416   3.403
77167W        W43598  21.845  42.367  10.066
77168W        W43599  29.433  37.865  12.052
77169W        W43600  39.004  21.909  14.120
77170W        W43601  10.631  23.701   3.094
77171W        W43602   8.350   1.442  12.010
77172W        W43603  21.136  40.111   1.719
77173W        W43604  43.341  44.801  14.837
77174W        W43605  18.208  26.949   3.021
77175W        W43606  28.480  23.771   1.281
77176W        W43607  17.587  22.791   0.397
77177W        W43608  29.002  18.838  14.441
77178W        W43609   5.181  15.959   0.864
77179W        W43610   1.291   9.101   0.524
77180W        W43611  16.834   7.877  13.875
77181W        W43612   1.069  20.416   2.634
77182W        W43613  23.557   9.914   4.290
77183W        W43614  33.055   1.787   4.575
77184W        W43615  29.680  15.044   3.400
77185W        W43616  26.801  11.745  10.479
77186W        W43617   0.256  21.188  11.111
77187W        W43618  22.767  11.329  14.389
77188W        W43619  12.978   3.739   5.325
77189W        W43620  38.628   4.316  10.699
77190W        W43621  18.787   7.341  12.430
77191W        W43622   8.285   6.804   1.272
77192W        W43623  41.488  37.967  11.943
77193W        W43624  41.335  40.362   1.790
77194W        W43625  10.866   2.406   2.746
77195W        W43626   2.328  22.074   3.771
77196W        W43627  26.728   7.762  14.254
77197W        W43628  39.000   1.532  13.140
77198W        W43629   5.385  27.213   4.707
77199W        W43630  22.729  21.983   4.462
77200W        W43631  16.057  38.578   4.181
77201W        W43632  14.618  13.178  11.538
77202W        W43633  19.274  37.985  11.191
77203W        W43634  25.918   4.226   3.684
77204W        W43635   8.629   8.749   3.149
77205W        W43636  25.618  28.155  14.644
77206W        W43637   7.504  44.163  11.838
77207W        W43638  23.171  28.461  10.969
77208W        W43639  35.952  43.499  14.894
77209W        W43640   9.298   8.429   2.877
77210W        W43641  15.743  17.808   2.379
77211W        W43642  32.985   5.634   0.656
77212W        W43643  23.231  24.666   3.829
77213W        W43644   2.764  19.972  11.571
77214W        W43645   9.132  37.001   4.255
77215W        W43646  31.429  26.634  13.440
77216W        W43647  14.790  19.291   3.154
77217W        W43648  16.465  41.130  14.434
77218W        W43649  27.448  16.084  14.487
77219W        W43650  17.521   8.279  12.028
77220W        W43651  38.547  34.920   2.812
77221W        W43652   3.475  16.084  14.223
77222W        W43653  22.214   9.442   1.718
77223W        W43654   4.300  27.070  14.985
77224W        W43655  18.767   9.715  10.975
77225W        W43656   4.045   5.804   2.972
77226W        W43657  10.445  14.228  13.797
77227W        W43658  38.236  25.560   2.971
77228W        W43659  41.511   3.414   2.884
77229W        W43660  11.642  42.918  11.915
77230W        W43661  29.112  21.363   0.921
77231W        W43662  31.803   8.592   3.814
77232W        W43663  17.078  32.674  11.132
77233W        W43664  16.419  24.688   0.308
77234W        W43665  22.750  34.036  12.567
77235W        W43666   2.275  38.988  14.061
77236W        W43667  43.758  36.444   0.862
77237W        W43668  40.314  31.789   4.115
77238W        W43669  35.297  22.587  13.992
77239W        W43670  20.041  18.992  12.353
77240W        W43671  35.374  14.293   0.952
77241W        W43672  14.898  29.619  14.941
77242W        W43673   8.592  28.459  14.124
77243W        W43674  18.336  41.750  13.556
77244W        W43675  33.399   5.330  10.708
77245W        W43676  31.224   7.759   3.695
77246W        W43677  40.877  40.559   0.868
77247W        W43678  19.767   5.298  11.335
77248W        W43679  38.891   2.282   1.777
77249W        W43680  35.543  34.233   2.287
77250W        W43681  43.200  34.220  12.262
77251W        W43682   1.689  23.859  12.540
77252W        W43683   5.367  13.843   2.128
77253W        W43684   5.264  23.000  11.353
77254W        W43685  31.781  21.738  11.618
77255W        W43686  32.881  39.387   2.263
77256W        W43687  43.632  29.089   1.871
77257W        W43688  37.905  10.370   4.000
77258W        W43689  40.755  34.946   2.022
77259W        W43690  35.244  12.670   4.558
77260W        W43691  32.258  39.522  13.771
77261W        W43692   4.313  11.537  14.591
77262W        W43693   9.113  16.617  14.806
77263W        W43694   7.378  12.224  11.548
77264W        W43695  13.048  11.424  11.599
77265W        W43696  17.735  15.023   3.105
77266W        W43697   8.221  34.532  11.704
77267W        W43698   3.148  42.521  12.193
77268W        W43699   2.665  19.375   2.341
77269W        W43700  36.355  27.662   3.440
77270W        W43701  11.681  33.461  12.346
77271W        W43702  38.100  40.196  12.951
77272W        W43703   0.657  12.094  13.801
77273W        W43704  44.219  27.049   0.929
77274W        W43705  31.911  42.477  14.556
77275W        W43706   1.015   0.420   1.812
77276W        W43707   2.781   9.672   2.274
77277W        W43708  29.258  24.932   3.116
77278W        W43709  14.777  20.928  10.777
77279W        W43710  39.103   4.183  10.913
77280W        W43711  25.370  37.635  14.406
77281W        W43712  32.546  26.905   1.711
77282W        W43713  43.909   5.664   4.112
77283W        W43714  11.278   9.754   0.103
77284W        W43715  39.530  38.063  10.606
77285W        W43716  27.934  44.344  10.610
77286W        W43717  30.286  12.710   0.177
77287W        W43718  26.140   6.728   1.559
77288W        W43719  37.350  24.696  11.564
77289W        W43720   7.026  25.611  11.437
77290W        W43721  29.325   0.394   2.675
77291W        W43722   4.532  21.721  14.642
77292W        W43723  37.399   3.885   3.600
77293W        W43724  32.831  20.527   3.719
77294W        W43725   1.410  38.063  12.492
77295W        W43726  33.575  43.760  13.729
77296W        W43727  36.347  41.324   0.497
77297W        W43728  13.221  14.847   4.199
77298W        W43729  36.901   2.387   3.730
77299W        W43730   7.389  24.720   1.335
77300W        W43731  26.165  19.745   0.789
77301W        W43732  12.359  32.090  14.266
77302W        W43733  23.703  10.227  14.375
77303W        W43734  20.204   7.139   1.617
77304W        W43735  25.066   5.697   0.430
77305W        W43736   5.804  30.997  14.996
77306W        W43737  11.284   1.829   1.269
77307W        W43738  36.423  44.933  10.765
77308W        W43739  36.608  32.318   1.674
77309W        W43740  40.115   5.831   2.382
77310W        W43741  16.807  10.432  14.874
77311W        W43742  26.154  10.389   4.910
77312W        W43743   8.838   1.094  13.491
77313W        W43744  20.551  38.562   1.206
77314W        W43745  28.651   9.819  11.177
77315W        W43746   7.276   3.498   3.992
77316W        W43747  21.483  26.241  14.904
77317W        W43748   3.400   9.822   1.103
77318W        W43749  33.699   1.748   3.263
77319W        W43750  12.454  23.166   4.128
77320W        W43751  33.061   8.396  14.973
77321W        W43752   4.650  17.826   2.883
77322W        W43753  27.742  36.463  14.316
77323W        W43754  32.019  21.657   4.200
77324W        W43755  18.019  33.902  12.523
77325W        W43756  42.023  31.225  13.639
77326W        W43757  32.630  39.586   0.198
77327W        W43758   9.769  14.606  12.923
77328W        W43759  40.991  17.811  11.974
77329W        W43760  25.472   4.672  13.916
77330W        W43761  21.572  21.962   2.253
77331W        W43762   1.972  27.141   4.579
77332W        W43763  20.705  23.686  14.463
77333W        W43764  43.783  22.047  11.509
77334W        W43765  21.604  30.828  10.662
77335W        W43766   8.892  37.265  11.920
77336W        W43767  16.982  28.158   5.105
77337W        W43768   2.165  37.479  11.058
77338W        W43769  17.134  42.701   1.192
77339W        W43770  22.118  19.384   3.643
77340W        W43771  42.908  17.613  12.799
77341W        W43772  39.214  14.281  12.118
77342W        W43773   3.009  20.708  11.476
77343W        W43774  18.710   5.215  13.518
77344W        W43775  18.057   1.546   2.243
77345W        W43776   7.099  32.114   3.293
77346W        W43777  10.776  23.034  14.160
77347W        W43778  13.936  44.485  13.780
77348W        W43779   0.455  26.674  12.954
77349W        W43780  26.053  22.240   2.316
77350W        W43781  43.350  35.267   1.854
77351W        W43782   2.346  12.505   4.394
77352W        W43783  41.401  20.504   4.574
77353W        W43784   1.739   9.913   4.005
77354W        W43785  11.326  27.031   4.935
77355W        W43786  42.029  10.144  12.110
77356W        W43787  24.704  14.786   3.685
77357W        W43788  18.725  32.082   1.872
77358W        W43789  27.691   7.509  13.273
77359W        W43790   9.348  42.479   3.142
77360W        W43791  11.360  44.550  11.680
77361W        W43792  17.456   9.367   0.351
77362W        W43793  22.241   8.063  13.705
77363W        W43794  40.565  12.772   4.150
77364W        W43795   4.726  41.182  11.142
77365W        W43796   1.453  33.087  12.692
77366W        W43797  26.490  16.063   0.323
77367W        W43798  42.361  13.024  11.220
77368W        W43799  36.506  18.567   0.849
77369W        W43800  33.344  23.247   2.850
77370W        W43801  29.473   7.358  12.534
77371W        W43802   2.435   5.307   0.080
77372W        W43803  31.090  23.046   1.239
77373W        W43804  16.021  31.232  13.519
77374W        W43805   6.365  16.629   3.530
77375W        W43806  20.314  21.013  12.503
77376W        W43807  16.256  19.614  14.296
77377W        W43808  21.564  28.109   4.685
77378W        W43809   7.805  23.512   2.168
77379W        W43810   7.089   7.197  12.053
77380W        W43811  19.116  38.525  14.794
77381W        W43812  28.057  26.157  12.343
77382W        W43813   8.584   3.078  14.294
77383W        W43814  16.055  12.418   0.429
77384W        W43815  14.579  26.017   1.922
77385W        W43816  40.485  38.998   4.480
77386W        W43817  16.633   1.735   1.147
77387W        W43818  36.923  31.948   4.932
77388W        W43819  26.705  11.727  10.989
77389W        W43820  39.417   4.568   1.996
77390W        W43821  44.817   0.503   2.041
77391W        W43822   0.782  32.834  13.782
77392W        W43823  35.081  31.070  13.596
77393W        W43824  10.247  34.050   2.862
77394W        W43825   1.156  41.005   1.177
77395W        W43826   2.580  31.582  11.070
77396W        W43827  44.480  16.724   2.618
77397W        W43828  40.839  30.109   1.168
77398W        W43829  14.359  17.805  12.196
77399W        W43830  43.385  10.949   3.153
77400W        W43831  18.072  27.976  14.861
77401W        W43832  24.217  26.043   3.907
77402W        W43833  35.383  36.404   4.289
77403W        W43834  38.313  15.652   3.132
77404W        W43835  20.549   1.291  10.740
77405W        W43836   9.988  17.992   9.909
77406W        W43837  28.547   8.821  12.159
77407W        W43838  26.063  34.444  12.590
77408W        W43839  41.727  28.756  14.944
77409W        W43840  29.515  11.785  11.162
77410W        W43841  22.833  36.386  14.820
77411W        W43842  31.806   9.331  10.781
77412W        W43843   2.900  44.813  13.637
77413W        W43844  38.053  15.158  12.314
77414W        W43845  29.015  10.230   0.555
77415W        W43846  20.818  30.032   4.645
77416W        W43847  39.035  36.790   0.418
77417W        W43848  17.289  29.956  12.643
77418W        W43849  38.099  36.502  12.976
77419W        W43850  19.743  10.288  12.730
77420W        W43851  10.589  28.347   3.271
77421W        W43852  24.526   3.313  14.379
77422W        W43853  36.346  10.566  10.692
77423W        W43854   8.636   2.620   1.323
77424W        W43855  32.452  38.315   4.313
77425W        W43856  32.433   2.325   0.351
77426W        W43857  21.249  32.353   0.028
77427W        W43858  36.928   9.010   3.274
77428W        W43859  26.365  16.828   3.137
77429W        W43860  37.038   9.189   0.213
77430W        W43861  20.002  29.025   4.627
77431W        W43862  12.341  37.414   2.450
77432W        W43863   5.240  44.699   3.069
77433W        W43864   3.279  41.792   0.384
77434W        W43865  18.792   8.939  10.322
77435W        W43866  17.625  27.012  10.189
77436W        W43867  14.616   5.444   1.387
77437W        W43868   2.677  28.425   3.294
77438W        W43869  10.653  40.598   1.512
77439W        W43870  36.436   3.378  14.157
77440W        W43871  31.894  16.077   1.412
77441W        W43872   9.970  23.650  14.348
77442W        W43873  41.061  30.026  14.414
77443W        W43874   0.667   4.366   1.727
77444W        W43875  28.609   8.618   1.035
77445W        W43876  12.915  11.848   1.004
77446W        W43877  38.302  27.614  12.394
77447W        W43878  43.507  20.237  14.902
77448W        W43879  26.064   6.955  14.159
77449W        W43880  42.060  18.305  11.552
77450W        W43881  41.504  24.557  10.973
77451W        W43882  34.352  29.659  12.007
77452W        W43883  19.140   8.815   4.732
77453W        W43884  29.974  29.130   3.769
77454W        W43885  15.736   2.666   4.569
77455W        W43886  30.861  18.515  14.818
77456W        W43887  11.171  35.333   2.266
77457W        W43888  23.696  20.414   2.627
77458W        W43889   7.174  27.143   4.654
77459W        W43890  36.988  43.212  11.138
77460W        W43891  24.785  43.893   1.813
77461W        W43892  26.271  28.562   3.531
77462W        W43893   6.715  27.255  11.006
77463W        W43894  29.999   2.986  13.568
77464W        W43895  11.815  26.970   2.292
77465W        W43896   8.824  13.413  11.692
77466W        W43897  19.772  34.133  14.889
77467W        W43898  26.738  33.204   2.977
77468W        W43899  28.871  30.633  10.788
77469W        W43900  41.107   4.393  11.715
77470W        W43901   4.238  29.551  14.263
77471W        W43902  43.000  14.932   3.719
77472W        W43903  26.887  23.229  12.005
77473W        W43904  30.218  38.967   0.934
77474W        W43905   0.737   9.493  10.604
77475W        W43906  13.743   1.706   0.324
77476W        W43907   0.773  27.984   3.136
77477W        W43908  23.533  28.081  10.999
77478W        W43909  39.610   0.859  11.969
77479W        W43910  18.777   3.495  13.316
77480W        W43911  15.805   6.356   2.292
77481W        W43912  37.397   2.563   3.606
77482W        W43913  13.337  22.513  11.843
77483W        W43914  11.784   8.239   1.822
77484W        W43915   6.365  32.194  14.191
77485W        W43916   8.820   0.817   2.087
77486W        W43917  19.671  13.924   3.618
77487W        W43918  20.822  31.964  14.479
77488W        W43919  20.473  20.578  12.283
77489W        W43920  26.960  36.406   1.239
77490W        W43921  26.451  42.091   0.224
77491W        W43922  11.317  36.089   0.749
77492W        W43923  31.424   7.462   2.657
77493W        W43924  40.518  22.291  13.430
77494W        W43925   5.272  31.118  11.604
77495W        W43926  37.086  14.748  14.835
77496W        W43927  31.708  32.213  11.846
77497W        W43928  40.513   3.745  12.464
77498W        W43929   1.976  40.438   2.226
77499W        W43930  16.665  27.991  13.526
77500W        W43931  10.416   5.520   4.167
77501W        W43932   0.602  29.430   4.943
77502W        W43933  39.994  25.048   2.203
77503W        W43934  44.467  23.314  13.892
77504W        W43935  23.063  14.691   4.011
77505W        W43936   0.461   2.691   2.052
77506W        W43937  43.261  30.389  14.776
77507W        W43938   1.244  23.227   4.032
77508W        W43939  39.925  35.040   3.027
77509W        W43940  39.031   4.393  12.903
77510W        W43941  33.216  31.989   0.349
77511W        W43942   9.098  36.364   0.927
77512W        W43943   8.300   6.750  12.185
77513W        W43944  14.634  24.742   3.615
77514W        W43945  34.903   5.602   4.038
77515W        W43946  30.586  11.780  14.720
77516W        W43947  22.538  29.944   3.155
77517W        W43948   2.234  43.813  13.290
77518W        W43949  20.303  15.053   9.823
77519W        W43950  25.952  41.318  12.509
77520W        W43951  30.089   1.941  13.510
77521W        W43952  34.097   2.750   1.879
77522W        W43953  15.656  21.676   4.632
77523W        W43954  21.027  36.012  10.758
77524W        W43955  44.222  27.898  11.069
77525W        W43956   4.178  13.276   1.136
77526W        W43957  32.806   1.806  13.043
77527W        W43958  29.168   3.374   5.310
77528W        W43959  35.421  34.085  14.223
77529W        W43960  10.270  43.093  11.925
77530W        W43961  24.621  34.367  10.758
77531W        W43962   9.309   9.100   1.418
77532W        W43963  11.625  38.593   4.795
77533W        W43964  39.211  18.017  12.958
77534W        W43965  33.069  22.692   1.546
77535W        W43966  38.769  27.518  13.468
77536W        W43967   9.866   8.680   0.745
77537W        W43968  37.529  32.913   0.559
77538W        W43969  14.263  40.005   0.902
77539W        W43970  29.459  14.049   9.935
77540W        W43971  31.433  38.943  14.496
77541W        W43972  14.749   9.816   1.473
77542W        W43973  12.272  34.650  14.119
77543W        W43974  11.299   2.061  11.210
77544W        W43975  30.505  24.168  14.129
77545W        W43976  24.734  27.066   4.536
77546W        W43977  35.782  24.405   0.423
77547W        W43978  40.247  38.857   1.782
77548W        W43979  25.977   9.266  10.888
77549W        W43980  22.079  34.661  10.635
77550W        W43981  16.970  22.214  10.704
77551W        W43982   2.877  11.139  13.780
77552W        W43983  22.117  41.926   1.710
77553W        W43984   6.713   8.683   1.203
77554W        W43985  31.426   4.506   2.641
77555W        W43986  21.052  38.974   2.892
77556W        W43987  34.390  21.634  14.233
77557W        W43988  34.638   9.056   3.428
77558W        W43989  14.360  13.683  10.273
77559W        W43990  41.003   4.634   0.829
77560W        W43991  10.130   9.086  12.349
77561W        W43992  26.709  37.049   4.964
77562W        W43993  25.641   5.569  10.051
77563W        W43994  44.371   4.274   3.209
77564W        W43995   3.344   4.136  14.556
77565W        W43996  35.165  34.032  11.101
77566W        W43997   6.143  35.399   1.332
77567W        W43998  26.604  37.893  12.097
77568W        W43999  29.049  32.102  13.043
77569W        W44000  29.165  29.822  12.074
77570W        W44001  37.561   4.978   0.359
77571W        W44002  22.957  31.535   3.185
77572W        W44003  26.655  24.605  14.990
77573W        W44004   7.708   8.411   3.004
77574W        W44005  18.265  27.431  13.091
77575W        W44006  26.958  39.837   3.827
77576W        W44007  10.886  41.983  11.444
77577W        W44008  17.157  12.211   2.116
77578W        W44009  27.881  12.732  10.233
77579W        W44010  35.061   6.432  13.041
77580W        W44011  38.639   8.160  13.460
77581W        W44012   5.275  21.148   4.246
77582W        W44013  33.355   2.301  12.884
77583W        W44014  32.125  25.699   0.570
77584W        W44015  40.938  24.743   4.795
77585W        W44016  33.435  12.888   5.324
77586W        W44017  40.652  23.813  10.298
77587W        W44018  30.675  34.028   2.462
77588W        W44019  42.967  34.191   4.169
77589W        W44020  16.084  18.051   3.617
77590W        W44021  34.854  40.318   4.098
77591W        W44022   9.753  37.118  10.759
77592W        W44023   9.218  24.693   2.200
77593W        W44024  40.627  39.597  11.524
77594W        W44025  12.646  15.264  11.780
77595W        W44026  43.587   2.115  14.949
77596W        W44027  32.452  28.016  13.043
77597W        W44028  21.818  27.184  13.084
77598W        W44029   0.324  24.468   0.469
77599W        W44030  28.728  10.557  12.092
77600W        W44031  43.808  40.845  11.623
77601W        W44032  16.652   9.407  13.326
77602W        W44033  35.617   7.378   4.295
77603W        W44034  24.502  31.429  12.378
77604W        W44035  42.565  30.168   0.307
77605W        W44036  23.045   8.849  11.240
77606W        W44037   6.628  22.265   2.685
77607W        W44038  10.147  12.699   0.916
77608W        W44039  10.651  43.635   0.452
77609W        W44040  28.017  14.957   0.179
77610W        W44041  39.487   5.362   4.474
77611W        W44042  10.758  27.511   1.017
77612W        W44043  37.719  21.157  14.361
77613W        W44044  34.037  31.351   4.576
77614W        W44045   2.238   6.445   2.225
77615W        W44046   8.715  16.446   2.584
77616W        W44047  28.511  37.029   4.386
77617W        W44048   5.350  23.983   0.164
77618W        W44049  21.640  14.270  14.547
77619W        W44050  19.485  18.668  11.568
77620W        W44051   8.127  17.036  13.229
77621W        W44052   2.897   5.697  12.475
77622W        W44053  40.254  15.107   1.977
77623W        W44054  37.151  26.094  11.607
77624W        W44055  14.271  18.012   2.346
77625W        W44056   0.905  43.832  12.955
77626W        W44057  12.895  13.366  13.624
77627W        W44058  18.691  33.026  14.846
77628W        W44059  27.561   3.956   4.602
77629W        W44060  15.369   2.973  11.006
77630W        W44061  17.191  34.101  13.430
77631W        W44062  20.473   3.924   4.340
77632W        W44063  34.391  37.409   3.252
77633W        W44064  28.404  39.290   2.155
77634W        W44065  11.891  43.439  14.988
77635W        W44066   0.439   4.929   3.381
77636W        W44067  36.624   7.756   1.912
77637W        W44068  13.522   9.625  14.784
77638W        W44069   7.271  13.775   5.146
77639W        W44070  28.862  16.545  14.961
77640W        W44071  31.898   4.927  11.589
77641W        W44072   6.364  13.650   1.532
77642W        W44073   9.185  23.480  11.661
77643W        W44074   6.587  21.002  13.318
77644W        W44075   8.686  39.238  14.069
77645W        W44076   4.579   3.443  11.594
77646W        W44077  29.146   3.222  12.217
77647W        W44078  38.263  17.976  12.000
77648W        W44079  22.336  13.870   0.101
77649W        W44080  27.691  22.464  11.145
77650W        W44081  21.303  28.674   3.679
77651W        W44082   9.959   4.174   1.640
77652W        W44083  12.701  31.222   0.541
77653W        W44084  14.919  28.281   0.873
77654W        W44085  10.817  35.864  13.176
77655W        W44086  19.290  28.473   1.982
77656W        W44087   8.950  14.315  13.973
77657W        W44088  33.654  18.608   2.247
77658W        W44089  38.132  20.847   0.290
77659W        W44090   3.399  25.693   0.354
77660W        W44091   4.830   5.948  11.523
77661W        W44092  24.972  27.993   0.332
77662W        W44093  41.004  39.748  11.188
77663W        W44094  25.199  33.478   5.104
77664W        W44095   3.320  37.845   1.151
77665W        W44096  35.790  41.501   1.467
77666W        W44097   6.816   4.296   3.302
77667W        W44098   4.356  43.995   0.688
77668W        W44099  32.807  16.872  13.439
77669W        W44100  37.572   5.501   1.378
77670W        W44101  24.180  33.914   4.702
77671W        W44102  35.820   5.800  11.316
77672W        W44103  11.512  21.234  11.132
77673W        W44104  29.567  43.456  14.275
77674W        W44105  19.862  31.551   3.131
77675W        W44106   2.933  13.405   3.626
77676W        W44107  17.975  33.030  12.540
77677W        W44108   6.355  15.552   4.262
77678W        W44109  33.443  22.195  13.739
77679W        W44110  16.731   3.113  14.986
77680W        W44111  14.836   6.721  10.636
77681W        W44112  29.683  12.070  14.726
77682W        W44113  32.537  23.936  14.070
77683W        W44114  26.369  28.229   0.480
77684W        W44115  15.473  12.058   1.836
77685W        W44116  12.560  34.022   3.287
77686W        W44117  14.716   1.580  12.757
77687W        W44118  41.089  17.326   1.917
77688W        W44119  25.739   6.883   2.818
77689W        W44120  16.728  28.590   1.794
77690W        W44121   7.020  43.422   3.165
77691W        W44122   9.630  13.272  14.886
77692W        W44123  34.689   4.291  13.342
77693W        W44124   1.659  31.574   4.136
77694W        W44125  36.800  22.999  13.370
77695W        W44126   0.239   8.151  10.667
77696W        W44127  20.619  40.727   4.726
77697W        W44128  19.364  21.389   2.351
77698W        W44129  31.487  34.469  14.451
77699W        W44130  35.202  42.908  10.750
77700W        W44131  14.247  38.793  11.155
77701W        W44132  18.683   1.982  14.281
77702W        W44133   5.595  36.722  12.916
77703W        W44134  11.390  17.556  11.827
77704W        W44135  34.314  43.933   2.507
77705W        W44136  20.752  31.852  12.086
77706W        W44137  37.799   7.813  12.504
77707W        W44138  17.280  11.333  13.122
77708W        W44139  18.666  35.376   4.646
77709W        W44140  20.659   2.502   3.383
77710W        W44141  19.106   7.303   5.146
77711W        W44142  20.101  35.565  10.626
77712W        W44143  43.205  40.496  11.236
77713W        W44144   2.439  38.758   1.851
77714W        W44145  38.494  38.984   2.637
77715W        W44146  37.447  43.054   0.822
77716W        W44147   9.949  11.037  13.718
77717W        W44148  20.014   3.413  14.083
77718W        W44149  20.673  19.554   5.062
77719W        W44150   2.350  14.547  12.446
77720W        W44151  19.819  30.086  13.251
77721W        W44152   0.803  16.510  14.436
77722W        W44153  25.556  22.244   0.630
77723W        W44154   9.247   6.273   1.548
77724W        W44155  30.392  30.038  14.978
77725W        W44156  21.918   2.339   1.447
77726W        W44157  23.161  26.440  11.993
77727W        W44158   1.818  22.256   1.218
77728W        W44159  25.190  19.075  13.946
77729W        W44160  25.592  13.046  10.811
77730W        W44161   7.611   0.406   2.520
77731W        W44162  23.476  32.517   0.539
77732W        W44163  28.149  20.025   1.364
77733W        W44164  37.930  44.923   2.313
77734W        W44165  43.876   7.621  12.023
77735W        W44166  25.677   7.270   2.386
77736W        W44167  38.268   3.828  10.851
77737W        W44168  42.348  22.570   3.096
77738W        W44169  23.123  26.905  12.958
77739W        W44170   3.939   2.188  13.563
77740W        W44171  36.444  21.896  13.610
77741W        W44172  39.931  19.687   2.263
77742W        W44173  16.384  18.634  12.785
77743W        W44174  26.960  34.560  10.913
77744W        W44175  44.847  13.227  13.375
77745W        W44176   4.688   0.449   0.992
77746W        W44177   0.484  30.836  10.441
77747W        W44178  25.099  20.548  14.872
77748W        W44179   1.292  28.440   2.312
77749W        W44180  25.977  37.060   0.889
77750W        W44181  25.078   4.035   2.298
77751W        W44182  16.111  25.432  13.643
77752W        W44183   3.427  34.288  10.337
77753W        W44184  29.096  44.051   3.485
77754W        W44185  30.520   9.833  14.523
77755W        W44186  38.751  15.665   0.824
77756W        W44187  17.754  21.999  11.935
77757W        W44188  22.116  40.092   0.857
77758W        W44189  34.098  42.960   2.730
77759W        W44190  39.869   7.416  12.931
77760W        W44191   5.151  31.432   2.498
77761W        W44192  11.031  40.593   2.322
77762W        W44193  40.020  44.333   0.412
77763W        W44194   5.696  36.015  14.412
77764W        W44195  36.570  41.877  10.963
77765W        W44196   3.971  13.389   0.362
77766W        W44197   4.444  41.849  10.618
77767W        W44198  22.535  18.265   3.917
77768W        W44199  37.758  40.484   2.194
77769W        W44200  25.626  31.995  14.282
77770W        W44201  21.984   5.339  11.953
77771W        W44202   7.315  34.138   4.357
77772W        W44203  29.063  21.047   1.875
77773W        W44204  29.663  16.185  13.962
77774W        W44205   0.799   9.181   5.224
77775W        W44206  38.899  11.568  13.330
77776W        W44207  13.765  27.696   4.817
77777W        W44208  30.628  20.840  14.345
77778W        W44209  30.051  25.207  14.103
77779W        W44210  40.060  40.073   3.199
77780W        W44211  13.868  14.563  14.777
77781W        W44212  33.558  43.288   0.646
77782W        W44213  33.829  19.179   3.689
77783W        W44214   6.755  12.665   2.929
77784W        W44215  44.421  11.604  12.330
77785W        W44216  30.093  43.276  12.091
77786W        W44217  11.377  19.205  14.667
77787W        W44218  27.891   5.810  12.339
77788W        W44219   6.472  18.269  13.390
77789W        W44220  30.711  33.662  13.965
77790W        W44221  23.971   3.256   3.684
77791W        W44222  25.979  20.715   3.620
77792W        W44223  11.409  30.438  11.165
77793W        W44224  30.197  19.106  12.405
77794W        W44225  17.136   4.975   2.139
77795W        W44226   2.883  39.524   3.293
77796W        W44227  26.282  15.561   2.817
77797W        W44228  18.220  27.683  13.554
77798W        W44229   6.488  27.704  11.662
77799W        W44230  37.590   8.266   2.503
77800W        W44231  29.109  11.434  11.901
77801W        W44232   3.140  16.723  11.456
77802W        W44233  39.913  12.024   1.707
77803W        W44234  30.597  13.047  11.595
77804W        W44235  27.053  37.644  11.988
77805W        W44236  23.736  13.164  12.068
77806W        W44237  10.214  24.347  12.651
77807W        W44238   2.907  35.296   4.011
77808W        W44239  21.095   5.812  10.032
77809W        W44240  34.015  29.651   2.745
77810W        W44241  35.984  44.764   0.305
77811W        W44242  35.592   1.691   1.358
77812W        W44243  27.469  30.165  11.383
77813W        W44244  36.948  15.121   3.051
77814W        W44245  25.972  19.713  14.955
77815W        W44246  35.101  38.281  11.541
77816W        W44247  27.478  12.254   4.098
77817W        W44248  26.300  33.451  13.778
77818W        W44249  33.047  17.787  13.453
77819W        W44250  17.783  33.052  13.039
77820W        W44251  43.844  17.304   4.508
77821W        W44252   2.191  14.145   4.901
77822W        W44253  16.749   5.840   4.420
77823W        W44254  32.134   3.761   3.158
77824W        W44255  10.659  38.072  12.103
77825W        W44256  18.691  35.238  12.481
77826W        W44257  16.395  13.144   5.466
77827W        W44258  33.334   6.390  11.088
77828W        W44259  26.200  33.998   4.315
77829W        W44260  37.570  42.247   0.480
77830W        W44261  42.821  11.567   3.694
77831W        W44262  25.996  17.793  11.539
77832W        W44263  13.709  21.680   4.709
77833W        W44264   4.041  43.043  12.945
77834W        W44265   0.797   4.768  13.479
77835W        W44266  42.329  17.207   4.661
77836W        W44267  27.661  23.247  13.655
77837W        W44268  34.076  30.895   0.853
77838W        W44269   8.183  30.640   2.649
77839W        W44270   2.476  41.445  12.209
77840W        W44271  16.237   9.433  12.101
77841W        W44272  17.329   8.573   5.171
77842W        W44273   1.420  40.190  13.736
77843W        W44274  18.190  16.811  14.411
77844W        W44275   1.786   3.187   4.668
77845W        W44276   8.821   0.831  11.691
77846W        W44277  21.099  40.438   3.820
77847W        W44278   0.859  39.637  14.864
77848W        W44279  36.727  23.035  14.700
77849W        W44280  17.081  19.271   0.806
77850W        W44281   8.370  42.050   2.180
77851W        W44282  18.148   8.449  10.723
77852W        W44283   4.763  28.953  12.874
77853W        W44284  21.636  29.467  11.550
77854W        W44285  28.635  14.784  11.564
77855W        W44286  13.341  41.311  11.106
77856W        W44287   2.422  31.349   2.834
77857W        W44288   5.837  39.988   2.780
77858W        W44289  12.280   8.201   0.452
77859W        W44290   0.982  37.925   0.762
77860W        W44291  31.495  36.164   3.626
77861W        W44292  27.168  32.426  11.669
77862W        W44293  32.662  23.080  10.726
77863W        W44294  21.202  43.444  12.741
77864W        W44295   7.690   3.270   1.527
77865W        W44296  13.194  17.877  13.090
77866W        W44297  42.228  12.547   0.900
77867W        W44298  20.497  37.969  12.666
77868W        W44299   9.269   6.127   9.890
77869W        W44300  17.868  33.140   4.122
77870W        W44301  20.541  34.227   0.654
77871W        W44302   7.809  28.169   0.273
77872W        W44303  11.648  13.379   1.783
77873W        W44304  29.661  44.306   1.862
77874W        W44305  25.135  25.930  11.155
77875W        W44306  28.960  18.691  13.022
77876W        W44307  13.329  44.704   3.717
77877W        W44308   9.545   3.396  14.809
77878W        W44309  14.536  23.313  12.886
77879W        W44310  14.415  40.853   2.725
77880W        W44311  21.470  14.717  14.768
77881W        W44312  44.871  22.441   4.326
77882W        W44313   3.317  37.203  11.949
77883W        W44314  35.329   5.659   4.783
77884W        W44315  37.310   6.160  14.368
77885W        W44316  43.844  29.148  11.145
77886W        W44317  25.041   1.562  13.507
77887W        W44318  12.315   0.234   2.725
77888W        W44319  43.048  14.125   4.069
77889W        W44320  33.177   3.773   1.344
77890W        W44321   5.040  22.809  13.107
77891W        W44322  14.198  11.587   0.379
77892W        W44323  23.149   6.188  10.203
77893W        W44324  43.716  29.671  11.741
77894W        W44325  20.799   3.919  11.140
77895W        W44326  40.222  24.679  10.697
77896W        W44327  31.508   2.291   4.131
77897W        W44328   5.848  41.051   2.864
77898W        W44329  18.493  29.034  13.854
77899W        W44330   0.473  34.512  12.899
77900W        W44331  17.575  25.626  12.419
77901W        W44332  40.093  30.909  10.819
77902W        W44333  33.195  27.234  11.096
77903W        W44334  15.007  12.804  14.375
77904W        W44335  14.126   3.958  14.824
77905W        W44336  37.622  15.310  10.798
77906W        W44337  12.324  21.419  12.958
77907W        W44338  21.480  40.067   3.055
77908W        W44339  34.089  33.693  10.787
77909W        W44340  43.160  31.922  14.429
77910W        W44341   8.622   8.727  11.914
77911W        W44342   7.978  33.931   0.388
77912W        W44343   1.853  24.789   2.653
77913W        W44344   4.891  14.413   1.789
77914W        W44345  27.701  14.210  13.908
77915W        W44346   5.683  42.049   2.128
77916W        W44347  37.046  22.541  13.397
77917W        W44348  34.295  20.110   3.638
77918W        W44349  32.821  38.256   3.198
77919W        W44350  41.969  11.323   2.768
77920W        W44351  35.486  30.648   1.766
77921W        W44352  14.111  35.030   3.332
77922W        W44353  31.847  33.030   2.449
77923W        W44354  28.525  33.452  14.821
77924W        W44355  29.878  42.887  11.801
77925W        W44356   8.533  29.401  14.323
77926W        W44357   2.613  25.842  11.905
77927W        W44358  26.474  44.750  11.213
77928W        W44359  31.493  22.404  10.588
77929W        W44360   4.167  19.643   4.104
77930W        W44361  28.395   0.491  12.074
77931W        W44362  12.125  33.320   3.813
77932W        W44363  21.152  11.563   0.168
77933W        W44364  11.833  14.788  11.914
77934W        W44365  43.958  31.433   4.721
77935W        W44366  42.573   6.608   2.744
77936W        W44367  18.192  26.744  14.479
77937W        W44368   1.311  10.300  13.550
77938W        W44369  29.991  43.793   4.683
77939W        W44370  25.941  22.513  11.911
77940W        W44371  29.208  36.856   3.232
77941W        W44372  38.405  35.080  10.651
77942W        W44373   6.898  24.513  12.822
77943W        W44374   6.653  23.941  12.002
77944W        W44375  22.502  17.299   3.617
77945W        W44376   3.133  13.186  12.144
77946W        W44377  16.321  40.982   0.579
77947W        W44378  33.949   6.714   0.959
77948W        W44379   4.201   8.245  12.585
77949W        W44380   1.957  12.276  10.772
77950W        W44381  38.843   7.931   2.712
77951W        W44382  36.867  13.848   4.111
77952W        W44383  27.081  11.518   1.703
77953W        W44384  11.942  37.677   2.196
77954W        W44385  30.944  17.055  10.127
77955W        W44386  26.212  40.290   3.859
77956W        W44387   1.088  24.719   4.902
77957W        W44388   0.270  17.580  13.526
77958W        W44389   0.517  11.281  14.441
77959W        W44390  29.216  40.821   4.095
77960W        W44391  11.316  12.111  14.563
77961W        W44392  41.951  12.157  10.413
77962W        W44393   9.795   7.850  10.798
77963W        W44394  13.841  28.478  12.665
77964W        W44395  36.939  30.038   0.869
77965W        W44396   2.100  20.940   3.663
77966W        W44397  44.703  31.760  13.018
77967W        W44398  35.915   1.021   4.513
77968W        W44399   2.956  31.374  11.641
77969W        W44400  35.130  29.246   1.821
77970W        W44401  16.237  26.801  12.108
77971W        W44402  27.165  17.577   4.167
77972W        W44403   2.409  39.123   4.998
77973W        W44404  13.699  44.639  12.519
77974W        W44405  28.253  23.997   2.357
77975W        W44406  35.404  18.456   2.681
77976W        W44407  20.924  21.816   2.902
77977W        W44408  23.644  18.768   4.673
77978W        W44409  27.269  33.877   0.380
77979W        W44410  21.788  26.742   4.196
77980W        W44411  24.552   6.946  13.455
77981W        W44412  31.803  35.690  13.096
77982W        W44413   5.941  31.738   2.321
77983W        W44414  23.680  29.032   5.526
77984W        W44415   4.307  30.360  13.537
77985W        W44416  20.409  28.925   4.938
77986W        W44417  26.088  20.136  13.807
77987W        W44418  14.314  32.179   2.336
77988W        W44419  25.194  17.158   1.130
77989W        W44420  39.061  25.805  12.116
77990W        W44421  16.592  26.033  10.644
77991W        W44422   5.044  23.852   3.679
77992W        W44423  14.643  27.834  11.350
77993W        W44424  10.806  43.216  11.196
77994W        W44425  39.806  31.960  14.054
77995W        W44426   5.294  29.910  13.478
77996W        W44427  26.226   7.469  11.508
77997W        W44428  12.278  26.475  11.146
77998W        W44429  24.514  15.312   0.776
77999W        W44430   4.671  26.476   4.620
78000W        W44431  17.309  26.054   4.181
78001W        W44432  19.382   0.833   3.211
78002W        W44433  29.012  43.322   1.484
78003W        W44434   3.312  40.327   0.707
78004W        W44435  41.505  13.064   1.905
78005W        W44436  11.299  17.811   3.804
78006W        W44437  43.033  32.885  12.602
78007W        W44438  17.752   4.985   0.167
78008W        W44439  39.071  18.283   2.349
78009W        W44440  43.713  13.392   3.763
78010W        W44441  12.307  25.488  12.374
78011W        W44442  33.889  43.042   4.087
78012W        W44443  19.727  13.672   4.047
78013W        W44444  38.978   7.505  11.891
78014W        W44445  35.266   1.437   1.807
78015W        W44446  19.561  44.163  12.219
78016W        W44447   7.349  20.507  11.215
78017W        W44448  28.493  15.816   2.768
78018W        W44449   1.911  43.694  12.538
78019W        W44450  27.708   1.434  14.955
78020W        W44451  41.415  24.381   2.362
78021W        W44452  21.468  43.439  13.981
78022W        W44453  21.552  22.025  13.317
78023W        W44454  16.598   1.269   1.942
78024W        W44455  13.870   4.864   2.048
78025W        W44456  18.506   8.650  13.230
78026W        W44457  34.874  24.744  11.622
78027W        W44458  27.217   8.601   3.263
78028W        W44459  41.969   0.364   0.328
78029W        W44460  37.367   0.376   2.775
78030W        W44461  34.794  44.061   2.384
78031W        W44462   9.846   3.909  13.516
78032W        W44463   0.484  28.734  12.479
78033W        W44464  21.609  18.616   0.921
78034W        W44465  34.311  36.983  11.104
78035W        W44466  34.458  22.647  13.437
78036W        W44467   7.619  36.770  12.046
78037W        W44468  22.432  33.439   4.123
78038W        W44469  20.135  11.928  10.230
78039W        W44470  27.971   4.934  14.795
78040W        W44471  10.127  36.091  10.110
78041W        W44472   4.278   0.342  12.144
78042W        W44473  21.516  16.054  12.593
78043W        W44474  17.709   7.725  12.900
78044W        W44475   9.085  10.379   0.017
78045W        W44476   2.341   5.878   0.763
78046W        W44477  12.421  24.116   3.245
78047W        W44478  39.586  33.409   1.809
78048W        W44479  40.413  41.589   4.043
78049W        W44480  44.969  38.606   0.264
78050W        W44481   2.340  23.706   3.659
78051W        W44482  31.683   8.914   2.603
78052W        W44483  34.419   5.864  12.518
78053W        W44484  36.814  27.538   3.658
78054W        W44485  21.318  41.236   2.890
78055W        W44486  11.074  30.023   1.130
78056W        W44487  36.285   9.480  10.790
78057W        W44488  17.375  26.958   4.593
78058W        W44489  21.517  20.693  12.944
78059W        W44490  23.767  31.873  12.445
78060W        W44491  40.502  16.162   3.671
78061W        W44492  34.931  32.647   0.028
78062W        W44493   9.886  12.943  11.397
78063W        W44494  29.763  36.374   1.916
78064W        W44495  13.907  19.726   1.959
78065W        W44496   9.106  34.191   2.217
78066W        W44497  22.274  31.016   2.853
78067W        W44498   1.923  43.291   4.622
78068W        W44499   0.426  36.366  11.275
78069W        W44500  32.683  16.112   2.420
78070W        W44501  37.015   8.183   0.559
78071W        W44502  11.500  12.342  13.049
78072W        W44503  36.996  16.704  12.936
78073W        W44504  11.402  16.731  11.688
78074W        W44505   1.748   0.978  10.663
78075W        W44506   6.350  18.714  12.445
78076W        W44507  42.625  39.264  13.801
78077W        W44508  40.146  44.951  14.746
78078W        W44509  24.171   3.761   0.896
78079W        W44510  34.415   2.467   0.250
78080W        W44511  21.414   3.963  14.075
78081W        W44512  20.345  25.117   2.339
78082W        W44513  21.107  23.729   4.774
78083W        W44514  15.753  23.501  13.108
78084W        W44515  14.554  43.663  13.097
78085W        W44516   1.165  22.772   0.878
78086W        W44517  11.851  15.560   5.029
78087W        W44518  23.231  18.572   3.694
78088W        W44519  38.310  31.804  11.664
78089W        W44520  40.288  32.513  13.531
78090W        W44521   7.068   5.628   0.771
78091W        W44522   9.781  15.829   9.789
78092W        W44523  43.618  16.812   4.128
78093W        W44524  40.334   0.719   3.732
78094W        W44525  15.910   0.394  12.254
78095W        W44526   9.732  25.596  11.220
78096W        W44527  15.273  28.417  12.481
78097W        W44528  40.371  33.466   3.692
78098W        W44529   2.989  44.812   3.183
78099W        W44530  34.668  15.693   3.662
78100W        W44531  19.229   3.942  11.977
78101W        W44532  24.480  36.487  11.155
78102W        W44533  41.794  40.821   3.317
78103W        W44534  20.634  16.170   2.367
78104W        W44535  18.016  36.981  12.331
78105W        W44536   2.597   9.737  12.357
78106W        W44537  28.574  38.620   3.591
78107W        W44538  33.494  44.317  14.069
78108W        W44539  12.747  20.168   4.621
78109W        W44540  30.673  39.892  13.480
78110W        W44541   5.469  40.369  14.414
78111W        W44542  12.813  41.039   0.466
78112W        W44543  31.422  14.209  12.823
78113W        W44544   0.678  35.551   0.414
78114W        W44545  29.791  29.728   1.886
78115W        W44546  25.172  20.265   4.578
78116W        W44547   5.582  16.087  14.602
78117W        W44548  35.018  23.991  13.076
78118W        W44549  29.559   2.826   1.446
78119W        W44550   3.500  28.440   0.022
78120W        W44551  35.662  15.220  13.077
78121W        W44552   9.102  12.877   3.670
78122W        W44553  27.960  39.313   1.245
78123W        W44554   9.797  43.668   0.393
78124W        W44555  12.924  26.256   3.872
78125W        W44556  12.112  31.912  13.875
78126W        W44557  37.971  22.906  12.562
78127W        W44558  42.354  41.583   1.355
78128W        W44559  23.849   6.068  14.929
78129W        W44560  42.991   2.796  11.136
78130W        W44561  33.648  31.289  14.288
78131W        W44562  27.307  11.637  10.300
78132W        W44563   1.060  44.183  12.571
78133W        W44564  25.737   7.931   0.454
78134W        W44565  41.418  14.667  12.525
78135W        W44566   9.248  27.132   4.135
78136W        W44567   4.424   4.649   1.936
78137W        W44568  10.284  39.823   1.243
78138W        W44569  13.513  44.464  12.065
78139W        W44570  33.840  41.975  14.842
78140W        W44571  29.561  28.533   3.340
78141W        W44572  26.079  14.598   1.873
78142W        W44573   0.446   8.388   2.564
78143W        W44574  40.056  40.468   4.582
78144W        W44575  15.582  33.339   0.098
78145W        W44576  18.050   7.604   4.089
78146W        W44577  11.087   3.118  13.528
78147W        W44578  18.258   1.342   1.761
78148W        W44579  21.288  32.417   4.183
78149W        W44580  16.650  21.733   2.684
78150W        W44581  30.525  13.910   1.638
78151W        W44582  27.248  19.572  12.495
78152W        W44583   7.707  15.141   3.173
78153W        W44584   4.213   6.183   3.817
78154W        W44585  22.224  34.342   1.371
78155W        W44586   6.783   9.416  13.890
78156W        W44587  19.463  35.959  11.646
78157W        W44588   5.741  35.127   4.826
78158W        W44589  30.499  28.525   0.940
78159W        W44590   7.947  23.169  14.854
78160W        W44591  28.846   8.301   0.684
78161W        W44592  16.603  27.342  14.319
78162W        W44593  10.372   4.210  13.006
78163W        W44594  40.058  29.883  10.685
78164W        W44595   3.956  28.696   4.367
78165W        W44596   3.923  23.410  11.572
78166W        W44597   9.340  29.569   4.312
78167W        W44598  42.725  22.667  11.096
78168W        W44599  15.074  37.845  13.025
78169W        W44600  15.659  20.617   2.634
78170W        W44601  25.587   9.400   3.860
78171W        W44602  12.233  35.944   0.777
78172W        W44603  22.034   2.360   1.947
78173W        W44604  38.980  28.453  14.679
78174W        W44605  22.658  13.288  13.821
78175W        W44606  43.026  41.507   3.939
78176W        W44607  18.576  34.202  10.781
78177W        W44608   1.507  17.133   1.216
78178W        W44609   6.708   5.369  13.006
78179W        W44610  30.351  27.948   4.031
78180W        W44611  38.551  20.238   1.873
78181W        W44612  31.680  43.435   0.317
78182W        W44613  41.994  23.423   1.937
78183W        W44614  16.271  38.622  13.936
78184W        W44615  21.763  39.691   3.243
78185W        W44616   3.709  32.326  10.884
78186W        W44617  41.344  35.492  10.664
78187W        W44618  33.492  15.332   0.705
78188W        W44619  28.236  25.882  11.347
78189W        W44620  41.941  26.456  14.022
78190W        W44621   4.691  16.952   0.162
78191W        W44622  13.729   1.084  11.620
78192W        W44623   3.367  11.572   1.110
78193W        W44624  29.632  17.252   3.153
78194W        W44625  25.575  30.002  14.940
78195W        W44626  26.607   1.202  13.418
78196W        W44627   3.317  23.490   4.249
78197W        W44628  18.277  27.734   4.168
78198W        W44629   5.538  13.545  13.832
78199W        W44630  27.112  32.193  10.430
78200W        W44631  38.964   6.259  11.540
78201W        W44632   4.137   3.047  13.776
78202W        W44633  12.158  14.583  12.528
78203W        W44634   3.232  19.203   3.616
78204W        W44635   8.707  30.911   2.918
78205W        W44636   2.464   2.396  12.382
78206W        W44637  30.762  33.609   2.755
78207W        W44638  27.216  11.843  13.496
78208W        W44639   1.996  17.328   2.303
78209W        W44640   9.148  36.077   2.243
78210W        W44641  32.036   3.726  14.747
78211W        W44642  25.042  30.647   1.203
78212W        W44643  17.234  41.829   0.971
78213W        W44644  42.406  16.228   4.160
78214W        W44645  16.504  17.424   0.994
78215W        W44646  44.373   9.485  14.459
78216W        W44647  27.537  44.256   3.335
78217W        W44648  42.286  20.015  12.903
78218W        W44649   6.318   0.071  10.631
78219W        W44650  14.725  34.327   3.227
78220W        W44651  37.292  36.536  11.708
78221W        W44652  10.412  30.446   2.329
78222W        W44653  18.366  39.499   2.561
78223W        W44654  11.268  40.129  14.861
78224W        W44655   1.463  41.998   2.407
78225W        W44656  13.143   1.857   3.307
78226W        W44657   6.795  16.752  10.451
78227W        W44658  24.568  26.618  11.004
78228W        W44659  43.966   9.549   1.012
78229W        W44660  43.646  18.364  10.720
78230W        W44661  32.968   2.153   3.165
78231W        W44662  26.683  21.751  14.328
78232W        W44663   7.344   4.769   4.519
78233W        W44664  28.108  12.371   2.881
78234W        W44665  13.499   8.018  11.508
78235W        W44666  39.360  33.040   1.495
78236W        W44667  38.737  30.015   2.660
78237W        W44668   5.941  22.125  11.641
78238W        W44669  38.424  32.305  11.557
78239W        W44670  19.334   4.911   3.618
78240W        W44671  19.142   2.569  12.974
78241W        W44672  38.938  23.048   1.943
78242W        W44673  39.954  42.122  11.678
78243W        W44674  13.195  28.300   1.647
78244W        W44675   7.140  11.707  11.440
78245W        W44676  11.264  31.894   4.618
78246W        W44677  33.829   8.805  14.822
78247W        W44678  17.337  33.480  10.454
78248W        W44679  28.457  38.894   2.500
78249W        W44680   9.890  37.537  10.095
78250W        W44681  42.521  43.372  12.950
78251W        W44682   1.164  28.525   1.257
78252W        W44683  19.741  16.971   2.635
78253W        W44684  10.962  29.650  11.228
78254W        W44685  36.869  19.071  13.917
78255W        W44686  19.257  43.309  10.817
78256W        W44687  19.803   1.691  12.970
78257W        W44688  27.553  10.684   1.472
78258W        W44689  37.162  41.954   4.498
78259W        W44690  33.979  11.811   1.957
78260W        W44691  12.075  28.014  12.662
78261W        W44692   4.724  39.919  11.498
78262W        W44693  42.929  18.771   2.366
78263W        W44694  31.045  22.451  11.643
78264W        W44695   0.947  44.012  14.451
78265W        W44696  36.905  33.025   4.240
78266W        W44697  38.285  43.413   3.201
78267W        W44698   8.329  19.423   0.678
78268W        W44699  19.049   9.010  14.487
78269W        W44700   6.950  37.346   3.313
78270W        W44701  31.025  15.151   4.203
78271W        W44702  12.619  10.383  10.820
78272W        W44703  13.883  13.552  11.495
78273W        W44704  15.881  37.723   4.102
78274W        W44705  10.412  15.681   0.176
78275W        W44706  27.678  38.795  14.363
78276W        W44707  13.075  30.215   1.817
78277W        W44708  13.377  13.122   3.617
78278W        W44709   2.953  35.694   0.427
78279W        W44710  29.604  34.479   4.144
78280W        W44711   8.924  35.696  12.959
78281W        W44712  26.686  41.819  12.478
78282W        W44713  16.282  33.606  11.606
78283W        W44714  10.353  27.685  11.480
78284W        W44715   0.760  19.186   3.245
78285W        W44716  41.958   0.005   2.160
78286W        W44717   9.594  39.450   2.813
78287W        W44718  30.096  20.015  10.809
78288W        W44719  33.632  38.597   0.445
78289W        W44720  27.352  38.522   1.748
78290W        W44721  26.916  18.599  10.694
78291W        W44722  30.488  27.476  12.061
78292W        W44723  31.595  40.666  12.117
78293W        W44724  33.542  42.825  10.892
78294W        W44725  40.898  25.584   0.240
78295W        W44726  23.790  25.089   2.178
78296W        W44727   2.033  42.001   2.610
78297W        W44728   4.292  36.003   1.643
78298W        W44729  22.599   8.437  13.840
78299W        W44730  30.708  23.687  13.261
78300W        W44731  29.926  13.432  13.963
78301W        W44732  18.918  17.788   4.984
78302W        W44733  34.377  14.550   0.685
78303W        W44734  21.239  38.838   1.475
78304W        W44735  20.695  15.637  12.455
78305W        W44736  39.632  11.176   4.136
78306W        W44737   4.385  19.013   4.071
78307W        W44738  43.452  18.792   2.315
78308W        W44739  10.619  39.659   2.255
78309W        W44740  36.240  27.355  10.749
78310W        W44741   6.292   9.662  10.712
78311W        W44742  41.418  38.477   2.683
78312W        W44743  24.569  42.290   0.357
78313W        W44744  30.398  16.073   3.809
78314W        W44745  37.458  21.491  10.834
78315W        W44746  11.362   7.126  14.750
78316W        W44747  42.172  30.093   1.443
78317W        W44748  38.926  26.462  11.441
78318W        W44749  33.098  34.979   4.692
78319W        W44750  23.185   0.462   1.301
78320W        W44751   0.382   8.721   1.064
78321W        W44752   0.315  23.943   0.646
78322W        W44753  12.067  31.853   2.974
78323W        W44754   2.042  29.045   0.856
78324W        W44755   3.625   5.684   2.685
78325W        W44756  30.485  40.596  13.981
78326W        W44757  20.010  24.271  13.362
78327W        W44758  14.273  23.487  11.707
78328W        W44759   3.244  23.975  14.934
78329W        W44760  39.886  15.770  13.564
78330W        W44761  13.447  40.498  13.010
78331W        W44762  40.382  16.074   2.392
78332W        W44763  34.627  12.323   2.654
78333W        W44764  21.305  36.095   2.312
78334W        W44765  11.730  38.605   1.716
78335W        W44766  32.831  22.001  14.355
78336W        W44767  22.841  30.198   2.853
78337W        W44768   2.219   6.969  11.208
78338W        W44769  20.556  34.654   4.725
78339W        W44770  39.439  17.352   1.421
78340W        W44771  41.923   9.454   3.378
78341W        W44772  28.438   0.710  11.622
78342W        W44773  19.238   1.805  14.607
78343W        W44774  34.479  24.259   1.292
78344W        W44775  10.716  34.033  10.962
78345W        W44776   7.365  25.966   4.258
78346W        W44777  24.461  33.469   0.394
78347W        W44778  20.666  23.239   0.685
78348W        W44779  14.101  17.559   3.868
78349W        W44780  38.443   8.581   2.339
78350W        W44781   3.771  35.496   4.711
78351W        W44782  35.451  42.512   1.378
78352W        W44783  28.898  27.886   0.277
78353W        W44784  11.545  25.408  11.211
78354W        W44785  38.794   1.124  12.822
78355W        W44786   3.070  18.072   1.772
78356W        W44787   3.311  12.305  11.168
78357W        W44788   1.487   8.853  13.720
78358W        W44789  26.733  28.648   0.343
78359W        W44790  23.534  23.090  13.113
78360W        W44791  36.600  36.424  14.893
78361W        W44792  17.361  42.431  14.737
78362W        W44793   0.948  36.678   3.139
78363W        W44794  34.333   6.781   3.719
78364W        W44795  36.317  25.064   0.780
78365W        W44796  36.177   2.179   1.273
78366W        W44797  20.081  41.943   2.204
78367W        W44798  27.054  11.874  13.992
78368W        W44799  20.173   0.810   0.692
78369W        W44800  18.469   9.296   2.204
78370W        W44801   5.202  43.460   2.828
78371W        W44802  10.644  26.076   0.162
78372W        W44803  27.168  28.079   0.840
78373W        W44804  39.710  24.668  10.740
78374W        W44805  21.781  44.372  10.704
78375W        W44806  23.720  13.544   3.316
78376W        W44807  29.147   3.953  10.639
78377W        W44808  44.293  13.325   0.844
78378W        W44809   3.660   7.211   0.651
78379W        W44810  17.452  27.704   2.229
78380W        W44811  35.431  19.530  10.736
78381W        W44812   5.293  26.898   3.236
78382W        W44813   7.774  31.341  13.847
78383W        W44814  26.445  27.733  12.060
78384W        W44815  30.813  18.840  11.068
78385W        W44816  16.557  13.249  13.407
78386W        W44817  12.113  23.846   9.698
78387W        W44818  15.143  36.348   0.974
78388W        W44819  31.675   8.116  14.459
78389W        W44820  22.739   7.514   1.674
78390W        W44821  27.015  28.508  13.018
78391W        W44822  36.401  10.790   2.856
78392W        W44823  15.192  12.349  12.512
78393W        W44824  25.202  31.831  13.527
78394W        W44825   3.153  38.674   0.042
78395W        W44826  26.523  12.244  14.253
78396W        W44827   4.421   9.221   3.774
78397W        W44828  34.333  19.085  13.379
78398W        W44829  31.623  41.786  12.446
78399W        W44830   0.543  40.115   0.263
78400W        W44831  27.981   5.136   0.293
78401W        W44832  23.116  44.034   4.822
78402W        W44833  22.059  27.011   0.938
78403W        W44834  26.659  27.027   1.445
78404W        W44835  33.319  31.701   1.177
78405W        W44836  31.905   7.716   2.685
78406W        W44837  25.548  37.658   0.206
78407W        W44838  12.359   3.824  14.523
78408W        W44839   6.954  20.062   1.184
78409W        W44840  18.235  32.744  14.779
78410W        W44841  23.672  28.207  12.033
78411W        W44842  16.320  26.363   4.152
78412W        W44843  27.105  13.907  14.927
78413W        W44844   4.513  16.947   1.688
78414W        W44845  16.394   1.741   1.956
78415W        W44846  28.719  43.475  14.212
78416W        W44847  17.978  37.477  11.071
78417W        W44848  19.801   4.210   0.130
78418W        W44849  17.662  15.506  11.364
78419W        W44850  29.521  12.133  12.347
78420W        W44851  44.355  16.726   1.139
78421W        W44852  41.898  16.858   2.447
78422W        W44853  40.361  13.618   0.690
78423W        W44854  23.717   1.975  11.699
78424W        W44855   2.397  44.943  13.956
78425W        W44856  16.454  32.387   0.088
78426W        W44857  19.627   3.472  10.768
78427W        W44858   3.389  37.619  11.035
78428W        W44859  15.185   8.199  10.905
78429W        W44860  34.922  10.167   2.806
78430W        W44861   5.347  10.872   1.764
78431W        W44862  19.726  10.103   9.901
78432W        W44863  37.994  15.258  11.799
78433W        W44864   6.172  21.187   3.870
78434W        W44865  24.527   8.782   1.361
78435W        W44866  17.326   4.477   1.292
78436W        W44867  43.645  29.128  10.661
78437W        W44868  41.281  31.362  12.462
78438W        W44869  12.057  16.323   4.082
78439W        W44870  34.688  11.671  13.311
78440W        W44871   6.783  29.574   2.862
78441W        W44872  13.230  36.842   1.024
78442W        W44873  17.306  18.244  14.084
78443W        W44874  17.085   5.878  12.938
78444W        W44875  15.635   5.440   1.390
78445W        W44876  34.613  41.378   1.230
78446W        W44877  31.109  19.732   0.380
78447W        W44878  35.053  34.961  14.267
78448W        W44879   9.223  13.101  11.722
78449W        W44880  13.823  26.593   3.263
78450W        W44881  13.105  23.620  14.536
78451W        W44882  27.688  33.145  10.994
78452W        W44883  26.466  31.024   9.703
78453W        W44884   0.255  30.123  11.147
78454W        W44885   8.934   8.259   4.360
78455W        W44886  35.135   5.233   2.768
78456W        W44887  41.209  22.709  14.445
78457W        W44888  25.357   7.422  14.647
78458W        W44889  17.631  44.030   1.750
78459W        W44890  24.097  14.829  14.938
78460W        W44891  41.258   1.539   4.531
78461W        W44892   3.001   2.137   2.357
78462W        W44893  40.886  32.597  12.899
78463W        W44894  24.004  26.020   4.906
78464W        W44895  32.050  10.768   0.954
78465W        W44896  32.898  21.714   3.365
78466W        W44897  15.253  20.597   1.349
78467W        W44898   6.821  12.772  10.688
78468W        W44899  23.960  36.497  14.106
78469W        W44900  40.766  28.706   1.794
78470W        W44901   6.305   3.516  14.394
78471W        W44902  43.718  24.581   1.307
78472W        W44903  15.223  12.999  11.086
78473W        W44904  10.468  12.676  14.502
78474W        W44905  22.824   1.706  14.519
78475W        W44906  29.022  20.855   3.420
78476W        W44907  35.681  41.224   0.014
78477W        W44908   8.573   4.063   3.694
78478W        W44909   5.874  19.845  13.571
78479W        W44910  24.296  22.695  13.010
78480W        W44911  43.221   8.360   0.059
78481W        W44912   0.899  14.318  10.316
78482W        W44913   6.476  38.519  13.567
78483W        W44914  35.089  12.168   2.846
78484W        W44915  20.487  40.768   2.703
78485W        W44916   6.580  31.067   4.725
78486W        W44917  32.907  14.332  10.894
78487W        W44918  44.320   4.228   1.351
78488W        W44919  33.557   4.536  14.749
78489W        W44920  24.659  22.960   1.417
78490W        W44921  39.890  31.621   1.931
78491W        W44922  25.209  24.279   1.343
78492W        W44923  19.224  35.129  13.469
78493W        W44924  14.870  34.862   1.418
78494W        W44925  16.245  31.777   4.336
78495W        W44926   3.099  34.072  12.550
78496W        W44927  26.442  17.660   0.407
78497W        W44928  18.480  21.539   0.422
78498W        W44929  25.897  33.176   1.329
78499W        W44930  41.883  13.774  13.549
78500W        W44931  42.833  39.304  12.382
78501W        W44932   1.984   4.689  13.295
78502W        W44933  25.530  13.614   2.475
78503W        W44934   8.717  29.638   1.987
78504W        W44935  30.754  29.732   1.883
78505W        W44936   7.609   3.276  10.730
78506W        W44937  41.345   1.448  14.017
78507W        W44938  12.621  17.278  14.356
78508W        W44939  16.292  39.816  14.424
78509W        W44940  44.523   3.751  10.294
78510W        W44941  16.211  29.026   2.296
78511W        W44942  34.882  24.783  13.400
78512W        W44943  35.336   0.322   3.234
78513W        W44944  26.686  30.380  13.897
78514W        W44945   0.360  16.673  11.922
78515W        W44946  39.355  36.295  11.173
78516W        W44947   9.882   2.115   3.028
78517W        W44948  32.226  14.548   2.553
78518W        W44949  33.011   8.740   4.528
78519W        W44950  26.301  37.309  11.392
78520W        W44951  28.059  20.531  11.585
78521W        W44952  43.483   7.283  11.138
78522W        W44953  29.252  32.170  11.220
78523W        W44954  36.932  28.378   0.452
78524W        W44955  36.365  13.158   3.635
78525W        W44956  42.536   6.468   0.077
78526W        W44957  26.027  26.438   3.416
78527W        W44958  41.265  30.141  13.952
78528W        W44959  12.110  20.212  11.053
78529W        W44960  14.702  33.382   0.286
78530W        W44961  44.531  16.500   4.098
78531W        W44962  30.453  34.431  12.364
78532W        W44963  11.595   4.014   2.433
78533W        W44964   1.747  36.488   4.074
78534W        W44965  40.704  12.056  14.012
78535W        W44966  13.786   0.282   2.511
78536W        W44967   1.490  40.122   1.846
78537W        W44968   8.456  44.133   2.368
78538W        W44969  39.782  13.377   3.131
78539W        W44970  41.041  25.532  14.402
78540W        W44971  27.632  26.629  10.648
78541W        W44972  31.276   2.550   0.269
78542W        W44973  33.662  15.726  13.786
78543W        W44974  27.594   8.551   1.426
78544W        W44975   6.281  12.192  12.949
78545W        W44976   0.751   7.309   1.973
78546W        W44977  17.794  43.077   0.012
78547W        W44978  16.700  22.800  11.983
78548W        W44979  14.746  33.750  10.376
78549W        W44980  37.564  38.388  14.308
78550W        W44981   6.298  40.397  14.057
78551W        W44982  16.684   8.361  10.637
78552W        W44983  12.054  25.515  11.917
78553W        W44984   4.724  12.641   4.095
78554W        W44985  13.301   9.211  14.993
78555W        W44986  23.909   9.465   4.346
78556W        W44987  34.917   8.640  13.527
78557W        W44988   5.919  33.695   1.209
78558W        W44989  32.047   9.392   3.175
78559W        W44990  16.557  27.471  13.446
78560W        W44991  25.735   9.877   3.714
78561W        W44992  40.274   7.212   9.897
78562W        W44993  28.168  13.254   0.365
78563W        W44994  15.219  41.340   2.651
78564W        W44995   7.755   9.124  13.011
78565W        W44996  16.074  17.199  13.369
78566W        W44997   0.699   3.954   4.241
78567W        W44998  38.253  20.097   1.381
78568W        W44999  12.769  39.052  12.569
78569W        W45000  39.841  11.415   2.306
78570W        W45001  41.822  18.240  13.255
78571W        W45002   4.838  12.388  14.366
78572W        W45003  32.115   6.635   0.520
78573W        W45004  12.140  39.800  14.012
78574W        W45005  33.046  32.231   4.148
78575W        W45006   3.331   2.547  10.739
78576W        W45007   1.015  15.131   0.757
78577W        W45008  12.936   8.428   0.474
78578W        W45009  24.705  19.055  11.954
78579W        W45010   8.873  41.013   2.664
78580W        W45011   6.728   2.834  14.832
78581W        W45012  25.789  18.318   3.553
78582W        W45013   3.876  20.349  12.158
78583W        W45014  28.059  15.231   3.568
78584W        W45015  11.818  15.141  14.575
78585W        W45016  30.582   0.441   3.223
78586W        W45017  30.677  36.868  13.508
78587W        W45018   1.491  11.751   0.740
78588W        W45019  31.472   6.833   4.700
78589W        W45020  38.586  37.535   1.390
78590W        W45021  31.811  39.938  12.498
78591W        W45022  42.816  23.140  12.477
78592W        W45023   5.038  24.914   2.335
78593W        W45024  29.452  17.116  13.123
78594W        W45025   6.681  19.315  10.444
78595W        W45026  16.487  25.602  13.311
78596W        W45027  13.679  26.369  11.560
78597W        W45028  21.969   2.210  13.532
78598W        W45029   1.655  17.497   1.953
78599W        W45030  31.927  42.808  13.409
78600W        W45031  18.293   9.704  11.211
78601W        W45032  11.897  42.366  12.156
78602W        W45033  36.209  35.122   0.289
78603W        W45034   1.989  42.384  11.951
78604W        W45035  26.397  37.401  10.328
78605W        W45036   8.583  31.664  10.367
78606W        W45037   9.424  27.065  11.641
78607W        W45038  25.055  42.359   3.826
78608W        W45039   2.785  36.532   4.074
78609W        W45040  36.561  35.608  10.971
78610W        W45041  22.212  30.136   1.291
78611W        W45042  18.700  43.911   2.984
78612W        W45043  24.449   0.641   3.578
78613W        W45044  10.769   8.274   2.000
78614W        W45045  24.150  31.184   1.833
78615W        W45046  11.426  32.011  14.868
78616W        W45047  38.948   4.174  11.907
78617W        W45048  34.051  24.170  11.418
78618W        W45049  39.437  23.772   1.915
78619W        W45050   2.899  25.145  12.472
78620W        W45051  18.887  15.779  12.585
78621W        W45052  23.212  28.152   3.220
78622W        W45053  39.003  25.489  13.503
78623W        W45054  37.178  39.370  13.955
78624W        W45055   5.954  25.380  13.409
78625W        W45056  30.920  35.606   1.235
78626W        W45057  25.997  39.257   1.403
78627W        W45058  37.898  26.169   3.707
78628W        W45059  22.553   0.819  12.691
78629W        W45060  30.071   8.506   0.232
78630W        W45061  20.549  15.930  13.304
78631W        W45062   9.411  34.128  14.779
78632W        W45063  44.915  18.772  11.631
78633W        W45064  43.424  30.034  12.307
78634W        W45065   9.421   5.159  12.472
78635W        W45066  13.877  26.692   1.924
78636W        W45067  23.133  13.201   4.261
78637W        W45068  36.882  15.254  12.062
78638W        W45069  37.322   2.889   0.332
78639W        W45070  37.512  18.086  12.940
78640W        W45071  12.875  33.992   1.376
78641W        W45072  34.823   3.741   2.835
78642W        W45073  26.951  26.099   1.146
78643W        W45074  11.618   5.721  10.678
78644W        W45075  19.067   8.806   3.389
78645W        W45076  20.099  15.549   3.365
78646W        W45077  33.755  17.089   4.318
78647W        W45078   8.949   5.692   0.875
78648W        W45079  24.122  32.360  13.810
78649W        W45080  39.441  21.266   1.239
78650W        W45081   9.223  21.827   2.735
78651W        W45082  39.612  16.614   0.182
78652W        W45083  18.092  40.859  11.529
78653W        W45084  25.920   5.187  12.032
78654W        W45085  24.192  15.310  12.197
78655W        W45086   3.055   4.331  11.387
78656W        W45087  18.543   7.275  13.819
78657W        W45088  43.781   6.343  12.932
78658W        W45089  40.438  31.230  10.619
78659W        W45090  32.080   7.793  13.055
78660W        W45091  29.005  13.792  12.433
78661W        W45092  23.436  20.783   4.283
78662W        W45093  28.024   8.088  13.066
78663W        W45094  10.386   9.604   3.171
78664W        W45095  32.027   8.205  11.178
78665W        W45096  35.133  13.074  11.975
78666W        W45097  43.256  17.190  12.422
78667W        W45098  37.887  25.187  11.224
78668W        W45099  13.662  19.500  12.897
78669W        W45100  41.204  31.928   1.472
78670W        W45101  13.457  25.165  11.134
78671W        W45102  37.879  16.618  10.539
78672W        W45103  13.754  11.114  10.493
78673W        W45104  34.376  11.230  14.561
78674W        W45105   5.041  41.005  13.812
78675W        W45106  41.778  18.304  14.719
78676W        W45107  32.501   8.876   4.499
78677W        W45108  27.165   7.448  14.074
78678W        W45109  23.145  23.229   1.441
78679W        W45110  39.032  34.656  14.891
78680W        W45111  10.372  44.404   1.383
78681W        W45112   6.696  43.483  14.649
78682W        W45113  37.666  37.391   9.978
78683W        W45114   8.000  14.106  11.191
78684W        W45115  16.747  23.053   0.801
78685W        W45116  26.477  24.385  13.174
78686W        W45117  39.529   3.736   3.824
78687W        W45118  39.425  23.118   1.821
78688W        W45119   4.351  44.590   3.097
78689W        W45120   2.205   3.296   5.037
78690W        W45121  13.730  12.715   4.849
78691W        W45122  29.214  38.036  14.892
78692W        W45123   8.459  14.567  12.558
78693W        W45124  10.441  37.435   9.968
78694W        W45125  39.019  19.856  12.865
78695W        W45126  24.450  43.911  13.640
78696W        W45127  28.204  11.853  12.443
78697W        W45128  14.758  31.172  14.020
78698W        W45129  40.773  43.974   2.388
78699W        W45130  11.262  11.601  10.724
78700W        W45131  18.349   2.614  12.058
78701W        W45132   8.708  24.309   0.254
78702W        W45133   3.322   3.869   4.380
78703W        W45134  21.548   9.219  13.581
78704W        W45135  18.088   4.306   9.847
78705W        W45136  17.908   8.944  13.482
78706W        W45137  37.969   7.355   2.853
78707W        W45138  16.801  12.840   4.890
78708W        W45139  27.175  39.388  11.217
78709W        W45140  35.992  13.776  13.585
78710W        W45141  13.304  18.736  11.056
78711W        W45142  26.618  15.883   1.628
78712W        W45143   8.711  38.372   2.291
78713W        W45144  23.077  20.321  12.105
78714W        W45145  30.494   4.435   0.572
78715W        W45146  35.192   0.788   2.173
78716W        W45147   9.865  29.726  14.737
78717W        W45148  35.993  16.121   1.774
78718W        W45149  43.585  43.887  12.463
78719W        W45150   1.899  43.767   2.446
78720W        W45151  22.793  20.817  14.725
78721W        W45152  22.820   4.802  14.539
78722W        W45153  29.006   5.988   4.080
78723W        W45154  40.878  37.071   4.106
78724W        W45155   3.206  32.975   4.546
78725W        W45156   8.669  30.585   1.743
78726W        W45157  40.298   3.365   3.504
78727W        W45158  21.331  43.965   5.053
78728W        W45159   8.822   3.927   4.637
78729W        W45160  10.270  44.495   4.766
78730W        W45161  44.200  42.875   1.936
78731W        W45162  44.039   3.333  11.652
78732W        W45163  19.199   8.585   0.232
78733W        W45164   9.250  40.839  13.573
78734W        W45165   7.241  42.921   2.349
78735W        W45166  30.008  30.463  13.977
78736W        W45167  25.916   5.780  14.304
78737W        W45168   7.757  17.307  12.994
78738W        W45169   1.701  10.865   2.820
78739W        W45170   3.432  16.118   4.102
78740W        W45171  11.807  16.226   2.265
78741W        W45172  29.594  38.499  13.324
78742W        W45173  43.311   9.920  14.281
78743W        W45174  20.780  34.649   0.861
78744W        W45175  37.748  32.576   0.940
78745W        W45176   8.705   9.696  14.514
78746W        W45177   6.670  32.438   3.400
78747W        W45178  36.958  12.042   4.825
78748W        W45179  34.949   4.980   3.198
78749W        W45180  21.019   7.522  11.128
78750W        W45181  33.861  19.306  13.368
78751W        W45182   0.397  15.608   1.216
78752W        W45183  17.128   2.398   4.611
78753W        W45184  16.828  32.365   3.725
78754W        W45185  31.331  43.755  12.573
78755W        W45186   9.456  17.012   3.625
78756W        W45187  29.025  35.922   0.379
78757W        W45188  33.889   5.195  11.946
78758W        W45189   5.175  36.327  11.577
78759W        W45190  16.285  16.584  12.319
78760W        W45191  44.279  40.793   3.940
78761W        W45192  23.335   8.724  14.542
78762W        W45193  28.607   3.336  14.576
78763W        W45194  35.800  37.508   1.785
78764W        W45195  27.868  23.484  11.176
78765W        W45196  39.576  40.079  13.943
78766W        W45197  38.943  24.992  12.647
78767W        W45198  20.160   1.841  11.484
78768W        W45199   5.294  38.777  11.143
78769W        W45200  33.442  12.842  12.653
78770W        W45201  32.713  40.495  10.054
78771W        W45202  15.175   6.196   5.136
78772W        W45203  34.090  25.519   4.661
78773W        W45204  29.458   2.787   4.746
78774W        W45205  40.568  25.678  13.498
78775W        W45206  13.182   8.393  14.531
78776W        W45207   8.248  27.001   3.141
78777W        W45208  33.524  32.507   1.914
78778W        W45209  18.665   3.794   3.149
78779W        W45210  20.693  32.036  13.085
78780W        W45211  10.234   8.047  13.991
78781W        W45212  32.119  25.488   2.988
78782W        W45213  14.327  22.927  11.102
78783W        W45214  44.080  22.623  13.752
78784W        W45215   0.488  43.253   0.580
78785W        W45216  34.106  40.874   3.109
78786W        W45217  42.416  10.353   4.708
78787W        W45218  42.904   2.388   4.644
78788W        W45219   4.631   4.400   4.011
78789W        W45220   6.236  20.201  12.408
78790W        W45221  31.870  23.494  11.888
78791W        W45222  37.771  14.287   1.025
78792W        W45223  29.680  37.329  14.123
78793W        W45224  27.932   6.470   9.634
78794W        W45225   8.411  32.677   1.325
78795W        W45226  42.421  43.034  11.618
78796W        W45227  17.561  20.972   2.772
78797W        W45228  27.444  41.364   0.265
78798W        W45229  14.060  11.229  11.738
78799W        W45230  10.729  12.693  12.879
78800W        W45231   7.960  37.645  14.205
78801W        W45232  22.396  31.574  10.649
78802W        W45233  22.716   7.141   0.364
78803W        W45234  19.590  36.319   1.020
78804W        W45235  28.713   2.504  13.552
78805W        W45236  11.262  41.498   2.823
78806W        W45237   3.458  31.528  13.513
78807W        W45238  33.036   5.472   1.165
78808W        W45239  21.265  34.930   4.198
78809W        W45240   7.679  32.121   3.393
78810W        W45241  35.635  33.915  11.278
78811W        W45242   5.473  37.072   1.783
78812W        W45243  11.387  23.970   3.152
78813W        W45244  11.160  15.067   4.563
78814W        W45245   2.730   6.954   0.310
78815W        W45246   4.016  39.234   2.410
78816W        W45247   0.615  41.093  11.984
78817W        W45248  34.920  20.166  12.091
78818W        W45249  12.222  26.166  13.060
78819W        W45250  19.715  33.586   0.001
78820W        W45251  33.978  26.268  14.377
78821W        W45252  22.182   8.228   3.906
78822W        W45253  23.458  17.177  10.313
78823W        W45254   5.004  39.314  12.088
78824W        W45255  30.922  32.080  10.739
78825W        W45256   7.010   7.381   0.387
78826W        W45257  18.529  13.669   1.435
78827W        W45258  23.274  18.311  11.937
78828W        W45259  43.048  41.982  13.948
78829W        W45260  15.846  26.508  13.279
78830W        W45261  22.348  12.520  12.984
78831W        W45262  26.555  28.531  11.772
78832W        W45263  25.688   1.326   4.510
78833W        W45264  19.163  13.923  11.224
78834W        W45265  23.612  38.056  11.695
78835W        W45266  37.097  11.259  12.042
78836W        W45267  13.028  42.456   3.284
78837W        W45268   2.214  33.899  12.840
78838W        W45269  22.424  22.171  14.367
78839W        W45270  17.307  43.486   4.167
78840W        W45271  13.290  44.332   3.367
78841W        W45272  44.815  32.099   1.923
78842W        W45273  39.419  31.948  12.070
78843W        W45274  25.264  36.843   4.604
78844W        W45275  18.008   2.713   2.711
78845W        W45276  26.380   0.304  10.633
78846W        W45277  24.482  40.391   1.948
78847W        W45278  27.217  27.538   0.034
78848W        W45279  33.390  37.014   1.401
78849W        W45280  26.579  34.518   5.135
78850W        W45281  15.236  40.283  13.082
78851W        W45282  24.307   5.544  11.172
78852W        W45283  37.594   8.261  12.618
78853W        W45284  18.616  36.016  12.871
78854W        W45285   0.926  16.195   1.856
78855W        W45286  38.223  23.510  14.783
78856W        W45287  17.761  21.565   4.045
78857W        W45288   2.466  32.433  11.464
78858W        W45289  27.699  17.113  10.952
78859W        W45290   4.283   4.512  11.028
78860W        W45291  20.695  33.816   4.931
78861W        W45292  15.863  16.586   3.749
78862W        W45293  38.212  16.593   2.320
78863W        W45294  35.410  29.129  12.385
78864W        W45295  41.776   0.712   4.483
78865W        W45296  21.967  24.930  11.090
78866W        W45297  15.372  42.477  11.444
78867W        W45298  29.922  10.641   0.837
78868W        W45299   0.612   7.291   3.037
78869W        W45300  25.749  20.529   2.690
78870W        W45301  24.083  40.455   3.682
78871W        W45302  12.475  39.757   3.600
78872W        W45303  14.765  19.586  13.302
78873W        W45304   7.285   2.769  14.014
78874W        W45305  42.008  37.368   4.661
78875W        W45306  20.582  26.129  13.601
78876W        W45307  16.561   3.992   3.149
78877W        W45308  26.123   1.409   2.642
78878W        W45309  39.812  42.439  10.724
78879W        W45310  32.180  22.101   3.106
78880W        W45311  34.039  18.774   2.876
78881W        W45312  38.081  20.151  14.875
78882W        W45313  16.831  43.509  13.516
78883W        W45314  39.441   2.260  13.556
78884W        W45315  42.746  15.778   1.767
78885W        W45316   4.210  14.139   1.326
78886W        W45317   7.773   4.775   2.849
78887W        W45318  35.475  23.974   0.274
78888W        W45319  24.962   4.348  14.840
78889W        W45320  10.308  35.586   3.391
78890W        W45321  21.017  42.332  13.387
78891W        W45322  13.345  40.047  11.506
78892W        W45323   9.388  18.214   1.639
78893W        W45324  24.891  39.989   1.856
78894W        W45325  22.933   8.088  13.452
78895W        W45326   0.069  31.986   3.772
78896W        W45327  14.371  28.017   2.372
78897W        W45328  40.588  44.320  10.683
78898W        W45329  22.817  16.136   5.072
78899W        W45330   7.273  13.789  10.724
78900W        W45331  15.697   6.152  13.088
78901W        W45332  33.044  18.258  12.014
78902W        W45333  12.879   2.116  11.581
78903W        W45334  30.460   7.008   0.447
78904W        W45335  11.436  10.177   0.381
78905W        W45336  18.058   3.681  10.654
78906W        W45337  40.038  15.146   0.662
78907W        W45338  17.721  38.592  12.784
78908W        W45339  20.155  44.276  13.494
78909W        W45340   8.957  13.221  14.050
78910W        W45341   5.308  28.901  14.433
78911W        W45342  40.831  32.559   3.535
78912W        W45343  20.651  41.009  13.340
78913W        W45344  19.190  42.656   3.227
78914W        W45345  39.287  32.622   4.869
78915W        W45346  38.318  37.020   4.071
78916W        W45347  27.049  38.384  14.026
78917W        W45348  20.772  23.522  11.484
78918W        W45349  16.197  34.969   3.342
78919W        W45350  28.984  39.094  14.020
78920W        W45351   8.737  24.881  14.922
78921W        W45352   4.715   7.647   4.677
78922W        W45353  43.661   4.010  12.898
78923W        W45354  37.918  28.060   1.784
78924W        W45355   4.027  37.292  12.456
78925W        W45356  32.126  39.393   3.413
78926W        W45357  11.776  34.877  13.731
78927W        W45358  28.624   1.124   2.846
78928W        W45359  15.085   8.705   2.295
78929W        W45360  31.208  12.637   1.023
78930W        W45361  38.428  35.772  12.797
78931W        W45362   0.758  16.357   4.511
78932W        W45363  34.170  22.844  11.621
78933W        W45364  29.105  15.028   1.750
78934W        W45365  42.112   3.040   1.817
78935W        W45366  13.377  11.717  10.599
78936W        W45367   4.389   3.474  12.090
78937W        W45368  26.852  37.754   1.256
78938W        W45369   5.975  21.541   0.701
78939W        W45370  13.452   5.648   1.415
78940W        W45371  39.086  16.561   1.220
78941W        W45372  16.207  41.174  14.966
78942W        W45373  13.532  11.344  11.358
78943W        W45374   8.278  12.363  12.253
78944W        W45375  14.328  17.554  13.977
78945W        W45376  41.546  25.733  14.444
78946W        W45377  34.690  33.107  10.941
78947W        W45378  32.430  36.170   4.573
78948W        W45379  34.907  44.607   4.022
78949W        W45380  18.626  39.027  12.580
78950W        W45381   0.716  15.367  12.097
78951W        W45382  30.061  44.976   0.262
78952W        W45383  34.097   4.743   3.534
78953W        W45384   5.280  20.261  13.849
78954W        W45385   1.552  15.096  13.003
78955W        W45386  31.113  22.509   0.772
78956W        W45387  38.102  14.284  14.324
78957W        W45388  33.825  15.862   2.715
78958W        W45389  13.275  27.981  12.176
78959W        W45390  43.818   0.449   2.057
78960W        W45391  30.901  24.235   2.757
78961W        W45392   6.935  34.949  10.718
78962W        W45393   9.087  32.320  13.869
78963W        W45394  43.161  10.066  12.424
78964W        W45395   7.560   5.366  13.444
78965W        W45396  14.144  35.492   3.548
78966W        W45397  20.606  26.159   4.849
78967W        W45398  29.210  21.175   4.854
78968W        W45399   7.582   2.372  12.072
78969W        W45400  11.853  17.229   1.256
78970W        W45401  35.035  12.573  13.818
78971W        W45402  37.398  30.962  14.038
78972W        W45403  21.159  26.513  13.240
78973W        W45404  33.855   1.864   1.201
78974W        W45405  44.197   9.634   2.709
78975W        W45406  37.148  31.001  10.765
78976W        W45407  39.346  16.499  12.405
78977W        W45408   4.677  10.650  11.188
78978W        W45409  37.306  19.360  13.817
78979W        W45410   9.308  15.703  12.918
78980W        W45411  11.680  28.188   3.050
78981W        W45412  30.307  29.967  10.641
78982W        W45413  33.588  40.780   0.202
78983W        W45414  11.039   2.249  14.956
78984W        W45415  15.206  26.114  10.808
78985W        W45416  23.608  38.847   2.321
78986W        W45417  38.454  11.253  11.677
78987W        W45418  14.701  14.122  12.423
78988W        W45419  19.916   6.756   1.978
78989W        W45420  39.805  36.610  11.926
78990W        W45421  43.271  26.480  11.511
78991W        W45422  23.616  37.852  10.765
78992W        W45423   5.624  29.965   2.959
78993W        W45424  43.419  32.952  12.931
78994W        W45425  28.679  14.102  12.173
78995W        W45426  43.342  24.067   0.125
78996W        W45427  14.695  44.429   0.818
78997W        W45428  16.130  29.454   0.769
78998W        W45429  22.112  19.238   2.632
78999W        W45430  22.180  16.436  12.225
79000W        W45431  28.630   3.663  12.778
79001W        W45432  31.654  36.461   2.243
79002W        W45433  42.711  12.117  11.655
79003W        W45434  17.789  40.334  14.474
79004W        W45435   9.874   8.098   0.828
79005W        W45436   3.883  18.169   1.883
79006W        W45437  30.651  22.261  12.477
79007W        W45438  19.095  25.665  13.970
79008W        W45439  15.073   1.848  11.969
79009W        W45440  11.130   6.209   1.240
79010W        W45441  38.442  35.789   2.878
79011W        W45442   3.360  14.023   1.702
79012W        W45443  44.404  42.556   3.868
79013W        W45444  41.390  25.886  11.136
79014W        W45445  10.221  13.714   3.683
79015W        W45446  40.759  13.340   0.230
79016W        W45447  32.229  20.778   4.901
79017W        W45448  40.816  42.727  11.448
79018W        W45449   5.712  10.896  14.031
79019W        W45450  12.422  44.543   0.454
79020W        W45451  40.240  32.229  10.817
79021W        W45452  14.932   3.398   2.787
79022W        W45453   5.416  29.045  13.947
79023W        W45454  18.020  39.389   4.085
79024W        W45455  37.876  11.664  13.341
79025W        W45456  35.011   1.645  10.705
79026W        W45457  41.932   3.674   3.201
79027W        W45458  34.548  18.858   3.039
79028W        W45459  21.169  17.247   0.724
79029W        W45460  21.026  30.285   5.505
79030W        W45461  32.579   4.584   3.210
79031W        W45462  34.656  12.136  12.885
79032W        W45463   4.780  13.931  13.635
79033W        W45464  10.717  34.618   1.265
79034W        W45465  24.509  41.982   1.739
79035W        W45466  38.263  11.238   3.333
79036W        W45467  42.106  25.628  10.680
79037W        W45468  16.147  38.494  10.507
79038W        W45469  41.288  15.896   3.294
79039W        W45470  35.016  13.383  14.919
79040W        W45471  36.908  30.909   0.720
79041W        W45472  17.107   2.557   1.334
79042W        W45473   6.425  18.054  11.224
79043W        W45474  34.927  17.098  10.639
79044W        W45475  42.545   2.524  14.004
79045W        W45476  39.353  42.818  12.599
79046W        W45477  13.862   0.438  12.072
79047W        W45478  44.499  43.858   1.411
79048W        W45479  23.282  26.151   2.852
79049W        W45480  27.046  14.610  14.264
79050W        W45481  42.144  24.953  13.913
79051W        W45482  43.076  17.601  14.881
79052W        W45483  37.982  22.695  12.035
79053W        W45484  26.991  41.155   4.968
79054W        W45485  37.063   1.761  13.864
79055W        W45486  39.032  16.794  10.738
79056W        W45487   9.888  37.573   4.545
79057W        W45488   2.678  38.556   3.217
79058W        W45489  44.706   7.488  12.102
79059W        W45490  22.356  38.267   2.831
79060W        W45491  17.612  21.037  14.574
79061W        W45492  25.271  11.412  14.499
79062W        W45493  18.179  23.049   1.280
79063W        W45494  36.504  36.004  10.671
79064W        W45495  10.118  36.885   3.169
79065W        W45496  28.393  21.195  12.072
79066W        W45497  35.366  12.677  11.157
79067W        W45498  22.149  33.380   0.644
79068W        W45499  44.369  33.006  10.740
79069W        W45500  35.849  12.669   1.286
79070W        W45501  22.230   3.885   0.660
79071W        W45502  38.810  41.491  11.278
79072W        W45503  20.789  37.993  10.800
79073W        W45504   2.731  22.211  14.110
79074W        W45505   3.454  18.251   3.222
79075W        W45506  29.506  37.450  11.172
79076W        W45507  26.426  44.869  13.387
79077W        W45508  28.085  40.572  11.646
79078W        W45509   1.910  27.033   3.536
79079W        W45510  13.950  33.440  14.746
79080W        W45511  19.706  38.971   3.796
79081W        W45512  31.503   7.693   1.765
79082W        W45513  41.377  33.101  14.501
79083W        W45514  42.607  32.649  12.870
79084W        W45515  27.997  25.951   4.610
79085W        W45516   8.260  25.078   0.731
79086W        W45517  20.180  21.991  13.487
79087W        W45518  35.308  24.570   3.584
79088W        W45519   7.312   1.507   3.753
79089W        W45520  32.669  42.709  11.173
79090W        W45521  37.748   4.884   4.660
79091W        W45522  43.948  44.702  11.607
79092W        W45523  38.574  32.609  11.113
79093W        W45524  25.421  35.602  13.541
79094W        W45525  22.301  23.076  13.909
79095W        W45526  22.816  25.451   0.835
79096W        W45527   8.249  12.842   0.165
79097W        W45528  26.983  32.068   2.830
79098W        W45529  39.950   4.408   4.685
79099W        W45530  41.094  41.813  14.623
79100W        W45531  23.952   7.074   3.664
79101W        W45532  18.816  27.150   1.372
79102W        W45533  21.232   5.778  12.151
79103W        W45534  22.698  24.023   4.501
79104W        W45535  32.858  17.290   4.722
79105W        W45536  15.638   3.379   1.906
79106W        W45537  34.614  26.060  13.874
79107W        W45538  43.012  10.739  13.506
79108W        W45539  29.710   0.067  12.787
79109W        W45540   4.903  19.668  14.363
79110W        W45541   3.207  24.483   1.867
79111W        W45542  18.074  40.882   0.529
79112W        W45543  10.171   7.759  11.164
79113W        W45544   7.601   7.849  13.114
79114W        W45545  39.372  19.450  14.026
79115W        W45546  19.818  37.427  10.561
79116W        W45547  39.334  28.218  11.991
79117W        W45548  29.693   8.361   4.499
79118W        W45549  19.762   6.664  12.017
79119W        W45550  22.994  21.647   3.825
79120W        W45551  34.105   3.897   2.279
79121W        W45552  27.953  14.173  13.448
79122W        W45553  27.698  12.553  12.043
79123W        W45554   8.348  17.766   5.212
79124W        W45555  31.041  25.946   0.018
79125W        W45556  11.287  16.092   2.148
79126W        W45557  29.734  20.528   4.199
79127W        W45558  24.752  36.664   1.888
79128W        W45559  42.137  10.722   3.882
79129W        W45560  18.729   1.493   0.951
79130W        W45561  31.408   8.560  14.439
79131W        W45562  25.235  20.701  13.590
79132W        W45563  36.115  19.358  13.005
79133W        W45564   0.450  35.373   1.727
79134W        W45565  31.435  43.521   4.590
79135W        W45566  43.799  41.368   0.398
79136W        W45567  21.484  28.616   2.433
79137W        W45568  36.760  38.166   2.811
79138W        W45569  17.098   5.438   4.504
79139W        W45570  17.366   0.901   1.788
79140W        W45571  27.682  41.649  11.074
79141W        W45572  31.099   5.278   3.157
79142W        W45573   4.358  31.847  13.433
79143W        W45574  12.830  30.109  12.489
79144W        W45575   1.333  35.028   2.646
79145W        W45576  33.649  37.143  13.284
79146W        W45577   0.305   8.153   1.720
79147W        W45578  32.909  19.723   2.268
79148W        W45579  18.231  42.577  13.916
79149W        W45580  11.822  14.567   3.512
79150W        W45581  23.958  39.295   3.184
79151W        W45582   2.345   3.299  10.736
79152W        W45583  22.177  26.074  13.422
79153W        W45584   4.040  17.529   9.788
79154W        W45585  12.049  25.091  12.512
79155W        W45586  13.278  38.462   3.126
79156W        W45587  16.239   5.810  12.506
79157W        W45588  42.403  31.395  11.222
79158W        W45589  44.411  15.852   0.346
79159W        W45590  15.557  20.849  10.321
79160W        W45591  38.769  19.164   2.280
79161W        W45592  16.965  12.957   0.093
79162W        W45593   7.097  17.122  12.461
79163W        W45594  15.190   2.360   3.603
79164W        W45595  11.775   9.462  13.475
79165W        W45596  27.467  37.929   1.921
79166W        W45597  25.046  25.722  14.363
79167W        W45598  16.117  19.120  14.437
79168W        W45599  37.103  29.137   0.061
79169W        W45600  44.461  16.842  12.484
79170W        W45601   8.151  25.277   2.245
79171W        W45602  11.408   0.043  11.713
79172W        W45603  15.966  41.311  12.566
79173W        W45604  33.947   3.310  11.087
79174W        W45605  32.081  30.899  12.543
79175W        W45606   4.725  17.496  12.632
79176W        W45607   4.756  17.697   4.036
79177W        W45608  40.584  42.431  12.058
79178W        W45609  44.514  23.626   0.763
79179W        W45610  13.843  38.148  12.078
79180W        W45611  16.651  40.372   1.298
79181W        W45612   4.466  29.140  11.975
79182W        W45613   0.502   9.403  11.059
79183W        W45614   1.827  39.980  13.320
79184W        W45615  24.505   7.722   0.036
79185W        W45616  15.168  33.546   1.228
79186W        W45617   7.177  12.763  11.479
79187W        W45618  12.782   1.214  13.501
79188W        W45619   8.986  14.577   3.524
79189W        W45620  42.820  43.540   2.205
79190W        W45621  15.125  31.412  12.522
79191W        W45622  25.135   5.391  13.788
79192W        W45623  13.582  41.257   1.287
79193W        W45624  31.081  44.560  10.628
79194W        W45625  35.034  39.355   0.923
79195W        W45626  13.581  43.325  12.934
79196W        W45627  27.658  44.839  10.753
79197W        W45628  12.430   5.867  14.923
79198W        W45629   0.850  11.337   4.625
79199W        W45630  20.160  18.552   3.751
79200W        W45631  42.422  20.144  13.785
79201W        W45632  44.273  40.799   1.773
79202W        W45633  23.150   1.938   3.282
79203W        W45634  29.162   8.423  11.176
79204W        W45635  37.435  38.038  14.995
79205W        W45636   0.317   9.389  14.489
79206W        W45637  19.973   3.986   4.148
79207W        W45638   5.880  40.653  14.244
79208W        W45639   6.445  18.973  11.167
79209W        W45640   6.409  12.106  14.901
79210W        W45641   9.867  18.557   1.885
79211W        W45642  39.400  39.404  12.245
79212W        W45643  22.058   1.926  12.356
79213W        W45644  25.313  26.582   9.951
79214W        W45645  14.648  39.541  11.207
79215W        W45646  18.578  42.730   2.245
79216W        W45647  16.286  17.788   2.321
79217W        W45648  15.603   6.490  14.868
79218W        W45649  43.284  12.208  14.575
79219W        W45650  11.619   1.761   3.146
79220W        W45651  32.995  25.047  10.542
79221W        W45652   3.840  24.688   4.453
79222W        W45653  43.295  42.528   4.209
79223W        W45654   1.997  17.142   0.957
79224W        W45655  25.626  16.672  13.419
79225W        W45656  30.077  40.912  10.571
79226W        W45657  31.167  42.354   3.262
79227W        W45658  11.352   4.296  11.999
79228W        W45659  27.706  35.532   0.874
79229W        W45660  32.134   8.297  14.578
79230W        W45661  44.324  38.963  12.239
79231W        W45662  14.834   9.833   0.441
79232W        W45663   9.286  37.699  14.376
79233W        W45664   0.357  37.906  12.194
79234W        W45665  43.956   9.246   0.260
79235W        W45666   9.374  17.271   1.199
79236W        W45667  33.098  34.146   0.419
79237W        W45668  19.568   3.689   5.334
79238W        W45669  39.357  13.334  12.093
79239W        W45670  13.345   8.118   1.206
79240W        W45671  18.828  33.426  12.473
79241W        W45672  35.359  41.731   1.745
79242W        W45673   8.398  26.179   2.188
79243W        W45674  44.442  11.671  14.876
79244W        W45675   6.402  36.234   2.776
79245W        W45676  32.048  42.672  10.705
79246W        W45677  41.411  44.840   4.499
79247W        W45678  39.820   3.707   1.565
79248W        W45679   5.147  22.209  13.993
79249W        W45680  35.161  31.439   0.385
79250W        W45681  28.217  32.071  13.824
79251W        W45682  17.782  39.087  12.915
79252W        W45683  35.717   5.263   2.257
79253W        W45684  42.586  30.893   3.603
79254W        W45685  25.550  22.790   5.428
79255W        W45686  21.008  11.352  13.905
79256W        W45687  11.394  13.052  12.425
79257W        W45688  37.147  36.355   3.870
79258W        W45689  15.002  31.959   1.020
79259W        W45690  35.350  15.289  10.967
79260W        W45691  43.347  38.936  14.380
79261W        W45692  21.668  22.622   4.077
79262W        W45693   7.625  43.479   0.065
79263W        W45694  19.958  15.093   3.550
79264W        W45695  10.933  25.235   0.198
79265W        W45696  30.592  31.847  13.826
79266W        W45697  17.666  44.882  14.981
79267W        W45698  11.132   4.824  10.787
79268W        W45699  38.541  28.768  12.691
79269W        W45700   7.659  18.609   1.272
79270W        W45701  18.014  43.756   0.872
79271W        W45702  18.232  25.440   3.830
79272W        W45703  23.978  11.112   2.718
79273W        W45704   7.806  29.924   4.645
79274W        W45705  41.360  32.869   0.469
79275W        W45706  28.893  40.525  11.934
79276W        W45707   1.567  31.991   3.565
79277W        W45708  11.363   6.639  12.907
79278W        W45709  12.729  30.427  13.273
79279W        W45710  32.100  37.540   4.203
79280W        W45711  18.958   8.448  11.028
79281W        W45712  12.797  44.704   1.790
79282W        W45713  19.608  34.910   3.561
79283W        W45714   8.726  10.217   0.740
79284W        W45715  29.958  11.274  11.479
79285W        W45716   5.099  11.150   1.157
79286W        W45717   4.389  29.616   3.015
79287W        W45718  42.851  43.719   2.960
79288W        W45719  43.813  35.279  13.518
79289W        W45720  23.798  19.699  13.388
79290W        W45721   5.148   1.367  13.532
79291W        W45722   2.817  10.716   3.340
79292W        W45723   8.445  30.961  12.466
79293W        W45724  27.485  37.425  12.190
79294W        W45725  39.596  28.638   3.615
79295W        W45726  16.162   9.446  13.128
79296W        W45727   0.781  10.713   0.288
79297W        W45728   9.320  28.061   0.429
79298W        W45729  41.927   7.627  10.471
79299W        W45730  21.126  14.657  11.435
79300W        W45731  19.470   3.840  14.034
79301W        W45732  41.142  22.227   3.636
79302W        W45733  17.741  12.011  10.578
79303W        W45734  11.184   4.497   3.903
79304W        W45735  36.336  43.216   2.915
79305W        W45736   6.757  42.571   4.089
79306W        W45737  12.671  11.584  14.999
79307W        W45738   0.042  21.178   3.699
79308W        W45739  11.289  44.853  12.198
79309W        W45740  31.070   7.968   1.666
79310W        W45741  18.170  15.355   1.384
79311W        W45742  35.042  16.200  12.874
79312W        W45743  20.508  42.493  14.304
79313W        W45744  28.710  28.456   4.841
79314W        W45745  21.237  32.199  13.152
79315W        W45746   9.834  23.931  14.852
79316W        W45747  11.888  32.491   3.278
79317W        W45748  32.264  15.248  10.038
79318W        W45749  39.402  39.445   2.141
79319W        W45750  42.708   7.282   4.108
79320W        W45751   0.269  27.900  14.869
79321W        W45752  37.956  10.845   4.176
79322W        W45753   5.778  23.198   3.777
79323W        W45754  30.121   9.005   0.270
79324W        W45755   5.950  31.733   0.575
79325W        W45756  36.122  18.465  13.535
79326W        W45757  38.020  32.875   2.286
79327W        W45758   1.292  25.551  10.615
79328W        W45759  22.750   4.284   2.333
79329W        W45760  37.298   5.689   3.583
79330W        W45761  16.421   2.958   4.559
79331W        W45762  15.009  43.171   1.268
79332W        W45763  22.241   7.349   1.777
79333W        W45764   1.192  12.304   2.723
79334W        W45765  19.568   6.179   4.194
79335W        W45766   8.226  39.744   1.792
79336W        W45767  28.608   8.713  11.182
79337W        W45768  35.295   2.638  12.002
79338W        W45769  37.945   2.920   3.881
79339W        W45770  44.664  40.945   1.416
79340W        W45771   5.254  32.669  13.008
79341W        W45772  34.289   6.776   0.233
79342W        W45773  36.917  25.721   2.201
79343W        W45774  25.725  31.416   2.740
79344W        W45775  43.393  13.241  13.124
79345W        W45776  34.784  11.139  12.039
79346W        W45777   6.420  42.300  13.451
79347W        W45778   6.871  32.406   0.970
79348W        W45779  23.703  40.459   2.843
79349W        W45780  10.390  30.461   1.367
79350W        W45781  11.817  34.125  14.820
79351W        W45782  44.284  34.612   4.280
79352W        W45783  41.924  25.914   0.056
79353W        W45784  41.872   5.717   4.685
79354W        W45785   8.360  13.345   2.876
79355W        W45786   8.683   6.376   0.749
79356W        W45787   5.366   8.420   0.719
79357W        W45788  36.063  37.326  13.607
79358W        W45789  13.729  20.909   1.388
79359W        W45790  10.130  18.259   0.776
79360W        W45791  44.725  37.639  13.806
79361W        W45792  16.330  15.114   2.695
79362W        W45793  30.756  38.024  11.485
79363W        W45794  20.123  21.679  12.146
79364W        W45795  41.365  37.477   2.690
79365W        W45796  28.242  26.371  11.451
79366W        W45797  16.081   3.791  14.804
79367W        W45798  43.723  30.027   4.434
79368W        W45799  22.211  25.984   4.181
79369W        W45800   1.946  34.884  12.567
79370W        W45801  15.805  18.106  11.635
79371W        W45802  16.182   6.263   3.172
79372W        W45803  35.336  32.928   2.066
79373W        W45804  26.400  35.125   3.482
79374W        W45805  11.904   2.708   2.345
79375W        W45806  19.244  22.586   1.944
79376W        W45807  36.966  25.344  10.339
79377W        W45808   2.345  42.114  13.072
79378W        W45809  11.798  33.936   1.131
79379W        W45810  17.737  38.573  13.317
79380W        W45811   3.716   2.938  14.540
79381W        W45812  23.303  32.388  11.621
79382W        W45813  43.751  35.818   2.966
79383W        W45814  28.631  16.968  10.818
79384W        W45815  29.433  39.407  14.024
79385W        W45816  16.042  13.557   5.372
79386W        W45817   3.298  33.851   3.268
79387W        W45818  42.219   9.215  12.098
79388W        W45819   5.716   4.797  12.432
79389W        W45820   6.468  27.950   3.275
79390W        W45821  35.133  14.519   3.872
79391W        W45822   4.994  22.779   0.362
79392W        W45823   4.885  18.201  14.761
79393W        W45824  38.460   6.869   3.716
79394W        W45825  40.810  37.551   4.304
79395W        W45826  14.272  15.544   0.882
79396W        W45827  21.237   4.892  12.208
79397W        W45828  35.266  15.237  11.459
79398W        W45829   4.316  19.335  10.265
79399W        W45830  30.032  38.107   4.418
79400W        W45831  30.825  30.234  11.139
79401W        W45832  22.701   9.150   2.442
79402W        W45833   6.242  30.234   0.369
79403W        W45834  13.655  30.043  14.038
79404W        W45835  34.365  39.310   4.975
79405W        W45836  27.714   1.962   1.806
79406W        W45837  38.821  20.972  13.658
79407W        W45838  18.913  13.701  10.095
79408W        W45839  42.389   8.280  14.018
79409W        W45840   2.979  32.424  11.384
79410W        W45841  11.895  23.161  13.612
79411W        W45842  26.697   3.980   4.185
79412W        W45843  19.230  41.328  12.347
79413W        W45844  29.738  42.074   2.821
79414W        W45845   0.645   0.815   0.840
79415W        W45846   9.577  18.775   2.366
79416W        W45847  33.815  27.919   3.729
79417W        W45848  23.781  27.972  14.354
79418W        W45849  13.246  10.334  14.964
79419W        W45850  10.693  40.785   0.237
79420W        W45851  42.092  34.049   3.937
79421W        W45852  40.915  13.863  13.460
79422W        W45853  37.287  20.721  11.696
79423W        W45854  31.123  30.363   4.173
79424W        W45855  12.420  29.221  11.155
79425W        W45856  21.613  41.493   4.003
79426W        W45857   9.318  21.193  13.033
79427W        W45858   4.791  44.380   9.865
79428W        W45859  33.932  44.933   2.542
79429W        W45860  44.912  41.429   1.431
79430W        W45861  42.368  42.437   1.697
79431W        W45862  17.826   3.250   1.328
79432W        W45863  11.294  10.797  11.295
79433W        W45864   2.554  31.860   2.739
79434W        W45865   5.138   3.998   0.971
79435W        W45866  35.306  33.093  14.888
79436W        W45867  29.535   7.831   0.022
79437W        W45868   5.377  34.242  13.936
79438W        W45869  16.596   7.711   2.191
79439W        W45870  37.545  40.530   2.676
79440W        W45871   6.907  29.083   2.702
79441W        W45872  35.372  26.611   0.264
79442W        W45873  16.746  35.535  12.723
79443W        W45874  10.645   6.702   2.744
79444W        W45875   1.041  14.593   0.183
79445W        W45876  14.593  34.810   2.642
79446W        W45877  13.157   4.383  13.820
79447W        W45878  41.879  30.876   4.691
79448W        W45879   0.578   3.692   0.413
79449W        W45880   6.798  17.789  14.914
79450W        W45881  40.895  25.593   3.175
79451W        W45882  15.712  11.583   0.755
79452W        W45883   5.265  41.427  12.569
79453W        W45884  12.337  11.583   2.878
79454W        W45885  40.107  10.702   3.933
79455W        W45886  38.022   1.262   0.848
79456W        W45887  14.436  27.338  12.630
79457W        W45888  43.308  20.250  14.032
79458W        W45889  25.691  43.200   4.792
79459W        W45890  40.476   9.198   1.638
79460W        W45891   8.006  11.611  12.888
79461W        W45892  25.598  21.700   1.392
79462W        W45893  16.587  39.343   2.598
79463W        W45894   6.898  28.007   1.764
79464W        W45895  29.369   8.246  14.288
79465W        W45896  40.406  39.856  12.868
79466W        W45897  11.383  11.917  13.310
79467W        W45898  33.906  12.421  12.138
79468W        W45899  10.077  21.628   1.054
79469W        W45900   3.351  13.608  11.473
79470W        W45901  21.112  16.757   2.748
79471W        W45902  10.399   9.136   1.815
79472W        W45903  13.583   7.712   1.740
79473W        W45904  32.714  14.915   0.264
79474W        W45905  37.923  43.061  10.310
79475W        W45906  27.147   2.553   0.991
79476W        W45907  42.105  38.000   4.517
79477W        W45908  16.435   1.454  12.943
79478W        W45909  16.817  31.239  14.943
79479W        W45910  24.271  10.299  14.251
79480W        W45911   2.125  29.356   4.506
79481W        W45912  13.665  43.273  13.455
79482W        W45913  31.232   7.072  10.267
79483W        W45914  17.058   8.698   3.579
79484W        W45915  28.875   1.672  14.841
79485W        W45916  26.048  25.279   0.760
79486W        W45917  40.388  28.903   4.861
79487W        W45918  26.626  30.429  10.190
79488W        W45919  42.895  19.823   0.453
79489W        W45920  18.985  10.769  10.259
79490W        W45921  39.036  10.774  11.061
79491W        W45922  19.312  42.043   4.061
79492W        W45923  18.577  25.549  13.951
79493W        W45924  30.986  14.056   5.006
79494W        W45925  26.107   2.390  12.283
79495W        W45926   9.820  15.293  10.696
79496W        W45927  38.425   7.202   2.091
79497W        W45928  16.105  10.332   0.409
79498W        W45929  29.638  26.422  12.862
79499W        W45930  30.520  11.174   1.511
79500W        W45931  39.177  39.167  11.242
79501W        W45932  40.181  39.289   2.636
79502W        W45933  17.415  23.742   9.823
79503W        W45934  10.515   8.918  13.436
79504W        W45935  41.578  14.273  14.570
79505W        W45936   1.083  29.185  14.133
79506W        W45937  29.351  18.973  11.158
79507W        W45938  33.415  20.557   0.321
79508W        W45939  31.989  16.246  14.512
79509W        W45940   4.907  25.495   3.909
79510W        W45941   7.205   5.027   4.095
79511W        W45942  37.506   5.894  10.685
79512W        W45943  12.310  10.954  14.774
79513W        W45944  25.433  17.759   0.399
79514W        W45945  19.606  44.427   2.733
79515W        W45946  43.916  13.129   3.353
79516W        W45947  24.209  34.065   3.180
79517W        W45948   6.031  40.435   1.825
79518W        W45949   9.916  42.316  13.403
79519W        W45950  11.879  35.518   3.245
79520W        W45951  14.091  18.414  14.514
79521W        W45952  35.370   6.701   3.614
79522W        W45953  11.917   1.869  10.662
79523W        W45954  25.137  33.692  12.127
79524W        W45955  13.232  43.047  13.950
79525W        W45956  12.327  40.884   4.069
79526W        W45957  21.452  42.455   2.424
79527W        W45958  41.049  40.795   4.145
79528W        W45959  12.713   2.480   0.997
79529W        W45960  25.532  40.497  13.115
79530W        W45961  16.068   9.402   4.347
79531W        W45962  18.117  35.822  13.636
79532W        W45963  14.404   2.791  11.250
79533W        W45964  11.432   7.729  10.697
79534W        W45965  27.848   2.754   0.032
79535W        W45966  29.393   3.662  14.780
79536W        W45967  11.686  15.734   2.219
79537W        W45968  17.269  11.080   3.674
79538W        W45969  30.924   2.831  11.638
79539W        W45970  31.225   8.649  10.789
79540W        W45971  13.790  34.538   2.220
79541W        W45972  32.146  38.091   3.241
79542W        W45973  14.109   6.091  11.658
79543W        W45974  28.666  10.483   1.792
79544W        W45975   5.990  40.985   0.482
79545W        W45976   1.216  15.936  13.947
79546W        W45977  20.557   6.245  12.642
79547W        W45978  37.092   9.280  12.521
79548W        W45979  27.502  22.081  12.575
79549W        W45980  23.163  44.390  11.242
79550W        W45981  22.698   1.707   3.157
79551W        W45982   8.121   7.992   2.839
79552W        W45983  27.177  36.047  13.016
79553W        W45984  30.419  12.365   3.850
79554W        W45985  18.047  42.640   2.760
79555W        W45986  22.439  18.783   0.248
79556W        W45987   3.440  15.552  12.463
79557W        W45988   7.164   4.441  13.266
79558W        W45989   6.468  37.378   0.252
79559W        W45990  32.892   8.427   0.549
79560W        W45991  16.924  41.518  12.411
79561W        W45992  37.173  26.944   0.161
79562W        W45993  27.425  36.791  14.861
79563W        W45994  27.727  25.633   4.927
79564W        W45995  43.235  41.660   1.283
79565W        W45996   1.504  34.152  14.867
79566W        W45997  13.671  16.355   0.783
79567W        W45998  41.866  44.536   4.466
79568W        W45999   5.062  13.676  10.253
79569W        W46000   5.959  38.269   2.698
79570W        W46001  11.216   4.475   3.282
79571W        W46002  22.508   5.766   1.759
79572W        W46003  22.778   2.646   4.800
79573W        W46004  39.055  14.222   1.686
79574W        W46005   3.344  44.397  12.995
79575W        W46006  25.773  26.184  12.464
79576W        W46007  22.049   5.011  10.456
79577W        W46008  36.699   7.049  10.144
79578W        W46009  28.533  12.082   2.718
79579W        W46010  19.699  34.508  12.101
79580W        W46011  26.194   7.105   0.667
79581W        W46012  41.698   2.909   5.106
79582W        W46013  39.020  40.369  12.479
79583W        W46014  34.996  14.708   0.872
79584W        W46015  26.301  11.853  10.679
79585W        W46016  25.206  44.000  10.446
79586W        W46017   1.986   8.355   0.361
79587W        W46018  28.239  39.252   0.773
79588W        W46019  17.540  11.393  14.729
79589W        W46020  32.390  27.561   2.074
79590W        W46021  34.665   2.104  14.601
79591W        W46022  14.411  13.560  14.489
79592W        W46023  38.955  19.721   1.066
79593W        W46024  13.357  19.099  13.620
79594W        W46025   1.002   0.581   3.958
79595W        W46026  43.876  31.585   0.023
79596W        W46027  14.268   7.697   2.383
79597W        W46028  16.357  11.707  13.048
79598W        W46029   9.898   9.894   1.948
79599W        W46030  36.115  16.227   0.747
79600W        W46031  23.226  40.236  14.981
79601W        W46032   8.783  44.543   1.763
79602W        W46033   3.995  22.745   1.184
79603W        W46034  38.999   6.559   4.183
79604W        W46035  44.675  14.867  12.338
79605W        W46036  42.131  31.539   1.218
79606W        W46037  34.962   6.796  13.833
79607W        W46038  42.717  30.580  12.535
79608W        W46039  44.788  32.964   2.360
79609W        W46040  39.035  23.495  13.076
79610W        W46041   1.124   6.495   0.330
79611W        W46042   7.347  37.535  11.028
79612W        W46043  37.141  36.664   4.650
79613W        W46044  18.890  28.828   3.352
79614W        W46045  25.405   2.516   2.975
79615W        W46046   3.425  11.533   0.032
79616W        W46047   0.395  38.340   3.300
79617W        W46048   2.830  12.730   4.219
79618W        W46049  14.412   6.876   0.368
79619W        W46050  21.013  21.080   2.200
79620W        W46051   6.379   9.170  14.458
79621W        W46052  28.129  14.615   4.690
79622W        W46053  10.394  39.922  14.460
79623W        W46054  37.360   3.782  12.080
79624W        W46055  16.086  13.754   9.775
79625W        W46056   0.352  27.394  11.512
79626W        W46057  40.138   4.741   0.986
79627W        W46058   7.180  27.416   4.161
79628W        W46059   0.573  44.363  12.642
79629W        W46060  15.080   6.833   2.620
79630W        W46061  17.563  42.667  10.934
79631W        W46062  40.599  15.813  14.747
79632W        W46063   6.485  33.419  10.760
79633W        W46064   5.615  14.533  11.783
79634W        W46065  40.407  11.616  14.865
79635W        W46066   1.717  37.967  12.062
79636W        W46067   1.838  24.029  13.022
79637W        W46068  38.090  15.128  12.829
79638W        W46069  21.583  42.006  11.306
79639W        W46070  32.201  28.613   3.761
79640W        W46071  36.122  30.098   1.269
79641W        W46072  40.526  24.170   0.477
79642W        W46073  26.564  44.557   3.319
79643W        W46074  42.168  13.838  10.822
79644W        W46075  17.696  25.060  14.863
79645W        W46076  30.645  12.726  14.139
79646W        W46077  23.267  34.113   4.620
79647W        W46078  38.864  41.050  11.617
79648W        W46079  30.102  14.784   2.563
79649W        W46080  35.539  20.259   2.710
79650W        W46081  10.643   6.708   0.808
79651W        W46082  42.731  22.993   2.363
79652W        W46083  38.609  40.810   1.304
79653W        W46084  14.851  38.918   1.699
79654W        W46085  18.842  18.218  12.038
79655W        W46086   3.210  29.972  12.337
79656W        W46087  17.300  26.628  12.457
79657W        W46088  23.765  26.556   2.770
79658W        W46089  28.671   5.910  12.612
79659W        W46090  16.603  21.052   3.857
79660W        W46091   1.333  27.075  14.931
79661W        W46092   9.320   0.903  13.576
79662W        W46093  32.534   6.473   0.843
79663W        W46094  36.920  31.651   0.167
79664W        W46095  13.728  14.672   0.250
79665W        W46096   6.674  24.785  12.448
79666W        W46097   0.459  28.451   1.976
79667W        W46098  19.600  35.568  14.294
79668W        W46099   6.753  40.567  10.423
79669W        W46100  31.607  15.002   0.863
79670W        W46101  40.083  21.722  10.827
79671W        W46102  39.860   3.377  14.239
79672W        W46103  38.472  36.104  11.293
79673W        W46104  22.174  44.989   2.409
79674W        W46105  27.146  15.794  13.591
79675W        W46106  32.496  39.772   3.166
79676W        W46107  19.721   6.432  13.020
79677W        W46108  37.772  37.092   0.415
79678W        W46109  33.423  20.776  11.578
79679W        W46110  19.377  40.087  13.936
79680W        W46111  12.097  33.224   0.731
79681W        W46112   6.431  37.926  14.375
79682W        W46113  36.582  11.286   4.641
79683W        W46114   8.316   0.961  11.032
79684W        W46115   0.317   6.032   0.101
79685W        W46116  23.581  20.907   2.427
79686W        W46117   2.883  30.898   1.619
79687W        W46118  19.915  23.561  11.174
79688W        W46119  20.801  31.489  11.708
79689W        W46120   2.374  18.980   2.541
79690W        W46121  28.930  23.659  14.517
79691W        W46122  29.721  30.435  13.526
79692W        W46123   6.296   5.006   0.677
79693W        W46124  22.209  18.048   4.403
79694W        W46125  36.028  41.254  11.097
79695W        W46126  20.920  30.305  11.022
79696W        W46127   7.682   1.845  13.279
79697W        W46128  19.100  15.364  12.379
79698W        W46129   7.145  25.958  11.036
79699W        W46130  41.142  27.548  14.304
79700W        W46131  27.688  15.786  14.874
79701W        W46132  26.466  38.793  12.065
79702W        W46133  20.587  29.251  14.342
79703W        W46134   9.912  13.645  14.353
79704W        W46135  34.030  42.076  13.921
79705W        W46136   1.352  20.720   0.529
79706W        W46137  36.543  30.640  13.484
79707W        W46138  40.573   9.277  10.624
79708W        W46139   9.280  35.610   2.472
79709W        W46140  41.270  36.494   2.586
79710W        W46141  10.554  26.980   0.979
79711W        W46142  42.409  43.267   3.268
79712W        W46143  21.092  25.018   3.317
79713W        W46144  30.565   9.268  13.582
79714W        W46145  35.993  16.028  10.712
79715W        W46146  25.612  37.960   1.981
79716W        W46147   1.931   6.907  10.478
79717W        W46148  15.515  33.462  11.960
79718W        W46149  23.929  33.119   3.417
79719W        W46150  35.138   5.337  14.343
79720W        W46151  12.395  10.123   0.967
79721W        W46152  22.155  17.430  11.638
79722W        W46153   1.335   9.848   4.742
79723W        W46154   4.897   8.236   0.036
79724W        W46155  17.231  21.900  13.538
79725W        W46156  43.765  35.246  12.169
79726W        W46157  26.063  23.011  11.861
79727W        W46158  14.266  18.263   2.796
79728W        W46159   5.902  27.429   4.635
79729W        W46160  41.961  32.237  13.368
79730W        W46161   7.447  31.108   1.911
79731W        W46162  38.150  30.653   2.118
79732W        W46163  41.148  13.808   1.200
79733W        W46164  30.766  42.863   4.587
79734W        W46165  22.754  27.529   1.340
79735W        W46166  19.715   8.240  13.357
79736W        W46167  42.668  36.878   1.351
79737W        W46168  21.337  37.963   5.633
79738W        W46169  31.707  38.450   2.320
79739W        W46170  35.585  23.730   2.660
79740W        W46171  24.219   7.574   3.704
79741W        W46172  25.659  34.367   2.299
79742W        W46173   8.358   6.710  11.108
79743W        W46174   8.986  41.812  11.176
79744W        W46175  34.060  30.039  14.940
79745W        W46176  44.016  33.514   1.344
79746W        W46177   9.231  30.819  12.819
79747W        W46178  10.830  29.465  12.565
79748W        W46179  35.460   6.099   4.503
79749W        W46180   9.456  11.644   0.762
79750W        W46181  12.613  17.858  11.158
79751W        W46182   6.277  42.382   0.472
79752W        W46183   6.338  24.379  11.155
79753W        W46184   2.050  12.618   3.557
79754W        W46185  14.767   3.409   3.274
79755W        W46186   3.732  14.205   4.094
79756W        W46187  15.486   4.274   1.760
79757W        W46188  10.732  44.347  14.849
79758W        W46189   9.138   5.703   4.854
79759W        W46190   9.813  27.524   0.735
79760W        W46191  17.827  18.317  11.139
79761W        W46192   2.459  10.879  14.440
79762W        W46193  22.141  20.661  11.220
79763W        W46194   1.961  20.881   1.868
79764W        W46195  36.617  10.296  13.060
79765W        W46196  27.416  15.000   4.310
79766W        W46197  26.095  16.115   4.556
79767W        W46198  14.194  33.574   3.309
79768W        W46199   9.299  19.228   2.659
79769W        W46200  22.986  41.908  14.524
79770W        W46201  32.452   1.348  14.247
79771W        W46202  35.500  43.464  12.960
79772W        W46203  27.583   8.585  12.150
79773W        W46204  33.688  39.200   1.210
79774W        W46205  18.376  32.965   1.197
79775W        W46206  42.872  37.966   4.479
79776W        W46207  26.056  19.943   1.278
79777W        W46208  24.597  29.719   0.074
79778W        W46209   9.159  19.596   2.306
79779W        W46210  35.392  35.668   3.720
79780W        W46211  18.554  30.895   3.113
79781W        W46212  15.250   7.943   1.716
79782W        W46213  31.219  22.028   1.259
79783W        W46214  12.802   9.341   0.222
79784W        W46215  29.016  37.384  10.997
79785W        W46216  34.443  33.565  14.370
79786W        W46217  27.572  16.684  13.840
79787W        W46218  17.256  17.615   1.961
79788W        W46219  25.322  40.502   4.232
79789W        W46220  22.471   8.155  10.087
79790W        W46221   1.026  16.621  13.505
79791W        W46222  17.433  43.856   3.062
79792W        W46223  17.062  30.732  11.702
79793W        W46224  14.802  20.024  11.094
79794W        W46225  30.960  11.886   4.518
79795W        W46226  41.848   5.857  10.631
79796W        W46227  32.066  44.959   1.843
79797W        W46228  28.575   0.819   0.771
79798W        W46229  26.572   3.267   2.802
79799W        W46230   4.769   8.501   1.904
79800W        W46231  25.580  32.070   3.410
79801W        W46232  40.693  42.711  13.771
79802W        W46233  27.078  28.085   4.322
79803W        W46234   7.785  26.593   2.440
79804W        W46235   5.224   6.780  14.449
79805W        W46236  26.307   2.813   3.970
79806W        W46237  17.495  38.880   0.947
79807W        W46238  37.666  26.050   0.320
79808W        W46239  16.758  40.804   0.381
79809W        W46240  32.986  33.426  14.345
79810W        W46241   3.874   1.308  12.176
79811W        W46242  35.162  30.048  12.105
79812W        W46243  23.655  32.498   3.963
79813W        W46244   0.373  19.361  14.610
79814W        W46245  29.692  37.932   0.929
79815W        W46246  12.284  15.043   0.907
79816W        W46247  31.704  33.195  10.811
79817W        W46248   4.776   4.067   0.195
79818W        W46249  12.108  35.859  14.542
79819W        W46250  35.345   4.179  13.536
79820W        W46251  12.170  11.955   9.904
79821W        W46252  29.539  10.423   3.769
79822W        W46253  13.045   7.574   4.825
79823W        W46254   7.805   7.265  12.457
79824W        W46255  24.743  13.733  13.569
79825W        W46256  16.598   3.939   1.227
79826W        W46257  11.369  30.476  10.647
79827W        W46258  43.905  12.087  12.825
79828W        W46259  10.164  32.160   1.949
79829W        W46260   9.125  21.322   2.785
79830W        W46261  41.546  43.490  11.670
79831W        W46262   9.314  42.969   5.077
79832W        W46263  12.061  26.526  13.522
79833W        W46264  22.790  16.618   0.415
79834W        W46265  11.675  33.386  14.226
79835W        W46266  12.721  15.155   4.099
79836W        W46267  16.320  18.961   0.376
79837W        W46268   3.873  39.338   1.465
79838W        W46269  28.113  14.108  11.461
79839W        W46270   3.901  18.111   2.401
79840W        W46271   1.205   0.360   1.323
79841W        W46272  16.650  40.209   2.316
79842W        W46273   2.599   4.345   0.276
79843W        W46274  38.584  10.304  11.880
79844W        W46275  15.344   5.399  14.311
79845W        W46276  31.085  44.844   3.268
79846W        W46277   4.085  15.605   2.703
79847W        W46278  13.324   6.168  12.497
79848W        W46279  29.656  12.459   9.974
79849W        W46280   3.634  43.768  13.447
79850W        W46281  41.833  34.536   3.687
79851W        W46282  39.868  15.527   2.163
79852W        W46283  35.637  31.266   0.441
79853W        W46284  41.560  24.217  12.129
79854W        W46285   0.770  20.127  13.592
79855W        W46286  34.582  23.523  12.334
79856W        W46287   5.174  21.246   3.707
79857W        W46288  17.532  22.982  12.415
79858W        W46289   9.328   7.467   4.154
79859W        W46290   8.500  36.516   1.929
79860W        W46291  36.545  43.234  13.252
79861W        W46292  28.536  10.244  11.539
79862W        W46293   1.268   1.025  13.500
79863W        W46294  33.926  29.034  10.695
79864W        W46295   4.268   2.842   0.194
79865W        W46296  41.480  12.843   3.223
79866W        W46297  25.573  39.593  11.835
79867W        W46298  34.989  30.488   2.923
79868W        W46299  17.255  11.949   4.013
79869W        W46300  30.243  39.935  11.692
79870W        W46301  14.036   9.308   2.255
79871W        W46302  41.398  16.838   0.761
79872W        W46303  44.251  20.894   3.756
79873W        W46304  20.405  38.994  14.877
79874W        W46305   3.191  38.533  14.293
79875W        W46306  21.687  31.465   3.998
79876W        W46307  42.170   5.281   1.194
79877W        W46308   2.840  18.550   4.116
79878W        W46309  41.923   2.722   1.437
79879W        W46310  37.843  33.623  14.866
79880W        W46311  15.662  42.421   1.306
79881W        W46312  25.005   6.323   3.642
79882W        W46313  11.869  10.413  13.833
79883W        W46314  27.120  37.047  14.504
79884W        W46315  34.408  15.705  11.667
79885W        W46316  35.757  26.127   4.766
79886W        W46317  36.105  25.445   2.757
79887W        W46318  33.117  15.739   0.727
79888W        W46319  34.976  34.081  11.973
79889W        W46320  37.295  28.042  10.577
79890W        W46321  39.250  37.272  10.347
79891W        W46322  20.968  16.698  13.639
79892W        W46323  22.258  17.259   3.140
79893W        W46324  16.632  16.876   0.983
79894W        W46325  34.427  34.911  11.091
79895W        W46326  26.544   9.719   4.266
79896W        W46327  34.413   7.837   2.891
79897W        W46328  18.731  39.290   0.079
79898W        W46329  21.043  41.817  12.525
79899W        W46330  21.905  22.827  10.625
79900W        W46331  37.077  29.485   3.630
79901W        W46332  19.891  13.450   3.599
79902W        W46333  16.940  41.523   0.685
79903W        W46334  38.067  26.703   3.115
79904W        W46335   9.108  39.029  14.882
79905W        W46336  12.231  38.070  11.169
79906W        W46337  19.701  26.504   2.174
79907W        W46338  18.559  43.267   3.650
79908W        W46339  34.319  14.744  12.084
79909W        W46340  19.257  37.881   4.119
79910W        W46341   0.977  32.560   0.495
79911W        W46342  40.728  29.963   3.696
79912W        W46343   3.349  19.529   0.371
79913W        W46344  11.187  13.555  13.998
79914W        W46345  43.969  15.829  11.428
79915W        W46346  28.131  39.249  11.246
79916W        W46347   0.966  35.697   1.396
79917W        W46348   2.490   4.345  14.769
79918W        W46349  24.366  22.489   9.725
79919W        W46350  24.600  11.037  14.974
79920W        W46351  26.977   0.536   0.994
79921W        W46352  24.079  38.205   1.032
79922W        W46353  32.324  40.728  13.981
79923W        W46354  34.828  39.510   4.069
79924W        W46355  35.838  19.224  12.505
79925W        W46356   7.242   6.164   3.370
79926W        W46357  42.610  43.346  12.100
79927W        W46358  13.771   0.846  13.860
79928W        W46359  11.768  17.728  11.507
79929W        W46360  40.899  14.393   1.897
79930W        W46361  10.337   8.475  14.289
79931W        W46362  39.784  30.628  13.012
79932W        W46363   3.563   9.236   2.709
79933W        W46364  19.267  35.147   0.304
79934W        W46365  14.828  28.001   3.286
79935W        W46366  37.376   5.410  13.844
79936W        W46367   5.171  18.041  14.364
79937W        W46368  28.531  19.257  11.507
79938W        W46369  11.608   7.205  10.542
79939W        W46370  37.596  42.451   4.760
79940W        W46371  19.655  21.508   1.455
79941W        W46372  40.311  36.854   3.292
79942W        W46373  13.657  22.307   0.309
79943W        W46374   0.311   9.754   4.809
79944W        W46375  22.644  35.696   9.934
79945W        W46376  40.522  32.553   4.578
79946W        W46377  16.911  11.266   3.318
79947W        W46378  43.209  15.404  14.502
79948W        W46379   6.120  41.154   5.022
79949W        W46380  10.519  19.624   3.283
79950W        W46381  26.218  36.944  12.160
79951W        W46382  44.750  11.255   0.824
79952W        W46383  24.059   3.141  11.540
79953W        W46384  43.337  40.528   3.071
79954W        W46385  37.495   8.395   0.508
79955W        W46386  31.001  18.622  13.882
79956W        W46387  29.292  31.732  14.998
79957W        W46388  24.965  43.061  14.896
79958W        W46389  15.435  40.368  12.085
79959W        W46390  16.039   3.346  13.421
79960W        W46391  38.394  44.311   2.311
79961W        W46392  31.964  41.801   2.915
79962W        W46393  18.864  25.037   2.291
79963W        W46394  13.600  18.632  13.764
79964W        W46395  39.433  29.495   1.648
79965W        W46396  14.057  29.793   4.547
79966W        W46397  28.398  33.089  11.548
79967W        W46398  31.069  15.034   0.964
79968W        W46399  19.145  17.979   1.215
79969W        W46400  12.596  40.905  12.185
79970W        W46401  42.306  19.034  12.090
79971W        W46402  38.830   0.744   0.329
79972W        W46403  35.775   1.550   1.830
79973W        W46404   4.109  38.813  13.370
79974W        W46405  26.423  18.921  11.348
79975W        W46406  28.977  32.877   0.382
79976W        W46407  29.861  26.692   4.552
79977W        W46408   2.210   0.052   2.792
79978W        W46409  43.385  14.855  13.869
79979W        W46410  39.888  25.696   2.442
79980W        W46411  24.681  36.863   2.807
79981W        W46412  40.886   6.985   1.149
79982W        W46413  20.603  10.682   3.321
79983W        W46414  28.892  33.070   2.961
79984W        W46415  17.577   7.794   2.268
79985W        W46416   5.341  28.653  10.944
79986W        W46417  34.362  16.705  11.077
79987W        W46418  30.194   4.399   1.820
79988W        W46419  19.304  34.350  12.424
79989W        W46420  17.303  40.201  14.638
79990W        W46421  35.966  43.313   0.412
79991W        W46422   4.886   2.024  13.340
79992W        W46423  39.448  43.400   2.625
79993W        W46424  17.484  27.533   3.453
79994W        W46425  18.337  30.564   1.886
79995W        W46426  16.714  18.668  10.509
79996W        W46427   0.496  38.330   2.179
79997W        W46428  30.533  35.395  14.524
79998W        W46429  39.916  43.405   1.461
79999W        W46430  25.141  19.627   0.481
80000W        W46431  22.310  11.549   2.731
80001W        W46432  24.477  43.074  13.529
80002W        W46433  27.934   8.783   0.256
80003W        W46434  12.175  18.020  14.357
80004W        W46435   4.192  36.315  14.779
80005W        W46436  36.428  21.954  12.111
80006W        W46437   5.340  43.087   0.964
80007W        W46438  10.402   2.407  13.912
80008W        W46439  33.070  34.416  10.597
80009W        W46440  39.079  16.921   0.778
80010W        W46441  20.678  22.779   3.534
80011W        W46442   1.767  16.710  14.127
80012W        W46443   3.494  15.761  10.275
80013W        W46444   2.354   7.172  12.484
80014W        W46445   4.228  22.952  13.925
80015W        W46446  15.610  27.521   3.511
80016W        W46447  23.134  33.100   4.577
80017W        W46448  34.909  10.864   3.316
80018W        W46449  21.020  33.822   2.192
80019W        W46450  44.658   2.637  14.108
80020W        W46451  42.604  34.536  13.443
80021W        W46452  40.414  37.807  14.102
80022W        W46453  23.723  18.330  12.500
80023W        W46454  18.753  19.664  11.913
80024W        W46455   3.860  18.727   1.369
80025W        W46456   7.953  16.083   0.779
80026W        W46457  25.070  34.127   3.601
80027W        W46458  11.169  29.204  11.410
80028W        W46459  43.194   8.962  12.101
80029W        W46460   0.217  22.636   3.081
80030W        W46461  33.947  24.972  13.381
80031W        W46462   7.256  23.655   3.332
80032W        W46463   0.372   5.102  12.605
80033W        W46464  10.848  40.812   2.759
80034W        W46465  43.809  28.279  14.819
80035W        W46466  39.244  43.647   3.181
80036W        W46467  10.356  38.124  11.299
80037W        W46468   0.977   3.956   0.550
80038W        W46469  32.096  29.715  10.707
80039W        W46470  39.011   6.150  10.511
80040W        W46471  35.852   1.866   0.919
80041W        W46472  10.581   9.320  11.227
80042W        W46473  15.822   1.821  11.183
80043W        W46474   7.170   6.387   0.762
80044W        W46475   8.114  32.256  11.085
80045W        W46476  41.501  10.393   4.721
80046W        W46477  44.997  23.515  14.426
80047W        W46478  27.434  16.060   2.322
80048W        W46479  39.400   1.782  13.752
80049W        W46480  43.530  34.118  11.893
80050W        W46481   9.752   7.170   4.143
80051W        W46482   7.407  29.154  11.621
80052W        W46483  40.993  39.069  14.748
80053W        W46484  28.176   0.475   4.537
80054W        W46485  42.452   2.807   4.087
80055W        W46486   9.267  33.688   2.879
80056W        W46487   1.626  10.502  11.831
80057W        W46488  11.394  34.536   2.732
80058W        W46489  12.857  19.291  14.889
80059W        W46490  15.319  40.088   0.365
80060W        W46491  11.705  29.634   3.676
80061W        W46492  17.568  33.902  10.658
80062W        W46493  33.818  28.742   3.961
80063W        W46494  10.028   3.817  14.438
80064W        W46495  18.992  34.956   2.789
80065W        W46496  23.578  40.538  11.164
80066W        W46497  16.536  31.960  13.518
80067W        W46498  36.586  22.764  10.671
80068W        W46499  20.186  41.385   4.146
80069W        W46500   5.456  12.225   2.613
80070W        W46501  39.886  37.765  12.536
80071W        W46502   0.744  17.304   4.146
80072W        W46503  15.595   0.951  10.756
80073W        W46504  34.334  16.390  11.816
80074W        W46505  26.534  23.275  10.245
80075W        W46506  28.684  23.290  14.262
80076W        W46507  24.286   3.899  13.578
80077W        W46508  22.177  36.922  14.803
80078W        W46509  38.803  10.387   3.636
80079W        W46510   8.621  43.531   1.682
80080W        W46511  37.432  31.726   0.938
80081W        W46512  28.523  27.192   1.492
80082W        W46513   7.115   0.923  13.822
80083W        W46514  32.206  30.749  13.408
80084W        W46515  15.818  18.122   4.498
80085W        W46516  19.278   9.278   3.263
80086W        W46517  42.021  22.135  13.520
80087W        W46518  23.555  19.734   4.176
80088W        W46519  44.581  31.096   4.044
80089W        W46520  30.629  42.879  13.950
80090W        W46521  17.173  22.270   3.837
80091W        W46522  28.996  35.356   1.231
80092W        W46523  38.762  42.430  13.395
80093W        W46524   1.463  41.809   4.835
80094W        W46525  27.102  17.777  11.415
80095W        W46526   2.940  41.920  11.316
80096W        W46527  26.252  19.689  12.674
80097W        W46528  20.474  28.803  14.086
80098W        W46529  36.560  25.475  11.104
80099W        W46530  39.919  23.210   4.932
80100W        W46531  41.525  11.548   3.797
80101W        W46532  21.281  39.883  11.861
80102W        W46533  16.821   3.794  14.449
80103W        W46534  25.565  29.386   3.999
80104W        W46535  39.826  40.617  12.880
80105W        W46536  26.636  43.295   4.409
80106W        W46537  17.092  28.201  12.446
80107W        W46538   7.637  44.946  12.259
80108W        W46539  39.573  24.551  14.858
80109W        W46540  26.658   9.326  14.193
80110W        W46541  25.077  11.685  12.714
80111W        W46542  24.305  28.688  14.013
80112W        W46543  19.515   7.604   1.081
80113W        W46544  39.399   8.354   3.621
80114W        W46545  11.749   0.310  14.393
80115W        W46546   3.064  25.393  11.662
80116W        W46547   7.141  15.041   9.783
80117W        W46548  29.885  40.119   4.229
80118W        W46549  18.502  12.573  10.787
80119W        W46550  28.711  18.794  14.022
80120W        W46551  43.855  25.564  12.596
80121W        W46552  11.653  42.515   3.793
80122W        W46553  13.371  34.617  13.337
80123W        W46554   7.697  43.662   2.724
80124W        W46555  13.460  38.484   3.625
80125W        W46556  10.024  35.075  14.316
80126W        W46557  41.069  42.998  11.078
80127W        W46558  22.455  30.196   3.611
80128W        W46559  43.754  17.573   0.222
80129W        W46560   0.339  32.600  10.678
80130W        W46561  14.089   8.545  14.621
80131W        W46562   8.861  26.360   0.042
80132W        W46563  29.626   0.799   1.532
80133W        W46564   0.773   0.732  14.926
80134W        W46565  31.123  39.111  10.071
80135W        W46566  26.907  30.740   9.849
80136W        W46567  24.111  17.694   3.587
80137W        W46568  29.111  19.013   2.711
80138W        W46569  24.565  32.755  14.850
80139W        W46570   7.297  10.195   0.422
80140W        W46571  34.178  33.711   3.243
80141W        W46572   6.450  16.072   2.519
80142W        W46573   5.163  25.599  13.029
80143W        W46574   8.322  23.463   1.881
80144W        W46575  11.421  26.622  14.549
80145W        W46576  24.566  16.617  11.614
80146W        W46577   6.690   6.932   2.355
80147W        W46578  39.350   3.281   2.303
80148W        W46579  29.405   1.699  14.905
80149W        W46580  31.388  42.646   3.633
80150W        W46581   5.454  40.905  14.455
80151W        W46582  10.760   9.973  13.374
80152W        W46583   4.057  29.834  13.864
80153W        W46584   3.916  25.390   1.509
80154W        W46585   5.709  43.274  10.567
80155W        W46586  44.348  18.999   2.313
80156W        W46587  25.404  38.844  14.885
80157W        W46588  31.227  38.975  12.598
80158W        W46589  14.469  35.361   4.196
80159W        W46590  15.852   0.879   2.250
80160W        W46591  21.976  35.852   3.169
80161W        W46592  36.804   7.863  13.549
80162W        W46593  31.975  40.786   2.957
80163W        W46594  13.166  12.334  14.991
80164W        W46595  14.866  30.218   4.149
80165W        W46596  44.888  19.244  13.526
80166W        W46597  13.258   8.924  14.483
80167W        W46598  38.755  14.081  12.119
80168W        W46599  12.789  23.391  11.629
80169W        W46600  33.885  40.905  10.847
80170W        W46601   8.658  32.827   4.570
80171W        W46602  39.872  10.738  14.096
80172W        W46603   8.360  32.642   3.616
80173W        W46604   1.615  40.460   4.383
80174W        W46605  19.431   2.327   0.900
80175W        W46606   5.192  11.783   4.678
80176W        W46607  22.073  29.685   0.923
80177W        W46608  32.178  27.392  10.712
80178W        W46609  31.019  29.072  12.903
80179W        W46610  17.341   4.731  10.032
80180W        W46611  11.334  17.825  12.487
80181W        W46612  15.149  17.258   0.264
80182W        W46613   7.631  29.945   0.390
80183W        W46614  27.922  19.308   4.412
80184W        W46615  40.679  23.513  14.697
80185W        W46616  41.379   5.893   4.502
80186W        W46617   4.382  15.351  14.045
80187W        W46618  34.582   6.647   2.264
80188W        W46619  25.497  30.664   0.928
80189W        W46620  13.308   1.553  11.067
80190W        W46621   3.031   3.510  11.779
80191W        W46622  13.521  13.198   4.128
80192W        W46623  38.131  15.969  13.996
80193W        W46624   0.916  12.075  14.249
80194W        W46625   5.796  36.551   2.022
80195W        W46626  32.008  35.970   3.299
80196W        W46627  13.278   2.799  12.986
80197W        W46628   7.644  24.475  13.221
80198W        W46629   1.800  21.662   0.299
80199W        W46630  44.404  39.905   2.740
80200W        W46631   6.489  31.451   3.107
80201W        W46632  36.913  19.525  11.124
80202W        W46633  41.750  33.792   2.595
80203W        W46634  11.726  36.301   2.793
80204W        W46635   9.031  34.996  13.880
80205W        W46636   6.107   2.218   4.610
80206W        W46637  30.360   7.379   1.381
80207W        W46638  16.367   4.418   2.762
80208W        W46639  16.738  13.854  14.096
80209W        W46640  18.075  43.006   0.419
80210W        W46641  10.339  39.804   0.226
80211W        W46642  28.032  27.111   3.161
80212W        W46643  33.580  37.946  11.264
80213W        W46644   5.720   4.825  11.478
80214W        W46645  36.516  41.309  12.644
80215W        W46646  32.996   7.839  10.920
80216W        W46647   7.372  26.633   3.680
80217W        W46648  15.132  44.359   2.005
80218W        W46649  16.643  42.941   1.262
80219W        W46650  23.716  33.744  12.323
80220W        W46651  43.855  38.288   4.175
80221W        W46652  19.545  37.315  11.881
80222W        W46653  20.270  29.641  14.485
80223W        W46654  42.138  20.484  12.023
80224W        W46655   7.844  12.729   0.956
80225W        W46656  36.288   8.231  10.385
80226W        W46657  15.827  36.832   1.008
80227W        W46658  23.503  22.229   0.020
80228W        W46659  19.090   8.865   0.664
80229W        W46660  12.932  24.570  14.436
80230W        W46661  24.825  43.082   1.231
80231W        W46662  33.000  37.353  14.189
80232W        W46663  32.006  44.458   3.810
80233W        W46664   4.452  10.929   1.667
80234W        W46665  39.775  17.104  13.414
80235W        W46666  25.767  36.003   3.723
80236W        W46667  37.501  37.170   5.408
80237W        W46668  27.515  41.710   1.955
80238W        W46669  10.157  34.146   1.495
80239W        W46670  13.264  11.744   0.309
80240W        W46671  15.916   2.877  14.909
80241W        W46672  17.786   7.789  11.216
80242W        W46673  41.505  16.771  10.627
80243W        W46674  26.709   4.464  11.420
80244W        W46675  24.083  17.982  12.463
80245W        W46676  39.989   2.231  12.569
80246W        W46677  22.760  44.972  14.759
80247W        W46678  40.405  11.048   3.567
80248W        W46679  14.605  24.755   1.656
80249W        W46680  26.339   2.924   1.562
80250W        W46681  39.259  21.372   2.244
80251W        W46682  37.033  29.542  10.902
80252W        W46683  36.608  16.554  11.676
80253W        W46684  22.182  42.909  13.957
80254W        W46685  13.674  42.424  14.495
80255W        W46686  29.153   6.464   3.158
80256W        W46687  16.830   3.374   0.420
80257W        W46688  38.305  12.237  12.000
80258W        W46689  25.512  19.437  13.208
80259W        W46690   6.360  24.772   1.322
80260W        W46691  26.495  33.646  10.738
80261W        W46692   1.252   1.469   3.844
80262W        W46693  17.014  22.634  10.987
80263W        W46694  21.581   9.778   4.244
80264W        W46695   2.702   9.890   2.802
80265W        W46696  39.560  38.435   3.649
80266W        W46697  22.190  23.768  12.290
80267W        W46698  22.504   9.995   3.333
80268W        W46699  17.486   9.700   1.474
80269W        W46700   5.619  42.318  11.415
80270W        W46701  37.579   3.502  12.463
80271W        W46702  34.539   1.923  12.642
80272W        W46703  11.583  23.036  11.313
80273W        W46704  34.185  39.040  13.001
80274W        W46705  13.232   5.842   3.656
80275W        W46706  19.570   5.262  12.324
80276W        W46707  10.037  32.442   3.759
80277W        W46708  29.207  24.110  14.448
80278W        W46709  36.995  40.475   3.158
80279W        W46710   8.257  28.592  11.395
80280W        W46711  39.292  17.073  12.062
80281W        W46712  42.266   6.373  14.305
80282W        W46713   0.828  25.700  13.994
80283W        W46714  16.923   7.369   0.446
80284W        W46715  20.953   6.840   1.883
80285W        W46716  23.490  17.270   5.402
80286W        W46717   4.031   8.788  12.814
80287W        W46718  18.224  20.547   2.932
80288W        W46719   0.310   5.901  11.482
80289W        W46720  24.701   1.870  11.392
80290W        W46721  16.684  18.199  12.677
80291W        W46722  37.071  15.789   1.772
80292W        W46723   2.487  37.460   3.687
80293W        W46724  27.803  43.525  12.877
80294W        W46725  23.337   5.819   1.157
80295W        W46726  16.783   7.620   2.681
80296W        W46727  10.246  27.002   3.412
80297W        W46728   7.136  28.154   4.547
80298W        W46729   1.660  41.323   4.877
80299W        W46730  34.815  41.325   0.327
80300W        W46731   5.701   3.317   2.010
80301W        W46732  39.404   5.849  12.952
80302W        W46733   3.178  33.885   0.698
80303W        W46734   1.083   9.426  12.202
80304W        W46735  10.217  27.011   4.445
80305W        W46736   8.807  28.932   0.241
80306W        W46737  43.233   8.659  12.548
80307W        W46738  40.032  42.855   3.124
80308W        W46739  23.181  30.108  14.632
80309W        W46740  24.623  29.317  12.929
80310W        W46741  31.465  41.106   1.623
80311W        W46742  10.355   5.257   4.827
80312W        W46743  27.531   0.090   3.635
80313W        W46744  10.096  44.412  14.180
80314W        W46745  28.569  31.770  11.649
80315W        W46746  18.714  37.930   2.434
80316W        W46747  37.909  32.119  11.722
80317W        W46748   7.883  40.204   2.409
80318W        W46749   8.595   2.821  13.118
80319W        W46750   2.148  42.326  13.567
80320W        W46751  35.372  21.125   4.453
80321W        W46752  43.913   9.452  11.923
80322W        W46753  17.445  17.043  12.489
80323W        W46754  28.170  18.123  10.228
80324W        W46755  37.079  41.824  11.039
80325W        W46756  39.277  16.903  14.324
80326W        W46757  40.807  38.804  13.217
80327W        W46758  24.184  10.279   3.127
80328W        W46759  20.687  44.968   2.324
80329W        W46760  41.602  29.461   3.642
80330W        W46761   5.442  12.678   1.853
80331W        W46762  11.866  14.757   1.365
80332W        W46763  23.625  21.050   1.909
80333W        W46764  12.817  40.018  10.610
80334W        W46765  38.852  36.521  14.927
80335W        W46766  31.649  14.546  11.655
80336W        W46767   7.221   2.006  10.759
80337W        W46768  16.986  37.879   3.715
80338W        W46769  20.988   1.465  13.539
80339W        W46770  16.744  17.207  10.707
80340W        W46771  21.088  32.412  10.209
80341W        W46772  43.345   0.650   1.715
80342W        W46773  33.364  22.422  14.852
80343W        W46774  30.324  21.592   3.241
80344W        W46775  26.684  33.918   4.496
80345W        W46776  24.001   1.033  10.667
80346W        W46777   8.614  44.756  14.695
80347W        W46778  11.771  16.990   2.912
80348W        W46779  33.621  20.588   4.653
80349W        W46780  37.620   4.329   2.378
80350W        W46781  20.147  16.924  10.684
80351W        W46782  15.176  43.800  11.639
80352W        W46783  38.365  15.639   2.618
80353W        W46784  23.791  16.084   1.257
80354W        W46785   0.958  21.864   0.739
80355W        W46786  43.077   3.384   1.037
80356W        W46787   7.719  29.843  11.250
80357W        W46788  31.458  14.056   2.933
80358W        W46789   1.731  25.213   3.235
80359W        W46790  19.372  35.996  13.450
80360W        W46791   1.691  33.508  12.495
80361W        W46792   1.967  10.791   0.065
80362W        W46793  23.509  38.611   5.556
80363W        W46794  38.323  43.252  14.027
80364W        W46795  13.118  35.546   4.415
80365W        W46796  21.734  38.283  13.392
80366W        W46797  11.731  16.738  12.950
80367W        W46798  41.274   1.837  10.770
80368W        W46799  30.529  42.476  14.386
80369W        W46800  21.614  11.271  13.826
80370W        W46801   3.477   2.329   0.978
80371W        W46802  34.053  35.906   0.262
80372W        W46803  31.676   0.207  13.869
80373W        W46804  20.479  37.047  11.018
80374W        W46805  42.500  20.262   0.421
80375W        W46806  41.583  15.810  12.571
80376W        W46807  40.291  35.713   2.331
80377W        W46808  25.106  23.511  13.838
80378W        W46809  15.172  11.871  14.338
80379W        W46810  15.136  36.285   1.503
80380W        W46811  15.938  24.201  11.792
80381W        W46812  21.700  18.444  14.629
80382W        W46813  36.105  14.714  11.117
80383W        W46814  24.909   9.819  14.295
80384W        W46815   6.992   2.826  13.005
80385W        W46816  13.321  27.188  14.006
80386W        W46817  31.503  18.194   4.401
80387W        W46818   9.365  28.422   1.279
80388W        W46819  38.272  23.141  13.001
80389W        W46820  30.139  15.023   0.022
80390W        W46821  32.993  44.983   3.567
80391W        W46822   4.274  18.682  14.755
80392W        W46823   6.909  38.383   0.837
80393W        W46824  33.470  38.491  12.111
80394W        W46825  38.950  28.448  12.660
80395W        W46826  13.755  22.187   4.056
80396W        W46827  35.383  36.143  13.336
80397W        W46828  32.831  32.933   2.249
80398W        W46829  14.791  42.319  13.026
80399W        W46830  14.230  40.095   1.414
80400W        W46831  36.869  36.238   4.711
80401W        W46832  30.740  15.197  11.196
80402W        W46833  11.633  39.871   1.467
80403W        W46834  24.244   0.884   0.701
80404W        W46835  15.388  31.164  12.144
80405W        W46836  13.635  33.890   3.216
80406W        W46837   7.718  38.499  11.623
80407W        W46838  32.392  27.643  13.996
80408W        W46839  20.792   8.630   2.762
80409W        W46840  25.251  18.177  12.697
80410W        W46841  30.830   5.301  12.974
80411W        W46842  21.951  43.587   4.623
80412W        W46843   1.712  40.140   2.844
80413W        W46844  14.825   3.107   4.243
80414W        W46845   7.405  21.831  12.525
80415W        W46846  29.921  41.402   3.053
80416W        W46847  32.006  33.941  13.308
80417W        W46848  27.143  40.108  11.711
80418W        W46849   6.244   0.592  10.686
80419W        W46850  34.435  17.116  14.981
80420W        W46851   7.420  21.460  11.623
80421W        W46852  17.314  11.557   2.211
80422W        W46853  44.285  28.456  12.527
80423W        W46854  22.390  42.548  13.092
80424W        W46855  31.910   3.865  10.787
80425W        W46856  26.891  17.315   2.790
80426W        W46857  43.557  15.509  14.129
80427W        W46858   6.899  26.264  13.171
80428W        W46859  44.897  23.583  12.461
80429W        W46860  28.948   2.040   4.165
80430W        W46861  20.350   3.224  13.688
80431W        W46862  33.532  41.230  12.509
80432W        W46863  16.817  20.517   0.871
80433W        W46864  12.656  16.527   2.645
80434W        W46865  12.591  27.224  11.285
80435W        W46866  23.736  17.270   1.976
80436W        W46867  31.109  19.753   0.914
80437W        W46868  19.535  15.678  11.590
80438W        W46869  10.736  42.226   0.593
80439W        W46870   8.694  31.702  13.842
80440W        W46871  43.694  16.507  10.974
80441W        W46872   6.617  37.123  14.826
80442W        W46873  18.335  27.924  12.995
80443W        W46874   3.620  23.741   4.573
80444W        W46875  19.873  33.215   3.622
80445W        W46876  12.875  44.450   3.816
80446W        W46877   4.986  23.530   2.788
80447W        W46878  43.752  20.335  12.136
80448W        W46879  20.677  26.218   0.350
80449W        W46880  33.649   8.036  11.632
80450W        W46881  11.682  22.555   1.859
80451W        W46882  10.695  24.295   3.731
80452W        W46883  17.857  43.994  11.015
80453W        W46884  27.529  26.120  14.777
80454W        W46885  35.927  29.874  14.808
80455W        W46886  25.405  30.897  14.823
80456W        W46887  16.558   6.615   2.801
80457W        W46888  12.825  34.988   1.393
80458W        W46889  36.957   8.632  13.133
80459W        W46890  32.179  35.350   1.631
80460W        W46891  27.090  32.682  11.232
80461W        W46892  39.450  39.344   3.468
80462W        W46893  26.982  36.521   4.201
80463W        W46894  31.887  43.971  11.059
80464W        W46895  23.657  19.652   1.896
80465W        W46896  18.565  26.179  10.579
80466W        W46897  17.235  30.388  10.414
80467W        W46898  43.356   8.786  14.733
80468W        W46899  15.724  26.069  10.886
80469W        W46900  44.840  22.863   1.409
80470W        W46901  31.992   0.822   2.289
80471W        W46902  31.017   2.911  11.138
80472W        W46903  18.765  17.089  11.532
80473W        W46904  39.615  12.565   4.126
80474W        W46905  23.940  13.360  13.552
80475W        W46906   1.338  30.000  12.653
80476W        W46907   3.729  31.221  11.801
80477W        W46908  37.344  34.043   9.990
80478W        W46909  39.824  15.801  11.897
80479W        W46910  16.304  38.895   2.844
80480W        W46911  21.282   8.374  12.642
80481W        W46912   4.294   4.682   0.245
80482W        W46913  42.737   1.892   0.905
80483W        W46914   9.596   0.918  14.293
80484W        W46915  34.589  37.572   4.768
80485W        W46916   4.961  28.081  13.956
80486W        W46917  42.299   3.200  10.780
80487W        W46918  14.159  38.601  13.336
80488W        W46919   0.378  36.040   1.771
80489W        W46920   0.466  36.295   1.342
80490W        W46921   4.881   6.993  11.571
80491W        W46922  37.386  28.059   3.140
80492W        W46923  19.431  40.150  10.617
80493W        W46924  23.287  13.433  14.332
80494W        W46925  30.070  12.112  12.510
80495W        W46926   4.305  41.856   1.046
80496W        W46927  25.193  15.184  11.933
80497W        W46928  36.109  22.598  11.420
80498W        W46929  10.532  32.436  11.971
80499W        W46930  16.537  20.363   4.851
80500W        W46931  44.292   1.211   4.874
80501W        W46932  40.999  24.664   2.243
80502W        W46933  19.967  17.257  13.348
80503W        W46934  23.535  37.463  13.055
80504W        W46935  39.094   0.302   0.488
80505W        W46936  10.823  36.390  11.946
80506W        W46937   3.513  30.754  11.720
80507W        W46938  36.498  27.678   0.936
80508W        W46939  32.741  24.453   1.974
80509W        W46940  18.261  28.952   0.655
80510W        W46941   2.324  15.238   3.699
80511W        W46942  22.973   6.282  13.586
80512W        W46943  36.170  40.575   3.670
80513W        W46944  22.717  22.096   0.931
80514W        W46945  11.270  25.829   3.391
80515W        W46946  36.100  12.691   2.775
80516W        W46947   7.122  24.147  14.519
80517W        W46948  40.198  13.094  10.773
80518W        W46949   7.757  38.320   3.626
80519W        W46950  44.844  28.707   2.478
80520W        W46951  31.903  22.990   0.751
80521W        W46952  42.203  40.270  13.006
80522W        W46953  15.007   0.375  12.776
80523W        W46954   2.457  13.835   4.559
80524W        W46955  14.750  29.506  10.710
80525W        W46956  29.924   3.207  11.658
80526W        W46957   7.184   6.649   3.615
80527W        W46958  12.372  20.649  10.649
80528W        W46959  34.594   0.338  13.827
80529W        W46960   0.407  35.395  12.606
80530W        W46961  42.780   9.278  12.069
80531W        W46962  20.621  21.539  12.000
80532W        W46963  25.145  10.902  13.361
80533W        W46964  27.369   8.122  12.056
80534W        W46965  10.018  43.502   4.135
80535W        W46966  38.775  39.979  11.546
80536W        W46967  12.606  27.842  14.336
80537W        W46968  30.032  36.853   1.695
80538W        W46969  13.679   3.329   1.364
80539W        W46970  33.957   4.411  13.949
80540W        W46971  16.045  21.996  11.516
80541W        W46972  34.951  17.864  10.971
80542W        W46973   2.158  16.350  12.109
80543W        W46974  40.845  37.617  14.926
80544W        W46975  35.968  43.434   2.385
80545W        W46976  43.459  36.901   1.774
80546W        W46977   8.821  29.587  11.120
80547W        W46978  34.242   2.821  12.897
80548W        W46979  35.576  24.544  14.573
80549W        W46980   9.010  12.318   0.135
80550W        W46981  37.107  28.403  10.226
80551W        W46982  24.251  26.628   1.478
80552W        W46983  17.362   1.482   3.693
80553W        W46984  34.497  41.227   3.137
80554W        W46985   1.011  17.569  10.885
80555W        W46986  26.865  42.018  14.917
80556W        W46987  17.653  31.866   3.565
80557W        W46988   1.914  25.153  11.704
80558W        W46989  37.036  24.447   0.875
80559W        W46990  37.566  38.042   3.588
80560W        W46991   5.418  17.595  14.403
80561W        W46992  12.809  21.162   0.724
80562W        W46993  42.735  41.495  13.984
80563W        W46994  30.336  21.758  11.244
80564W        W46995  42.011  17.365   4.290
80565W        W46996  24.533  33.782  14.817
80566W        W46997  37.833  18.167  12.569
80567W        W46998  26.615  11.600   4.656
80568W        W46999  34.508  42.518   5.024
80569W        W47000  38.542  14.583  13.522
80570W        W47001   6.114  40.765  10.958
80571W        W47002  22.198   9.806  14.759
80572W        W47003   5.853  12.648  10.512
80573W        W47004   4.167   3.739   2.847
80574W        W47005   9.167  17.090   2.221
80575W        W47006  15.886  37.361   1.242
80576W        W47007  13.862  32.813   3.047
80577W        W47008  32.491  21.492   3.642
80578W        W47009  44.685  32.355   0.775
80579W        W47010  10.117   5.809   3.675
80580W        W47011  26.963  14.867  14.691
80581W        W47012  29.528  34.327  12.185
80582W        W47013  24.002  37.341  10.295
80583W        W47014  36.937  41.661   0.856
80584W        W47015  33.463   8.921  11.646
80585W        W47016  23.573   3.757  11.945
80586W        W47017  35.372  30.863   2.263
80587W        W47018  39.491   9.456  12.904
80588W        W47019  36.068  19.502  12.144
80589W        W47020  22.436  22.728   4.675
80590W        W47021  16.425  38.009   2.705
80591W        W47022  16.841  27.359  11.346
80592W        W47023   9.188  16.156  12.035
80593W        W47024  37.871  15.639   2.787
80594W        W47025  15.076  27.557  13.480
80595W        W47026  20.211  10.437   1.652
80596W        W47027  10.720   3.220   0.931
80597W        W47028  24.661   7.440  12.457
80598W        W47029  17.759  26.677   2.993
80599W        W47030  28.453  39.262  14.488
80600W        W47031  28.163   6.079  11.578
80601W        W47032  37.638  15.703  11.669
80602W        W47033  29.205  14.660  14.547
80603W        W47034  11.049  38.503   3.096
80604W        W47035   9.891  38.299   1.217
80605W        W47036   6.869  19.775   1.604
80606W        W47037  33.202  15.770   1.679
80607W        W47038  37.032   6.207   4.578
80608W        W47039  14.857  21.038   4.821
80609W        W47040  41.976  35.780  13.858
80610W        W47041   7.245  34.388   0.953
80611W        W47042  38.281  31.789   0.273
80612W        W47043  14.670  25.807  11.621
80613W        W47044   6.233  19.291   1.227
80614W        W47045  41.644   4.375   0.448
80615W        W47046  26.212  22.453   0.370
80616W        W47047  31.608  41.303  12.596
80617W        W47048  13.061  18.756   2.385
80618W        W47049  16.026  32.107  14.440
80619W        W47050  18.708  15.626  13.037
80620W        W47051  40.483   8.152   1.294
80621W        W47052  21.810  34.782   4.131
80622W        W47053   9.730  24.759  11.915
80623W        W47054   9.623  33.594  12.933
80624W        W47055  12.154   0.874   0.344
80625W        W47056   0.317  39.695  12.472
80626W        W47057  19.047  11.322   3.944
80627W        W47058  17.770  24.732  12.406
80628W        W47059  23.657   7.877  12.429
80629W        W47060   0.604  37.662  13.092
80630W        W47061  15.845  25.631  14.052
80631W        W47062  38.268  44.041  14.422
80632W        W47063  31.549   4.618  11.358
80633W        W47064  29.757  30.021  13.866
80634W        W47065   2.426  40.104  14.939
80635W        W47066  36.070  27.707  12.132
80636W        W47067  34.529  23.885  12.945
80637W        W47068  44.091  38.871   3.514
80638W        W47069  21.455   5.316  10.586
80639W        W47070  43.981  29.530  10.785
80640W        W47071  37.721   7.859  13.862
80641W        W47072  16.227  42.270  13.937
80642W        W47073  24.502  39.007  13.594
80643W        W47074  16.851  44.019   2.278
80644W        W47075  35.329  30.613  11.675
80645W        W47076  17.873   5.835  11.096
80646W        W47077  35.757  19.626   2.013
80647W        W47078   3.724  24.071  14.264
80648W        W47079   7.972   1.621   1.276
80649W        W47080  24.934  33.811   4.814
80650W        W47081  11.548  25.152   2.872
80651W        W47082  33.886  16.809   3.809
80652W        W47083  20.590  11.751   4.600
80653W        W47084  19.990  29.001   3.165
80654W        W47085  17.295  32.418   4.669
80655W        W47086  38.587   1.052   4.931
80656W        W47087  35.815  24.675  11.632
80657W        W47088  38.331  38.471   2.241
80658W        W47089   8.408   7.514  10.948
80659W        W47090  10.232  41.285  13.109
80660W        W47091   9.647   5.968  14.803
80661W        W47092  27.125  14.515  13.267
80662W        W47093  26.218  31.371   0.928
80663W        W47094  12.867  25.752   1.466
80664W        W47095  28.950  18.773   1.316
80665W        W47096   1.634  14.044  13.412
80666W        W47097  12.042  26.847  10.205
80667W        W47098  35.475  34.607   4.794
80668W        W47099  11.741   1.073  13.069
80669W        W47100   0.714   9.252   1.957
80670W        W47101  29.930  16.007   4.021
80671W        W47102  25.514  41.160   4.482
80672W        W47103  26.663  29.604   4.302
80673W        W47104  43.816  10.700  11.516
80674W        W47105  35.030   9.724  11.649
80675W        W47106  29.860  17.102  14.434
80676W        W47107  14.279  15.244  10.535
80677W        W47108  21.072  13.478   3.498
80678W        W47109  38.311  30.709   1.612
80679W        W47110  36.097  21.191  12.998
80680W        W47111  14.480   5.321   3.100
80681W        W47112  13.193   4.611  13.334
80682W        W47113  18.035  44.965  14.576
80683W        W47114  41.884   6.747  13.360
80684W        W47115   1.063   0.986   2.290
80685W        W47116  43.019  40.277  14.395
80686W        W47117  42.043  20.529  13.589
80687W        W47118  29.092  36.004  11.489
80688W        W47119  14.207  37.676   1.763
80689W        W47120  17.222   1.032  10.123
80690W        W47121  22.436  24.163  12.021
80691W        W47122   2.264  10.397  13.656
80692W        W47123  39.606  37.534   3.714
80693W        W47124  26.041   5.420  13.105
80694W        W47125  27.973  17.744  10.952
80695W        W47126  15.249   9.855  11.161
80696W        W47127  37.966  44.242   4.306
80697W        W47128   5.340  41.665   3.060
80698W        W47129  21.266  38.989  13.081
80699W        W47130  12.684   6.946  12.540
80700W        W47131   9.506  14.206   4.513
80701W        W47132  21.611  18.154  11.024
80702W        W47133  22.928  15.242   2.675
80703W        W47134  28.424   6.460  14.828
80704W        W47135  26.062  38.146  13.833
80705W        W47136  21.569  44.699  12.012
80706W        W47137  28.551  26.962  10.484
80707W        W47138  25.710  44.382   0.837
80708W        W47139  44.854  38.963   3.232
80709W        W47140  39.770   7.617   0.852
80710W        W47141   5.909  17.774  14.465
80711W        W47142  32.332   9.471   0.964
80712W        W47143  40.972   6.203   2.664
80713W        W47144  27.404   8.616   4.572
80714W        W47145  40.909  41.565  10.450
80715W        W47146   0.982   0.978   0.341
80716W        W47147  43.706  24.130  12.401
80717W        W47148  43.273  35.843   1.773
80718W        W47149  34.747  13.225   3.496
80719W        W47150  16.107   7.883   2.250
80720W        W47151  34.293  41.380   0.294
80721W        W47152  28.479   6.607  13.506
80722W        W47153  44.179   5.955   3.744
80723W        W47154   9.440   9.316  14.398
80724W        W47155  15.253  16.483   2.312
80725W        W47156  33.518  42.800  11.384
80726W        W47157  42.598  21.613  11.967
80727W        W47158  34.438  30.567   3.651
80728W        W47159  20.085   1.672   2.386
80729W        W47160  16.042  11.135   3.095
80730W        W47161   3.697   0.426  12.072
80731W        W47162  29.121  10.174   4.078
80732W        W47163  28.672  43.384  14.724
80733W        W47164  12.293   6.853   4.970
80734W        W47165  14.746  44.291  11.170
80735W        W47166  38.959   2.005   2.223
80736W        W47167  39.573   2.422  10.987
80737W        W47168  25.595  26.208   1.772
80738W        W47169  29.452  20.567   3.323
80739W        W47170  40.431  29.840   5.034
80740W        W47171   4.916  27.016  12.510
80741W        W47172  34.998  44.278   1.139
80742W        W47173  43.555  20.188   3.217
80743W        W47174  26.576  44.220  11.923
80744W        W47175  43.337  39.860   2.851
80745W        W47176  39.159   7.114   4.155
80746W        W47177   3.810  36.026  14.306
80747W        W47178  17.597  31.856  11.938
80748W        W47179  37.027  27.737  14.727
80749W        W47180  24.483  32.971  13.454
80750W        W47181   1.240  10.165   2.790
80751W        W47182   2.359  29.160   0.407
80752W        W47183  34.548  24.046   0.816
80753W        W47184  24.179   5.023  11.138
80754W        W47185  28.152  33.581   0.580
80755W        W47186  16.125  15.454   2.324
80756W        W47187  18.506  12.602  13.981
80757W        W47188   5.384  21.649   3.118
80758W        W47189  12.213  40.740   4.552
80759W        W47190  27.540  38.391   1.275
80760W        W47191  30.919  18.153   3.827
80761W        W47192  36.623  18.064  12.951
80762W        W47193   3.839  17.263   2.121
80763W        W47194  30.202  24.712   1.534
80764W        W47195   8.211   9.678  12.096
80765W        W47196  18.788   9.854   4.168
80766W        W47197   0.897  19.536  12.130
80767W        W47198  22.550  29.100  10.558
80768W        W47199  32.523  15.042  13.409
80769W        W47200   9.001  41.803  13.517
80770W        W47201  33.898  24.808  10.340
80771W        W47202  23.615   1.150   1.438
80772W        W47203  24.268  11.368   1.361
80773W        W47204  12.273  39.036   2.375
80774W        W47205   1.722  29.713   4.536
80775W        W47206   7.788  15.725   4.279
80776W        W47207  44.094   9.184   3.877
80777W        W47208  42.324  30.457  14.776
80778W        W47209  42.846  30.468   3.280
80779W        W47210  41.253  29.093  14.758
80780W        W47211  44.810   7.417   1.829
80781W        W47212  17.611  25.548   0.707
80782W        W47213   3.938  16.276   4.083
80783W        W47214  20.933  18.571   1.539
80784W        W47215  15.224   8.007   4.170
80785W        W47216   0.350  41.538   4.229
80786W        W47217  40.274  15.047   3.329
80787W        W47218  12.943  33.414  11.886
80788W        W47219   6.831  29.990  12.413
80789W        W47220  28.885  19.495  11.212
80790W        W47221  25.136  19.511  10.166
80791W        W47222  22.232  27.946   0.760
80792W        W47223  12.322   3.249   1.962
80793W        W47224  35.220  16.632   1.820
80794W        W47225  34.881  27.176  13.416
80795W        W47226  10.732  44.320   4.577
80796W        W47227  14.143  21.379   4.583
80797W        W47228  28.089   9.881  13.145
80798W        W47229   7.352  23.289   2.326
80799W        W47230   2.328   6.381  13.007
80800W        W47231  41.464  33.177   1.881
80801W        W47232  41.808  15.094  10.586
80802W        W47233  24.330   4.762   4.180
80803W        W47234   2.663  25.003  13.328
80804W        W47235  37.161  41.134  10.723
80805W        W47236   6.761  17.837   4.674
80806W        W47237  31.476  26.156  14.737
80807W        W47238  35.731  26.483  11.563
80808W        W47239   1.974  35.511   2.927
80809W        W47240  20.912  20.037   0.578
80810W        W47241  23.061  13.818  13.388
80811W        W47242  14.288  44.824  14.947
80812W        W47243  18.049  35.033   3.345
80813W        W47244   5.831   2.878   1.682
80814W        W47245   6.405  15.524   3.208
80815W        W47246  14.739  31.808   1.891
80816W        W47247  20.022  21.621   2.873
80817W        W47248  33.637   5.228  13.460
80818W        W47249  28.306  23.515   2.200
80819W        W47250  34.118  13.818  12.436
80820W        W47251  21.158  44.319   4.324
80821W        W47252  19.256  18.460   1.146
80822W        W47253  13.395   6.359  12.971
80823W        W47254  37.713  44.505  12.340
80824W        W47255  27.087  23.442  12.463
80825W        W47256  15.305  20.649   0.418
80826W        W47257   5.872  12.554  11.505
80827W        W47258  38.732   7.427   4.073
80828W        W47259   5.889  18.195  14.102
80829W        W47260  25.114  43.543   0.071
80830W        W47261  39.066  25.930   2.389
80831W        W47262  21.510  41.815   4.598
80832W        W47263   3.964  14.536   3.757
80833W        W47264  34.972  25.971   3.718
80834W        W47265   9.789  36.983   1.369
80835W        W47266  30.532   0.976  13.755
80836W        W47267  26.097   0.328   0.670
80837W        W47268   7.667  11.371  13.911
80838W        W47269  39.030  33.919  10.938
80839W        W47270  23.852   7.998  14.025
80840W        W47271  34.446  33.864  13.037
80841W        W47272  10.131   5.711   4.554
80842W        W47273  42.303  15.926  14.970
80843W        W47274   2.187   7.791  12.069
80844W        W47275   6.767   7.844  12.418
80845W        W47276  32.771  43.525   0.312
80846W        W47277   9.569  43.205   0.512
80847W        W47278  36.694   1.107   9.908
80848W        W47279  32.615   6.183  10.585
80849W        W47280  37.041  27.877   4.815
80850W        W47281   9.432  23.341   0.947
80851W        W47282   4.750  25.726   2.368
80852W        W47283  22.716  41.257   1.804
80853W        W47284  30.022   7.458  13.754
80854W        W47285  11.181  13.030   0.020
80855W        W47286  37.143  44.489  11.366
80856W        W47287   0.919   5.821   0.950
80857W        W47288  37.590  44.642   4.274
80858W        W47289  16.885  23.739   1.260
80859W        W47290  39.544  31.393   5.156
80860W        W47291  11.134   3.369   2.360
80861W        W47292  21.476  38.022   3.693
80862W        W47293  12.683  24.734  13.437
80863W        W47294   8.677  10.929  12.867
80864W        W47295  13.972  15.996  13.083
80865W        W47296   8.818  39.535   0.966
80866W        W47297  41.278   0.959   1.206
80867W        W47298  34.188  31.339  11.574
80868W        W47299  17.582   7.142  12.003
80869W        W47300  23.064  22.553   3.710
80870W        W47301   1.529  26.464  10.652
80871W        W47302  40.368  35.107   3.285
80872W        W47303  14.029  24.740   0.432
80873W        W47304   6.451  20.539   2.635
80874W        W47305  43.913  13.303  11.717
80875W        W47306  27.676  38.118  12.564
80876W        W47307  23.808  19.613   2.401
80877W        W47308   9.837  19.747   0.359
80878W        W47309  10.244   8.723  14.995
80879W        W47310  11.182  37.048   1.181
80880W        W47311  33.548   9.836  14.492
80881W        W47312  19.902  25.887   0.755
80882W        W47313  43.076  22.106   3.896
80883W        W47314  26.107   9.445   4.602
80884W        W47315  24.618   6.949  14.950
80885W        W47316   4.985  32.609   1.271
80886W        W47317  32.355  35.474   2.099
80887W        W47318   9.835  28.134  12.051
80888W        W47319   2.681  41.038  14.243
80889W        W47320  31.135  25.670   1.799
80890W        W47321  18.639  31.903   3.716
80891W        W47322  26.271  42.088   1.150
80892W        W47323  16.685  25.248  10.272
80893W        W47324   6.178  37.416   4.995
80894W        W47325  24.768  20.920   4.333
80895W        W47326  17.121  39.381   2.639
80896W        W47327  34.755  22.822  11.614
80897W        W47328  33.335  19.116   3.675
80898W        W47329  17.662  20.567  14.300
80899W        W47330  11.588  25.686  14.815
80900W        W47331  23.440  20.066   0.975
80901W        W47332   5.779  28.699  14.495
80902W        W47333  10.828  11.197  12.897
80903W        W47334  38.236  37.987   2.395
80904W        W47335   7.103  13.051  11.037
80905W        W47336  17.564   3.194  14.829
80906W        W47337   3.425  18.270   2.133
80907W        W47338  11.724   8.211  11.543
80908W        W47339  19.362  20.975  11.072
80909W        W47340  24.497  13.875  13.151
80910W        W47341  15.094  34.057   2.416
80911W        W47342   6.050  27.204   1.491
80912W        W47343   4.810   9.406  12.663
80913W        W47344  22.972  17.050   1.533
80914W        W47345   1.424  31.490   3.646
80915W        W47346  32.535  42.084  10.539
80916W        W47347  22.037  20.924  13.035
80917W        W47348  15.351   7.280  11.560
80918W        W47349  17.749  22.087  13.570
80919W        W47350  21.701  31.882  13.901
80920W        W47351  18.187   1.013   0.404
80921W        W47352  12.042  20.223  10.546
80922W        W47353  16.250  32.644   4.559
80923W        W47354  42.806   4.720   2.295
80924W        W47355  32.176  32.733   2.134
80925W        W47356  16.062  21.566   0.480
80926W        W47357   6.733   1.030   4.368
80927W        W47358  42.519  30.962  11.531
80928W        W47359  22.970  15.390  12.587
80929W        W47360  38.766  25.614   0.300
80930W        W47361  17.762  43.793   1.314
80931W        W47362   8.876  23.620   4.117
80932W        W47363  32.113   6.510  10.214
80933W        W47364  19.196   9.784  10.699
80934W        W47365  43.334   0.830   3.640
80935W        W47366  22.941   0.773  14.011
80936W        W47367   7.123  24.391   0.002
80937W        W47368  42.913  12.392  11.265
80938W        W47369  23.115  25.739  14.358
80939W        W47370  35.161  32.900  14.318
80940W        W47371   6.152  33.940  11.513
80941W        W47372  29.209  12.304   1.465
80942W        W47373   3.843  40.524   1.426
80943W        W47374   9.589  26.042  10.414
80944W        W47375  25.843  43.006   3.889
80945W        W47376  11.637  42.829   3.381
80946W        W47377  21.525  34.625  13.957
80947W        W47378  19.592  17.252   4.081
80948W        W47379   8.958   8.335  14.394
80949W        W47380   2.798  33.506  12.480
80950W        W47381   1.219  32.169  12.513
80951W        W47382  27.013  28.732  13.503
80952W        W47383  39.553  43.459  14.438
80953W        W47384  29.862  38.874  11.212
80954W        W47385   4.297   3.195   4.610
80955W        W47386  15.224  12.030   0.897
80956W        W47387  26.427  34.031  11.673
80957W        W47388  12.439  26.161   4.085
80958W        W47389  26.369  13.772  10.773
80959W        W47390  44.364   8.621  10.852
80960W        W47391  15.279  37.070   3.570
80961W        W47392  22.376  42.613   0.561
80962W        W47393  27.229   0.038  13.905
80963W        W47394   9.375  18.615  14.387
80964W        W47395  20.680  23.785   0.523
80965W        W47396  40.078  25.674  10.643
80966W        W47397  24.241  19.452  13.738
80967W        W47398   0.544  44.841   3.128
80968W        W47399  31.023  18.453   4.362
80969W        W47400  22.265  40.463  11.477
80970W        W47401  33.605   2.332  10.639
80971W        W47402  38.502   7.525  14.383
80972W        W47403   7.330  10.499   2.327
80973W        W47404  31.075  18.581  13.325
80974W        W47405  15.092  43.966   3.762
80975W        W47406  27.219  16.322   0.864
80976W        W47407  19.194  33.635  11.110
80977W        W47408  20.496  27.961  11.469
80978W        W47409  18.548  20.785   4.925
80979W        W47410   8.875  25.007   3.953
80980W        W47411   8.128   5.005   2.339
80981W        W47412   9.756  15.331   1.781
80982W        W47413  10.216   4.167   3.136
80983W        W47414  24.277  42.977   2.474
80984W        W47415  18.246   4.479   1.835
80985W        W47416  39.948   0.474  13.363
80986W        W47417  25.545  33.303   0.953
80987W        W47418  40.897   8.800  14.112
80988W        W47419  31.894  42.538   0.057
80989W        W47420   9.359  17.729   1.970
80990W        W47421   7.114   8.132   2.862
80991W        W47422  42.619  32.416   3.043
80992W        W47423   1.989  28.489  10.759
80993W        W47424  32.771  44.798  10.873
80994W        W47425  44.333  37.481   4.090
80995W        W47426  25.749   4.993  10.275
80996W        W47427  44.502  33.618  13.179
80997W        W47428  14.130  27.447  11.979
80998W        W47429  20.181  13.362  12.335
80999W        W47430  21.980  26.993   3.763
81000W        W47431   7.403  13.843   1.925
81001W        W47432  41.287  25.097   2.081
81002W        W47433   2.492  44.710   3.086
81003W        W47434  38.040  23.383   1.705
81004W        W47435  25.447  36.845  14.816
81005W        W47436   6.455   7.344   4.113
81006W        W47437  22.411  34.135   4.104
81007W        W47438   7.581  16.519  14.703
81008W        W47439  25.910  34.002  14.427
81009W        W47440  15.303  34.611   2.444
81010W        W47441  22.329  32.731  12.574
81011W        W47442   6.544   5.710  10.887
81012W        W47443  16.821   0.508  11.276
81013W        W47444  21.628  32.419  12.005
81014W        W47445  29.602  42.465   4.276
81015W        W47446  44.512  13.047   1.229
81016W        W47447  43.399  31.513   0.299
81017W        W47448   7.096   8.896   0.235
81018W        W47449  18.100  29.970  13.012
81019W        W47450  10.902   3.009  14.603
81020W        W47451  15.521   9.827  11.664
81021W        W47452  26.346  43.960  13.340
81022W        W47453  24.544  23.447   1.328
81023W        W47454  32.371  10.656  12.013
81024W        W47455  13.202  39.732   1.727
81025W        W47456  12.865  26.951  14.096
81026W        W47457  36.445  19.340   2.359
81027W        W47458  33.148   9.840   3.252
81028W        W47459   1.150  30.415  11.130
81029W        W47460  10.653  10.850   3.711
81030W        W47461  23.037   9.678  10.618
81031W        W47462  43.443   0.362   3.397
81032W        W47463  17.744  19.289  12.173
81033W        W47464  37.031  29.882  12.889
81034W        W47465  38.323  26.887   0.171
81035W        W47466  24.605  16.855   3.179
81036W        W47467  18.038  42.521   0.325
81037W        W47468   7.284  28.493  14.454
81038W        W47469  44.415  37.496  12.447
81039W        W47470  34.125  34.100  13.871
81040W        W47471  22.819  11.835  14.406
81041W        W47472  18.017   9.780   1.499
81042W        W47473  44.714   1.639   4.188
81043W        W47474   1.377   0.565   0.877
81044W        W47475  28.854  12.244   0.046
81045W        W47476   4.510  42.647   1.255
81046W        W47477  13.678   5.182   1.547
81047W        W47478  20.118   4.355  14.042
81048W        W47479  10.370  32.821   1.201
81049W        W47480  27.472  16.363   2.761
81050W        W47481  21.945  42.865  12.969
81051W        W47482  29.213  29.854   3.185
81052W        W47483   0.756  21.824  11.545
81053W        W47484  33.544  12.182   4.610
81054W        W47485  17.692  23.934  12.723
81055W        W47486   5.069  17.343  11.993
81056W        W47487  17.885   4.141   5.517
81057W        W47488  40.089  14.553   0.776
81058W        W47489  24.780  36.155  12.973
81059W        W47490  40.399  44.909   4.867
81060W        W47491  37.958  27.241   0.581
81061W        W47492  25.769  43.310  13.441
81062W        W47493  34.162  28.056  12.427
81063W        W47494  16.915  37.375   2.224
81064W        W47495  19.274   0.824   4.449
81065W        W47496   3.287   9.397   4.503
81066W        W47497  29.335  14.018   4.576
81067W        W47498  33.395  29.944   1.668
81068W        W47499  16.590  44.911   4.165
81069W        W47500   3.201  35.570   4.718
81070W        W47501  41.946   7.664   1.356
81071W        W47502  11.624  29.500   2.785
81072W        W47503  18.273  26.598  10.710
81073W        W47504   4.684  25.163   1.140
81074W        W47505  38.965  20.627  13.301
81075W        W47506  28.185  30.888   3.151
81076W        W47507  21.060  14.678  13.278
81077W        W47508  14.559  25.274   3.720
81078W        W47509  43.456  41.957   0.453
81079W        W47510  21.523  43.550   1.636
81080W        W47511  18.082   3.057   3.207
81081W        W47512   6.439  44.875  13.500
81082W        W47513  11.333  28.679  13.704
81083W        W47514   1.230   1.924  14.366
81084W        W47515   2.836  42.817  11.164
81085W        W47516  19.133   4.250  11.040
81086W        W47517  22.741  14.668   2.220
81087W        W47518  24.268  23.509  12.820
81088W        W47519  23.089  23.638  11.807
81089W        W47520  27.428   9.772   0.473
81090W        W47521   6.300  25.661   4.355
81091W        W47522   0.082  29.967  11.621
81092W        W47523  18.265  28.095  12.094
81093W        W47524  41.583  31.945   2.301
81094W        W47525   8.614  40.289  13.281
81095W        W47526  23.647  36.544   0.055
81096W        W47527  34.828  21.139  10.799
81097W        W47528  38.292   9.334   0.982
81098W        W47529  20.913  33.942  13.790
81099W        W47530  36.679  30.761  10.741
81100W        W47531  35.602  26.470   1.742
81101W        W47532  30.211  28.868  10.699
81102W        W47533  44.824   0.025  13.390
81103W        W47534  27.650   5.672  13.973
81104W        W47535  44.341  43.866   4.869
81105W        W47536  23.348   6.276  14.916
81106W        W47537   0.352   1.580  11.495
81107W        W47538   4.381   7.237  12.633
81108W        W47539   7.866  16.363   0.112
81109W        W47540  12.259  35.414  11.607
81110W        W47541   7.869   2.919   1.878
81111W        W47542  37.473  40.579  10.759
81112W        W47543   6.465  31.139  12.458
81113W        W47544  35.380  44.730   1.845
81114W        W47545  44.672  41.736   4.070
81115W        W47546  14.526  32.386   0.010
81116W        W47547   2.375  22.387   3.195
81117W        W47548  43.790   3.385   2.401
81118W        W47549  22.115  39.059   2.349
81119W        W47550  32.237  43.468   0.274
81120W        W47551  30.801  12.674  12.488
81121W        W47552  35.992  20.071   2.849
81122W        W47553  16.354   0.463   0.664
81123W        W47554  24.355  25.916   1.477
81124W        W47555  37.010  39.927   0.228
81125W        W47556  30.370   1.720   1.336
81126W        W47557  24.517  38.469  14.900
81127W        W47558  38.685  12.698   2.401
81128W        W47559  38.918  21.833  13.633
81129W        W47560  33.424  44.422  11.694
81130W        W47561  22.335  44.006   0.538
81131W        W47562  23.022  32.126   2.275
81132W        W47563  10.526  25.117   1.647
81133W        W47564   4.715  17.521  11.662
81134W        W47565   9.270  23.284   4.065
81135W        W47566   5.097  21.456  13.412
81136W        W47567  19.500  29.018   4.703
81137W        W47568  43.814  28.640  12.489
81138W        W47569  17.771   0.355  14.364
81139W        W47570  14.682  41.312  11.523
81140W        W47571  25.078  14.745  11.676
81141W        W47572  38.452  43.490   4.074
81142W        W47573   7.952  28.558   4.544
81143W        W47574  13.618  16.245   3.230
81144W        W47575   1.599  21.009   3.682
81145W        W47576  42.766  28.114   1.236
81146W        W47577   1.031   2.436  14.497
81147W        W47578  12.654   3.412   0.374
81148W        W47579  29.899  35.884   4.256
81149W        W47580   6.626  25.214   1.406
81150W        W47581  31.402  16.608  11.097
81151W        W47582   2.308  29.397   3.641
81152W        W47583  34.150   9.674  11.201
81153W        W47584  44.088  16.669  14.200
81154W        W47585  29.568  12.258   0.609
81155W        W47586  43.993  19.133  14.322
81156W        W47587   1.168  29.269  14.786
81157W        W47588  35.548  29.433  10.227
81158W        W47589   4.332  39.468  14.991
81159W        W47590   1.859  18.833  11.713
81160W        W47591  26.761  17.635  12.193
81161W        W47592  15.776  19.516  10.676
81162W        W47593  16.563  17.644  14.494
81163W        W47594  21.240  33.476   0.728
81164W        W47595  34.480  42.793  12.335
81165W        W47596  25.481   7.901  10.235
81166W        W47597  16.837  43.793  11.779
81167W        W47598  38.925  44.886   0.183
81168W        W47599  19.815  12.149   4.948
81169W        W47600   6.306  29.653  14.050
81170W        W47601  31.129  32.473  14.555
81171W        W47602  30.450   6.944  13.187
81172W        W47603  35.310  31.479  13.334
81173W        W47604  31.947  20.099   0.312
81174W        W47605  25.004  26.084   0.895
81175W        W47606   7.530  24.756   2.225
81176W        W47607  40.245  39.946  11.512
81177W        W47608  19.611  19.017  11.199
81178W        W47609  17.856  17.389  14.845
81179W        W47610  42.240  18.686   1.746
81180W        W47611   7.920  34.144   2.115
81181W        W47612  14.324  40.024   0.388
81182W        W47613   7.985   7.632   0.370
81183W        W47614  16.316  11.191  12.355
81184W        W47615   9.693  14.319   4.021
81185W        W47616  25.462  17.767  13.476
81186W        W47617  24.740   1.632   3.710
81187W        W47618  14.400   3.067   3.382
81188W        W47619   3.719  37.300  11.602
81189W        W47620  20.075  10.370  14.815
81190W        W47621  33.593   6.445   9.818
81191W        W47622  38.773  34.705   0.322
81192W        W47623  27.162   3.654   2.004
81193W        W47624   6.332  21.440  13.831
81194W        W47625   1.415  32.494  11.498
81195W        W47626  41.785   7.766   2.684
81196W        W47627  27.697  20.596   2.227
81197W        W47628  15.861   5.561  11.260
81198W        W47629   5.211  13.356   4.907
81199W        W47630  11.695   8.879   0.445
81200W        W47631  26.669   1.461   3.505
81201W        W47632   2.904   8.097  11.645
81202W        W47633   7.740  16.479  12.086
81203W        W47634  43.040  32.208  14.876
81204W        W47635  29.687  16.624  14.283
81205W        W47636  27.246  28.143   2.495
81206W        W47637  21.606  13.726  12.484
81207W        W47638  16.283   1.885  13.604
81208W        W47639  24.582  37.597   4.933
81209W        W47640  37.334   5.706  12.612
81210W        W47641  33.648  13.155  13.464
81211W        W47642   9.718  25.034  12.967
81212W        W47643   1.919  26.230   0.231
81213W        W47644  13.408  14.426  12.957
81214W        W47645  22.101   4.830  12.005
81215W        W47646  35.699  42.088   2.263
81216W        W47647  37.653  26.512  12.558
81217W        W47648  29.222  38.644   0.859
81218W        W47649  39.487  20.098  10.763
81219W        W47650  21.038   9.408  12.814
81220W        W47651  42.353   3.261   4.355
81221W        W47652   7.100  16.339  11.666
81222W        W47653  15.244  32.295  14.324
81223W        W47654  12.660   6.440  10.120
81224W        W47655  25.219  39.268  13.819
81225W        W47656   0.101  20.114   3.159
81226W        W47657  15.471  12.332   4.066
81227W        W47658  12.499   2.162   4.584
81228W        W47659  38.479  35.943   4.253
81229W        W47660  20.816  12.860   0.030
81230W        W47661  24.746  35.512   4.515
81231W        W47662  40.449  11.426   2.740
81232W        W47663  11.326  15.627  11.951
81233W        W47664  26.667  15.018  10.800
81234W        W47665  28.198  42.436  14.822
81235W        W47666  18.420   4.717  11.369
81236W        W47667   3.803  27.222  13.895
81237W        W47668  10.879  39.307   3.106
81238W        W47669  41.967  35.941  13.336
81239W        W47670  39.925  40.450   1.428
81240W        W47671   7.246  37.512   2.746
81241W        W47672   8.244   0.969   1.926
81242W        W47673  40.113  20.122   2.428
81243W        W47674  44.393  25.183   2.304
81244W        W47675  25.975   5.344   4.255
81245W        W47676  39.541  41.020  14.858
81246W        W47677  43.692  17.684  14.385
81247W        W47678  28.319  26.165  10.574
81248W        W47679  43.251  42.762   3.253
81249W        W47680  30.064  28.746   2.654
81250W        W47681  33.077   5.321  14.361
81251W        W47682  22.591  14.841  11.299
81252W        W47683  29.400  31.931   5.042
81253W        W47684  15.826  27.164  12.640
81254W        W47685  43.587  41.771   0.927
81255W        W47686  26.049   6.405  13.433
81256W        W47687  17.251  30.718  12.199
81257W        W47688  42.106   2.278  13.181
81258W        W47689  26.574  40.805   0.910
81259W        W47690  15.716  41.093  11.619
81260W        W47691   6.887  31.843   2.779
81261W        W47692  43.738  28.144  13.014
81262W        W47693  42.560  30.570   2.869
81263W        W47694   2.459  39.537   1.367
81264W        W47695  10.145  36.340   4.657
81265W        W47696  29.439   5.844   2.683
81266W        W47697  37.623   2.653  10.760
81267W        W47698  34.102  44.211  11.101
81268W        W47699   0.450  13.654   2.757
81269W        W47700  32.071  17.638   1.831
81270W        W47701  39.513  44.250  14.720
81271W        W47702  14.716  21.619  14.022
81272W        W47703  13.597  29.339  13.385
81273W        W47704  43.979   6.692   1.430
81274W        W47705  12.256  31.504   2.446
81275W        W47706  34.098   7.842  12.661
81276W        W47707   8.428  37.021   2.117
81277W        W47708  19.652  43.920   1.849
81278W        W47709  42.806  28.286   1.726
81279W        W47710  22.097   2.076  14.987
81280W        W47711  11.164   7.469   1.459
81281W        W47712  11.374   0.371  10.631
81282W        W47713  36.684  17.971   2.448
81283W        W47714  15.565  13.122   2.715
81284W        W47715  44.523   5.856  10.734
81285W        W47716  25.911  22.155  14.376
81286W        W47717  19.253  33.449   0.221
81287W        W47718  37.405  20.247   4.101
81288W        W47719  36.407  42.310  11.846
81289W        W47720  28.971  21.539  14.559
81290W        W47721  34.611  23.116   4.589
81291W        W47722  22.174  22.624   4.231
81292W        W47723  35.915  13.031   5.139
81293W        W47724  17.090  21.634  10.055
81294W        W47725  36.020  19.053  13.779
81295W        W47726  13.464  19.108  11.378
81296W        W47727  43.557  44.264   4.919
81297W        W47728   7.176  32.394  12.008
81298W        W47729  21.235   3.527   2.808
81299W        W47730  38.125  29.472  11.622
81300W        W47731  31.010  12.750  13.440
81301W        W47732  35.575  22.867   1.683
81302W        W47733  44.946   8.891   3.696
81303W        W47734   1.685   0.824  11.483
81304W        W47735  12.083   6.319  10.605
81305W        W47736  19.205  23.462   3.729
81306W        W47737  40.561  34.473   0.947
81307W        W47738  32.578  39.842  12.898
81308W        W47739  26.524   6.306  11.176
81309W        W47740   3.958   4.501   1.402
81310W        W47741   6.748  44.124   4.729
81311W        W47742  41.863   4.203  14.903
81312W        W47743  43.439  13.895  14.834
81313W        W47744  19.741   4.307   2.745
81314W        W47745  23.069  13.330   0.342
81315W        W47746   8.273  35.632   1.440
81316W        W47747   0.459  21.746  12.467
81317W        W47748  37.937  12.456  14.004
81318W        W47749  28.085   1.323  13.233
81319W        W47750  27.332  37.458   1.737
81320W        W47751  26.410  21.234  10.848
81321W        W47752  16.297  35.920  11.893
81322W        W47753  27.654  42.315   3.232
81323W        W47754  13.613  34.915   3.339
81324W        W47755  44.938   8.466  12.160
81325W        W47756   1.304  16.729  10.811
81326W        W47757  34.228  19.249   2.908
81327W        W47758  34.529  40.648  13.484
81328W        W47759  35.040  26.190  10.676
81329W        W47760  11.580  38.402   2.319
81330W        W47761  41.287  11.326  13.666
81331W        W47762   3.728  25.034  14.243
81332W        W47763  29.863  28.918   3.127
81333W        W47764  22.456  29.523  11.227
81334W        W47765  25.903  19.226   1.801
81335W        W47766   8.817  33.835   3.583
81336W        W47767  19.515  12.120  11.481
81337W        W47768  37.452  26.160   2.753
81338W        W47769   4.773  44.670  13.915
81339W        W47770  12.799  44.479   2.309
81340W        W47771  30.436  12.909  10.514
81341W        W47772  41.898  33.587   0.251
81342W        W47773  23.472  10.918  14.183
81343W        W47774  34.097   5.235  14.350
81344W        W47775  36.899  23.795  11.535
81345W        W47776   6.404  27.525  12.128
81346W        W47777   1.366  32.181  13.924
81347W        W47778  35.376  25.566   1.612
81348W        W47779  11.672  42.799  10.558
81349W        W47780  10.131  38.238  12.142
81350W        W47781  14.774   1.072  14.542
81351W        W47782  37.621  21.804  13.965
81352W        W47783  28.175  22.801   5.089
81353W        W47784  44.736   2.822  12.588
81354W        W47785  15.265  13.153  13.027
81355W        W47786   9.445  13.157  12.177
81356W        W47787  22.712  26.078  14.613
81357W        W47788  44.417  17.142   1.894
81358W        W47789   9.223  39.944  13.762
81359W        W47790  40.090   5.752  11.134
81360W        W47791  25.721  32.070   1.489
81361W        W47792  26.678  15.242  12.469
81362W        W47793  21.874  11.119  11.223
81363W        W47794  15.343  29.302  14.943
81364W        W47795  42.046  17.628   1.969
81365W        W47796  25.653  31.231   1.837
81366W        W47797  23.370  35.049  11.178
81367W        W47798  34.674  10.193   4.126
81368W        W47799   8.960   3.227   3.295
81369W        W47800   7.371  11.621   3.777
81370W        W47801  19.017  26.194  10.922
81371W        W47802  26.997  34.630  12.110
81372W        W47803   9.800   4.896  13.481
81373W        W47804  38.335   4.135  14.653
81374W        W47805  38.458   7.806  12.603
81375W        W47806  41.346  10.435  11.197
81376W        W47807   8.736  12.904   0.370
81377W        W47808  18.249  13.492  14.019
81378W        W47809  21.667   9.475   3.388
81379W        W47810  17.248  25.821   0.479
81380W        W47811  25.865  16.892   0.205
81381W        W47812  11.797  37.641  13.487
81382W        W47813  12.537  38.283   4.570
81383W        W47814   3.495  27.269  14.434
81384W        W47815  25.499  21.846  11.241
81385W        W47816  27.445  25.668   2.863
81386W        W47817  18.586   2.879  13.848
81387W        W47818  27.703   1.884   2.736
81388W        W47819  19.961   9.288  11.518
81389W        W47820  26.826  33.660  14.396
81390W        W47821  12.573  37.177   4.228
81391W        W47822  12.758  39.902   2.592
81392W        W47823  14.381  20.559  13.906
81393W        W47824  41.509  25.081   2.708
81394W        W47825  32.826   0.411   3.139
81395W        W47826  19.708   6.706   1.517
81396W        W47827   8.283  31.011  12.971
81397W        W47828  33.616  26.028   1.245
81398W        W47829  14.209  18.529  11.196
81399W        W47830  33.962  20.254   1.957
81400W        W47831  26.811  35.938  10.653
81401W        W47832  16.715  11.066  12.669
81402W        W47833  44.923  44.211  13.727
81403W        W47834  39.615   8.222   3.144
81404W        W47835  44.981  30.496   4.691
81405W        W47836  14.784  19.296   0.268
81406W        W47837  27.662  32.570  14.381
81407W        W47838   9.665  25.982  12.877
81408W        W47839  10.210   3.437  12.391
81409W        W47840   1.787   1.240   4.607
81410W        W47841  16.305  24.162   0.190
81411W        W47842  16.083  41.333   3.424
81412W        W47843   6.623  36.596   0.974
81413W        W47844  32.400  33.366   1.930
81414W        W47845  35.594  25.497   2.906
81415W        W47846  28.230  34.087   0.697
81416W        W47847  27.824   5.837   2.952
81417W        W47848  34.321   3.373   0.219
81418W        W47849   9.608  10.178   0.536
81419W        W47850  17.600  33.304   1.985
81420W        W47851   9.684  22.380   2.266
81421W        W47852  36.769  10.644   4.281
81422W        W47853  29.945   3.725  11.658
81423W        W47854  43.302  32.511   2.228
81424W        W47855  38.414  41.604  13.121
81425W        W47856  20.619  21.225   1.904
81426W        W47857  39.451   2.220   4.326
81427W        W47858  13.637  31.205   4.281
81428W        W47859   3.717   3.964   2.654
81429W        W47860  10.669  34.559   2.188
81430W        W47861  14.858  40.896  10.702
81431W        W47862  29.701  44.968  13.537
81432W        W47863  10.392  41.564  13.545
81433W        W47864  12.140  22.337   1.793
81434W        W47865  38.776  44.288  14.399
81435W        W47866  24.753   9.861  12.966
81436W        W47867  18.626  22.566  11.622
81437W        W47868  28.364  13.224   1.711
81438W        W47869  29.038  34.005   4.462
81439W        W47870   5.595   9.639  14.304
81440W        W47871  42.389  19.213  11.216
81441W        W47872  41.474   7.121   2.248
81442W        W47873   1.193  18.583   2.699
81443W        W47874   0.319  21.485  11.528
81444W        W47875  42.151  23.256  14.350
81445W        W47876  42.427  11.583   0.788
81446W        W47877   2.148  31.177  14.670
81447W        W47878  12.990   2.838  11.503
81448W        W47879   2.635   1.392   0.918
81449W        W47880   4.355   3.082   1.854
81450W        W47881  14.306  22.709   3.425
81451W        W47882   3.359  26.725   1.895
81452W        W47883  18.642  32.384  10.502
81453W        W47884  30.436  20.760  12.416
81454W        W47885  14.786  19.787  14.319
81455W        W47886  22.665  20.266  12.961
81456W        W47887  29.660  11.805   0.874
81457W        W47888  38.027  36.964  14.055
81458W        W47889  17.115  31.929   1.403
81459W        W47890   0.694   0.344   1.422
81460W        W47891  25.595   6.257  13.243
81461W        W47892  13.362  29.987   0.505
81462W        W47893  23.654  32.169  11.267
81463W        W47894  33.351  12.889   1.694
81464W        W47895  18.076   0.226  10.568
81465W        W47896  41.810   3.350  10.798
81466W        W47897  10.874  20.208  12.004
81467W        W47898  35.134  18.745  13.535
81468W        W47899   8.912  35.495  13.842
81469W        W47900  39.125  36.178  13.927
81470W        W47901  22.814  21.194   3.355
81471W        W47902   1.199  10.066   3.302
81472W        W47903  44.783  18.501  11.125
81473W        W47904  10.538   6.383  12.109
81474W        W47905  17.223   9.269  14.421
81475W        W47906  14.234  19.559   2.392
81476W        W47907   7.863  21.724  11.501
81477W        W47908   9.290  21.886   4.469
81478W        W47909  14.816  26.477  10.848
81479W        W47910   0.362  30.891  13.452
81480W        W47911  11.935   5.447  12.631
81481W        W47912  29.475  13.736  11.588
81482W        W47913  31.112  29.415  14.051
81483W        W47914  27.179  28.644   3.850
81484W        W47915  34.899  30.566  11.406
81485W        W47916  35.238  32.481   2.330
81486W        W47917  41.345  24.940  11.287
81487W        W47918  33.120  41.537  14.702
81488W        W47919   4.461  37.600   2.403
81489W        W47920   3.837  37.926   1.279
81490W        W47921  34.000   8.796  11.622
81491W        W47922  42.509  16.743  13.387
81492W        W47923   8.104  34.458  11.180
81493W        W47924  43.040  20.102   3.162
81494W        W47925   9.183  19.652   0.514
81495W        W47926  18.658  14.416  13.568
81496W        W47927  33.342  25.924  14.080
81497W        W47928  29.572   2.870  10.708
81498W        W47929  38.500   5.234   1.431
81499W        W47930  27.061  42.769  12.547
81500W        W47931  25.746  40.870  12.823
81501W        W47932  38.044  11.165   2.871
81502W        W47933  35.854   5.209  10.663
81503W        W47934  17.017   1.599  12.595
81504W        W47935  28.159   4.189   9.839
81505W        W47936  43.682  12.340   2.722
81506W        W47937  43.513   9.269  14.988
81507W        W47938  23.357  41.720  14.884
81508W        W47939  30.982  31.510  11.356
81509W        W47940  35.417  38.229   1.200
81510W        W47941  36.843  19.701   0.224
81511W        W47942  36.638   8.617  10.288
81512W        W47943  42.294  25.456  11.128
81513W        W47944  29.967   2.340   4.175
81514W        W47945   5.266  31.839  13.423
81515W        W47946  11.119  31.029  14.800
81516W        W47947  38.770   2.905   1.728
81517W        W47948   6.876   8.653  13.385
81518W        W47949  33.969  32.123  11.675
81519W        W47950  10.056  10.771   3.796
81520W        W47951  32.914  44.345  14.880
81521W        W47952  12.051  33.532  12.718
81522W        W47953  38.126   7.794  14.982
81523W        W47954  27.013  31.940  11.579
81524W        W47955  18.834   7.663   3.581
81525W        W47956  32.206  16.187  10.452
81526W        W47957   5.302   6.516  11.064
81527W        W47958  42.183  19.470  12.829
81528W        W47959  37.823  10.610  12.463
81529W        W47960   0.235   3.976  10.978
81530W        W47961   5.465  30.480  11.153
81531W        W47962  18.726  26.029  12.669
81532W        W47963  13.269   8.144  13.496
81533W        W47964  11.896  12.638  10.491
81534W        W47965  12.839  35.377   1.712
81535W        W47966  29.991  26.200  12.556
81536W        W47967  22.943   8.110   1.882
81537W        W47968  37.775  38.436  13.339
81538W        W47969   4.490  12.653  11.097
81539W        W47970   4.786   4.915  14.419
81540W        W47971  12.278  35.240   4.902
81541W        W47972   0.002  17.643  12.132
81542W        W47973   2.334  26.037  11.361
81543W        W47974  18.631  31.881  11.225
81544W        W47975  19.773  16.091   0.903
81545W        W47976  30.740  27.706   3.165
81546W        W47977  15.035   4.960  11.177
81547W        W47978  22.246   6.857   0.405
81548W        W47979  31.657   7.584  11.963
81549W        W47980   4.182  24.064   1.439
81550W        W47981  17.237   4.271  11.862
81551W        W47982  36.469   0.470  12.608
81552W        W47983  40.872  42.601   1.921
81553W        W47984  35.330  26.519  13.889
81554W        W47985  22.095   4.905  13.428
81555W        W47986  20.626  16.850  14.815
81556W        W47987  43.057  43.596  13.903
81557W        W47988  38.812  43.334   3.373
81558W        W47989  39.947   9.713   1.176
81559W        W47990   7.916  27.986  12.461
81560W        W47991  26.107  27.963   3.228
81561W        W47992  42.320   9.883  12.461
81562W        W47993  40.917   8.289  11.032
81563W        W47994   8.698  24.031   2.373
81564W        W47995   2.891  25.012  10.730
81565W        W47996  41.458  18.994  10.738
81566W        W47997  30.323  13.667   1.227
81567W        W47998   9.622  21.713  13.794
81568W        W47999  17.472  21.532   0.308
81569W        W48000   3.096  11.966   0.893
81570W        W48001   9.229  11.774   4.985
81571W        W48002  41.186  41.927  12.582
81572W        W48003  38.274  40.404   1.326
81573W        W48004  19.765  31.194   4.558
81574W        W48005  41.067  12.356  12.545
81575W        W48006  10.484  13.110  13.079
81576W        W48007  23.935  24.537  14.993
81577W        W48008   0.350   1.753   2.272
81578W        W48009  15.829   4.380   2.729
81579W        W48010  28.230  43.347   1.474
81580W        W48011  13.120  27.723   1.442
81581W        W48012  16.624  32.985  13.404
81582W        W48013  39.129   2.864  10.159
81583W        W48014  30.585   2.889   1.633
81584W        W48015   8.176  31.510  13.529
81585W        W48016  35.684   2.394  12.521
81586W        W48017  36.515  38.519  12.623
81587W        W48018   8.567  15.727  14.894
81588W        W48019   4.777  30.078   0.780
81589W        W48020  12.331  30.905  14.868
81590W        W48021  29.079  25.264   2.153
81591W        W48022  16.665  16.900   1.517
81592W        W48023  10.292  42.035   3.341
81593W        W48024  16.443  16.472   4.421
81594W        W48025  29.761  22.101   3.987
81595W        W48026  21.988  10.738   2.236
81596W        W48027  42.272  41.018  12.554
81597W        W48028  36.023  21.535   3.772
81598W        W48029   3.018  37.146   3.318
81599W        W48030  27.661  31.604   2.649
81600W        W48031  43.296  33.383   3.220
81601W        W48032   3.635  16.244  11.963
81602W        W48033  24.544  25.962   2.683
81603W        W48034  11.714  19.108   3.373
81604W        W48035  26.999  28.958  11.645
81605W        W48036  19.104  33.157   1.085
81606W        W48037  18.350  12.515   1.551
81607W        W48038  21.213   3.779   3.871
81608W        W48039  40.283  41.467   3.178
81609W        W48040  25.097  37.163  14.563
81610W        W48041  28.821  13.876   2.246
81611W        W48042   8.288  37.130  11.140
81612W        W48043  30.245   7.900   2.197
81613W        W48044  13.290  30.484  10.682
81614W        W48045   3.268  27.475   0.331
81615W        W48046   1.419  40.086   4.082
81616W        W48047  16.128  36.585  11.599
81617W        W48048  26.650  33.533   5.134
81618W        W48049  29.328  37.365   2.755
81619W        W48050  44.930  39.102  14.016
81620W        W48051  18.024  18.656   2.212
81621W        W48052   9.928  22.758   3.432
81622W        W48053   6.511   3.290  10.986
81623W        W48054  36.772  30.636  14.799
81624W        W48055  44.284  20.546   2.292
81625W        W48056  17.766  12.111   3.268
81626W        W48057   1.417  40.720   0.782
81627W        W48058  36.279  28.923  10.257
81628W        W48059  39.068  27.057   3.232
81629W        W48060   1.442  30.061  14.475
81630W        W48061  40.290  33.454  10.863
81631W        W48062   2.790  12.340  11.383
81632W        W48063  30.213  21.289  10.635
81633W        W48064   1.918  16.300   4.037
81634W        W48065  11.108  40.213  12.767
81635W        W48066  27.191   9.645  12.847
81636W        W48067  17.045  13.185  11.906
81637W        W48068  43.788  32.572   2.649
81638W        W48069  10.180   5.725  10.346
81639W        W48070   2.779  35.563   2.274
81640W        W48071  19.905  29.014   1.414
81641W        W48072  15.631  15.224   2.287
81642W        W48073  17.601  33.816   0.264
81643W        W48074  29.895  25.681   1.493
81644W        W48075  37.951   3.919   4.309
81645W        W48076  21.572  15.369  14.262
81646W        W48077  23.260   5.629  14.106
81647W        W48078   4.335  24.496  14.133
81648W        W48079  27.752  13.190  13.050
81649W        W48080  31.417  13.053  13.045
81650W        W48081  31.341  28.527   1.759
81651W        W48082  25.622  14.058  13.072
81652W        W48083  21.831  26.190   0.940
81653W        W48084  37.788  30.585   3.445
81654W        W48085   0.357  16.142   1.211
81655W        W48086  36.419  34.104  14.491
81656W        W48087  19.683  40.556  10.417
81657W        W48088  41.807  27.122   0.467
81658W        W48089  19.210   1.323   0.897
81659W        W48090  28.908   6.633  14.378
81660W        W48091  30.875   3.772  10.620
81661W        W48092   6.441  20.127   2.225
81662W        W48093  39.500  20.513  13.087
81663W        W48094  44.515  39.559   1.203
81664W        W48095  38.466  43.733  11.556
81665W        W48096  43.003  16.633   2.421
81666W        W48097  20.150  31.042  11.259
81667W        W48098  40.930   0.351  12.513
81668W        W48099  12.890   4.669   1.098
81669W        W48100  20.156  20.480  13.545
81670W        W48101  40.790  44.395   1.952
81671W        W48102  42.056   5.346   0.659
81672W        W48103   1.129  31.546   4.584
81673W        W48104  25.644   1.698  14.504
81674W        W48105  29.116   6.146  12.493
81675W        W48106   2.323  30.054  12.328
81676W        W48107  30.102  42.732  10.292
81677W        W48108  10.887  37.304   3.052
81678W        W48109  11.611   1.792   2.096
81679W        W48110   2.219  32.796   0.851
81680W        W48111  17.060  44.691   2.957
81681W        W48112  22.612  29.177   2.702
81682W        W48113   0.961  42.629   2.245
81683W        W48114   7.141   8.685   1.536
81684W        W48115  28.682  29.994  11.980
81685W        W48116   7.720  33.025  11.104
81686W        W48117   2.661   5.560   0.485
81687W        W48118  44.306  40.275  13.961
81688W        W48119   5.179  14.865   3.609
81689W        W48120  34.668  37.853   0.966
81690W        W48121   8.262  27.132   1.254
81691W        W48122  13.197  20.951  13.804
81692W        W48123   5.231  30.216   2.731
81693W        W48124  39.513  42.404  12.884
81694W        W48125   8.663  16.579   1.229
81695W        W48126   2.378  26.983   4.315
81696W        W48127  11.610  22.077   0.454
81697W        W48128  40.197  17.867   4.964
81698W        W48129  21.173   4.645  13.521
81699W        W48130  44.414  38.054  11.666
81700W        W48131   2.515  25.197  10.408
81701W        W48132  28.071  28.009   3.664
81702W        W48133  21.782   0.880  14.134
81703W        W48134  24.460  13.407  14.838
81704W        W48135  21.470  13.324  11.133
81705W        W48136  36.797  11.355  11.621
81706W        W48137   4.700  38.850   0.497
81707W        W48138  17.887  29.335   0.914
81708W        W48139  29.998  28.887   4.213
81709W        W48140   0.451   5.455   3.322
81710W        W48141  13.120  17.063  11.126
81711W        W48142   8.306  32.373  14.419
81712W        W48143  17.301  10.252   4.550
81713W        W48144  31.561   1.938  13.456
81714W        W48145  21.720   0.546   4.177
81715W        W48146  39.856   4.977   1.347
81716W        W48147  19.335  13.855  12.490
81717W        W48148  27.233  18.265  10.098
81718W        W48149  43.278  16.788   4.557
81719W        W48150  23.650  17.348  12.805
81720W        W48151  16.300   5.830  11.180
81721W        W48152  35.509   7.467   2.674
81722W        W48153   4.012  33.228  10.268
81723W        W48154  15.658  38.614  14.851
81724W        W48155  15.332  24.334  14.841
81725W        W48156  27.023   9.724  10.670
81726W        W48157  38.045  17.139   3.846
81727W        W48158  37.927   8.297   2.120
81728W        W48159   9.506  43.280  13.436
81729W        W48160   9.434  15.659  11.961
81730W        W48161  21.574  12.609  13.518
81731W        W48162  30.227  37.736   1.512
81732W        W48163  42.294  31.179   0.335
81733W        W48164  10.174  23.669   3.325
81734W        W48165   3.830  13.580  12.700
81735W        W48166   3.700   9.341   4.066
81736W        W48167  23.239   3.789   1.657
81737W        W48168   8.489  20.115  14.768
81738W        W48169  15.199  21.490   4.843
81739W        W48170  29.430  26.907  11.994
81740W        W48171  31.364   6.207   1.777
81741W        W48172  44.925  35.293   4.315
81742W        W48173  32.191   7.304   1.904
81743W        W48174  24.139  32.740  10.609
81744W        W48175   3.765  36.996  14.437
81745W        W48176  28.237  31.029   0.246
81746W        W48177  19.386  30.040   4.693
81747W        W48178   0.877   8.371  13.999
81748W        W48179  28.424  18.037  14.758
81749W        W48180  31.598  25.537   4.783
81750W        W48181  34.390  15.855   4.063
81751W        W48182  28.283   4.209  14.994
81752W        W48183  44.281  43.819  12.416
81753W        W48184  18.070  28.245  11.628
81754W        W48185   0.158  15.065  13.925
81755W        W48186  24.662  30.639  14.816
81756W        W48187  11.034  27.102   0.855
81757W        W48188  41.917  24.250   4.155
81758W        W48189   9.305  37.187  14.368
81759W        W48190  22.229  11.242  13.507
81760W        W48191  20.053   1.479   4.852
81761W        W48192  10.233   6.211  14.233
81762W        W48193   2.421  42.245   0.547
81763W        W48194   1.311  13.797  14.088
81764W        W48195  35.341   3.857   2.853
81765W        W48196   5.135  17.516   1.322
81766W        W48197  15.425  21.012  13.495
81767W        W48198  14.228  37.132  14.714
81768W        W48199   2.001  33.937  11.808
81769W        W48200   4.801   2.003   2.257
81770W        W48201   5.894  41.107  14.002
81771W        W48202   5.749  29.445  10.504
81772W        W48203  20.082  43.211   4.268
81773W        W48204  35.798  17.482   1.681
81774W        W48205  20.141   6.686  14.367
81775W        W48206  41.343  34.597   2.674
81776W        W48207   6.021   3.483  11.097
81777W        W48208  33.900   1.469   2.874
81778W        W48209  24.471  24.183   0.281
81779W        W48210  16.095  40.858  11.221
81780W        W48211  24.680  39.382  14.896
81781W        W48212  10.611   4.718   0.242
81782W        W48213  42.731  12.604   3.712
81783W        W48214  30.719  20.610  10.687
81784W        W48215  12.844  17.334   1.045
81785W        W48216  34.699  21.606   3.625
81786W        W48217  29.245  22.929   1.418
81787W        W48218  22.674  42.335  10.597
81788W        W48219  44.153   6.265   5.157
81789W        W48220  28.583  40.017   5.126
81790W        W48221  10.941   7.338   1.972
81791W        W48222  28.560  43.801   0.025
81792W        W48223  23.713  29.096  13.081
81793W        W48224   6.855  36.533  12.385
81794W        W48225   7.254  30.007  12.858
81795W        W48226  11.517  39.910  12.007
81796W        W48227  44.283   6.226  12.550
81797W        W48228   4.140  26.967  12.021
81798W        W48229  42.465  18.786  13.506
81799W        W48230  25.247  39.467   3.651
81800W        W48231  12.290  29.369   2.197
81801W        W48232  39.805  33.970   0.737
81802W        W48233  19.338  37.529   2.569
81803W        W48234  33.445  17.941   1.724
81804W        W48235  43.386  21.474  10.442
81805W        W48236  36.690  19.708  11.905
81806W        W48237  40.988  23.593  12.428
81807W        W48238  44.100   3.607   0.440
81808W        W48239  12.880  16.667   1.633
81809W        W48240  29.519  31.702   1.852
81810W        W48241   1.369  37.282  10.737
81811W        W48242  37.607  17.093   1.791
81812W        W48243  39.358  34.919  12.868
81813W        W48244  10.470  10.262   9.957
81814W        W48245  34.840   9.200   1.829
81815W        W48246   0.695  25.352  13.366
81816W        W48247   9.923  42.925  10.683
81817W        W48248  29.232   6.973   3.186
81818W        W48249   1.406  40.531   3.409
81819W        W48250   0.279  18.972  13.718
81820W        W48251   2.981  26.057  14.221
81821W        W48252  15.748  43.516   4.089
81822W        W48253  38.329  28.951  10.882
81823W        W48254   8.746  43.732  12.367
81824W        W48255   8.844  27.139  13.911
81825W        W48256  22.819  34.998  13.878
81826W        W48257  23.604   5.695  12.140
81827W        W48258  26.224   4.285   1.181
81828W        W48259  41.299  26.846   4.692
81829W        W48260  32.047  14.813   4.342
81830W        W48261  16.809  17.296   3.649
81831W        W48262  29.014  18.741   2.220
81832W        W48263  26.075  31.373  12.691
81833W        W48264  16.141  10.796   2.325
81834W        W48265  23.060   8.574  11.681
81835W        W48266  22.382  28.558  12.964
81836W        W48267  33.369  20.751  14.439
81837W        W48268  15.808  20.140   2.446
81838W        W48269  11.749  36.017   1.419
81839W        W48270   6.758  16.278  12.765
81840W        W48271   0.680   6.799  10.999
81841W        W48272  44.520  29.295   3.646
81842W        W48273   7.274  36.204  12.534
81843W        W48274  37.997  40.406  13.452
81844W        W48275  19.898  23.408   5.025
81845W        W48276   8.867   0.045   1.717
81846W        W48277  25.415  20.129   4.135
81847W        W48278  28.622   7.793   4.299
81848W        W48279  39.612  18.373   0.637
81849W        W48280   4.316  19.701   0.829
81850W        W48281  17.773  28.638  10.715
81851W        W48282   1.867  30.875   3.718
81852W        W48283  22.912  26.486   3.657
81853W        W48284  41.275  23.783   3.068
81854W        W48285  21.052  33.953  11.470
81855W        W48286  42.297  16.638  11.083
81856W        W48287  12.373   6.634  10.902
81857W        W48288   9.084   0.239  11.975
81858W        W48289  30.008  32.545   1.178
81859W        W48290  31.570   5.729   4.795
81860W        W48291  21.588  27.632  13.263
81861W        W48292  26.560  21.629   1.890
81862W        W48293  25.628  17.234  12.962
81863W        W48294  35.862  31.491   0.020
81864W        W48295  30.399  37.560   0.343
81865W        W48296  20.537   5.264   2.550
81866W        W48297  21.499   3.919   1.330
81867W        W48298  43.359  44.473   4.288
81868W        W48299  20.565   7.314   1.246
81869W        W48300  22.994  37.643   1.902
81870W        W48301  11.817  17.593  10.620
81871W        W48302  20.962  20.622   4.193
81872W        W48303  20.329  12.111  10.960
81873W        W48304  44.489   0.420  14.311
81874W        W48305  37.342  42.092   1.754
81875W        W48306  35.601  10.865  12.110
81876W        W48307  30.041  30.172  11.516
81877W        W48308  39.333  27.650   0.013
81878W        W48309  29.963  43.413   3.887
81879W        W48310   1.949  30.377  11.440
81880W        W48311  25.178  25.040   2.901
81881W        W48312  37.450  22.954  10.649
81882W        W48313  37.032  30.086   3.150
81883W        W48314  36.839   3.945  14.600
81884W        W48315  13.218  27.879   0.191
81885W        W48316  40.388  14.486  10.564
81886W        W48317  28.660  14.781   4.699
81887W        W48318  30.873  19.295   1.022
81888W        W48319   9.168  24.124  14.442
81889W        W48320  13.105  37.109   3.245
81890W        W48321  22.279   1.738  14.602
81891W        W48322  24.674  32.973   0.365
81892W        W48323   8.880  11.906  14.056
81893W        W48324  33.519  21.487   1.603
81894W        W48325  24.221   6.678   2.790
81895W        W48326  43.424  13.171   1.874
81896W        W48327  38.971   5.002   1.472
81897W        W48328   5.171  17.385  10.814
81898W        W48329   7.569   9.591  13.059
81899W        W48330  11.658   8.381   5.000
81900W        W48331  30.316  31.415  13.880
81901W        W48332  19.711  23.227  12.573
81902W        W48333  39.571  31.016  14.500
81903W        W48334   6.919  44.268  14.058
81904W        W48335  35.600  25.175  12.918
81905W        W48336  41.210  31.123  13.802
81906W        W48337  25.111  28.944  11.496
81907W        W48338  44.979  15.803  11.608
81908W        W48339  13.789  38.016  14.355
81909W        W48340  43.027  10.088   0.424
81910W        W48341  34.808  40.938  11.700
81911W        W48342  40.943  38.537   4.644
81912W        W48343   1.675  17.396   3.296
81913W        W48344  11.162   0.440   0.243
81914W        W48345  28.098   2.141  12.564
81915W        W48346  22.668   3.957  11.709
81916W        W48347  26.569   5.091   3.190
81917W        W48348  18.186  15.379  12.881
81918W        W48349  27.185   1.446  12.839
81919W        W48350  44.040  16.210  14.511
81920W        W48351  22.821  43.228  12.155
81921W        W48352   0.256  17.120   1.937
81922W        W48353  18.600   9.363  10.623
81923W        W48354  13.193   2.343   1.157
81924W        W48355  25.401  41.017   1.187
81925W        W48356   6.779  43.472   1.343
81926W        W48357  13.107  14.361   1.684
81927W        W48358  19.559   1.047   4.095
81928W        W48359  36.025  24.459   4.109
81929W        W48360  12.216  20.023   1.790
81930W        W48361  12.400  15.292  13.862
81931W        W48362  15.883  28.057  13.767
81932W        W48363  13.232  40.084   0.364
81933W        W48364  36.698   2.798   4.711
81934W        W48365  37.341  26.688   1.468
81935W        W48366  13.755  39.833   1.751
81936W        W48367   3.263  22.418  12.037
81937W        W48368  39.974  10.140   3.019
81938W        W48369  10.154   5.854   2.791
81939W        W48370   1.386   2.086  11.930
81940W        W48371  31.909  33.937  12.803
81941W        W48372   8.915  10.799   0.949
81942W        W48373  36.296  20.672  14.471
81943W        W48374  13.693  38.266  10.386
81944W        W48375  42.904  19.602   3.792
81945W        W48376   0.790   5.451   2.426
81946W        W48377   7.778  40.528  14.301
81947W        W48378   9.187  24.194   2.372
81948W        W48379  39.013  23.123   4.622
81949W        W48380  18.541   2.177  10.900
81950W        W48381  26.403  42.400  11.475
81951W        W48382  17.433  32.132  10.632
81952W        W48383  42.156   5.358   3.496
81953W        W48384  28.596  36.056  13.427
81954W        W48385  15.747  44.062   4.133
81955W        W48386  33.161  23.761  13.061
81956W        W48387  24.435  32.982  10.244
81957W        W48388  42.483  38.034   4.146
81958W        W48389  26.383  11.528   5.157
81959W        W48390  22.677  24.094  12.902
81960W        W48391  34.183   0.550   0.421
81961W        W48392  43.172  40.421  12.172
81962W        W48393  21.317  41.668  12.064
81963W        W48394  33.307  34.209  14.202
81964W        W48395  17.605  44.759   3.265
81965W        W48396  43.579  37.550   3.376
81966W        W48397  19.125  23.731   2.252
81967W        W48398  30.258  44.256  14.294
81968W        W48399  41.902  31.362  11.682
81969W        W48400  31.210  27.469   0.457
81970W        W48401   3.841  40.342   0.921
81971W        W48402  41.937  44.921  11.105
81972W        W48403   7.416  30.737   2.255
81973W        W48404  17.711  13.075  12.691
81974W        W48405  14.840   6.746  14.384
81975W        W48406  16.727  19.451  11.737
81976W        W48407   8.253  18.157  12.339
81977W        W48408  33.445  31.418  10.632
81978W        W48409  11.141  38.062   0.131
81979W        W48410  23.759  21.770  12.592
81980W        W48411  38.031  10.689   2.654
81981W        W48412  15.506   7.958  10.003
81982W        W48413  10.194  23.565  14.864
81983W        W48414  16.096  26.143  12.510
81984W        W48415  21.803  31.506   2.282
81985W        W48416  26.148  44.187  13.748
81986W        W48417   7.748   9.076   0.776
81987W        W48418  11.448  14.798  10.918
81988W        W48419  28.045   8.525   4.194
81989W        W48420  44.097  18.590   3.656
81990W        W48421   4.530  41.860  12.816
81991W        W48422  40.870  23.473   3.205
81992W        W48423   8.101  16.496  13.808
81993W        W48424   4.922   2.034  12.469
81994W        W48425  33.148   3.346   4.567
81995W        W48426  24.040  30.576   1.392
81996W        W48427  34.325  17.632   0.645
81997W        W48428  36.156   7.240  13.360
81998W        W48429   3.401  18.911   2.100
81999W        W48430   2.288  12.733  14.294
82000W        W48431   2.036  10.145  14.193
82001W        W48432   9.850  24.142   4.703
82002W        W48433  34.225  39.453  12.532
82003W        W48434  26.874  40.435   2.613
82004W        W48435   0.416  27.554   0.832
82005W        W48436  30.612  28.061   0.234
82006W        W48437  36.812  34.916   3.133
82007W        W48438  21.210  24.197   1.865
82008W        W48439  31.137  40.918  12.055
82009W        W48440  10.053  22.445   2.750
82010W        W48441  10.324  11.103   1.581
82011W        W48442   9.999  14.360  11.577
82012W        W48443   1.774   6.113   4.678
82013W        W48444  24.439  33.259  14.919
82014W        W48445  31.730  36.911   1.587
82015W        W48446  43.552  27.856   2.674
82016W        W48447  10.777   8.428  11.653
82017W        W48448  44.048  29.433   0.455
82018W        W48449  25.738   1.004   4.108
82019W        W48450   7.688   3.762   1.685
82020W        W48451   3.823  18.758   2.386
82021W        W48452  22.757  35.174   4.130
82022W        W48453  40.171  34.835   0.191
82023W        W48454  43.355  11.144  14.644
82024W        W48455  42.462   5.140   2.555
82025W        W48456   1.243  12.236   0.649
82026W        W48457  25.305  22.018   1.064
82027W        W48458  31.952  37.490   0.232
82028W        W48459  26.429  22.053  12.550
82029W        W48460   1.407  15.821  12.531
82030W        W48461  17.572  30.140  11.783
82031W        W48462   7.088  16.059   3.258
82032W        W48463   5.307  26.423  13.961
82033W        W48464  43.484   0.868  14.879
82034W        W48465  34.069  28.569  13.561
82035W        W48466  17.175  41.389  13.236
82036W        W48467  27.497  35.512   2.013
82037W        W48468  18.348  43.509   3.113
82038W        W48469  23.426   6.912   0.977
82039W        W48470   9.403  22.211  14.499
82040W        W48471  17.867  26.732   4.636
82041W        W48472  24.594  28.729   2.742
82042W        W48473  43.856  35.743  10.556
82043W        W48474  40.043   6.636   0.965
82044W        W48475   4.698  37.168   0.602
82045W        W48476  36.871   0.561   2.737
82046W        W48477  13.168   6.692  11.183
82047W        W48478  20.958   5.127   3.360
82048W        W48479  24.652  35.016   0.173
82049W        W48480  26.267  32.619   3.250
82050W        W48481  26.403   2.878   1.065
82051W        W48482   3.074   4.700   4.831
82052W        W48483  26.466  30.468   3.139
82053W        W48484  31.529  10.836  11.487
82054W        W48485  15.292  37.952   1.736
82055W        W48486   3.057   7.507   4.318
82056W        W48487   5.532  25.733   1.734
82057W        W48488  31.103  41.621  13.188
82058W        W48489  13.637   8.635  11.421
82059W        W48490  24.521  40.829  13.367
82060W        W48491  32.935  25.720   2.369
82061W        W48492  30.106   9.561  11.949
82062W        W48493  12.041  24.007   4.976
82063W        W48494   9.740   7.718  14.172
82064W        W48495  39.613  26.624  10.691
82065W        W48496  27.364  41.127  14.806
82066W        W48497  34.014  31.989  14.916
82067W        W48498   3.814  16.989  10.665
82068W        W48499  19.087   3.238   4.603
82069W        W48500   1.814  21.973  10.506
82070W        W48501   5.311  35.058  11.879
82071W        W48502   8.617  34.822   3.563
82072W        W48503  21.590  44.844   4.795
82073W        W48504  19.577  44.621   4.948
82074W        W48505  15.018  22.902  11.592
82075W        W48506   2.817  44.742   0.956
82076W        W48507  19.941  23.576   2.104
82077W        W48508  44.914  43.727   1.823
82078W        W48509   6.579  28.264  12.976
82079W        W48510  36.168   2.959   1.706
82080W        W48511  30.991  34.900  11.968
82081W        W48512  13.525  11.236   1.472
82082W        W48513  40.031  43.261  13.033
82083W        W48514  38.828  19.635   4.985
82084W        W48515  33.138   5.346  13.469
82085W        W48516  11.852  33.569  10.539
82086W        W48517   8.801  42.121   1.844
82087W        W48518  44.510  11.809   3.626
82088W        W48519  43.242  42.242  11.675
82089W        W48520  16.929  30.778  14.776
82090W        W48521   4.418  44.842   4.156
82091W        W48522   6.888   4.479   2.812
82092W        W48523  34.547   5.431   1.531
82093W        W48524  18.597  25.085   1.619
82094W        W48525   4.517  29.960   1.311
82095W        W48526   5.669  16.141   2.301
82096W        W48527  44.970   7.708  12.544
82097W        W48528  10.713  25.265  12.829
82098W        W48529  36.475  27.134   1.658
82099W        W48530  44.457  24.130   2.365
82100W        W48531   4.116  22.602  12.859
82101W        W48532  12.598  33.021   2.002
82102W        W48533  26.032  23.164   2.769
82103W        W48534  43.281   4.668  12.026
82104W        W48535  17.243  38.906  11.462
82105W        W48536  43.780  18.151   3.838
82106W        W48537  26.786  33.702   0.290
82107W        W48538  24.778  10.743   0.373
82108W        W48539   3.948  24.885   2.251
82109W        W48540  18.000  34.975  12.945
82110W        W48541  36.324  27.419  11.703
82111W        W48542   5.321   5.018  10.746
82112W        W48543  37.782  25.557   4.137
82113W        W48544  28.324   4.650   1.847
82114W        W48545  13.921  23.906  11.661
82115W        W48546  11.423  36.357   2.355
82116W        W48547   8.706  21.066  14.570
82117W        W48548  23.221   7.455  12.523
82118W        W48549  22.192   4.293   2.797
82119W        W48550  31.116  19.329  10.736
82120W        W48551  30.449   9.426  12.589
82121W        W48552  17.761   0.295   3.392
82122W        W48553  38.610  12.686  13.791
82123W        W48554  34.076  41.606   2.360
82124W        W48555  17.604  16.602  10.636
82125W        W48556  17.498   6.269   0.504
82126W        W48557  44.754  11.675  10.852
82127W        W48558  20.664  14.221  14.961
82128W        W48559  41.457  18.567  14.394
82129W        W48560  41.496  31.008  11.963
82130W        W48561   9.945   5.138  12.460
82131W        W48562  39.234   0.435  14.085
82132W        W48563  44.833   4.204  10.711
82133W        W48564  28.464  18.696   4.616
82134W        W48565   9.804  15.129   3.227
82135W        W48566  27.516  21.647  12.903
82136W        W48567   7.961   4.682   3.706
82137W        W48568   5.053  32.795   4.087
82138W        W48569  18.836  29.536  10.502
82139W        W48570   0.193  44.028   3.228
82140W        W48571   9.458  40.460  12.066
82141W        W48572  27.011  22.779   4.676
82142W        W48573   3.996  10.936   2.369
82143W        W48574  41.488  39.007  14.942
82144W        W48575  33.403   9.448   5.022
82145W        W48576   2.852   3.483  13.122
82146W        W48577  10.352  12.688   0.020
82147W        W48578  22.526  38.034   0.895
82148W        W48579  30.181  10.881  14.833
82149W        W48580   5.400   9.370  11.147
82150W        W48581   4.668   6.229   3.030
82151W        W48582   4.133  33.993  12.515
82152W        W48583  21.514   0.392  14.213
82153W        W48584  33.003  13.045   0.323
82154W        W48585  17.826   9.727   0.298
82155W        W48586  13.442  41.869   2.410
82156W        W48587  44.477   9.105   3.554
82157W        W48588  40.437  10.713  12.425
82158W        W48589   6.716  43.982   1.331
82159W        W48590  24.563  15.967   2.141
82160W        W48591   5.632  40.964  13.587
82161W        W48592  17.491  30.538  11.456
82162W        W48593  20.522  28.831   0.970
82163W        W48594   0.897  38.042  12.344
82164W        W48595  40.942   5.726  13.700
82165W        W48596  18.486  39.828   1.726
82166W        W48597  31.717  34.903  14.238
82167W        W48598  39.160  20.863  12.871
82168W        W48599   3.532  29.348  13.332
82169W        W48600  40.053  27.137   4.156
82170W        W48601  35.938   4.246  11.692
82171W        W48602   2.150  16.242   2.689
82172W        W48603  31.098  21.645   3.670
82173W        W48604  33.363  42.995   3.173
82174W        W48605   7.687   6.323   5.127
82175W        W48606  44.960   1.962  11.980
82176W        W48607  34.262  33.228  10.662
82177W        W48608   6.759  39.034   4.600
82178W        W48609  44.946  32.455  13.272
82179W        W48610  17.286  19.159   2.111
82180W        W48611  35.584  27.651  12.569
82181W        W48612  18.230  15.116  14.889
82182W        W48613  42.023  30.877  14.030
82183W        W48614  33.040   2.654   2.460
82184W        W48615  30.499   0.184   0.452
82185W        W48616  13.051  36.302   2.115
82186W        W48617  17.485   8.308   1.246
82187W        W48618  24.566  25.004   0.470
82188W        W48619   3.930  11.970  11.595
82189W        W48620  44.943  16.075  14.486
82190W        W48621  44.968  39.775  12.939
82191W        W48622  20.757  29.146   1.845
82192W        W48623  18.311  37.833  12.569
82193W        W48624  40.614  35.819   4.112
82194W        W48625  23.967  36.337   3.307
82195W        W48626  10.200  10.153  13.932
82196W        W48627  35.168  38.076  13.197
82197W        W48628   5.166  40.178  13.815
82198W        W48629  24.358  10.775   3.187
82199W        W48630  17.504  28.490   3.409
82200W        W48631  27.604  26.137  14.235
82201W        W48632  38.468  25.120   2.857
82202W        W48633   5.789   0.779   4.708
82203W        W48634  36.880  31.798   3.582
82204W        W48635  18.671   0.221   1.326
82205W        W48636   8.600  25.510   4.633
82206W        W48637  19.055  37.499  10.994
82207W        W48638  10.867  13.014  14.427
82208W        W48639   9.757  31.170   0.227
82209W        W48640  41.066  44.277   2.891
82210W        W48641  11.115   3.882   2.249
82211W        W48642  40.296  20.769   4.592
82212W        W48643  22.757  33.947  10.668
82213W        W48644  36.493   6.252  11.577
82214W        W48645  18.806   3.545   3.773
82215W        W48646   2.421  12.693   3.908
82216W        W48647  12.100  27.684   1.410
82217W        W48648  32.382  31.004  12.959
82218W        W48649  42.771  35.379  12.199
82219W        W48650  40.291  22.456   2.577
82220W        W48651  22.435   8.307   2.579
82221W        W48652  24.014  14.366  11.124
82222W        W48653  16.473  18.152  14.411
82223W        W48654  32.911  39.288   0.879
82224W        W48655  18.593   0.728   2.198
82225W        W48656  12.358   4.863  12.543
82226W        W48657  15.930   6.242   5.442
82227W        W48658   8.701  43.254  11.108
82228W        W48659   8.720  24.624  13.821
82229W        W48660   6.803  27.978   0.727
82230W        W48661  39.785   7.742   3.111
82231W        W48662  28.960   0.832   0.238
82232W        W48663  31.024  11.661  13.903
82233W        W48664  26.018  22.411  10.842
82234W        W48665  16.263  22.452  12.068
82235W        W48666  35.244  12.806   4.055
82236W        W48667   2.240  11.615  14.993
82237W        W48668  19.975  10.188  11.568
82238W        W48669  33.028  39.530  12.091
82239W        W48670  38.401  38.423   0.260
82240W        W48671   0.635  32.032   0.497
82241W        W48672   5.563  17.238  14.027
82242W        W48673  34.828   9.712   1.789
82243W        W48674  26.192   1.915   3.856
82244W        W48675  21.034   8.751   4.417
82245W        W48676  41.219  26.114   0.959
82246W        W48677  44.327   6.697   0.730
82247W        W48678   2.135  37.529   2.400
82248W        W48679  12.985  25.240  10.225
82249W        W48680  12.785  10.377   3.561
82250W        W48681  23.042   7.126   1.855
82251W        W48682  16.447  33.480   3.626
82252W        W48683   5.823  31.478   3.163
82253W        W48684  41.791  23.694   1.200
82254W        W48685  28.311  30.019   4.114
82255W        W48686  19.662  20.903   3.228
82256W        W48687   9.985  36.258   1.138
82257W        W48688  21.603  14.256   0.980
82258W        W48689  30.476   5.911   1.278
82259W        W48690  38.719  22.064   1.870
82260W        W48691  16.032   1.725  12.665
82261W        W48692  38.297  40.363   0.457
82262W        W48693  35.601  35.007   5.079
82263W        W48694   6.904  39.830   3.302
82264W        W48695  30.066  44.118  14.743
82265W        W48696  30.532   5.266   1.359
82266W        W48697  25.468   0.276  14.390
82267W        W48698  24.095   7.373  10.995
82268W        W48699  44.293  26.640  11.472
82269W        W48700  10.296  21.466   2.925
82270W        W48701  20.702  23.212  13.786
82271W        W48702  19.571   6.612  10.706
82272W        W48703  34.425  18.788   0.366
82273W        W48704   9.132  43.840   1.357
82274W        W48705  12.092  24.194   4.144
82275W        W48706   3.909  30.907  11.444
82276W        W48707  38.045   6.170  13.620
82277W        W48708  30.900  44.346   0.604
82278W        W48709  27.287  29.189  12.551
82279W        W48710  42.537  37.820  14.381
82280W        W48711   2.700   0.992  14.918
82281W        W48712  11.945  42.700   4.188
82282W        W48713   7.805  23.533  12.007
82283W        W48714  11.649  28.776  12.844
82284W        W48715  32.999  23.641   0.316
82285W        W48716  10.439  35.895   2.177
82286W        W48717  23.158   8.980   0.385
82287W        W48718  41.457   9.836   4.048
82288W        W48719  11.876  28.664  12.376
82289W        W48720  21.674  11.850  13.039
82290W        W48721  34.960  29.569  11.602
82291W        W48722   5.271  23.661   2.369
82292W        W48723   8.927  24.131   2.832
82293W        W48724  13.613   9.689   0.750
82294W        W48725  28.009  20.498  10.581
82295W        W48726   7.990  28.320   3.243
82296W        W48727  43.459  41.451   2.640
82297W        W48728  12.135  18.293  13.484
82298W        W48729  38.503  13.255  12.045
82299W        W48730  14.111   7.412  11.924
82300W        W48731   5.683  33.190  11.150
82301W        W48732   3.210  36.084  14.799
82302W        W48733  28.005   4.525  11.127
82303W        W48734   3.876   8.154   3.176
82304W        W48735  26.923  21.491  13.952
82305W        W48736  39.995  41.886   4.061
82306W        W48737  42.407  18.500   2.645
82307W        W48738   0.028  15.152  11.040
82308W        W48739   7.667  31.903   3.890
82309W        W48740  18.640  26.339   4.074
82310W        W48741  44.428  33.562   3.778
82311W        W48742   6.278  44.928   0.497
82312W        W48743  40.956   2.901   3.135
82313W        W48744  32.073  34.587  10.684
82314W        W48745  28.724  29.426  12.971
82315W        W48746  22.579  39.793   1.350
82316W        W48747  11.183  27.964   4.469
82317W        W48748   1.718  34.441  11.638
82318W        W48749  15.299  12.664   2.762
82319W        W48750  30.396  44.031  11.550
82320W        W48751  26.422   1.899  11.875
82321W        W48752  29.134  26.163  11.433
82322W        W48753  14.347  11.092   0.468
82323W        W48754   6.144   8.275  14.935
82324W        W48755  18.548  17.525   1.482
82325W        W48756  16.174  38.754   0.757
82326W        W48757  21.513   2.288  13.769
82327W        W48758  14.462  17.780   1.909
82328W        W48759   4.588  24.665   0.229
82329W        W48760  42.029  24.168   4.992
82330W        W48761  28.159   3.766  11.612
82331W        W48762  29.982   1.993   1.668
82332W        W48763  16.850  29.116  10.736
82333W        W48764  13.551   4.816  13.008
82334W        W48765  13.606  25.315   1.267
82335W        W48766  40.006  39.413  14.430
82336W        W48767  44.293   6.403  13.043
82337W        W48768  17.597  34.135   3.306
82338W        W48769  41.511  43.168  10.331
82339W        W48770  41.804  13.147  11.837
82340W        W48771  33.484   4.971  11.566
82341W        W48772  29.916  40.611  12.848
82342W        W48773  44.986  29.975   4.724
82343W        W48774  15.270  41.809  13.072
82344W        W48775  37.974  21.285   4.972
82345W        W48776   7.710  37.383   3.630
82346W        W48777  18.944  24.599  14.535
82347W        W48778   4.063  40.916  13.969
82348W        W48779  39.429  36.645   1.350
82349W        W48780  42.385  34.365  13.902
82350W        W48781  38.484  29.097   0.772
82351W        W48782  37.125  19.850  13.611
82352W        W48783  14.528   5.873   2.374
82353W        W48784  27.033  25.122  12.011
82354W        W48785  26.281  19.183  12.791
82355W        W48786   8.626  14.917   3.706
82356W        W48787  31.602  37.123   0.695
82357W        W48788   4.267  33.148   3.714
82358W        W48789   1.428  23.526  10.807
82359W        W48790  35.621   9.093  13.149
82360W        W48791  16.891  23.898   2.391
82361W        W48792  23.078  22.146   2.709
82362W        W48793  18.535  24.074   5.104
82363W        W48794  33.376  17.662  14.381
82364W        W48795  33.083  41.238  13.825
82365W        W48796  29.011   8.341  10.716
82366W        W48797  38.100  16.890   3.120
82367W        W48798  35.940   7.393  14.824
82368W        W48799  39.914   4.533  14.490
82369W        W48800  24.417  28.568   1.757
82370W        W48801  23.646  43.206  14.745
82371W        W48802  30.920  21.205  11.261
82372W        W48803  42.871  20.175   3.639
82373W        W48804  13.129  33.194  11.164
82374W        W48805  19.943  28.840   1.923
82375W        W48806  18.703  24.713   3.759
82376W        W48807  12.024  24.724   0.240
82377W        W48808  24.089  16.632  12.669
82378W        W48809  30.659   9.304  11.607
82379W        W48810  31.070  22.626  10.371
82380W        W48811  12.261  33.762   3.606
82381W        W48812   7.905  21.086   4.069
82382W        W48813  17.343  22.553   2.367
82383W        W48814   4.239  25.041  11.360
82384W        W48815  13.399  30.083   3.175
82385W        W48816  14.623  38.733  13.516
82386W        W48817  37.281  38.165   5.225
82387W        W48818   9.378   5.217   1.571
82388W        W48819  30.897  32.574   0.496
82389W        W48820  29.470  31.061   0.261
82390W        W48821  11.163  31.338  14.384
82391W        W48822   7.638  25.957  13.110
82392W        W48823  39.243  42.873  12.104
82393W        W48824   5.031  21.977  12.384
82394W        W48825  22.631  31.587   3.572
82395W        W48826  30.069   3.985   1.456
82396W        W48827   0.459   0.171  14.226
82397W        W48828  44.438  13.726   2.757
82398W        W48829  27.609  28.159   1.725
82399W        W48830  28.442  32.887   4.492
82400W        W48831  18.764  10.126  10.679
82401W        W48832  18.307   0.770  12.111
82402W        W48833  25.624  39.174   0.867
82403W        W48834  37.836  12.185  14.452
82404W        W48835   2.306   6.899  12.045
82405W        W48836  37.102  36.365   1.411
82406W        W48837  22.382  13.755   3.450
82407W        W48838  30.067  41.532  13.974
82408W        W48839  37.045  13.218  10.951
82409W        W48840  44.530  28.663  13.842
82410W        W48841  19.208   1.360  12.291
82411W        W48842  32.649  24.249  11.186
82412W        W48843   7.680  29.405   3.316
82413W        W48844   4.967   4.712  10.481
82414W        W48845  11.304  41.681  13.867
82415W        W48846  35.347  43.001  12.757
82416W        W48847  29.239  17.802  11.512
82417W        W48848   7.823  15.659  14.448
82418W        W48849   2.920  11.720   3.291
82419W        W48850  11.165  40.332   4.295
82420W        W48851  36.881  10.068   3.077
82421W        W48852  31.000  24.054   2.238
82422W        W48853   6.922  34.075   4.033
82423W        W48854  19.058  30.021   3.678
82424W        W48855   8.693  42.235  11.117
82425W        W48856  30.863  35.217   4.196
82426W        W48857  24.231  15.067   3.284
82427W        W48858  37.394  16.503   2.655
82428W        W48859  34.029  13.391  13.192
82429W        W48860  23.691  32.519   1.007
82430W        W48861  25.553  28.606   2.404
82431W        W48862  36.444  34.789   4.026
82432W        W48863  38.493  34.448   4.684
82433W        W48864  21.124  44.088  10.215
82434W        W48865  32.857   8.636  12.502
82435W        W48866   4.745  22.207   1.212
82436W        W48867   0.234  22.763  12.064
82437W        W48868   7.994   4.980   3.282
82438W        W48869   4.689  31.144  13.814
82439W        W48870  19.740  11.136  14.472
82440W        W48871  15.125  24.749   1.602
82441W        W48872   9.884  27.431  13.778
82442W        W48873  26.269  42.046  13.428
82443W        W48874  36.030  15.309   0.291
82444W        W48875  23.260   3.374  12.042
82445W        W48876  33.690  29.136   4.267
82446W        W48877  24.915  36.074  14.023
82447W        W48878  23.101   7.758  12.083
82448W        W48879  41.851  37.336  10.378
82449W        W48880  18.087  18.573  11.499
82450W        W48881  18.595  40.927   0.518
82451W        W48882  32.910  14.286  13.877
82452W        W48883   2.414  44.476  12.538
82453W        W48884  32.797  43.673   1.278
82454W        W48885  39.982  23.981   4.185
82455W        W48886   8.069   8.744   4.534
82456W        W48887   9.574  30.729   0.971
82457W        W48888  23.965  39.278   0.430
82458W        W48889  38.823  10.640   4.088
82459W        W48890  40.058  33.067  11.542
82460W        W48891  19.962  31.478  12.419
82461W        W48892  43.983  36.232   4.236
82462W        W48893  12.810   3.065  14.924
82463W        W48894  35.434   9.095  11.062
82464W        W48895  23.808  35.706   1.181
82465W        W48896  18.506   2.788   2.677
82466W        W48897  25.401  27.137  12.402
82467W        W48898  26.536  34.663  14.294
82468W        W48899   1.679  22.974  14.806
82469W        W48900  32.110  14.772  13.091
82470W        W48901   8.207   5.455   2.106
82471W        W48902  10.245  16.060  13.045
82472W        W48903  10.881  11.873  10.481
82473W        W48904  39.239   9.492   1.864
82474W        W48905  34.549  33.824  13.943
82475W        W48906  25.480  40.968  14.434
82476W        W48907   7.702  19.552  12.143
82477W        W48908  29.582   5.125   3.208
82478W        W48909   3.319  11.394   3.352
82479W        W48910  40.030  35.809   2.784
82480W        W48911  36.008  41.318  12.496
82481W        W48912  44.022  18.653  12.516
82482W        W48913  44.756  29.811   0.794
82483W        W48914  30.621  10.791  11.376
82484W        W48915  17.675   2.678   4.159
82485W        W48916  40.464  10.040   0.463
82486W        W48917  24.659  19.931   4.383
82487W        W48918  44.934   3.012   4.628
82488W        W48919  20.714  17.056   2.461
82489W        W48920  30.270  17.703  14.828
82490W        W48921  34.583  27.722  13.327
82491W        W48922  19.556  22.483  12.135
82492W        W48923   0.345  14.826  14.377
82493W        W48924  41.514  37.983   2.803
82494W        W48925  34.622  41.994  11.420
82495W        W48926  20.838  27.542  11.449
82496W        W48927  30.910  10.631  13.948
82497W        W48928  30.404  13.279   0.877
82498W        W48929  10.555  12.220  14.865
82499W        W48930  28.992   4.229  11.641
82500W        W48931   5.399   0.007  10.497
82501W        W48932  24.828  22.288   4.372
82502W        W48933   9.045  10.365   4.259
82503W        W48934   2.433  31.935   1.710
82504W        W48935  36.638  41.782   1.284
82505W        W48936  22.165  32.812   2.895
82506W        W48937  21.743   0.840   2.670
82507W        W48938  22.469  42.611   3.774
82508W        W48939  23.259  17.193   9.828
82509W        W48940   6.736   7.573   4.469
82510W        W48941  22.320   2.030   1.283
82511W        W48942   9.116  10.043   0.429
82512W        W48943  21.127  27.496   4.388
82513W        W48944  41.047  13.059  13.048
82514W        W48945  34.424  43.052   0.909
82515W        W48946  14.275  26.243   0.731
82516W        W48947  22.274  15.287  14.860
82517W        W48948  37.400  13.016  14.294
82518W        W48949   5.286  24.280   1.795
82519W        W48950  11.175   9.608  11.946
82520W        W48951  19.668  11.923  13.999
82521W        W48952  35.875  20.472  13.511
82522W        W48953  34.521  32.338   1.799
82523W        W48954  11.680  34.274  11.633
82524W        W48955   4.792  30.993  12.457
82525W        W48956  13.690  29.104  11.187
82526W        W48957   1.766  22.439   0.697
82527W        W48958   9.662   7.358   1.317
82528W        W48959  41.623  33.468   1.199
82529W        W48960   0.481  11.623  13.420
82530W        W48961  23.572  29.915   1.817
82531W        W48962   8.153   5.385   3.576
82532W        W48963  31.409   6.831   0.960
82533W        W48964   4.748  18.633   1.400
82534W        W48965   0.247   2.917   1.645
82535W        W48966  26.465  15.322  12.949
82536W        W48967   7.041  35.435  14.510
82537W        W48968  10.451  14.114  11.653
82538W        W48969   1.716  10.975  11.190
82539W        W48970  17.078   8.157  12.532
82540W        W48971  40.858   3.207  10.724
82541W        W48972  44.167  21.210   1.759
82542W        W48973  19.614  28.241   2.823
82543W        W48974  30.525   2.488   4.056
82544W        W48975  42.709   2.970  13.385
82545W        W48976  33.371   0.475   2.241
82546W        W48977  33.832   5.682   3.032
82547W        W48978  16.764  35.620  10.736
82548W        W48979  17.296  38.322  12.530
82549W        W48980  11.714  34.085   9.974
82550W        W48981   8.619  29.625   2.500
82551W        W48982  16.563  33.430   4.532
82552W        W48983  10.299  20.082   3.186
82553W        W48984  20.325   2.344   4.668
82554W        W48985  23.692  19.771  14.389
82555W        W48986  30.025  44.962   3.360
82556W        W48987  27.146  30.596  11.389
82557W        W48988  23.422  36.397   4.967
82558W        W48989   4.417  23.090   0.911
82559W        W48990  16.885  28.635  10.480
82560W        W48991  41.556  20.437  11.624
82561W        W48992  18.475  44.475  12.510
82562W        W48993  40.497  40.882   4.210
82563W        W48994  37.708  39.203  13.123
82564W        W48995  32.627  36.600  13.920
82565W        W48996  29.435  14.829  12.006
82566W        W48997   7.417  17.368   2.720
82567W        W48998  15.275  28.927   3.708
82568W        W48999   2.684  13.145  12.599
82569W        W49000  33.492  14.970  14.258
82570W        W49001  18.075  44.998   3.100
82571W        W49002  39.485  29.159   0.677
82572W        W49003  39.820  16.978  11.143
82573W        W49004  13.374  41.956   2.912
82574W        W49005  10.143   8.626  13.243
82575W        W49006  10.218  28.707   3.285
82576W        W49007  36.473   9.797   3.316
82577W        W49008  12.273  11.935  14.974
82578W        W49009  13.130  41.382  10.442
82579W        W49010  30.052  29.499  10.766
82580W        W49011  16.360  10.785   1.854
82581W        W49012  22.694  42.210   2.987
82582W        W49013  32.181   8.736  12.995
82583W        W49014  19.628   8.829   4.915
82584W        W49015  41.958   5.407   4.019
82585W        W49016  13.100  17.101  14.090
82586W        W49017  13.312  38.188  14.192
82587W        W49018  17.108  15.627   1.715
82588W        W49019  42.034  40.534  11.660
82589W        W49020  13.559   4.748   1.271
82590W        W49021  16.423   9.412   0.551
82591W        W49022  22.167  35.860   4.591
82592W        W49023  23.225  14.509   2.165
82593W        W49024   1.761  14.316   1.415
82594W        W49025  41.765  12.333  12.949
82595W        W49026  29.034   7.927  12.020
82596W        W49027  32.589  19.594   3.650
82597W        W49028   0.599  30.053  11.509
82598W        W49029  20.160  40.434   4.633
82599W        W49030   2.539   3.499   3.542
82600W        W49031  29.019  21.639  11.395
82601W        W49032  25.010  27.930  14.799
82602W        W49033  41.494  44.778  10.612
82603W        W49034  18.278  41.931  10.556
82604W        W49035  19.440  38.043   0.372
82605W        W49036   7.006  35.903  12.891
82606W        W49037   0.198  30.666   4.272
82607W        W49038  39.087  29.442   4.327
82608W        W49039   7.010  24.611   2.194
82609W        W49040  12.101  21.726   0.731
82610W        W49041   5.408  23.783  10.736
82611W        W49042  30.975  37.573   4.553
82612W        W49043  42.771   6.949   3.116
82613W        W49044  40.531  19.984   0.466
82614W        W49045  10.913  21.173   0.998
82615W        W49046  42.378  11.305   3.153
82616W        W49047  34.574  41.293  12.908
82617W        W49048  30.424  38.252  13.909
82618W        W49049  17.173   2.649  14.351
82619W        W49050   9.245  41.748   0.298
82620W        W49051  19.867  30.425   1.149
82621W        W49052  11.746  30.532  12.628
82622W        W49053  11.269  17.016   1.299
82623W        W49054  41.128   4.459   0.356
82624W        W49055   3.074  18.854  10.707
82625W        W49056  32.119  10.687   4.330
82626W        W49057  25.656  42.971  12.435
82627W        W49058  14.295   7.736   1.380
82628W        W49059  28.021  14.173   0.684
82629W        W49060   5.339  44.315  11.660
82630W        W49061  20.975  30.140  12.477
82631W        W49062  26.650   8.931   1.388
82632W        W49063  44.564   7.879   1.233
82633W        W49064  37.192   3.096  14.040
82634W        W49065  35.370  12.531  13.420
82635W        W49066   8.948  44.676  14.305
82636W        W49067  22.579  13.831   5.234
82637W        W49068  12.897  22.962  14.318
82638W        W49069  42.457  24.836   3.092
82639W        W49070  10.159  32.977  13.327
82640W        W49071  17.415  40.313  11.095
82641W        W49072  16.060  26.483   3.698
82642W        W49073  23.823   7.759  10.740
82643W        W49074  43.966  44.789   1.420
82644W        W49075  21.205  14.895  10.446
82645W        W49076  37.277  33.324  11.422
82646W        W49077   3.816  37.932  13.874
82647W        W49078   3.825   6.794   2.120
82648W        W49079  16.278  11.671   1.809
82649W        W49080  14.251   6.326   0.332
82650W        W49081   8.635  14.080  13.613
82651W        W49082  38.404  14.641  11.705
82652W        W49083  30.138  31.068   0.933
82653W        W49084  17.944  11.143  14.953
82654W        W49085  14.696   9.254  14.454
82655W        W49086   8.460  32.855  13.591
82656W        W49087  25.012  14.667  13.178
82657W        W49088  21.835  27.424  12.296
82658W        W49089  35.787  10.441  12.605
82659W        W49090   8.281  13.787  10.752
82660W        W49091  27.956  31.648   3.055
82661W        W49092  38.371  43.118  12.905
82662W        W49093  38.304   0.195   4.857
82663W        W49094  24.589  14.329  12.430
82664W        W49095  17.237  26.093  11.971
82665W        W49096   2.170   9.166  10.719
82666W        W49097  34.555  43.505   3.412
82667W        W49098  44.855  21.512   2.235
82668W        W49099   0.020  43.985   2.738
82669W        W49100   2.908  38.490   2.284
82670W        W49101  18.566  25.524   1.298
82671W        W49102  19.441   2.146  12.909
82672W        W49103  42.871   2.563  12.529
82673W        W49104   7.608  14.299   1.834
82674W        W49105  21.707   2.198  11.907
82675W        W49106  15.133   5.449  13.850
82676W        W49107   9.839  14.766   3.594
82677W        W49108  23.758  37.357  10.765
82678W        W49109  26.658   0.779  14.731
82679W        W49110  14.798  35.545   2.263
82680W        W49111  25.029   8.809   3.199
82681W        W49112  21.652  10.578   0.473
82682W        W49113  10.196  42.108  12.146
82683W        W49114  26.449  26.450  11.952
82684W        W49115  34.186  19.187   4.673
82685W        W49116  44.372   1.789  13.883
82686W        W49117  16.625  38.003   1.960
82687W        W49118   8.129  34.011   4.307
82688W        W49119  40.982  42.506   0.932
82689W        W49120  28.380   1.274   0.682
82690W        W49121   4.710   6.210  11.961
82691W        W49122  13.330  17.764  13.582
82692W        W49123  32.346  41.696   3.507
82693W        W49124  11.927   8.428   3.198
82694W        W49125   7.210  20.499   4.392
82695W        W49126   9.704  38.499   3.513
82696W        W49127  21.688  36.370   0.655
82697W        W49128  35.105  30.442   2.385
82698W        W49129  13.371   8.051  10.746
82699W        W49130   4.467  20.988   1.774
82700W        W49131   2.485  11.342   1.680
82701W        W49132  30.001  26.438   3.226
82702W        W49133  11.744  11.765  10.528
82703W        W49134   2.301  18.303   3.237
82704W        W49135  37.539   7.601   4.170
82705W        W49136   7.928  38.356  13.408
82706W        W49137  41.201   0.201  14.285
82707W        W49138  33.734  12.305   0.676
82708W        W49139  29.884  14.420  13.787
82709W        W49140  27.021  25.581   3.166
82710W        W49141  15.201  13.378  13.521
82711W        W49142  39.996  40.566   3.392
82712W        W49143  31.057  17.100  12.883
82713W        W49144  40.125  38.872  10.661
82714W        W49145  42.917  23.144  11.970
82715W        W49146  32.621  12.321   0.204
82716W        W49147  22.432  30.046   0.820
82717W        W49148  35.269  33.987   0.297
82718W        W49149  22.689  26.872   1.930
82719W        W49150  12.663  33.060   1.474
82720W        W49151  30.130  39.978   2.678
82721W        W49152  15.238  22.921   0.758
82722W        W49153  21.219  35.496  14.973
82723W        W49154  37.927  35.702   2.209
82724W        W49155  32.266   6.475  14.250
82725W        W49156  24.966  27.111   0.891
82726W        W49157   5.978   2.564  11.025
82727W        W49158  31.929   8.413   1.667
82728W        W49159  39.999  15.624   0.371
82729W        W49160  36.563  11.626  10.788
82730W        W49161  10.159   9.977   4.588
82731W        W49162  33.423  25.069   3.251
82732W        W49163   7.455  33.948  12.545
82733W        W49164  43.550  17.631  13.474
82734W        W49165  14.709  25.863   0.018
82735W        W49166   5.698  26.213  14.731
82736W        W49167  34.792  24.659  10.775
82737W        W49168  17.163  19.176   3.065
82738W        W49169  43.221   4.355  12.448
82739W        W49170  18.683  11.373   0.345
82740W        W49171  17.513  19.985   1.470
82741W        W49172  43.603  44.239   0.899
82742W        W49173   7.618   5.422  14.293
82743W        W49174  35.415  38.338   2.906
82744W        W49175  29.136  14.008   2.698
82745W        W49176  20.636  38.094   0.269
82746W        W49177  42.308  18.649   0.320
82747W        W49178   5.348  35.395  10.727
82748W        W49179  30.093  24.454   4.136
82749W        W49180  36.067  32.544  11.793
82750W        W49181  37.025  27.648   1.628
82751W        W49182  15.209  24.190   0.833
82752W        W49183  24.082  28.025   0.375
82753W        W49184  14.909   6.012  11.228
82754W        W49185  30.073  21.744   3.680
82755W        W49186  20.096  41.423  13.834
82756W        W49187  34.974   9.690  14.338
82757W        W49188  32.614  17.011   2.107
82758W        W49189   3.487  41.012   2.843
82759W        W49190  24.847  18.558   3.728
82760W        W49191  27.500  42.666  11.146
82761W        W49192  15.323   7.706  13.869
82762W        W49193   5.256  30.094   3.278
82763W        W49194  20.949  16.689  11.743
82764W        W49195   4.259  13.550  11.565
82765W        W49196   4.522  34.865   0.914
82766W        W49197  27.657  19.149   3.668
82767W        W49198  35.481  20.112   0.192
82768W        W49199   4.852  36.521   1.626
82769W        W49200  26.835  13.545  10.774
82770W        W49201  25.462   6.227  13.749
82771W        W49202  27.049   1.294   3.871
82772W        W49203  26.722   0.715  13.234
82773W        W49204  33.049  39.460  13.906
82774W        W49205   7.404   9.754  11.596
82775W        W49206   5.720  15.404  14.058
82776W        W49207   1.164  43.160  10.705
82777W        W49208  10.981  40.816  14.402
82778W        W49209  14.704   2.316  14.767
82779W        W49210  10.251  37.322  10.941
82780W        W49211   2.994   8.718  14.799
82781W        W49212   3.864   5.398  12.646
82782W        W49213  22.152  20.843  12.088
82783W        W49214  39.073  44.414   0.298
82784W        W49215  18.874   4.842  12.877
82785W        W49216  24.807   7.724   1.819
82786W        W49217  27.050  25.447  10.705
82787W        W49218   7.963  37.387  14.646
82788W        W49219  39.910  20.864   3.705
82789W        W49220  41.477   5.079   2.368
82790W        W49221  17.877  32.100   0.262
82791W        W49222   2.845  30.743  14.829
82792W        W49223  35.353  30.095   0.593
82793W        W49224  36.846  43.159  14.847
82794W        W49225   1.137  11.675   1.891
82795W        W49226  24.928  13.179  11.529
82796W        W49227  30.946   1.896  11.833
82797W        W49228  10.181  37.460  14.579
82798W        W49229  21.032  20.075  10.625
82799W        W49230  25.719  41.164  14.849
82800W        W49231  20.430  21.934   2.996
82801W        W49232  41.696  38.608   0.218
82802W        W49233  10.359  43.411   3.113
82803W        W49234   4.738  32.533  12.670
82804W        W49235  26.946  20.043   9.862
82805W        W49236  23.139  33.423  13.947
82806W        W49237  38.903  19.060   2.794
82807W        W49238  19.819  41.295   3.740
82808W        W49239  10.316  20.202  13.979
82809W        W49240  28.089  12.586   3.363
82810W        W49241   0.469  38.838   0.813
82811W        W49242  36.050  44.960  11.129
82812W        W49243  20.173  26.169  13.254
82813W        W49244  34.877  36.044  10.673
82814W        W49245  11.142  27.716  11.858
82815W        W49246   0.285  25.364   3.182
82816W        W49247  34.152  22.295   0.821
82817W        W49248  42.955  33.160  13.082
82818W        W49249  39.516  44.870   4.445
82819W        W49250  30.713   6.721  13.930
82820W        W49251  14.588  27.658   0.770
82821W        W49252  29.591   7.035  12.153
82822W        W49253  15.179  27.926  12.420
82823W        W49254   2.206  15.775  13.026
82824W        W49255   0.673  43.065   3.297
82825W        W49256  41.883   0.292  10.742
82826W        W49257  29.869   6.720   2.140
82827W        W49258  35.583  17.666   2.934
82828W        W49259  22.618  36.502   0.330
82829W        W49260  35.946  36.371  12.557
82830W        W49261  10.487   6.920   3.668
82831W        W49262  17.698  17.877   4.757
82832W        W49263  16.822  43.001   3.191
82833W        W49264  30.571  24.783  11.212
82834W        W49265  11.068  43.571  14.585
82835W        W49266  39.453  37.297   4.940
82836W        W49267   7.437  10.859   1.948
82837W        W49268  34.328  20.538  12.561
82838W        W49269  28.713  36.989  10.430
82839W        W49270   3.276  11.135   2.843
82840W        W49271  43.690  27.807  14.622
82841W        W49272   4.810  21.275  10.901
82842W        W49273  21.557  19.688  11.910
82843W        W49274  15.311   2.513   1.490
82844W        W49275  11.395  24.680   4.006
82845W        W49276  24.594  18.184   0.264
82846W        W49277  29.592   4.105   1.259
82847W        W49278  11.705   0.419   2.412
82848W        W49279  29.603  13.599  10.766
82849W        W49280  25.205  22.169   3.488
82850W        W49281  12.332   5.320   1.336
82851W        W49282  41.202  41.286   2.764
82852W        W49283  18.032  36.338   3.637
82853W        W49284  29.477  17.260   1.276
82854W        W49285  28.355  30.840   4.219
82855W        W49286  14.127  11.154   4.778
82856W        W49287  28.009  23.125   2.902
82857W        W49288  19.155  14.094  14.621
82858W        W49289  34.093   4.665   4.624
82859W        W49290  41.837  42.607   5.163
82860W        W49291  34.991   0.547   2.814
82861W        W49292  39.379  36.491  11.638
82862W        W49293  16.683  32.118   4.155
82863W        W49294   6.586  13.135  11.002
82864W        W49295  34.382  42.189  13.557
82865W        W49296  17.476  14.676  14.984
82866W        W49297   0.772  34.462  10.716
82867W        W49298   5.435  44.841   0.966
82868W        W49299  35.938  35.563   0.202
82869W        W49300  28.928  40.820   1.363
82870W        W49301  38.579  18.068   2.237
82871W        W49302  10.716  36.514   4.574
82872W        W49303  42.741   7.409  14.971
82873W        W49304  18.191   3.595   3.108
82874W        W49305  39.828  38.906   3.708
82875W        W49306  30.005  36.950   0.299
82876W        W49307  40.882   9.616  14.520
82877W        W49308  38.435  44.087  10.640
82878W        W49309  40.607   2.942  12.634
82879W        W49310  26.107  30.357   5.639
82880W        W49311  24.452  38.617   2.286
82881W        W49312  34.086   9.467   0.917
82882W        W49313  18.307  34.811  13.330
82883W        W49314  40.963  22.462   0.318
82884W        W49315  17.858  43.055   3.913
82885W        W49316  22.108  26.533  12.860
82886W        W49317  12.624  41.427   0.140
82887W        W49318  11.336  10.109   3.147
82888W        W49319  20.088  28.452  12.316
82889W        W49320   7.448  33.079   1.216
82890W        W49321  22.867  21.962   3.162
82891W        W49322  35.544  38.253   3.833
82892W        W49323  41.515   1.950  13.165
82893W        W49324  40.973  26.096  14.991
82894W        W49325  30.710  28.094   4.984
82895W        W49326   7.418  37.635   0.310
82896W        W49327  30.297  43.794   0.475
82897W        W49328  40.616   1.373   2.216
82898W        W49329  33.992  26.721   4.614
82899W        W49330  22.817   6.292  14.846
82900W        W49331  35.841  44.572  13.410
82901W        W49332   2.735  40.272   1.015
82902W        W49333  40.634  33.909   3.695
82903W        W49334   8.091  13.779  12.063
82904W        W49335  22.580  34.318   1.731
82905W        W49336  15.889  44.713  11.946
82906W        W49337  22.112  20.037   3.201
82907W        W49338  32.464  33.622  13.329
82908W        W49339  20.749  23.878   1.926
82909W        W49340   4.669   5.837   0.803
82910W        W49341  43.635  23.647  13.478
82911W        W49342   6.989   7.854   3.545
82912W        W49343   8.275   2.745   3.573
82913W        W49344   1.523  32.479   1.396
82914W        W49345  30.510   3.282  10.926
82915W        W49346   3.395  19.031   5.239
82916W        W49347  32.135  27.231   1.727
82917W        W49348  16.968   8.386   1.374
82918W        W49349  39.275  16.262  13.242
82919W        W49350   1.972  34.650   2.981
82920W        W49351  28.675  21.988  13.691
82921W        W49352   1.653  10.178   3.554
82922W        W49353  30.493  38.340   3.738
82923W        W49354  31.338  38.621  14.093
82924W        W49355  22.634   9.938  10.339
82925W        W49356  35.951  14.727   2.769
82926W        W49357  32.681  23.682   3.209
82927W        W49358  34.115  25.103  13.882
82928W        W49359   1.542   2.323  14.511
82929W        W49360  30.235  23.710  13.459
82930W        W49361  34.940   2.472  14.320
82931W        W49362  16.094  12.481  12.415
82932W        W49363  31.148  33.324  14.867
82933W        W49364  44.523  43.109  14.456
82934W        W49365  29.286  27.964  12.051
82935W        W49366  23.057  18.311   2.342
82936W        W49367   8.418  20.618  11.544
82937W        W49368  12.640  17.998  14.922
82938W        W49369  25.092   9.338   1.858
82939W        W49370  14.256  12.071  13.430
82940W        W49371   4.230  12.414  10.711
82941W        W49372   6.880   7.427   3.836
82942W        W49373  32.451  20.117   1.444
82943W        W49374  31.638   7.658   4.578
82944W        W49375   5.452  24.776   3.524
82945W        W49376  12.857  36.835  13.814
82946W        W49377  13.556  43.286   2.304
82947W        W49378  13.147  29.778   4.530
82948W        W49379  24.065  20.438   0.050
82949W        W49380  14.251  25.089  13.613
82950W        W49381   0.642  14.585  10.703
82951W        W49382   3.509  26.782  14.617
82952W        W49383   0.009  11.754   2.769
82953W        W49384  28.439  40.340   4.742
82954W        W49385  28.659  34.996   4.221
82955W        W49386  18.126  39.867   3.809
82956W        W49387  16.038   0.522  14.767
82957W        W49388  20.226  35.599   3.551
82958W        W49389  16.771  12.610   0.704
82959W        W49390  25.910  13.037  12.458
82960W        W49391  27.064  35.915   1.916
82961W        W49392  20.026  12.093   1.391
82962W        W49393  37.114  14.781   2.154
82963W        W49394   8.147   5.959  14.928
82964W        W49395  35.227  12.584   0.227
82965W        W49396  25.951   6.500  14.473
82966W        W49397  29.331  21.782   4.132
82967W        W49398  26.115  20.111   1.797
82968W        W49399  32.619  39.244   3.226
82969W        W49400  24.274   1.890   2.574
82970W        W49401   4.508  44.350   4.636
82971W        W49402  23.872  10.830  10.747
82972W        W49403  44.433  25.550   9.844
82973W        W49404  14.637  43.757   2.508
82974W        W49405   8.167  29.519   2.710
82975W        W49406  27.678  35.728  13.994
82976W        W49407  20.104  12.562   4.636
82977W        W49408  19.220  35.670   3.234
82978W        W49409   4.797  24.966  10.218
82979W        W49410  18.157  18.818   3.146
82980W        W49411  21.788  19.602   2.361
82981W        W49412  17.324  26.538  14.042
82982W        W49413  37.590  44.223  13.341
82983W        W49414  33.095   5.859   0.178
82984W        W49415   1.609  26.349   1.463
82985W        W49416  14.570   5.107  12.421
82986W        W49417  33.652  22.049  14.602
82987W        W49418   3.961  22.798   4.078
82988W        W49419   8.305   0.500  12.908
82989W        W49420  24.135  39.299  12.059
82990W        W49421  20.545  22.631  13.421
82991W        W49422  11.808  35.892   4.037
82992W        W49423   1.479  29.524  12.514
82993W        W49424  35.387  13.583   0.314
82994W        W49425  30.620  18.665   4.071
82995W        W49426   2.322  11.765   1.374
82996W        W49427   7.281  37.964  14.805
82997W        W49428   7.756  41.032  14.278
82998W        W49429   3.778   3.490   2.285
82999W        W49430  38.059  24.187   0.317
83000W        W49431  44.030   3.289   2.850
83001W        W49432  19.296  21.541  14.803
83002W        W49433   3.377  20.778  12.820
83003W        W49434  14.058  40.800   1.866
83004W        W49435  15.252  40.889  12.933
83005W        W49436  13.751  14.902   3.671
83006W        W49437  36.975  38.022  13.238
83007W        W49438  32.519  36.778   2.208
83008W        W49439  17.364   6.944   3.727
83009W        W49440  39.441  27.390  11.142
83010W        W49441  26.237   1.359  12.968
83011W        W49442  26.787  30.152   2.891
83012W        W49443  23.690  12.775  10.462
83013W        W49444  29.163   1.455   3.179
83014W        W49445  36.827  13.997   3.234
83015W        W49446   0.460  35.977   4.247
83016W        W49447  12.711  30.708   0.881
83017W        W49448  23.726  34.660  11.105
83018W        W49449  32.691  20.220  13.097
83019W        W49450  32.673  14.396  14.328
83020W        W49451  22.988  35.148   4.600
83021W        W49452  44.934  31.049  12.106
83022W        W49453  40.888  25.940  11.059
83023W        W49454  11.413  11.799  12.593
83024W        W49455  43.150  34.618   3.293
83025W        W49456  10.653  14.130   0.060
83026W        W49457  30.664  20.572   1.390
83027W        W49458  19.244  30.613  14.778
83028W        W49459  15.038  28.041   4.790
83029W        W49460  31.558  33.799   1.991
83030W        W49461  21.558  25.763  14.701
83031W        W49462  15.618   4.755  11.919
83032W        W49463  15.897  13.230   3.175
83033W        W49464   8.662  35.634  10.525
83034W        W49465  19.588  10.077  12.294
83035W        W49466  32.501  23.052   1.818
83036W        W49467  27.203   9.809  13.344
83037W        W49468  19.038  29.231   2.298
83038W        W49469  24.046  18.627  14.288
83039W        W49470   3.041   6.101   3.209
83040W        W49471  29.657  19.919  11.155
83041W        W49472   8.405  38.553   2.840
83042W        W49473  14.764   7.017  13.023
83043W        W49474  17.138  17.275   3.221
83044W        W49475  32.107  23.701   1.484
83045W        W49476  42.012   2.296   0.282
83046W        W49477  12.199  36.666  13.414
83047W        W49478  36.473  42.967  14.101
83048W        W49479   0.878   3.817   3.383
83049W        W49480   8.249  34.474   2.342
83050W        W49481  38.182  23.497  11.206
83051W        W49482  15.264   6.801   4.476
83052W        W49483  39.022   3.137   0.728
83053W        W49484  31.207  43.931  11.903
83054W        W49485   2.731  26.494  14.370
83055W        W49486  29.576  18.320   3.826
83056W        W49487  21.149  13.284   1.769
83057W        W49488  11.353  20.071  14.791
83058W        W49489  32.323  11.181   0.815
83059W        W49490   3.245  44.937   2.760
83060W        W49491  11.714  37.567  14.602
83061W        W49492  39.764  15.067   4.936
83062W        W49493   5.412  39.939   4.517
83063W        W49494  35.661  31.375  12.026
83064W        W49495   7.417  18.836  12.512
83065W        W49496  18.318  17.674  11.219
83066W        W49497  30.816  18.412   0.759
83067W        W49498  44.556  36.593  11.387
83068W        W49499  17.867   6.668  12.087
83069W        W49500  27.065  29.071  10.608
83070W        W49501  26.972   1.059   0.995
83071W        W49502  14.286  17.131   1.074
83072W        W49503  35.855  19.618  11.689
83073W        W49504  25.220   2.770  10.667
83074W        W49505  21.942   5.489  10.640
83075W        W49506  36.817  12.978   3.880
83076W        W49507   0.412  28.656   0.130
83077W        W49508  12.220   7.332   4.631
83078W        W49509  38.477  35.052  12.065
83079W        W49510  44.472   4.165  14.811
83080W        W49511  24.099  21.310  11.872
83081W        W49512  23.814  38.424   4.563
83082W        W49513  41.079  12.913   0.250
83083W        W49514   9.899  26.446   0.801
83084W        W49515   5.192  18.186  11.969
83085W        W49516   5.158  22.633  13.592
83086W        W49517  35.587  43.102   2.276
83087W        W49518  28.962  25.648  12.929
83088W        W49519  11.793   7.461   4.369
83089W        W49520  43.947  17.347   2.717
83090W        W49521  14.607  22.831   0.325
83091W        W49522  13.215  42.560  14.699
83092W        W49523  37.967  44.185   2.024
83093W        W49524   8.262  22.949   4.280
83094W        W49525  39.917  32.625   1.809
83095W        W49526  40.118  34.977  12.550
83096W        W49527  42.650  41.287  14.490
83097W        W49528  39.864  11.397   0.431
83098W        W49529  37.199  27.404   4.983
83099W        W49530   7.649  40.033   2.850
83100W        W49531  29.422  11.254  14.252
83101W        W49532   6.294  19.479  11.185
83102W        W49533   9.619   7.856  13.323
83103W        W49534  19.130  23.304  10.726
83104W        W49535  34.125  21.944   0.410
83105W        W49536  42.324  35.013  13.492
83106W        W49537  24.935  44.002  13.883
83107W        W49538  37.955  35.132  14.075
83108W        W49539  43.388   3.140  11.139
83109W        W49540  24.434  41.764   4.046
83110W        W49541  37.076   1.562  11.099
83111W        W49542   8.714  25.713   0.242
83112W        W49543  12.681  44.814  11.692
83113W        W49544  27.290  42.427  12.134
83114W        W49545  41.334   4.191  12.780
83115W        W49546  16.577  12.175   2.776
83116W        W49547   8.277   5.739  13.161
83117W        W49548  37.787  15.383  11.314
83118W        W49549  44.863  35.985   0.183
83119W        W49550  41.544  39.151   3.709
83120W        W49551  44.751  19.733   1.382
83121W        W49552   5.506  18.126  13.721
83122W        W49553  28.080  10.734  12.099
83123W        W49554  19.682   5.306  10.831
83124W        W49555  30.381  23.130  14.052
83125W        W49556  41.533   7.894  14.819
83126W        W49557  14.297  19.648  12.391
83127W        W49558  35.114  28.494   3.991
83128W        W49559  28.089   7.850   3.599
83129W        W49560  32.712  19.052  13.288
83130W        W49561  29.472  36.477  12.134
83131W        W49562  23.653   2.241   1.329
83132W        W49563  37.622  36.917  10.707
83133W        W49564  27.552  22.201   2.505
83134W        W49565   4.801  19.186   1.370
83135W        W49566  27.005   4.549   1.923
83136W        W49567  42.445  13.217   4.282
83137W        W49568   8.813   4.069  14.903
83138W        W49569  35.160  24.631   3.086
83139W        W49570  17.009  30.960   4.114
83140W        W49571  14.946  34.142  13.918
83141W        W49572  19.445  39.170   0.807
83142W        W49573  15.800  12.917  14.783
83143W        W49574  41.040  44.346  13.376
83144W        W49575  24.664  37.074  13.815
83145W        W49576   0.224   5.701  13.298
83146W        W49577  18.796  38.629  14.312
83147W        W49578   4.890  37.320   1.108
83148W        W49579  23.905  23.522   4.535
83149W        W49580   1.532   3.884  13.038
83150W        W49581  31.646   4.774  12.038
83151W        W49582  30.579  20.049  11.397
83152W        W49583  17.592  42.252  13.352
83153W        W49584  44.201  39.567  13.066
83154W        W49585  23.760   0.218  11.774
83155W        W49586  19.028  42.801   0.876
83156W        W49587   9.884  20.846   3.303
83157W        W49588  10.911   4.860   2.146
83158W        W49589   0.524  26.218  14.391
83159W        W49590  10.052  22.312   4.972
83160W        W49591   2.413  30.434  14.884
83161W        W49592   1.895  44.196  12.400
83162W        W49593  27.141  41.392  13.785
83163W        W49594  40.338  42.934   2.709
83164W        W49595  10.637  17.506   1.772
83165W        W49596  44.330  13.744  11.024
83166W        W49597  25.654  15.429   3.576
83167W        W49598  42.721  33.568   2.793
83168W        W49599  22.718  36.920   2.018
83169W        W49600  39.515  13.114  13.987
83170W        W49601  10.368  13.591   1.695
83171W        W49602   3.456  31.091  13.227
83172W        W49603  10.731  25.253   3.791
83173W        W49604  26.643   1.008   3.738
83174W        W49605  30.162   8.572   3.237
83175W        W49606  11.080  44.006  10.637
83176W        W49607  29.036  38.656  11.580
83177W        W49608  25.037  20.660   1.387
83178W        W49609  35.353  41.274   0.433
83179W        W49610  30.332  41.262  14.959
83180W        W49611  10.345  25.678   4.625
83181W        W49612  14.463  35.321   0.417
83182W        W49613  22.980  21.262  11.551
83183W        W49614   5.300   1.991  12.107
83184W        W49615  23.595  35.585   3.900
83185W        W49616  27.526   9.556  10.612
83186W        W49617  33.894  41.924  13.416
83187W        W49618   3.804   7.336  14.824
83188W        W49619  21.722  35.864  14.330
83189W        W49620  42.950  21.856   1.720
83190W        W49621   2.564  10.161   1.247
83191W        W49622  42.798   2.313  11.196
83192W        W49623  20.537   2.608   0.434
83193W        W49624  37.933  30.964   0.765
83194W        W49625  33.462  44.422   2.373
83195W        W49626  11.100   9.753  13.958
83196W        W49627  18.741  43.348  14.009
83197W        W49628  19.303  20.960   3.599
83198W        W49629  11.009  31.611  14.808
83199W        W49630  43.608  33.730   2.946
83200W        W49631  38.060  25.220  14.020
83201W        W49632  38.958  32.272   3.738
83202W        W49633  36.767  20.877   1.996
83203W        W49634   3.214  31.625   3.199
83204W        W49635  37.336  37.514   2.959
83205W        W49636  28.575  12.481   4.628
83206W        W49637  37.795  21.290   0.326
83207W        W49638   5.387  25.639   0.829
83208W        W49639  26.582   6.493  12.163
83209W        W49640  24.955   1.879   0.352
83210W        W49641  12.875  24.257   5.257
83211W        W49642  37.028  13.189   0.861
83212W        W49643  21.644  35.156   1.420
83213W        W49644   8.391  44.347   1.490
83214W        W49645  18.063  12.068  13.117
83215W        W49646  21.613  12.061  14.544
83216W        W49647  21.482   7.778  14.800
83217W        W49648  21.163  39.321   3.651
83218W        W49649  26.433  37.634   1.579
83219W        W49650  13.709  36.201  11.065
83220W        W49651  20.744   4.837   3.790
83221W        W49652  32.133  31.034  13.828
83222W        W49653   6.774   3.669   1.854
83223W        W49654  34.688  37.483   2.811
83224W        W49655   8.581  36.610  10.801
83225W        W49656  14.304  19.036  11.124
83226W        W49657   5.722  19.385   1.362
83227W        W49658   4.367  44.124   3.300
83228W        W49659  19.280  30.382  13.049
83229W        W49660   4.725  38.348   1.319
83230W        W49661   4.138  24.448   0.075
83231W        W49662   8.429  34.972   0.503
83232W        W49663  25.852  26.253   0.495
83233W        W49664  35.195  39.026   0.550
83234W        W49665  27.479  35.927  11.701
83235W        W49666  15.817  35.089   1.444
83236W        W49667  14.432  39.070  14.938
83237W        W49668  17.573  19.078   1.712
83238W        W49669  12.402   2.036  10.700
83239W        W49670  28.106   4.544   4.241
83240W        W49671  43.239  33.744  11.127
83241W        W49672  44.501  14.300   3.680
83242W        W49673  28.631  35.724   2.795
83243W        W49674  34.465  42.890   0.255
83244W        W49675   5.889  25.728   0.855
83245W        W49676  14.519  14.823   4.086
83246W        W49677   2.346  12.128  12.435
83247W        W49678  36.833  22.395   3.129
83248W        W49679  28.441   0.449   0.250
83249W        W49680  14.170  10.582   3.667
83250W        W49681   8.639  33.961   4.462
83251W        W49682   7.256  20.937   0.969
83252W        W49683   2.767   0.976  12.370
83253W        W49684  29.609  26.284  11.578
83254W        W49685  43.930  11.729  14.969
83255W        W49686  27.379  20.060  10.672
83256W        W49687  44.910  34.129   3.102
83257W        W49688  44.288  14.409  10.457
83258W        W49689  15.173  23.702   1.972
83259W        W49690  37.766  40.592  13.024
83260W        W49691  37.270  32.271  12.586
83261W        W49692   4.625  16.124   4.823
83262W        W49693  15.622   1.299   1.958
83263W        W49694  13.578  43.701  12.570
83264W        W49695  20.031  35.368   0.821
83265W        W49696  13.619   1.339  13.876
83266W        W49697  22.273  34.971   3.206
83267W        W49698  31.004  10.066  10.781
83268W        W49699  42.888   0.860   1.872
83269W        W49700   7.185   5.037   0.957
83270W        W49701   6.863  25.574   2.635
83271W        W49702  12.767   1.030   4.551
83272W        W49703   6.230  29.376   0.052
83273W        W49704   7.202  22.230   0.497
83274W        W49705  35.693  23.113  12.028
83275W        W49706  28.725  24.239  11.283
83276W        W49707   5.394  33.455   1.222
83277W        W49708  24.031  29.656  13.804
83278W        W49709  13.700  19.001  12.868
83279W        W49710  27.749  44.118  12.384
83280W        W49711  22.249  10.195   2.579
83281W        W49712  23.747  16.625   1.243
83282W        W49713  24.992  15.559  14.233
83283W        W49714  34.844  39.447   0.441
83284W        W49715   4.263  37.566  12.082
83285W        W49716  26.513  11.797  14.012
83286W        W49717  30.476  26.140   1.251
83287W        W49718  34.374  11.731  11.131
83288W        W49719  23.588  22.535   3.160
83289W        W49720  26.212   2.283  13.335
83290W        W49721  33.508   9.232   2.307
83291W        W49722  19.224  19.699   2.612
83292W        W49723  18.339   3.798   0.417
83293W        W49724  31.765  15.055  13.900
83294W        W49725  25.226  41.435  13.397
83295W        W49726  25.061  22.017  11.417
83296W        W49727  43.834  42.325   0.449
83297W        W49728  40.957  21.204   2.301
83298W        W49729  20.249  34.822   0.281
83299W        W49730   9.338  22.006   1.927
83300W        W49731  24.798  34.978   3.619
83301W        W49732  19.114  21.533   1.373
83302W        W49733  22.555  28.124   3.738
83303W        W49734  15.775  25.249   0.166
83304W        W49735  18.208  12.876   3.599
83305W        W49736  29.202  13.578   4.205
83306W        W49737   8.692   1.914   3.674
83307W        W49738  11.886  28.581  10.773
83308W        W49739   8.873  41.320  11.072
83309W        W49740  11.910  20.024  13.051
83310W        W49741   3.250  13.817   3.587
83311W        W49742  43.422  20.114  10.746
83312W        W49743  35.423  19.866   0.640
83313W        W49744  26.179  20.774  13.311
83314W        W49745  37.988  14.367  13.695
83315W        W49746  22.148  22.209   2.839
83316W        W49747  37.140  24.250   4.667
83317W        W49748  26.187  24.618   2.269
83318W        W49749   7.661  25.920   0.843
83319W        W49750  16.578   6.837   4.102
83320W        W49751   7.730  32.128  10.773
83321W        W49752  27.268  20.296   2.293
83322W        W49753  11.918  30.985   3.065
83323W        W49754  27.116   1.018  13.587
83324W        W49755  26.917  35.811   3.254
83325W        W49756  43.183   8.750  13.754
83326W        W49757  43.859  30.193  14.770
83327W        W49758   0.932  36.532   0.514
83328W        W49759  12.887   1.630  11.388
83329W        W49760   4.617  31.252  11.182
83330W        W49761  41.030  34.740   0.952
83331W        W49762  21.666  17.208   0.969
83332W        W49763  21.656  15.026  13.328
83333W        W49764  11.798  35.014   3.548
83334W        W49765  28.609  43.961  12.008
83335W        W49766   7.865  20.673  13.620
83336W        W49767  26.957  11.302   4.071
83337W        W49768  42.122  38.498   1.889
83338W        W49769   9.753  42.346   0.736
83339W        W49770  42.770  24.620   4.419
83340W        W49771  40.510   0.730  10.385
83341W        W49772   0.835  40.914   1.792
83342W        W49773  10.475  18.664  11.650
83343W        W49774  39.821   3.118  12.159
83344W        W49775  13.349  35.098  13.057
83345W        W49776   9.423  12.138  12.994
83346W        W49777  20.790  33.579   4.012
83347W        W49778   2.156  20.597  11.273
83348W        W49779   8.252  30.093  12.655
83349W        W49780  25.252  26.170  12.488
83350W        W49781  40.176  26.005  11.980
83351W        W49782  12.136  42.792   2.305
83352W        W49783  22.308   8.283  12.824
83353W        W49784   3.463  10.628  11.703
83354W        W49785   0.974  25.173  14.342
83355W        W49786  33.429   6.506  14.837
83356W        W49787  19.331  14.300   3.545
83357W        W49788  36.393  20.731   4.593
83358W        W49789  17.094  23.379   0.928
83359W        W49790   8.348  33.281  14.984
83360W        W49791  33.001  29.057  11.241
83361W        W49792  11.850  14.647   4.014
83362W        W49793  23.626  17.947   0.529
83363W        W49794  34.672  17.341   0.386
83364W        W49795  44.523  40.066   1.305
83365W        W49796  32.180  41.285  10.795
83366W        W49797  25.630  13.488   4.606
83367W        W49798  34.518  13.716  10.730
83368W        W49799  25.718   1.215   3.632
83369W        W49800  26.510  36.652   3.348
83370W        W49801  15.893  11.166  12.042
83371W        W49802   0.946  21.956  11.098
83372W        W49803   3.698   9.679  11.163
83373W        W49804  16.546  16.543   1.879
83374W        W49805  18.812  16.614   2.294
83375W        W49806  23.076   1.236  13.045
83376W        W49807   6.312  23.668  11.689
83377W        W49808   4.778  25.277   2.641
83378W        W49809  32.250  12.617   0.605
83379W        W49810  24.896  36.479   0.330
83380W        W49811  34.873  41.425   1.718
83381W        W49812  33.431  22.656   1.180
83382W        W49813  43.929   7.855   0.412
83383W        W49814   3.794   1.651   5.081
83384W        W49815  19.737  29.468   4.492
83385W        W49816  24.321  36.754   2.437
83386W        W49817  42.601  17.872  14.313
83387W        W49818  39.688  30.024   3.645
83388W        W49819  41.733  33.572  10.692
83389W        W49820  44.507  36.677  13.963
83390W        W49821  23.024  29.529  13.890
83391W        W49822  39.534  21.789  12.484
83392W        W49823   3.781  32.974   0.166
83393W        W49824  24.295   6.840   3.973
83394W        W49825  25.842  24.843   1.719
83395W        W49826  24.968  31.725   3.807
83396W        W49827  17.567   4.390   3.304
83397W        W49828  17.369  32.046   2.914
83398W        W49829  14.879  32.937   3.859
83399W        W49830  11.729  37.844  12.996
83400W        W49831  37.696   1.784  13.022
83401W        W49832  44.412  29.513   0.083
83402W        W49833   5.978  18.184  14.941
83403W        W49834  22.668  28.564  12.530
83404W        W49835  31.392  24.090   4.734
83405W        W49836  18.632   5.424   0.789
83406W        W49837  24.632  18.353   2.778
83407W        W49838  33.958  20.098   2.430
83408W        W49839  39.022  41.370   4.510
83409W        W49840  17.381  10.146   2.256
83410W        W49841   5.899   8.246   3.296
83411W        W49842  23.149   1.279   1.905
83412W        W49843   1.655  15.949   1.466
83413W        W49844  23.687  17.542  11.911
83414W        W49845  28.439   0.979  12.977
83415W        W49846   8.405  11.978  13.756
83416W        W49847  10.146  42.471   2.532
83417W        W49848   2.680  18.674  13.966
83418W        W49849  20.661  18.007  13.954
83419W        W49850  12.138  36.257   1.178
83420W        W49851  26.203   1.097  13.912
83421W        W49852   6.336  26.792  10.783
83422W        W49853  37.541  11.603  12.853
83423W        W49854  15.769  35.631   4.653
83424W        W49855   1.254  29.601   4.318
83425W        W49856  33.665  19.816  12.258
83426W        W49857   7.696   7.164  14.246
83427W        W49858  33.850  39.304   3.744
83428W        W49859   0.693  23.017  11.190
83429W        W49860   2.374   2.916   2.760
83430W        W49861  26.796  42.986   3.600
83431W        W49862  38.929  30.513  11.754
83432W        W49863  30.000  40.063   1.584
83433W        W49864  43.950  23.867  14.343
83434W        W49865   8.204   1.211   1.458
83435W        W49866  20.146   8.083   2.372
83436W        W49867  27.660   1.451   4.106
83437W        W49868  26.908   3.099   5.220
83438W        W49869  23.676  18.564  11.198
83439W        W49870  27.553  27.620   1.747
83440W        W49871  20.277  18.300   0.845
83441W        W49872  10.202  25.023   0.772
83442W        W49873  19.539  25.728  14.246
83443W        W49874   3.704  31.123  14.920
83444W        W49875  23.956  16.153   2.767
83445W        W49876  38.110  36.460  11.251
83446W        W49877   2.737  18.592   2.670
83447W        W49878  26.183  19.997   3.658
83448W        W49879   8.233  26.117  14.844
83449W        W49880   3.397  17.035   2.696
83450W        W49881  10.365   1.168  11.571
83451W        W49882  43.873  43.672  11.607
83452W        W49883   6.803   1.359  10.677
83453W        W49884  44.093  25.490   3.560
83454W        W49885   5.829   8.378  12.975
83455W        W49886  13.389  19.690  14.449
83456W        W49887   9.452  13.222  13.087
83457W        W49888   1.203  10.725  14.349
83458W        W49889  35.152  28.641  13.431
83459W        W49890  34.586   5.606   4.657
83460W        W49891  23.977  21.148   0.314
83461W        W49892  14.065  43.555  12.938
83462W        W49893  44.714  34.044   1.874
83463W        W49894  25.582  40.696   2.623
83464W        W49895  44.592  34.473  12.824
83465W        W49896  40.780  24.650   0.513
83466W        W49897  17.421  29.572   2.094
83467W        W49898  25.556  11.701   4.542
83468W        W49899  12.374  21.558  11.144
83469W        W49900  21.537  31.036   2.233
83470W        W49901   0.501  13.207   1.962
83471W        W49902  12.851  17.557  13.329
83472W        W49903  19.038  29.188  11.188
83473W        W49904   5.738   0.279  13.924
83474W        W49905  36.450  42.514  13.828
83475W        W49906  31.127  18.942   3.399
83476W        W49907  40.871  42.124   2.099
83477W        W49908  36.546  14.009  10.718
83478W        W49909  42.431  33.027  14.191
83479W        W49910  18.517  42.779  13.303
83480W        W49911  30.145   5.711  11.616
83481W        W49912  18.758  33.934   0.785
83482W        W49913  11.162  20.929   2.870
83483W        W49914  19.734  30.471   4.084
83484W        W49915  39.239  14.896   0.530
83485W        W49916  44.193  31.488  13.076
83486W        W49917  10.560   5.327  11.499
83487W        W49918   9.774  29.951  10.811
83488W        W49919  11.377  38.983  12.454
83489W        W49920  32.227   3.276  11.576
83490W        W49921  32.983  39.390   4.622
83491W        W49922  30.450  13.722   3.078
83492W        W49923  43.052  17.524  13.309
83493W        W49924   3.275  35.994  13.201
83494W        W49925  39.613  31.904   2.293
83495W        W49926  26.218  24.050  12.502
83496W        W49927  36.491   7.898  13.086
83497W        W49928  17.444  28.497  11.112
83498W        W49929  36.601   0.198  11.175
83499W        W49930  34.532  27.926  10.890
83500W        W49931   1.829   2.909   0.465
83501W        W49932  26.422  35.587  13.596
83502W        W49933  34.156  31.553   3.732
83503W        W49934  10.779   0.127   0.380
83504W        W49935  17.301  34.013   1.452
83505W        W49936  22.944  41.902  10.669
83506W        W49937  38.349   9.906   3.264
83507W        W49938  23.183   7.349   2.303
83508W        W49939  38.460  13.573   0.350
83509W        W49940  44.285  18.367   5.081
83510W        W49941   0.017  29.324   3.763
83511W        W49942   1.425  37.330  14.945
83512W        W49943  16.236  19.741   4.142
83513W        W49944  32.668  25.711   0.764
83514W        W49945  33.835  12.229   1.674
83515W        W49946  35.278  32.755   3.472
83516W        W49947  10.968  34.398   4.620
83517W        W49948  28.556  42.346   3.095
83518W        W49949  20.680  40.784  11.883
83519W        W49950  35.175  12.735  14.317
83520W        W49951  40.601  32.104  13.396
83521W        W49952  34.048   1.749  12.634
83522W        W49953  43.648  22.443  14.885
83523W        W49954  25.737  17.547   2.643
83524W        W49955  18.768  30.568  10.703
83525W        W49956  44.459  15.307   3.762
83526W        W49957  29.238  33.108   4.409
83527W        W49958  37.812  19.345   2.410
83528W        W49959   1.539  22.517  10.775
83529W        W49960  29.007  44.842   4.637
83530W        W49961   3.816  32.070  10.444
83531W        W49962  39.254  42.383   3.377
83532W        W49963   3.508   3.544  11.540
83533W        W49964  36.310  31.943  12.323
83534W        W49965  26.078  38.712   4.751
83535W        W49966  37.809   8.238  11.497
83536W        W49967  27.752   4.793  14.356
83537W        W49968  29.608   7.187  13.948
83538W        W49969  43.730  41.882   3.228
83539W        W49970  40.272  29.121  10.787
83540W        W49971  34.361  35.702  11.780
83541W        W49972  14.909  41.291   2.231
83542W        W49973  28.488  41.850   3.658
83543W        W49974  41.408   2.494  13.944
83544W        W49975   3.402   8.465  12.001
83545W        W49976  31.810  34.834   4.299
83546W        W49977  11.770  35.504  11.447
83547W        W49978   1.255  24.243  14.769
83548W        W49979  26.470  39.037   1.967
83549W        W49980   1.892  22.964  10.716
83550W        W49981  14.670  44.531  14.480
83551W        W49982  23.998  37.224  12.908
83552W        W49983   2.197  22.137   0.871
83553W        W49984  14.265  32.192  11.036
83554W        W49985  18.178  36.418   0.825
83555W        W49986  10.055  28.664  13.351
83556W        W49987  14.490  32.647   1.833
83557W        W49988  28.383   8.715   0.033
83558W        W49989  38.751  17.841  11.100
83559W        W49990  33.302  20.397   3.879
83560W        W49991   5.856  41.375  11.650
83561W        W49992  22.052  43.559  10.595
83562W        W49993  30.022  27.522   4.635
83563W        W49994  24.251  13.805  13.602
83564W        W49995  13.421  28.190  14.791
83565W        W49996  25.726  35.351  10.551
83566W        W49997   4.590  20.773   0.347
83567W        W49998  30.502  10.432   3.616
83568W        W49999   9.072  36.526  12.471
83569W        W50000  36.285  27.862  10.685
83570W        W50001  27.099  21.410   4.617
83571W        W50002  29.424  31.857   3.275
83572W        W50003  35.083  22.120   2.731
83573W        W50004  32.841  29.123   1.097
83574W        W50005   5.852  13.817   4.640
83575W        W50006  24.038  21.663   4.364
83576W        W50007  19.250  24.168   2.053
83577W        W50008  42.337  18.950  14.891
83578W        W50009  27.565  13.449   0.962
83579W        W50010   8.845  39.496   3.685
83580W        W50011  29.352   9.454  13.430
83581W        W50012  20.139  40.491  11.175
83582W        W50013   8.821  25.736   1.292
83583W        W50014   1.876  21.038   4.139
83584W        W50015  27.953  39.362   0.318
83585W        W50016  41.899  37.624  13.543
83586W        W50017  18.694  30.582   2.718
83587W        W50018  23.055  33.169  13.518
83588W        W50019  35.445   8.920  14.519
83589W        W50020   2.357  18.548   0.254
83590W        W50021  21.651  40.031  14.400
83591W        W50022  16.258  35.590  11.487
83592W        W50023   5.236  35.287  11.216
83593W        W50024  29.445   6.446  14.796
83594W        W50025  42.621  18.746  11.289
83595W        W50026  24.190  13.596  11.555
83596W        W50027   9.977  37.563   3.209
83597W        W50028  32.102  21.332  11.378
83598W        W50029  39.964  40.842   2.662
83599W        W50030  22.489   3.638  13.219
83600W        W50031  16.171  44.440  14.091
83601W        W50032  12.614  33.949  13.566
83602W        W50033  21.278  25.467   4.247
83603W        W50034  31.590  27.052  13.759
83604W        W50035   0.877  30.167  12.382
83605W        W50036  36.053  14.625   3.421
83606W        W50037  33.877  44.038   1.281
83607W        W50038  43.731  34.472   1.451
83608W        W50039  16.813   6.299   1.970
83609W        W50040  14.192  24.203  13.246
83610W        W50041  26.145  31.205   1.432
83611W        W50042  14.792  26.725  14.890
83612W        W50043  37.330  14.362   1.431
83613W        W50044   2.467  24.247   4.204
83614W        W50045   2.398  39.008   3.168
83615W        W50046  39.445  20.046   3.826
83616W        W50047  19.004  21.193  14.483
83617W        W50048  30.950  38.322  11.989
83618W        W50049  14.162   8.311  10.726
83619W        W50050  12.659  39.713   0.795
83620W        W50051  31.067  19.845  10.712
83621W        W50052  28.427  13.865   0.823
83622W        W50053  43.881  21.212  14.855
83623W        W50054   3.929   0.222  12.494
83624W        W50055  30.918   9.580  12.417
83625W        W50056  24.751  10.219  11.610
83626W        W50057   4.464  26.570  11.969
83627W        W50058   4.311  38.305   3.294
83628W        W50059  13.231  37.000   1.529
83629W        W50060  12.383  11.171   4.117
83630W        W50061  32.361   9.952   1.158
83631W        W50062  44.427  25.450   0.881
83632W        W50063  15.943  33.673  12.135
83633W        W50064   2.183  24.033   2.833
83634W        W50065  37.173  31.714   3.168
83635W        W50066  24.021  29.063  12.373
83636W        W50067  21.545  41.098   5.110
83637W        W50068  13.432   1.832   1.973
83638W        W50069  15.446  43.914   1.993
83639W        W50070  19.102  11.082   0.330
83640W        W50071  41.371  11.807   2.465
83641W        W50072   9.947  23.305  12.044
83642W        W50073   1.221  31.855  10.710
83643W        W50074  10.458  13.240   3.686
83644W        W50075  15.216  16.766  13.395
83645W        W50076   4.806  24.002  12.390
83646W        W50077  41.887  17.039  11.660
83647W        W50078  26.162   8.694  13.477
83648W        W50079   7.047  30.426  14.854
83649W        W50080  13.589  21.922  11.208
83650W        W50081  27.204  35.875  13.882
83651W        W50082  26.783   4.310  14.238
83652W        W50083   4.799  22.594  14.912
83653W        W50084  11.598  17.980  12.013
83654W        W50085  36.039  22.998  10.547
83655W        W50086  21.233  36.339  11.159
83656W        W50087  34.986   8.296  11.397
83657W        W50088  35.361  31.804  14.104
83658W        W50089  16.273   6.685   1.177
83659W        W50090  35.182   5.913   3.243
83660W        W50091  13.988  29.070  13.871
83661W        W50092   1.680  25.590  13.973
83662W        W50093  42.412  29.705   4.939
83663W        W50094  42.594  43.403  13.841
83664W        W50095  15.737  35.555  14.269
83665W        W50096  27.842  21.282   4.234
83666W        W50097  18.677  44.443  10.738
83667W        W50098  20.239  11.006   3.542
83668W        W50099  39.807  13.840   3.373
83669W        W50100  25.198   8.151   0.307
83670W        W50101  30.983   2.257   4.156
83671W        W50102  38.042   7.674   4.297
83672W        W50103  35.956   7.739   2.920
83673W        W50104  28.922  31.992   3.199
83674W        W50105  37.429  35.788  12.452
83675W        W50106  26.574   3.302   0.810
83676W        W50107  41.475  15.193  11.281
83677W        W50108  28.193   5.676  13.290
83678W        W50109  28.421  30.905   1.433
83679W        W50110  41.702  32.233  10.624
83680W        W50111  18.015  29.917  14.875
83681W        W50112  43.857  32.697   1.584
83682W        W50113   8.400  17.824   4.699
83683W        W50114   8.675  11.169  14.855
83684W        W50115  26.119  23.095  13.412
83685W        W50116   6.893  39.907  13.528
83686W        W50117  12.297  10.259  12.960
83687W        W50118  10.731  22.488   3.424
83688W        W50119  22.651  39.331  13.158
83689W        W50120   1.269  20.081   0.864
83690W        W50121  43.250  41.137   0.417
83691W        W50122  13.869   4.098   0.250
83692W        W50123  29.585  20.047   1.393
83693W        W50124   3.593  33.604   1.938
83694W        W50125  32.362   1.293   3.291
83695W        W50126  19.752  16.566  12.065
83696W        W50127  10.254  18.125  11.722
83697W        W50128  34.067  33.593  13.825
83698W        W50129  25.017  24.690   2.456
83699W        W50130  19.590  16.853   1.152
83700W        W50131  34.165  24.217  12.818
83701W        W50132  12.410  26.629   3.184
83702W        W50133  35.692   6.920  14.386
83703W        W50134  15.753   6.334   0.341
83704W        W50135  33.148  43.253   2.211
83705W        W50136  26.093  40.795   3.740
83706W        W50137  19.896   4.855  10.074
83707W        W50138   5.310   8.935  12.077
83708W        W50139   0.166  27.961   4.073
83709W        W50140  22.783  34.977   3.221
83710W        W50141  14.682  36.600  11.136
83711W        W50142  33.148   5.321   0.280
83712W        W50143  16.273  11.891   3.096
83713W        W50144  25.986   3.858   0.341
83714W        W50145  21.514  21.766  13.764
83715W        W50146  31.967  34.119   3.812
83716W        W50147  35.040  40.044   2.734
83717W        W50148   0.850  18.126   3.566
83718W        W50149  10.213  34.879   4.498
83719W        W50150  41.991  13.296   1.798
83720W        W50151  12.313  25.049   3.236
83721W        W50152  25.134  16.138   4.544
83722W        W50153  17.392  30.410   4.001
83723W        W50154   0.312   4.970  13.514
83724W        W50155   4.416  29.289   3.407
83725W        W50156   5.729  42.860  14.752
83726W        W50157  43.923  24.537  10.659
83727W        W50158  13.065  20.234   4.181
83728W        W50159  31.048   3.331  12.896
83729W        W50160  29.913  38.455   4.783
83730W        W50161  16.487  12.870   2.324
83731W        W50162  13.745  38.561   1.367
83732W        W50163   7.279  17.855  12.250
83733W        W50164  40.522  20.676   1.199
83734W        W50165  36.226  33.421  12.800
83735W        W50166   8.653  42.521  14.639
83736W        W50167  30.074  20.860   2.797
83737W        W50168   6.136  34.975  11.064
83738W        W50169  12.877  28.744   1.690
83739W        W50170  35.034   1.021  10.283
83740W        W50171   7.945   0.002   0.811
83741W        W50172  32.282   0.503  12.754
83742W        W50173  13.199   0.494   2.650
83743W        W50174  33.609  21.940  11.347
83744W        W50175  26.571   7.757  14.770
83745W        W50176  36.780  38.510  13.514
83746W        W50177  29.544  15.527  14.463
83747W        W50178  17.293   5.700   4.098
83748W        W50179  23.268  31.961  12.508
83749W        W50180   7.937  29.922  13.980
83750W        W50181  28.961  13.504  11.599
83751W        W50182  38.371  39.216  11.624
83752W        W50183   4.968  21.623  12.752
83753W        W50184   5.728  16.446  12.013
83754W        W50185  14.773  18.680  12.992
83755W        W50186  17.595  17.059  10.910
83756W        W50187   2.757  17.708   4.292
83757W        W50188   6.520  34.176   1.938
83758W        W50189  42.860  28.992  11.296
83759W        W50190   3.815  23.270  12.085
83760W        W50191  15.700  16.266   2.246
83761W        W50192  32.367  35.676   0.369
83762W        W50193  35.481  12.524  12.467
83763W        W50194  21.696  15.677   3.745
83764W        W50195  33.555  10.138   0.028
83765W        W50196   9.998  13.646  12.454
83766W        W50197   9.486  37.411  11.492
83767W        W50198  11.279  40.476   2.766
83768W        W50199  34.514   5.584  13.502
83769W        W50200   2.908  10.451  12.846
83770W        W50201  44.410  36.982   4.059
83771W        W50202  20.703  43.422  13.378
83772W        W50203  23.275  22.083   1.822
83773W        W50204  19.743  33.898  11.023
83774W        W50205  33.648   7.996   0.847
83775W        W50206  32.395  25.048   3.072
83776W        W50207  41.028   4.337   3.246
83777W        W50208  14.051   2.806   5.546
83778W        W50209  43.123  40.009  14.865
83779W        W50210  18.111   6.320   1.636
83780W        W50211   5.688  10.657  13.574
83781W        W50212  16.734  26.895   0.810
83782W        W50213   1.965  16.971   4.575
83783W        W50214  36.076  12.599  13.012
83784W        W50215   5.770  19.081   3.704
83785W        W50216  39.436  22.888   0.837
83786W        W50217  38.049  31.693  14.755
83787W        W50218  26.483  13.851   1.817
83788W        W50219  34.853   5.177   1.886
83789W        W50220  22.546  43.666  10.749
83790W        W50221  39.997  16.635  13.780
83791W        W50222  15.661  19.042   2.694
83792W        W50223  35.608  27.362  12.147
83793W        W50224  44.438  41.041   0.412
83794W        W50225   0.363  34.153  10.742
83795W        W50226  39.849  29.790   1.875
83796W        W50227  10.913  20.182  12.954
83797W        W50228  18.590  15.759  13.938
83798W        W50229   5.041  17.734  10.428
83799W        W50230  14.691   6.254  13.311
83800W        W50231  10.137  22.632   2.254
83801W        W50232  24.184  10.089   4.772
83802W        W50233  18.071  11.644  12.844
83803W        W50234  16.649   9.748  10.629
83804W        W50235  10.815   3.434   2.771
83805W        W50236  15.810  32.045   5.298
83806W        W50237  16.774  15.275  13.779
83807W        W50238  36.988  31.604   0.699
83808W        W50239   2.476  14.603  11.531
83809W        W50240  32.622  27.492   0.840
83810W        W50241  38.295   8.078   2.409
83811W        W50242  34.536  20.727   0.210
83812W        W50243  41.888  24.762   4.250
83813W        W50244  39.074  26.563  14.375
83814W        W50245  18.819  41.977   3.913
83815W        W50246   2.269   6.816   2.797
83816W        W50247   2.517  18.124   2.677
83817W        W50248   4.830  30.062   3.557
83818W        W50249  32.514  25.195  12.010
83819W        W50250  30.108  31.210  11.640
83820W        W50251  24.306  15.474   4.090
83821W        W50252  22.875  36.371   2.566
83822W        W50253  44.092  42.038   2.850
83823W        W50254   4.009  29.525  14.887
83824W        W50255  11.529  31.462  13.573
83825W        W50256  32.428  37.434  12.969
83826W        W50257   1.558  10.613   4.510
83827W        W50258  37.902  18.427  13.097
83828W        W50259   2.346  24.098   2.330
83829W        W50260  43.695  25.526  14.358
83830W        W50261   6.896  32.987  11.829
83831W        W50262   4.680   3.057   4.291
83832W        W50263   8.132  37.431   2.308
83833W        W50264   8.696  44.012   4.573
83834W        W50265   0.307  33.201  13.571
83835W        W50266  15.015  16.642  10.531
83836W        W50267  22.975  27.673   0.172
83837W        W50268  24.284  15.385  14.955
83838W        W50269   6.275  20.713   0.036
83839W        W50270   5.708  25.012   4.720
83840W        W50271  41.875  39.073  11.214
83841W        W50272  25.730  31.990  12.385
83842W        W50273  31.490  26.114  11.663
83843W        W50274  17.141  31.537   0.191
83844W        W50275  17.081  11.581   1.341
83845W        W50276  22.145   8.391  14.740
83846W        W50277   0.867   0.873  10.109
83847W        W50278  35.982   7.352  13.841
83848W        W50279  25.149  34.645  10.508
83849W        W50280  12.561  20.174  10.636
83850W        W50281  42.942  31.636   1.957
83851W        W50282  29.695  12.546  14.518
83852W        W50283  27.967  12.787  14.028
83853W        W50284  41.230  13.003  11.704
83854W        W50285  39.032  21.674  13.162
83855W        W50286  17.061  43.463   1.875
83856W        W50287  11.097  23.512   3.257
83857W        W50288  36.965  22.450   2.357
83858W        W50289  27.663  33.490   0.423
83859W        W50290  40.318  35.503   0.896
83860W        W50291   3.136  22.946   3.409
83861W        W50292  31.924  20.526  14.025
83862W        W50293  42.544   5.714  14.895
83863W        W50294  42.338   8.669   3.370
83864W        W50295  42.522   9.242   0.459
83865W        W50296  14.572  14.682   0.915
83866W        W50297  33.653  16.615  11.911
83867W        W50298  19.822  17.024   1.616
83868W        W50299  10.823  16.239  11.612
83869W        W50300  44.037  29.115  12.518
83870W        W50301  34.050  29.233  13.075
83871W        W50302  16.948  41.603   2.464
83872W        W50303  34.396  44.894  10.686
83873W        W50304  37.826  17.617  14.909
83874W        W50305  34.603   4.235  14.711
83875W        W50306  39.837  17.679  12.529
83876W        W50307   2.732   7.230   3.216
83877W        W50308  18.714   1.622  13.429
83878W        W50309   7.398  22.291   3.150
83879W        W50310   1.602  38.448  12.824
83880W        W50311  38.898  27.908  11.604
83881W        W50312  14.231  14.854  11.511
83882W        W50313  30.921  10.081  14.797
83883W        W50314   0.197  40.057   4.302
83884W        W50315  18.286  33.160  12.962
83885W        W50316   6.367  10.221  13.862
83886W        W50317  25.026  24.552  14.957
83887W        W50318  20.541  37.134  12.872
83888W        W50319  16.216   5.894  14.420
83889W        W50320  42.457   6.986  10.509
83890W        W50321   0.731  13.850   3.604
83891W        W50322   8.616  26.399  11.848
83892W        W50323  37.752  36.189   0.047
83893W        W50324   9.459   7.180   4.573
83894W        W50325  12.423  10.619  13.455
83895W        W50326  30.926  43.346   4.740
83896W        W50327   8.764  13.227   1.295
83897W        W50328   6.643   8.120   4.570
83898W        W50329   3.375  23.597   2.826
83899W        W50330  23.610  31.104  11.202
83900W        W50331  38.516   6.937  12.085
83901W        W50332  38.744  22.569   4.508
83902W        W50333  20.978  29.065   3.681
83903W        W50334   0.248  20.628   3.641
83904W        W50335  34.922   8.700   4.076
83905W        W50336   9.656   9.124   3.714
83906W        W50337  42.376  28.871   4.328
83907W        W50338   7.890  22.084  12.488
83908W        W50339  21.980  25.491  14.793
83909W        W50340  31.591   5.324   1.328
83910W        W50341  23.576  36.499   2.353
83911W        W50342  35.359   0.372   2.404
83912W        W50343  21.118   7.234   2.203
83913W        W50344  23.902  36.465   4.785
83914W        W50345  19.832  13.698  11.598
83915W        W50346  15.678  16.312   3.325
83916W        W50347   3.767  38.976  12.102
83917W        W50348   7.750   5.814   1.322
83918W        W50349   0.011  19.157   1.702
83919W        W50350  38.074   6.740   0.504
83920W        W50351   7.384  24.027   0.980
83921W        W50352  36.041  18.375   0.911
83922W        W50353  31.325  40.878  12.519
83923W        W50354  20.457  18.640  10.705
83924W        W50355  20.569  44.040  11.195
83925W        W50356   4.427  21.222  14.565
83926W        W50357  21.732  11.142   4.457
83927W        W50358  32.902  25.728   3.754
83928W        W50359  44.801  25.493   1.271
83929W        W50360   3.990   8.359   2.399
83930W        W50361   6.535  44.496   4.396
83931W        W50362   4.805  14.569  10.321
83932W        W50363   9.359   8.179   2.142
83933W        W50364  11.645  25.383  13.028
83934W        W50365  11.604  29.900   3.194
83935W        W50366  28.554  39.996   3.974
83936W        W50367   1.471  12.912  13.108
83937W        W50368  35.024  16.980  12.201
83938W        W50369  21.202  43.266   2.290
83939W        W50370  28.826  32.469  11.171
83940W        W50371  40.051   9.210  12.473
83941W        W50372  39.793   0.416  14.786
83942W        W50373  39.434  44.687   3.524
83943W        W50374  24.586  14.038   2.151
83944W        W50375   7.811  12.673  14.941
83945W        W50376  23.110  21.613   2.836
83946W        W50377  11.434  21.009  14.310
83947W        W50378  31.924   3.033   1.890
83948W        W50379  20.342  24.103   2.797
83949W        W50380  28.154  35.835   3.746
83950W        W50381  28.696   2.877   4.256
83951W        W50382  22.464  28.990  14.550
83952W        W50383  20.103  35.308  11.544
83953W        W50384  22.157  19.906   1.742
83954W        W50385  20.542  30.925   0.048
83955W        W50386  25.635  43.493  12.513
83956W        W50387   7.051  42.271  10.737
83957W        W50388  34.952  19.920   0.872
83958W        W50389  39.096   4.754   0.078
83959W        W50390  21.028  42.385   3.667
83960W        W50391  16.299  21.031  11.406
83961W        W50392  32.584   1.925  12.586
83962W        W50393  16.639  12.614   4.462
83963W        W50394  25.505   2.726   4.222
83964W        W50395   2.532  42.817   2.687
83965W        W50396  25.024  38.311  14.884
83966W        W50397  40.410  34.953   1.210
83967W        W50398  14.725  28.199  12.357
83968W        W50399  41.680  20.186   0.805
83969W        W50400  41.053  37.789   1.406
83970W        W50401  33.019  30.393  10.644
83971W        W50402  17.911  25.955   1.251
83972W        W50403   1.190  24.023  12.562
83973W        W50404  20.785  42.926   2.251
83974W        W50405  41.068  39.327  11.513
83975W        W50406  28.443  30.505   2.398
83976W        W50407  30.094  12.405   2.719
83977W        W50408  25.144  39.073  10.640
83978W        W50409   0.953  26.246  11.502
83979W        W50410  16.193  40.115   1.518
83980W        W50411  14.228  31.935   3.229
83981W        W50412  28.041  10.788   1.307
83982W        W50413  26.098  27.042  13.836
83983W        W50414  26.578  31.088   1.171
83984W        W50415  43.429  15.126  13.186
83985W        W50416  37.690  32.654  10.531
83986W        W50417  35.102  12.424   1.030
83987W        W50418  35.635  11.907  10.750
83988W        W50419   7.321   4.230  14.045
83989W        W50420   7.683  13.151   2.730
83990W        W50421   1.813   7.911  14.425
83991W        W50422  42.748  31.504   4.618
83992W        W50423   8.196  32.351  13.595
83993W        W50424  23.146  31.913  13.793
83994W        W50425   9.563  22.614   2.734
83995W        W50426   9.185   4.293   2.116
83996W        W50427  23.881   4.334  14.023
83997W        W50428  32.416  37.645   3.537
83998W        W50429  27.392  17.969   3.864
83999W        W50430  26.149  12.705   1.218
84000W        W50431  42.602  31.470  10.744
84001W        W50432  23.129  26.113   4.387
84002W        W50433  32.585  27.383  12.410
84003W        W50434  42.769   3.304   2.358
84004W        W50435   9.267  42.255  11.679
84005W        W50436  41.228  21.228   1.822
84006W        W50437  28.457  22.613   2.299
84007W        W50438   6.096  30.630  12.471
84008W        W50439  27.630  43.876   2.053
84009W        W50440  32.537  22.385   9.975
84010W        W50441  32.560   4.730  13.030
84011W        W50442   2.963  15.180   4.831
84012W        W50443  22.109  23.931  11.724
84013W        W50444  20.838  13.700  10.242
84014W        W50445  38.056  38.889   1.400
84015W        W50446   8.595  25.531   3.282
84016W        W50447  17.003  15.143   1.878
84017W        W50448  10.257  38.386  14.440
84018W        W50449  15.802  33.101   3.902
84019W        W50450  25.534  12.565  11.632
84020W        W50451  28.968  17.077  11.972
84021W        W50452  17.241  37.835  13.389
84022W        W50453  31.361  17.125   2.777
84023W        W50454  25.573  37.090  14.375
84024W        W50455  13.362  19.284  12.272
84025W        W50456  27.769  15.114  13.389
84026W        W50457   2.000  19.649   1.833
84027W        W50458   5.149  27.847   2.699
84028W        W50459  26.471  44.065  12.406
84029W        W50460  34.105  23.210   4.545
84030W        W50461  11.218  13.295   2.361
84031W        W50462  28.100  19.097  10.632
84032W        W50463  19.566  32.575  14.823
84033W        W50464  31.890   9.808  13.862
84034W        W50465  20.284  33.594  11.274
84035W        W50466  29.054  22.339  13.905
84036W        W50467  29.379   4.452   2.083
84037W        W50468   6.431  22.894  11.356
84038W        W50469  17.548   4.930   0.640
84039W        W50470  29.556  44.130  10.227
84040W        W50471  16.770   4.845   0.355
84041W        W50472  29.615  20.167  11.610
84042W        W50473   7.382  40.653  11.586
84043W        W50474  19.266  20.433  14.709
84044W        W50475  10.292   2.455   4.215
84045W        W50476  10.578  42.759  11.218
84046W        W50477  39.613   0.253   0.537
84047W        W50478  13.899  19.309  12.457
84048W        W50479   7.384  16.275   3.637
84049W        W50480  42.448  15.242   2.180
84050W        W50481   2.709   4.395   2.935
84051W        W50482  22.391  39.690  12.898
84052W        W50483  17.758  21.811   4.502
84053W        W50484   6.630  28.942  13.607
84054W        W50485   8.743  32.037  10.688
84055W        W50486  19.149   4.736   4.590
84056W        W50487  23.279  33.165  14.366
84057W        W50488  43.635  16.838  14.518
84058W        W50489  43.279  40.812   0.881
84059W        W50490   4.277  11.630   2.215
84060W        W50491  25.787  18.121   4.946
84061W        W50492  43.840  18.061  11.099
84062W        W50493   7.823  28.442  12.663
84063W        W50494  27.657  30.881   2.393
84064W        W50495  42.794  17.210  11.636
84065W        W50496  17.069   3.863   2.832
84066W        W50497   5.822  29.001   2.705
84067W        W50498  31.558  13.005   5.079
84068W        W50499  29.113  42.000  13.647
84069W        W50500  20.276  10.563   2.786
84070W        W50501   0.328   9.870   2.964
84071W        W50502  27.552  26.827   1.273
84072W        W50503  15.182  11.528   0.900
84073W        W50504  30.413   7.399   3.568
84074W        W50505   2.998  18.068   2.893
84075W        W50506  20.179   5.429   1.692
84076W        W50507   3.729  34.078  11.537
84077W        W50508  38.900  36.099  11.022
84078W        W50509   8.843  10.206  10.100
84079W        W50510   1.822  43.909  12.992
84080W        W50511  37.704  26.374   3.276
84081W        W50512  44.944   9.425   4.582
84082W        W50513  16.073   8.896   3.796
84083W        W50514  28.912  23.756   4.156
84084W        W50515  28.080  29.422   3.253
84085W        W50516  29.590  35.643  12.502
84086W        W50517  31.165  16.229   2.179
84087W        W50518  15.781  12.879  10.664
84088W        W50519  12.373  28.285   4.900
84089W        W50520   7.056  26.599   4.070
84090W        W50521  34.366  31.106   1.226
84091W        W50522  17.012  41.362   3.015
84092W        W50523  10.122  10.782  12.330
84093W        W50524   7.112   4.530  11.347
84094W        W50525  14.284  30.186  12.540
84095W        W50526   0.343  20.615  13.101
84096W        W50527  44.312  40.006   4.533
84097W        W50528  23.144  24.843   0.392
84098W        W50529  31.140   7.475   4.183
84099W        W50530  19.973  22.239  14.398
84100W        W50531  11.666  43.295   3.177
84101W        W50532  40.981  10.654  10.771
84102W        W50533  35.506  15.441   1.757
84103W        W50534  36.898  41.463   3.184
84104W        W50535   0.476  13.265  13.970
84105W        W50536  44.920  15.334  14.994
84106W        W50537  43.160  34.841  10.706
84107W        W50538   2.301  26.834   2.768
84108W        W50539   0.843  11.346   0.953
84109W        W50540  19.998  36.456  14.599
84110W        W50541  37.890   9.889  12.049
84111W        W50542  19.552   5.428  14.280
84112W        W50543  14.408   1.908  14.832
84113W        W50544  12.403  41.754   3.892
84114W        W50545  17.548  33.964  11.652
84115W        W50546  32.177  26.199  12.924
84116W        W50547  31.947   1.008   1.659
84117W        W50548  34.306  36.542  10.763
84118W        W50549  40.330   6.008   0.332
84119W        W50550   7.190  21.528  13.943
84120W        W50551   5.476  36.473  12.444
84121W        W50552   0.737  35.419  13.541
84122W        W50553  41.709  21.756   0.542
84123W        W50554   1.458  39.600   1.794
84124W        W50555   4.001  41.563  10.717
84125W        W50556  32.319   7.406   2.772
84126W        W50557  14.788  30.740   2.326
84127W        W50558  32.127   5.353   4.609
84128W        W50559  12.831  12.127  12.082
84129W        W50560  28.657  21.700   1.616
84130W        W50561   1.924  32.577  11.474
84131W        W50562  36.662  38.576  14.393
84132W        W50563  27.966  35.281  13.979
84133W        W50564   3.300  26.532   4.117
84134W        W50565  10.040  11.275  12.503
84135W        W50566   1.357  18.977   1.630
84136W        W50567  31.548  12.599  12.762
84137W        W50568   1.284  32.019   1.308
84138W        W50569  18.619  26.601  12.394
84139W        W50570  12.055  29.944   1.735
84140W        W50571  27.401  12.513   1.220
84141W        W50572   1.920   1.836   1.409
84142W        W50573  32.875  41.760  11.262
84143W        W50574  23.591   2.518   3.838
84144W        W50575   2.799  26.619   2.783
84145W        W50576  22.761  31.080  11.542
84146W        W50577  35.958  43.023   1.650
84147W        W50578  18.319  23.696   4.712
84148W        W50579  13.176  18.777  12.830
84149W        W50580  31.096  27.857  14.056
84150W        W50581  14.241  39.336   4.289
84151W        W50582   3.882  43.610   1.831
84152W        W50583  13.124  44.702   4.181
84153W        W50584  12.460   7.878  11.594
84154W        W50585   7.419   3.883  12.080
84155W        W50586   4.267  26.259  13.839
84156W        W50587  35.760  17.791  12.825
84157W        W50588  32.808  43.879   4.636
84158W        W50589  38.868  22.210  12.014
84159W        W50590  42.100  34.812  13.932
84160W        W50591  24.896  28.875  11.037
84161W        W50592   6.921  40.525   1.582
84162W        W50593  20.116  37.818  10.785
84163W        W50594  15.175  41.501   3.621
84164W        W50595  18.249  20.465   0.379
84165W        W50596  44.000   0.883   2.293
84166W        W50597   0.353   5.879   0.985
84167W        W50598  13.098  39.067   1.318
84168W        W50599  13.228   9.028   1.418
84169W        W50600   8.259   9.976   1.879
84170W        W50601  39.978  29.604   4.890
84171W        W50602  19.878  25.478  13.887
84172W        W50603  17.041  41.191   1.568
84173W        W50604   0.708  40.872   3.707
84174W        W50605  33.518  12.695   2.847
84175W        W50606  20.789   4.845   2.849
84176W        W50607  15.134  24.966  11.594
84177W        W50608  18.068   9.940  12.117
84178W        W50609   9.725   9.871  11.083
84179W        W50610  33.213   6.208   2.141
84180W        W50611  15.049  14.683   3.160
84181W        W50612  27.973  38.372  14.526
84182W        W50613  35.317  19.227   3.784
84183W        W50614  24.473  17.760  14.230
84184W        W50615  22.594  12.401   0.591
84185W        W50616  43.284  41.904   1.740
84186W        W50617  23.161  31.063   3.311
84187W        W50618  26.172  21.290  13.083
84188W        W50619   6.849  13.180  11.458
84189W        W50620  22.469  44.991  10.616
84190W        W50621  30.648  10.189   1.718
84191W        W50622  41.345  43.324   3.135
84192W        W50623  17.103  11.569  14.948
84193W        W50624   0.174  39.233   3.527
84194W        W50625   4.178   5.678   3.748
84195W        W50626   5.693  38.528   4.764
84196W        W50627  12.415  43.891  14.485
84197W        W50628  23.274  12.635  12.688
84198W        W50629  17.309   3.423  13.533
84199W        W50630  11.602  11.338   2.376
84200W        W50631  38.765  42.653   4.952
84201W        W50632  15.419  37.847  10.684
84202W        W50633  25.822  18.129  13.650
84203W        W50634   3.017  33.512   1.851
84204W        W50635   4.442  25.482   3.647
84205W        W50636  36.899  16.751   4.525
84206W        W50637   8.164  10.125   3.310
84207W        W50638  27.676  20.732  14.804
84208W        W50639  11.726   6.475   4.372
84209W        W50640  37.900  33.843  13.099
84210W        W50641  30.562  20.616   0.257
84211W        W50642  29.427  24.578   1.218
84212W        W50643  37.410  33.849   3.673
84213W        W50644  17.769  28.403  14.923
84214W        W50645  15.555  31.876  14.349
84215W        W50646  43.015  43.495  13.030
84216W        W50647  23.320  10.297  13.001
84217W        W50648  22.425  36.932   0.590
84218W        W50649  44.297  12.748   3.754
84219W        W50650  44.600  19.290   4.071
84220W        W50651  22.226  10.714  14.806
84221W        W50652   9.079  37.868   0.214
84222W        W50653  21.850  42.445  14.785
84223W        W50654  27.182  11.704  10.821
84224W        W50655  25.427  31.796  13.066
84225W        W50656  41.890  15.384  12.025
84226W        W50657   0.779  33.368  13.771
84227W        W50658   2.346   7.856   2.679
84228W        W50659  13.912  26.049  13.423
84229W        W50660  24.753  41.444   9.665
84230W        W50661   9.715  26.555  12.953
84231W        W50662  12.701  22.470  14.406
84232W        W50663  27.583   9.847  12.524
84233W        W50664  36.662  33.861  14.882
84234W        W50665  31.884  21.078   0.353
84235W        W50666  20.548  17.799  11.611
84236W        W50667  17.743  29.664  12.713
84237W        W50668  20.685  22.009   1.295
84238W        W50669  34.360  35.373  13.224
84239W        W50670   4.355   9.187   1.342
84240W        W50671  26.452   2.026   1.338
84241W        W50672  22.713  23.196  11.978
84242W        W50673  10.376  20.098   4.631
84243W        W50674  37.970   0.028  11.646
84244W        W50675  19.528   0.913  11.515
84245W        W50676  23.105  38.667  12.963
84246W        W50677  17.524  38.544  10.610
84247W        W50678  44.943  37.980  11.524
84248W        W50679  10.698   6.262  13.373
84249W        W50680   1.826  34.791   1.310
84250W        W50681  17.143   9.715   2.444
84251W        W50682  35.328  28.880  12.982
84252W        W50683  10.727  25.584   4.238
84253W        W50684  39.202  33.019  14.551
84254W        W50685  10.213   2.806  12.990
84255W        W50686  16.679  33.533  12.540
84256W        W50687  22.999  43.884  10.453
84257W        W50688   0.874  12.864   1.779
84258W        W50689  11.114   0.379  11.488
84259W        W50690  15.597   4.272   9.737
84260W        W50691  23.274  40.450   1.241
84261W        W50692   9.281   4.586  12.398
84262W        W50693  43.692  31.689  12.920
84263W        W50694   5.035  12.273  10.621
84264W        W50695  18.782   7.303  11.512
84265W        W50696  12.539  27.825  12.481
84266W        W50697  16.135  38.312  12.944
84267W        W50698  24.687   0.794   4.158
84268W        W50699  35.044  26.535  11.067
84269W        W50700  40.317   0.247   3.564
84270W        W50701  34.398  35.624   2.281
84271W        W50702   1.393  37.288  12.402
84272W        W50703  11.239   9.554  10.655
84273W        W50704   3.952  19.153  14.117
84274W        W50705  18.434  19.759  14.906
84275W        W50706  12.164  39.861   0.421
84276W        W50707  36.842   6.943  11.492
84277W        W50708   3.331  20.203   1.881
84278W        W50709  24.214  35.781   3.702
84279W        W50710  13.970  36.199  10.179
84280W        W50711   1.389  28.036   0.489
84281W        W50712  35.409  35.968  11.573
84282W        W50713  35.013  30.087  11.625
84283W        W50714  36.818  42.330  11.021
84284W        W50715  44.462  10.611  10.176
84285W        W50716   6.157  11.773   2.941
84286W        W50717  10.256  19.232   2.214
84287W        W50718  32.616  23.985   3.633
84288W        W50719  44.503  18.814  12.427
84289W        W50720  35.072  38.688  11.120
84290W        W50721  30.218   8.875   2.411
84291W        W50722  33.195   8.860   0.601
84292W        W50723  18.280  35.102   0.250
84293W        W50724   3.227  23.895  14.396
84294W        W50725   5.938   4.307   0.908
84295W        W50726  10.642  27.000  11.147
84296W        W50727  43.639  11.679   3.326
84297W        W50728  43.957  13.121   4.162
84298W        W50729  17.099  34.574   4.988
84299W        W50730  33.852  26.440  14.854
84300W        W50731  19.156  42.161  14.090
84301W        W50732  11.606  27.596   1.506
84302W        W50733  32.662  39.791  13.872
84303W        W50734  41.885  18.807   4.100
84304W        W50735  23.986   2.813  12.954
84305W        W50736   5.760  43.440   4.579
84306W        W50737  27.109  20.559   3.987
84307W        W50738  25.671  15.577   0.417
84308W        W50739  19.291   4.832  14.279
84309W        W50740   6.916  23.786   3.707
84310W        W50741  44.801  32.035   3.330
84311W        W50742  20.118  34.174  13.034
84312W        W50743  20.615  14.588   2.969
84313W        W50744  38.415  21.797   4.350
84314W        W50745  16.865   9.000  10.043
84315W        W50746  42.215  30.896   2.692
84316W        W50747  13.992  10.734   2.148
84317W        W50748   1.546  29.624  14.728
84318W        W50749   7.285  24.220  12.585
84319W        W50750   5.842   1.379  14.995
84320W        W50751  42.717  40.411  13.016
84321W        W50752   6.633  22.284   1.759
84322W        W50753   8.365  39.137  14.515
84323W        W50754  43.993  43.323   4.071
84324W        W50755   3.501  36.583  11.186
84325W        W50756  18.134  19.635  14.502
84326W        W50757  26.300  35.043   2.120
84327W        W50758  39.569  26.620  12.991
84328W        W50759  18.656   2.493  13.153
84329W        W50760  13.152  25.728  10.817
84330W        W50761   8.086   8.890  11.796
84331W        W50762   7.163   1.904   2.902
84332W        W50763   1.519   3.276   3.729
84333W        W50764  42.319   1.734  10.833
84334W        W50765  14.273  42.779  11.348
84335W        W50766  22.752   4.777  12.633
84336W        W50767  12.330  15.209  14.388
84337W        W50768  22.463  20.950  10.937
84338W        W50769   4.029  29.946  11.410
84339W        W50770  40.597  15.096   2.362
84340W        W50771  27.111   4.881  12.628
84341W        W50772   7.093  44.896   4.157
84342W        W50773  24.412  26.636   5.048
84343W        W50774  11.181  28.159  12.162
84344W        W50775  30.190  37.520   2.269
84345W        W50776  21.711  42.523   3.290
84346W        W50777  26.688  39.339   0.947
84347W        W50778   3.443   1.424  11.947
84348W        W50779   8.305  43.998   3.184
84349W        W50780   2.552  26.505  11.215
84350W        W50781  43.367   4.956   0.467
84351W        W50782  27.717  12.900   2.683
84352W        W50783   7.647  35.521  13.430
84353W        W50784  24.177   0.773   5.042
84354W        W50785  33.965   7.823   2.604
84355W        W50786  42.521  12.712   4.181
84356W        W50787  38.951  40.206   0.790
84357W        W50788  12.667  35.259   2.171
84358W        W50789  36.320  14.221  12.121
84359W        W50790   3.384  20.149   0.940
84360W        W50791  10.655   0.627   0.454
84361W        W50792   0.382  35.945   0.257
84362W        W50793  11.252  35.760  10.925
84363W        W50794   6.602  19.319   1.604
84364W        W50795  28.966  14.531   1.813
84365W        W50796  22.240  24.233   1.324
84366W        W50797  30.711  24.324   1.008
84367W        W50798   1.554  36.864   2.410
84368W        W50799   8.185   3.137  13.115
84369W        W50800  14.811   1.339   1.222
84370W        W50801  25.279  13.238   4.941
84371W        W50802  30.378   0.248   1.270
84372W        W50803   1.248  38.820   0.077
84373W        W50804  27.911  10.106  12.195
84374W        W50805  43.326   5.893   0.565
84375W        W50806  21.409  31.176   1.315
84376W        W50807  27.078  15.648   2.472
84377W        W50808  17.698   7.423  11.574
84378W        W50809  20.626  30.977  11.641
84379W        W50810  33.654  33.919  13.937
84380W        W50811  25.684  20.799   0.328
84381W        W50812  44.583  36.116  11.643
84382W        W50813  39.784  42.869  12.062
84383W        W50814  25.707  13.928   3.409
84384W        W50815  24.498  20.645  11.860
84385W        W50816  21.092  10.254  10.028
84386W        W50817  34.320   1.793  13.104
84387W        W50818   1.661   1.451   4.155
84388W        W50819   7.784  20.290   4.477
84389W        W50820  20.678  42.751   2.726
84390W        W50821   0.537  42.406   4.665
84391W        W50822  35.471  20.629   0.262
84392W        W50823  36.785  33.664  10.639
84393W        W50824   4.721   1.424   1.887
84394W        W50825  13.253  40.447  14.143
84395W        W50826  44.531  34.328  11.118
84396W        W50827   4.666   1.544  13.348
84397W        W50828  37.336   6.751   4.584
84398W        W50829  15.529  31.541   2.282
84399W        W50830  28.614   4.596  10.673
84400W        W50831  44.265  12.794   0.863
84401W        W50832  11.113   7.988   1.408
84402W        W50833   4.435  44.445   3.736
84403W        W50834   4.252  13.883  11.989
84404W        W50835   1.249   8.643   0.749
84405W        W50836  37.326   3.564   0.765
84406W        W50837  30.583  15.302   0.020
84407W        W50838  39.095  25.256  13.056
84408W        W50839   7.669  39.250   2.222
84409W        W50840  37.402  17.635  13.586
84410W        W50841  22.014  15.632  10.466
84411W        W50842   2.442  41.744   1.714
84412W        W50843  34.334  18.562  13.314
84413W        W50844  29.032  19.258   2.258
84414W        W50845  20.191  18.223   4.998
84415W        W50846  44.743  35.439  12.020
84416W        W50847  40.840  18.577   0.930
84417W        W50848   4.264  10.591   4.742
84418W        W50849  26.263  43.902  10.459
84419W        W50850  26.246  36.447  14.543
84420W        W50851  16.913  22.437  11.458
84421W        W50852  37.396  13.574  11.084
84422W        W50853  32.674  23.216   0.359
84423W        W50854  16.216  28.201   3.363
84424W        W50855  43.945   2.853   1.061
84425W        W50856  18.374   5.308  10.350
84426W        W50857  17.135  12.772  12.517
84427W        W50858   6.770  27.161   0.348
84428W        W50859   3.999   1.384  14.199
84429W        W50860   0.289  39.302  10.773
84430W        W50861   2.041   1.006   2.223
84431W        W50862  15.939   8.493   4.106
84432W        W50863  41.018  18.306   3.115
84433W        W50864  15.572  35.530   1.237
84434W        W50865  20.972  37.303  13.982
84435W        W50866  41.899   8.109  14.431
84436W        W50867  15.168  43.372   4.452
84437W        W50868   0.494   5.917  11.004
84438W        W50869  12.184  20.807   0.468
84439W        W50870  23.255  17.203  11.945
84440W        W50871   4.813  32.084  14.318
84441W        W50872   3.266  18.574   2.517
84442W        W50873  14.615  31.687  14.059
84443W        W50874   3.529   8.640  14.783
84444W        W50875  34.453  38.845   4.284
84445W        W50876  10.192  12.787  11.949
84446W        W50877   7.377  42.656   4.173
84447W        W50878   5.884  43.781  12.573
84448W        W50879   2.433  13.092  10.583
84449W        W50880  17.463  36.816   3.630
84450W        W50881  27.104  39.888   2.824
84451W        W50882  38.170  13.051   3.102
84452W        W50883  23.428  13.818   0.817
84453W        W50884  11.953  43.674  13.414
84454W        W50885  15.309   9.398   3.309
84455W        W50886  27.475  43.049   4.224
84456W        W50887  25.886   2.772  12.537
84457W        W50888   8.805  44.492   0.575
84458W        W50889  17.830  44.322   2.504
84459W        W50890  38.307   5.739   4.649
84460W        W50891   2.944  21.069   3.189
84461W        W50892  18.913  17.117   2.374
84462W        W50893  14.114  33.656  11.948
84463W        W50894   9.297  20.133   3.887
84464W        W50895  43.509  20.151  11.701
84465W        W50896  29.681   8.245  13.853
84466W        W50897  18.621  31.478  13.534
84467W        W50898  11.155  33.540  14.889
84468W        W50899  18.774  24.424   3.320
84469W        W50900  25.064  13.795   1.300
84470W        W50901  33.415  27.624  13.980
84471W        W50902   9.148  18.752  13.887
84472W        W50903  32.642  39.478  11.577
84473W        W50904   4.679  31.415   0.470
84474W        W50905  16.857  25.607   2.851
84475W        W50906  15.323  16.029   1.990
84476W        W50907  35.069  18.841   2.802
84477W        W50908  43.982  19.047   4.820
84478W        W50909  23.064  29.167   3.236
84479W        W50910  10.032   3.792   1.286
84480W        W50911  36.138  28.184  13.022
84481W        W50912  25.597  21.398  11.021
84482W        W50913  36.729   9.370   4.196
84483W        W50914  17.056   1.393  10.953
84484W        W50915  10.597  32.274   3.644
84485W        W50916   5.381  44.031  12.816
84486W        W50917  33.347   1.918   2.916
84487W        W50918  11.526   9.370   4.074
84488W        W50919   1.585  10.201  13.085
84489W        W50920  21.221  20.025   0.978
84490W        W50921  23.087  39.524  14.409
84491W        W50922  22.317  40.856  13.494
84492W        W50923   6.192  11.553  14.251
84493W        W50924   3.768  19.994   2.728
84494W        W50925  36.847  42.797   3.527
84495W        W50926  43.283  31.886  12.108
84496W        W50927  37.649  35.791  11.991
84497W        W50928  31.973  22.487   0.807
84498W        W50929  26.658  39.818   4.922
84499W        W50930  19.361  33.116   3.537
84500W        W50931   2.917  30.008   0.568
84501W        W50932  31.725  23.396  12.976
84502W        W50933  30.408   7.039   9.760
84503W        W50934  24.164   6.628  13.332
84504W        W50935  13.889   8.206   0.489
84505W        W50936   3.277  14.770  14.350
84506W        W50937  31.391   3.956  13.513
84507W        W50938  13.586  41.470  11.545
84508W        W50939  25.856  14.062  11.511
84509W        W50940  37.907  26.889   0.950
84510W        W50941  26.937   1.808  11.903
84511W        W50942  17.374  15.325   4.548
84512W        W50943  34.073   3.938   3.149
84513W        W50944  17.397   4.851  11.054
84514W        W50945  12.473   5.836   4.116
84515W        W50946   5.211  14.517  11.120
84516W        W50947  13.424  10.160   0.806
84517W        W50948  16.781  32.198  13.934
84518W        W50949  42.981   7.764   4.252
84519W        W50950  27.632  26.618   4.367
84520W        W50951  38.610  11.398   4.188
84521W        W50952  31.374  37.929   4.380
84522W        W50953  20.216   6.708   2.404
84523W        W50954  19.149   1.773   4.133
84524W        W50955  43.876  40.018  11.013
84525W        W50956  21.550  25.554  11.278
84526W        W50957  35.970  34.365   1.424
84527W        W50958  29.413   2.937  12.589
84528W        W50959  19.538  24.142  11.634
84529W        W50960  14.975  31.107   1.596
84530W        W50961   2.820   2.783   0.447
84531W        W50962  19.199  41.990  13.085
84532W        W50963   7.231  29.910   4.183
84533W        W50964   9.412  43.074  10.677
84534W        W50965  39.385   3.401  12.938
84535W        W50966   6.397  29.170   2.711
84536W        W50967  37.215   1.549   0.780
84537W        W50968   7.737  20.355   3.716
84538W        W50969  43.872  14.686   3.905
84539W        W50970  19.931  37.310   4.847
84540W        W50971  40.255  23.445  11.970
84541W        W50972  27.422  37.912   2.474
84542W        W50973  38.385  32.779   4.796
84543W        W50974  11.893  20.858   4.614
84544W        W50975  36.271   1.504  11.595
84545W        W50976   8.703  11.121  10.586
84546W        W50977   0.981  21.238  14.037
84547W        W50978  37.496  41.056   5.459
84548W        W50979   9.610  44.017   4.057
84549W        W50980  19.056  33.934   1.651
84550W        W50981  12.679  30.946  14.479
84551W        W50982  32.331  19.063   0.508
84552W        W50983  27.941  21.026   2.408
84553W        W50984  40.252  33.073  13.597
84554W        W50985  36.777  39.940  13.665
84555W        W50986  20.463  26.277  12.168
84556W        W50987  33.181  27.180  13.792
84557W        W50988   4.349   6.229   0.081
84558W        W50989   4.736   1.185   3.797
84559W        W50990  22.283  33.987  12.835
84560W        W50991  24.970  23.444   1.677
84561W        W50992  27.943   8.499  14.797
84562W        W50993  10.822  27.612   0.491
84563W        W50994  43.837  13.459  13.269
84564W        W50995  19.377  25.723   0.068
84565W        W50996  42.982  20.223   2.321
84566W        W50997   8.840  44.870   2.746
84567W        W50998  34.508  26.462  11.172
84568W        W50999  35.117  15.873  13.269
84569W        W51000  43.167  28.091  13.117
84570W        W51001  27.523   1.975   0.294
84571W        W51002   2.354  42.591  14.009
84572W        W51003  21.362   1.295  11.650
84573W        W51004  15.187   1.325   2.320
84574W        W51005  19.910   9.211  12.028
84575W        W51006  28.255   6.676  11.175
84576W        W51007   3.227  20.242   4.072
84577W        W51008  36.579  40.641   4.024
84578W        W51009  13.495  39.205  14.928
84579W        W51010  25.859  10.297  12.482
84580W        W51011   8.499  38.493   0.189
84581W        W51012  38.776   3.742  10.707
84582W        W51013   4.758  34.174   1.798
84583W        W51014  36.158  33.216   4.620
84584W        W51015   2.171  32.520  11.017
84585W        W51016  40.594  11.210   1.814
84586W        W51017  22.942  38.154  14.277
84587W        W51018  20.099  40.002  10.280
84588W        W51019  21.010  38.097   2.793
84589W        W51020   1.934  31.708   0.351
84590W        W51021  37.452  36.828   5.023
84591W        W51022  21.162  32.912  10.541
84592W        W51023  15.080  26.472   2.205
84593W        W51024  42.595   9.218  14.919
84594W        W51025  13.835  26.076   3.260
84595W        W51026  40.612  17.577   1.859
84596W        W51027  41.304  32.428  11.570
84597W        W51028  36.870  18.547  13.896
84598W        W51029  18.458  27.902  10.765
84599W        W51030   2.401   3.181   1.061
84600W        W51031  13.237  39.895  12.416
84601W        W51032  28.072  31.109  14.764
84602W        W51033  17.884  34.411   0.865
84603W        W51034  22.698   4.908  11.214
84604W        W51035  38.545   3.002   0.029
84605W        W51036  41.491  44.787  14.271
84606W        W51037  35.416  33.849  13.663
84607W        W51038  22.034   8.100  13.235
84608W        W51039   1.866  31.652   0.896
84609W        W51040   3.793  43.913  11.192
84610W        W51041  31.210  18.419  14.446
84611W        W51042  26.576  15.374   4.301
84612W        W51043  27.889  42.296  13.050
84613W        W51044  26.969  19.595   4.190
84614W        W51045  40.453  26.749  12.585
84615W        W51046  28.336   3.978   3.594
84616W        W51047  20.836  44.826  14.673
84617W        W51048   4.070  14.658  13.684
84618W        W51049  33.019   7.527   0.533
84619W        W51050  28.943  40.398   4.023
84620W        W51051  34.505  31.917   4.990
84621W        W51052  27.943  17.864  11.644
84622W        W51053   1.705   9.354  10.748
84623W        W51054  15.729  30.233  14.173
84624W        W51055   2.293  33.033   0.398
84625W        W51056  29.222  44.410  14.535
84626W        W51057   7.231  23.055   2.786
84627W        W51058  34.027  11.616   1.480
84628W        W51059  27.266  31.055   3.299
84629W        W51060  38.008  18.758  14.466
84630W        W51061  22.438  32.095   1.452
84631W        W51062  25.007  40.694   1.122
84632W        W51063  16.868  11.287  11.713
84633W        W51064  41.970  23.724  14.329
84634W        W51065  32.502  31.839   1.596
84635W        W51066   7.773  42.338   1.670
84636W        W51067  38.200  22.678   3.622
84637W        W51068  25.080  41.002  11.731
84638W        W51069   5.823  13.784   0.828
84639W        W51070  23.073  44.304   0.907
84640W        W51071  43.745  31.476   4.243
84641W        W51072  42.341   9.665   2.390
84642W        W51073  40.841  21.518  12.560
84643W        W51074  41.406  23.881   2.232
84644W        W51075   1.352   2.051   3.093
84645W        W51076  29.739  26.696   0.716
84646W        W51077  14.364  37.009  12.518
84647W        W51078   5.262   3.659   1.327
84648W        W51079  31.026  15.066  12.070
84649W        W51080  25.500  26.635  12.517
84650W        W51081  22.267  21.469  14.897
84651W        W51082  13.722  25.852  11.663
84652W        W51083  31.995  20.383  10.789
84653W        W51084  31.012  15.382  11.625
84654W        W51085  20.594  23.706   4.890
84655W        W51086  21.773  11.299   3.969
84656W        W51087  20.096  10.872  12.911
84657W        W51088  20.798   6.282  10.558
84658W        W51089  37.100  43.917   1.826
84659W        W51090  44.172  10.758   2.308
84660W        W51091  26.226  15.020  11.637
84661W        W51092  28.928  43.586   0.575
84662W        W51093  44.782  37.956  13.407
84663W        W51094  33.437  24.477  12.523
84664W        W51095   3.728  15.519  10.709
84665W        W51096  23.511   1.089   3.706
84666W        W51097  15.134   3.208  10.064
84667W        W51098   6.233  34.854  14.835
84668W        W51099  14.517  28.677   0.121
84669W        W51100  36.228   8.584  13.780
84670W        W51101   1.764   1.267   3.158
84671W        W51102  42.786  24.626  13.123
84672W        W51103  29.714  18.800   2.725
84673W        W51104  35.345   8.653   2.284
84674W        W51105   5.471   3.709   3.140
84675W        W51106  15.155  36.759  13.433
84676W        W51107  30.983  25.305  12.926
84677W        W51108  40.613   0.694   1.790
84678W        W51109   6.895  22.234  14.323
84679W        W51110   6.101  34.205  12.531
84680W        W51111   0.462  33.655  10.767
84681W        W51112  33.564  37.337   2.886
84682W        W51113  23.469   2.758  13.917
84683W        W51114  13.439  17.694  12.384
84684W        W51115   1.249  22.213  14.902
84685W        W51116  26.571  14.795  13.946
84686W        W51117  24.128   6.915  13.779
84687W        W51118  10.364   4.479  10.610
84688W        W51119  37.604  26.655   3.698
84689W        W51120   2.006  27.926   3.698
84690W        W51121  34.335  21.272  13.825
84691W        W51122  43.673  43.700   0.777
84692W        W51123  17.022  14.652   3.672
84693W        W51124  21.245  17.948  14.337
84694W        W51125  20.339  43.142   3.800
84695W        W51126  12.886   6.341   1.441
84696W        W51127   2.699  39.509   4.206
84697W        W51128  34.934  20.461   1.893
84698W        W51129  19.899  27.219  11.008
84699W        W51130   9.970   7.311   4.577
84700W        W51131  22.400  12.288  12.140
84701W        W51132  36.885   7.778   3.766
84702W        W51133  42.372  33.079   4.535
84703W        W51134  31.907  35.917  14.475
84704W        W51135  30.986  32.678  14.073
84705W        W51136   6.327  16.123   1.499
84706W        W51137  24.560  20.673   2.149
84707W        W51138  35.409  42.426   0.359
84708W        W51139   8.947  29.072  11.239
84709W        W51140  26.987   2.801   3.175
84710W        W51141   5.381   2.063   2.726
84711W        W51142   8.844  35.869  11.142
84712W        W51143   4.187  41.526   3.418
84713W        W51144  23.283  41.388   4.127
84714W        W51145  12.134  29.617   0.404
84715W        W51146  36.885  12.245   3.379
84716W        W51147  16.240  27.214   3.500
84717W        W51148   5.817  42.786  11.615
84718W        W51149  32.474   3.390   0.431
84719W        W51150  23.966   5.897   2.313
84720W        W51151  14.715  28.039   0.440
84721W        W51152  12.000  25.164   5.014
84722W        W51153  33.980   0.357   0.865
84723W        W51154   8.206   4.838   4.280
84724W        W51155   3.368   0.769   2.295
84725W        W51156  39.115  32.402  10.560
84726W        W51157  18.076  35.019   4.689
84727W        W51158   6.450  29.619  13.106
84728W        W51159   5.171  42.214   1.695
84729W        W51160  23.503  19.196   2.108
84730W        W51161  18.483   9.280   2.724
84731W        W51162  10.843  32.720  13.267
84732W        W51163   8.793   4.241   4.165
84733W        W51164  32.879  29.534   4.910
84734W        W51165  35.449   3.696   0.850
84735W        W51166   4.314  30.354  14.998
84736W        W51167  12.061   9.741  12.157
84737W        W51168  24.135  19.582   3.571
84738W        W51169  25.045  31.076   1.609
84739W        W51170  42.641  36.136   4.324
84740W        W51171  22.748  29.336  13.491
84741W        W51172  22.132  34.609  12.389
84742W        W51173  15.947  42.597   1.744
84743W        W51174  20.501   5.968   4.263
84744W        W51175  40.447  15.169   0.986
84745W        W51176   0.498  15.890  11.615
84746W        W51177  13.808  20.825  10.411
84747W        W51178  13.872  40.537   2.294
84748W        W51179   0.882  31.204  11.035
84749W        W51180  34.812  38.441  13.462
84750W        W51181  10.865  30.092  13.961
84751W        W51182  29.112  17.370   4.129
84752W        W51183  15.180  38.332  10.697
84753W        W51184   0.757  15.334  13.025
84754W        W51185  27.167  32.567  14.977
84755W        W51186  14.267  38.141   1.986
84756W        W51187  26.239  38.563   0.683
84757W        W51188  30.016  36.329  12.928
84758W        W51189  41.206  40.911  12.878
84759W        W51190  25.319   2.910   3.759
84760W        W51191  14.111   2.150  13.544
84761W        W51192  13.331   7.027  11.547
84762W        W51193  38.598  26.668  13.058
84763W        W51194  10.222  24.367  11.232
84764W        W51195  25.062   9.570   4.064
84765W        W51196  14.560  28.595   4.283
84766W        W51197  25.916  28.510   1.786
84767W        W51198   4.116  23.582   1.731
84768W        W51199  40.756  33.709   1.664
84769W        W51200  11.192  12.114  10.825
84770W        W51201  33.533  35.308   0.680
84771W        W51202  24.875  44.316   2.126
84772W        W51203  16.598  40.980   4.607
84773W        W51204   6.387   3.008   0.841
84774W        W51205  14.689   3.278   3.763
84775W        W51206  20.146  22.673  13.753
84776W        W51207  24.088   0.364   3.859
84777W        W51208   4.961  18.076  11.425
84778W        W51209  42.916  14.870  11.243
84779W        W51210  14.498  13.740   2.385
84780W        W51211  21.027  30.558   0.479
84781W        W51212   9.247  44.897  12.387
84782W        W51213   6.849  38.793  11.130
84783W        W51214  44.832  27.334  12.148
84784W        W51215  10.805  27.439  14.084
84785W        W51216  25.176   1.353  11.991
84786W        W51217  25.054  26.152   2.722
84787W        W51218   2.632  43.768   1.779
84788W        W51219  19.971  17.597   4.085
84789W        W51220  36.879  15.372   1.365
84790W        W51221  28.911  16.593  11.091
84791W        W51222   4.308   9.623  14.363
84792W        W51223  20.842   2.258   4.782
84793W        W51224  27.483  11.158   4.291
84794W        W51225  34.391  36.889   3.222
84795W        W51226   7.436  35.855   0.227
84796W        W51227  22.967  18.735   0.821
84797W        W51228  28.228  37.090   3.412
84798W        W51229  35.496  30.205  14.532
84799W        W51230  41.406   1.468  13.046
84800W        W51231  10.370  37.036  14.316
84801W        W51232  20.939  13.696   0.444
84802W        W51233  25.729  27.073   0.365
84803W        W51234  43.382  34.434  14.902
84804W        W51235  17.640  42.355   1.675
84805W        W51236   3.566  13.349  13.617
84806W        W51237  20.066  22.122   2.677
84807W        W51238  28.058   6.464   0.815
84808W        W51239  40.970  10.785   2.939
84809W        W51240  35.585  37.132  13.486
84810W        W51241  14.218  16.660   3.845
84811W        W51242  27.126  31.926   0.313
84812W        W51243  15.376   2.220   2.215
84813W        W51244  23.973  22.135  13.803
84814W        W51245  27.708  27.526  14.798
84815W        W51246   3.830  28.061  10.732
84816W        W51247  31.114   5.408  12.492
84817W        W51248  25.998  13.541  12.537
84818W        W51249  29.493   8.907   0.937
84819W        W51250  12.730   6.301  11.648
84820W        W51251  18.051  26.114  10.404
84821W        W51252  27.124  20.735  11.180
84822W        W51253  13.173   3.196  10.744
84823W        W51254  32.107  22.177  11.079
84824W        W51255  23.076  26.464   1.987
84825W        W51256  15.307  33.104   3.612
84826W        W51257  23.701  35.540   4.426
84827W        W51258  42.592  27.137   3.546
84828W        W51259  41.388  27.534  13.851
84829W        W51260  22.242  11.625  14.813
84830W        W51261  43.921  32.590   3.294
84831W        W51262  19.356  24.288  10.827
84832W        W51263   9.314  44.970  11.428
84833W        W51264   5.210   8.601  11.609
84834W        W51265  27.872  10.734  13.635
84835W        W51266  20.881  13.759  14.917
84836W        W51267  40.229  44.515  10.989
84837W        W51268  10.360   0.455   1.391
84838W        W51269  15.090  31.101   2.101
84839W        W51270   1.107   1.294  12.776
84840W        W51271  43.268  43.742   2.385
84841W        W51272  14.678   6.272  14.246
84842W        W51273  43.279   0.382  11.479
84843W        W51274  43.758   1.989   0.884
84844W        W51275  39.257  31.590   0.180
84845W        W51276  12.848   7.911   0.296
84846W        W51277  24.402  32.264  10.693
84847W        W51278  14.265  37.459  11.364
84848W        W51279  23.576  23.727   1.483
84849W        W51280  21.827  17.047  14.047
84850W        W51281  35.687  43.743  12.054
84851W        W51282  12.308  13.045   0.905
84852W        W51283  40.485  40.102   0.134
84853W        W51284  36.869  40.915  14.819
84854W        W51285   3.094  23.561   0.785
84855W        W51286  10.811  39.569  14.548
84856W        W51287   6.287  28.040  12.073
84857W        W51288  12.725  33.330   0.393
84858W        W51289  15.683  24.930  12.167
84859W        W51290  26.262  20.552   2.783
84860W        W51291   5.228  17.499  12.462
84861W        W51292   1.039  44.220   5.185
84862W        W51293   4.478  25.691   4.124
84863W        W51294  16.198  43.199  12.016
84864W        W51295  29.418   4.146   3.074
84865W        W51296  38.547   4.716   2.200
84866W        W51297  35.991  43.959   1.181
84867W        W51298  32.372  42.493  11.567
84868W        W51299   6.861  44.049   2.134
84869W        W51300  20.522  18.165   0.296
84870W        W51301   7.182  38.333   2.218
84871W        W51302   9.331  44.410   0.704
84872W        W51303  39.877  27.670   1.692
84873W        W51304  28.418   3.857   4.771
84874W        W51305  26.581  27.123  13.971
84875W        W51306  12.265  17.613  12.204
84876W        W51307  29.553  29.507  13.882
84877W        W51308  38.651   7.722   0.110
84878W        W51309   1.751   6.983  12.875
84879W        W51310  41.517  40.729   2.483
84880W        W51311  26.252  19.062   1.439
84881W        W51312   0.002  25.403  13.125
84882W        W51313   1.206  27.152   0.851
84883W        W51314  34.817  26.539  13.847
84884W        W51315  11.716  12.140  14.251
84885W        W51316  29.858  40.804  11.934
84886W        W51317  13.817  33.537   1.362
84887W        W51318  30.895  19.807  14.752
84888W        W51319  25.610  34.615   3.263
84889W        W51320   0.289  24.589  11.964
84890W        W51321   6.489  27.563   2.941
84891W        W51322  27.718  44.980  12.009
84892W        W51323  16.529  31.407   4.646
84893W        W51324   7.908  33.711   0.851
84894W        W51325  36.016   4.726  10.722
84895W        W51326  17.090   1.023   1.355
84896W        W51327   5.399  36.545   4.220
84897W        W51328   3.975  30.925  10.484
84898W        W51329  16.220  28.375  13.559
84899W        W51330  32.378  22.240   0.573
84900W        W51331   8.722  14.630  13.026
84901W        W51332  29.859   6.243  11.801
84902W        W51333  13.443  21.228   2.656
84903W        W51334   6.117  12.247   0.311
84904W        W51335  17.520  32.147  13.554
84905W        W51336   8.225   3.975   4.076
84906W        W51337  30.278   8.033   0.365
84907W        W51338  41.335  16.786   3.126
84908W        W51339  37.441  32.286   2.762
84909W        W51340  16.158  43.595   3.366
84910W        W51341  29.116   0.307   4.857
84911W        W51342  36.059  30.405  13.439
84912W        W51343  35.657   8.264   4.256
84913W        W51344  32.641  34.147   2.408
84914W        W51345  28.928  24.245  14.008
84915W        W51346  12.386  15.416  10.455
84916W        W51347  43.825  23.460  10.547
84917W        W51348  40.485   4.902   1.366
84918W        W51349  27.391  29.262   1.802
84919W        W51350  41.471  42.553  14.669
84920W        W51351   0.730   3.802  11.690
84921W        W51352  16.119  42.982   0.773
84922W        W51353   4.403  10.255   4.396
84923W        W51354  19.254  29.716   3.097
84924W        W51355  37.353   9.401  13.629
84925W        W51356  28.454  25.156  14.272
84926W        W51357  34.878  24.862   1.082
84927W        W51358  19.244  28.368   0.544
84928W        W51359  43.538   9.334   2.342
84929W        W51360   7.390  19.405   0.743
84930W        W51361   9.134  41.504  13.943
84931W        W51362   5.880  15.594   3.105
84932W        W51363  21.267  34.601   1.049
84933W        W51364  12.064   9.966  13.994
84934W        W51365  16.192  26.234  11.994
84935W        W51366  19.358   1.006  13.541
84936W        W51367  21.123  34.817   2.599
84937W        W51368   9.925  31.942  14.796
84938W        W51369   9.211  38.492   2.224
84939W        W51370   9.428  13.667  14.513
84940W        W51371  34.425  25.969  14.336
84941W        W51372   1.008  33.681   2.853
84942W        W51373   0.822  34.170   3.243
84943W        W51374  36.398  42.266   1.878
84944W        W51375   5.682  34.442  10.405
84945W        W51376  20.527   1.353   1.390
84946W        W51377  10.327  35.631  12.135
84947W        W51378  32.179   6.152   0.675
84948W        W51379   0.360  44.803   4.564
84949W        W51380   8.297  12.914   0.743
84950W        W51381   8.924  12.669   3.214
84951W        W51382  38.388  26.725  13.832
84952W        W51383  22.555  42.088  10.166
84953W        W51384  37.879  35.119  10.552
84954W        W51385  25.514  15.022   2.255
84955W        W51386  19.249  32.334  12.858
84956W        W51387   4.623  25.236  14.678
84957W        W51388  33.593  10.545  10.548
84958W        W51389  17.060  36.664   4.550
84959W        W51390  42.299  12.168   2.222
84960W        W51391  16.726  38.483  11.832
84961W        W51392  11.020  44.846   2.760
84962W        W51393   8.943  18.541   4.594
84963W        W51394  25.658  28.207  11.138
84964W        W51395   0.260  24.181   1.114
84965W        W51396  40.363   1.902   4.166
84966W        W51397   8.654  11.346   2.856
84967W        W51398  38.904  27.202   2.772
84968W        W51399  25.913  24.503   1.319
84969W        W51400  44.804   9.113   3.152
84970W        W51401  40.854  42.775   2.765
84971W        W51402  34.039  39.999   4.514
84972W        W51403  40.994  34.839   3.636
84973W        W51404  40.882  24.942   1.816
84974W        W51405  14.679  33.285  11.674
84975W        W51406  26.282  30.980   0.183
84976W        W51407   5.753  22.621   1.497
84977W        W51408  12.637  41.548  10.653
84978W        W51409  26.510   8.236   4.827
84979W        W51410  19.197  21.626  13.779
84980W        W51411  10.166  23.029  14.036
84981W        W51412  10.323  32.285   0.524
84982W        W51413  43.775  31.176  13.030
84983W        W51414  28.148   8.848   3.328
84984W        W51415   6.650   9.637  14.375
84985W        W51416   8.863  25.628  14.398
84986W        W51417   7.284   9.480  13.493
84987W        W51418  17.696  14.021   2.141
84988W        W51419   7.479  44.650   2.802
84989W        W51420  18.883  35.976  14.243
84990W        W51421  34.125  41.117   2.224
84991W        W51422  30.372  15.617  10.956
84992W        W51423  10.269  24.065  10.825
84993W        W51424  13.762  20.035   4.595
84994W        W51425  18.908  16.290   0.010
84995W        W51426  33.793  30.837  14.469
84996W        W51427  25.579  38.618   3.120
84997W        W51428  13.132  19.692   4.079
84998W        W51429  21.047  22.680  13.536
84999W        W51430  34.492  24.169   4.567
85000W        W51431   7.378  27.158   0.513
85001W        W51432  20.987  26.496  14.262
85002W        W51433  39.466  17.028  14.893
85003W        W51434  18.487  39.859  10.204
85004W        W51435  26.682   6.170   0.736
85005W        W51436   2.404  29.099   3.220
85006W        W51437  20.360  21.705   2.465
85007W        W51438   7.599  36.888  13.250
85008W        W51439  33.335   3.437  12.381
85009W        W51440   4.259  32.629   3.693
85010W        W51441  30.854  13.306  12.429
85011W        W51442  30.116  37.374  12.674
85012W        W51443  39.591  11.069   0.825
85013W        W51444  14.067   1.254  13.484
85014W        W51445  17.697  12.138  12.301
85015W        W51446  19.306  33.431   2.351
85016W        W51447  38.405   9.978   2.351
85017W        W51448   8.283  12.117   4.889
85018W        W51449  17.261  31.810  14.755
85019W        W51450  16.820   7.846   3.573
85020W        W51451  24.447  31.445   2.274
85021W        W51452  44.269   9.909   0.786
85022W        W51453  29.370  10.205   3.125
85023W        W51454  13.096  43.706  12.412
85024W        W51455  23.475   8.588  10.981
85025W        W51456  31.916  31.361   0.733
85026W        W51457  33.954  38.773   3.660
85027W        W51458   5.112  16.558   2.978
85028W        W51459  11.852  27.797   4.289
85029W        W51460  26.495  16.107  13.529
85030W        W51461  38.499  10.843  11.106
85031W        W51462   2.839  11.708  11.962
85032W        W51463  31.097  33.798   0.624
85033W        W51464  14.651   1.485  11.250
85034W        W51465   8.240  11.210  12.645
85035W        W51466  34.260   0.532   1.314
85036W        W51467   5.201  44.459   0.293
85037W        W51468  10.204  25.725   2.788
85038W        W51469   4.692  13.614  12.782
85039W        W51470  18.100  17.255   2.278
85040W        W51471  33.849   5.245   2.747
85041W        W51472  13.305  19.259   4.545
85042W        W51473  28.955  28.365   0.491
85043W        W51474  34.405  20.064  13.365
85044W        W51475   8.218  18.762  11.177
85045W        W51476   1.028  36.898   2.477
85046W        W51477  11.179   3.147  12.238
85047W        W51478  25.559  18.608   2.839
85048W        W51479  14.707  11.766   0.747
85049W        W51480   8.816  12.658  10.643
85050W        W51481  11.821  33.466   4.180
85051W        W51482  20.555  33.431  10.866
85052W        W51483  40.463  32.346   2.122
85053W        W51484  33.105  18.604  14.618
85054W        W51485  28.980  17.499   1.801
85055W        W51486  24.677  35.181  13.871
85056W        W51487  17.786  13.646   2.745
85057W        W51488  38.608  21.762   0.313
85058W        W51489  30.825  37.394   3.591
85059W        W51490   2.048  44.913   1.356
85060W        W51491   4.062   4.774   2.289
85061W        W51492   6.312  25.048   3.557
85062W        W51493  21.056  22.655  11.570
85063W        W51494  26.743  40.564  14.424
85064W        W51495   4.332  40.806  14.428
85065W        W51496  12.315  15.871   0.493
85066W        W51497   9.944   7.717  13.699
85067W        W51498  26.162  21.047  13.966
85068W        W51499  39.490  29.522   3.590
85069W        W51500   5.540  25.138  14.531
85070W        W51501  36.481  38.393  13.923
85071W        W51502  27.104  31.670  13.119
85072W        W51503  16.584  31.485   2.934
85073W        W51504  15.214  27.138  14.283
85074W        W51505  12.619   3.178  11.518
85075W        W51506  44.323   6.421   1.167
85076W        W51507  28.111  23.804   1.831
85077W        W51508  34.619  19.495   0.918
85078W        W51509   1.362  14.481  13.068
85079W        W51510  41.519  26.951   2.613
85080W        W51511  42.723  16.984   2.180
85081W        W51512  29.136  14.740  12.463
85082W        W51513  18.616  15.138   3.191
85083W        W51514  22.204  30.415  14.581
85084W        W51515  41.926  20.510  12.488
85085W        W51516  27.192   0.516  13.351
85086W        W51517  36.378  18.821   2.295
85087W        W51518  21.972  26.611  10.283
85088W        W51519  20.954  37.232  11.083
85089W        W51520  15.843  26.552   3.232
85090W        W51521  11.068   9.156  12.702
85091W        W51522  22.636  12.822   2.662
85092W        W51523  32.135  41.485  11.268
85093W        W51524  14.666  34.620   4.745
85094W        W51525  38.676  39.830   0.548
85095W        W51526  25.007  11.153   2.765
85096W        W51527   6.822  27.536   4.529
85097W        W51528  38.371  12.193  13.058
85098W        W51529  11.488  10.092   0.931
85099W        W51530  28.096  37.844   1.860
85100W        W51531   1.239  23.113   2.283
85101W        W51532  33.556   1.541  14.700
85102W        W51533   3.482  16.491   2.735
85103W        W51534  24.279  41.333  14.804
85104W        W51535   0.890  39.075   1.284
85105W        W51536  13.540  42.900   3.805
85106W        W51537  22.144   3.455   0.970
85107W        W51538  26.297  32.727   5.017
85108W        W51539  21.103   1.023   0.766
85109W        W51540  24.263  24.020  10.630
85110W        W51541   7.036   5.719  11.063
85111W        W51542   8.843  11.103  14.388
85112W        W51543  35.547  27.856  12.074
85113W        W51544   1.028  44.965   0.392
85114W        W51545  15.624  42.752  14.436
85115W        W51546   4.953  10.715  12.463
85116W        W51547   4.550   8.036   1.761
85117W        W51548  39.570   5.272  14.101
85118W        W51549   5.394  44.469  13.914
85119W        W51550  17.119  25.404  11.502
85120W        W51551   5.505   8.974   2.821
85121W        W51552  38.783  28.546   4.084
85122W        W51553   3.828  40.254  11.579
85123W        W51554  35.444  16.581  12.149
85124W        W51555   3.185  18.142  13.349
85125W        W51556   2.018   8.796   0.931
85126W        W51557   2.352   1.983  11.017
85127W        W51558  19.182   6.712   4.690
85128W        W51559  28.521  25.222  10.903
85129W        W51560  37.928   1.268   1.918
85130W        W51561   2.894  19.969   3.775
85131W        W51562  26.893  43.126   9.870
85132W        W51563   7.399   4.901  13.269
85133W        W51564  28.021   8.173   2.751
85134W        W51565   4.169  36.096   4.267
85135W        W51566  35.061  31.077   3.609
85136W        W51567  11.606   3.335   3.163
85137W        W51568   4.849  39.329   4.694
85138W        W51569  11.946  32.234  11.063
85139W        W51570   9.826  23.821  12.196
85140W        W51571  37.994  40.772   2.599
85141W        W51572  20.975  27.350   3.928
85142W        W51573   6.833  11.642   0.541
85143W        W51574  44.867  37.031   0.272
85144W        W51575  44.459  22.534   1.196
85145W        W51576   8.861  38.305   2.800
85146W        W51577  41.487  19.789  12.459
85147W        W51578  10.730  11.312   1.264
85148W        W51579  32.372  26.801   1.245
85149W        W51580  41.031   9.173   3.020
85150W        W51581  32.020  20.537  14.538
85151W        W51582   0.291  21.659   3.824
85152W        W51583   4.431  37.810   2.966
85153W        W51584  29.693  33.658  11.179
85154W        W51585  27.998   5.362   1.606
85155W        W51586  24.726  20.616  13.526
85156W        W51587  13.139   0.031  14.200
85157W        W51588  39.045  34.587   3.272
85158W        W51589   8.619  10.315   3.530
85159W        W51590  33.458  12.667  13.997
85160W        W51591  35.371  19.059  12.312
85161W        W51592  34.108  30.531  13.961
85162W        W51593  27.100  30.737  10.892
85163W        W51594  37.542  23.248   0.203
85164W        W51595   3.758  26.412   0.995
85165W        W51596  13.678  32.887  10.417
85166W        W51597  31.605  21.513   4.497
85167W        W51598  22.652  21.775  14.625
85168W        W51599  25.139  29.803   0.849
85169W        W51600  37.550  28.944  12.579
85170W        W51601  38.557   1.404   4.089
85171W        W51602   2.724   3.104  11.064
85172W        W51603   8.856  33.625   4.071
85173W        W51604  26.902  29.618   0.836
85174W        W51605   9.700  33.393   3.916
85175W        W51606  32.153  42.399  13.641
85176W        W51607  19.357  27.458  14.210
85177W        W51608  38.939  44.992   3.578
85178W        W51609  41.787  33.859  11.871
85179W        W51610  25.623  36.924  12.626
85180W        W51611  42.476  14.320  14.504
85181W        W51612  25.544  20.991   4.495
85182W        W51613  38.016  13.077  12.195
85183W        W51614  41.726  15.314  12.504
85184W        W51615  23.484  30.670  14.985
85185W        W51616  23.800   6.800   4.106
85186W        W51617  23.600  32.543   4.467
85187W        W51618   6.094   0.508  12.032
85188W        W51619  17.251   2.594  12.447
85189W        W51620  32.328  26.235  14.286
85190W        W51621  35.852  29.009   4.526
85191W        W51622  33.219  22.080   3.190
85192W        W51623   3.224  31.996   1.100
85193W        W51624   3.947   0.654  11.663
85194W        W51625  23.354  39.831   0.268
85195W        W51626  19.340  43.953   2.603
85196W        W51627  23.954  32.478   5.074
85197W        W51628   3.919  39.054  11.110
85198W        W51629  19.005  18.349   3.681
85199W        W51630   4.543  37.460  13.534
85200W        W51631  14.172  43.807   4.131
85201W        W51632  14.157  30.577   1.969
85202W        W51633  35.507  39.898   0.380
85203W        W51634   5.011  22.335   2.436
85204W        W51635  36.417  32.118   2.132
85205W        W51636  13.855  17.664  12.109
85206W        W51637  43.185   9.760   3.639
85207W        W51638  34.632  29.220   1.969
85208W        W51639  35.110   0.310  12.001
85209W        W51640  26.624  12.614   4.328
85210W        W51641  32.414  26.658  13.475
85211W        W51642  17.591   5.936   1.353
85212W        W51643  30.689   3.246  11.402
85213W        W51644  20.732  13.267  14.242
85214W        W51645  21.805  34.462  14.410
85215W        W51646  34.616  12.012   3.060
85216W        W51647   8.849  34.687   2.280
85217W        W51648  15.741  36.128   4.452
85218W        W51649  12.294   4.871  11.631
85219W        W51650  18.757  23.583   0.347
85220W        W51651  33.836  19.401  14.380
85221W        W51652   6.369  21.632   4.029
85222W        W51653  34.507  29.585   4.584
85223W        W51654  15.335  24.474  14.291
85224W        W51655   2.845  17.065   1.291
85225W        W51656  38.017  31.678  14.232
85226W        W51657  13.909  43.106   5.111
85227W        W51658   5.443  11.466  13.330
85228W        W51659  22.064  41.908  10.193
85229W        W51660  40.502  44.498   1.107
85230W        W51661  39.978  43.954   2.831
85231W        W51662   5.847   1.857   4.345
85232W        W51663  36.358  34.861  11.200
85233W        W51664  26.773  38.012  12.613
85234W        W51665  25.926  25.610   4.711
85235W        W51666  38.411   9.147   4.629
85236W        W51667  21.839  39.774  13.455
85237W        W51668  32.579  39.747   1.843
85238W        W51669  32.895   1.350   3.197
85239W        W51670  15.616  32.587   4.003
85240W        W51671  14.619  30.815   1.842
85241W        W51672  11.562   1.039   2.381
85242W        W51673   8.891   8.706   2.708
85243W        W51674  36.458   9.780  14.003
85244W        W51675  39.257  20.484   3.628
85245W        W51676   0.990  27.480   3.092
85246W        W51677  42.004  31.338  14.908
85247W        W51678  34.560  11.706  14.768
85248W        W51679  22.410  22.639  13.271
85249W        W51680   5.102  28.024   1.343
85250W        W51681  28.089   4.007  11.114
85251W        W51682  10.553  27.162   2.678
85252W        W51683  36.038  39.320   1.645
85253W        W51684   7.410  19.640   4.164
85254W        W51685  37.036  30.803   3.627
85255W        W51686  35.518  13.133  14.932
85256W        W51687   7.343   6.381   4.696
85257W        W51688  34.540   3.837   0.965
85258W        W51689  22.993  17.801  10.681
85259W        W51690  26.949  11.790   4.291
85260W        W51691  43.993  30.982   0.757
85261W        W51692  16.873  42.825   3.668
85262W        W51693   8.084   2.130   1.263
85263W        W51694  12.780  27.903  12.022
85264W        W51695  44.373  21.336  11.230
85265W        W51696  30.158  32.267   2.293
85266W        W51697  36.528   2.893  11.401
85267W        W51698  30.173  15.883   1.651
85268W        W51699  10.789  23.048  14.660
85269W        W51700  37.172  30.464   0.715
85270W        W51701  26.530  39.121   1.453
85271W        W51702  21.297  33.633  14.051
85272W        W51703   2.658  25.644  11.433
85273W        W51704  33.557   7.709   1.292
85274W        W51705   3.508  44.685   2.401
85275W        W51706  12.073  11.021  12.552
85276W        W51707  17.104  29.527   0.450
85277W        W51708  22.503   6.578  12.712
85278W        W51709  38.392   3.737  11.513
85279W        W51710  29.899  26.719   3.677
85280W        W51711  20.719  22.649  11.191
85281W        W51712   6.443  13.535  14.295
85282W        W51713  11.120  44.284  12.052
85283W        W51714  41.760   7.661   3.996
85284W        W51715  41.555   9.349   4.294
85285W        W51716   7.783  40.435   0.277
85286W        W51717  36.076  27.082  13.042
85287W        W51718   9.687  43.874  11.611
85288W        W51719   2.799   6.417   2.858
85289W        W51720  37.589  26.777  14.833
85290W        W51721  18.826  32.841   1.412
85291W        W51722  43.411  21.521  11.451
85292W        W51723   9.242  30.605  12.380
85293W        W51724  44.950   9.403   0.927
85294W        W51725  41.521   9.438  10.725
85295W        W51726  18.514  17.456   9.904
85296W        W51727   5.888  36.915   0.860
85297W        W51728  27.613  30.662   3.336
85298W        W51729   7.095  15.070   4.977
85299W        W51730  38.591  31.613  10.342
85300W        W51731  37.444  44.330   3.089
85301W        W51732   7.246   2.329   2.596
85302W        W51733  42.258  21.057   1.689
85303W        W51734   7.773   2.734   2.760
85304W        W51735   1.807   3.378   3.258
85305W        W51736  20.120  27.986  13.461
85306W        W51737  37.769  36.028  13.635
85307W        W51738  20.416  14.028   1.819
85308W        W51739  40.942   9.890   0.516
85309W        W51740  29.837   1.160   3.718
85310W        W51741  28.021   4.850  12.480
85311W        W51742  30.236  17.813  11.626
85312W        W51743  39.200  40.035   1.278
85313W        W51744  40.057  39.612   4.769
85314W        W51745  12.169  42.918  13.365
85315W        W51746  19.088   9.366  10.394
85316W        W51747  40.458  23.018   4.214
85317W        W51748  19.842  40.266  13.070
85318W        W51749  10.977  12.695  12.418
85319W        W51750  42.850  12.979  12.595
85320W        W51751  20.217  10.456  12.512
85321W        W51752  33.870  36.872   2.166
85322W        W51753  10.635  17.174  10.764
85323W        W51754  40.930  11.162  14.032
85324W        W51755  36.092  26.597   2.708
85325W        W51756  14.292   1.235  14.476
85326W        W51757  10.420   0.243   0.923
85327W        W51758  37.180   8.414  13.555
85328W        W51759   0.583  31.048  14.924
85329W        W51760  16.314  10.586  14.830
85330W        W51761   4.618  25.128   4.101
85331W        W51762  26.871  35.504   2.830
85332W        W51763  23.635  19.070   4.004
85333W        W51764  18.175  32.120  11.224
85334W        W51765  29.807   8.266  12.094
85335W        W51766  32.090  34.533   3.291
85336W        W51767  24.990  40.403   0.701
85337W        W51768  19.348  29.960  12.475
85338W        W51769  32.276  37.365   3.133
85339W        W51770  17.704  10.663   3.372
85340W        W51771   9.145  29.580  11.512
85341W        W51772   9.226  39.856   2.883
85342W        W51773  14.357  19.569   1.196
85343W        W51774  12.928  28.131  10.330
85344W        W51775   0.823  22.747   0.416
85345W        W51776  39.869  38.630   2.219
85346W        W51777  17.810  16.191   5.037
85347W        W51778  24.494  25.048  12.070
85348W        W51779   9.123  34.883   4.531
85349W        W51780  24.911  23.826   1.322
85350W        W51781  29.828  35.397   4.629
85351W        W51782  30.775   7.500   4.539
85352W        W51783  19.791   2.521  12.073
85353W        W51784  35.485  36.177  12.440
85354W        W51785  24.974  43.118   0.417
85355W        W51786  11.271  29.552   1.067
85356W        W51787  17.835   1.220   4.273
85357W        W51788  23.927  16.371  14.919
85358W        W51789  16.807  36.029  12.621
85359W        W51790  24.902   9.383   0.530
85360W        W51791  33.312  26.762  10.924
85361W        W51792  15.168  23.135   3.735
85362W        W51793   3.796   9.456  12.047
85363W        W51794  15.775   8.333   0.469
85364W        W51795  35.473  20.542  11.234
85365W        W51796  40.692  32.268  14.337
85366W        W51797  15.070  15.561  13.979
85367W        W51798  34.040  23.671   3.748
85368W        W51799  16.636  40.499   3.266
85369W        W51800  43.039  11.826  11.976
85370W        W51801  43.334  17.175  14.777
85371W        W51802  15.701  28.975   3.038
85372W        W51803  36.917  17.574   4.587
85373W        W51804   9.560  14.426  13.983
85374W        W51805  39.526  18.046   0.240
85375W        W51806  43.948  18.013  14.026
85376W        W51807  34.856  44.318  13.522
85377W        W51808   2.806  37.013  11.539
85378W        W51809  24.563  17.216  13.345
85379W        W51810  16.643  23.553  12.459
85380W        W51811  16.290  38.543  11.503
85381W        W51812  36.373  33.114  11.848
85382W        W51813  21.118  40.074   2.367
85383W        W51814  31.460  14.737  12.107
85384W        W51815   5.968  17.275  14.986
85385W        W51816  27.388  15.307   1.675
85386W        W51817  23.968  25.672   4.164
85387W        W51818  40.898  12.388   1.944
85388W        W51819   2.902  33.455   4.767
85389W        W51820  39.001   2.280   0.483
85390W        W51821  42.215  44.893  12.123
85391W        W51822  20.871  39.474   2.758
85392W        W51823  15.695  22.599  11.065
85393W        W51824  25.224  19.619  10.971
85394W        W51825  15.607   8.641   3.635
85395W        W51826  25.918  21.177  13.520
85396W        W51827  20.588  11.136  11.482
85397W        W51828   7.674  31.417   2.784
85398W        W51829  23.594  21.713   3.643
85399W        W51830  23.160  12.638   2.601
85400W        W51831   3.705  23.193   2.912
85401W        W51832   7.565  15.709   3.811
85402W        W51833  12.407   4.385  11.819
85403W        W51834  39.691  10.397  13.418
85404W        W51835  41.516  24.675   0.033
85405W        W51836  16.805  18.166  13.985
85406W        W51837  38.917  40.629  12.934
85407W        W51838  24.198  30.902   3.208
85408W        W51839  44.290  42.587   0.326
85409W        W51840  32.883  19.022   0.373
85410W        W51841  23.127   5.837   3.695
85411W        W51842  26.522  29.513  12.161
85412W        W51843  18.680  30.625   5.148
85413W        W51844  24.609   0.241  12.531
85414W        W51845  24.514   0.665  13.958
85415W        W51846  26.617  44.858  14.766
85416W        W51847  18.655   0.412   3.833
85417W        W51848  13.834  28.677  14.514
85418W        W51849  35.550   3.795   1.374
85419W        W51850  32.705  20.737  10.621
85420W        W51851  20.683  39.353   1.789
85421W        W51852  36.204   2.883  10.946
85422W        W51853  14.176  10.576   1.226
85423W        W51854  40.505   5.541  13.466
85424W        W51855  18.986  37.857  10.218
85425W        W51856  37.322  16.683   4.807
85426W        W51857  25.243  32.016   1.635
85427W        W51858  21.119   2.268   3.201
85428W        W51859   6.668  28.584   3.341
85429W        W51860  12.511  27.821  11.208
85430W        W51861   2.427   6.770  13.385
85431W        W51862   3.903  27.572  14.326
85432W        W51863  17.057  38.573  10.867
85433W        W51864  21.084   9.869  12.543
85434W        W51865  36.590  15.897  12.553
85435W        W51866  31.983  41.996  12.124
85436W        W51867   4.351  33.679   4.581
85437W        W51868   4.226  40.780   1.220
85438W        W51869  19.651  27.698   1.191
85439W        W51870  25.739   5.765   0.722
85440W        W51871  32.027  18.198  11.905
85441W        W51872  23.749  27.113   2.670
85442W        W51873  15.259   2.444   2.655
85443W        W51874  38.996  15.687   2.874
85444W        W51875  13.135  33.627   2.192
85445W        W51876   2.558  32.944  13.957
85446W        W51877  11.931   0.547  12.050
85447W        W51878  43.593  15.505   4.721
85448W        W51879  28.988  28.266  10.774
85449W        W51880  42.791  22.712  14.574
85450W        W51881  28.422  21.141  11.115
85451W        W51882  24.512  41.110  11.154
85452W        W51883  24.108   9.299  13.455
85453W        W51884  13.359  41.869   3.894
85454W        W51885  44.326  36.299  11.043
85455W        W51886   5.564  22.778  12.998
85456W        W51887   4.183  24.096  11.010
85457W        W51888   8.079  13.298   2.423
85458W        W51889  29.856   0.957   3.244
85459W        W51890   5.301   7.327   1.678
85460W        W51891  41.837  40.411   2.739
85461W        W51892   1.532  44.917   1.371
85462W        W51893  22.628  40.133  12.963
85463W        W51894  28.444  32.005   4.476
85464W        W51895   9.024  34.406  11.098
85465W        W51896  21.227   8.539  14.078
85466W        W51897   9.518   3.911  12.015
85467W        W51898   2.440  26.657   0.358
85468W        W51899  11.798  37.981   1.402
85469W        W51900   2.419  19.434  10.480
85470W        W51901  20.072   9.637  14.154
85471W        W51902   2.923   7.600  11.733
85472W        W51903  38.096  12.584   2.898
85473W        W51904  33.434  25.241   4.329
85474W        W51905  30.764  20.368  12.524
85475W        W51906  27.687   6.186   2.172
85476W        W51907   7.208  27.603   0.717
85477W        W51908  12.558  33.361  14.862
85478W        W51909  11.947  42.930  11.501
85479W        W51910  14.121  24.830   1.922
85480W        W51911  27.072  44.495   2.664
85481W        W51912  43.854  32.397  12.362
85482W        W51913  20.604  13.541  10.710
85483W        W51914  15.848  24.950  11.310
85484W        W51915  14.650   7.562  10.337
85485W        W51916  43.647   8.347  11.625
85486W        W51917  31.912  17.152   2.766
85487W        W51918   0.514  25.749  14.983
85488W        W51919  26.666  19.333  11.131
85489W        W51920  26.624   0.609   4.200
85490W        W51921  20.831   0.092   0.999
85491W        W51922  20.124   1.194   1.062
85492W        W51923  32.376  40.775  14.841
85493W        W51924  38.824  10.606   0.045
85494W        W51925  43.740  43.503   2.481
85495W        W51926  14.597  22.325   0.363
85496W        W51927  41.255  27.938  13.517
85497W        W51928  19.259   5.316  10.502
85498W        W51929  15.777  15.258   4.578
85499W        W51930  22.690  40.993   2.347
85500W        W51931  20.410  23.460   1.935
85501W        W51932  19.219  25.104   4.544
85502W        W51933  44.034  10.285  14.943
85503W        W51934  32.445  15.866   0.329
85504W        W51935  22.488  29.551  12.141
85505W        W51936   9.977  36.670  14.227
85506W        W51937   4.179   2.394   2.691
85507W        W51938   6.682  30.532  11.632
85508W        W51939   4.655  36.490  10.713
85509W        W51940  29.044  41.798   2.754
85510W        W51941  19.198  24.606   4.081
85511W        W51942  44.328   1.987   4.051
85512W        W51943  36.099  35.153   1.721
85513W        W51944  20.203  34.384  12.121
85514W        W51945   8.434   4.545   3.438
85515W        W51946  16.104  11.669  12.577
85516W        W51947  15.408  43.788  12.089
85517W        W51948  31.626  42.586   0.489
85518W        W51949  20.201  14.029   3.663
85519W        W51950   5.439  38.140   3.662
85520W        W51951   7.159  18.280   2.783
85521W        W51952  29.325  33.465  11.491
85522W        W51953   0.469   2.510   0.743
85523W        W51954  30.657  20.074  13.927
85524W        W51955  10.942  36.759   1.559
85525W        W51956  21.316  41.226   0.949
85526W        W51957  42.019  38.793   1.450
85527W        W51958  43.961   7.309  12.991
85528W        W51959  33.444  18.434   3.158
85529W        W51960  41.334   7.164   0.898
85530W        W51961  25.908  20.186   2.275
85531W        W51962  11.604  31.535  11.728
85532W        W51963  27.423  24.665   1.447
85533W        W51964  26.478  42.828   1.162
85534W        W51965  32.429   0.869   1.440
85535W        W51966  44.319  12.091  12.469
85536W        W51967  30.446   8.917   3.440
85537W        W51968   6.793  10.540   4.111
85538W        W51969  43.256  24.963  12.399
85539W        W51970  19.762  24.978   3.710
85540W        W51971  37.393  25.769  13.975
85541W        W51972  32.566  17.657   0.965
85542W        W51973  30.006  39.492  10.805
85543W        W51974  27.021   6.967  11.438
85544W        W51975  42.944  19.712  12.051
85545W        W51976  29.526  19.029   3.342
85546W        W51977  20.223  13.860  12.495
85547W        W51978  38.923   3.202   9.813
85548W        W51979  14.190  44.515   2.895
85549W        W51980   4.470   3.727  13.000
85550W        W51981  33.286  14.195   5.104
85551W        W51982  22.594  15.137  14.455
85552W        W51983  32.059  38.910  10.980
85553W        W51984  43.477  28.862  11.497
85554W        W51985   7.164   5.674  14.823
85555W        W51986  14.389   0.953  14.889
85556W        W51987  10.712  38.551   4.362
85557W        W51988  25.784  33.422  11.977
85558W        W51989  14.253  21.396  12.887
85559W        W51990   0.241  43.446   1.003
85560W        W51991  18.822  11.184   0.813
85561W        W51992  30.419  38.067  11.078
85562W        W51993  36.504  26.295  12.085
85563W        W51994  21.040  36.139   3.272
85564W        W51995  42.828  43.793   4.630
85565W        W51996   5.187  20.294  12.921
85566W        W51997  32.390  42.200   3.627
85567W        W51998  11.424  30.732  11.589
85568W        W51999  27.129  15.410   3.115
85569W        W52000  32.224   6.437   3.786
85570W        W52001  30.402  16.701  11.834
85571W        W52002  27.347   2.166  11.862
85572W        W52003  41.788   2.737   2.845
85573W        W52004  22.789  23.654   3.304
85574W        W52005  33.370  18.302  12.950
85575W        W52006   9.903  33.939   1.908
85576W        W52007  25.704  40.835   0.805
85577W        W52008  11.368  13.032   2.819
85578W        W52009  25.609  26.264   3.722
85579W        W52010  26.637  28.604   1.261
85580W        W52011  38.608  29.569  10.151
85581W        W52012  29.754  31.344  13.060
85582W        W52013  33.677  34.576   1.424
85583W        W52014   2.221  43.451   1.834
85584W        W52015  41.599  20.728  13.386
85585W        W52016   3.930  14.086   0.821
85586W        W52017  31.056   1.764   0.571
85587W        W52018   8.586  30.612  13.950
85588W        W52019  40.810   0.795  13.612
85589W        W52020  31.522  25.110   3.772
85590W        W52021  44.328  37.412  10.981
85591W        W52022   4.468  16.329   1.722
85592W        W52023   8.250  31.412   0.992
85593W        W52024  28.106   9.658  14.098
85594W        W52025  13.330  30.237  12.428
85595W        W52026  16.552  10.774  10.592
85596W        W52027  40.947  10.656  13.925
85597W        W52028  41.312  19.656   0.385
85598W        W52029  10.235  14.283   4.070
85599W        W52030  38.573  37.329  10.838
85600W        W52031  35.574  21.125   1.218
85601W        W52032  33.236  39.996  10.629
85602W        W52033  37.690  39.275  14.088
85603W        W52034  30.619   4.959   3.984
85604W        W52035  15.131  38.854  10.831
85605W        W52036  25.750  29.735  11.103
85606W        W52037  28.744   3.537   5.061
85607W        W52038  24.025   5.686  14.643
85608W        W52039  33.891  13.719   3.111
85609W        W52040  28.965  25.083  14.354
85610W        W52041  22.587  35.049   1.472
85611W        W52042   1.745  15.726  10.987
85612W        W52043   9.049  36.144  14.275
85613W        W52044  28.976  34.858   0.402
85614W        W52045  18.855   4.848  13.842
85615W        W52046  28.431  42.532  11.158
85616W        W52047  42.889   4.787   0.798
85617W        W52048  40.559  10.665  13.340
85618W        W52049  21.078  34.605  13.097
85619W        W52050  35.493   7.702  11.960
85620W        W52051   3.439  23.205   2.462
85621W        W52052  20.058   5.978   0.813
85622W        W52053  35.842  34.467  13.386
85623W        W52054  29.187   1.881   4.585
85624W        W52055  13.734  23.673   0.211
85625W        W52056  39.007  29.182  12.093
85626W        W52057  12.586   6.185   0.828
85627W        W52058   6.974  31.005   1.308
85628W        W52059  18.316  23.590   1.226
85629W        W52060  22.093   3.300  11.310
85630W        W52061  12.721  23.922  12.995
85631W        W52062   3.600   3.464  12.478
85632W        W52063  40.791  37.309   1.347
85633W        W52064  28.995  41.801   1.166
85634W        W52065  31.707  24.497   2.871
85635W        W52066  10.775  24.921   2.269
85636W        W52067  30.321  37.407   3.695
85637W        W52068  38.292  24.190   2.678
85638W        W52069  44.645  18.786   4.360
85639W        W52070  23.876  36.786   4.120
85640W        W52071  24.535   2.214   2.873
85641W        W52072   6.762  29.090   3.237
85642W        W52073   4.649  13.553  13.288
85643W        W52074   5.396  36.544  14.903
85644W        W52075  32.538  25.337  14.381
85645W        W52076  35.138   1.822   3.620
85646W        W52077  44.248   0.237   1.304
85647W        W52078   3.770   4.930  13.630
85648W        W52079   8.859   4.231   3.284
85649W        W52080  31.971  42.954   3.817
85650W        W52081  35.993  37.994   2.389
85651W        W52082  44.276  33.804   1.979
85652W        W52083  38.575   8.207  13.968
85653W        W52084  13.160  40.377   4.357
85654W        W52085  41.413  10.307  14.372
85655W        W52086  33.213  37.610   4.668
85656W        W52087  17.573  23.852   4.228
85657W        W52088  36.366  29.250  12.467
85658W        W52089  27.093  26.459  12.833
85659W        W52090   2.904  41.896  14.227
85660W        W52091   8.068  29.441   4.530
85661W        W52092  44.693  14.890   4.111
85662W        W52093  38.511   7.343  13.912
85663W        W52094  10.623  36.865   3.080
85664W        W52095  11.232  43.961  12.666
85665W        W52096   1.527  35.886   1.402
85666W        W52097   9.460  36.318   1.862
85667W        W52098  26.645  32.162  10.694
85668W        W52099  37.837   7.174   4.321
85669W        W52100  19.309  29.307   1.630
85670W        W52101  24.048   5.490   4.630
85671W        W52102  25.655  35.155   0.399
85672W        W52103  30.977  26.411  10.749
85673W        W52104  35.627  18.848   3.671
85674W        W52105  28.130  18.959  11.669
85675W        W52106   4.672  15.251   0.511
85676W        W52107  12.736  36.234  12.015
85677W        W52108  38.149  32.371   2.351
85678W        W52109   0.960   4.845   3.281
85679W        W52110  21.284  14.245  13.142
85680W        W52111   3.278  28.460   0.483
85681W        W52112   8.552  26.640  10.239
85682W        W52113  29.055  44.321   2.575
85683W        W52114   9.206   2.006   3.582
85684W        W52115  34.331  16.369   4.120
85685W        W52116   1.462  16.117  11.473
85686W        W52117   2.774  33.635   0.970
85687W        W52118  31.374   4.139  11.408
85688W        W52119   8.232  42.569  11.141
85689W        W52120  37.021  37.595  11.938
85690W        W52121  35.544   4.313   1.276
85691W        W52122  18.541  10.323   1.979
85692W        W52123  12.729  42.803  13.296
85693W        W52124  20.619  34.160   2.170
85694W        W52125  40.489  13.300   4.269
85695W        W52126  33.502  19.049  13.621
85696W        W52127  22.749  11.222  13.529
85697W        W52128  37.502   2.882   4.121
85698W        W52129  26.450   5.716  14.340
85699W        W52130  22.101  20.951   1.792
85700W        W52131   6.142  24.538   2.777
85701W        W52132  27.593  23.108   2.601
85702W        W52133   6.663  34.933  12.839
85703W        W52134  12.609  11.695  11.067
85704W        W52135   1.854  37.249   1.650
85705W        W52136  28.492   4.475   5.345
85706W        W52137  40.573  22.801   0.257
85707W        W52138   5.763  23.505   2.309
85708W        W52139  28.389  14.753  12.008
85709W        W52140  27.142  37.132  11.699
85710W        W52141  13.211   7.644  11.999
85711W        W52142  26.770   7.889   2.765
85712W        W52143  44.346  22.851   1.607
85713W        W52144  26.109  26.536  12.307
85714W        W52145  20.753  36.085  10.267
85715W        W52146  12.766  13.687  14.694
85716W        W52147  40.510  43.918   4.553
85717W        W52148   8.190  31.936   2.196
85718W        W52149   3.423  16.579  14.391
85719W        W52150  20.704  25.818  12.304
85720W        W52151  33.056  24.341  14.908
85721W        W52152   3.712  26.030   2.103
85722W        W52153  34.993   8.957   1.317
85723W        W52154  22.827  15.520  11.505
85724W        W52155  44.997  43.898  14.673
85725W        W52156  41.016  23.329   0.058
85726W        W52157  29.137   6.687   0.323
85727W        W52158  17.642  18.187   3.802
85728W        W52159   6.350  14.172   5.014
85729W        W52160  13.039  32.522  14.812
85730W        W52161  10.370  22.535  11.916
85731W        W52162  43.603  40.880  11.137
85732W        W52163  26.577  29.904  10.710
85733W        W52164   8.800  33.368  14.712
85734W        W52165   9.159  37.556  13.437
85735W        W52166  31.903   8.919   4.213
85736W        W52167  36.600  39.055   2.416
85737W        W52168  20.750  18.036  12.034
85738W        W52169   2.846  37.611  13.426
85739W        W52170  33.332  43.800   1.310
85740W        W52171  39.842  33.638  10.685
85741W        W52172  25.833   8.258  13.448
85742W        W52173  33.062  24.031   4.620
85743W        W52174  12.308  28.024   1.800
85744W        W52175  32.175   5.413   2.600
85745W        W52176  16.178  27.640  13.742
85746W        W52177  19.449  27.225   2.913
85747W        W52178  39.863  32.272  12.970
85748W        W52179   8.415  43.356  12.500
85749W        W52180  36.805  32.991  14.826
85750W        W52181  36.947  20.590  14.258
85751W        W52182  16.920  40.239  11.036
85752W        W52183  27.186  42.374  13.623
85753W        W52184  16.559  17.966   0.772
85754W        W52185  24.922   2.419  11.429
85755W        W52186  16.692  37.684   3.090
85756W        W52187  15.070  38.458  12.455
85757W        W52188  32.552  39.111  10.960
85758W        W52189  21.771  26.086  10.396
85759W        W52190  37.448  29.887  11.575
85760W        W52191  18.613   4.245  11.194
85761W        W52192  14.682   1.469  10.251
85762W        W52193  33.192  13.273  13.291
85763W        W52194  22.717  41.250  13.734
85764W        W52195  24.224  38.047  12.415
85765W        W52196  13.367  24.877   1.185
85766W        W52197   1.261  18.114   0.968
85767W        W52198  24.292   0.886   3.070
85768W        W52199  14.169   8.399  14.132
85769W        W52200  12.593  44.679  11.185
85770W        W52201  29.726  24.625   3.176
85771W        W52202  38.509  34.627  13.573
85772W        W52203   1.205  25.054   4.060
85773W        W52204  35.571  10.920  12.679
85774W        W52205  13.039  35.410   0.554
85775W        W52206   8.786   4.726  13.161
85776W        W52207  19.777   7.401   2.781
85777W        W52208   0.485   8.419   4.007
85778W        W52209  16.756  25.764  11.519
85779W        W52210  18.419  43.011   2.663
85780W        W52211  17.357  35.321   1.722
85781W        W52212  34.048  10.661  11.141
85782W        W52213  38.530  19.401   0.914
85783W        W52214  24.089  35.004  13.285
85784W        W52215  22.154  23.330  13.458
85785W        W52216  39.458  37.806  11.110
85786W        W52217  40.435  40.086  12.403
85787W        W52218  43.735  44.918   2.714
85788W        W52219  36.037  27.489   2.198
85789W        W52220  19.063   3.679  13.729
85790W        W52221   5.528  23.842   1.958
85791W        W52222  40.455  35.737  10.224
85792W        W52223  19.778  34.582  13.563
85793W        W52224  27.838   9.395  11.070
85794W        W52225  28.541  13.666   1.848
85795W        W52226  41.937  28.400   0.731
85796W        W52227  28.782  37.895   3.268
85797W        W52228   1.952  35.852  11.634
85798W        W52229  33.832  30.539   4.931
85799W        W52230  42.394  35.249  11.857
85800W        W52231  21.686  15.373  11.172
85801W        W52232  30.966  28.726  12.016
85802W        W52233  22.017   3.952  14.742
85803W        W52234  38.144  28.140  12.549
85804W        W52235  38.328   2.391   3.357
85805W        W52236  40.061  20.315   2.890
85806W        W52237  32.173  42.907  14.735
85807W        W52238  44.649   3.797   1.343
85808W        W52239  32.549  25.452  10.675
85809W        W52240  32.536  31.474   0.216
85810W        W52241   6.354   3.806  12.665
85811W        W52242  19.196  27.321  12.916
85812W        W52243  12.670  15.618  14.451
85813W        W52244  26.832   6.212  14.417
85814W        W52245  24.227   7.269   2.154
85815W        W52246   1.689   6.661   4.800
85816W        W52247  19.788  33.858   1.817
85817W        W52248  22.481   2.266  12.299
85818W        W52249   1.094  26.264   1.351
85819W        W52250   9.678  10.069  13.856
85820W        W52251   2.401  24.537  13.431
85821W        W52252  15.158  26.473   3.782
85822W        W52253   5.932  13.750   1.824
85823W        W52254   5.652  26.246   1.618
85824W        W52255  15.483  32.030   4.912
85825W        W52256   0.970   1.872   3.373
85826W        W52257  11.326  44.750   1.478
85827W        W52258  22.014  32.145  13.324
85828W        W52259  20.758  11.702  12.582
85829W        W52260   7.592  17.806  13.070
85830W        W52261  34.277  19.735   3.063
85831W        W52262  42.335   8.570   2.426
85832W        W52263  42.728  21.727   4.534
85833W        W52264  26.962   6.717  14.423
85834W        W52265   6.328  15.083  12.851
85835W        W52266  16.556  10.762   4.602
85836W        W52267  26.925  28.033  10.745
85837W        W52268   5.674  13.288   0.741
85838W        W52269   6.643   0.565   0.620
85839W        W52270  14.390  38.981   0.894
85840W        W52271  18.857  18.075  11.143
85841W        W52272  39.442   8.771  12.104
85842W        W52273   6.451  16.211   0.712
85843W        W52274  21.195  30.188  11.562
85844W        W52275   9.133  22.114   4.899
85845W        W52276  20.440  29.236   3.159
85846W        W52277  18.550  10.551   3.642
85847W        W52278  15.255  10.708  10.736
85848W        W52279  39.523  11.079   1.766
85849W        W52280  12.372  14.649  11.706
85850W        W52281  38.509  41.748  12.633
85851W        W52282   1.535   1.334  11.277
85852W        W52283  34.993  14.531  12.895
85853W        W52284   7.774  15.356   0.368
85854W        W52285   9.112  25.649  13.937
85855W        W52286  32.944  30.486   4.625
85856W        W52287  35.563  28.989   3.226
85857W        W52288  31.532   3.848  14.525
85858W        W52289   6.302  20.644  10.659
85859W        W52290   1.963   5.730  12.449
85860W        W52291   2.859  24.057   1.685
85861W        W52292  37.540  44.218   1.717
85862W        W52293  24.110   9.071   0.207
85863W        W52294  22.573  28.193   1.044
85864W        W52295  18.482  28.986   4.596
85865W        W52296  14.817  17.658   0.423
85866W        W52297  24.658  19.745   9.570
85867W        W52298  14.658  26.365  13.769
85868W        W52299   7.279  18.603   0.914
85869W        W52300   3.838  38.557  14.822
85870W        W52301  14.307  26.737   0.842
85871W        W52302  13.489  22.102   4.482
85872W        W52303   3.178  43.076   1.660
85873W        W52304  11.163  17.041  10.743
85874W        W52305  32.528  29.566   0.227
85875W        W52306  36.983  38.141  11.271
85876W        W52307  33.412  38.774   1.263
85877W        W52308   8.884  33.660  13.654
85878W        W52309  43.379  36.641  12.047
85879W        W52310  10.464   1.587   1.834
85880W        W52311  44.477   6.328  10.486
85881W        W52312  30.623  41.997   3.684
85882W        W52313  13.412  10.703  10.552
85883W        W52314  43.193  33.698  10.173
85884W        W52315  15.821   3.780   3.701
85885W        W52316  26.907   1.437  12.370
85886W        W52317  32.372   0.423   1.201
85887W        W52318  24.898  15.313   1.640
85888W        W52319  14.300  44.616   5.283
85889W        W52320  17.082  10.807   3.183
85890W        W52321   9.904  33.231   1.311
85891W        W52322  10.219  22.187  10.569
85892W        W52323  16.728  39.866  10.705
85893W        W52324  44.676  31.648   3.668
85894W        W52325  19.962  36.130   0.050
85895W        W52326  25.297  29.312   3.542
85896W        W52327   2.266  44.449  11.084
85897W        W52328  40.082  37.006   0.781
85898W        W52329  25.551  38.463   1.813
85899W        W52330   5.388  28.764  10.443
85900W        W52331  14.257  20.111  13.519
85901W        W52332  34.940  19.443   1.806
85902W        W52333  19.476   3.866   4.231
85903W        W52334  28.146  37.815  12.539
85904W        W52335  28.236  26.939   2.372
85905W        W52336  16.579  20.449   2.224
85906W        W52337  24.655  12.649  12.526
85907W        W52338  37.210   2.867  10.964
85908W        W52339   5.436  28.187   3.036
85909W        W52340   8.776  34.876   4.951
85910W        W52341  42.900  16.547   3.693
85911W        W52342  25.025  15.238   3.652
85912W        W52343   9.219  16.179  11.246
85913W        W52344  30.624   2.851   2.188
85914W        W52345   9.691   4.471   1.952
85915W        W52346  38.345  33.413   4.474
85916W        W52347   0.131  35.819  14.778
85917W        W52348  11.758  10.193   4.155
85918W        W52349  20.811   0.325  11.656
85919W        W52350  22.265  41.076  13.952
85920W        W52351  35.923  44.814  12.927
85921W        W52352   6.547  10.883  13.362
85922W        W52353   3.941  39.900  13.343
85923W        W52354   0.651  32.682  11.070
85924W        W52355   1.354   8.234   4.552
85925W        W52356  27.677  35.602  10.925
85926W        W52357  31.840  17.895  11.017
85927W        W52358  43.809  18.669  13.843
85928W        W52359  37.874  13.277  14.360
85929W        W52360   4.727  11.906   4.486
85930W        W52361  43.042  20.879  14.385
85931W        W52362  17.519  12.345  14.696
85932W        W52363   4.274  22.742   3.628
85933W        W52364   9.580  17.774   0.486
85934W        W52365  42.562  30.166  13.525
85935W        W52366  43.546  43.461  13.933
85936W        W52367   6.306  12.533  14.401
85937W        W52368  43.026   1.367   0.236
85938W        W52369  18.541   2.743   4.111
85939W        W52370  32.947   5.433   3.232
85940W        W52371  42.949  20.238  13.659
85941W        W52372  29.677  18.177  12.456
85942W        W52373  29.598  38.238   2.705
85943W        W52374  35.346  40.981   3.731
85944W        W52375  16.078  44.925  10.661
85945W        W52376   0.819  10.375   2.569
85946W        W52377  12.877  18.798   0.061
85947W        W52378   8.816  30.960   2.090
85948W        W52379   2.475  40.718   0.796
85949W        W52380  12.807  34.275  14.886
85950W        W52381  23.244   2.907   4.794
85951W        W52382  11.704   0.288   1.900
85952W        W52383  33.869  37.402   2.345
85953W        W52384  10.607  27.270  14.568
85954W        W52385  28.642  28.752  13.731
85955W        W52386  38.284  25.482  11.942
85956W        W52387   8.983  31.066  12.451
85957W        W52388  41.426  13.084  12.220
85958W        W52389  13.399  41.426  13.098
85959W        W52390  13.125  14.220   0.659
85960W        W52391  17.544  22.798   4.241
85961W        W52392   5.485  38.841  11.636
85962W        W52393   0.062  35.041  14.437
85963W        W52394   4.944  14.783   3.147
85964W        W52395   7.943  41.169  14.763
85965W        W52396   7.106  18.255  10.312
85966W        W52397  38.887  29.038  13.984
85967W        W52398  23.513  18.072   4.038
85968W        W52399  19.139  30.561   2.111
85969W        W52400  22.014  31.526  10.976
85970W        W52401  41.219  39.927  14.557
85971W        W52402  27.452  25.522   1.925
85972W        W52403  12.344   7.870   3.731
85973W        W52404  18.345  40.402   2.667
85974W        W52405  25.051   6.981  11.758
85975W        W52406  12.480   6.203  12.888
85976W        W52407  13.884   0.035   4.166
85977W        W52408  20.599   2.391  13.140
85978W        W52409  27.619   9.213   3.691
85979W        W52410  41.897   5.559   2.702
85980W        W52411  40.999  44.019  10.618
85981W        W52412  22.573  17.255   0.508
85982W        W52413   8.827  17.508   2.765
85983W        W52414  29.858   2.770   5.105
85984W        W52415   6.908  26.172   4.339
85985W        W52416  41.810  39.900  13.104
85986W        W52417  27.820  25.219   4.200
85987W        W52418   4.848  11.233  13.587
85988W        W52419  31.063  38.944   1.198
85989W        W52420  12.225  36.031   1.636
85990W        W52421  43.249  31.311   0.747
85991W        W52422  39.320  37.335  11.336
85992W        W52423  30.615  14.339  13.447
85993W        W52424  11.283   8.582  11.698
85994W        W52425  42.943  29.540  13.737
85995W        W52426  30.463  42.188  14.838
85996W        W52427  38.335  14.059   4.149
85997W        W52428  41.743   2.743   0.350
85998W        W52429  35.937  33.850  12.565
85999W        W52430  12.529   5.977   1.317
86000W        W52431  32.418  40.943   2.291
86001W        W52432  15.090  34.453   0.121
86002W        W52433  40.559  32.603  10.972
86003W        W52434  44.432   5.810   4.187
86004W        W52435  26.284   2.331   4.156
86005W        W52436  44.016  33.113   0.234
86006W        W52437  26.632  14.007   4.766
86007W        W52438  19.720  44.040   4.095
86008W        W52439  31.056  22.105   3.882
86009W        W52440  41.803  13.799  14.575
86010W        W52441  34.633  20.434  14.080
86011W        W52442  19.287  29.496   4.763
86012W        W52443  40.037   5.483   4.442
86013W        W52444  12.308  32.680   1.355
86014W        W52445  19.123   4.396  12.962
86015W        W52446  27.448  44.037   9.969
86016W        W52447  41.199   5.326  14.501
86017W        W52448  43.953  36.493   3.256
86018W        W52449  36.003  22.058  10.725
86019W        W52450   4.859   4.684  11.930
86020W        W52451   0.320  42.525  10.468
86021W        W52452  40.614  29.459  12.870
86022W        W52453  16.926  43.928   3.170
86023W        W52454  30.764  13.041  12.861
86024W        W52455  14.684  32.093   1.431
86025W        W52456   4.876   0.254   4.659
86026W        W52457  34.593  13.496  14.092
86027W        W52458  13.127  30.934  11.487
86028W        W52459  38.830   3.197   2.343
86029W        W52460  36.855   4.266   1.834
86030W        W52461  12.211  30.125  13.309
86031W        W52462  23.408  17.296   2.413
86032W        W52463  21.039  16.444  10.897
86033W        W52464  32.497   7.389  12.136
86034W        W52465   9.821   6.893   4.866
86035W        W52466  29.967  30.685   2.713
86036W        W52467  39.044  27.909   0.414
86037W        W52468   3.222  40.473  13.678
86038W        W52469  30.526  28.208   4.478
86039W        W52470   7.720  12.203   3.690
86040W        W52471  44.479   3.192  14.825
86041W        W52472  37.810  24.264  13.828
86042W        W52473  37.384   4.839  12.732
86043W        W52474  22.142  29.198   2.450
86044W        W52475  41.377  31.534  11.964
86045W        W52476  29.742   9.547   9.771
86046W        W52477  27.053  34.496   0.065
86047W        W52478  18.678  26.911   5.002
86048W        W52479  14.859  39.002   9.912
86049W        W52480  28.996   7.625  11.591
86050W        W52481  33.731  28.536  10.686
86051W        W52482   2.201   6.442  10.349
86052W        W52483   3.704  17.850  13.896
86053W        W52484  25.529  37.371  14.798
86054W        W52485  24.611  16.536  12.119
86055W        W52486  34.655  16.048  12.572
86056W        W52487  25.561  35.579   3.563
86057W        W52488  20.086  26.907  10.652
86058W        W52489   3.463  21.742   3.210
86059W        W52490  10.627  16.103  10.037
86060W        W52491  23.463  28.951   3.642
86061W        W52492  28.639  28.417  14.168
86062W        W52493  38.260  27.447  14.314
86063W        W52494  14.105  39.420  12.940
86064W        W52495  19.598  19.501   3.797
86065W        W52496  40.883  12.905   2.391
86066W        W52497   5.896  31.181  14.492
86067W        W52498  35.993  30.608   2.812
86068W        W52499   3.832  22.529   4.589
86069W        W52500  12.055  39.850  11.169
86070W        W52501  18.753  34.884   1.113
86071W        W52502  11.150  33.122  13.432
86072W        W52503  42.826  40.643   0.706
86073W        W52504   5.160  41.198   3.082
86074W        W52505   3.175  19.387   2.234
86075W        W52506  41.070  18.750   3.778
86076W        W52507   1.951  19.000  10.754
86077W        W52508  21.766   6.267   3.711
86078W        W52509  42.944   2.698   4.226
86079W        W52510  33.527  14.266   0.410
86080W        W52511  18.084  26.472   2.638
86081W        W52512  28.545  39.634  12.196
86082W        W52513   6.018  44.748   1.030
86083W        W52514  21.408  19.120  12.517
86084W        W52515  30.032  25.936  10.948
86085W        W52516  21.228  11.128   3.587
86086W        W52517  12.644  43.442   4.815
86087W        W52518  29.585  13.226   0.524
86088W        W52519   5.131   8.372   4.877
86089W        W52520  27.436  36.029  10.720
86090W        W52521  33.567  43.032  10.441
86091W        W52522  35.892  40.393  11.594
86092W        W52523   7.903  21.778   0.060
86093W        W52524  16.216  30.605   3.050
86094W        W52525  14.123  44.325   4.299
86095W        W52526  32.912  43.989   3.785
86096W        W52527   8.157  38.064  13.005
86097W        W52528  18.736  35.884   4.568
86098W        W52529   5.182   5.779   0.733
86099W        W52530  17.050  32.700   0.775
86100W        W52531  34.545  13.625  11.647
86101W        W52532  12.772  25.453   4.829
86102W        W52533  12.228  30.527   4.263
86103W        W52534   2.893  23.419   2.683
86104W        W52535  25.215  39.809  13.827
86105W        W52536  33.070  32.483   2.176
86106W        W52537  14.951  14.531  14.988
86107W        W52538  26.709  35.143  14.485
86108W        W52539  12.821  16.666  11.271
86109W        W52540  36.548  37.023   3.793
86110W        W52541  40.936  11.796  14.413
86111W        W52542  12.880  39.124  13.094
86112W        W52543  12.598  38.369  10.893
86113W        W52544  39.300  31.396   2.604
86114W        W52545  44.380  40.547   1.188
86115W        W52546  23.113  40.112  12.537
86116W        W52547  33.648  14.068  14.371
86117W        W52548  30.032  20.483   0.591
86118W        W52549   8.807  33.192  13.355
86119W        W52550  20.567  41.915  11.639
86120W        W52551  39.933  20.239  11.125
86121W        W52552  39.384  43.086  13.935
86122W        W52553   4.267  21.261  12.417
86123W        W52554  21.575  24.682   4.570
86124W        W52555  13.396  31.435  12.920
86125W        W52556  36.988  11.837  12.907
86126W        W52557  21.600   2.722  14.019
86127W        W52558   1.769  33.172   3.221
86128W        W52559  20.083  43.369   4.769
86129W        W52560   8.699  42.870   2.246
86130W        W52561   3.508  18.686   2.947
86131W        W52562  26.042  26.559  11.659
86132W        W52563  20.592  18.284   1.270
86133W        W52564   5.710  44.233   0.427
86134W        W52565  31.038  39.957   0.242
86135W        W52566  44.183  12.403   2.836
86136W        W52567  40.062  24.218  12.761
86137W        W52568  10.194   6.876  12.861
86138W        W52569  39.611  44.898  11.123
86139W        W52570  13.644  20.285  14.229
86140W        W52571  25.425  12.648  14.033
86141W        W52572  38.158   6.810   4.132
86142W        W52573  13.934  29.097  11.640
86143W        W52574  42.974  36.874  11.526
86144W        W52575   6.713  35.406  13.028
86145W        W52576  22.160   2.335   4.368
86146W        W52577   2.578   2.044   2.709
86147W        W52578  11.675  22.337   1.376
86148W        W52579  32.426  42.208   1.689
86149W        W52580  38.572   9.840  14.009
86150W        W52581  34.599  44.339   0.337
86151W        W52582  27.078  36.377  13.981
86152W        W52583  21.614   7.162  11.650
86153W        W52584  34.040  19.034   1.462
86154W        W52585  12.591  23.612   2.910
86155W        W52586  21.104  27.504   2.073
86156W        W52587  28.587   7.304   4.159
86157W        W52588   1.642   4.287  13.367
86158W        W52589  30.369   0.416  13.883
86159W        W52590  36.362  18.461  13.997
86160W        W52591  37.068   1.656  12.432
86161W        W52592  28.014  34.499   0.474
86162W        W52593   6.877   8.794  12.133
86163W        W52594   8.681  26.765   1.347
86164W        W52595  19.972   5.224   2.267
86165W        W52596   5.305   7.146   2.727
86166W        W52597  27.550  10.985   3.806
86167W        W52598  21.394   8.739   3.994
86168W        W52599   1.931  40.272   0.003
86169W        W52600  31.607  41.530  13.060
86170W        W52601  11.696  44.907  14.785
86171W        W52602  20.374   4.051   0.816
86172W        W52603   8.106   0.438   2.691
86173W        W52604  44.500  14.890   9.844
86174W        W52605   2.711  43.838  14.509
86175W        W52606  40.044  34.558  11.501
86176W        W52607  23.267   5.446   2.197
86177W        W52608  29.750  40.991  10.970
86178W        W52609  30.977   9.828   1.434
86179W        W52610  26.234   4.957  12.599
86180W        W52611  37.946   1.257   2.429
86181W        W52612  30.483  18.266   2.716
86182W        W52613  37.865   1.938   9.758
86183W        W52614  26.488   6.189  13.603
86184W        W52615  28.996   7.590   0.570
86185W        W52616  44.560  35.336  12.535
86186W        W52617   2.867  44.548  12.785
86187W        W52618  38.197  14.680   1.173
86188W        W52619  13.320  12.211   0.539
86189W        W52620  11.870  16.637  14.551
86190W        W52621  27.068  24.487  11.603
86191W        W52622  42.492  11.322  10.568
86192W        W52623   4.831  18.533   3.402
86193W        W52624  13.425  26.853  13.580
86194W        W52625  43.601  20.243   4.201
86195W        W52626  43.043  43.890   1.489
86196W        W52627  22.651  39.443  13.650
86197W        W52628   7.394  31.421   0.906
86198W        W52629   5.757  28.777   0.376
86199W        W52630  40.543  29.964  14.450
86200W        W52631   8.352  20.597  13.498
86201W        W52632  19.468  12.112   3.634
86202W        W52633  18.526   2.504   1.864
86203W        W52634  10.186  11.446   4.578
86204W        W52635  10.862  27.685  12.914
86205W        W52636   6.194   5.950  14.731
86206W        W52637  44.002  14.316   3.524
86207W        W52638   1.900  35.473  13.410
86208W        W52639  27.308  43.020   3.710
86209W        W52640  43.911  25.636  11.413
86210W        W52641   6.429   0.291   0.115
86211W        W52642  38.297  40.930   0.695
86212W        W52643   5.939  12.564  13.083
86213W        W52644  29.249  38.836  13.602
86214W        W52645  20.607  29.956   5.435
86215W        W52646  34.199  29.104   1.695
86216W        W52647  33.761  40.331   0.407
86217W        W52648  30.590  19.052  10.625
86218W        W52649  18.542  33.000  12.547
86219W        W52650  25.319  25.247  12.455
86220W        W52651  27.577  38.199  13.332
86221W        W52652  41.169  14.604  14.023
86222W        W52653  39.575  12.883   1.914
86223W        W52654   6.953  21.890  13.345
86224W        W52655   7.387  39.864  11.954
86225W        W52656  41.256  38.794   4.008
86226W        W52657   3.954  12.729  14.239
86227W        W52658  30.460  12.362  10.599
86228W        W52659  25.786   4.715  14.893
86229W        W52660  39.418  19.772   4.314
86230W        W52661  19.147  22.034   1.011
86231W        W52662  20.059   3.626  11.017
86232W        W52663  28.452  42.386   3.629
86233W        W52664  11.678   2.236  11.547
86234W        W52665  30.243  11.266  13.104
86235W        W52666  44.681  17.869  10.682
86236W        W52667  43.267  40.681  13.906
86237W        W52668  34.384  15.024  12.506
86238W        W52669  16.786  22.608   3.661
86239W        W52670  20.571  43.887   2.349
86240W        W52671  19.170   0.222   4.298
86241W        W52672   3.145  30.834   3.319
86242W        W52673  24.053  28.820  10.712
86243W        W52674  28.565  19.472   5.054
86244W        W52675  25.051  17.204  11.388
86245W        W52676  32.179  23.643   3.336
86246W        W52677  24.069  29.193   4.222
86247W        W52678   6.738  44.709   1.744
86248W        W52679  25.215  31.051   0.291
86249W        W52680   0.881  20.920   2.743
86250W        W52681  27.618  44.783   1.890
86251W        W52682  13.244  11.208  10.738
86252W        W52683  33.085  41.302   1.169
86253W        W52684   5.849  36.074   3.814
86254W        W52685   7.625   7.766   4.349
86255W        W52686   2.599   9.175   2.837
86256W        W52687  12.004  15.362   3.611
86257W        W52688  28.980  28.871  11.206
86258W        W52689  29.216  22.120  11.551
86259W        W52690  23.315  28.196  14.297
86260W        W52691  16.997  29.865   2.714
86261W        W52692  16.660  16.019   0.920
86262W        W52693  36.875  19.139  12.407
86263W        W52694  33.713  18.398   4.123
86264W        W52695   4.763   9.350  14.481
86265W        W52696  15.627   2.722  12.018
86266W        W52697  15.744   1.117   3.871
86267W        W52698  32.283  29.032  12.466
86268W        W52699  19.546  33.057   1.327
86269W        W52700  11.193   5.480  14.264
86270W        W52701   2.306  28.638   0.453
86271W        W52702   5.788  44.551  11.512
86272W        W52703  36.447  40.800   4.524
86273W        W52704   3.843   2.426   2.256
86274W        W52705  20.490  37.575  13.974
86275W        W52706  23.614  33.140   2.609
86276W        W52707  24.126  22.956   2.471
86277W        W52708  23.753  37.863   2.324
86278W        W52709  36.498  14.184   1.707
86279W        W52710  24.768  24.440  13.841
86280W        W52711  41.444  15.394  10.802
86281W        W52712  27.121  10.308   4.212
86282W        W52713   3.906  19.768   1.183
86283W        W52714   8.159  36.783   1.607
86284W        W52715   8.709   3.918   2.782
86285W        W52716  17.238  37.556  10.529
86286W        W52717  37.495  32.682   1.404
86287W        W52718  40.753  38.623   3.163
86288W        W52719  30.607  20.772  13.340
86289W        W52720  31.805  21.663  12.139
86290W        W52721  13.542  37.859  12.411
86291W        W52722  16.367  33.101   0.300
86292W        W52723  39.468  19.178  11.712
86293W        W52724  12.582  27.029   5.465
86294W        W52725  26.216  37.310   4.456
86295W        W52726  40.366  41.576  12.571
86296W        W52727   4.268  44.879   2.673
86297W        W52728  34.138  38.798   9.977
86298W        W52729   8.867  30.811  13.566
86299W        W52730  43.948  28.641   0.687
86300W        W52731   7.819  23.420   0.317
86301W        W52732  15.214  39.960  12.429
86302W        W52733  26.617  41.320   1.036
86303W        W52734  36.333  21.229  14.419
86304W        W52735   7.265  32.215  11.502
86305W        W52736   9.906  17.378   1.217
86306W        W52737   3.805  14.736   4.203
86307W        W52738  17.268   4.644   4.148
86308W        W52739  12.688  35.315  14.763
86309W        W52740   2.196   1.515   3.356
86310W        W52741  14.893  18.804  13.900
86311W        W52742  25.726   0.873  11.081
86312W        W52743  16.071  13.717  13.960
86313W        W52744  18.516  23.771   0.783
86314W        W52745  31.974   0.778   1.186
86315W        W52746   4.792  16.109  11.074
86316W        W52747  32.919  42.033   2.937
86317W        W52748   9.831   3.816  14.922
86318W        W52749  16.619  25.423   3.310
86319W        W52750  29.560  43.037   0.777
86320W        W52751  22.358  36.133   1.526
86321W        W52752  43.709  26.186   0.472
86322W        W52753  39.234  42.031  12.010
86323W        W52754  29.295  26.390   5.154
86324W        W52755  23.090  29.376   2.758
86325W        W52756  17.290  32.244   0.595
86326W        W52757  27.738  33.487   2.754
86327W        W52758  10.197   9.141  10.962
86328W        W52759  12.444  29.372  13.948
86329W        W52760  14.662  34.890  13.621
86330W        W52761  44.421   2.808   1.845
86331W        W52762   3.025  28.225  13.716
86332W        W52763  15.563  31.094  13.166
86333W        W52764  10.269   7.276   5.004
86334W        W52765  23.892  37.820  12.784
86335W        W52766   0.816  35.935  13.001
86336W        W52767  41.397  32.828   4.551
86337W        W52768  39.198  35.570   4.314
86338W        W52769   4.909  18.878  11.443
86339W        W52770  15.004  12.551   4.182
86340W        W52771   1.118  37.103   3.791
86341W        W52772   6.283  19.527  14.296
86342W        W52773  31.984  29.246  14.883
86343W        W52774  14.065  43.016  13.844
86344W        W52775  10.276  32.316   1.141
86345W        W52776   1.215  39.969  11.184
86346W        W52777  36.630  19.775  13.402
86347W        W52778   7.167  26.449   1.652
86348W        W52779  39.461  35.507  12.979
86349W        W52780  37.744  39.895  12.603
86350W        W52781   8.866  13.398   0.293
86351W        W52782  21.812  12.851   2.377
86352W        W52783  13.869  29.943   1.429
86353W        W52784  43.851  23.397   2.311
86354W        W52785  20.642  10.937   4.300
86355W        W52786  27.929  28.080  10.657
86356W        W52787  27.692  12.462  13.722
86357W        W52788  12.559  39.551   0.245
86358W        W52789  31.936   0.446  12.021
86359W        W52790   5.487   7.942  12.011
86360W        W52791  33.986  28.746   2.615
86361W        W52792   3.129  39.378   4.487
86362W        W52793  13.896   3.770  11.649
86363W        W52794  15.080   1.508  14.569
86364W        W52795  14.781  21.080  11.763
86365W        W52796  16.157  12.910  13.334
86366W        W52797  37.448  18.060  11.929
86367W        W52798  35.163  31.458  11.829
86368W        W52799  16.426  20.058  14.041
86369W        W52800  10.844  24.630  13.920
86370W        W52801  39.543  44.527  12.978
86371W        W52802  11.600  36.283  11.583
86372W        W52803  37.478  32.342  10.892
86373W        W52804  26.081  18.590   2.784
86374W        W52805  40.099   7.755   2.684
86375W        W52806   8.316  43.727  13.529
86376W        W52807  27.940  37.959   2.890
86377W        W52808   0.910   8.287   2.371
86378W        W52809  42.467  22.993  11.660
86379W        W52810   9.887  14.796   0.251
86380W        W52811   9.455  21.656  12.534
86381W        W52812  11.119   5.009  12.045
86382W        W52813  28.201  30.795  12.435
86383W        W52814  23.131  17.699   4.065
86384W        W52815   8.821  33.173  13.879
86385W        W52816  40.082  41.581   3.636
86386W        W52817  35.590  28.480  10.417
86387W        W52818  42.979  25.694   1.350
86388W        W52819  44.397  32.020  13.929
86389W        W52820  34.090  36.285   1.618
86390W        W52821  40.828  34.225   0.527
86391W        W52822   3.756  33.545   2.442
86392W        W52823  22.228   4.312  12.017
86393W        W52824  30.123  18.240  14.935
86394W        W52825  23.072   1.317  13.947
86395W        W52826  40.479  19.964   1.817
86396W        W52827  14.782  28.152  10.591
86397W        W52828  23.749  37.560  11.692
86398W        W52829  31.106  24.853  12.021
86399W        W52830   7.256  39.783   0.308
86400W        W52831  26.129  15.732  13.514
86401W        W52832  33.457  41.256   3.596
86402W        W52833  28.896  24.068   2.971
86403W        W52834  21.548  44.229  11.155
86404W        W52835  30.638   2.902   2.749
86405W        W52836  25.248  33.861   0.263
86406W        W52837   9.775  26.219   3.561
86407W        W52838  31.441  37.457   0.315
86408W        W52839  29.104  26.122   3.946
86409W        W52840   9.108   8.777  12.129
86410W        W52841  20.321  40.401  12.914
86411W        W52842  42.250  17.642   0.102
86412W        W52843  26.561   8.851   4.042
86413W        W52844  21.700  44.525  13.408
86414W        W52845  32.485  24.970   3.563
86415W        W52846   2.129  27.046  11.571
86416W        W52847  30.037  33.417   3.819
86417W        W52848  18.236  29.468   4.627
86418W        W52849  23.661  32.340  12.642
86419W        W52850   4.273   2.887  10.945
86420W        W52851  24.104   8.302   4.448
86421W        W52852  29.469   5.410   1.773
86422W        W52853  36.076  28.099   3.358
86423W        W52854  36.484   5.437   2.546
86424W        W52855  30.645   8.307   1.508
86425W        W52856  23.954  33.363   0.470
86426W        W52857  10.237  35.115  11.962
86427W        W52858   8.654  29.757  12.599
86428W        W52859   1.480  41.833   3.774
86429W        W52860  30.296  22.630   2.877
86430W        W52861  40.938  25.082   4.295
86431W        W52862  37.425  34.036  13.009
86432W        W52863  12.812  29.418  14.293
86433W        W52864  24.616  12.520   0.332
86434W        W52865  10.167  21.309  11.030
86435W        W52866   1.808  25.459  14.970
86436W        W52867  25.172  35.529  11.757
86437W        W52868   2.785  40.638  11.972
86438W        W52869   0.822  10.774   4.666
86439W        W52870  17.373  18.347  10.340
86440W        W52871  17.159  18.064   2.748
86441W        W52872  10.132  10.580  11.343
86442W        W52873  36.111   7.345   4.048
86443W        W52874  15.584  23.004  12.201
86444W        W52875  44.479  42.854  10.611
86445W        W52876  17.997   3.721   1.263
86446W        W52877  35.922  12.889  13.528
86447W        W52878   2.948  18.607  13.244
86448W        W52879  18.384   7.727   4.458
86449W        W52880  40.480   0.826   0.845
86450W        W52881  40.879  12.314  14.442
86451W        W52882  35.187   8.823   1.792
86452W        W52883  24.152  13.349   2.339
86453W        W52884  33.952  10.577  13.952
86454W        W52885  11.175  43.200  14.246
86455W        W52886  27.166  22.278   4.746
86456W        W52887  20.151  40.949   4.598
86457W        W52888   5.801  33.549   1.767
86458W        W52889   6.233  28.476  14.370
86459W        W52890  38.874   3.288  13.663
86460W        W52891  13.475  31.577  14.770
86461W        W52892  15.713  30.920   4.572
86462W        W52893   2.371  41.478   1.261
86463W        W52894  32.069   2.355   1.302
86464W        W52895  13.395  28.766   1.840
86465W        W52896   4.305  17.970   1.666
86466W        W52897  25.901  35.789  13.818
86467W        W52898   9.161   9.441   3.710
86468W        W52899  22.521  31.356  11.883
86469W        W52900  31.871  13.332  13.080
86470W        W52901  24.216  34.472  11.931
86471W        W52902  34.602  41.797   0.289
86472W        W52903  34.613  29.912  10.700
86473W        W52904  33.356  20.964   4.425
86474W        W52905  41.602  24.150  10.667
86475W        W52906   4.434  17.167  14.740
86476W        W52907  34.652  23.729  14.252
86477W        W52908   7.689  27.972   0.722
86478W        W52909  40.515   7.177   5.094
86479W        W52910  31.569  35.306   4.215
86480W        W52911  16.256  24.610   4.109
86481W        W52912   7.107   2.505   4.078
86482W        W52913   5.254  37.027  14.763
86483W        W52914   2.435  32.931   2.700
86484W        W52915  23.258  34.449  13.737
86485W        W52916  41.432  25.010   4.820
86486W        W52917  22.085   0.886  12.422
86487W        W52918  34.638  40.800  13.019
86488W        W52919  36.485  22.107  13.133
86489W        W52920   2.570   3.512  12.123
86490W        W52921  20.693  32.373  11.849
86491W        W52922   4.346  11.989  14.810
86492W        W52923  41.438  10.845  10.886
86493W        W52924  26.444   2.871  12.583
86494W        W52925  17.817  37.887   1.322
86495W        W52926   9.274  27.536  13.356
86496W        W52927  29.797  28.552  10.800
86497W        W52928   5.888  31.162   1.436
86498W        W52929  44.667  10.776   0.309
86499W        W52930  26.233  32.520  11.558
86500W        W52931  36.580  40.397   0.722
86501W        W52932  17.574  19.463   3.207
86502W        W52933   0.357  11.365   2.656
86503W        W52934   3.134   1.453   0.928
86504W        W52935  22.073  42.062   1.199
86505W        W52936   0.484  31.549   0.550
86506W        W52937  29.293   7.447  14.286
86507W        W52938  24.986  12.405  13.868
86508W        W52939  11.148  14.455  11.169
86509W        W52940  22.127  26.206   2.325
86510W        W52941  32.840  17.057   3.264
86511W        W52942  25.077  14.626   2.912
86512W        W52943  16.757  17.807   1.245
86513W        W52944  30.118  29.481  11.296
86514W        W52945  38.825  10.181  13.080
86515W        W52946  41.287  43.972   2.438
86516W        W52947  42.465   7.327   0.534
86517W        W52948  27.165   0.070   1.780
86518W        W52949   7.728  34.497  11.536
86519W        W52950   2.454  35.974  11.526
86520W        W52951  37.735  21.166   3.129
86521W        W52952  28.150  23.681  12.426
86522W        W52953  24.562  28.675  14.970
86523W        W52954   7.753  21.587   4.120
86524W        W52955   4.434   2.154   0.896
86525W        W52956  28.071  21.256  12.592
86526W        W52957  21.415  21.721   2.739
86527W        W52958  19.684  27.412   2.100
86528W        W52959  28.999  36.013   1.915
86529W        W52960  21.682  38.373  13.889
86530W        W52961  38.053  27.222  12.077
86531W        W52962  23.582  30.545   1.710
86532W        W52963  12.594  39.573   3.139
86533W        W52964  22.003  42.271  13.378
86534W        W52965  16.787  28.480  13.445
86535W        W52966  28.902  14.542  14.961
86536W        W52967  23.199  11.779   0.107
86537W        W52968  35.940  25.614  11.727
86538W        W52969   8.235   3.168   0.523
86539W        W52970  40.928   8.409   0.340
86540W        W52971  29.644  31.489  11.578
86541W        W52972   4.970  20.753   3.966
86542W        W52973  38.119  17.869   0.288
86543W        W52974  18.494  23.200   2.369
86544W        W52975   9.854   2.885   4.449
86545W        W52976  15.305  33.700  12.950
86546W        W52977   7.982  20.884   0.389
86547W        W52978  43.216  30.079   4.406
86548W        W52979  17.878  38.674   1.236
86549W        W52980  11.375  22.013  12.106
86550W        W52981  19.080   1.224   4.123
86551W        W52982  37.874  43.849  14.758
86552W        W52983   1.946  29.081  14.496
86553W        W52984  37.272  10.573   4.244
86554W        W52985  44.839  21.925   4.277
86555W        W52986  38.675  35.929  14.063
86556W        W52987  26.303  10.992   1.925
86557W        W52988  34.174  33.627   4.219
86558W        W52989   3.028  36.723  13.871
86559W        W52990  25.070  15.264   2.308
86560W        W52991  11.613   8.852  14.500
86561W        W52992  39.250  27.567  14.289
86562W        W52993  16.561  17.244   0.509
86563W        W52994  26.634  31.814  11.972
86564W        W52995  38.298   3.889  13.030
86565W        W52996   7.258  42.405   2.281
86566W        W52997  39.076  30.834  14.426
86567W        W52998  42.517  38.112   4.866
86568W        W52999  32.360  36.951  11.580
86569W        W53000  20.858  31.513   3.405
86570W        W53001  33.239  44.383  13.411
86571W        W53002  37.994  18.255   4.589
86572W        W53003  34.823  19.619  14.793
86573W        W53004  22.685  21.295  12.926
86574W        W53005  43.396  44.563   0.318
86575W        W53006  20.583  30.152   2.835
86576W        W53007  27.465  13.794   3.052
86577W        W53008  24.960  27.443   1.675
86578W        W53009  41.302   3.834   2.638
86579W        W53010  36.443   7.942   2.850
86580W        W53011  15.844  21.722  11.896
86581W        W53012  39.281  10.810   4.214
86582W        W53013   8.310  28.604   4.165
86583W        W53014  15.702  27.130   0.853
86584W        W53015  28.500   1.989   0.444
86585W        W53016   8.197   0.530   4.837
86586W        W53017  28.375  16.620  11.155
86587W        W53018  25.928   4.326  13.810
86588W        W53019  42.801  43.987  11.233
86589W        W53020  24.660  26.014  11.327
86590W        W53021  24.451   6.433   3.646
86591W        W53022  29.983   9.464  12.864
86592W        W53023   9.393  19.878   0.100
86593W        W53024   8.458  20.601   2.837
86594W        W53025   9.870  26.016   3.094
86595W        W53026  43.987  34.510   3.414
86596W        W53027  10.804  14.986   1.187
86597W        W53028  25.145  35.107  10.931
86598W        W53029  42.192  33.052  12.329
86599W        W53030  27.649  13.335  14.488
86600W        W53031   8.084  10.270   5.034
86601W        W53032   7.756  10.769  11.954
86602W        W53033  24.583  27.502  12.471
86603W        W53034  31.233  33.655  14.002
86604W        W53035  37.854  12.256  12.219
86605W        W53036  15.594  44.358   1.769
86606W        W53037   1.937   9.638   0.715
86607W        W53038   7.153  32.082  12.934
86608W        W53039  37.295  26.009  14.427
86609W        W53040  14.162   7.325   4.104
86610W        W53041  29.961  20.925  12.330
86611W        W53042   5.434  42.476   2.815
86612W        W53043  32.949  21.045  14.309
86613W        W53044   0.497  14.411   5.177
86614W        W53045  31.116  10.213  11.592
86615W        W53046  13.269  28.881  11.354
86616W        W53047   5.201   2.954  10.644
86617W        W53048  20.640   2.836  13.924
86618W        W53049  24.189  21.046  12.894
86619W        W53050   7.277  16.062   1.847
86620W        W53051  24.370  18.828  14.676
86621W        W53052  26.878  15.390  11.100
86622W        W53053  24.517  17.132  11.501
86623W        W53054  21.233   6.956  13.124
86624W        W53055   9.901  41.272  13.521
86625W        W53056  23.880  19.078   0.918
86626W        W53057  10.769  15.479   1.060
86627W        W53058  14.267  22.727   3.930
86628W        W53059  44.908  16.771  13.541
86629W        W53060  38.548  27.333  13.007
86630W        W53061  29.613  14.215   2.053
86631W        W53062  20.309  22.130  11.977
86632W        W53063  25.348   6.681  13.052
86633W        W53064  17.320  34.869  12.369
86634W        W53065  43.792   9.687  14.440
86635W        W53066  42.877   8.600   1.480
86636W        W53067  28.978  18.035   1.731
86637W        W53068   1.073   7.224  11.702
86638W        W53069   9.691  13.607   4.472
86639W        W53070  43.066  42.059  12.117
86640W        W53071  37.469   3.476   2.694
86641W        W53072  42.471  43.503   0.399
86642W        W53073  20.506  39.693   0.429
86643W        W53074  12.634   8.849  11.564
86644W        W53075  43.424  25.194   3.366
86645W        W53076   2.699  42.738  13.475
86646W        W53077   2.830  14.767   4.479
86647W        W53078   4.644   9.758   5.012
86648W        W53079  18.102   6.639  14.980
86649W        W53080  28.065  41.885  11.817
86650W        W53081  34.483  10.300  14.580
86651W        W53082  24.478  44.818   0.837
86652W        W53083  28.052  36.212  14.939
86653W        W53084  25.908  30.495  14.364
86654W        W53085  27.849  20.191   0.951
86655W        W53086  16.891  28.337  14.881
86656W        W53087  32.996   4.049  10.694
86657W        W53088  36.811  34.565   4.575
86658W        W53089  44.340  38.364   4.353
86659W        W53090  35.106  22.616   9.950
86660W        W53091   2.712  11.808   0.037
86661W        W53092  26.720   1.112   4.241
86662W        W53093  38.125  27.680   3.141
86663W        W53094   9.242  27.372   4.641
86664W        W53095  11.588  43.149   3.785
86665W        W53096  21.647   1.725  12.612
86666W        W53097  34.554  14.938   2.821
86667W        W53098  34.349  14.111  14.896
86668W        W53099  19.034  17.449   3.221
86669W        W53100   3.153  27.131  12.005
86670W        W53101  26.375  35.252   3.999
86671W        W53102  40.614   4.608  11.648
86672W        W53103  41.599  39.636   3.901
86673W        W53104   6.789  17.224  10.706
86674W        W53105   2.340  29.689   0.386
86675W        W53106  29.330   3.714   0.896
86676W        W53107  31.905  29.748  11.205
86677W        W53108  12.514  39.034   0.141
86678W        W53109  24.479  36.850  10.602
86679W        W53110   4.336  42.070  14.614
86680W        W53111  35.155  27.780   2.755
86681W        W53112  29.076  39.113  12.801
86682W        W53113   3.873  15.304  13.326
86683W        W53114  18.354  24.833  11.490
86684W        W53115  16.074  26.638  14.006
86685W        W53116  16.285  31.319   1.574
86686W        W53117   6.333  15.003  10.656
86687W        W53118  28.042  30.710  11.100
86688W        W53119  27.518  29.342  13.874
86689W        W53120  32.456  23.033   3.389
86690W        W53121  40.522  16.070   1.467
86691W        W53122  13.937  35.056   2.309
86692W        W53123  40.290  37.564  11.685
86693W        W53124   6.668  42.019   0.521
86694W        W53125   5.374   7.823  11.134
86695W        W53126  16.749  18.711   0.258
86696W        W53127   9.903  34.556  13.139
86697W        W53128   0.039  14.562   5.031
86698W        W53129  43.345   4.870   2.338
86699W        W53130  18.928  40.260  11.028
86700W        W53131   4.474  41.115   3.676
86701W        W53132  18.021  11.562   4.045
86702W        W53133  24.456  36.870   3.266
86703W        W53134  24.506   3.695   4.517
86704W        W53135  25.469  12.677   3.732
86705W        W53136  16.896  30.391   1.919
86706W        W53137  20.510  11.660   2.267
86707W        W53138   9.722  41.899   0.467
86708W        W53139   7.546  33.498   3.419
86709W        W53140   8.726  35.466   1.189
86710W        W53141  34.481  19.726  11.630
86711W        W53142  12.387  31.463   4.844
86712W        W53143   2.339  43.675   2.790
86713W        W53144  40.432  22.568   3.971
86714W        W53145  16.592   5.740   2.229
86715W        W53146  32.002  34.921   0.763
86716W        W53147  12.234  43.911  12.452
86717W        W53148  39.360   0.234  10.705
86718W        W53149   0.833  34.405  12.080
86719W        W53150  38.636  15.771  14.731
86720W        W53151  13.479  24.128   1.700
86721W        W53152   6.857  31.176  10.802
86722W        W53153  21.237  13.818  13.493
86723W        W53154  11.196  30.035  10.951
86724W        W53155  40.226   3.052   0.281
86725W        W53156  15.989  42.340   4.612
86726W        W53157  24.435  31.540   0.188
86727W        W53158  12.715  34.309  13.029
86728W        W53159  14.606  22.340   3.120
86729W        W53160   0.719  23.088   1.419
86730W        W53161  34.232   9.180   4.768
86731W        W53162  21.145  26.093  12.378
86732W        W53163   1.293  13.141  12.502
86733W        W53164  10.187  29.447   1.542
86734W        W53165  14.933  19.019  12.626
86735W        W53166   3.856  44.168   1.764
86736W        W53167  19.116   8.642  13.031
86737W        W53168   0.586   9.327  13.660
86738W        W53169  28.621  20.056   3.583
86739W        W53170  33.904   4.732  10.652
86740W        W53171  22.035  44.799   0.479
86741W        W53172  20.863  11.588   1.031
86742W        W53173   8.905  28.043  13.447
86743W        W53174  10.382  33.467   4.547
86744W        W53175  11.411   3.958  12.441
86745W        W53176  39.045   4.713  10.959
86746W        W53177   6.215   7.938   0.761
86747W        W53178  35.654  23.194   3.832
86748W        W53179  33.717   8.149  14.392
86749W        W53180  11.810  12.984   0.828
86750W        W53181  37.994  33.903   2.122
86751W        W53182   5.268  25.821   3.743
86752W        W53183  13.708  29.841  13.383
86753W        W53184  35.099  12.202  12.026
86754W        W53185  40.252  41.016  11.083
86755W        W53186  25.945   9.754  12.480
86756W        W53187  29.694  34.955  10.694
86757W        W53188  17.303  16.244   4.973
86758W        W53189  34.018   5.919   0.442
86759W        W53190   0.752  27.544  14.462
86760W        W53191   5.509  24.708   3.033
86761W        W53192  43.373  35.203  11.014
86762W        W53193  38.826  20.697   1.882
86763W        W53194  39.820  23.486   4.029
86764W        W53195  16.669  27.408   3.147
86765W        W53196  14.316  20.782   2.714
86766W        W53197  36.526   2.401   3.355
86767W        W53198  10.047  30.500  10.120
86768W        W53199  24.413  31.108  14.922
86769W        W53200  23.132   8.252   4.307
86770W        W53201   8.545  36.491   1.424
86771W        W53202   9.598  41.054   0.820
86772W        W53203  26.529   5.928   1.166
86773W        W53204   5.417   7.914  13.337
86774W        W53205  35.998  38.549   1.031
86775W        W53206  16.144  19.276   0.815
86776W        W53207  32.974  19.074  10.678
86777W        W53208  29.192  36.550  12.568
86778W        W53209  13.980   3.983  12.911
86779W        W53210  34.368  20.804   3.119
86780W        W53211  11.947   1.251   1.944
86781W        W53212  34.939  43.402   3.048
86782W        W53213  27.224  22.609   0.512
86783W        W53214   5.287  36.546  13.932
86784W        W53215  43.816   8.261  10.750
86785W        W53216  32.665  29.552  12.942
86786W        W53217   7.638   2.841   1.197
86787W        W53218   8.188  38.089   0.028
86788W        W53219  19.671   1.908  13.859
86789W        W53220  28.732  14.842  14.447
86790W        W53221   2.711  36.990   3.712
86791W        W53222   7.634  14.193   4.234
86792W        W53223  23.680  37.063  14.971
86793W        W53224  10.824  26.655  12.960
86794W        W53225   3.957  44.504  13.865
86795W        W53226  29.864  11.648  10.725
86796W        W53227   5.701  22.040  13.942
86797W        W53228  33.216  20.748   3.427
86798W        W53229  33.502  31.162  10.209
86799W        W53230  15.383  30.110   1.279
86800W        W53231  31.068  29.179   1.313
86801W        W53232  17.729  41.018  11.937
86802W        W53233  44.000   0.626   1.056
86803W        W53234  42.928  31.108  13.959
86804W        W53235  17.932  19.726   0.769
86805W        W53236  16.968   9.229   2.364
86806W        W53237   4.867   5.334  14.795
86807W        W53238  36.868  29.367  13.538
86808W        W53239  16.821  10.667  13.648
86809W        W53240  10.432  16.292   2.743
86810W        W53241   5.992  38.359   4.385
86811W        W53242  27.172  24.953   3.763
86812W        W53243   3.002  26.953   1.603
86813W        W53244   7.651  16.984   3.145
86814W        W53245   0.417  29.073   1.434
86815W        W53246  27.934  21.518   2.299
86816W        W53247  12.284  43.726  11.065
86817W        W53248  16.792  13.347   1.384
86818W        W53249  17.324  29.589   0.981
86819W        W53250  17.537  23.475  12.553
86820W        W53251   0.506  33.476   2.873
86821W        W53252  43.034  34.975  14.899
86822W        W53253  21.977  28.698   2.376
86823W        W53254  39.498  34.020   1.202
86824W        W53255   5.859  29.551  13.377
86825W        W53256   6.977  28.021  13.325
86826W        W53257   7.871  10.447  12.379
86827W        W53258   7.334  32.939   3.665
86828W        W53259  31.863  44.496   2.886
86829W        W53260  19.426  42.403  10.539
86830W        W53261   9.536  12.606   4.589
86831W        W53262  37.341  29.123   4.628
86832W        W53263  36.336   9.118  11.158
86833W        W53264  37.905  23.234  10.848
86834W        W53265   2.994  36.591   2.079
86835W        W53266   3.825  24.181   4.315
86836W        W53267  27.768  40.317   1.677
86837W        W53268  24.264  32.083   1.424
86838W        W53269  42.388  25.678  13.940
86839W        W53270   6.930  22.687   1.893
86840W        W53271  15.229  29.887  13.852
86841W        W53272  24.802  19.120  14.306
86842W        W53273  16.280  18.635   2.809
86843W        W53274  31.684  26.413   5.055
86844W        W53275  19.691  41.003  12.391
86845W        W53276  35.026  18.811  14.439
86846W        W53277  40.113   0.590   1.682
86847W        W53278   4.701  13.336   4.150
86848W        W53279  42.767  32.815   1.359
86849W        W53280  44.501  18.289  12.435
86850W        W53281   3.216  42.607   3.284
86851W        W53282  27.470  44.039   4.107
86852W        W53283  18.351  42.067   3.263
86853W        W53284  38.889   1.996  13.924
86854W        W53285  36.135  26.504  12.500
86855W        W53286  37.185  28.060  13.846
86856W        W53287   3.957   9.226  11.267
86857W        W53288  36.016  38.416   2.117
86858W        W53289  15.026  33.575  11.926
86859W        W53290  13.636  26.048   2.391
86860W        W53291  42.344  36.610   0.996
86861W        W53292   5.789  15.083  14.467
86862W        W53293  21.262   8.264   1.837
86863W        W53294  19.314  18.952  10.760
86864W        W53295   2.929  15.753   2.175
86865W        W53296   1.349  17.003   2.923
86866W        W53297   2.890  19.327  10.800
86867W        W53298  18.079   5.682   3.247
86868W        W53299  17.166   4.702   4.932
86869W        W53300   0.553  19.662   1.753
86870W        W53301   9.868  17.335  14.769
86871W        W53302  42.531  11.792  12.101
86872W        W53303  23.754  16.866   3.255
86873W        W53304  30.471   9.709  10.696
86874W        W53305  32.174   2.972   0.415
86875W        W53306  38.311   0.781   0.266
86876W        W53307  29.650  26.459   4.140
86877W        W53308  44.013  39.275   4.180
86878W        W53309   1.026  27.487  14.901
86879W        W53310   4.878  40.036   2.162
86880W        W53311  15.204  38.000  12.069
86881W        W53312   2.804  34.026   3.684
86882W        W53313  17.365   5.864  13.405
86883W        W53314  43.445  23.252   3.942
86884W        W53315  28.037  11.250   4.965
86885W        W53316  32.469  43.908  13.586
86886W        W53317  44.736   1.289   5.174
86887W        W53318  15.365  31.961  11.161
86888W        W53319  42.521  35.855   1.816
86889W        W53320  40.434  42.070  10.266
86890W        W53321   0.294  41.497  11.953
86891W        W53322  33.593  30.696  11.071
86892W        W53323   1.963  23.003   4.272
86893W        W53324  42.661  42.787   0.022
86894W        W53325  11.694  13.749   0.253
86895W        W53326  44.476  23.872  12.576
86896W        W53327  27.530   4.430  11.315
86897W        W53328  39.843   7.898  14.581
86898W        W53329  11.713   3.211   1.261
86899W        W53330  21.193  32.630  12.866
86900W        W53331   7.718   4.516   3.282
86901W        W53332  34.152  28.724   1.166
86902W        W53333  11.788  26.596   1.309
86903W        W53334   0.196  21.506   2.897
86904W        W53335   4.938  42.996   1.285
86905W        W53336  34.158   1.052  13.695
86906W        W53337  23.761  41.280   0.864
86907W        W53338  14.171  27.722  13.839
86908W        W53339  30.632  19.884  12.430
86909W        W53340   7.183  20.496   1.915
86910W        W53341  27.998  17.794   4.508
86911W        W53342  27.686  39.607   3.950
86912W        W53343   6.918  18.440  10.740
86913W        W53344  26.495   6.463   2.646
86914W        W53345  35.403  39.052  14.431
86915W        W53346   5.705   2.850  14.774
86916W        W53347   9.890  34.443  10.606
86917W        W53348  40.562  12.425   1.209
86918W        W53349  43.274   6.164   4.788
86919W        W53350  39.525  29.867   4.956
86920W        W53351   5.352  17.460   2.626
86921W        W53352  24.840  27.478   2.241
86922W        W53353  38.388  31.647   1.293
86923W        W53354  39.767   4.799  10.025
86924W        W53355  21.226  37.596  14.384
86925W        W53356  12.868  36.230   3.277
86926W        W53357  18.816  13.304   0.433
86927W        W53358  38.002  18.115  13.516
86928W        W53359   0.870  17.050  14.471
86929W        W53360  26.951  11.327  14.804
86930W        W53361  26.207   9.181  10.402
86931W        W53362   4.292   0.799   4.718
86932W        W53363  19.861  12.154   1.898
86933W        W53364  30.918   2.637   1.142
86934W        W53365  34.774  21.149   5.195
86935W        W53366  28.085  23.166  12.451
86936W        W53367  24.198  34.490   4.486
86937W        W53368  18.709  11.588   1.215
86938W        W53369  18.431   6.624   2.873
86939W        W53370  18.584  37.543  12.951
86940W        W53371  31.387  31.961  10.522
86941W        W53372   4.382  22.288   3.817
86942W        W53373  15.717  30.697  10.612
86943W        W53374  44.257   0.805   0.585
86944W        W53375  42.363  24.627   1.755
86945W        W53376  17.651  37.289   4.527
86946W        W53377  17.139   5.197   0.490
86947W        W53378  10.045  11.836   1.350
86948W        W53379  43.467  29.929  14.939
86949W        W53380  44.787  35.462   2.416
86950W        W53381  39.666  31.648  11.486
86951W        W53382   0.823  15.448   3.746
86952W        W53383  26.625  30.917   2.101
86953W        W53384  13.596  17.322  14.157
86954W        W53385  30.168  15.642   0.714
86955W        W53386  12.646  40.056   2.118
86956W        W53387  42.475  12.164  11.103
86957W        W53388   0.820  22.290   4.144
86958W        W53389  20.221  31.096   1.870
86959W        W53390  17.643  12.142  11.321
86960W        W53391  20.073   8.148   0.489
86961W        W53392  13.376  30.633  13.322
86962W        W53393  32.121  39.407  14.735
86963W        W53394  23.689  44.048   1.479
86964W        W53395  10.615  17.178  11.617
86965W        W53396  33.040  43.506  13.176
86966W        W53397  33.516  28.991  13.922
86967W        W53398  28.070  23.055   2.354
86968W        W53399  39.511   1.206   1.455
86969W        W53400  22.149   8.839  11.176
86970W        W53401  17.501  37.667  11.000
86971W        W53402   1.944  10.665  10.846
86972W        W53403  23.276  43.930   0.408
86973W        W53404  37.493   2.723  11.614
86974W        W53405  36.047  15.187   2.530
86975W        W53406  14.014  19.696  11.978
86976W        W53407   4.749   3.582  12.420
86977W        W53408  39.485  35.522   0.222
86978W        W53409  19.638  36.894  13.315
86979W        W53410  31.381   4.437   1.099
86980W        W53411  24.041   8.927   2.226
86981W        W53412  11.874  17.727   3.302
86982W        W53413  25.240  38.839  14.078
86983W        W53414  17.317  15.311   2.976
86984W        W53415  22.266  10.757   1.755
86985W        W53416  27.991  18.196  11.221
86986W        W53417  27.089  23.808   2.871
86987W        W53418  32.340  34.613   2.317
86988W        W53419   2.376  12.236   3.677
86989W        W53420  44.945   6.239  10.647
86990W        W53421  15.610   0.667   3.617
86991W        W53422  16.012  29.533   2.424
86992W        W53423  26.724  16.797  10.228
86993W        W53424   0.824   9.297   0.396
86994W        W53425  29.945   8.835   1.290
86995W        W53426  14.794  24.956  11.201
86996W        W53427  43.139  38.484  11.841
86997W        W53428   5.357  18.484  13.376
86998W        W53429   3.944   1.893  12.988
86999W        W53430   4.141  37.438   4.735
87000W        W53431  19.913  26.059   2.283
87001W        W53432  34.205  12.705  14.986
87002W        W53433  33.154  15.366  14.359
87003W        W53434  34.948  26.879   4.065
87004W        W53435  30.602  34.200  14.839
87005W        W53436  23.630  44.314   0.480
87006W        W53437  36.070  33.528   4.193
87007W        W53438   2.857   6.159   0.779
87008W        W53439  32.395  40.205   4.373
87009W        W53440  35.280  30.615  14.325
87010W        W53441   4.189  24.735  12.361
87011W        W53442  30.838  11.217   4.617
87012W        W53443  32.603   9.389   4.550
87013W        W53444  12.620  23.756   3.584
87014W        W53445   1.315  24.936  10.529
87015W        W53446  40.281   3.190   2.715
87016W        W53447  35.420   9.414   0.962
87017W        W53448  20.542   9.324   1.320
87018W        W53449  17.243  10.379   0.282
87019W        W53450  38.073  22.028  13.799
87020W        W53451   5.879  20.912   3.267
87021W        W53452  20.457   5.226   1.305
87022W        W53453  22.918  20.196   0.515
87023W        W53454  10.655  37.398   0.761
87024W        W53455   8.237  19.610  12.120
87025W        W53456   5.298  25.191  10.941
87026W        W53457  20.175  40.390   2.536
87027W        W53458  34.484   7.688  12.950
87028W        W53459  36.593  20.619   0.404
87029W        W53460  37.495  22.912   3.568
87030W        W53461   4.883   5.815   2.097
87031W        W53462  14.758  29.389  14.482
87032W        W53463  41.566  30.902   0.768
87033W        W53464  41.046  18.959  12.625
87034W        W53465   3.289   6.147   3.658
87035W        W53466   7.237   1.663   4.243
87036W        W53467  24.847  24.685   1.413
87037W        W53468   1.806   3.838  11.219
87038W        W53469   6.844  20.191  13.351
87039W        W53470  22.617   2.653  11.957
87040W        W53471  16.929  17.523   2.826
87041W        W53472  40.945  42.431   1.446
87042W        W53473  10.647   2.482   3.653
87043W        W53474  37.007  43.173   5.039
87044W        W53475  20.315  16.961   9.820
87045W        W53476  16.877  16.981   2.761
87046W        W53477  24.626  29.606   2.285
87047W        W53478  42.377  15.166  12.060
87048W        W53479  22.241  25.077   2.247
87049W        W53480   2.628  12.798  10.196
87050W        W53481  16.518   1.639   2.716
87051W        W53482  25.181  19.499  12.816
87052W        W53483  25.105  13.225  10.707
87053W        W53484  37.593  16.337  12.487
87054W        W53485  32.545  37.820  10.615
87055W        W53486  41.317  33.074   1.346
87056W        W53487  24.624   9.899   2.336
87057W        W53488  38.125  38.233   1.736
87058W        W53489  42.794   6.716  13.056
87059W        W53490  43.741  31.354  12.528
87060W        W53491  24.033  43.786   3.782
87061W        W53492  33.531  37.605  13.484
87062W        W53493  14.336  35.653   0.825
87063W        W53494  38.836  43.257   1.921
87064W        W53495  19.332   5.788   1.773
87065W        W53496  35.916  34.578   5.069
87066W        W53497  11.740   8.711   1.472
87067W        W53498   6.902  30.548   3.483
87068W        W53499  43.357  38.754  13.468
87069W        W53500   1.366  41.444  11.007
87070W        W53501   0.320  23.369   3.111
87071W        W53502  38.250  27.597  10.699
87072W        W53503  35.176  11.745   4.681
87073W        W53504   7.119  26.682  11.515
87074W        W53505  35.436  19.207   1.467
87075W        W53506  11.218  24.847   0.357
87076W        W53507  27.181  38.317   0.522
87077W        W53508   2.551  40.507   5.064
87078W        W53509  22.237  40.465  12.843
87079W        W53510  18.714  14.274  13.057
87080W        W53511  43.954  39.517  11.068
87081W        W53512  19.573   5.889  14.517
87082W        W53513  34.182   7.421   4.341
87083W        W53514  29.657  24.758   1.645
87084W        W53515  14.818  30.563  12.212
87085W        W53516  10.995  36.073  13.610
87086W        W53517  28.269  20.620  13.464
87087W        W53518   3.193  39.982  13.823
87088W        W53519   0.945   8.754   3.686
87089W        W53520  17.242  30.132   4.814
87090W        W53521  13.408  38.969  14.051
87091W        W53522   7.179  43.893  12.104
87092W        W53523  41.346  12.592  14.828
87093W        W53524  43.893  38.087   1.697
87094W        W53525  27.497   5.155   3.155
87095W        W53526  37.748  20.612   3.875
87096W        W53527  13.136  34.528   0.229
87097W        W53528  20.909   0.271  12.379
87098W        W53529  13.662  44.283  11.209
87099W        W53530  13.009  40.510  10.782
87100W        W53531  20.936  21.327  11.119
87101W        W53532  22.520  16.871   3.323
87102W        W53533  42.353  42.532  11.667
87103W        W53534  35.114  36.620  12.563
87104W        W53535  23.747  23.049  11.421
87105W        W53536  17.121   2.236   1.765
87106W        W53537  21.332  37.097  14.308
87107W        W53538  36.773  16.337  10.571
87108W        W53539   5.643   1.962   0.001
87109W        W53540   2.108  13.990  12.543
87110W        W53541   7.348   9.920   0.872
87111W        W53542   4.290  17.779  12.689
87112W        W53543  10.179   5.649  12.697
87113W        W53544  34.990  16.089  12.171
87114W        W53545   9.124  20.261   1.299
87115W        W53546  16.238  44.536   3.346
87116W        W53547   8.699  18.778  12.115
87117W        W53548  14.226  44.960   4.889
87118W        W53549  12.617  22.147   1.761
87119W        W53550  31.904   0.232  11.547
87120W        W53551  13.188  28.043   3.355
87121W        W53552  32.705  43.826  14.045
87122W        W53553  26.708  31.555   0.899
87123W        W53554  39.828   1.390   3.578
87124W        W53555  16.323  27.915   2.314
87125W        W53556  41.416  10.855  11.901
87126W        W53557  31.450  38.434  11.883
87127W        W53558  26.066  33.074  12.859
87128W        W53559  14.482  23.978   4.545
87129W        W53560   1.657  37.923   3.583
87130W        W53561  15.792  32.157  13.972
87131W        W53562  37.821  14.898  11.490
87132W        W53563  37.253  36.266  12.534
87133W        W53564   3.684  10.272   3.673
87134W        W53565  26.737   9.417  11.983
87135W        W53566  12.814   1.925  13.878
87136W        W53567  17.376  38.845  12.483
87137W        W53568  40.410  20.191  14.462
87138W        W53569  20.207   8.679  14.581
87139W        W53570  16.504  41.986  13.350
87140W        W53571  13.958  13.813   1.634
87141W        W53572   2.421   3.252  14.538
87142W        W53573  31.022  25.227   3.688
87143W        W53574  41.881  29.204   0.956
87144W        W53575   1.962  32.157   0.606
87145W        W53576   0.288  41.974  14.967
87146W        W53577  13.115  17.572  12.005
87147W        W53578   6.241  33.114   2.797
87148W        W53579  23.636  14.298  12.618
87149W        W53580  11.717  11.398   0.449
87150W        W53581  23.489  29.696  14.812
87151W        W53582  13.109  13.799   3.310
87152W        W53583  16.135  11.778   4.287
87153W        W53584  16.022  27.100  14.896
87154W        W53585   8.233  25.737   2.995
87155W        W53586   3.997  41.897   2.761
87156W        W53587  34.834   7.657   3.695
87157W        W53588  31.071  15.397   1.906
87158W        W53589   5.152  11.348   1.763
87159W        W53590  33.391  15.577   0.249
87160W        W53591   2.196  44.916   3.887
87161W        W53592  26.142   7.359  13.858
87162W        W53593  28.007  42.791  13.136
87163W        W53594  27.595  17.685  14.929
87164W        W53595  12.745  15.728   4.070
87165W        W53596  26.068  14.257  11.937
87166W        W53597  30.957  36.277   2.731
87167W        W53598  34.640  12.670  14.154
87168W        W53599  10.278  13.726  12.001
87169W        W53600  17.861  12.692   9.870
87170W        W53601  40.944  18.215   1.286
87171W        W53602  44.336  11.884  13.958
87172W        W53603  24.521   2.286  11.144
87173W        W53604  20.222  26.561  11.600
87174W        W53605  37.813   5.734  13.832
87175W        W53606  13.713  31.059   3.783
87176W        W53607  26.594  17.142   0.690
87177W        W53608   0.439  25.967   4.499
87178W        W53609  34.636  17.811  11.372
87179W        W53610  10.029  16.604   2.918
87180W        W53611   1.016  16.703   1.783
87181W        W53612  25.765  19.396  14.583
87182W        W53613  36.072  37.731  11.437
87183W        W53614  40.114   8.712   2.755
87184W        W53615  34.770   7.413  11.290
87185W        W53616   8.405  18.228  10.737
87186W        W53617   2.197  12.615   0.263
87187W        W53618  12.342  16.296  12.416
87188W        W53619  28.092  15.737   4.548
87189W        W53620  35.608   2.205   1.249
87190W        W53621  28.893  11.668   9.870
87191W        W53622  27.434  40.602   1.205
87192W        W53623  31.220  24.495   3.065
87193W        W53624  37.450  25.595   0.894
87194W        W53625  32.173  26.525   4.547
87195W        W53626  18.016  36.820  11.074
87196W        W53627  18.222  16.725   4.405
87197W        W53628  17.622  18.676  12.967
87198W        W53629  27.163  20.537   2.746
87199W        W53630  17.867  17.552  11.526
87200W        W53631  33.717  28.038  10.900
87201W        W53632  38.930  36.345  13.017
87202W        W53633   0.991  13.203   2.167
87203W        W53634  37.996  35.061   4.137
87204W        W53635  18.231   7.423   1.759
87205W        W53636  28.535  33.802   4.596
87206W        W53637  35.805  13.632  11.100
87207W        W53638  14.719  27.140   4.584
87208W        W53639   4.405  21.587  14.159
87209W        W53640  36.376  12.120   4.214
87210W        W53641  11.774   0.400   4.627
87211W        W53642  35.706  35.914  12.002
87212W        W53643  16.090  19.752  13.757
87213W        W53644  30.178  10.939  11.119
87214W        W53645  39.479  15.111  12.179
87215W        W53646   8.765   0.975  14.883
87216W        W53647  15.823  33.896   2.591
87217W        W53648  41.975  29.624  12.766
87218W        W53649  30.191  16.715  14.416
87219W        W53650   6.138  42.098  13.848
87220W        W53651  28.715  18.279   2.387
87221W        W53652  13.379  33.015   2.955
87222W        W53653  36.333  36.706  12.638
87223W        W53654  29.539  21.809   4.612
87224W        W53655  34.337  38.274  14.781
87225W        W53656  15.258  43.786  10.629
87226W        W53657  39.870  15.228  14.530
87227W        W53658  41.065  40.659   0.369
87228W        W53659  13.202  16.203   0.859
87229W        W53660  17.797  19.534   1.777
87230W        W53661  15.430   1.227  11.970
87231W        W53662  39.820  15.703   4.214
87232W        W53663  26.743   8.402   2.699
87233W        W53664  26.590  37.669   4.430
87234W        W53665  16.165  25.477  10.745
87235W        W53666  38.889  28.169  10.727
87236W        W53667  16.190  24.376  13.359
87237W        W53668  25.521  37.412  13.965
87238W        W53669  16.012   6.253  12.301
87239W        W53670  14.641   5.327  13.793
87240W        W53671  21.223  38.364  12.465
87241W        W53672   8.832  11.884   3.617
87242W        W53673  20.300  18.232   4.128
87243W        W53674  22.530  16.416   4.086
87244W        W53675   8.947  24.137   4.178
87245W        W53676  33.954  11.868   0.514
87246W        W53677  19.987  12.247  12.345
87247W        W53678   6.829  34.389   1.263
87248W        W53679  17.803  30.128   2.229
87249W        W53680  31.406  24.831  11.582
87250W        W53681  15.258  36.969   1.789
87251W        W53682  19.723  25.223  11.748
87252W        W53683  11.215   4.986   3.133
87253W        W53684   2.352  34.590  13.297
87254W        W53685  14.365   4.665   2.734
87255W        W53686  17.062  25.116  11.926
87256W        W53687  36.395  13.115   4.163
87257W        W53688  10.704  33.903  13.151
87258W        W53689  42.234  17.142   1.280
87259W        W53690  16.122  18.747  13.777
87260W        W53691  29.359  44.281  12.953
87261W        W53692  20.244   3.080  12.219
87262W        W53693  40.766  13.695  11.187
87263W        W53694  33.018  21.270   4.720
87264W        W53695   1.714   1.490  11.747
87265W        W53696  27.655  39.539  14.859
87266W        W53697  44.498  19.996  11.953
87267W        W53698  43.244  30.491   4.108
87268W        W53699  41.974   2.465  11.292
87269W        W53700   5.860  25.050   1.865
87270W        W53701  32.805  28.562  11.005
87271W        W53702  14.383   5.939  11.212
87272W        W53703  11.639  44.793   4.119
87273W        W53704  35.449  10.308  14.722
87274W        W53705  44.288  35.842   3.052
87275W        W53706  41.042   8.356   4.097
87276W        W53707  16.167  42.520   4.153
87277W        W53708  38.623  37.524   3.056
87278W        W53709  21.591  14.377  11.088
87279W        W53710  24.563  13.312   1.581
87280W        W53711  20.011  24.778  11.136
87281W        W53712   5.281  37.659   0.851
87282W        W53713  10.863  13.036   4.491
87283W        W53714  18.099  38.952   4.499
87284W        W53715   7.192   2.084   1.298
87285W        W53716  16.399   6.003  12.048
87286W        W53717  26.538  18.196   1.214
87287W        W53718  23.191   2.222   3.726
87288W        W53719  17.626  15.530   1.661
87289W        W53720   2.293  29.331  10.804
87290W        W53721  12.707  28.008  10.773
87291W        W53722  14.341  21.686  14.393
87292W        W53723  38.453  44.199   1.337
87293W        W53724  25.519  25.074  12.018
87294W        W53725  12.582  40.769   3.629
87295W        W53726   3.231  18.613   4.441
87296W        W53727   6.949  36.431  12.889
87297W        W53728  12.369  16.284  14.662
87298W        W53729  41.372   1.952   4.191
87299W        W53730  44.248   1.698   1.980
87300W        W53731   9.342   5.029   0.219
87301W        W53732  16.296  42.476  14.846
87302W        W53733  21.242  37.463   4.986
87303W        W53734  39.118  38.162  13.907
87304W        W53735  31.900  22.464  12.131
87305W        W53736  38.948  36.483   3.896
87306W        W53737   5.269  31.721  12.883
87307W        W53738  37.514   6.465  12.921
87308W        W53739  27.265  31.454   2.965
87309W        W53740  20.165  15.815  14.835
87310W        W53741  32.145   8.710   2.456
87311W        W53742  34.778  26.141   3.282
87312W        W53743  31.456   2.927   1.408
87313W        W53744   1.452  23.053  12.397
87314W        W53745  11.690   3.806   0.327
87315W        W53746  34.797   5.671  12.877
87316W        W53747  25.038   6.175  14.284
87317W        W53748   0.473   5.744  14.100
87318W        W53749  35.434  29.667  13.263
87319W        W53750  25.578   2.460   2.336
87320W        W53751  26.881  18.858  11.129
87321W        W53752  18.513  32.697   3.432
87322W        W53753   3.826  37.409  10.794
87323W        W53754  33.102  40.384  14.282
87324W        W53755  17.716  31.153   0.402
87325W        W53756   5.928  20.327  11.140
87326W        W53757  43.882   4.647   2.365
87327W        W53758  29.434  29.449  11.701
87328W        W53759  40.796  11.672  12.273
87329W        W53760  38.424   2.490  14.578
87330W        W53761  31.429  19.348   3.597
87331W        W53762  18.471  21.141   4.252
87332W        W53763  33.880  42.096   1.263
87333W        W53764  25.936  38.738  12.066
87334W        W53765  21.423  10.731   0.911
87335W        W53766  20.888  20.015   0.076
87336W        W53767  40.035  34.449   0.903
87337W        W53768  27.160   9.201  10.693
87338W        W53769  18.135   8.930  12.347
87339W        W53770   3.812  34.839  13.077
87340W        W53771  26.099  11.266  11.407
87341W        W53772  12.263  32.170  12.199
87342W        W53773  23.059  23.437  13.554
87343W        W53774   9.683  42.321  14.802
87344W        W53775   3.386  31.146  11.400
87345W        W53776  11.691  25.097   0.385
87346W        W53777  18.083  16.515  14.878
87347W        W53778  26.431   6.819   2.085
87348W        W53779   4.575  15.734   3.591
87349W        W53780  19.757  39.578   2.289
87350W        W53781   7.576   8.496  13.455
87351W        W53782  21.760  16.646   3.700
87352W        W53783   2.405  15.410  11.052
87353W        W53784  42.774  19.806  12.971
87354W        W53785  27.102  34.458   1.407
87355W        W53786  43.827  29.098   3.747
87356W        W53787  14.181  10.151  14.762
87357W        W53788   0.484   4.919  10.726
87358W        W53789  23.277  32.824   4.154
87359W        W53790  32.122  26.609   4.043
87360W        W53791  40.844   1.228   0.908
87361W        W53792   3.917   0.332   3.135
87362W        W53793  30.097   9.102   4.607
87363W        W53794  18.330  23.565  12.023
87364W        W53795  10.275   7.687   1.522
87365W        W53796   3.066  26.829   2.316
87366W        W53797  44.025  14.643  14.024
87367W        W53798  35.581  38.077  11.697
87368W        W53799  14.250   4.277  12.404
87369W        W53800  44.707   4.549   1.481
87370W        W53801   3.229  14.703   4.834
87371W        W53802  10.173   7.395  10.343
87372W        W53803  27.517   3.145   1.294
87373W        W53804  11.666   7.670  13.109
87374W        W53805   3.433  38.502  11.266
87375W        W53806  29.629  33.273  14.807
87376W        W53807  37.361  19.044  12.654
87377W        W53808  12.181   7.328  14.469
87378W        W53809  20.339  37.030   3.537
87379W        W53810   1.289   0.889  14.911
87380W        W53811  38.460  37.390  12.833
87381W        W53812  41.553  15.189   3.719
87382W        W53813  40.426  36.499  14.257
87383W        W53814  34.409  26.088   4.240
87384W        W53815  14.327  39.454   2.207
87385W        W53816  26.500  10.157   1.773
87386W        W53817  13.705  38.947   2.659
87387W        W53818  44.912  44.520  13.327
87388W        W53819   5.660  30.437   3.182
87389W        W53820  15.094  27.443   2.651
87390W        W53821  32.594  36.486   4.944
87391W        W53822  11.314  28.181   2.486
87392W        W53823  39.989  14.197   4.066
87393W        W53824  31.674   2.592  10.591
87394W        W53825  11.836  27.063  10.628
87395W        W53826  19.086  40.059   0.625
87396W        W53827  27.329  28.440  13.842
87397W        W53828   0.521  24.593   0.918
87398W        W53829  12.434  36.637   0.230
87399W        W53830  44.612   5.253   3.487
87400W        W53831  22.457  38.931  12.433
87401W        W53832  32.474  24.935  10.685
87402W        W53833   5.249  32.501   3.108
87403W        W53834  23.980  44.379  13.979
87404W        W53835   7.679  16.991  14.514
87405W        W53836   9.900  12.586   2.051
87406W        W53837  39.478  11.664  11.871
87407W        W53838  38.429  30.797  12.941
87408W        W53839   8.703   2.004  12.490
87409W        W53840  20.335  12.064  11.940
87410W        W53841  11.359  35.835   2.283
87411W        W53842   5.384  40.045   0.700
87412W        W53843  28.986   9.620   1.551
87413W        W53844  36.171  19.844  13.146
87414W        W53845  29.703  22.589   1.679
87415W        W53846  13.214  36.750   2.379
87416W        W53847  13.851  17.800  13.865
87417W        W53848  36.847  26.000   3.192
87418W        W53849  10.675   5.382   1.944
87419W        W53850  38.341  37.669   0.918
87420W        W53851  35.027  15.700  12.522
87421W        W53852   6.242  10.624  12.819
87422W        W53853  28.513  33.745   2.276
87423W        W53854  43.322  13.744   3.152
87424W        W53855   5.933   7.763   4.607
87425W        W53856  23.101  22.010   0.263
87426W        W53857  42.876   4.243   4.584
87427W        W53858  44.979  27.752   4.524
87428W        W53859  37.330  12.205  10.792
87429W        W53860  22.742  25.961   0.886
87430W        W53861  20.045  43.396  11.211
87431W        W53862  24.053  27.269  13.224
87432W        W53863  35.439  29.710  11.565
87433W        W53864  16.569  24.309   2.355
87434W        W53865  40.452  27.043  12.993
87435W        W53866  16.684   6.674  12.066
87436W        W53867   4.941  24.263   0.397
87437W        W53868   2.370  15.080  13.367
87438W        W53869  44.839   7.718   0.276
87439W        W53870  20.151  29.977  14.105
87440W        W53871  22.727  42.109  13.104
87441W        W53872  11.109  25.631  13.594
87442W        W53873  38.053   4.939   3.657
87443W        W53874   6.248  10.594  10.064
87444W        W53875  38.862  30.540  12.698
87445W        W53876  32.858  15.826  14.414
87446W        W53877   1.767  28.651  14.196
87447W        W53878  24.999  29.265  12.299
87448W        W53879   9.935  37.006  11.237
87449W        W53880  18.644  19.361  12.488
87450W        W53881   1.931  13.928  14.893
87451W        W53882  33.578  24.227  10.677
87452W        W53883  26.939  42.925  14.831
87453W        W53884  42.735  17.724  11.777
87454W        W53885  13.200  17.303   3.656
87455W        W53886  14.359  10.413  10.393
87456W        W53887  18.214   9.140   3.399
87457W        W53888   5.243  24.173  14.282
87458W        W53889  32.337  41.303   0.005
87459W        W53890   2.460  32.411   1.477
87460W        W53891   0.502  22.255  12.531
87461W        W53892  44.508   8.724   3.928
87462W        W53893  17.799  32.003   0.790
87463W        W53894  12.151   9.931  14.826
87464W        W53895  22.435  17.573   1.822
87465W        W53896  13.801  19.499   2.866
87466W        W53897  29.364   0.422  14.274
87467W        W53898  43.020  41.858   0.228
87468W        W53899   2.231  14.534   3.290
87469W        W53900  24.168  13.091  13.004
87470W        W53901   0.275  27.148  11.956
87471W        W53902  24.732  19.816   1.884
87472W        W53903  12.407  38.906  13.992
87473W        W53904  14.060  14.454   4.626
87474W        W53905  16.166   6.382   4.998
87475W        W53906  27.403  26.629   2.892
87476W        W53907  21.545   2.766   4.911
87477W        W53908  21.251   9.242   2.156
87478W        W53909  15.851   8.792   0.187
87479W        W53910  41.489  39.913   0.029
87480W        W53911   4.718   0.463   3.145
87481W        W53912  24.620  14.761  10.657
87482W        W53913   3.176  23.087   1.405
87483W        W53914  41.412   7.570  13.880
87484W        W53915  10.365  28.880   0.175
87485W        W53916  19.359   2.951  13.227
87486W        W53917   2.002  19.030   3.973
87487W        W53918  25.658  43.910  14.250
87488W        W53919  23.702  27.954   3.298
87489W        W53920  21.999   0.458  14.413
87490W        W53921  30.957  40.225  11.086
87491W        W53922   9.388  40.806   3.279
87492W        W53923  20.423  31.612   4.933
87493W        W53924  43.764  29.067  12.992
87494W        W53925  35.979  38.546  13.842
87495W        W53926   7.583  13.651  14.827
87496W        W53927   5.826  35.890   0.944
87497W        W53928   3.381  20.623  11.890
87498W        W53929  13.991   0.326  13.706
87499W        W53930   0.951  24.313  13.355
87500W        W53931  24.678  37.567   4.431
87501W        W53932  23.751   3.536  12.372
87502W        W53933   9.894  44.345  11.386
87503W        W53934  29.072  15.294   2.189
87504W        W53935   1.720   9.928   3.100
87505W        W53936  44.515  38.786  13.972
87506W        W53937  26.026   9.652  10.531
87507W        W53938  20.668  29.380  10.677
87508W        W53939  32.661  31.927  13.933
87509W        W53940  23.483  39.857   3.616
87510W        W53941  44.348   7.188  10.882
87511W        W53942  36.856  17.005  11.613
87512W        W53943  30.612   0.473  12.435
87513W        W53944  27.454  21.727   2.284
87514W        W53945   6.323  14.371   1.034
87515W        W53946   7.285  27.592  13.393
87516W        W53947  35.320  20.348   0.799
87517W        W53948   7.240  32.665   4.108
87518W        W53949  40.111  13.719  12.003
87519W        W53950  44.872  38.590  11.046
87520W        W53951  33.027   7.062   2.356
87521W        W53952  33.830  18.330   2.676
87522W        W53953  20.329  31.451  11.521
87523W        W53954  11.130  15.986  10.566
87524W        W53955  24.808   7.696  13.740
87525W        W53956  35.551   0.724  12.511
87526W        W53957  23.957  31.360   2.290
87527W        W53958  10.756  13.176  11.253
87528W        W53959  42.453  30.724  14.312
87529W        W53960   0.155  17.143  11.097
87530W        W53961  17.200  19.407  13.814
87531W        W53962  17.832  23.658  13.525
87532W        W53963  15.020  12.778   3.375
87533W        W53964  41.238  16.577   3.643
87534W        W53965  21.207  41.861   5.476
87535W        W53966  44.909   3.399  12.970
87536W        W53967  31.007   0.393   2.287
87537W        W53968  30.888  13.846   0.373
87538W        W53969  35.571  36.674  14.348
87539W        W53970   4.374  29.870  13.448
87540W        W53971  21.733  21.202  11.486
87541W        W53972  29.393  39.477   2.186
87542W        W53973   6.713  42.387   4.585
87543W        W53974  36.677  27.553   4.993
87544W        W53975  41.040  39.505   2.090
87545W        W53976   2.552  20.636  12.357
87546W        W53977   7.240   8.613   3.019
87547W        W53978  41.091  36.260   3.584
87548W        W53979  29.684  22.845  10.323
87549W        W53980   7.274  44.922   4.669
87550W        W53981  30.880  38.096   4.655
87551W        W53982  17.818  37.355   1.348
87552W        W53983   3.529  38.868   3.229
87553W        W53984  15.862  20.226  13.928
87554W        W53985  35.840  41.888   4.024
87555W        W53986  31.973  17.860  13.720
87556W        W53987  43.601  20.760  11.926
87557W        W53988  41.005   0.251   1.221
87558W        W53989  23.622  30.881  10.714
87559W        W53990   9.590  31.666   4.256
87560W        W53991  25.573  14.265  12.137
87561W        W53992  28.677  31.139  13.920
87562W        W53993  31.174  43.583  14.432
87563W        W53994  10.402  27.660   2.607
87564W        W53995  37.837  35.588  14.284
87565W        W53996  23.468   2.941  14.790
87566W        W53997  38.050  34.083   5.720
87567W        W53998  34.478   3.527   2.250
87568W        W53999  22.497  33.573   3.260
87569W        W54000  10.557  10.585   1.551
87570W        W54001  16.248  10.021  11.332
87571W        W54002  25.749  36.274  14.009
87572W        W54003  20.176  25.888   2.850
87573W        W54004  13.117  24.618  12.140
87574W        W54005  39.633  13.628  14.050
87575W        W54006  44.500   3.142  11.639
87576W        W54007  27.915   6.194  13.088
87577W        W54008  26.124  18.659  10.025
87578W        W54009  43.713  37.054   1.306
87579W        W54010  19.335  26.236  14.919
87580W        W54011   2.145  40.955   1.332
87581W        W54012   4.838  23.999   0.857
87582W        W54013   6.674  41.524   0.261
87583W        W54014  37.917  24.961   3.525
87584W        W54015  26.895  11.377   3.143
87585W        W54016  20.348  24.593   2.618
87586W        W54017  32.713   4.904  10.321
87587W        W54018   9.457  30.061  13.712
87588W        W54019  17.061  22.160   0.002
87589W        W54020   3.490  39.317   2.386
87590W        W54021   9.364  18.762   2.862
87591W        W54022  10.376  33.468  12.549
87592W        W54023  33.485  31.858  14.850
87593W        W54024  16.214  21.869   2.908
87594W        W54025   6.656  43.712   0.884
87595W        W54026   2.498  43.875   0.840
87596W        W54027  21.076   0.288   1.448
87597W        W54028  27.921  22.124  12.287
87598W        W54029  32.689  30.639  12.005
87599W        W54030  22.783  22.391  10.786
87600W        W54031  27.142   1.765  14.362
87601W        W54032  25.507  37.388  10.702
87602W        W54033  35.353   1.937   1.859
87603W        W54034  42.510  24.584   2.249
87604W        W54035  40.505  39.547  14.317
87605W        W54036  17.594   4.111  14.066
87606W        W54037  39.107  12.917   1.690
87607W        W54038  18.592  15.288  12.109
87608W        W54039  17.685   4.766   5.019
87609W        W54040   2.208   2.268  11.416
87610W        W54041  17.582  40.506   3.317
87611W        W54042  42.153  42.771  14.079
87612W        W54043  43.572  36.785   0.394
87613W        W54044   7.840  16.574   2.839
87614W        W54045   9.331  20.376  14.967
87615W        W54046   5.775  10.437   1.498
87616W        W54047   6.277  23.933  13.851
87617W        W54048  23.756  40.455   1.441
87618W        W54049  42.406  33.618   1.005
87619W        W54050   6.695  34.151  10.883
87620W        W54051  14.799   7.725   3.642
87621W        W54052  26.440   9.177   3.665
87622W        W54053  27.997  22.539  12.932
87623W        W54054  27.604  29.298   4.578
87624W        W54055  38.842  26.590   0.264
87625W        W54056   8.301   8.946   0.951
87626W        W54057   3.955   6.391   0.401
87627W        W54058  14.553  22.480  13.134
87628W        W54059  14.344  30.433   0.845
87629W        W54060  11.492  37.890   2.395
87630W        W54061  25.092  40.948   1.899
87631W        W54062  32.047  15.319   0.744
87632W        W54063  22.886   1.223  11.424
87633W        W54064  25.239  32.480   3.369
87634W        W54065  22.372  37.086  12.362
87635W        W54066   4.559  21.508   1.931
87636W        W54067   8.733  44.957   3.254
87637W        W54068   8.049  17.973   1.818
87638W        W54069  26.057  29.213  12.233
87639W        W54070  40.611  26.046  12.237
87640W        W54071  23.156  17.558   2.803
87641W        W54072  20.327   9.176   3.239
87642W        W54073   9.955  12.678  14.666
87643W        W54074  18.776  36.936   1.258
87644W        W54075  28.218  21.682  12.304
87645W        W54076  14.093   1.240   1.582
87646W        W54077  10.551   9.630   1.890
87647W        W54078  30.997  36.267   4.905
87648W        W54079  16.707  21.171  14.000
87649W        W54080  32.082  32.491   1.236
87650W        W54081  30.084   9.276  14.402
87651W        W54082  27.626   8.408  11.674
87652W        W54083  31.988  37.084  10.731
87653W        W54084   3.925  28.609   1.303
87654W        W54085  27.093  35.120  12.149
87655W        W54086  14.287  10.728  13.843
87656W        W54087   1.984  39.160  12.425
87657W        W54088  43.891  12.002  11.378
87658W        W54089  21.039  12.047   3.901
87659W        W54090  41.320  17.016   2.292
87660W        W54091  37.479  22.992  12.355
87661W        W54092  34.994  32.818  11.695
87662W        W54093  43.186  40.147  13.086
87663W        W54094  18.212  35.355  12.323
87664W        W54095  31.052  14.593  13.318
87665W        W54096  21.751  27.044  14.076
87666W        W54097   7.896   8.041   3.325
87667W        W54098  32.431  20.519  11.006
87668W        W54099   6.218  27.201  11.094
87669W        W54100  29.343   0.290  13.753
87670W        W54101  12.333  22.393   3.997
87671W        W54102  37.033  31.768   4.441
87672W        W54103  35.168  31.553   3.767
87673W        W54104  29.226  16.099   1.745
87674W        W54105  32.944   6.825  10.660
87675W        W54106  21.137  41.898   0.236
87676W        W54107  43.178  42.583  12.043
87677W        W54108  44.335  11.380  10.806
87678W        W54109  15.202   3.565  14.130
87679W        W54110  15.158  20.144   0.231
87680W        W54111  40.582  42.951  12.461
87681W        W54112  15.761   5.680  13.445
87682W        W54113  18.146  20.746  13.001
87683W        W54114  36.906  15.772  12.168
87684W        W54115   3.196  14.248   3.236
87685W        W54116  13.120  26.066  12.392
87686W        W54117   3.018  18.570   3.100
87687W        W54118  41.805  19.772  13.002
87688W        W54119  15.346  35.045  12.117
87689W        W54120  36.841  17.291  13.359
87690W        W54121  39.556  30.208  14.815
87691W        W54122   3.355  15.653  14.487
87692W        W54123  33.191   3.586  10.841
87693W        W54124  25.334  44.314   1.200
87694W        W54125   4.280   0.586   3.402
87695W        W54126   5.924  25.667   3.091
87696W        W54127  43.400  20.558   4.763
87697W        W54128   0.041  41.484   3.820
87698W        W54129  31.410   3.687  11.656
87699W        W54130  31.123  26.874  13.777
87700W        W54131   9.628  32.991   1.962
87701W        W54132  14.304  19.280   0.435
87702W        W54133  41.787  13.182   4.464
87703W        W54134  29.350  37.067   2.326
87704W        W54135  26.106   2.855  10.665
87705W        W54136   7.037   6.870  12.520
87706W        W54137   1.961  24.985   0.819
87707W        W54138  17.844  20.643  14.803
87708W        W54139  17.164   1.287   2.297
87709W        W54140  25.322  32.385   0.179
87710W        W54141  44.877  21.645   4.763
87711W        W54142   6.957  34.961  14.200
87712W        W54143  22.231  25.273   0.180
87713W        W54144  13.227  19.335  11.776
87714W        W54145  13.136   4.673  14.269
87715W        W54146  27.786  28.984  12.574
87716W        W54147   5.444  11.316  10.665
87717W        W54148  22.641  41.889  11.109
87718W        W54149  38.536  22.163  14.042
87719W        W54150   8.637  37.376   3.755
87720W        W54151   9.651  26.013  10.921
87721W        W54152   9.250  10.054  10.864
87722W        W54153  27.082   3.879   2.482
87723W        W54154  30.139   3.458  12.618
87724W        W54155   4.895  26.955   0.732
87725W        W54156  41.494   6.221   2.316
87726W        W54157   7.403  10.648  12.376
87727W        W54158  33.298   0.508   4.460
87728W        W54159   4.184  39.148   3.648
87729W        W54160  42.723  36.269   0.953
87730W        W54161   6.385  40.865   4.171
87731W        W54162  21.462  25.733  13.558
87732W        W54163   4.436  26.617   1.498
87733W        W54164  26.821  38.941   4.250
87734W        W54165  24.062   4.722  13.265
87735W        W54166  33.563  44.998   4.917
87736W        W54167  26.676   6.171  12.552
87737W        W54168  40.008  13.836  13.291
87738W        W54169  38.893  30.077  11.042
87739W        W54170  31.891  32.956  13.749
87740W        W54171   2.931   3.627   2.219
87741W        W54172  37.406  20.055   2.682
87742W        W54173  19.326  18.797   4.913
87743W        W54174  30.711  11.643  11.751
87744W        W54175  34.907   7.925  12.597
87745W        W54176   4.811   9.394  13.175
87746W        W54177  10.932  34.842  14.034
87747W        W54178  34.099  30.629   1.300
87748W        W54179  28.061  33.195  14.037
87749W        W54180  38.799  16.752   1.600
87750W        W54181   8.737  19.419  13.564
87751W        W54182  34.897  17.850  13.257
87752W        W54183   7.062  17.700  13.101
87753W        W54184  37.857   7.381  14.782
87754W        W54185   4.543  36.333  13.020
87755W        W54186  31.525  36.747  12.553
87756W        W54187  20.447  34.478   4.252
87757W        W54188  12.650  43.001   5.080
87758W        W54189  35.709  25.655  12.183
87759W        W54190   9.620  38.070   4.549
87760W        W54191  10.058  16.844  14.801
87761W        W54192  29.683  24.014   2.357
87762W        W54193  11.605  21.741   3.077
87763W        W54194  30.714  10.211   2.721
87764W        W54195  40.244  36.516   0.795
87765W        W54196  28.355  23.698  13.117
87766W        W54197  34.189  43.035  14.157
87767W        W54198  18.638  35.338  14.859
87768W        W54199  31.723  31.892  12.821
87769W        W54200  44.915  26.054  12.479
87770W        W54201  31.960  43.475   4.632
87771W        W54202  29.113  10.685   0.313
87772W        W54203  17.403  44.215   2.214
87773W        W54204  15.958  15.392  14.943
87774W        W54205  38.289   8.381   2.803
87775W        W54206  10.760  32.004   4.836
87776W        W54207  42.839   6.147   2.697
87777W        W54208  17.677  13.562  12.865
87778W        W54209  24.320  36.416  14.495
87779W        W54210   6.188  24.691  12.360
87780W        W54211  38.147  43.759  11.953
87781W        W54212   0.755  44.962   1.808
87782W        W54213  17.247  16.479  12.034
87783W        W54214  25.120  22.977   0.764
87784W        W54215  30.632  27.709  13.889
87785W        W54216  33.885  18.337  11.383
87786W        W54217  24.447   2.445   3.337
87787W        W54218  44.485  25.723  13.935
87788W        W54219  16.967   0.855   3.178
87789W        W54220   5.815  36.048  12.478
87790W        W54221  21.923   9.800  12.965
87791W        W54222   8.269  24.666   0.269
87792W        W54223   0.458  38.305  11.831
87793W        W54224  16.576  13.768   2.296
87794W        W54225  26.977  24.636  13.373
87795W        W54226   9.434  32.590   4.792
87796W        W54227  10.598  33.520   0.822
87797W        W54228   5.975  31.437  10.705
87798W        W54229  29.862  15.647  13.423
87799W        W54230   6.899  32.597  10.688
87800W        W54231  26.466  36.400  13.188
87801W        W54232  16.371  26.752   3.323
87802W        W54233   5.725   9.669  12.092
87803W        W54234  17.620   4.026   1.471
87804W        W54235  15.972   2.737  12.768
87805W        W54236  20.775  29.109  10.258
87806W        W54237  12.276  33.614   0.436
87807W        W54238   1.307  40.003   3.579
87808W        W54239  40.538  35.918   2.779
87809W        W54240  38.966  17.227  11.081
87810W        W54241  21.430  31.867   0.035
87811W        W54242  43.740  36.477   2.183
87812W        W54243  38.457  21.612  11.050
87813W        W54244  24.611  14.383   1.720
87814W        W54245  43.792  21.006  13.935
87815W        W54246  13.591  43.980   1.739
87816W        W54247   0.564  29.124   2.750
87817W        W54248   6.444  42.784   1.765
87818W        W54249  44.493  44.939  14.520
87819W        W54250  36.638  14.619  11.998
87820W        W54251   8.111   3.654   0.293
87821W        W54252  22.800   5.474  13.930
87822W        W54253   8.606  39.407  12.135
87823W        W54254   8.716  17.964  14.636
87824W        W54255  19.625  40.902   4.612
87825W        W54256  18.711   5.970   0.759
87826W        W54257  36.937  40.551  14.304
87827W        W54258  20.735  28.443  11.521
87828W        W54259  11.611  37.989  14.961
87829W        W54260   8.470  34.268  12.672
87830W        W54261  13.516  27.517  12.416
87831W        W54262  37.001   3.912  12.459
87832W        W54263  43.187  21.654   0.387
87833W        W54264  41.143  40.325  14.884
87834W        W54265   0.214   0.590   1.011
87835W        W54266  26.397  37.172   0.100
87836W        W54267  34.459   6.120  14.323
87837W        W54268   4.851  13.163  12.974
87838W        W54269  24.655  15.563   2.482
87839W        W54270  20.175   5.277  11.005
87840W        W54271  34.436   2.077   1.701
87841W        W54272  14.137  21.633  13.335
87842W        W54273  21.502  21.810  10.376
87843W        W54274   4.967  25.921   4.194
87844W        W54275  26.962  41.467   0.678
87845W        W54276   2.163  13.411   4.584
87846W        W54277  37.698   3.089   1.720
87847W        W54278  40.269  23.810  12.315
87848W        W54279  23.019   6.878  13.856
87849W        W54280  10.488   6.691  14.272
87850W        W54281  38.747  44.940  10.124
87851W        W54282  27.551  38.290  14.814
87852W        W54283  44.832  11.760  14.021
87853W        W54284  32.061  15.155  12.445
87854W        W54285  41.780  20.218   2.579
87855W        W54286  10.226  12.819   2.378
87856W        W54287   3.901  21.968  10.685
87857W        W54288  27.601  23.447   4.558
87858W        W54289  33.843  33.689  11.227
87859W        W54290  14.521  12.376  14.002
87860W        W54291  33.005  20.024   2.706
87861W        W54292  20.444   4.785   0.262
87862W        W54293  26.562   7.210  14.838
87863W        W54294  28.488  41.607  13.472
87864W        W54295  10.208  13.334   2.257
87865W        W54296  43.471   2.615  11.194
87866W        W54297  41.458   6.632   3.266
87867W        W54298  34.877   8.257  10.409
87868W        W54299  31.125  20.270   1.775
87869W        W54300  24.910   6.025  11.533
87870W        W54301  14.421  32.464   0.507
87871W        W54302  16.107  11.074  10.678
87872W        W54303  44.716  17.240  14.035
87873W        W54304  14.799  40.736  11.504
87874W        W54305   8.644  35.847  14.449
87875W        W54306   7.037  24.079   2.088
87876W        W54307  44.784  24.938  13.450
87877W        W54308  41.261  13.088   2.819
87878W        W54309  25.127   2.819  11.697
87879W        W54310  43.489  28.913   2.732
87880W        W54311   3.461   2.272   3.794
87881W        W54312   6.985  25.199  12.605
87882W        W54313   5.238  27.963  12.016
87883W        W54314   9.075  11.868  14.856
87884W        W54315   4.846  21.150  10.403
87885W        W54316  18.663  33.986   4.542
87886W        W54317  27.136  24.142  13.506
87887W        W54318  11.255  26.412  12.195
87888W        W54319  14.000  23.863  12.923
87889W        W54320   5.732  20.082  14.051
87890W        W54321   6.641  32.703  14.263
87891W        W54322   0.856  27.473  12.384
87892W        W54323  14.721  31.106  13.498
87893W        W54324  16.201   0.943   1.448
87894W        W54325  31.128   2.174  14.817
87895W        W54326  19.228  27.600   4.163
87896W        W54327  12.752  30.518   3.128
87897W        W54328  12.136  38.318  12.514
87898W        W54329  42.155  41.470  14.405
87899W        W54330  24.965  11.380   3.230
87900W        W54331  42.636  10.705   3.640
87901W        W54332  30.118  30.027   4.133
87902W        W54333  12.803  30.401   1.329
87903W        W54334  16.784  42.020   0.730
87904W        W54335  31.416  11.586   3.745
87905W        W54336  17.760  43.515  11.175
87906W        W54337  16.089  18.808  14.908
87907W        W54338   8.862   1.499  11.243
87908W        W54339  43.315  15.304   2.348
87909W        W54340  23.268  34.833  10.712
87910W        W54341  21.171  34.460  11.455
87911W        W54342  13.064  11.400   1.348
87912W        W54343  40.462  24.967  12.944
87913W        W54344  31.589   7.721   4.081
87914W        W54345   1.423   4.235  14.401
87915W        W54346   1.823   0.609  11.034
87916W        W54347   0.959  40.881   0.338
87917W        W54348  31.032  22.528   1.297
87918W        W54349  23.069  34.977  13.405
87919W        W54350  24.393  25.904  12.961
87920W        W54351  11.024  20.346  11.528
87921W        W54352  11.840  43.483   1.648
87922W        W54353  24.620   3.345   1.832
87923W        W54354   0.963  16.677   3.226
87924W        W54355   4.205   2.843   4.081
87925W        W54356   1.830  16.103  12.877
87926W        W54357  28.321  31.580  11.160
87927W        W54358   2.252  18.540  10.746
87928W        W54359   8.401  31.651   3.556
87929W        W54360  24.623   4.962   0.845
87930W        W54361  44.952  28.350   3.789
87931W        W54362  44.079  37.189  14.517
87932W        W54363  38.950   2.151   4.514
87933W        W54364  23.710   6.852   1.446
87934W        W54365  23.758  17.041  11.868
87935W        W54366   3.840  32.586   2.189
87936W        W54367  33.030   2.232   1.198
87937W        W54368  44.111  29.612   3.727
87938W        W54369   7.714  17.323   2.276
87939W        W54370  26.486  18.353  14.869
87940W        W54371  21.164   4.146  13.343
87941W        W54372  19.262   4.555  13.844
87942W        W54373  23.424  40.990  12.046
87943W        W54374  22.478  42.931  13.455
87944W        W54375  33.537  41.489  13.950
87945W        W54376  11.626  19.624   4.082
87946W        W54377   9.313  44.290  10.097
87947W        W54378  44.236  43.842   2.182
87948W        W54379  40.376   6.202  14.276
87949W        W54380   6.851  37.294   4.229
87950W        W54381  32.141  11.742   1.507
87951W        W54382  16.161  22.965  11.943
87952W        W54383   2.716  37.599   3.247
87953W        W54384  24.086  20.655   2.383
87954W        W54385  24.259   8.205   0.074
87955W        W54386   6.934  43.051   0.423
87956W        W54387  36.928  24.178   2.002
87957W        W54388  41.360  42.995   0.399
87958W        W54389  26.203  28.241   1.439
87959W        W54390  29.081   5.412  11.117
87960W        W54391   5.933   9.725  12.557
87961W        W54392  41.806   2.326   1.142
87962W        W54393  14.350   7.766  14.852
87963W        W54394   4.706  39.303   1.807
87964W        W54395  12.242   8.700   1.246
87965W        W54396  16.061  14.943   2.260
87966W        W54397  36.841  38.397   3.247
87967W        W54398  23.836  42.965  10.297
87968W        W54399   1.362  26.682   1.773
87969W        W54400  34.499   4.078  10.645
87970W        W54401  16.453  20.008  13.493
87971W        W54402  18.332  22.986  14.044
87972W        W54403  15.796  27.904  10.981
87973W        W54404  19.065   7.234   2.665
87974W        W54405  41.469  16.979   1.779
87975W        W54406  41.756  38.360   1.303
87976W        W54407  44.234  13.827   3.682
87977W        W54408  10.625  11.821  11.450
87978W        W54409  36.779   0.794   3.650
87979W        W54410  33.934  35.367  14.011
87980W        W54411  39.042   4.759  11.750
87981W        W54412  32.639   5.347  13.341
87982W        W54413  18.072  11.751   2.713
87983W        W54414  17.841  40.381   0.418
87984W        W54415  14.819   8.360  12.990
87985W        W54416  25.545  14.871   1.681
87986W        W54417  27.897   4.833   2.884
87987W        W54418  37.434  37.777  13.063
87988W        W54419   1.834  17.624   3.868
87989W        W54420  39.506   0.725   2.262
87990W        W54421  24.964  41.058  14.331
87991W        W54422  43.474   5.446  10.746
87992W        W54423  43.889  15.679  14.496
87993W        W54424  37.303  16.257  13.671
87994W        W54425   3.146  16.474  11.919
87995W        W54426  16.180  44.798  12.858
87996W        W54427  25.923  40.386  12.042
87997W        W54428  44.855   5.285  10.800
87998W        W54429   5.197   1.023   3.613
87999W        W54430   4.321  13.047  11.397
88000W        W54431  26.377  23.897  11.309
88001W        W54432  39.420  37.864   0.054
88002W        W54433   2.017  23.221  13.293
88003W        W54434  38.995   9.792  11.214
88004W        W54435  39.527  18.917  12.154
88005W        W54436  25.781  11.578  14.498
88006W        W54437  31.190   6.947  13.989
88007W        W54438  44.452  43.489   1.772
88008W        W54439   2.753  28.693  11.202
88009W        W54440   3.810   9.807  14.275
88010W        W54441   5.821  14.609  10.844
88011W        W54442  22.972  23.090  11.547
88012W        W54443  15.902  38.001   2.652
88013W        W54444  39.830  17.088  12.048
88014W        W54445  33.373  10.709   4.999
88015W        W54446  21.487   6.239   4.146
88016W        W54447  23.003  28.173   1.889
88017W        W54448  42.420  33.840  13.950
88018W        W54449   1.828  11.054  12.997
88019W        W54450   0.223  23.252   1.261
88020W        W54451  34.517  42.998  13.769
88021W        W54452  19.206  38.209  12.523
88022W        W54453  19.822  17.084   4.513
88023W        W54454   3.864  23.321  14.007
88024W        W54455  20.716  14.044  10.656
88025W        W54456  31.654   9.662  12.065
88026W        W54457  35.667   2.914   1.840
88027W        W54458  27.256  15.891   2.890
88028W        W54459  44.809   2.827   2.828
88029W        W54460   4.554  27.574  14.949
88030W        W54461   5.947   8.419  11.239
88031W        W54462  43.391  26.706  14.761
88032W        W54463  34.843   5.161  11.365
88033W        W54464  39.913  37.356   1.131
88034W        W54465  35.894  22.588  12.388
88035W        W54466  22.095  11.415  13.975
88036W        W54467   9.701   5.611  12.492
88037W        W54468  20.686  24.621   3.590
88038W        W54469  14.777  21.565   2.655
88039W        W54470   8.668  31.688  12.201
88040W        W54471  13.004  31.516   1.242
88041W        W54472  14.730  27.170  11.359
88042W        W54473  15.459   4.916  14.084
88043W        W54474  35.686  15.608   3.721
88044W        W54475  31.897  13.835   3.653
88045W        W54476  39.819  12.421  12.174
88046W        W54477  28.534  24.953  14.772
88047W        W54478  17.938  14.747   9.775
88048W        W54479   7.615   8.713  11.662
88049W        W54480   5.175   5.420  10.435
88050W        W54481  24.980  21.649   2.267
88051W        W54482  11.874  44.300   3.202
88052W        W54483   8.339  11.112   3.208
88053W        W54484   2.395  11.148  12.537
88054W        W54485  17.591   1.913   3.470
88055W        W54486  24.492  25.479   2.859
88056W        W54487  18.483  13.057   2.392
88057W        W54488  12.316  14.035   2.222
88058W        W54489  13.248   8.321  12.578
88059W        W54490  29.256  11.801   0.531
88060W        W54491   3.375  16.810   3.549
88061W        W54492  42.448   0.375   4.395
88062W        W54493  11.346  11.696   0.234
88063W        W54494   5.964   5.937  13.808
88064W        W54495  16.592  36.643   1.397
88065W        W54496  34.678  28.800   4.107
88066W        W54497  44.311  32.967   4.583
88067W        W54498  38.831  23.275  10.473
88068W        W54499  24.521  27.758  14.827
88069W        W54500  44.396  28.725  12.105
88070W        W54501  11.294  10.279   1.780
88071W        W54502  10.594  19.722   4.907
88072W        W54503  29.119  26.222  10.916
88073W        W54504  29.414  39.437   1.387
88074W        W54505  33.297  27.951   3.699
88075W        W54506  26.279   7.561  10.641
88076W        W54507   9.118  39.793   0.342
88077W        W54508  41.265  22.134  12.083
88078W        W54509  12.631  42.112  10.777
88079W        W54510  26.628  37.616   3.426
88080W        W54511  23.228  30.857  12.467
88081W        W54512  43.760  25.137  12.329
88082W        W54513  37.528  41.552  14.509
88083W        W54514  39.014  31.673  14.712
88084W        W54515  36.755   7.004  10.998
88085W        W54516  29.184  33.436   0.020
88086W        W54517  35.582  15.367   0.777
88087W        W54518  25.069  40.029  14.295
88088W        W54519  18.463  43.480   0.920
88089W        W54520  17.899  33.124   1.366
88090W        W54521  25.118   9.204  11.423
88091W        W54522  36.993  10.327   3.878
88092W        W54523  29.551  35.815   4.641
88093W        W54524  40.138  43.881   4.204
88094W        W54525  41.037  44.358  14.922
88095W        W54526   5.867   8.258  14.362
88096W        W54527   1.400  10.215  14.480
88097W        W54528  10.745  30.124  11.166
88098W        W54529  25.107  25.979   1.814
88099W        W54530  16.604  15.685   1.875
88100W        W54531  43.387  34.095   4.875
88101W        W54532  35.804  37.456   0.302
88102W        W54533  39.575  23.756  14.498
88103W        W54534   2.482  40.961  13.760
88104W        W54535  35.387  40.399   4.149
88105W        W54536  20.986   3.869   1.386
88106W        W54537  25.494   6.645  12.068
88107W        W54538   1.761  34.458   0.514
88108W        W54539   1.798  11.269  13.908
88109W        W54540  14.210   0.390  12.533
88110W        W54541  30.787   6.852   1.499
88111W        W54542   5.208  31.055   2.863
88112W        W54543  40.268   0.989   1.298
88113W        W54544  27.154  41.382   1.782
88114W        W54545  25.215   3.637   4.200
88115W        W54546  33.118  33.855   1.983
88116W        W54547  31.015  20.097  12.162
88117W        W54548  43.186  14.823   1.170
88118W        W54549   8.748  19.365  13.036
88119W        W54550  21.238   3.842   0.882
88120W        W54551  28.898  23.197   3.484
88121W        W54552  19.456  42.562   4.128
88122W        W54553  31.316  21.011  13.092
88123W        W54554  21.712  16.975  13.529
88124W        W54555  29.171  41.992  13.124
88125W        W54556  29.580  34.676   2.195
88126W        W54557  18.471  18.493  12.938
88127W        W54558  17.171  34.889   4.497
88128W        W54559   4.637  37.350   2.805
88129W        W54560   7.822  30.650  14.390
88130W        W54561  33.055  17.782   3.811
88131W        W54562  33.357  19.400   3.220
88132W        W54563   7.593  20.626  14.081
88133W        W54564  29.486  28.695   2.851
88134W        W54565  34.920  13.151  12.933
88135W        W54566  37.779  22.717  14.519
88136W        W54567  23.044  22.133  12.123
88137W        W54568  32.793  35.299   3.765
88138W        W54569  17.645  22.550  10.415
88139W        W54570  25.854  18.781   3.734
88140W        W54571  11.240  18.411  11.858
88141W        W54572   2.633  34.870   4.106
88142W        W54573   0.166  34.959  13.405
88143W        W54574  35.335  38.076   4.641
88144W        W54575  31.655   2.984  13.392
88145W        W54576  26.267  11.825   1.959
88146W        W54577  10.839  19.980  14.820
88147W        W54578  35.659  10.090   3.870
88148W        W54579  30.319  10.701   4.567
88149W        W54580  35.515   0.838   0.991
88150W        W54581   8.174  33.106  11.319
88151W        W54582  33.910   7.237  10.857
88152W        W54583  10.717  41.342   2.016
88153W        W54584   0.775  17.540  10.390
88154W        W54585  12.099   6.110   1.569
88155W        W54586  18.148  44.551   3.332
88156W        W54587  38.045  39.109  12.004
88157W        W54588  38.044  19.264   3.296
88158W        W54589  14.439  35.461  10.918
88159W        W54590  31.985  38.554  13.476
88160W        W54591  28.891   8.253   5.050
88161W        W54592  15.838   7.491  10.905
88162W        W54593  38.575  13.787   4.616
88163W        W54594   6.029  11.882   3.836
88164W        W54595  33.027  42.782  11.532
88165W        W54596  12.659  33.390  14.343
88166W        W54597  24.636   5.244   0.396
88167W        W54598  25.821  28.514   1.242
88168W        W54599   1.868  32.112   4.872
88169W        W54600  41.561  31.920  13.288
88170W        W54601   0.375  41.850   3.604
88171W        W54602  20.699  31.901   1.400
88172W        W54603  31.019  23.511   3.187
88173W        W54604  29.640  28.421   4.266
88174W        W54605   2.066  26.623   2.345
88175W        W54606   4.637  17.767  13.067
88176W        W54607   9.535  25.080   1.818
88177W        W54608  20.013  11.332  10.679
88178W        W54609  20.239  40.594   1.548
88179W        W54610  42.976  24.679  13.608
88180W        W54611   2.903  44.284  14.325
88181W        W54612  36.973   3.802   4.591
88182W        W54613   8.845  36.120   1.841
88183W        W54614  33.477  31.701  10.195
88184W        W54615   1.139  38.833   3.657
88185W        W54616  41.948  26.739  11.245
88186W        W54617  24.232  18.688   1.856
88187W        W54618  31.725  32.259   0.307
88188W        W54619  22.542   5.952   2.501
88189W        W54620  16.817   1.875  11.489
88190W        W54621  28.177  39.896   4.806
88191W        W54622  42.925  30.523  14.419
88192W        W54623   0.418  29.719   2.187
88193W        W54624  22.578  38.256   2.361
88194W        W54625  42.769  25.041   2.260
88195W        W54626  33.809  39.828   0.575
88196W        W54627  35.496  33.470   2.770
88197W        W54628   7.443  33.487  14.980
88198W        W54629  43.141  33.949   2.906
88199W        W54630   1.829  19.324  11.579
88200W        W54631   9.925  14.852   1.600
88201W        W54632  31.183   8.601  14.895
88202W        W54633   7.968  22.995  12.091
88203W        W54634  32.507  24.264  12.047
88204W        W54635  29.681   9.779  13.637
88205W        W54636  17.797  17.747  13.052
88206W        W54637  17.064  24.609  14.785
88207W        W54638  20.329  14.291   2.640
88208W        W54639   3.694  19.344   2.241
88209W        W54640  28.518  31.859   3.990
88210W        W54641  12.161  19.671  13.766
88211W        W54642  12.200  22.677   2.160
88212W        W54643  35.493  43.624  11.184
88213W        W54644   6.952  21.996   4.446
88214W        W54645  31.025  35.398   2.169
88215W        W54646  20.223  33.886  14.863
88216W        W54647  27.115  25.647  13.620
88217W        W54648   2.221  33.425  11.602
88218W        W54649  42.831  19.060  12.170
88219W        W54650  32.483  25.111   4.995
88220W        W54651  15.772  35.996  14.570
88221W        W54652   6.653  18.511  11.158
88222W        W54653   2.772  23.285   3.669
88223W        W54654  20.331  35.035  12.800
88224W        W54655  13.662  25.652   0.225
88225W        W54656  13.421  13.206  11.166
88226W        W54657  27.262   3.012   0.835
88227W        W54658  17.663  31.527   0.031
88228W        W54659   6.698   3.651   0.887
88229W        W54660  22.013  19.101   0.241
88230W        W54661  42.087  12.582  11.221
88231W        W54662   1.292   0.064   0.901
88232W        W54663  17.785  40.523  12.058
88233W        W54664   4.902   0.441  14.366
88234W        W54665   9.258   8.206   0.304
88235W        W54666  33.938  35.520  14.871
88236W        W54667  28.907   3.419  13.141
88237W        W54668  24.636   1.858  11.905
88238W        W54669  44.929   7.624   4.215
88239W        W54670   0.821   2.893  14.369
88240W        W54671   5.964  27.237  12.159
88241W        W54672   5.156  19.095  10.999
88242W        W54673   6.375  28.999  10.721
88243W        W54674  31.376  41.354  14.826
88244W        W54675  40.718   0.527   2.616
88245W        W54676  22.731  23.166   4.635
88246W        W54677   8.053  34.533   4.554
88247W        W54678  17.499  24.747  14.496
88248W        W54679   8.256  44.247  13.392
88249W        W54680  38.066  21.204   0.753
88250W        W54681  16.265  13.511  10.230
88251W        W54682   6.783  26.756  11.045
88252W        W54683  14.128  33.191   2.303
88253W        W54684  12.220   6.580   0.583
88254W        W54685   3.222  11.803  13.135
88255W        W54686   5.305  15.791  11.872
88256W        W54687  15.566  35.311  10.743
88257W        W54688  10.658  21.079   1.973
88258W        W54689   0.715  33.883  13.777
88259W        W54690  33.986   6.290  11.682
88260W        W54691  22.004  42.983   2.812
88261W        W54692  12.213   5.656   2.634
88262W        W54693  40.555  20.050  10.775
88263W        W54694   7.688  10.819  13.952
88264W        W54695   0.846  29.670   3.965
88265W        W54696  10.726  20.094  12.478
88266W        W54697  41.304  14.849   4.036
88267W        W54698  30.163  28.001   1.484
88268W        W54699  39.278  19.239   4.123
88269W        W54700  39.781  40.381   2.444
88270W        W54701  31.640  17.814   1.624
88271W        W54702  31.184  35.364  12.045
88272W        W54703  37.386  20.220   1.717
88273W        W54704  22.113  43.330   3.195
88274W        W54705  25.363  42.453  14.360
88275W        W54706  10.820   2.317   2.226
88276W        W54707   0.400  11.606   4.648
88277W        W54708  30.770  16.441  11.556
88278W        W54709   6.908  24.315  11.178
88279W        W54710  29.662  29.731   4.096
88280W        W54711   1.477  35.952  14.986
88281W        W54712  40.842   9.627   2.844
88282W        W54713   0.831  16.567  10.951
88283W        W54714   9.459  44.931   1.082
88284W        W54715  35.544  32.640  12.466
88285W        W54716   9.140  27.551   2.324
88286W        W54717   0.390   4.647  13.899
88287W        W54718  14.697  42.386   1.273
88288W        W54719  25.929  31.345  14.981
88289W        W54720   6.945  42.747  11.573
88290W        W54721  40.813  37.369  11.961
88291W        W54722  22.093  24.424  11.176
88292W        W54723  13.828   3.273   5.396
88293W        W54724   9.629  22.962   4.268
88294W        W54725  34.617   6.439  13.367
88295W        W54726  41.921  22.586   3.946
88296W        W54727  20.153  43.699  10.805
88297W        W54728  43.397  42.244   3.634
88298W        W54729  20.106  29.641   2.202
88299W        W54730  12.581  27.100   0.101
88300W        W54731   4.842  33.914  13.619
88301W        W54732  23.955  15.949  13.782
88302W        W54733   3.026  11.889  11.417
88303W        W54734  26.206  37.835   3.612
88304W        W54735  26.964  18.647   2.218
88305W        W54736  30.432  36.858   4.308
88306W        W54737  34.812  28.806  13.092
88307W        W54738  35.378  23.307   2.441
88308W        W54739  42.629   6.947  12.332
88309W        W54740   0.499   6.957   2.326
88310W        W54741  16.622   6.124   2.962
88311W        W54742  42.796  23.800  11.362
88312W        W54743  36.076  39.354  12.491
88313W        W54744  12.488   3.720  13.368
88314W        W54745  40.464  15.265  12.219
88315W        W54746  19.562   8.901   0.835
88316W        W54747  10.656  31.237  14.764
88317W        W54748  13.288  14.110   3.687
88318W        W54749  25.741  36.869   1.303
88319W        W54750  14.792  16.786  14.055
88320W        W54751  23.935  35.884   4.127
88321W        W54752  18.235  27.516   1.926
88322W        W54753  15.334   6.673  11.722
88323W        W54754   9.654  38.913   2.058
88324W        W54755   4.148  42.502  13.371
88325W        W54756  22.074  25.023   0.883
88326W        W54757  28.515  36.374  12.093
88327W        W54758  11.194  19.690   2.154
88328W        W54759  24.089  37.383  14.541
88329W        W54760  31.032   6.126   1.342
88330W        W54761  38.607   9.159   3.690
88331W        W54762  39.381  15.866  12.922
88332W        W54763  33.925  14.710  13.364
88333W        W54764  13.179  30.644  14.261
88334W        W54765  18.778  31.934  12.568
88335W        W54766   8.643  20.594  14.942
88336W        W54767  43.696  26.534  13.936
88337W        W54768  18.910  35.497   2.542
88338W        W54769  11.776  27.275   4.199
88339W        W54770  21.027  44.083   2.267
88340W        W54771  43.897  10.026   2.820
88341W        W54772  23.199  36.336  12.474
88342W        W54773  34.536  23.316  13.812
88343W        W54774  10.076   6.441  10.692
88344W        W54775   9.820  35.326  11.732
88345W        W54776  41.467  22.058   1.713
88346W        W54777   0.884  13.349   1.172
88347W        W54778   8.230  22.502  11.866
88348W        W54779  14.216  12.169   2.189
88349W        W54780  20.958  27.765   1.074
88350W        W54781  14.679  28.621  11.087
88351W        W54782   6.859  17.313   4.864
88352W        W54783   6.458  12.405  12.523
88353W        W54784   3.812  15.477   4.847
88354W        W54785   5.546  10.304   3.754
88355W        W54786  11.896  17.534  14.357
88356W        W54787  29.100  17.038   3.720
88357W        W54788  29.767  30.877  12.763
88358W        W54789  28.039  38.360   1.072
88359W        W54790  38.585   4.273   3.323
88360W        W54791  12.973   7.927  11.532
88361W        W54792  40.628  21.041  11.666
88362W        W54793   5.887  23.230   0.354
88363W        W54794  14.440  13.191   0.236
88364W        W54795  27.189  10.192  12.916
88365W        W54796  33.834  33.592   4.637
88366W        W54797  44.285  22.048  10.626
88367W        W54798  12.671  12.907  14.360
88368W        W54799  23.304  21.138   3.527
88369W        W54800  35.130  11.339   0.726
88370W        W54801  41.095  24.153   2.708
88371W        W54802  43.461  20.297  13.539
88372W        W54803  15.918   8.346   4.838
88373W        W54804  18.116   5.772   2.245
88374W        W54805   5.802   6.010   4.093
88375W        W54806  33.364  30.561   3.638
88376W        W54807  44.768  42.902   4.664
88377W        W54808   0.444  17.362  14.210
88378W        W54809  25.509  38.968  13.507
88379W        W54810   1.673  26.131   2.072
88380W        W54811  21.216  12.813   1.968
88381W        W54812   5.178   2.726   1.456
88382W        W54813  37.413  20.037   0.871
88383W        W54814  23.634  42.546  11.196
88384W        W54815  13.062  39.891  11.924
88385W        W54816   7.773  14.147   2.826
88386W        W54817  35.102  29.075   4.098
88387W        W54818  26.061  22.076  14.876
88388W        W54819  42.827  44.000   2.504
88389W        W54820  33.461  29.586  12.089
88390W        W54821  25.930  12.087  10.962
88391W        W54822  14.870  36.341   3.242
88392W        W54823  12.206  14.899   3.620
88393W        W54824  38.436  13.248   4.608
88394W        W54825   6.274  21.118   2.932
88395W        W54826  30.484  35.793  14.193
88396W        W54827  34.295  41.803   1.121
88397W        W54828  26.477  17.764  13.047
88398W        W54829  17.762  38.356   4.534
88399W        W54830  31.023   8.461   2.252
88400W        W54831   7.244  32.141   1.871
88401W        W54832  33.978   5.661  13.471
88402W        W54833  34.419  18.343   3.893
88403W        W54834  38.080   6.415  14.865
88404W        W54835  20.924  22.059   4.131
88405W        W54836  33.105   2.851   0.526
88406W        W54837  15.989  36.042   4.902
88407W        W54838  36.345   6.496   1.747
88408W        W54839  22.536   5.899   4.632
88409W        W54840  18.798  17.903  10.002
88410W        W54841  36.016  37.982   1.841
88411W        W54842  19.089  24.374  12.751
88412W        W54843  18.376  25.085   2.113
88413W        W54844  16.035  19.554  12.850
88414W        W54845  16.283  10.533   3.142
88415W        W54846   4.484  41.667  11.096
88416W        W54847  24.961   7.386  12.050
88417W        W54848  34.843  39.405  10.326
88418W        W54849  20.637  30.202   0.894
88419W        W54850  21.675  17.925   3.603
88420W        W54851   0.220  35.408  11.225
88421W        W54852   8.137  21.957  13.960
88422W        W54853  26.130  30.998  14.165
88423W        W54854  40.698  28.358   0.258
88424W        W54855  13.205   7.695  10.405
88425W        W54856   3.481  28.164   1.421
88426W        W54857  11.377  38.123   4.235
88427W        W54858  19.682  11.184   1.901
88428W        W54859   0.189  41.012   4.393
88429W        W54860   9.731  20.829  13.472
88430W        W54861  21.171  13.809   3.910
88431W        W54862  38.534  34.456  14.066
88432W        W54863  11.324  21.128  11.917
88433W        W54864  20.179  26.435   5.069
88434W        W54865  28.798  41.337   1.780
88435W        W54866  32.126  19.628  13.075
88436W        W54867  32.340   3.875   1.844
88437W        W54868  26.059   3.150   2.705
88438W        W54869  44.646  39.665  13.369
88439W        W54870  27.585   0.435  14.109
88440W        W54871  31.586  36.263  12.384
88441W        W54872  29.874  21.551   2.301
88442W        W54873  19.719  13.682   2.209
88443W        W54874  20.963  30.102   3.754
88444W        W54875  39.563  20.756  12.604
88445W        W54876  24.765  22.477   1.143
88446W        W54877  42.293  23.171   3.321
88447W        W54878  28.050  21.719  12.840
88448W        W54879  30.567  22.026  10.460
88449W        W54880  16.695  13.344  11.043
88450W        W54881   8.011  18.681   3.722
88451W        W54882  36.333  18.927   0.505
88452W        W54883   7.972  40.915   0.249
88453W        W54884   6.955  32.576  12.957
88454W        W54885  20.177  23.993   3.313
88455W        W54886   3.830  43.188  11.538
88456W        W54887  39.111   1.775   2.718
88457W        W54888   7.699   3.214   0.073
88458W        W54889  10.165  11.081  11.452
88459W        W54890  31.071  26.977   1.612
88460W        W54891  18.330  13.227  10.280
88461W        W54892  38.767  35.335   3.657
88462W        W54893  32.051  41.719   0.373
88463W        W54894  16.261  27.095   0.701
88464W        W54895  38.319   3.229  13.749
88465W        W54896  39.625  18.307  14.799
88466W        W54897  21.781  42.883  10.148
88467W        W54898  40.286   0.284  10.790
88468W        W54899  14.308  28.906  12.892
88469W        W54900  24.866   1.258   4.028
88470W        W54901  14.820  32.878  11.968
88471W        W54902  37.332  41.546   3.632
88472W        W54903  16.135   4.338   0.552
88473W        W54904   8.847  44.249  14.028
88474W        W54905  15.749  12.431  14.611
88475W        W54906  37.787  42.059  13.957
88476W        W54907  26.218   2.867  12.114
88477W        W54908  30.496   6.123   3.202
88478W        W54909   3.290  32.908   2.772
88479W        W54910   4.784  14.392  11.647
88480W        W54911  40.591  35.440  14.355
88481W        W54912  29.720   9.384   1.792
88482W        W54913  38.024   1.956   3.910
88483W        W54914   6.662  14.535  11.109
88484W        W54915  30.957  22.664   3.525
88485W        W54916  42.804  43.779   3.851
88486W        W54917  14.514   7.296  10.837
88487W        W54918  30.204  28.985  14.016
88488W        W54919  30.829  26.086   1.657
88489W        W54920  29.522  21.494  13.020
88490W        W54921  44.487  44.141   1.843
88491W        W54922  10.603  21.812  13.914
88492W        W54923  35.577  35.146  12.540
88493W        W54924  35.067   1.709   2.253
88494W        W54925  39.392  27.659   3.554
88495W        W54926   3.167  37.292   1.244
88496W        W54927  15.968   1.496  10.551
88497W        W54928   8.820  44.351   2.675
88498W        W54929  34.544  36.644  11.405
88499W        W54930   4.877  33.496   0.940
88500W        W54931  21.804  22.004  10.760
88501W        W54932  43.066   8.059   0.500
88502W        W54933  25.964  32.451  12.031
88503W        W54934  10.401  14.174   0.651
88504W        W54935  16.949   6.357  11.151
88505W        W54936  43.376   1.381   1.316
88506W        W54937  37.091  33.157  10.123
88507W        W54938  44.579  38.717   3.588
88508W        W54939  12.931  10.793  10.716
88509W        W54940   5.826  15.938  12.121
88510W        W54941  21.623  18.099   0.001
88511W        W54942  23.422   4.254   1.805
88512W        W54943  40.577  42.601   2.350
88513W        W54944  12.132   3.373  11.976
88514W        W54945   9.424  10.059  10.072
88515W        W54946  22.983  21.715   0.693
88516W        W54947  42.566  34.814   0.153
88517W        W54948  44.597  42.224   1.701
88518W        W54949  14.124   6.890   1.407
88519W        W54950   1.923   6.831   3.424
88520W        W54951  44.414  25.975   0.855
88521W        W54952   8.825  31.431   3.305
88522W        W54953   5.018   7.458   4.250
88523W        W54954   8.275  11.750  12.443
88524W        W54955   1.416  10.155  12.193
88525W        W54956   8.737  31.954   3.255
88526W        W54957  42.485   1.799   3.267
88527W        W54958  27.254   2.516  11.409
88528W        W54959  34.827  21.507  12.964
88529W        W54960  36.432  36.680   1.694
88530W        W54961  19.114  34.878   1.817
88531W        W54962  18.110  21.597   2.860
88532W        W54963  12.641  12.159   4.768
88533W        W54964   3.759  42.695  11.544
88534W        W54965  15.898  28.042   0.747
88535W        W54966  30.242  24.524   1.027
88536W        W54967  13.139  31.130  14.541
88537W        W54968  43.397  44.781   2.272
88538W        W54969  44.573  14.722   1.888
88539W        W54970   4.394   0.546  13.062
88540W        W54971  30.403  36.483   3.574
88541W        W54972  24.020   8.643  14.927
88542W        W54973  25.839  42.449  12.432
88543W        W54974  10.226  25.352  12.612
88544W        W54975   7.075  33.562   3.216
88545W        W54976   6.336  38.379  12.183
88546W        W54977   7.203   2.299  13.807
88547W        W54978  32.584   3.418  13.389
88548W        W54979  12.191  10.474   4.864
88549W        W54980  33.825   7.911  14.857
88550W        W54981  26.927  12.311   1.238
88551W        W54982  26.042  24.711  11.607
88552W        W54983  26.444  12.258   2.781
88553W        W54984  39.603  31.161  11.036
88554W        W54985  17.668  36.278   0.356
88555W        W54986  23.085  26.202  11.534
88556W        W54987   4.777  18.959   0.383
88557W        W54988  16.512  30.638  11.107
88558W        W54989  13.831   2.997  11.964
88559W        W54990  44.375   7.468   1.527
88560W        W54991  10.355  26.636  12.347
88561W        W54992  27.928   6.662   2.308
88562W        W54993   0.004  22.478  11.707
88563W        W54994  41.314   4.300   2.816
88564W        W54995  31.849   6.732   2.665
88565W        W54996  14.156  25.645   0.396
88566W        W54997  30.717  10.411   0.783
88567W        W54998  41.761  12.307   3.645
88568W        W54999  20.183  14.153   0.448
88569W        W55000  17.708  25.187   4.572
88570W        W55001  37.299  30.963  13.035
88571W        W55002  10.806  16.192   2.379
88572W        W55003  15.836  16.822   1.505
88573W        W55004  41.733  25.680   1.491
88574W        W55005   0.986  18.726  11.680
88575W        W55006   1.832  28.820  11.694
88576W        W55007  12.095  43.744   2.716
88577W        W55008   8.936  24.282   4.664
88578W        W55009   5.899  32.583   4.346
88579W        W55010  18.227  23.153   4.554
88580W        W55011  35.295  29.558  10.672
88581W        W55012  39.065  41.717  14.916
88582W        W55013  23.701  37.576  14.835
88583W        W55014  43.005  13.633   1.785
88584W        W55015   0.132  23.243  12.984
88585W        W55016  15.970  15.383  12.107
88586W        W55017  10.578  25.003   1.148
88587W        W55018  20.312   4.947   4.142
88588W        W55019  28.245   0.760   1.184
88589W        W55020  26.345   4.447  12.482
88590W        W55021  14.546  39.722  13.753
88591W        W55022  24.505  26.443   2.270
88592W        W55023  11.449  10.914   1.385
88593W        W55024   6.757  30.967   3.749
88594W        W55025  22.749   7.678  10.744
88595W        W55026   5.415  41.330   2.654
88596W        W55027  29.465   5.762   2.152
88597W        W55028   4.659  38.379   0.729
88598W        W55029   7.475  23.466  13.519
88599W        W55030  20.276  10.840  14.854
88600W        W55031  36.314  22.525   1.202
88601W        W55032  39.235   5.282   0.084
88602W        W55033   5.838  26.481  13.938
88603W        W55034   5.053  27.147  13.416
88604W        W55035  23.111   9.929  14.290
88605W        W55036  36.628  30.022   1.293
88606W        W55037  44.865  14.371   2.298
88607W        W55038  20.304  13.576   3.924
88608W        W55039  12.440   0.943   4.157
88609W        W55040  43.524   0.415  13.326
88610W        W55041   3.992  35.468  12.081
88611W        W55042  35.815  44.347   4.165
88612W        W55043  43.025  29.460  11.148
88613W        W55044   5.460  16.527   2.568
88614W        W55045  28.466   5.997   0.062
88615W        W55046   7.745  14.983   1.696
88616W        W55047  11.587  19.409  11.044
88617W        W55048  18.239  38.156  14.924
88618W        W55049  15.456  43.870  13.031
88619W        W55050  28.781  36.811  13.081
88620W        W55051  28.934   2.263   0.430
88621W        W55052  21.580  33.373  11.787
88622W        W55053  11.735   9.607  14.886
88623W        W55054  39.562  37.770   4.205
88624W        W55055   7.514   8.400   1.280
88625W        W55056  40.518   4.836  11.192
88626W        W55057  28.002   0.454   4.056
88627W        W55058  30.066  38.401  11.207
88628W        W55059   0.292  32.079   3.203
88629W        W55060  43.850  12.235  12.321
88630W        W55061  41.791  15.997   0.845
88631W        W55062  42.148   9.239  13.931
88632W        W55063  39.084  29.446  14.250
88633W        W55064  28.555  17.822   0.375
88634W        W55065  44.555  36.465   4.784
88635W        W55066   2.529  23.445  13.794
88636W        W55067   5.475  12.445  12.123
88637W        W55068  10.427   6.519   4.261
88638W        W55069  43.337   1.172   1.902
88639W        W55070  12.237  27.053  13.440
88640W        W55071  22.661  11.960   4.577
88641W        W55072  22.118  26.692  14.034
88642W        W55073  11.862  24.950  10.289
88643W        W55074  43.248   2.174  11.988
88644W        W55075   7.286  20.129   3.563
88645W        W55076  15.879  42.879   3.396
88646W        W55077  13.394  40.927   2.727
88647W        W55078  25.647  14.172   4.439
88648W        W55079  19.262  33.480  14.222
88649W        W55080   9.233  22.541  12.204
88650W        W55081  40.431   0.009   4.358
88651W        W55082  26.450   2.036   2.215
88652W        W55083   5.551  18.710  12.915
88653W        W55084  40.998  37.905  13.451
88654W        W55085  13.172  39.387  12.549
88655W        W55086   3.336  33.366  10.875
88656W        W55087  38.426   0.983  12.027
88657W        W55088   8.302  33.539   0.475
88658W        W55089  26.884  22.489  11.388
88659W        W55090   7.595   7.748  12.613
88660W        W55091  31.576  32.851   4.135
88661W        W55092  33.368  36.059   1.222
88662W        W55093   9.807  12.402  11.350
88663W        W55094   3.935   2.426   0.045
88664W        W55095  35.564  38.464  14.780
88665W        W55096  23.173  44.414  13.499
88666W        W55097  15.212  14.275   5.094
88667W        W55098   7.376  24.702   0.445
88668W        W55099  35.499  18.372   2.170
88669W        W55100  13.641  13.116  11.617
88670W        W55101  25.382  22.188  13.400
88671W        W55102  27.126  34.542  10.406
88672W        W55103  23.533   1.848   0.327
88673W        W55104  11.612  22.972   4.250
88674W        W55105   9.256   3.781  13.709
88675W        W55106   5.847  17.542   0.396
88676W        W55107   7.272  40.351   4.053
88677W        W55108  44.480  30.608   1.455
88678W        W55109  44.357   5.692   1.676
88679W        W55110  21.189  36.712   9.760
88680W        W55111  36.422  35.002   2.536
88681W        W55112   8.038   9.220  10.777
88682W        W55113   2.947  39.918   1.948
88683W        W55114  28.723  38.908  14.884
88684W        W55115   8.933  44.032   0.820
88685W        W55116  11.273   6.227   4.248
88686W        W55117  31.859  28.148  11.975
88687W        W55118  18.455  25.013  13.833
88688W        W55119  31.344  27.886   3.953
88689W        W55120  35.741  19.808   2.492
88690W        W55121   6.426  41.733  14.814
88691W        W55122  14.813  33.841  14.913
88692W        W55123  23.318  22.966   1.875
88693W        W55124  11.271  30.038  11.448
88694W        W55125   7.963  13.413  13.963
88695W        W55126  17.969  30.147   2.954
88696W        W55127  34.791   0.477   1.483
88697W        W55128  29.987  42.901  10.772
88698W        W55129   7.346   5.856  14.384
88699W        W55130  42.056  28.960  12.570
88700W        W55131  38.736  30.380   1.799
88701W        W55132  22.018  11.219   3.015
88702W        W55133  28.898   3.658  12.348
88703W        W55134  32.152  20.621   1.056
88704W        W55135  25.062  33.888   3.151
88705W        W55136  22.552   4.145  13.412
88706W        W55137  21.718   9.222  12.423
88707W        W55138  30.421  29.699  13.526
88708W        W55139   4.573  41.908   1.892
88709W        W55140  22.347   2.893  11.141
88710W        W55141  32.788   8.837   1.815
88711W        W55142   8.876  38.414   1.763
88712W        W55143  42.955   3.246   0.039
88713W        W55144  24.507  37.945  11.636
88714W        W55145   7.716  43.686  10.763
88715W        W55146   0.735  28.422  14.391
88716W        W55147   3.297  25.165   3.727
88717W        W55148  29.080   4.832   2.219
88718W        W55149   0.794  18.753  14.062
88719W        W55150  13.866   0.968  14.804
88720W        W55151  15.052  34.029  11.689
88721W        W55152  27.036   9.462   4.462
88722W        W55153   8.863  28.460  12.846
88723W        W55154  19.338   5.908  11.337
88724W        W55155  33.576  38.569   2.021
88725W        W55156  10.304  39.762  12.988
88726W        W55157  25.761  41.877  13.506
88727W        W55158  16.190   9.852  12.360
88728W        W55159  26.022  37.589  12.890
88729W        W55160  33.842  17.606   0.413
88730W        W55161   0.850  32.473  12.330
88731W        W55162   4.935  12.077   3.171
88732W        W55163  26.554  43.404  13.934
88733W        W55164  20.722  37.532  14.432
88734W        W55165  44.284  38.665  11.443
88735W        W55166  38.822   8.733   0.366
88736W        W55167   7.172  27.485  14.321
88737W        W55168  24.720  27.943  11.032
88738W        W55169  18.182  18.341  10.646
88739W        W55170  21.435  32.476  10.624
88740W        W55171  25.591  18.641  13.329
88741W        W55172   0.352  20.269  14.793
88742W        W55173  24.763  34.033   4.049
88743W        W55174   1.843  25.612   1.896
88744W        W55175  17.911   5.850   2.737
88745W        W55176  12.706  12.613  14.846
88746W        W55177  40.091  21.183   4.119
88747W        W55178  27.393   2.635   3.441
88748W        W55179  14.564  27.197  14.916
88749W        W55180  32.954  29.642   1.455
88750W        W55181   9.449  37.514   3.134
88751W        W55182  15.805  23.570  14.499
88752W        W55183   3.005   5.820   1.419
88753W        W55184  33.189  33.683  14.806
88754W        W55185  28.913   0.318  14.519
88755W        W55186  34.071  11.080   2.770
88756W        W55187  16.345  13.768  13.476
88757W        W55188  39.266  40.127   4.555
88758W        W55189   4.783  21.471  12.306
88759W        W55190   8.883  44.507   0.057
88760W        W55191   2.660  37.173   1.168
88761W        W55192   2.831   4.183   4.500
88762W        W55193  36.996   7.072  14.843
88763W        W55194  36.028  24.025  10.714
88764W        W55195   5.744   9.846   3.132
88765W        W55196  26.674   0.097   4.168
88766W        W55197  14.957  17.851  12.805
88767W        W55198  39.091  42.784   1.994
88768W        W55199  26.906  20.026   5.325
88769W        W55200  36.883  40.323  13.358
88770W        W55201  40.277  32.121   0.864
88771W        W55202  19.649  20.301  13.538
88772W        W55203  19.559  31.014  14.686
88773W        W55204   7.691  19.176  10.589
88774W        W55205  36.569   1.313  11.973
88775W        W55206   1.180  41.184   0.681
88776W        W55207  26.128  40.401   3.349
88777W        W55208  36.279  18.337   4.032
88778W        W55209  34.531  29.683  12.901
88779W        W55210  13.537  35.600   4.760
88780W        W55211  33.123  38.965  13.573
88781W        W55212   9.927  21.124  13.886
88782W        W55213  12.749  11.524   4.137
88783W        W55214  26.519  39.411  14.035
88784W        W55215  13.152  17.273  12.463
88785W        W55216  37.310  29.972   1.829
88786W        W55217  33.074  26.856  11.414
88787W        W55218   2.072  33.033  14.742
88788W        W55219  29.558   9.486  12.537
88789W        W55220  18.057  25.469   3.348
88790W        W55221  35.062   9.295  11.365
88791W        W55222  38.882  24.145   4.704
88792W        W55223   4.245  24.593   0.618
88793W        W55224  11.868  21.491   4.072
88794W        W55225  13.993  37.624  12.768
88795W        W55226   3.449  34.003  11.978
88796W        W55227  38.303  43.467   9.824
88797W        W55228   4.772   2.068   4.082
88798W        W55229  28.514  25.881  13.104
88799W        W55230  13.205   9.595   2.744
88800W        W55231  31.609  15.670  13.016
88801W        W55232  23.078  38.963  11.595
88802W        W55233  18.515  16.739  13.822
88803W        W55234  16.751  31.063   1.399
88804W        W55235  37.938  41.514   4.649
88805W        W55236  19.099  24.888   1.613
88806W        W55237  33.708  31.829   0.335
88807W        W55238  34.372   5.309  11.167
88808W        W55239   7.850  21.243  13.026
88809W        W55240  43.620  15.371  14.845
88810W        W55241  30.210  31.001   2.313
88811W        W55242  27.355  32.528   3.702
88812W        W55243  28.992  36.029  10.487
88813W        W55244   8.966  20.649   0.351
88814W        W55245  16.356  33.581  13.938
88815W        W55246   7.816   3.261  11.944
88816W        W55247  32.039  33.368  11.185
88817W        W55248   2.935  34.495   0.356
88818W        W55249   7.346  15.614   0.552
88819W        W55250  41.878  42.830   2.682
88820W        W55251  43.543  21.111   0.260
88821W        W55252   0.680  29.789   3.180
88822W        W55253  27.570   0.865  13.332
88823W        W55254  11.325   0.619  11.098
88824W        W55255   1.936   2.415  12.617
88825W        W55256  21.820  16.504  12.610
88826W        W55257  25.905  44.865   0.793
88827W        W55258  25.679  30.485   2.153
88828W        W55259  30.124  17.121  13.974
88829W        W55260  39.618  32.138  12.515
88830W        W55261  17.551  44.485   0.792
88831W        W55262  26.283  40.260  13.576
88832W        W55263  34.952  34.563   4.918
88833W        W55264   0.995  22.978  12.611
88834W        W55265  37.500  23.461  12.081
88835W        W55266  16.533   0.088  13.086
88836W        W55267  18.365  14.595  13.962
88837W        W55268  42.403  35.543   2.908
88838W        W55269  30.430  26.115   3.089
88839W        W55270   9.427  16.470   0.784
88840W        W55271  15.161  27.805  10.622
88841W        W55272  31.083  17.939   4.266
88842W        W55273   9.435  38.533  14.945
88843W        W55274  24.105  11.032  13.134
88844W        W55275  13.008  44.046   2.542
88845W        W55276  15.241  41.228  14.415
88846W        W55277  12.321   2.830  12.067
88847W        W55278  41.348   0.488  12.161
88848W        W55279  10.412   5.719  14.154
88849W        W55280   3.838   7.122   3.140
88850W        W55281  33.239  33.720   1.274
88851W        W55282  14.812  39.377   3.134
88852W        W55283  27.176  15.364   3.627
88853W        W55284  28.212  12.157  12.909
88854W        W55285  22.460   6.240   3.338
88855W        W55286  38.532  22.930   1.626
88856W        W55287  36.953  25.539  11.779
88857W        W55288  37.876   4.444   2.821
88858W        W55289  26.572  15.497  10.686
88859W        W55290   9.648  31.160   4.133
88860W        W55291   0.313  14.079   2.318
88861W        W55292   8.614  44.027   3.619
88862W        W55293   4.402  16.866   3.677
88863W        W55294  37.070   5.675   1.326
88864W        W55295  14.440   2.871   1.443
88865W        W55296  20.270  23.525  13.158
88866W        W55297  23.759  18.053  11.138
88867W        W55298   8.565  31.593   4.920
88868W        W55299   6.956   0.445  12.143
88869W        W55300   6.949  36.822  13.497
88870W        W55301  38.787  28.268  11.981
88871W        W55302  22.296  19.635  14.790
88872W        W55303  23.808  22.581   2.305
88873W        W55304   6.781  32.886   4.813
88874W        W55305  15.384  24.197   1.804
88875W        W55306  32.223   0.906   2.895
88876W        W55307   1.476  34.531   2.831
88877W        W55308   8.521   8.538   4.788
88878W        W55309  21.238  11.209  13.473
88879W        W55310   6.427  13.628   2.033
88880W        W55311  41.545  39.892   1.918
88881W        W55312   5.728  18.419   1.393
88882W        W55313  18.557  40.037  11.520
88883W        W55314   6.708   4.144   4.615
88884W        W55315   4.227  21.121   0.465
88885W        W55316  29.924  26.502   5.071
88886W        W55317   1.136   6.740  11.928
88887W        W55318  16.039  17.396   4.054
88888W        W55319   7.358   3.285  14.188
88889W        W55320  18.174  16.789  13.457
88890W        W55321  16.010  23.273   2.777
88891W        W55322  41.001   7.786  14.953
88892W        W55323   3.838   8.975   4.972
88893W        W55324  32.863  35.806   3.834
88894W        W55325  23.463  14.829  13.248
88895W        W55326  23.136  26.262   0.461
88896W        W55327  35.910   6.446   2.236
88897W        W55328  37.028  38.489  12.504
88898W        W55329   5.245  37.756  13.713
88899W        W55330  12.154  40.245  14.294
88900W        W55331  21.081  22.700   4.726
88901W        W55332  25.267   6.873  13.946
88902W        W55333  14.517  42.940  13.580
88903W        W55334   2.186  14.871   0.926
88904W        W55335  39.179  34.414  12.807
88905W        W55336  41.912  33.623   5.033
88906W        W55337  16.603  34.134   3.220
88907W        W55338  19.576  40.987  14.243
88908W        W55339  30.737  20.575  12.024
88909W        W55340   0.656  18.460  13.150
88910W        W55341  11.502   2.508  11.956
88911W        W55342  13.281  23.920  13.329
88912W        W55343  44.895  18.279  11.558
88913W        W55344  11.242  11.973  11.682
88914W        W55345  38.011  42.084  14.433
88915W        W55346  25.662  13.373  11.212
88916W        W55347  28.892  28.026   1.840
88917W        W55348   6.259  27.954  14.563
88918W        W55349  33.448  25.956  12.984
88919W        W55350   8.327  11.632   3.240
88920W        W55351  18.380  18.679   2.701
88921W        W55352   1.341  33.439  10.206
88922W        W55353   5.328   7.851   2.411
88923W        W55354  30.071  36.875   3.667
88924W        W55355  14.922  28.166  11.085
88925W        W55356   1.240   5.895  11.661
88926W        W55357   0.075  14.293   4.584
88927W        W55358  10.338  35.481  14.064
88928W        W55359  40.152  13.156  11.615
88929W        W55360  43.603  15.025  11.627
88930W        W55361  22.574  44.501  12.346
88931W        W55362   0.555   6.358  11.275
88932W        W55363  30.712  15.137   3.354
88933W        W55364  34.457   9.445   0.050
88934W        W55365  10.173  17.134   0.268
88935W        W55366  23.169  12.703  14.476
88936W        W55367   4.404  39.338  12.728
88937W        W55368  37.586  29.847  13.076
88938W        W55369  36.107  12.873   1.803
88939W        W55370  42.421  21.979  11.634
88940W        W55371  42.740  37.565   5.061
88941W        W55372  14.320  17.301   1.599
88942W        W55373  11.647  10.693   1.804
88943W        W55374   8.826  15.634  11.222
88944W        W55375  39.128  42.806   4.626
88945W        W55376  21.956  30.990  14.409
88946W        W55377  37.826   3.326   4.804
88947W        W55378  31.329  42.321   0.834
88948W        W55379  38.642  22.576  11.115
88949W        W55380   2.744  19.818  10.676
88950W        W55381  15.774  29.268  13.828
88951W        W55382  33.479  34.961  10.886
88952W        W55383  12.584  10.910   0.788
88953W        W55384  36.812  30.128   1.765
88954W        W55385   8.308  10.436  13.564
88955W        W55386  27.191  36.597   0.818
88956W        W55387   4.661   3.902   2.800
88957W        W55388  17.008  27.552   2.754
88958W        W55389   0.523  18.315   3.958
88959W        W55390  22.940  22.096  14.309
88960W        W55391  26.423  30.587   4.990
88961W        W55392  27.716  14.075  12.990
88962W        W55393  10.267  30.967  10.089
88963W        W55394   5.236  18.577  14.651
88964W        W55395  35.089  21.057  12.113
88965W        W55396   3.760  29.191   0.186
88966W        W55397  27.603  34.419   4.828
88967W        W55398  32.117  19.420   4.237
88968W        W55399  34.096  37.851  14.977
88969W        W55400  24.502  29.609   2.819
88970W        W55401  40.107  31.038  14.597
88971W        W55402  30.329  21.621  12.020
88972W        W55403   4.772  18.438   0.388
88973W        W55404  10.509  27.092  12.075
88974W        W55405  40.130  32.902  11.045
88975W        W55406  23.947  10.762  11.597
88976W        W55407  28.919  42.388  13.314
88977W        W55408  33.604  44.240  11.246
88978W        W55409  16.637  10.870   0.113
88979W        W55410  40.694  41.852  14.296
88980W        W55411   2.863  32.112  12.395
88981W        W55412  31.203  39.368   2.816
88982W        W55413   7.866  30.127  14.453
88983W        W55414  32.168  39.794   4.675
88984W        W55415  16.231  14.160   3.486
88985W        W55416  32.199  38.937   1.810
88986W        W55417   3.464   9.892  13.124
88987W        W55418  10.364  22.635   4.203
88988W        W55419  43.502  38.483  10.931
88989W        W55420  10.753  18.977   2.175
88990W        W55421   8.734  31.163  13.911
88991W        W55422  17.197  33.591  13.462
88992W        W55423  17.075  30.500   4.408
88993W        W55424  44.040  38.970  13.874
88994W        W55425  40.024  11.110   4.465
88995W        W55426  24.235  28.116   5.590
88996W        W55427   7.221  43.419  12.810
88997W        W55428  29.068  31.838  12.018
88998W        W55429  19.534  22.993  10.793
88999W        W55430  27.574  37.019  12.516
89000W        W55431   2.759  28.582  14.040
89001W        W55432   6.259  12.870  13.518
89002W        W55433   0.368  12.610   4.392
89003W        W55434  35.515  22.895  12.551
89004W        W55435  34.395  16.712   3.747
89005W        W55436  39.786  31.664   5.555
89006W        W55437  32.398   1.856  12.119
89007W        W55438   8.293   9.203  12.512
89008W        W55439   6.358  41.855   1.405
89009W        W55440   8.105  22.068  10.162
89010W        W55441  34.383   6.180  11.974
89011W        W55442  27.959   3.626   3.578
89012W        W55443  14.730  12.764  13.492
89013W        W55444  15.787  28.161  13.273
89014W        W55445  25.421  15.773   3.273
89015W        W55446   0.971  14.668  11.632
89016W        W55447  12.504  38.051  14.345
89017W        W55448  17.415  30.636  14.768
89018W        W55449   3.514  41.434   2.332
89019W        W55450  14.564   3.751  12.092
89020W        W55451  30.389  17.127  12.143
89021W        W55452  14.720  30.089  14.375
89022W        W55453  26.674  35.547   3.672
89023W        W55454  11.813  28.380   2.475
89024W        W55455   1.970  25.209  11.179
89025W        W55456  33.990  36.148   0.745
89026W        W55457  27.494  17.778  10.766
89027W        W55458  37.900   9.750  10.763
89028W        W55459   0.847  33.388   2.450
89029W        W55460  16.083  17.715  10.490
89030W        W55461  19.967   1.490  13.704
89031W        W55462  38.321  37.085   1.625
89032W        W55463   1.776   1.512   3.657
89033W        W55464  36.822  37.436   4.664
89034W        W55465  17.398  30.419   1.793
89035W        W55466  44.523  44.035   3.960
89036W        W55467  21.720  37.750  11.989
89037W        W55468   9.627  39.028  14.863
89038W        W55469  30.135  17.970  12.583
89039W        W55470   7.359  31.573   1.393
89040W        W55471  37.518  21.563   2.329
89041W        W55472  43.415   2.786  13.364
89042W        W55473  36.304  17.692   1.838
89043W        W55474  33.910  15.929  11.630
89044W        W55475   5.700  27.691  13.434
89045W        W55476  29.125  14.911   3.289
89046W        W55477  25.897  22.734   2.195
89047W        W55478  32.079   2.998   2.713
89048W        W55479  16.301  27.805  11.146
89049W        W55480   4.645  40.521  11.186
89050W        W55481  11.820   8.061  13.929
89051W        W55482   1.267   6.781  13.952
89052W        W55483  30.518  32.933  13.842
89053W        W55484  11.237  33.574  13.837
89054W        W55485   8.763  19.390   2.870
89055W        W55486  14.654  24.970  13.991
89056W        W55487  29.915   2.485  14.502
89057W        W55488  17.853  41.767  13.368
89058W        W55489  25.705  20.350  11.183
89059W        W55490  41.487  10.746  12.403
89060W        W55491  10.188  40.706   0.077
89061W        W55492  33.464   7.754   3.379
89062W        W55493   2.279  30.207   0.354
89063W        W55494  42.513  34.891  12.182
89064W        W55495  19.480  39.427  11.338
89065W        W55496  39.899  41.562  12.786
89066W        W55497  39.183  34.607  10.492
89067W        W55498  22.566   7.514   3.065
89068W        W55499   8.220  27.648  10.888
89069W        W55500  13.858  25.576   2.388
89070W        W55501  24.660  25.108   0.985
89071W        W55502  23.772  37.934   4.282
89072W        W55503   3.459   5.734  12.546
89073W        W55504  19.487   3.991   1.370
89074W        W55505  28.585   4.995   2.203
89075W        W55506  36.950   7.389  14.426
89076W        W55507  27.441  27.074   4.525
89077W        W55508  30.538  18.328   3.223
89078W        W55509  39.499   5.244  12.592
89079W        W55510  15.129   8.618  10.599
89080W        W55511  25.196  28.823   3.651
89081W        W55512  14.578  42.440   0.276
89082W        W55513  12.076   8.267  14.964
89083W        W55514  14.741  17.476  14.942
89084W        W55515   3.547   0.339   3.910
89085W        W55516   1.140  23.155   2.819
89086W        W55517  38.405  23.989  12.120
89087W        W55518  34.618  28.476   0.947
89088W        W55519   2.839  28.585  12.121
89089W        W55520  28.639   8.692   3.415
89090W        W55521  28.978  19.507   2.808
89091W        W55522  18.443   4.045  10.671
89092W        W55523  18.503  11.363  14.317
89093W        W55524  25.183   9.940   0.558
89094W        W55525   7.753  35.970  11.557
89095W        W55526  31.956  10.297   3.057
89096W        W55527  43.461   2.286   3.590
89097W        W55528  42.490  31.675   0.408
89098W        W55529   6.148  35.533   0.441
89099W        W55530  37.048   3.369  12.486
89100W        W55531  34.140  36.509   1.115
89101W        W55532  40.492  23.907   2.182
89102W        W55533  37.107   2.402   0.947
89103W        W55534  17.332  36.386  11.125
89104W        W55535   2.118  12.684  12.055
89105W        W55536  29.415   7.874   0.517
89106W        W55537  39.010  19.052   1.687
89107W        W55538  40.000  22.074  12.467
89108W        W55539   0.537  27.966   1.755
89109W        W55540   2.350  42.290   3.365
89110W        W55541  42.844  33.123  14.490
89111W        W55542  30.584  44.905   2.638
89112W        W55543  15.274  30.456   2.961
89113W        W55544   4.703  42.952  12.484
89114W        W55545  42.372  32.399   1.248
89115W        W55546  12.297  27.724  11.678
89116W        W55547  13.515  25.209  10.297
89117W        W55548  32.071  15.077   3.869
89118W        W55549  33.101  43.524  11.159
89119W        W55550  15.722  22.693   3.688
89120W        W55551   7.274  24.222   4.406
89121W        W55552  37.791  19.696   1.985
89122W        W55553  24.449   8.019   1.446
89123W        W55554   1.143  43.398  12.732
89124W        W55555  27.695  39.141  10.545
89125W        W55556   3.427  15.822   2.318
89126W        W55557  30.598  43.259  11.903
89127W        W55558  34.497  18.832   4.096
89128W        W55559   1.278  26.343  12.205
89129W        W55560  17.506  12.888  13.895
89130W        W55561  21.138  39.440  11.593
89131W        W55562  20.095  17.521  12.654
89132W        W55563  39.829  14.248  14.644
89133W        W55564   7.391  32.243   2.365
89134W        W55565  14.416  11.354  10.258
89135W        W55566  20.469  28.726   1.931
89136W        W55567   8.706  23.113  14.123
89137W        W55568  17.870  12.809  12.091
89138W        W55569  32.403   4.135   3.375
89139W        W55570  21.668  33.302   4.926
89140W        W55571  12.757   4.052  10.189
89141W        W55572  15.860  19.954  12.072
89142W        W55573  37.345   8.695  12.423
89143W        W55574  39.632  44.653  13.894
89144W        W55575  44.222  26.568   4.912
89145W        W55576   4.227   5.190  13.493
89146W        W55577   7.045  34.889   4.269
89147W        W55578   3.004  15.657   4.598
89148W        W55579  39.394   2.952   0.244
89149W        W55580   8.928  28.399   2.387
89150W        W55581  40.497   2.739   3.623
89151W        W55582  29.805  40.906   1.782
89152W        W55583  19.908  42.987   2.928
89153W        W55584  26.199  10.304   4.305
89154W        W55585  40.577  36.141   3.674
89155W        W55586  29.081  21.007   2.546
89156W        W55587  33.997  36.811   1.636
89157W        W55588   3.820  12.603   1.771
89158W        W55589  22.739  30.404   1.008
89159W        W55590  20.616  17.647  13.562
89160W        W55591  10.762  36.827  14.706
89161W        W55592  14.654  29.156  13.260
89162W        W55593  18.719  44.747  14.930
89163W        W55594  25.637   2.458   1.349
89164W        W55595  23.497  40.945   2.713
89165W        W55596   9.950  36.112   4.065
89166W        W55597   4.428  10.845  11.611
89167W        W55598  15.561  18.579   4.559
89168W        W55599  40.997  24.520  11.210
89169W        W55600  33.436   1.807   3.789
89170W        W55601  44.443   1.181   3.844
89171W        W55602  25.117  23.823  11.612
89172W        W55603  16.597  32.097   3.354
89173W        W55604  24.183  32.675   3.259
89174W        W55605   0.215   5.740   3.827
89175W        W55606  22.562  18.650   2.524
89176W        W55607  18.727   8.836   1.025
89177W        W55608  43.902  21.689   2.768
89178W        W55609   2.652  29.466   4.585
89179W        W55610   2.996  31.705  13.633
89180W        W55611  32.647  29.885  11.539
89181W        W55612  19.622  30.532  13.438
89182W        W55613   7.864  18.200   4.202
89183W        W55614  41.944  23.061   4.638
89184W        W55615  44.921  40.577   1.162
89185W        W55616   4.516   4.924  14.854
89186W        W55617  40.647  42.876  14.753
89187W        W55618  20.359  34.484  14.390
89188W        W55619   6.188  22.183  13.113
89189W        W55620   1.448   9.363  12.578
89190W        W55621  42.994   1.325  14.310
89191W        W55622  33.855  35.568   2.297
89192W        W55623  36.747  12.345   1.159
89193W        W55624  29.106  25.364   1.025
89194W        W55625  35.952  23.614  11.634
89195W        W55626  33.395  13.184  13.939
89196W        W55627  13.555  26.402  12.496
89197W        W55628  28.125  40.570  12.510
89198W        W55629  10.803  11.437   3.328
89199W        W55630   9.321  25.082  13.302
89200W        W55631  40.399  32.379  12.985
89201W        W55632  13.253   8.288   3.283
89202W        W55633   2.200  24.159  10.503
89203W        W55634  16.919   2.970  10.255
89204W        W55635  22.410  38.938  13.409
89205W        W55636  33.970  22.811  12.141
89206W        W55637   5.781  31.257   4.165
89207W        W55638  32.822  19.630  11.867
89208W        W55639  35.177  15.805   1.586
89209W        W55640  28.526  30.969   3.708
89210W        W55641  37.775  36.365   4.403
89211W        W55642  24.477  29.565   3.342
89212W        W55643  41.572  18.511  12.906
89213W        W55644  35.154  21.122  14.044
89214W        W55645  31.983  25.814  10.828
89215W        W55646  36.436  20.758  11.500
89216W        W55647  44.834   5.504  12.141
89217W        W55648  38.575  35.443   0.459
89218W        W55649   7.417  10.301  10.731
89219W        W55650  28.565  20.745   2.726
89220W        W55651  20.302  26.607  12.991
89221W        W55652  42.308  17.082  10.787
89222W        W55653  17.524  10.171  10.220
89223W        W55654   8.328  37.449   2.782
89224W        W55655  28.052  14.758   3.772
89225W        W55656  32.207   6.447   9.672
89226W        W55657  15.748   5.221   1.839
89227W        W55658  42.886  19.042   4.138
89228W        W55659  28.640   6.081   2.006
89229W        W55660   8.225  34.028   3.410
89230W        W55661  34.466   6.708  12.045
89231W        W55662  34.777  38.492   4.129
89232W        W55663  41.454  13.910   4.176
89233W        W55664  17.741  20.735  11.463
89234W        W55665  42.007  28.545  14.296
89235W        W55666  28.390   1.026   3.711
89236W        W55667  25.611  20.511   0.759
89237W        W55668  32.952  27.100  14.272
89238W        W55669  23.116  10.139   4.566
89239W        W55670  41.318  12.937   0.712
89240W        W55671   1.271  10.404  10.665
89241W        W55672  18.627  18.716  13.395
89242W        W55673  31.119  10.390   1.791
89243W        W55674  24.836  22.962   1.893
89244W        W55675   4.683   3.442   2.047
89245W        W55676   4.490  24.091   4.354
89246W        W55677   6.357  32.515  10.642
89247W        W55678  14.328  23.209  13.492
89248W        W55679  16.279  32.454   3.693
89249W        W55680  17.993  43.234   0.872
89250W        W55681  42.843  37.392   1.257
89251W        W55682   6.342  32.036  12.398
89252W        W55683   3.668   2.218   5.032
89253W        W55684  10.206  40.719   3.811
89254W        W55685   8.082  10.306   4.331
89255W        W55686  26.466   0.877   4.640
89256W        W55687  20.492   3.467   3.364
89257W        W55688  20.454  13.249  10.261
89258W        W55689   8.760  10.694  10.906
89259W        W55690   3.851  14.237  13.857
89260W        W55691  14.483  22.190  14.488
89261W        W55692  14.283   8.840  10.916
89262W        W55693  31.652  21.160  11.174
89263W        W55694  17.106  19.578  11.053
89264W        W55695  43.868  13.600  13.749
89265W        W55696  29.609  39.881  13.238
89266W        W55697   2.942  39.002   3.239
89267W        W55698  34.090  12.759   3.483
89268W        W55699  11.344  24.697   0.822
89269W        W55700  25.524  37.913  10.607
89270W        W55701  19.602   2.029  11.391
89271W        W55702  33.442  12.994  11.719
89272W        W55703   8.932   5.943   1.976
89273W        W55704   1.874  15.128   2.717
89274W        W55705   1.951  16.306  11.383
89275W        W55706   5.661  12.577   1.293
89276W        W55707  22.716  10.005  11.337
89277W        W55708  44.299   5.512  12.141
89278W        W55709  12.509  30.897  11.014
89279W        W55710  21.343  15.334  10.717
89280W        W55711   3.148  16.150   4.544
89281W        W55712  32.706  25.102   1.229
89282W        W55713  12.354  36.598  12.072
89283W        W55714   9.180  39.372  13.333
89284W        W55715  27.570  30.922   2.899
89285W        W55716  12.140  14.542   2.614
89286W        W55717  20.585  24.907  14.831
89287W        W55718   2.233  29.417   1.385
89288W        W55719  39.401  43.472   4.175
89289W        W55720  29.021   1.743   0.339
89290W        W55721   6.874  22.764  11.577
89291W        W55722  20.353  36.546  10.845
89292W        W55723  26.604  39.367   4.109
89293W        W55724  12.925  20.161  13.089
89294W        W55725  25.655   4.458   5.474
89295W        W55726  15.598  37.251  11.838
89296W        W55727   3.653  20.662   1.921
89297W        W55728  15.775  14.784  13.804
89298W        W55729  24.718   8.683   3.694
89299W        W55730   1.405  24.990   2.797
89300W        W55731   7.782   2.102   4.912
89301W        W55732  44.429   8.634  11.449
89302W        W55733  19.510  24.115   3.567
89303W        W55734  21.596  21.723   1.794
89304W        W55735  43.428  41.535   5.236
89305W        W55736  33.999   7.104  14.398
89306W        W55737  41.760  24.509  13.215
89307W        W55738  42.437   4.495   4.600
89308W        W55739  43.780  32.362  14.319
89309W        W55740  11.303  35.678   0.275
89310W        W55741  40.699  36.537   3.358
89311W        W55742  17.193  15.257   3.806
89312W        W55743  25.266  14.794   4.933
89313W        W55744  34.897  10.249  11.555
89314W        W55745   9.832   0.704   0.238
89315W        W55746   3.313  44.941   0.973
89316W        W55747  36.566  32.628  11.721
89317W        W55748  21.718  14.141  10.641
89318W        W55749  25.888  42.399  13.446
89319W        W55750  31.194  10.218  10.328
89320W        W55751  14.705  44.459   1.730
89321W        W55752  15.973  43.955  13.304
89322W        W55753  21.246  17.003  13.360
89323W        W55754  22.677  44.860   2.526
89324W        W55755  44.295   5.426   0.313
89325W        W55756  17.197  43.321  12.130
89326W        W55757  32.973  35.127  12.107
89327W        W55758  33.297  34.637  13.933
89328W        W55759  18.514  36.218   2.767
89329W        W55760  11.273   2.667   2.958
89330W        W55761  37.016  27.051  10.775
89331W        W55762  12.634   4.917   0.163
89332W        W55763  39.436  24.677   0.691
89333W        W55764  15.485  10.836   2.977
89334W        W55765   5.402  22.185  13.520
89335W        W55766  18.115  25.492   5.367
89336W        W55767   0.913   0.085   3.982
89337W        W55768   4.341  30.894   3.374
89338W        W55769  39.018  14.146  13.350
89339W        W55770  22.673  26.682  12.874
89340W        W55771  27.106   4.529   2.844
89341W        W55772   2.418  10.365  14.457
89342W        W55773  17.628  41.347  10.683
89343W        W55774   1.948  39.931  14.392
89344W        W55775  27.662  13.788  14.237
89345W        W55776  33.838  15.672   4.914
89346W        W55777  32.054  17.004  13.919
89347W        W55778  38.657  19.096  12.970
89348W        W55779  11.595   9.716   2.422
89349W        W55780   6.458  26.133   2.698
89350W        W55781  13.452  33.475   1.773
89351W        W55782  39.808  24.198   3.280
89352W        W55783  42.802  32.386   4.686
89353W        W55784  27.207  14.542  12.379
89354W        W55785   2.461  34.062  14.553
89355W        W55786  11.235  17.683  13.889
89356W        W55787   1.372  20.276  14.820
89357W        W55788  32.713  16.881   0.266
89358W        W55789  17.201  22.574  11.864
89359W        W55790  33.446  10.846   1.882
89360W        W55791  28.156   1.312  10.641
89361W        W55792  38.304  33.392  14.966
89362W        W55793   6.483  14.809   2.303
89363W        W55794  23.882   3.186   1.518
89364W        W55795   8.810   7.234   0.202
89365W        W55796  25.835  26.061   2.188
89366W        W55797   1.871   6.581   3.888
89367W        W55798  41.902  18.327   0.225
89368W        W55799  25.144   1.319   4.464
89369W        W55800  35.399  24.114   2.340
89370W        W55801  21.586  30.896  12.161
89371W        W55802  44.881  25.912  10.601
89372W        W55803  14.036  19.557  13.761
89373W        W55804  21.468  24.314  12.691
89374W        W55805  30.269   6.059  13.291
89375W        W55806  35.561  16.619   1.366
89376W        W55807  43.491  40.851  14.479
89377W        W55808  31.358   3.016  10.657
89378W        W55809  23.819  32.353   3.045
89379W        W55810  34.802   1.821   4.001
89380W        W55811  21.463   7.246  14.536
89381W        W55812  29.489  28.014   3.176
89382W        W55813  44.271  25.487  14.380
89383W        W55814  21.153  32.642   2.853
89384W        W55815   6.840  22.000  10.433
89385W        W55816  44.354  38.146   0.791
89386W        W55817  22.960  34.115  12.043
89387W        W55818  27.458  42.856  14.847
89388W        W55819   7.743   7.668   1.419
89389W        W55820  10.799  18.788   4.587
89390W        W55821   3.233  41.538  14.421
89391W        W55822  41.841  30.442  13.436
89392W        W55823  13.132  28.394   4.980
89393W        W55824  36.529  26.265   2.632
89394W        W55825  31.504  39.597  11.076
89395W        W55826  11.269  26.709  12.617
89396W        W55827  10.419  37.091   3.536
89397W        W55828   5.212  17.724  11.675
89398W        W55829  41.342  37.651  14.300
89399W        W55830  43.809  32.146  10.963
89400W        W55831  26.140  29.287   2.294
89401W        W55832  31.997  23.594   0.197
89402W        W55833   2.483  24.778  11.199
89403W        W55834  18.718  20.455   3.178
89404W        W55835  38.618  40.137   3.720
89405W        W55836   9.888  19.791   1.324
89406W        W55837  29.891  32.005  12.986
89407W        W55838  21.257  33.383   4.132
89408W        W55839  23.288  14.957  11.956
89409W        W55840  10.077  42.671  11.132
89410W        W55841  11.085  21.685   3.073
89411W        W55842  38.539  36.130   3.784
89412W        W55843  31.481   7.986   2.792
89413W        W55844  38.757   1.297   1.828
89414W        W55845  24.991  10.350   4.948
89415W        W55846   4.207  34.569   2.600
89416W        W55847  10.264  34.449   2.495
89417W        W55848  10.388   0.465   2.369
89418W        W55849  20.595  12.656   4.426
89419W        W55850  33.310  44.518   3.254
89420W        W55851  39.544  25.618  10.580
89421W        W55852   5.978  25.765  14.721
89422W        W55853  37.829   9.851   3.265
89423W        W55854  32.124   6.831   1.687
89424W        W55855  30.154   9.286   1.431
89425W        W55856   4.484  38.391   4.069
89426W        W55857  23.194  28.077   0.395
89427W        W55858   6.346  10.166   1.678
89428W        W55859  38.073   5.916  11.562
89429W        W55860  28.094  18.125   1.315
89430W        W55861  27.468  10.527  13.251
89431W        W55862  11.065   0.833  12.004
89432W        W55863  44.560  30.063  11.716
89433W        W55864  30.554  33.435  12.037
89434W        W55865  37.215  24.253   3.780
89435W        W55866   1.638   8.231   1.717
89436W        W55867  21.837  20.993   3.047
89437W        W55868  40.337  12.819   3.687
89438W        W55869  33.842  32.900  12.397
89439W        W55870  30.563  30.807   0.376
89440W        W55871  24.573   6.415  14.402
89441W        W55872   7.122   4.640   2.311
89442W        W55873  15.419  15.617   4.678
89443W        W55874  40.823  23.750  13.383
89444W        W55875  41.509  28.189   0.917
89445W        W55876   3.759  38.307   1.830
89446W        W55877  38.017   4.876  13.430
89447W        W55878  10.268  25.760  11.617
89448W        W55879   3.436  38.290  13.878
89449W        W55880  25.097  28.636   2.764
89450W        W55881  10.429  31.183   3.264
89451W        W55882  35.545  22.824   0.878
89452W        W55883  17.076  18.131  14.907
89453W        W55884  26.162  16.801  10.785
89454W        W55885  18.543   9.394  13.937
89455W        W55886  10.290   4.754  12.565
89456W        W55887   2.197  37.550   3.249
89457W        W55888   6.888  17.032   2.459
89458W        W55889  34.053   2.790   4.010
89459W        W55890   9.199  16.122   0.489
89460W        W55891  16.564  36.785   4.367
89461W        W55892  23.348   7.932   3.666
89462W        W55893  19.025  28.490   3.815
89463W        W55894  32.375   9.156   1.810
89464W        W55895  36.192  24.726   2.156
89465W        W55896  37.933  15.633  13.062
89466W        W55897  13.871  44.779  11.204
89467W        W55898  21.013   5.383  12.925
89468W        W55899   8.651   5.861   2.781
89469W        W55900  15.315  32.488   2.730
89470W        W55901  19.682   2.983   2.271
89471W        W55902  13.817  40.284   0.959
89472W        W55903  42.490   3.287   3.854
89473W        W55904  43.039  26.015  11.584
89474W        W55905  32.465  22.662  12.902
89475W        W55906  28.983  29.519   3.824
89476W        W55907  15.102  33.627  12.470
89477W        W55908  43.571   0.735   0.747
89478W        W55909  41.565  36.848  12.053
89479W        W55910  12.765  38.685  11.261
89480W        W55911  40.943  37.827   2.779
89481W        W55912   7.678  44.912  14.881
89482W        W55913  42.162  39.880   3.366
89483W        W55914  22.179  43.353   4.177
89484W        W55915  17.291  27.254   0.515
89485W        W55916  15.038  34.963  11.203
89486W        W55917  13.648   5.312  11.570
89487W        W55918  14.226  29.546   1.898
89488W        W55919  42.240  14.574  14.066
89489W        W55920   4.012  38.750   3.357
89490W        W55921   1.708  22.112  12.012
89491W        W55922  15.533   8.092  13.572
89492W        W55923  43.202  36.520  12.516
89493W        W55924   5.158  36.730   4.663
89494W        W55925  21.765   7.904   2.379
89495W        W55926  41.185  29.978  11.067
89496W        W55927  16.354  17.063   3.789
89497W        W55928  21.799  27.474  10.659
89498W        W55929  27.569  20.904   1.183
89499W        W55930  18.171  21.178  11.930
89500W        W55931  39.151  11.250  12.310
89501W        W55932  13.619  17.575  12.848
89502W        W55933   8.638   7.347  13.444
89503W        W55934  25.617   6.389   0.331
89504W        W55935   9.652  10.652  10.643
89505W        W55936  44.778   3.743   2.635
89506W        W55937   2.975  16.823  12.271
89507W        W55938   3.533  29.685   4.262
89508W        W55939  32.358  29.348  13.328
89509W        W55940  34.920   9.840   4.830
89510W        W55941  28.462  10.115  12.064
89511W        W55942  11.951  37.353  12.201
89512W        W55943  22.599   6.743  10.679
89513W        W55944  19.327   5.788   2.650
89514W        W55945  20.229  42.490  12.961
89515W        W55946  27.414  11.243  11.517
89516W        W55947  12.714  14.195   3.930
89517W        W55948  28.125  35.794  13.536
89518W        W55949  12.275  35.092  13.775
89519W        W55950   1.398  25.109   0.084
89520W        W55951  10.522   3.936  14.372
89521W        W55952  44.847  12.177   3.371
89522W        W55953  27.032  19.517   2.776
89523W        W55954   5.643   8.595   1.708
89524W        W55955  10.294  27.253   2.259
89525W        W55956  36.607  32.618   3.696
89526W        W55957  33.065  26.296  13.066
89527W        W55958   2.247  19.108  13.474
89528W        W55959  20.157   2.585   2.579
89529W        W55960   5.133  17.186   0.356
89530W        W55961  21.588   3.316   4.530
89531W        W55962  12.440  19.547   1.740
89532W        W55963  21.022   1.314   4.659
89533W        W55964  29.044  40.993   2.062
89534W        W55965  43.552  36.165  11.280
89535W        W55966  20.575  25.657  14.467
89536W        W55967  41.084  21.250   0.885
89537W        W55968   5.218  36.500   2.856
89538W        W55969  15.213  15.939  14.332
89539W        W55970   2.730  36.377   1.681
89540W        W55971  30.595  22.090  14.898
89541W        W55972   8.759  40.228  13.772
89542W        W55973  32.957  22.880  12.870
89543W        W55974  14.611  24.080   0.436
89544W        W55975  31.124   2.423  14.349
89545W        W55976  28.923   1.667   0.863
89546W        W55977  43.238   2.068  14.238
89547W        W55978  30.516  44.965  14.117
89548W        W55979  27.088   0.589  10.067
89549W        W55980   3.805   1.828   3.747
89550W        W55981  12.099   5.531   2.145
89551W        W55982  10.192   3.249   3.755
89552W        W55983  16.091  13.338  13.597
89553W        W55984  25.684   0.879  10.103
89554W        W55985  22.310  41.475   0.602
89555W        W55986  30.119   9.931  13.327
89556W        W55987  22.553  39.924  13.919
89557W        W55988  32.308  13.881  10.605
89558W        W55989  21.615  17.633  11.562
89559W        W55990  30.418  21.315  14.474
89560W        W55991  20.020  39.375  12.943
89561W        W55992  40.276  16.935   1.507
89562W        W55993  41.187  41.806  14.127
89563W        W55994   9.058   9.851  10.429
89564W        W55995  25.949  29.543   1.882
89565W        W55996   7.418  38.814   2.053
89566W        W55997  27.369  38.447  12.872
89567W        W55998  21.238  24.981  10.686
89568W        W55999  27.242  15.170   2.661
89569W        W56000  22.181   1.126  12.886
89570W        W56001  38.440  10.924   4.278
89571W        W56002   6.253  34.739  12.607
89572W        W56003   3.399   8.345  11.507
89573W        W56004   9.932   9.444  14.422
89574W        W56005  28.501   8.044   4.781
89575W        W56006   1.153  30.989   4.295
89576W        W56007   9.400  16.160   3.656
89577W        W56008  26.018   4.277  14.708
89578W        W56009  35.372   0.258  14.877
89579W        W56010  21.748   7.336   1.934
89580W        W56011  12.720  20.153  11.647
89581W        W56012  32.413   6.243   4.477
89582W        W56013  19.219  23.726  11.918
89583W        W56014  34.647  14.112  11.593
89584W        W56015  17.279  32.776  14.889
89585W        W56016  42.925  19.576   4.333
89586W        W56017  30.532  31.599  10.564
89587W        W56018   9.151  21.732  11.620
89588W        W56019  30.528  32.154  14.781
89589W        W56020   6.742   8.678   2.143
89590W        W56021  36.576  31.972  11.297
89591W        W56022   6.904   6.097  14.949
89592W        W56023  40.051  36.088   3.684
89593W        W56024   6.980  40.787   0.371
89594W        W56025  36.813  31.764   1.735
89595W        W56026  36.288  36.981  11.042
89596W        W56027  32.038  37.364   5.236
89597W        W56028  14.749  14.138  12.947
89598W        W56029  44.234  33.428  11.125
89599W        W56030  25.097  26.671   2.651
89600W        W56031  29.902  20.404  13.564
89601W        W56032  43.001  27.023   4.690
89602W        W56033  37.015  30.752   1.447
89603W        W56034   2.707  37.870  12.058
89604W        W56035  41.808  44.442  12.571
89605W        W56036   9.206  37.811  12.504
89606W        W56037  12.335   2.350   4.141
89607W        W56038   0.330  21.188  14.851
89608W        W56039  12.184  17.854  12.651
89609W        W56040  25.032  34.762   4.969
89610W        W56041  19.498  18.203  10.098
89611W        W56042  22.003  18.618   0.521
89612W        W56043  21.634  39.759  14.858
89613W        W56044  14.104  41.755  14.502
89614W        W56045  14.849   6.000   4.272
89615W        W56046  31.976   1.918   0.344
89616W        W56047   1.322  14.331   3.395
89617W        W56048   9.939  13.217   2.695
89618W        W56049   2.169  35.458   3.543
89619W        W56050  42.572   8.463   4.262
89620W        W56051  16.817  21.062   3.353
89621W        W56052  25.342  33.591   9.890
89622W        W56053  36.153   6.919   3.298
89623W        W56054   4.032  34.850  14.962
89624W        W56055   6.623  14.544   5.555
89625W        W56056  10.287   4.237   3.656
89626W        W56057   6.236  27.077  14.773
89627W        W56058  41.388  21.752   5.360
89628W        W56059   0.022  34.947  14.934
89629W        W56060  17.668  36.858   2.632
89630W        W56061  33.970  39.959  11.775
89631W        W56062  43.223   8.460  10.705
89632W        W56063   4.787   2.478  14.547
89633W        W56064  26.692  22.181   4.540
89634W        W56065  41.942  21.641   3.715
89635W        W56066  13.376  23.189   1.300
89636W        W56067  44.290   1.456   0.681
89637W        W56068  28.250  14.642   0.517
89638W        W56069  34.577  16.340   2.334
89639W        W56070  38.828  31.978  10.645
89640W        W56071   8.400  12.302   3.891
89641W        W56072  26.984  36.118  11.494
89642W        W56073   3.760  41.304   1.893
89643W        W56074   8.359  44.955   1.800
89644W        W56075  22.055  27.403  13.507
89645W        W56076  10.745  34.676   2.710
89646W        W56077  18.772  34.669  13.565
89647W        W56078   8.166  13.788  12.959
89648W        W56079  18.528  13.087  10.751
89649W        W56080   0.161   6.646  13.379
89650W        W56081   0.229  23.780  10.674
89651W        W56082  41.350  44.445   0.687
89652W        W56083  16.816   6.931   3.150
89653W        W56084   4.334  13.264   1.615
89654W        W56085   3.769  24.643   0.368
89655W        W56086   8.389  20.216   0.272
89656W        W56087   6.963  37.902  14.399
89657W        W56088   4.849   7.145   4.668
89658W        W56089   8.154  10.667   4.705
89659W        W56090  30.395  39.774  14.398
89660W        W56091   2.375  40.841   4.703
89661W        W56092  40.880   4.586   2.751
89662W        W56093  11.117  33.988  13.476
89663W        W56094   1.207  33.141   2.143
89664W        W56095  35.598  12.232   2.911
89665W        W56096   5.223   5.282  12.680
89666W        W56097  25.633  17.743  12.859
89667W        W56098  41.458   6.142  12.203
89668W        W56099  41.239  32.445   2.332
89669W        W56100  30.995  44.203   9.870
89670W        W56101   3.433   0.241   1.389
89671W        W56102  33.881  19.677   2.721
89672W        W56103  44.458  42.044   1.221
89673W        W56104  23.618  41.035   4.464
89674W        W56105  40.334  29.611   1.127
89675W        W56106   3.606   9.694  10.273
89676W        W56107  37.001  25.028   0.407
89677W        W56108  25.593  42.999  14.026
89678W        W56109  34.439  37.695   1.912
89679W        W56110   8.346  13.444   1.523
89680W        W56111  11.625   1.931   3.633
89681W        W56112  41.833   6.673  14.294
89682W        W56113  30.117  30.900  12.061
89683W        W56114  16.730  22.595   3.116
89684W        W56115  17.477  17.755  14.015
89685W        W56116  10.284  40.579   0.591
89686W        W56117  20.394   8.848  13.643
89687W        W56118  25.668   4.975   1.276
89688W        W56119   7.152  20.153  13.780
89689W        W56120  36.925  20.124   3.933
89690W        W56121  30.592  22.093  10.966
89691W        W56122  21.716   6.709  11.874
89692W        W56123   4.927  29.871  11.610
89693W        W56124  43.934  10.539   3.767
89694W        W56125   2.858  43.734  12.422
89695W        W56126  12.948  17.212   3.217
89696W        W56127  21.481  10.820  11.343
89697W        W56128  41.580  25.836   1.975
89698W        W56129  17.081   4.714   0.771
89699W        W56130  23.475  11.645   3.595
89700W        W56131  44.919  12.315  11.619
89701W        W56132  16.332  13.611   3.632
89702W        W56133   8.770  39.712  13.842
89703W        W56134  12.812  36.743   1.835
89704W        W56135  42.890   3.287   3.517
89705W        W56136  33.851  30.967  11.580
89706W        W56137  25.075   9.430   0.024
89707W        W56138  20.110  32.846   2.704
89708W        W56139  12.735  40.753   0.899
89709W        W56140  41.470   3.884   3.120
89710W        W56141  24.482  26.514  10.494
89711W        W56142  39.605  24.370   4.260
89712W        W56143  38.820  26.673  13.528
89713W        W56144   8.633  20.491   1.825
89714W        W56145   3.362  24.275  13.377
89715W        W56146  41.520   0.951   3.306
89716W        W56147  41.859  21.635   4.603
89717W        W56148  22.771  33.083  14.394
89718W        W56149   1.724   2.422   2.284
89719W        W56150  39.855  11.693  12.640
89720W        W56151  32.105  38.991   4.067
89721W        W56152  29.702  19.606   4.151
89722W        W56153  13.628  35.941   0.461
89723W        W56154   4.107  10.643  14.828
89724W        W56155  40.440   4.293  10.463
89725W        W56156  14.156  10.704  14.744
89726W        W56157   8.737  28.899   4.326
89727W        W56158  18.219  32.222  14.790
89728W        W56159  15.044   3.637   2.318
89729W        W56160  13.361   9.210   0.947
89730W        W56161  22.115  30.958  12.359
89731W        W56162  34.167  14.997   3.164
89732W        W56163  29.395  31.337   3.261
89733W        W56164  43.339   3.971   3.759
89734W        W56165  26.550   1.411  11.986
89735W        W56166  31.433  26.663   1.414
89736W        W56167  13.336  43.816   3.462
89737W        W56168  40.305   2.470   4.880
89738W        W56169   9.187  29.582   4.813
89739W        W56170  24.137   4.236  10.722
89740W        W56171   5.938   8.175   1.904
89741W        W56172  14.955   3.265   1.964
89742W        W56173   4.420  10.663   3.153
89743W        W56174  44.815  16.466  11.205
89744W        W56175  19.240  14.091   1.084
89745W        W56176  17.720  35.698  10.729
89746W        W56177  42.502  18.536  10.832
89747W        W56178  27.668  28.803   4.607
89748W        W56179  27.121   6.010   2.247
89749W        W56180  21.281  25.292   3.740
89750W        W56181  43.285  10.173  13.837
89751W        W56182  34.828  27.524  10.733
89752W        W56183  36.208  35.621   3.255
89753W        W56184  19.573  18.763  12.355
89754W        W56185  18.826  26.670   4.488
89755W        W56186  30.083  31.702  11.815
89756W        W56187  21.841  22.683  11.914
89757W        W56188  44.743  25.083  14.894
89758W        W56189  17.564  18.608   1.149
89759W        W56190  26.718  16.518   0.270
89760W        W56191  33.030  21.090   0.717
89761W        W56192  40.277   3.731  14.242
89762W        W56193  11.887  13.663   0.796
89763W        W56194   5.049  11.256  13.056
89764W        W56195  36.061  42.923   2.165
89765W        W56196  22.259  17.128  14.875
89766W        W56197  17.039  36.596  12.986
89767W        W56198  29.064  13.321  10.529
89768W        W56199  41.928  38.437   2.681
89769W        W56200  19.152  27.978   1.926
89770W        W56201  10.692  25.075  14.220
89771W        W56202  40.473  10.511   1.022
89772W        W56203  36.591   1.709  14.068
89773W        W56204  21.680  43.388   2.111
89774W        W56205   5.888   9.363   4.289
89775W        W56206  43.445  29.926   0.443
89776W        W56207   9.378  15.656   1.612
89777W        W56208  44.772  16.966   2.246
89778W        W56209  28.159  26.634  10.679
89779W        W56210  14.980  10.647   0.019
89780W        W56211  33.807  23.043   3.042
89781W        W56212  27.434  25.172  14.262
89782W        W56213  39.267  17.222   2.297
89783W        W56214  36.618  13.431  13.673
89784W        W56215  21.281  19.546   2.237
89785W        W56216  30.030  20.678  13.161
89786W        W56217  40.030  24.747  13.088
89787W        W56218  19.120  40.995   4.652
89788W        W56219  37.665  26.095  11.515
89789W        W56220  19.080  26.455  14.431
89790W        W56221   7.783   5.830   4.214
89791W        W56222  13.322  12.886  12.881
89792W        W56223  33.293  12.284   1.803
89793W        W56224   5.896  31.385  14.000
89794W        W56225  32.962  16.846  14.817
89795W        W56226  21.893  20.137   0.394
89796W        W56227  35.289  11.303  12.998
89797W        W56228  19.015  29.541   3.890
89798W        W56229  37.474  34.917   4.940
89799W        W56230   8.687   3.699  10.468
89800W        W56231  35.920   4.969  14.381
89801W        W56232   0.653  28.956   1.895
89802W        W56233  24.901  42.744   0.788
89803W        W56234  26.643   7.367   1.302
89804W        W56235  14.801  26.650  11.323
89805W        W56236  12.651  22.018   0.365
89806W        W56237   5.975  12.168   2.651
89807W        W56238   3.120  34.991   0.038
89808W        W56239  37.989  24.430  12.579
89809W        W56240  34.533  22.426   1.865
89810W        W56241  21.686  19.685   1.868
89811W        W56242  39.840  29.117  13.142
89812W        W56243  30.951  15.286   4.737
89813W        W56244  28.016  32.344   9.713
89814W        W56245   0.989   5.676  13.861
89815W        W56246   7.253  13.575   3.697
89816W        W56247   2.758  32.520  13.711
89817W        W56248  27.460  18.163   1.784
89818W        W56249  13.100  21.211  14.759
89819W        W56250  21.442   2.221   2.248
89820W        W56251   7.837  14.751  14.491
89821W        W56252  41.087   0.409  14.757
89822W        W56253  25.475   8.488   3.198
89823W        W56254   7.934  37.064   0.965
89824W        W56255  27.211  33.593  11.286
89825W        W56256  22.530   4.944  14.932
89826W        W56257  30.672  23.809  11.576
89827W        W56258   1.001  25.979   4.535
89828W        W56259  38.265   5.431  11.543
89829W        W56260  35.795  36.059   3.792
89830W        W56261  36.067  29.618   2.758
89831W        W56262  33.898  14.716   0.956
89832W        W56263  23.643  27.977   9.984
89833W        W56264  18.175  37.330  12.698
89834W        W56265  31.886  10.158  11.998
89835W        W56266  18.232  33.357  11.688
89836W        W56267  21.486  37.433   2.355
89837W        W56268  21.589   2.514  12.758
89838W        W56269   7.440  24.311   4.953
89839W        W56270  14.290  17.219  11.522
89840W        W56271  29.595  30.201   4.303
89841W        W56272   2.247  39.779   2.697
89842W        W56273  37.525  40.829  11.981
89843W        W56274   8.710  16.681   3.403
89844W        W56275  37.893  27.858  13.445
89845W        W56276  33.268  32.966   1.873
89846W        W56277   0.781  20.697   2.281
89847W        W56278  29.496  40.792   2.176
89848W        W56279  19.028  33.996   2.881
89849W        W56280   8.442   1.913  11.242
89850W        W56281  41.771  11.491   2.315
89851W        W56282  27.854   1.780   3.266
89852W        W56283  22.591  39.420  14.969
89853W        W56284  27.545  43.004   2.903
89854W        W56285  18.775   3.198  11.076
89855W        W56286  33.065  30.077   3.652
89856W        W56287  16.079  24.127  14.729
89857W        W56288  19.724   8.402   0.785
89858W        W56289  34.847   7.488  10.327
89859W        W56290  35.034  38.106  14.208
89860W        W56291  13.955   0.742  13.376
89861W        W56292  35.384  21.339   0.798
89862W        W56293   8.168  32.088  11.570
89863W        W56294  28.158  18.035   3.214
89864W        W56295  41.817  16.627   1.176
89865W        W56296  36.115  41.338   1.870
89866W        W56297  30.011   2.556  10.676
89867W        W56298  13.569  12.679   0.519
89868W        W56299  27.614  43.964  13.007
89869W        W56300   3.894  11.862   4.771
89870W        W56301  16.447  15.952  10.270
89871W        W56302  32.920  40.069   0.200
89872W        W56303  20.977   0.360  11.164
89873W        W56304  10.077  19.691   2.379
89874W        W56305  30.570  23.553   4.234
89875W        W56306  41.941  15.245  11.071
89876W        W56307  36.570  27.874   4.599
89877W        W56308  21.252  34.737   2.098
89878W        W56309  38.282  40.585   3.716
89879W        W56310  18.597  40.930   4.609
89880W        W56311   1.774  40.458  11.648
89881W        W56312  25.575   6.460   4.473
89882W        W56313  20.385  44.861   3.120
89883W        W56314   4.847  16.592  12.193
89884W        W56315  20.436   6.775   1.909
89885W        W56316  12.638  32.459   2.757
89886W        W56317  23.081   2.761   3.882
89887W        W56318  26.796  14.874  12.039
89888W        W56319  22.626  21.371   0.511
89889W        W56320  43.849  14.538   2.434
89890W        W56321  23.946  11.757   1.343
89891W        W56322  11.091   0.793  14.577
89892W        W56323  37.618  37.485  13.478
89893W        W56324  32.921  15.763   1.209
89894W        W56325   1.575  41.971   1.770
89895W        W56326  26.874  39.620  12.562
89896W        W56327  11.263  23.780   1.774
89897W        W56328  37.629   0.391   0.513
89898W        W56329  42.216  29.843  12.102
89899W        W56330   4.695  16.989  11.891
89900W        W56331  21.376  23.535  10.748
89901W        W56332  32.008  36.844   2.288
89902W        W56333  10.432  43.539  12.308
89903W        W56334  33.879  11.168   1.258
89904W        W56335  43.674  34.023  12.406
89905W        W56336  14.080  41.038  13.872
89906W        W56337  16.812  18.719   2.797
89907W        W56338  16.573  17.403   4.090
89908W        W56339  41.877  17.044   4.871
89909W        W56340   1.690   9.615  11.636
89910W        W56341   2.345  43.183  11.972
89911W        W56342  24.449  23.042  12.640
89912W        W56343  30.886   6.413   1.764
89913W        W56344   1.003  35.613  13.934
89914W        W56345  34.193  25.439  11.281
89915W        W56346  44.684  37.429  12.896
89916W        W56347  22.283  15.189  12.012
89917W        W56348  16.874  25.754  10.274
89918W        W56349  24.714  22.781  10.963
89919W        W56350  25.288   5.206  10.278
89920W        W56351  12.473   5.277   2.368
89921W        W56352  26.701   4.243   0.967
89922W        W56353  23.247  40.084   3.204
89923W        W56354  29.314   8.710  14.546
89924W        W56355  43.488  19.758   4.551
89925W        W56356  39.516  34.519  11.522
89926W        W56357  37.894   7.678   3.758
89927W        W56358  20.627   7.967   4.205
89928W        W56359  20.015  26.901   0.868
89929W        W56360   5.112  42.477   3.936
89930W        W56361  16.091  31.161   3.562
89931W        W56362  36.637  23.500   1.405
89932W        W56363  20.032   9.318  10.495
89933W        W56364  29.510  28.955  11.837
89934W        W56365   5.094  18.554  11.091
89935W        W56366  32.600  33.507  10.673
89936W        W56367  40.698  29.787  11.057
89937W        W56368  21.279  14.384  12.274
89938W        W56369  21.443  34.966   3.617
89939W        W56370   0.660  35.852  12.147
89940W        W56371  35.110   6.365  13.544
89941W        W56372  42.739  11.111   1.898
89942W        W56373   9.412  41.279  11.699
89943W        W56374  29.894  42.446  11.501
89944W        W56375  12.837  34.850   1.896
89945W        W56376  11.705  39.869   2.358
89946W        W56377  38.147   4.522  12.614
89947W        W56378  29.069  44.805  13.349
89948W        W56379   1.489   7.142   1.284
89949W        W56380   6.746  17.050  12.051
89950W        W56381  25.565  39.751  10.065
89951W        W56382   9.496   9.691   0.701
89952W        W56383  31.189  14.593   4.079
89953W        W56384  17.535  30.050   0.832
89954W        W56385  28.582   7.293   0.524
89955W        W56386  22.764  37.868  12.033
89956W        W56387  15.368  16.610  10.962
89957W        W56388  25.538  39.930   3.604
89958W        W56389   2.071  18.105   0.240
89959W        W56390   5.886   0.028   1.435
89960W        W56391  29.597   3.023  12.006
89961W        W56392  22.740  13.625   3.103
89962W        W56393   2.638   7.982  14.354
89963W        W56394  39.796   8.847   1.267
89964W        W56395  11.808  21.144   1.472
89965W        W56396   5.263  34.277   1.710
89966W        W56397  18.889  44.991   3.633
89967W        W56398  42.057  39.375  14.327
89968W        W56399  14.648  22.356   4.014
89969W        W56400  31.393  42.432   2.794
89970W        W56401   2.721  27.696   1.225
89971W        W56402  21.624  13.138   1.967
89972W        W56403   1.783  40.011   1.426
89973W        W56404  39.573  13.404   4.281
89974W        W56405  18.255   0.719   2.604
89975W        W56406   0.906  36.323   4.320
89976W        W56407  29.618  28.889  12.315
89977W        W56408   9.212  33.169  14.944
89978W        W56409  32.828   9.566   0.944
89979W        W56410  21.768  27.045   1.379
89980W        W56411  36.146  31.087  14.365
89981W        W56412  43.327   7.956  14.742
89982W        W56413  36.069  13.787   2.823
89983W        W56414   3.627  40.439  11.136
89984W        W56415   2.291   4.825   2.287
89985W        W56416  27.181  31.653  11.175
89986W        W56417  16.697  28.085   3.577
89987W        W56418  18.240  16.492  12.018
89988W        W56419  29.640  31.960   1.362
89989W        W56420  39.827  31.022   1.016
89990W        W56421  40.871   3.314   1.421
89991W        W56422  14.875  16.129   2.240
89992W        W56423   9.589   8.073   2.629
89993W        W56424   2.841  16.624  10.911
89994W        W56425  27.128  28.121   3.819
89995W        W56426  15.585  30.096  13.157
89996W        W56427  20.869  31.391   5.077
89997W        W56428  24.813  10.846  14.072
89998W        W56429  40.976  16.328  14.272
89999W        W56430  27.875   6.395   3.634
90000W        W56431  15.642  31.896   3.150
90001W        W56432   8.495   9.469  13.501
90002W        W56433  11.727   0.025   1.196
90003W        W56434  35.816  24.616   1.334
90004W        W56435  42.970  27.594   3.245
90005W        W56436  15.262   4.124   4.033
90006W        W56437  33.645  13.585   4.591
90007W        W56438  35.474   2.872   4.106
90008W        W56439   2.300  22.632  12.638
90009W        W56440  27.823   6.007   0.981
90010W        W56441  32.393   5.935   2.657
90011W        W56442  34.890  14.180   3.108
90012W        W56443   7.227  35.460   2.457
90013W        W56444  33.353  44.979   0.469
90014W        W56445  10.955  42.400  11.072
90015W        W56446  35.569  12.916   1.805
90016W        W56447  21.138  24.960   4.185
90017W        W56448  27.518  19.679  12.027
90018W        W56449  29.349  23.418   3.305
90019W        W56450  18.954   0.309  13.079
90020W        W56451  32.979  31.633  11.115
90021W        W56452  36.830  13.112   2.865
90022W        W56453  43.815  25.877   3.737
90023W        W56454  24.913  30.603   0.330
90024W        W56455  44.669  19.136   0.762
90025W        W56456  17.078   9.626  10.909
90026W        W56457   8.588   6.244  11.079
90027W        W56458  34.409  25.434  10.813
90028W        W56459  23.055   1.055   2.369
90029W        W56460  19.320  37.388  11.418
90030W        W56461  33.624  27.759  13.534
90031W        W56462  41.868   7.277   2.561
90032W        W56463  38.603   6.337  12.852
90033W        W56464   1.821  29.401  11.600
90034W        W56465  31.597  18.071   0.308
90035W        W56466  32.047  36.392  14.379
90036W        W56467   1.692  21.320  11.595
90037W        W56468  42.502  41.852  14.393
90038W        W56469  20.233  20.750   2.379
90039W        W56470   7.810  12.647   1.446
90040W        W56471   9.655   3.482   4.630
90041W        W56472  13.492  31.924   2.436
90042W        W56473  21.263   4.729  14.466
90043W        W56474   5.592  32.090  13.122
90044W        W56475  15.389  12.622  12.952
90045W        W56476   0.913  22.150   2.797
90046W        W56477   5.678  14.990   5.249
90047W        W56478  21.415  26.500   0.877
90048W        W56479  37.960  23.882   1.639
90049W        W56480  12.071  36.814   4.807
90050W        W56481  24.507  14.842  12.458
90051W        W56482  17.746  32.580  13.822
90052W        W56483   3.460  29.086  14.283
90053W        W56484  15.177  28.615  14.335
90054W        W56485   1.038  11.675  12.931
90055W        W56486   9.458  30.994  14.269
90056W        W56487   9.441  11.057  11.025
90057W        W56488  25.468  28.636  14.805
90058W        W56489  17.780  34.274   1.681
90059W        W56490   0.023   1.910  12.515
90060W        W56491  35.177  41.465  10.875
90061W        W56492  14.128  39.420  13.976
90062W        W56493  12.947  30.675   3.593
90063W        W56494  30.009  21.568  13.587
90064W        W56495   8.095  42.927   1.180
90065W        W56496   6.174   5.006  12.593
90066W        W56497  40.638   7.131  12.461
90067W        W56498  42.972  12.886  11.317
90068W        W56499  21.089  12.713   2.931
90069W        W56500  39.810  28.775   0.945
90070W        W56501   7.423  28.114  12.606
90071W        W56502  37.864  34.646   0.345
90072W        W56503  25.685  15.569   4.081
90073W        W56504  31.681  20.761   0.823
90074W        W56505  29.950  18.708  14.803
90075W        W56506  33.174  15.254   2.328
90076W        W56507  14.690  26.509  14.399
90077W        W56508  12.278   9.636   1.262
90078W        W56509  16.069  36.310   0.910
90079W        W56510  19.945   0.408   3.784
90080W        W56511  35.833  40.839  13.863
90081W        W56512  35.580   5.600   3.269
90082W        W56513  32.972  34.788   1.897
90083W        W56514  36.055   0.222  12.402
90084W        W56515  44.805  15.120  13.552
90085W        W56516  23.762   7.252  11.671
90086W        W56517  14.293  39.820   1.855
90087W        W56518  27.544  30.427  12.161
90088W        W56519   0.363  34.811  12.466
90089W        W56520  33.100   5.134  12.482
90090W        W56521  30.462  10.919  10.412
90091W        W56522  23.016  35.332   1.245
90092W        W56523   6.069   3.184   4.540
90093W        W56524   3.833  37.739   1.777
90094W        W56525  42.276  37.342  14.403
90095W        W56526  19.547  34.886  13.175
90096W        W56527  12.856   9.186   0.744
90097W        W56528  35.780  18.248  11.307
90098W        W56529  14.181  16.180  10.118
90099W        W56530  33.152   6.893  11.128
90100W        W56531  24.596  26.319  12.172
90101W        W56532   5.801  20.560   0.794
90102W        W56533  33.075   4.931   1.271
90103W        W56534   1.027  44.880   1.369
90104W        W56535  38.386   8.706  12.661
90105W        W56536  21.884   5.676  12.865
90106W        W56537  36.563  33.120  14.375
90107W        W56538  14.729   6.492   2.467
90108W        W56539  15.215   1.827  10.371
90109W        W56540   3.987  36.316  13.876
90110W        W56541  21.047  18.439   5.038
90111W        W56542  25.937  30.504   3.095
90112W        W56543  25.664  29.501   0.057
90113W        W56544  42.708   4.254   1.004
90114W        W56545  30.971  23.005  13.801
90115W        W56546  42.419  41.877  10.647
90116W        W56547  43.254   5.290  12.542
90117W        W56548  14.665  42.341   3.218
90118W        W56549   3.450  44.573  13.941
90119W        W56550  22.460  28.300   2.789
90120W        W56551  30.236  42.294   2.161
90121W        W56552   8.764  24.722  12.855
90122W        W56553  16.478  22.065  12.555
90123W        W56554  16.303   5.720   4.671
90124W        W56555  37.196  33.559  12.941
90125W        W56556  10.183   4.530   4.272
90126W        W56557  35.070  12.872  14.818
90127W        W56558  15.591  44.469   3.298
90128W        W56559   7.162   9.588  14.533
90129W        W56560  44.041  21.139  14.364
90130W        W56561  43.042  41.445   1.875
90131W        W56562  16.982  32.945   1.242
90132W        W56563  24.556  31.893   5.447
90133W        W56564  10.922   5.276  10.624
90134W        W56565   6.644  15.505  11.699
90135W        W56566  32.992   5.467  10.990
90136W        W56567  20.069  35.371  12.526
90137W        W56568  15.497  23.177   2.801
90138W        W56569  22.915  29.984  12.414
90139W        W56570  14.289   9.280  10.619
90140W        W56571   1.249  11.029   4.546
90141W        W56572  43.016  32.472   2.681
90142W        W56573  14.495   2.082   0.756
90143W        W56574  21.779   6.634   2.231
90144W        W56575   3.851  37.870   4.413
90145W        W56576  31.001  25.494   3.258
90146W        W56577  43.494  16.592   0.907
90147W        W56578   6.662  23.283  12.479
90148W        W56579  41.074   2.930   4.617
90149W        W56580  42.072  42.858  13.562
90150W        W56581  43.868  16.337  11.466
90151W        W56582  19.956  43.480  14.010
90152W        W56583  35.054  27.178  11.642
90153W        W56584  34.632  28.766  11.142
90154W        W56585  11.160  12.594   0.321
90155W        W56586  43.566  30.882  12.643
90156W        W56587  39.498  34.400  12.366
90157W        W56588   4.633  32.560  14.194
90158W        W56589  21.562   2.049   1.752
90159W        W56590  38.850  24.065   1.805
90160W        W56591  11.281   2.760  13.186
90161W        W56592  25.999  19.115   0.317
90162W        W56593  14.737  22.825  12.793
90163W        W56594  43.479  41.269   3.654
90164W        W56595   8.709  16.123  11.365
90165W        W56596   9.331   0.032   1.957
90166W        W56597  28.052  20.024  11.684
90167W        W56598  16.558  34.704   3.622
90168W        W56599  11.839  28.661  11.548
90169W        W56600  33.508  32.535   1.322
90170W        W56601  40.457   0.918   2.411
90171W        W56602  24.119  20.453  12.212
90172W        W56603  43.902  42.129  10.637
90173W        W56604  14.104  32.077  11.924
90174W        W56605  40.398  30.004   1.432
90175W        W56606  10.251  40.131  12.651
90176W        W56607  10.340  19.253  13.760
90177W        W56608  34.999  41.375  11.887
90178W        W56609  35.818  27.694  10.761
90179W        W56610  25.226  39.368   2.834
90180W        W56611  33.587  37.665   0.272
90181W        W56612  38.484   8.777  13.159
90182W        W56613  27.952   0.944   4.418
90183W        W56614  21.537  36.356  13.151
90184W        W56615  17.752   7.074   0.635
90185W        W56616   9.887  41.327   1.654
90186W        W56617  20.080   4.364  11.174
90187W        W56618  19.504  12.805  13.858
90188W        W56619  17.828  42.985  12.912
90189W        W56620  21.579  12.195   3.807
90190W        W56621  26.942  38.645  13.152
90191W        W56622  35.379  30.465   3.674
90192W        W56623  39.505  37.296   1.912
90193W        W56624  42.568   8.351  13.075
90194W        W56625   3.725  21.259   2.738
90195W        W56626  38.029  43.231   0.783
90196W        W56627  13.279   4.344   1.066
90197W        W56628   1.317  36.320  13.497
90198W        W56629  28.563   2.961   2.412
90199W        W56630  19.963   7.568  10.801
90200W        W56631  34.222  28.627  10.441
90201W        W56632   6.147  41.953   2.309
90202W        W56633  36.312  41.378   1.385
90203W        W56634  17.957  44.999  11.010
90204W        W56635  35.489  13.260  12.876
90205W        W56636  29.297  39.576   3.635
90206W        W56637  25.529  30.563  12.060
90207W        W56638  41.594   7.089  10.978
90208W        W56639  19.737  35.985   2.243
90209W        W56640  42.098  28.969  12.008
90210W        W56641   4.722  40.794  11.914
90211W        W56642  14.592  26.321  10.409
90212W        W56643  14.248  27.533   2.219
90213W        W56644  22.238  33.320   1.158
90214W        W56645  39.880  28.742   1.846
90215W        W56646  44.879   0.980  10.945
90216W        W56647  16.197  25.472   3.713
90217W        W56648   4.213  17.136  14.265
90218W        W56649  32.009  15.832   4.235
90219W        W56650   5.126  33.692   3.825
90220W        W56651  42.887  36.417   3.383
90221W        W56652  12.664  24.552  11.207
90222W        W56653   9.072  31.902   0.452
90223W        W56654  33.999  17.622  12.511
90224W        W56655  11.131   4.941   3.658
90225W        W56656   8.615  10.820   4.894
90226W        W56657  35.617   5.520  11.692
90227W        W56658   6.667  11.466  13.130
90228W        W56659  28.179  44.827  10.775
90229W        W56660  40.094  37.758   4.203
90230W        W56661  29.045  13.508   1.952
90231W        W56662  43.809  15.498  11.062
90232W        W56663  18.624  19.435   4.277
90233W        W56664  32.679  35.834   3.230
90234W        W56665  24.986  15.518   3.176
90235W        W56666   7.171  36.857   4.202
90236W        W56667  21.259  43.411  14.445
90237W        W56668  20.229  15.863  10.397
90238W        W56669  38.650  18.368   0.006
90239W        W56670   3.802  20.274  12.670
90240W        W56671  35.365  38.831   1.797
90241W        W56672  19.260  11.088   1.607
90242W        W56673   8.292   3.471   4.090
90243W        W56674  20.009  13.186   2.248
90244W        W56675  37.634   7.569   0.227
90245W        W56676   0.122   3.307  13.503
90246W        W56677  23.965  16.728   0.794
90247W        W56678  28.519  39.787  10.669
90248W        W56679  12.107  40.268  14.835
90249W        W56680  40.951  22.666  11.253
90250W        W56681  25.621  35.372  11.586
90251W        W56682  14.144  42.254  14.389
90252W        W56683  10.789  25.616   0.508
90253W        W56684   6.971  15.577   1.417
90254W        W56685  19.006  14.447  11.157
90255W        W56686  36.586  26.781   2.597
90256W        W56687  15.104  14.606   2.658
90257W        W56688   1.796   5.122   2.685
90258W        W56689   4.205  42.969   4.725
90259W        W56690  31.622  39.508   0.227
90260W        W56691  29.860  23.052   0.176
90261W        W56692  23.702  41.564   2.985
90262W        W56693   4.983   4.216  10.649
90263W        W56694   8.785  29.408   5.100
90264W        W56695  34.033  30.556  11.325
90265W        W56696  23.174  34.313  11.580
90266W        W56697   5.260  42.513  13.915
90267W        W56698  32.600  20.788   4.118
90268W        W56699   7.727  44.692   1.164
90269W        W56700  17.757  18.331  14.947
90270W        W56701  14.855  26.410   1.731
90271W        W56702  36.595  18.311  11.672
90272W        W56703   6.663   9.747  12.131
90273W        W56704   1.182   6.401   2.276
90274W        W56705   5.730   5.205  14.781
90275W        W56706  10.210   8.596  12.547
90276W        W56707  15.856  35.029  12.023
90277W        W56708  22.014  15.747   0.029
90278W        W56709  17.834  19.065   1.279
90279W        W56710  11.958  28.064   5.136
90280W        W56711  35.089  18.262  12.996
90281W        W56712  27.411  40.276   4.750
90282W        W56713  19.696  18.253   2.271
90283W        W56714  30.046  31.583  10.833
90284W        W56715  15.673  44.758  12.861
90285W        W56716  17.078  44.773   3.961
90286W        W56717   5.409  20.527  13.328
90287W        W56718  23.623  36.938  13.142
90288W        W56719  38.586  14.864   0.814
90289W        W56720  40.004  25.914   2.933
90290W        W56721  24.680  38.577  13.932
90291W        W56722  31.899  19.041  14.327
90292W        W56723  23.741  21.705  13.593
90293W        W56724  24.539   5.675  12.965
90294W        W56725  39.624  23.087   2.615
90295W        W56726  39.518  35.902  14.740
90296W        W56727  18.939  20.601   1.290
90297W        W56728  38.819   7.187  14.635
90298W        W56729  44.360  28.909   0.487
90299W        W56730  17.308  38.199   0.011
90300W        W56731  10.879  15.421   2.856
90301W        W56732  10.319  44.905   0.494
90302W        W56733  40.555  11.653   4.127
90303W        W56734   4.278  33.655   2.565
90304W        W56735  10.859   8.995   3.692
90305W        W56736  15.276  33.019   2.748
90306W        W56737  32.277  27.000  14.547
90307W        W56738  17.525  30.858  13.109
90308W        W56739  39.955  24.939  11.093
90309W        W56740   9.765  33.282  11.968
90310W        W56741  29.202  25.871   0.788
90311W        W56742  33.503  18.810  12.833
90312W        W56743  33.695  14.245  13.472
90313W        W56744   0.432  29.160  11.174
90314W        W56745  19.746  12.033  12.831
90315W        W56746  43.350  30.350   2.156
90316W        W56747  41.740  19.254  12.975
90317W        W56748   4.248  12.099   4.492
90318W        W56749  35.150  20.166   1.284
90319W        W56750  27.031  11.730   0.845
90320W        W56751  26.104  43.756  14.491
90321W        W56752   5.443  33.516   4.511
90322W        W56753  22.856  35.074  11.121
90323W        W56754  39.447   4.315   2.937
90324W        W56755  41.121   1.784   1.651
90325W        W56756  22.658  17.921  13.431
90326W        W56757  24.209  26.747   1.972
90327W        W56758  36.565  17.601   3.660
90328W        W56759  38.849  17.578  13.643
90329W        W56760  19.131  12.205   0.723
90330W        W56761  39.790   8.466   2.387
90331W        W56762  14.044  32.706  14.214
90332W        W56763  14.332  14.865  12.805
90333W        W56764  13.692  17.459   1.374
90334W        W56765  27.113  38.564   0.960
90335W        W56766  18.984  39.503   9.614
90336W        W56767  29.475  22.677   0.223
90337W        W56768  30.057  43.342   1.438
90338W        W56769   9.538  21.184   4.290
90339W        W56770   0.617  19.680  13.425
90340W        W56771  44.720  24.166  14.021
90341W        W56772  22.804  26.350  14.196
90342W        W56773  14.142  39.031  13.604
90343W        W56774  13.843  30.395  11.015
90344W        W56775  39.459   0.585   3.198
90345W        W56776  11.898  14.712  14.909
90346W        W56777   7.446  14.709   3.336
90347W        W56778  22.065  44.614  12.151
90348W        W56779   8.309  38.005  14.504
90349W        W56780  24.395  31.667   3.222
90350W        W56781  30.972  20.350   3.702
90351W        W56782  13.758  39.786  11.182
90352W        W56783  14.036  21.553  12.417
90353W        W56784  10.616   0.227  11.527
90354W        W56785   4.258  37.660  13.919
90355W        W56786  16.662  37.521   4.471
90356W        W56787  33.003  20.535  12.608
90357W        W56788  28.732  36.658   3.181
90358W        W56789   5.838  16.427  13.870
90359W        W56790  21.992   1.392   4.380
90360W        W56791  19.774  20.774   3.727
90361W        W56792  30.029  24.142  13.268
90362W        W56793  38.367  19.848   2.691
90363W        W56794  34.171  27.810   0.377
90364W        W56795   0.346  21.026   2.720
90365W        W56796  20.345  32.434  11.458
90366W        W56797  37.120  21.878  11.589
90367W        W56798   8.274  34.535   3.285
90368W        W56799  24.540   5.985   3.880
90369W        W56800  32.489  34.852  14.750
90370W        W56801  34.259  36.112  13.010
90371W        W56802  34.411   1.981   2.204
90372W        W56803  22.247  10.486   4.161
90373W        W56804  33.055  15.109  11.486
90374W        W56805  36.940  38.535  14.878
90375W        W56806  17.509  22.187  12.656
90376W        W56807  38.232   2.445  12.122
90377W        W56808  16.193  34.266   1.585
90378W        W56809  43.204  30.911   4.405
90379W        W56810  18.912  27.399  14.504
90380W        W56811   9.236  14.653  13.031
90381W        W56812  38.003  13.955  11.726
90382W        W56813   2.700   1.401  14.573
90383W        W56814   5.752  25.433  12.443
90384W        W56815  16.777   0.947  11.592
90385W        W56816  44.358  24.666  14.693
90386W        W56817  19.121   9.727   1.876
90387W        W56818  29.369   2.837   3.404
90388W        W56819   6.702  40.989   3.130
90389W        W56820  36.045   3.522   4.197
90390W        W56821  41.695  23.012   4.178
90391W        W56822   9.368  31.415   3.294
90392W        W56823  16.675  33.468  14.403
90393W        W56824  23.941  44.314   3.237
90394W        W56825  33.372  21.193  14.722
90395W        W56826  13.784  15.096  11.494
90396W        W56827  33.655  44.287  13.081
90397W        W56828  43.492  29.019  12.492
90398W        W56829  29.118   3.447  10.181
90399W        W56830  21.502   9.931  13.882
90400W        W56831  18.215  38.490   0.764
90401W        W56832  32.512  44.311   4.535
90402W        W56833   0.769   2.261   1.860
90403W        W56834  15.314  36.945  14.761
90404W        W56835  19.211  30.359   0.260
90405W        W56836  14.503  39.997  12.893
90406W        W56837  44.807  15.914   4.140
90407W        W56838  42.832  32.677  14.221
90408W        W56839  20.720   8.262   0.875
90409W        W56840   9.602  30.904   2.241
90410W        W56841  36.779  30.472   3.333
90411W        W56842   4.668  33.064   1.180
90412W        W56843  14.383  31.611  11.195
90413W        W56844   5.905  21.304   0.043
90414W        W56845  42.305  15.789  14.471
90415W        W56846   2.345  20.041   1.796
90416W        W56847   7.644  14.282  14.315
90417W        W56848  23.428   5.905   2.363
90418W        W56849  36.087   7.689   4.881
90419W        W56850  41.495  22.208  13.462
90420W        W56851  40.248  11.807   3.731
90421W        W56852  16.589  17.674  11.906
90422W        W56853  25.283  24.624  12.070
90423W        W56854  21.729  42.560  10.547
90424W        W56855   6.496  26.413  12.896
90425W        W56856   8.758   9.953  13.506
90426W        W56857  20.737  26.792  14.941
90427W        W56858  19.062  27.444   0.868
90428W        W56859  30.596  22.254   4.019
90429W        W56860  36.349  14.227  12.916
90430W        W56861  22.023  25.462  12.882
90431W        W56862  21.122  27.837  10.137
90432W        W56863  30.533   6.931   2.800
90433W        W56864  44.974  22.712   0.059
90434W        W56865  44.310  26.250   2.264
90435W        W56866  44.250  42.062   0.227
90436W        W56867  14.020   2.274   0.863
90437W        W56868  36.474  16.539  14.219
90438W        W56869   5.268  13.285   3.365
90439W        W56870  33.916  42.682  14.406
90440W        W56871   9.850  15.811  10.711
90441W        W56872   5.663   5.612  13.464
90442W        W56873  10.246  15.555  10.498
90443W        W56874  39.002  29.940   4.091
90444W        W56875  11.712   6.202   0.062
90445W        W56876  15.746  36.076   3.236
90446W        W56877  20.806  34.314  12.762
90447W        W56878  26.967  25.312  13.965
90448W        W56879  21.070  26.711  11.460
90449W        W56880  31.970  10.644  11.696
90450W        W56881  35.441   3.539   4.641
90451W        W56882  24.653  14.308  14.324
90452W        W56883  38.876  31.928   0.998
90453W        W56884  17.021   5.259   1.710
90454W        W56885  30.233  27.015   4.394
90455W        W56886  25.800  13.804  12.117
90456W        W56887  40.754  26.148  13.384
90457W        W56888  14.591  16.785  11.372
90458W        W56889  12.084   8.764  14.729
90459W        W56890  29.153  30.087   0.065
90460W        W56891  29.133  28.658  11.655
90461W        W56892   2.818  38.298   2.779
90462W        W56893  19.230   6.779   1.316
90463W        W56894   4.904   3.966   4.746
90464W        W56895  44.074  29.754   2.509
90465W        W56896  18.140  39.704  11.631
90466W        W56897  27.998   5.344   2.829
90467W        W56898  14.066  27.040   3.124
90468W        W56899  12.428  32.915   3.938
90469W        W56900  32.958  13.627  14.909
90470W        W56901  14.355   1.684  13.488
90471W        W56902  10.915  27.117  10.727
90472W        W56903  42.425  37.552   0.688
90473W        W56904  19.635  35.750  10.473
90474W        W56905   8.282   6.747   2.222
90475W        W56906  37.488  21.097   3.782
90476W        W56907  10.376  22.764   3.173
90477W        W56908  37.553  25.535   1.864
90478W        W56909   0.430  12.111  11.633
90479W        W56910  12.781   2.635  12.949
90480W        W56911  11.090  28.175   2.962
90481W        W56912  39.451  10.824  12.389
90482W        W56913   1.926  38.272   1.799
90483W        W56914   4.022  39.057  14.814
90484W        W56915  21.642  14.530   2.846
90485W        W56916  38.495  34.807  14.808
90486W        W56917  23.345  19.284  13.855
90487W        W56918   7.774  29.608   2.378
90488W        W56919  29.342  12.771  11.175
90489W        W56920   7.550  42.018  14.953
90490W        W56921   8.398  21.637   4.530
90491W        W56922  11.689  21.588  11.950
90492W        W56923  41.386  42.499   1.759
90493W        W56924  40.955  19.555  13.889
90494W        W56925   4.392  27.090  12.551
90495W        W56926  13.704  41.965  14.266
90496W        W56927   3.538  40.525  13.285
90497W        W56928  32.958   3.041   3.784
90498W        W56929   5.906  11.682   3.389
90499W        W56930   3.326   9.593  13.506
90500W        W56931  20.751  21.753  10.500
90501W        W56932  13.582  41.473   2.976
90502W        W56933   1.686   7.485  12.877
90503W        W56934  28.712  15.698   1.776
90504W        W56935  12.938  36.287  14.547
90505W        W56936   1.481  21.832  11.172
90506W        W56937  44.082  38.145   0.341
90507W        W56938  39.657   0.804  13.047
90508W        W56939  25.185  38.541  10.632
90509W        W56940   2.949  35.209  11.327
90510W        W56941  37.677  18.303   2.302
90511W        W56942   2.678  11.848   1.746
90512W        W56943  24.779  30.957  12.415
90513W        W56944  26.967  21.037  11.572
90514W        W56945  18.998  19.538  12.866
90515W        W56946  17.642  19.732  13.168
90516W        W56947   6.580  22.358  10.108
90517W        W56948   9.840  14.716  13.425
90518W        W56949  11.660  31.425   4.142
90519W        W56950  33.343  42.866  14.884
90520W        W56951   8.725   4.006   1.893
90521W        W56952  26.190  12.680  13.477
90522W        W56953   3.974   0.398   4.647
90523W        W56954  40.454  13.449   4.755
90524W        W56955   4.291  43.810  10.889
90525W        W56956  15.579  31.640  13.855
90526W        W56957  44.275   7.286  11.860
90527W        W56958  13.608   3.352   0.353
90528W        W56959  38.752  42.976   0.563
90529W        W56960  27.826  13.133   1.886
90530W        W56961  42.872  16.584   0.907
90531W        W56962  30.012  21.224  11.938
90532W        W56963  31.444  29.650  12.560
90533W        W56964  40.421  13.194   1.006
90534W        W56965   1.429  14.312  14.963
90535W        W56966  20.603  21.106   3.321
90536W        W56967  42.475  22.481  11.632
90537W        W56968  14.061   0.808  11.309
90538W        W56969  14.244  32.866   2.687
90539W        W56970  22.729  13.840  12.977
90540W        W56971   1.281  20.545   3.843
90541W        W56972  28.836  37.802  10.668
90542W        W56973  15.827  38.137   4.403
90543W        W56974  28.515  41.559   2.704
90544W        W56975  30.464  13.771   4.087
90545W        W56976   1.938  23.503  10.713
90546W        W56977  36.835  21.419  14.373
90547W        W56978   8.388   2.965   4.034
90548W        W56979  28.752  19.803  10.831
90549W        W56980   1.356  27.172   3.357
90550W        W56981   7.322  32.366   4.539
90551W        W56982  23.054  39.687  12.821
90552W        W56983  32.052  25.680   1.929
90553W        W56984  14.932   1.768   3.087
90554W        W56985  12.361  38.629  13.470
90555W        W56986  28.608   3.527   1.533
90556W        W56987  32.552  23.950  10.772
90557W        W56988   2.190   8.298  13.817
90558W        W56989  25.424  22.166  14.244
90559W        W56990  20.980  19.706  10.230
90560W        W56991  21.841  23.682  14.978
90561W        W56992  23.571  25.549   2.385
90562W        W56993  26.012  31.691  13.515
90563W        W56994  42.879  13.778  14.555
90564W        W56995   5.469  18.344   4.043
90565W        W56996   1.313  36.453  11.883
90566W        W56997   2.028  39.165  13.172
90567W        W56998  12.730  35.038   0.379
90568W        W56999  32.898  20.008   3.836
90569W        W57000  32.116  20.635   0.542
90570W        W57001  44.283  40.443  12.935
90571W        W57002  40.139  29.201  13.561
90572W        W57003   5.698   2.298  11.884
90573W        W57004  37.977  39.509  14.471
90574W        W57005  32.468   1.418  12.484
90575W        W57006   6.774  11.878  10.524
90576W        W57007  40.081   0.649  12.822
90577W        W57008  44.247  18.917   4.057
90578W        W57009  35.458  26.750   3.611
90579W        W57010  28.719  38.804  14.376
90580W        W57011   4.208  11.597   0.153
90581W        W57012  19.623  38.117   2.217
90582W        W57013  11.083  41.708  14.312
90583W        W57014  43.904  26.711   2.734
90584W        W57015  42.448  44.078  13.425
90585W        W57016  16.723  24.595   2.841
90586W        W57017  17.427   7.463   0.491
90587W        W57018  10.704  23.785  10.745
90588W        W57019  13.545   0.369  13.407
90589W        W57020  16.304  36.003  14.371
90590W        W57021  18.617  35.657   3.712
90591W        W57022  12.886   7.818   1.214
90592W        W57023  40.755  33.681  10.614
90593W        W57024  11.284  19.104  10.688
90594W        W57025  31.636  36.360   3.152
90595W        W57026  25.921  23.601  13.445
90596W        W57027   4.368  36.147   4.737
90597W        W57028  38.317  36.341  14.956
90598W        W57029   9.749   5.642  13.978
90599W        W57030  26.735   9.153   5.394
90600W        W57031  41.368  37.864   0.908
90601W        W57032  35.489  20.386   3.656
90602W        W57033  28.150  11.582   0.985
90603W        W57034  14.157  29.920   2.430
90604W        W57035  15.147   7.059  10.269
90605W        W57036  14.170  11.586  13.336
90606W        W57037   0.811   8.968   0.813
90607W        W57038  21.003   9.588   1.268
90608W        W57039  16.569  30.132  13.956
90609W        W57040  26.574  34.372   4.159
90610W        W57041  39.451  29.702  14.846
90611W        W57042  19.128   8.585  14.196
90612W        W57043  12.963  23.182   4.409
90613W        W57044   9.082  23.076   1.713
90614W        W57045  40.608  35.535  13.096
90615W        W57046  42.355  22.109  13.062
90616W        W57047   9.792  17.852   1.365
90617W        W57048  12.871   4.175  11.608
90618W        W57049  36.934   5.713   2.414
90619W        W57050  42.160  34.793  11.815
90620W        W57051  28.583   6.649   1.926
90621W        W57052  18.390  25.061  12.394
90622W        W57053  15.169  31.995  14.782
90623W        W57054  17.920  16.644   5.261
90624W        W57055  12.275  12.577  14.146
90625W        W57056  28.970  13.441  13.879
90626W        W57057  23.621  36.953  12.621
90627W        W57058  16.871   8.683  12.804
90628W        W57059  35.935  38.493   5.197
90629W        W57060  40.805  17.235  13.083
90630W        W57061  42.757  27.557   2.459
90631W        W57062   6.346   1.257  11.611
90632W        W57063  38.402  29.984   0.966
90633W        W57064  20.035  21.017   0.769
90634W        W57065   6.090  36.132  11.667
90635W        W57066   6.485  34.011   2.440
90636W        W57067  38.971  13.684   0.438
90637W        W57068  37.121  24.519  12.732
90638W        W57069  43.724  31.307   1.675
90639W        W57070  40.939  39.681   5.049
90640W        W57071  26.921  41.431  10.705
90641W        W57072   2.749  32.010   1.314
90642W        W57073  19.025  34.729   3.630
90643W        W57074  21.088  23.309  14.396
90644W        W57075  41.899  21.085  13.649
90645W        W57076  18.641  33.407  11.078
90646W        W57077  12.615  29.118  12.538
90647W        W57078  13.690  31.132  13.432
90648W        W57079  38.528   5.375   0.919
90649W        W57080  28.395  34.909  12.792
90650W        W57081  43.769   5.406  13.403
90651W        W57082   1.781  14.320   2.285
90652W        W57083  10.977  22.277  14.846
90653W        W57084  36.337  24.045   2.764
90654W        W57085  40.010   3.788  12.488
90655W        W57086  22.046   1.392   3.827
90656W        W57087   8.402  24.120   1.075
90657W        W57088  44.671  10.919  14.455
90658W        W57089  32.623   9.752   3.275
90659W        W57090  27.139  25.460   3.659
90660W        W57091  15.365  13.337  12.536
90661W        W57092  23.588  14.219   2.427
90662W        W57093  36.104  14.193   3.745
90663W        W57094  27.333  15.877  12.490
90664W        W57095  28.007  43.567   2.747
90665W        W57096   8.175   9.359  14.762
90666W        W57097  39.398  27.285   1.025
90667W        W57098  25.825  17.765   3.174
90668W        W57099  17.076  32.473   4.176
90669W        W57100  17.685  36.154  12.485
90670W        W57101  19.235  11.809   2.388
90671W        W57102  21.830   2.915  11.118
90672W        W57103  39.403   6.481  14.273
90673W        W57104  28.050  29.213   2.398
90674W        W57105  28.386  38.979   1.198
90675W        W57106  41.095  20.854   4.334
90676W        W57107   5.784   1.043  14.194
90677W        W57108  26.434  21.597   3.958
90678W        W57109  14.320  15.661  12.140
90679W        W57110  20.287  23.845   1.267
90680W        W57111  30.600  42.950  12.876
90681W        W57112  39.941   7.726  11.581
90682W        W57113  33.323  32.457   4.926
90683W        W57114  11.128  36.466  14.869
90684W        W57115  18.083  21.993   2.125
90685W        W57116   2.999  18.317   0.027
90686W        W57117  42.398   1.553   1.746
90687W        W57118  23.992   1.385   1.710
90688W        W57119  43.547  23.153  14.730
90689W        W57120  10.096  41.335   2.312
90690W        W57121  28.829  35.001   1.603
90691W        W57122   2.816  22.655   3.133
90692W        W57123  33.019   9.367   3.401
90693W        W57124  10.098   2.419   3.372
90694W        W57125  33.867  18.279   0.037
90695W        W57126  22.209  16.124  10.508
90696W        W57127   5.766  36.158   2.881
90697W        W57128  27.934  24.595   3.279
90698W        W57129  29.159   9.410   4.619
90699W        W57130  44.021  12.583   4.169
90700W        W57131  36.194  28.468  13.454
90701W        W57132  41.003  16.594  10.758
90702W        W57133   4.640   3.964  14.601
90703W        W57134  38.093  42.477  14.047
90704W        W57135  30.214   9.781   2.360
90705W        W57136  17.669  19.534  11.751
90706W        W57137  42.842  40.484   1.866
90707W        W57138  15.158  15.250  13.575
90708W        W57139  38.270   4.772  12.189
90709W        W57140   8.255  36.995   3.081
90710W        W57141  42.381  44.816   1.310
90711W        W57142  28.593   3.918  13.213
90712W        W57143  36.366  40.241  13.518
90713W        W57144   0.216   1.422  10.686
90714W        W57145  38.524  44.330   0.304
90715W        W57146  13.561  36.999  10.679
90716W        W57147  39.317  33.846  11.713
90717W        W57148  29.556  13.342  11.229
90718W        W57149  19.876  28.363   4.084
90719W        W57150  24.747  22.374   5.545
90720W        W57151  31.347  41.294  13.490
90721W        W57152  30.453  10.216   2.242
90722W        W57153  17.256  26.150  11.064
90723W        W57154  28.909  44.334  12.186
90724W        W57155  24.749  36.051   4.584
90725W        W57156  34.907   9.131  13.399
90726W        W57157  27.499  26.650  13.125
90727W        W57158  41.865   4.918   1.631
90728W        W57159  34.814   0.924   4.124
90729W        W57160   1.161  11.417   3.284
90730W        W57161  30.494  41.869  13.335
90731W        W57162  36.352  44.816   4.048
90732W        W57163  26.358  40.255   2.699
90733W        W57164  33.471  26.663  11.645
90734W        W57165  44.754  21.167   4.605
90735W        W57166   3.304  37.494   0.769
90736W        W57167  24.604   8.288   4.686
90737W        W57168   4.388  20.772  10.252
90738W        W57169  32.424  43.382  13.955
90739W        W57170  36.423  44.909   0.009
90740W        W57171  31.130  32.860   0.890
90741W        W57172  44.372   4.254   2.702
90742W        W57173  39.300  42.851   3.868
90743W        W57174  40.546  33.215   2.322
90744W        W57175  43.264  19.730  13.973
90745W        W57176  20.451  38.622  14.305
90746W        W57177  18.021  25.740  13.348
90747W        W57178   4.238  26.031   0.029
90748W        W57179  14.384  43.677  12.070
90749W        W57180  40.858   6.485   1.069
90750W        W57181  16.051  43.261   3.726
90751W        W57182  19.660  19.142   1.786
90752W        W57183   1.176  31.529  11.826
90753W        W57184  37.540  29.423  13.756
90754W        W57185  25.986  33.426  12.452
90755W        W57186  38.011  17.566  11.807
90756W        W57187  30.015  15.195  13.233
90757W        W57188  18.389  12.606  13.018
90758W        W57189  43.256  19.190   3.740
90759W        W57190  31.998  41.477  12.117
90760W        W57191  23.469  12.657   1.619
90761W        W57192  25.716  41.425   1.945
90762W        W57193  10.857  30.497   1.146
90763W        W57194   9.912  15.733  14.404
90764W        W57195   6.416  35.127   0.231
90765W        W57196  30.190  26.677  12.099
90766W        W57197  26.232   0.813  13.418
90767W        W57198  31.734  21.150  12.749
90768W        W57199   6.620  12.576   4.329
90769W        W57200   1.325   0.356   2.212
90770W        W57201  19.002  40.281  11.639
90771W        W57202  25.494  28.279   1.591
90772W        W57203  10.209  30.719  11.510
90773W        W57204  22.537  15.163   0.371
90774W        W57205  15.116  18.600  10.680
90775W        W57206  10.159   6.477   1.140
90776W        W57207   4.189  38.563   1.924
90777W        W57208   8.007   6.949  12.839
90778W        W57209  18.112  23.198   2.739
90779W        W57210  14.221  25.996  13.009
90780W        W57211   2.309  17.520  14.439
90781W        W57212  25.891  32.527  13.567
90782W        W57213  28.800  26.822  14.895
90783W        W57214  10.130  13.134  14.876
90784W        W57215  41.735  22.989   2.047
90785W        W57216   9.560   2.845  14.454
90786W        W57217   1.752  27.046  13.909
90787W        W57218   2.762   7.279  11.344
90788W        W57219  12.257   2.235   0.282
90789W        W57220  42.233  38.565  13.701
90790W        W57221  38.908  12.803   4.551
90791W        W57222  19.092  38.551  12.909
90792W        W57223  29.551   0.787   1.007
90793W        W57224  30.673  21.442   1.419
90794W        W57225  23.999   2.836  13.895
90795W        W57226  18.242  17.454  13.005
90796W        W57227   7.029  21.861   0.857
90797W        W57228  42.723   2.828   1.781
90798W        W57229   1.247  20.569   4.491
90799W        W57230  25.204  40.117  12.987
90800W        W57231  25.647  31.982   2.897
90801W        W57232  41.846  20.590   4.800
90802W        W57233  16.413  36.105   2.116
90803W        W57234  26.273  31.262  10.581
90804W        W57235  16.733   1.887  12.927
90805W        W57236   8.422  22.977  10.640
90806W        W57237  23.960  15.532   3.213
90807W        W57238  30.152  20.494   4.546
90808W        W57239   1.041  32.050   4.440
90809W        W57240  18.673  37.791   2.923
90810W        W57241   3.750  16.230  11.176
90811W        W57242  20.813   0.657   2.896
90812W        W57243   8.809   4.398  13.976
90813W        W57244   9.145  43.024  11.116
90814W        W57245   6.293  44.980  11.950
90815W        W57246  16.298  33.279   1.691
90816W        W57247  23.994   3.668   1.392
90817W        W57248  10.879  25.458   1.521
90818W        W57249  31.056  17.720  10.612
90819W        W57250  34.867  35.840   3.661
90820W        W57251  28.722   3.655  10.993
90821W        W57252   6.388   1.839  12.306
90822W        W57253  39.422  28.669  12.608
90823W        W57254  32.379  41.489  13.427
90824W        W57255  41.024  23.955  11.454
90825W        W57256  39.250   2.389   2.381
90826W        W57257   6.949  44.860   0.264
90827W        W57258  12.969  41.439   3.683
90828W        W57259   4.860   2.571  13.316
90829W        W57260  16.710  15.804   3.406
90830W        W57261   2.557  26.717  14.815
90831W        W57262   3.417  19.463   4.564
90832W        W57263  24.550  16.194   3.522
90833W        W57264  22.775  19.479   3.169
90834W        W57265   9.596   5.551  11.604
90835W        W57266   5.194  20.793  12.847
90836W        W57267  17.581   7.247  13.802
90837W        W57268  17.246  29.648  11.962
90838W        W57269   0.286  40.620  13.857
90839W        W57270  18.726   6.919  12.031
90840W        W57271  21.772  26.220  11.996
90841W        W57272   9.439  13.161  11.270
90842W        W57273   8.203   2.270  11.530
90843W        W57274   2.892  38.436   1.759
90844W        W57275  23.071  41.065  14.375
90845W        W57276  44.432  22.830  12.504
90846W        W57277  22.303  24.304  14.470
90847W        W57278   6.218  22.508   3.655
90848W        W57279  15.354  23.943   3.196
90849W        W57280   7.155  11.763   2.136
90850W        W57281   6.730  30.436  13.900
90851W        W57282   8.479   1.998  13.557
90852W        W57283  25.918   9.303   0.577
90853W        W57284  26.597  29.923   4.757
90854W        W57285  28.094  33.423   0.101
90855W        W57286  44.809  34.269   3.589
90856W        W57287  33.354  15.287  13.882
90857W        W57288  18.583   6.884   0.039
90858W        W57289  25.401  14.038  11.701
90859W        W57290   3.013  16.318  12.427
90860W        W57291  17.368  14.141   3.593
90861W        W57292   8.173  22.477  13.974
90862W        W57293   8.599  39.943  12.903
90863W        W57294   0.327  37.386  10.637
90864W        W57295  40.094  21.701   4.022
90865W        W57296  25.493  38.111   2.908
90866W        W57297  36.825   2.479  12.092
90867W        W57298  40.392   2.664  13.541
90868W        W57299  24.520   5.392   3.877
90869W        W57300  16.748  22.994  14.747
90870W        W57301  32.525  35.415   4.225
90871W        W57302  35.888  39.239  14.344
90872W        W57303   6.671  13.575  12.867
90873W        W57304  32.557  17.801   1.876
90874W        W57305   2.315   3.692   0.261
90875W        W57306  35.758  43.201  11.117
90876W        W57307  22.061  25.063   2.742
90877W        W57308  14.878  14.460   4.152
90878W        W57309  15.221   0.782   3.977
90879W        W57310  20.988  29.885   2.574
90880W        W57311  27.965  11.417   0.505
90881W        W57312  23.522  37.549  10.353
90882W        W57313  10.956  42.635   1.400
90883W        W57314  43.825  29.390   1.199
90884W        W57315  10.664  33.701   2.812
90885W        W57316  38.804   8.428   2.702
90886W        W57317   2.847   2.915  11.574
90887W        W57318  22.112  19.016   1.214
90888W        W57319  37.467   8.904  11.965
90889W        W57320  21.950  29.406   3.708
90890W        W57321  40.837   5.150  13.463
90891W        W57322  13.921   5.954  12.140
90892W        W57323  20.748   6.963   4.205
90893W        W57324  29.950  31.463   2.160
90894W        W57325  18.764  20.388  11.189
90895W        W57326   4.888   5.940   4.580
90896W        W57327   7.912  41.496   3.901
90897W        W57328  25.175  24.097  13.755
90898W        W57329   6.273  41.744   3.180
90899W        W57330  15.548  34.974  12.617
90900W        W57331  17.321   1.148  14.539
90901W        W57332  32.972  40.040  11.995
90902W        W57333  15.742  31.305   2.700
90903W        W57334  40.559  16.286  14.934
90904W        W57335  16.845   0.205   2.857
90905W        W57336   4.250  27.742  13.954
90906W        W57337   0.160  20.206  12.468
90907W        W57338  27.002   3.561   4.334
90908W        W57339  29.180   1.440  11.575
90909W        W57340  38.576  38.079   1.487
90910W        W57341  44.881  35.941   1.697
90911W        W57342  43.883   4.393   1.566
90912W        W57343  11.616  23.327   2.624
90913W        W57344  22.717  37.661  11.539
90914W        W57345  18.978  43.788   0.846
90915W        W57346  32.929  27.141  11.843
90916W        W57347  18.283  27.940  13.992
90917W        W57348  26.754   3.041   4.135
90918W        W57349  29.579   3.327  10.445
90919W        W57350  15.081  44.346   3.408
90920W        W57351   6.820   9.938  13.963
90921W        W57352   8.796   3.723   3.285
90922W        W57353  39.095  29.610   4.798
90923W        W57354  22.108   6.943  11.597
90924W        W57355   5.535  42.774  14.273
90925W        W57356  39.012  15.531   4.585
90926W        W57357  23.388  10.565  10.761
90927W        W57358  36.879  12.295   3.877
90928W        W57359  35.523   7.467   0.798
90929W        W57360  23.102  27.954  10.723
90930W        W57361  41.811   4.408  12.999
90931W        W57362  11.088  12.157   0.017
90932W        W57363  39.070  32.117  11.091
90933W        W57364  19.453  34.205  14.463
90934W        W57365   2.567  22.901   1.249
90935W        W57366  37.125  30.255   1.342
90936W        W57367  23.139   6.594   2.711
90937W        W57368  31.142   6.426  14.015
90938W        W57369  17.810  21.673   1.810
90939W        W57370  32.830   5.045   5.097
90940W        W57371  43.397  26.609  12.892
90941W        W57372  38.802  30.572  14.973
90942W        W57373  44.742   6.688  10.847
90943W        W57374  15.803  16.068  14.298
90944W        W57375  29.974   6.133  12.284
90945W        W57376   7.747  44.481  11.525
90946W        W57377  13.177  31.895  11.608
90947W        W57378   7.320   2.324  12.512
90948W        W57379  44.234  35.426  14.267
90949W        W57380   8.690  15.678   2.794
90950W        W57381   8.762  33.553   0.689
90951W        W57382  34.557  17.494   4.945
90952W        W57383  24.618  10.912   3.657
90953W        W57384  36.442  22.150   3.432
90954W        W57385  10.697  36.282  13.969
90955W        W57386  17.695  25.869   1.724
90956W        W57387  43.310   5.171  11.194
90957W        W57388  33.317  36.544  12.925
90958W        W57389  27.095  38.356   0.032
90959W        W57390   0.450   9.781  11.393
90960W        W57391  44.205  27.631  14.496
90961W        W57392   9.306   4.980  14.714
90962W        W57393   9.642  23.574   3.638
90963W        W57394  31.853  41.687  10.757
90964W        W57395  34.519  35.422   2.766
90965W        W57396   3.490  11.945   4.094
90966W        W57397  29.487  32.981  13.905
90967W        W57398  24.174   0.160  12.183
90968W        W57399   0.977  26.023   0.798
90969W        W57400  31.945  35.462   1.176
90970W        W57401   3.137  34.596  12.612
90971W        W57402  39.822  40.862  11.574
90972W        W57403  16.963  37.108  13.059
90973W        W57404   2.922  43.917   1.340
90974W        W57405  36.920   0.497  11.619
90975W        W57406   4.273  38.853  12.857
90976W        W57407  20.852  26.558   4.567
90977W        W57408   1.980  42.732  12.704
90978W        W57409  19.116  13.258  13.044
90979W        W57410  10.628  44.992  11.065
90980W        W57411  40.361  17.213  14.969
90981W        W57412   9.975   8.216  11.268
90982W        W57413  30.576   5.335   3.313
90983W        W57414  44.479  37.404  14.767
90984W        W57415  23.559  20.317  11.014
90985W        W57416  39.528  43.298  12.001
90986W        W57417   3.485  18.785  11.020
90987W        W57418  38.455  37.346  14.767
90988W        W57419  39.913   1.920  12.111
90989W        W57420  43.636  11.179  12.278
90990W        W57421  18.953   7.407   3.133
90991W        W57422  37.828  31.562   0.208
90992W        W57423  39.050  18.426   9.836
90993W        W57424  13.661  16.866   0.700
90994W        W57425  17.235   7.214   3.307
90995W        W57426  27.387  37.827   2.978
90996W        W57427  14.223  22.689   4.835
90997W        W57428   4.288  35.425  12.540
90998W        W57429  29.272  42.269   2.787
90999W        W57430  29.408  41.915   2.399
91000W        W57431  22.394   6.990   3.686
91001W        W57432   4.046   7.402  14.371
91002W        W57433   0.777  19.048   2.363
91003W        W57434  39.688  35.521  11.674
91004W        W57435  23.156  24.122  14.601
91005W        W57436  28.612  43.036   1.336
91006W        W57437   1.720  35.558   2.432
91007W        W57438  37.401  13.744   3.247
91008W        W57439  37.951  35.489   1.730
91009W        W57440  12.106   5.276  13.962
91010W        W57441  24.534  33.437   1.268
91011W        W57442  34.319   9.805   1.695
91012W        W57443  27.585  37.015  13.498
91013W        W57444  22.257  41.461  12.830
91014W        W57445  39.986   1.120  13.968
91015W        W57446  16.220   0.042  14.858
91016W        W57447  13.329  36.184   3.075
91017W        W57448  13.127   6.846   2.156
91018W        W57449  26.272  21.527  10.420
91019W        W57450  37.902  31.341  12.296
91020W        W57451  21.004  28.612   1.816
91021W        W57452  31.620  41.903   1.008
91022W        W57453  35.657  40.998  14.314
91023W        W57454  22.422  13.646   0.551
91024W        W57455  30.491  32.642  10.458
91025W        W57456   5.607   1.361   3.602
91026W        W57457  22.624  12.853  11.069
91027W        W57458  24.106  13.101   3.219
91028W        W57459   1.429   3.533  10.977
91029W        W57460  12.650  25.081   9.865
91030W        W57461   4.006   7.324   3.991
91031W        W57462  19.071  43.285  11.298
91032W        W57463  13.595   0.691  11.105
91033W        W57464  37.902  40.519   3.280
91034W        W57465  10.812  41.192   0.587
91035W        W57466  18.527  39.142   3.133
91036W        W57467  28.566  11.314   2.333
91037W        W57468  19.165   4.833  10.674
91038W        W57469   2.881  42.847  10.640
91039W        W57470  25.037   8.808   1.377
91040W        W57471   7.458  11.133  11.611
91041W        W57472  29.951  16.004   0.382
91042W        W57473  30.125   4.760   4.003
91043W        W57474  12.217  35.459  14.865
91044W        W57475  44.657  11.197  14.890
91045W        W57476  42.316  42.497   2.713
91046W        W57477  23.508  22.297  11.205
91047W        W57478  14.289  14.703   2.106
91048W        W57479  22.152  35.569  14.475
91049W        W57480  28.676  29.217  13.985
91050W        W57481  37.802  34.494  11.092
91051W        W57482  25.568  14.723   3.119
91052W        W57483   4.766  17.236   3.797
91053W        W57484  12.770  11.899   2.809
91054W        W57485  40.952   2.497   3.725
91055W        W57486  36.950  28.091   1.843
91056W        W57487  42.653  32.209  10.221
91057W        W57488  32.626   7.137   3.113
91058W        W57489  19.020  38.336   4.104
91059W        W57490  38.911  29.569  10.821
91060W        W57491   6.601  12.730  14.869
91061W        W57492  36.165   5.410  14.534
91062W        W57493  33.558   6.521  11.540
91063W        W57494  13.745  42.849   0.767
91064W        W57495  15.601  40.075   0.812
91065W        W57496   5.890   4.247  13.263
91066W        W57497  18.788  12.540  12.083
91067W        W57498  17.383   4.872  14.730
91068W        W57499   0.976  18.039   2.028
91069W        W57500   4.879  13.916   1.890
91070W        W57501  38.828  26.181  14.622
91071W        W57502  13.440  27.726  11.489
91072W        W57503  42.297  20.693  14.026
91073W        W57504  42.972  31.698   0.553
91074W        W57505  10.328   8.791   0.495
91075W        W57506  38.743   7.903   4.901
91076W        W57507   4.445  24.122  11.441
91077W        W57508  31.089  25.610   4.594
91078W        W57509   2.428   9.312   2.371
91079W        W57510   0.341  39.865  14.265
91080W        W57511  42.103  35.868  11.138
91081W        W57512   5.134  38.223  13.888
91082W        W57513  43.408  15.884  14.482
91083W        W57514  30.229  21.918   4.136
91084W        W57515  30.502  37.334  14.480
91085W        W57516  24.728  34.877  10.721
91086W        W57517   6.559   4.784   0.288
91087W        W57518  34.589  37.051   1.767
91088W        W57519  31.966  29.401   2.140
91089W        W57520  27.684  16.378  11.996
91090W        W57521  12.857  25.053   3.211
91091W        W57522  28.464  30.417   2.890
91092W        W57523  38.486  35.076  11.156
91093W        W57524  16.030  11.582   2.752
91094W        W57525  21.373  24.156   4.603
91095W        W57526  20.407  29.918   4.963
91096W        W57527  20.714   4.241   1.621
91097W        W57528   2.206  26.870  11.073
91098W        W57529  41.223  40.862  11.177
91099W        W57530  16.296  19.109   3.057
91100W        W57531  11.810   2.888  14.863
91101W        W57532  32.404  37.061   2.643
91102W        W57533   4.992  37.849   3.611
91103W        W57534  39.830  42.953   1.200
91104W        W57535  39.717   4.270  14.897
91105W        W57536  42.585  33.536   3.666
91106W        W57537  35.091  18.714  11.233
91107W        W57538  20.812  34.871  12.717
91108W        W57539  44.762  35.553  11.479
91109W        W57540  12.335  17.612  14.636
91110W        W57541  24.271  17.155   0.315
91111W        W57542  26.481  41.085   3.921
91112W        W57543   6.474   9.704   0.834
91113W        W57544  37.890  39.980   3.217
91114W        W57545  29.116   5.688   0.449
91115W        W57546   3.591  25.223   2.379
91116W        W57547  21.540  22.224   2.706
91117W        W57548  40.358  37.348   3.296
91118W        W57549   6.346  29.919  13.517
91119W        W57550   3.281  43.219   2.498
91120W        W57551  28.936  24.567  14.415
91121W        W57552   9.361  22.036   0.881
91122W        W57553  24.719  22.145   3.295
91123W        W57554  27.653   7.965   0.338
91124W        W57555  17.553   4.444   4.621
91125W        W57556  34.076  34.972  11.479
91126W        W57557  43.963  14.659   0.621
91127W        W57558  11.456  15.459   3.439
91128W        W57559  29.145   5.758   3.629
91129W        W57560  20.102  44.481   4.799
91130W        W57561  28.257  14.054   9.749
91131W        W57562  40.943  26.964   0.900
91132W        W57563  23.039  15.578   2.279
91133W        W57564  26.526  33.005   4.375
91134W        W57565  12.346  22.062   3.586
91135W        W57566  11.431  32.532   1.959
91136W        W57567  13.301  27.225  11.538
91137W        W57568  42.828   9.273   4.150
91138W        W57569  24.992  19.794   3.933
91139W        W57570   5.928  27.250  13.228
91140W        W57571  34.758  14.666   4.214
91141W        W57572  19.356  40.902   0.726
91142W        W57573  19.310  39.522   2.576
91143W        W57574  30.165  41.784   2.814
91144W        W57575  17.336  37.563  13.880
91145W        W57576  11.153   5.624   0.167
91146W        W57577  25.621   4.750  12.008
91147W        W57578   9.663   9.234  12.566
91148W        W57579   0.193  27.109  13.020
91149W        W57580  26.472   1.931   3.432
91150W        W57581   1.628  30.967  12.576
91151W        W57582  16.236   0.009   0.385
91152W        W57583  44.418   9.087   0.402
91153W        W57584  23.679  20.187  12.805
91154W        W57585  30.488  38.304   4.250
91155W        W57586   6.795  36.251  14.068
91156W        W57587   6.661  23.264   4.917
91157W        W57588   1.037  25.563  12.466
91158W        W57589   1.213  22.722   1.850
91159W        W57590   5.741   6.675   3.606
91160W        W57591  25.980  31.680   1.280
91161W        W57592   1.266  32.012  11.640
91162W        W57593  35.463  14.958  13.466
91163W        W57594  26.550  41.084  10.576
91164W        W57595  37.558  34.764   0.808
91165W        W57596   0.756  23.551  11.297
91166W        W57597  36.938  30.873  12.062
91167W        W57598  24.002  36.624   2.054
91168W        W57599   4.867   1.804   0.689
91169W        W57600  23.601  24.828   0.694
91170W        W57601  40.996  33.001   4.862
91171W        W57602  32.968  23.144   4.120
91172W        W57603   5.438  13.685   1.658
91173W        W57604   5.687   2.217  14.434
91174W        W57605   2.721  32.024  14.456
91175W        W57606  34.653  20.560   4.659
91176W        W57607  31.514  16.207   1.745
91177W        W57608  30.465   9.756   2.848
91178W        W57609  36.422  39.461   3.277
91179W        W57610   9.165   4.850  12.810
91180W        W57611  40.757  40.910   3.715
91181W        W57612  43.521  28.202  13.914
91182W        W57613  35.222  10.501   0.202
91183W        W57614  34.773  29.489   3.170
91184W        W57615  20.995   2.920   4.020
91185W        W57616  41.532  31.640   2.714
91186W        W57617   0.952  12.643  10.890
91187W        W57618  33.785   7.605  14.441
91188W        W57619  24.616  37.329   3.976
91189W        W57620  17.275  37.327  13.406
91190W        W57621  12.278   2.531   0.722
91191W        W57622  28.624  18.248   1.382
91192W        W57623  26.690  21.625  13.502
91193W        W57624  35.394   5.650   4.248
91194W        W57625  20.285  44.824   2.618
91195W        W57626  19.015  41.642  14.838
91196W        W57627  36.574  22.697   2.723
91197W        W57628  20.256  23.489  11.560
91198W        W57629  33.863   8.719   3.895
91199W        W57630  32.174  31.973  11.037
91200W        W57631  35.022  39.958  14.502
91201W        W57632  25.216  37.549  11.656
91202W        W57633  41.503   9.021   3.773
91203W        W57634  15.152  43.417   3.894
91204W        W57635  20.516  17.323  11.809
91205W        W57636   7.781   2.848  11.030
91206W        W57637   7.081   8.419   4.716
91207W        W57638  26.429  40.730  11.448
91208W        W57639   9.112  23.752   0.895
91209W        W57640   5.135  14.590  14.694
91210W        W57641  28.371  38.561  13.775
91211W        W57642  44.004  25.968  12.852
91212W        W57643  37.413  31.155  10.296
91213W        W57644   4.723  33.742   3.388
91214W        W57645  25.003  32.209  13.123
91215W        W57646  22.733  23.753  14.737
91216W        W57647   6.272  30.904  12.859
91217W        W57648  28.885  21.365   2.227
91218W        W57649  28.082   4.465  12.843
91219W        W57650  13.512  35.450   0.362
91220W        W57651  12.969   0.174  11.985
91221W        W57652  13.290  13.156   1.662
91222W        W57653  37.452   7.417   0.713
91223W        W57654  31.277  43.702   3.778
91224W        W57655  26.122  31.577  13.992
91225W        W57656  34.292  30.095  11.116
91226W        W57657  30.209  24.426   3.173
91227W        W57658   8.505  41.308   2.887
91228W        W57659  41.069  43.952  12.477
91229W        W57660  37.260  20.713   1.908
91230W        W57661  23.344  14.168   1.212
91231W        W57662  26.422  12.215  13.365
91232W        W57663  11.938  43.968   3.646
91233W        W57664  30.053  23.506  11.613
91234W        W57665   8.551   0.879   4.660
91235W        W57666   9.398  25.003   0.312
91236W        W57667   6.679  43.158   4.146
91237W        W57668   7.123  44.286   2.583
91238W        W57669  25.192  39.594  10.654
91239W        W57670  28.017  42.889   4.430
91240W        W57671  19.958   9.111  14.363
91241W        W57672  20.796  12.872  12.088
91242W        W57673   6.380  12.967   4.620
91243W        W57674  34.496  26.607   4.382
91244W        W57675  37.640  23.186  13.747
91245W        W57676  14.201  23.932  14.942
91246W        W57677  39.498  15.874   1.305
91247W        W57678  26.303  43.048   0.705
91248W        W57679  36.108  22.814   2.481
91249W        W57680   8.690  14.583   0.904
91250W        W57681  29.913  27.660   0.260
91251W        W57682  36.947   0.993  11.768
91252W        W57683   9.845  22.705  13.189
91253W        W57684  11.279  37.067  11.579
91254W        W57685  40.475   3.857  14.760
91255W        W57686   5.145  24.981   1.321
91256W        W57687  15.251   0.019  11.037
91257W        W57688  35.406  34.125  12.257
91258W        W57689   5.990  29.606  12.848
91259W        W57690  10.405  22.843   4.678
91260W        W57691   1.230  44.169  11.206
91261W        W57692  18.287   9.599  11.767
91262W        W57693   8.877  25.120   4.903
91263W        W57694  26.647  23.534  11.654
91264W        W57695  36.847   6.806   3.696
91265W        W57696  10.121  36.531   3.773
91266W        W57697  33.060   4.913   2.448
91267W        W57698   8.286  41.435   0.877
91268W        W57699   1.767   9.381   4.031
91269W        W57700  33.063  16.496   0.500
91270W        W57701  38.773  11.824   1.856
91271W        W57702  42.339  37.008  13.987
91272W        W57703  14.639  36.694   4.541
91273W        W57704   4.960  35.646  10.997
91274W        W57705   3.187  14.605  14.837
91275W        W57706  36.851  14.283  14.849
91276W        W57707  32.076   2.762  14.282
91277W        W57708  34.103  16.591   2.228
91278W        W57709  44.381   0.357   0.813
91279W        W57710  38.381  13.657  13.694
91280W        W57711  32.629  39.016   4.118
91281W        W57712  42.048  14.296  11.056
91282W        W57713   3.303  34.242  11.265
91283W        W57714  26.985  27.442   0.914
91284W        W57715  40.488  16.717   2.264
91285W        W57716  15.836   5.919   4.594
91286W        W57717  24.460  44.278  10.714
91287W        W57718  42.964  31.138  10.577
91288W        W57719  34.928   1.232  12.931
91289W        W57720  11.591   1.717   0.477
91290W        W57721  13.183   3.962   1.395
91291W        W57722  35.582  26.504   0.766
91292W        W57723  38.282  35.936  13.612
91293W        W57724  42.417  10.151   2.690
91294W        W57725  40.404   9.894   2.726
91295W        W57726  43.526  39.488   3.123
91296W        W57727  39.997  24.753  11.572
91297W        W57728  10.440  42.276  14.304
91298W        W57729  23.255  38.538  13.429
91299W        W57730  28.967  30.703  13.090
91300W        W57731   2.282   3.223   0.055
91301W        W57732   9.581  41.079  13.898
91302W        W57733  30.087  33.992   2.659
91303W        W57734  39.671   3.413  12.526
91304W        W57735  35.441  36.347  11.937
91305W        W57736  24.026  39.893   2.776
91306W        W57737  17.358   2.433  12.947
91307W        W57738  15.060  23.142  10.268
91308W        W57739  15.866  31.689   4.802
91309W        W57740  32.627  31.160  11.951
91310W        W57741  39.436  15.280   3.095
91311W        W57742  31.772  43.589   3.722
91312W        W57743  42.741  13.874   1.387
91313W        W57744   8.785  31.320   4.503
91314W        W57745   7.345  36.997   3.586
91315W        W57746  14.621  11.749  14.348
91316W        W57747   0.163   4.842  13.035
91317W        W57748  30.574  34.376   4.534
91318W        W57749  37.016   6.658  12.980
91319W        W57750  13.568  39.429   4.420
91320W        W57751  42.048  16.679  12.875
91321W        W57752  20.842  43.290   3.816
91322W        W57753  11.068  13.809   2.424
91323W        W57754  31.548  42.453  10.664
91324W        W57755  41.025  35.526  12.041
91325W        W57756  15.288  26.556  11.078
91326W        W57757   3.820  16.825   0.741
91327W        W57758  29.385  24.794  11.507
91328W        W57759  34.285  26.597  10.714
91329W        W57760   4.720  21.623   2.767
91330W        W57761   6.960  19.435  10.849
91331W        W57762  10.170  39.303  10.334
91332W        W57763  14.279  15.713  14.413
91333W        W57764  35.709  29.725  12.004
91334W        W57765   3.776   2.922   0.054
91335W        W57766   6.120  13.258   4.275
91336W        W57767  37.390  17.554  14.108
91337W        W57768  44.409  32.090   3.678
91338W        W57769  21.450  16.143   3.742
91339W        W57770  14.650  31.370  10.814
91340W        W57771  41.898  21.639  14.032
91341W        W57772  41.755  31.746  10.788
91342W        W57773  42.919  36.865  12.039
91343W        W57774  29.072  13.355  11.043
91344W        W57775  17.246  36.680   1.026
91345W        W57776  22.465  29.468  14.788
91346W        W57777  17.983  28.169  12.548
91347W        W57778  41.578  34.970   0.367
91348W        W57779   1.328  27.224  12.457
91349W        W57780   3.328  27.916   0.690
91350W        W57781  25.095  24.185  12.219
91351W        W57782   1.006  11.825  12.055
91352W        W57783  23.207  14.578  12.844
91353W        W57784  10.750   8.178   4.533
91354W        W57785  12.341  43.959  11.530
91355W        W57786  10.605  18.692  13.962
91356W        W57787   4.773  13.275  14.901
91357W        W57788   3.802  40.653  12.844
91358W        W57789  12.894  15.797  10.195
91359W        W57790  21.074   5.249  11.372
91360W        W57791  28.297  33.355   4.676
91361W        W57792  23.520  22.585  10.088
91362W        W57793  10.384  23.299  12.688
91363W        W57794  12.872   1.914  14.987
91364W        W57795   6.700  14.575   3.758
91365W        W57796   8.402  41.334   1.852
91366W        W57797  18.205  36.558  13.824
91367W        W57798  11.801  10.353   2.661
91368W        W57799  34.587  25.509   1.518
91369W        W57800  25.455   5.876  10.681
91370W        W57801  33.965  12.359  10.619
91371W        W57802  33.527  15.045  12.618
91372W        W57803   7.447   2.954  11.712
91373W        W57804  38.017  10.462   4.534
91374W        W57805  17.829  26.007  12.921
91375W        W57806   0.072  10.242  12.993
91376W        W57807   0.723   7.925  12.934
91377W        W57808  15.840  39.423  12.222
91378W        W57809  10.751   6.950   3.199
91379W        W57810  41.383  14.744  14.482
91380W        W57811  36.151  31.556  11.933
91381W        W57812  35.703   0.537   0.158
91382W        W57813  37.577   1.679  11.664
91383W        W57814   7.220   0.270   1.270
91384W        W57815  21.654  10.425   2.811
91385W        W57816  29.136  37.548   4.301
91386W        W57817  21.733  43.428  12.999
91387W        W57818  28.956   6.976   4.018
91388W        W57819  21.776  12.257   4.797
91389W        W57820  38.596  12.738   2.961
91390W        W57821  12.284   8.344   2.789
91391W        W57822  25.775  24.285  10.733
91392W        W57823  36.305  20.218  10.661
91393W        W57824  14.269  21.316  11.432
91394W        W57825   7.173  15.692  12.977
91395W        W57826  23.137   9.667   0.758
91396W        W57827  31.981  24.447  12.899
91397W        W57828   6.497  42.988   4.982
91398W        W57829  28.717  27.913  14.003
91399W        W57830  30.914  41.113  13.258
91400W        W57831  16.795  12.127  10.307
91401W        W57832   8.380   7.654   3.154
91402W        W57833  27.415  14.766  11.972
91403W        W57834  44.224  30.149   1.535
91404W        W57835  25.587   9.366  11.673
91405W        W57836   6.194  32.612   3.571
91406W        W57837  40.505  30.428   1.938
91407W        W57838  24.137  18.041   0.493
91408W        W57839  38.328   8.639  12.156
91409W        W57840  33.785  25.398  11.631
91410W        W57841  31.726  33.974  14.464
91411W        W57842   1.844   8.839   4.095
91412W        W57843  26.755  40.327  11.453
91413W        W57844  31.240   7.393  10.686
91414W        W57845  22.618  37.083   1.046
91415W        W57846  12.167  24.721  12.831
91416W        W57847  42.330  23.972  11.446
91417W        W57848  17.569  18.836   2.388
91418W        W57849  33.593  35.091  11.420
91419W        W57850  16.009  12.788  11.559
91420W        W57851  18.234  29.206  13.410
91421W        W57852   1.376  25.736   2.104
91422W        W57853  44.360  43.055   3.827
91423W        W57854  40.200  12.338  11.123
91424W        W57855  13.276  21.690  14.023
91425W        W57856   0.050  43.253  12.003
91426W        W57857  39.916  41.080   3.621
91427W        W57858  10.908  22.201   0.944
91428W        W57859  17.575  37.595  13.034
91429W        W57860  36.958  23.750  10.746
91430W        W57861  18.334  44.402  12.005
91431W        W57862   4.481  28.133  13.726
91432W        W57863  10.094   2.573   0.788
91433W        W57864   5.484  17.622  11.230
91434W        W57865  38.277  42.330  13.492
91435W        W57866  20.659   7.716   1.587
91436W        W57867  16.628  37.016  12.318
91437W        W57868  32.185  24.662  12.023
91438W        W57869  11.616  32.168   5.028
91439W        W57870  10.049  30.305   0.339
91440W        W57871  18.147  24.120   0.628
91441W        W57872  25.930  15.448  11.501
91442W        W57873  37.105  23.107  12.008
91443W        W57874   1.074  17.831  13.872
91444W        W57875  32.857   0.625   1.290
91445W        W57876  44.412  32.494  10.681
91446W        W57877  18.294  39.394   2.055
91447W        W57878  42.763  41.388   0.345
91448W        W57879  37.561  10.317  11.040
91449W        W57880  16.437  42.504   2.368
91450W        W57881  36.028  16.198   4.495
91451W        W57882  24.100   4.480   0.282
91452W        W57883  40.246  22.028   1.901
91453W        W57884  28.931  27.555   1.518
91454W        W57885  16.763  43.089   0.293
91455W        W57886  14.054   6.704   2.879
91456W        W57887   2.353  32.958  12.595
91457W        W57888  23.631  28.339  14.690
91458W        W57889  31.470   2.894   4.609
91459W        W57890  14.066  20.169  12.494
91460W        W57891   2.458  17.554   0.735
91461W        W57892  18.694  16.750  12.609
91462W        W57893  44.460  12.567  11.588
91463W        W57894  13.898  40.410   3.586
91464W        W57895  18.667  32.637   4.223
91465W        W57896  29.644  33.126   3.634
91466W        W57897  40.055   6.577  12.021
91467W        W57898  15.505  14.738  14.272
91468W        W57899  41.417  26.100   1.439
91469W        W57900  24.632  41.445   2.945
91470W        W57901  44.877  23.085  14.735
91471W        W57902  26.966   9.018   3.091
91472W        W57903  17.082  12.080  14.856
91473W        W57904  26.452  14.073   2.314
91474W        W57905   0.765  41.122   2.306
91475W        W57906   0.333   0.761  11.158
91476W        W57907  21.731  32.921  11.572
91477W        W57908   7.007  35.829  13.832
91478W        W57909   0.971   7.775  12.508
91479W        W57910  19.592  41.762   2.890
91480W        W57911  20.837  39.980  12.293
91481W        W57912  35.863   6.682   1.781
91482W        W57913  12.618  18.119  10.700
91483W        W57914   5.805  10.018   1.797
91484W        W57915  29.667  11.717  14.285
91485W        W57916  33.466  14.867  12.101
91486W        W57917   1.836   6.436  10.726
91487W        W57918  37.754   5.658   0.900
91488W        W57919   9.705  40.953   1.322
91489W        W57920  24.564   4.271   1.487
91490W        W57921  11.298   8.255   0.864
91491W        W57922  11.320   9.886   4.057
91492W        W57923   9.895   5.858   2.285
91493W        W57924  18.120  23.106  11.220
91494W        W57925  19.736  29.310   2.136
91495W        W57926  25.067  28.734  12.301
91496W        W57927   9.278  10.784   4.064
91497W        W57928  31.160  21.383  11.683
91498W        W57929  35.597   6.146   3.697
91499W        W57930   2.517  26.997  14.369
91500W        W57931  24.488  25.708  10.830
91501W        W57932   8.310   2.429   3.118
91502W        W57933  36.750  44.537  13.304
91503W        W57934  26.141  42.573  11.987
91504W        W57935   4.046  33.714  11.204
91505W        W57936  24.455  24.138  11.135
91506W        W57937  38.428  26.928  14.349
91507W        W57938  37.504  13.423   2.358
91508W        W57939   4.908  17.588  13.497
91509W        W57940   6.915  34.472   1.769
91510W        W57941  16.177  16.657  13.509
91511W        W57942  36.868   3.703   1.677
91512W        W57943  30.491  26.618   3.234
91513W        W57944  40.731  32.722   2.350
91514W        W57945  24.471  15.536   3.227
91515W        W57946   8.931  26.596  14.589
91516W        W57947  44.774  44.952   0.329
91517W        W57948  31.586  35.454  10.921
91518W        W57949  21.829   2.942  12.597
91519W        W57950  24.637  18.246  13.089
91520W        W57951   2.019  24.203  13.497
91521W        W57952  19.139  36.795   1.846
91522W        W57953  42.365  39.561  14.974
91523W        W57954  20.606   6.751  14.939
91524W        W57955   3.411  21.135   1.765
91525W        W57956  16.269  20.682   1.864
91526W        W57957   8.406  23.371  11.140
91527W        W57958  21.618   5.834  13.591
91528W        W57959  31.661  42.490   3.241
91529W        W57960  24.805  16.782   1.837
91530W        W57961   9.434  14.538  12.545
91531W        W57962  41.984  12.518   1.398
91532W        W57963  32.576  20.806   0.736
91533W        W57964  43.925  41.321   3.921
91534W        W57965  32.950  44.220   2.353
91535W        W57966  32.517  32.948  14.961
91536W        W57967  10.818  31.224   1.895
91537W        W57968  18.228  30.357   0.824
91538W        W57969   5.777  15.596  14.573
91539W        W57970   8.818  30.680  12.122
91540W        W57971   6.976   8.327  11.091
91541W        W57972  13.620  40.739  13.824
91542W        W57973  18.644  26.808   0.570
91543W        W57974  20.216  37.423   3.873
91544W        W57975  17.137  24.308   2.679
91545W        W57976  27.074  26.226  13.298
91546W        W57977  24.435  10.690  11.455
91547W        W57978  11.797   9.131  13.022
91548W        W57979  26.371  41.038   4.503
91549W        W57980  23.691  39.879   0.639
91550W        W57981   8.908  13.853  11.422
91551W        W57982  14.362  41.319  14.590
91552W        W57983  15.293   9.247   1.718
91553W        W57984   3.150  11.220   4.495
91554W        W57985  12.775  22.654  13.926
91555W        W57986   3.375  25.291  14.928
91556W        W57987  27.566   4.725   5.039
91557W        W57988   3.887  22.475  10.832
91558W        W57989  27.825  34.659   4.147
91559W        W57990  14.659  24.564  14.823
91560W        W57991  23.018  14.739  11.588
91561W        W57992  26.886  38.554   3.123
91562W        W57993   7.418   6.872   4.515
91563W        W57994   4.929  35.840   3.906
91564W        W57995  32.985  32.414   2.688
91565W        W57996  27.053  17.151  12.847
91566W        W57997  12.528  25.885   4.701
91567W        W57998  19.121  43.120  14.481
91568W        W57999  44.859  18.901  14.060
91569W        W58000   4.726   4.384   3.264
91570W        W58001   4.985  25.527  11.518
91571W        W58002  14.690  18.058  13.384
91572W        W58003  42.837   8.912   1.068
91573W        W58004  15.325  24.453   3.132
91574W        W58005  44.948  16.785  11.585
91575W        W58006   5.167  28.856   2.361
91576W        W58007  16.326  10.758  12.751
91577W        W58008   4.552  33.615  13.308
91578W        W58009  35.442  42.524  13.488
91579W        W58010  36.984  34.196  11.010
91580W        W58011  15.331  32.770   3.195
91581W        W58012  24.949  20.331  10.757
91582W        W58013  41.843  38.557  10.597
91583W        W58014  14.803  20.338   3.084
91584W        W58015  14.524  19.646  11.880
91585W        W58016  39.423   1.847   0.669
91586W        W58017  42.308   7.436   1.041
91587W        W58018  41.634  23.029  10.688
91588W        W58019  44.515   6.345   3.674
91589W        W58020   2.874   8.464  10.621
91590W        W58021   5.398   8.099  12.858
91591W        W58022   0.274  20.180  13.799
91592W        W58023  38.697  18.065  12.927
91593W        W58024  31.209   4.379   4.792
91594W        W58025  25.437  17.490  11.584
91595W        W58026   2.880  35.084   4.510
91596W        W58027  19.093   0.861   2.263
91597W        W58028  20.629  39.313  11.732
91598W        W58029  35.769  42.833   0.319
91599W        W58030  26.110  28.066   2.731
91600W        W58031  13.233  14.177   2.633
91601W        W58032  29.715   4.889   0.720
91602W        W58033  41.480  39.835  11.032
91603W        W58034  43.514  30.209  13.871
91604W        W58035  42.271  15.334  10.686
91605W        W58036  37.663  41.295   4.280
91606W        W58037   3.966  31.089  13.323
91607W        W58038   5.239   8.861  11.161
91608W        W58039   5.551   4.912   3.211
91609W        W58040  11.835  18.755   2.855
91610W        W58041  30.497  15.640   4.081
91611W        W58042  11.655  39.071  14.196
91612W        W58043   3.964  40.765  11.518
91613W        W58044  24.162   5.879  13.813
91614W        W58045  23.432  20.718   3.781
91615W        W58046  39.977  23.112   4.374
91616W        W58047  43.313  30.979  13.179
91617W        W58048  28.622  24.429   4.776
91618W        W58049  20.005   2.726   4.543
91619W        W58050  34.871  43.281  14.005
91620W        W58051  24.299  42.786   3.846
91621W        W58052  42.496  24.001  10.946
91622W        W58053  35.105  21.961  14.684
91623W        W58054   3.721   5.809   1.849
91624W        W58055  35.407  19.268   1.978
91625W        W58056  21.547  19.183   1.952
91626W        W58057  28.435  44.430  12.939
91627W        W58058  11.271   3.980  11.122
91628W        W58059   0.043  18.799   3.410
91629W        W58060  21.166  31.236   3.096
91630W        W58061   9.040   6.186  12.091
91631W        W58062   2.913  26.042  10.696
91632W        W58063   1.496  28.893   3.794
91633W        W58064  13.627  40.761   1.080
91634W        W58065  29.528   7.360   0.878
91635W        W58066  19.923  36.541  13.055
91636W        W58067  26.932  38.418  11.375
91637W        W58068   8.868  27.166  11.593
91638W        W58069  13.129   5.267   4.278
91639W        W58070  31.637  26.271   2.327
91640W        W58071  34.994   4.497  14.990
91641W        W58072  36.262   3.745   2.896
91642W        W58073  15.135  27.446   3.671
91643W        W58074  15.326  16.267   1.123
91644W        W58075  26.452  40.831  14.074
91645W        W58076  39.803  37.460  11.525
91646W        W58077   8.901  21.246  11.977
91647W        W58078   5.471  37.637   3.620
91648W        W58079  40.561  33.637  12.182
91649W        W58080  25.213  38.517  11.563
91650W        W58081   6.175  24.033   2.748
91651W        W58082  29.163  31.927   2.236
91652W        W58083  29.721   3.913   2.734
91653W        W58084  25.589   4.526  10.734
91654W        W58085   1.702  15.404   1.379
91655W        W58086  37.347  38.612  11.583
91656W        W58087  27.225  40.321  11.215
91657W        W58088   1.064  29.311   0.955
91658W        W58089  24.293   2.843   3.654
91659W        W58090  33.510  32.401   2.475
91660W        W58091  24.944  39.439   0.795
91661W        W58092  21.437  43.793   4.583
91662W        W58093  17.102  19.266  14.841
91663W        W58094  17.794   3.508  10.238
91664W        W58095  24.574  20.682   1.620
91665W        W58096  37.897  37.440  13.932
91666W        W58097  18.097  10.329   4.695
91667W        W58098   2.660  16.653   2.995
91668W        W58099   3.825  27.395   4.249
91669W        W58100  18.156  18.236   2.521
91670W        W58101  28.359  17.791  10.597
91671W        W58102  40.534  33.635   0.487
91672W        W58103   4.784   4.786   2.782
91673W        W58104  26.210   3.345  14.330
91674W        W58105  20.438   5.910   1.722
91675W        W58106  16.741  27.137   3.571
91676W        W58107   4.304   6.202  13.558
91677W        W58108  32.538  18.048   1.352
91678W        W58109  27.648  20.121   0.480
91679W        W58110  18.301  21.301  11.245
91680W        W58111   9.449   5.818  14.362
91681W        W58112  41.864  12.794  14.918
91682W        W58113  30.839  27.299  14.359
91683W        W58114  32.664  12.387  11.638
91684W        W58115  21.912  17.885  13.343
91685W        W58116  26.022   5.149  11.187
91686W        W58117  14.672   5.803  10.801
91687W        W58118  18.545  31.637  11.695
91688W        W58119   2.837  19.293  14.809
91689W        W58120  38.928  29.542   2.829
91690W        W58121  21.880  29.148   5.459
91691W        W58122  19.694  35.786   0.805
91692W        W58123   7.821  27.249  13.359
91693W        W58124  31.219  15.718   4.882
91694W        W58125   6.931  11.920   1.353
91695W        W58126  10.822  19.584  13.598
91696W        W58127  32.140  26.681   0.373
91697W        W58128  43.460   6.569  14.132
91698W        W58129   4.334  31.158   4.839
91699W        W58130   4.351  38.934  10.535
91700W        W58131  19.757  14.209   0.979
91701W        W58132  21.957   8.716   4.711
91702W        W58133   1.829  33.006  11.862
91703W        W58134  41.474  25.098   4.279
91704W        W58135  34.854   0.337  14.843
91705W        W58136  34.525  38.861  14.290
91706W        W58137   6.711  12.715  11.707
91707W        W58138   8.477  13.374  10.978
91708W        W58139  16.202  15.205  14.526
91709W        W58140  34.087  13.301  12.680
91710W        W58141  11.392  33.071  13.918
91711W        W58142  33.207  42.142  14.354
91712W        W58143  40.055  41.954  13.463
91713W        W58144  10.335   8.439   4.343
91714W        W58145  24.721   2.233   1.497
91715W        W58146  21.110  26.485   1.760
91716W        W58147  28.152  22.228  14.436
91717W        W58148  23.230  10.412  14.474
91718W        W58149  17.397  14.631   0.914
91719W        W58150   8.393  13.301  14.379
91720W        W58151  23.559  40.889   1.162
91721W        W58152  29.189  18.530   1.747
91722W        W58153  19.684  33.451  13.303
91723W        W58154   1.324   9.657   2.679
91724W        W58155   0.918   7.177   4.573
91725W        W58156  44.071  14.900  13.489
91726W        W58157  42.247  39.375   2.694
91727W        W58158  34.613  44.447   0.852
91728W        W58159   9.163  42.614  10.760
91729W        W58160  29.493  12.593  13.010
91730W        W58161  34.436  42.359   0.215
91731W        W58162  28.039  33.283   5.098
91732W        W58163  32.472  41.430   0.485
91733W        W58164   4.582  29.458   0.178
91734W        W58165   0.810  37.948  10.477
91735W        W58166  24.563  39.362  12.685
91736W        W58167  39.062   4.074  10.405
91737W        W58168   3.842  17.794   0.904
91738W        W58169  31.124  10.975   4.222
91739W        W58170  44.834  24.013  11.584
91740W        W58171   7.716   3.243   2.858
91741W        W58172   7.633  34.127   0.749
91742W        W58173  28.956   7.365  12.504
91743W        W58174  29.977  31.325  13.520
91744W        W58175  24.883  33.686  11.199
91745W        W58176  24.992  25.335   0.336
91746W        W58177  38.867  28.607  13.643
91747W        W58178   2.598   0.384  10.840
91748W        W58179  14.085   8.674   0.604
91749W        W58180   5.310  11.601   1.279
91750W        W58181  32.309   5.248  14.960
91751W        W58182   7.724  36.645   0.697
91752W        W58183  14.736  19.569   3.602
91753W        W58184  42.905   3.706   1.711
91754W        W58185  15.066  34.574   3.532
91755W        W58186  10.869   2.033   1.653
91756W        W58187  27.712   6.384  11.532
91757W        W58188  41.673  41.536   2.834
91758W        W58189  14.565  42.810   2.980
91759W        W58190   9.254  36.870   4.771
91760W        W58191  23.996  20.410  13.561
91761W        W58192  44.951  44.781  14.854
91762W        W58193  25.011  41.531   3.291
91763W        W58194   5.144  23.002   4.335
91764W        W58195   3.097  31.713   2.288
91765W        W58196  22.436  23.116   2.397
91766W        W58197  21.729   8.419   3.681
91767W        W58198  33.350   8.439   0.871
91768W        W58199  43.826   7.143  12.530
91769W        W58200   6.790  28.445  13.561
91770W        W58201  27.611  32.970   2.152
91771W        W58202  43.799  30.054   1.203
91772W        W58203  37.308  43.389  14.922
91773W        W58204   6.735  15.678   2.763
91774W        W58205  15.173  25.042   2.406
91775W        W58206  21.265  30.016  10.741
91776W        W58207  31.418  32.016  14.968
91777W        W58208  28.052  30.002  14.077
91778W        W58209  43.771  37.191  13.770
91779W        W58210  20.818  41.802  12.055
91780W        W58211  13.764  27.309   2.762
91781W        W58212  41.258  12.235  11.158
91782W        W58213  25.434   8.159   3.602
91783W        W58214  29.956  32.097  12.126
91784W        W58215  43.724  38.580   3.743
91785W        W58216  40.418   1.179   1.765
91786W        W58217  38.632   1.678   2.906
91787W        W58218   9.695  38.375   2.089
91788W        W58219   0.153  18.018  13.226
91789W        W58220   1.889  30.555   0.973
91790W        W58221   1.281  44.156  13.848
91791W        W58222  11.128  13.386  11.574
91792W        W58223  36.383   4.178   0.979
91793W        W58224  16.508  39.384  11.005
91794W        W58225  13.619   7.761  11.090
91795W        W58226  28.370  38.002   2.403
91796W        W58227   5.846   9.122   0.427
91797W        W58228  25.468  44.465  10.533
91798W        W58229  42.498   7.163   1.924
91799W        W58230  14.235   2.272  12.552
91800W        W58231  12.286   2.395  14.375
91801W        W58232  26.613   1.545   4.005
91802W        W58233  23.762  18.266   0.905
91803W        W58234  39.387  36.801   2.181
91804W        W58235  13.317  22.568   0.011
91805W        W58236  25.548   6.113  12.765
91806W        W58237  43.829   5.482   2.902
91807W        W58238  16.461   3.230   3.178
91808W        W58239  14.287   6.807   2.425
91809W        W58240  17.224   3.232  11.710
91810W        W58241  36.008  24.633  14.885
91811W        W58242  18.486  25.533   1.812
91812W        W58243  15.326  27.646   0.047
91813W        W58244   5.325   0.699   1.469
91814W        W58245   2.429   0.915  11.520
91815W        W58246  43.588  25.327  10.630
91816W        W58247  10.695  38.870   2.926
91817W        W58248   2.386  43.472  10.720
91818W        W58249  15.028  14.145   3.752
91819W        W58250  11.537  29.817   1.894
91820W        W58251  44.028  27.645   2.713
91821W        W58252  29.640  14.086  12.442
91822W        W58253   9.070  32.969  11.463
91823W        W58254  32.570  32.700   1.393
91824W        W58255  19.512  22.581   5.009
91825W        W58256  44.461  38.326  13.207
91826W        W58257  36.041  40.333  12.612
91827W        W58258   3.160  22.700   0.747
91828W        W58259  20.052   8.821   0.870
91829W        W58260  23.157   0.950  13.495
91830W        W58261  38.572  25.090  13.936
91831W        W58262  34.112  22.293  14.494
91832W        W58263  26.133  39.926  14.399
91833W        W58264  10.554  25.217  10.509
91834W        W58265  44.739  19.262   2.124
91835W        W58266  17.213  22.052   2.407
91836W        W58267  11.374  17.316  12.612
91837W        W58268   0.751  18.181  11.936
91838W        W58269  16.714  36.514  12.458
91839W        W58270  24.514  36.771   0.529
91840W        W58271  38.429  29.906   0.430
91841W        W58272  23.739  21.756  10.717
91842W        W58273  31.904  16.686  13.515
91843W        W58274  29.472  13.634   0.196
91844W        W58275  22.393   6.234  12.356
91845W        W58276  15.137  34.491   4.548
91846W        W58277  25.875   0.398  13.389
91847W        W58278   4.285  43.856  11.393
91848W        W58279  32.914  21.965  13.296
91849W        W58280  35.800   1.358  13.440
91850W        W58281  24.899  31.707  13.051
91851W        W58282  44.499  19.655   1.882
91852W        W58283  32.427  20.263  14.379
91853W        W58284  14.847   3.966   3.351
91854W        W58285  33.526  37.407  14.831
91855W        W58286   7.874   8.208   2.102
91856W        W58287  15.775  30.629   4.166
91857W        W58288  39.427  14.632  12.427
91858W        W58289   9.800  41.327  12.364
91859W        W58290   4.975  41.110   3.548
91860W        W58291  34.028  24.430  13.336
91861W        W58292  35.345  28.976   0.456
91862W        W58293   0.420  21.745   4.897
91863W        W58294  19.193  30.753   3.321
91864W        W58295  27.029  26.741   2.354
91865W        W58296   0.674  32.558   1.802
91866W        W58297  44.222  24.912  11.011
91867W        W58298  37.110   4.812  10.685
91868W        W58299   6.428  12.790   1.735
91869W        W58300  37.288  42.884  14.771
91870W        W58301   1.385  37.464   1.880
91871W        W58302   1.764  20.186   5.234
91872W        W58303  20.793  38.366  13.407
91873W        W58304  44.001  37.517   3.689
91874W        W58305  16.935  23.651  13.636
91875W        W58306  18.514  29.428   5.066
91876W        W58307  34.904  30.495  11.928
91877W        W58308  14.166  20.633  10.741
91878W        W58309  20.461  41.420  11.537
91879W        W58310  43.416   5.937   4.096
91880W        W58311  37.650   5.308   3.688
91881W        W58312  20.253   0.966  11.079
91882W        W58313  30.670   1.253   2.204
91883W        W58314  13.439  33.996   4.520
91884W        W58315  19.968   2.264  11.673
91885W        W58316   8.042  13.340  14.972
91886W        W58317  20.635   8.978  14.595
91887W        W58318  22.628   4.565   3.784
91888W        W58319  43.886  18.017  13.015
91889W        W58320  18.369  36.439  11.153
91890W        W58321  41.920  27.593  13.875
91891W        W58322  35.343  17.204   3.054
91892W        W58323  36.294  31.455  13.755
91893W        W58324  16.131  32.820  13.409
91894W        W58325  39.012  44.157  12.681
91895W        W58326  22.065  12.587  10.970
91896W        W58327   0.581  10.334  12.983
91897W        W58328  19.265  28.201   2.427
91898W        W58329  24.732  23.564   3.596
91899W        W58330  15.436  15.311  14.939
91900W        W58331  39.807  24.638   1.918
91901W        W58332   2.673  38.984   2.269
91902W        W58333   2.418   8.153   1.326
91903W        W58334  41.154   3.375   3.242
91904W        W58335  28.017  32.887   4.786
91905W        W58336  12.371  29.667  14.541
91906W        W58337  20.074   3.627   0.840
91907W        W58338  27.436  23.631   0.261
91908W        W58339  22.747  26.522  10.683
91909W        W58340   5.623   2.443   2.990
91910W        W58341  18.252  10.699  12.264
91911W        W58342  13.254  43.990  11.159
91912W        W58343  38.679  20.490   2.334
91913W        W58344  12.798  43.421  13.962
91914W        W58345  22.679   1.731  10.777
91915W        W58346  21.171  10.609   2.672
91916W        W58347  16.415  30.899  14.860
91917W        W58348   6.214   2.843  14.809
91918W        W58349   9.219  17.253   5.500
91919W        W58350  36.115   0.751  14.918
91920W        W58351  41.564   5.385   0.454
91921W        W58352   0.987  11.920   3.829
91922W        W58353  18.356  21.077   2.254
91923W        W58354  22.924   1.854  13.947
91924W        W58355  22.755  20.036   3.969
91925W        W58356  27.398  33.950   1.317
91926W        W58357  34.107  23.095  10.678
91927W        W58358  34.007  26.428   2.132
91928W        W58359  25.847  18.302  10.294
91929W        W58360  23.053  18.374  13.958
91930W        W58361  26.111  34.511  10.582
91931W        W58362  27.610  31.111  13.510
91932W        W58363  13.336  18.296   1.713
91933W        W58364  24.057  28.209   0.863
91934W        W58365  15.264  15.414  14.435
91935W        W58366  39.938  22.672  11.209
91936W        W58367   0.258   0.448   2.390
91937W        W58368  36.496   8.528  13.325
91938W        W58369  34.773  36.348   3.615
91939W        W58370  37.954  17.588   1.250
91940W        W58371  19.682  28.192  14.832
91941W        W58372  33.502  18.625  13.330
91942W        W58373  31.415  10.915  13.948
91943W        W58374  30.578   4.270  14.073
91944W        W58375  30.629  33.533   0.783
91945W        W58376  20.483  29.541   3.578
91946W        W58377  22.815  11.932   0.562
91947W        W58378  16.005  38.099  11.511
91948W        W58379  20.680  25.576   1.368
91949W        W58380  34.388  39.131  11.473
91950W        W58381  20.733  15.325   9.895
91951W        W58382  28.039   8.701  11.501
91952W        W58383  27.543  36.430  11.822
91953W        W58384  38.467  23.580  10.765
91954W        W58385   3.908   9.973  12.005
91955W        W58386   2.040  44.652  12.208
91956W        W58387  22.498  26.188  12.923
91957W        W58388  18.751   0.189  14.559
91958W        W58389  42.543  25.909   2.788
91959W        W58390   3.175  34.874   4.124
91960W        W58391  43.514  26.720  11.976
91961W        W58392   4.359   3.439  13.512
91962W        W58393  40.974  41.464   1.430
91963W        W58394  41.399  18.867   2.318
91964W        W58395  13.812  18.834  11.074
91965W        W58396  37.227  19.759  14.153
91966W        W58397   5.901   1.962   2.152
91967W        W58398  17.615   2.235  12.429
91968W        W58399   6.488  11.398   0.222
91969W        W58400   2.513   3.844  13.408
91970W        W58401  14.030   5.907   2.184
91971W        W58402  14.885  43.683   1.205
91972W        W58403  10.305  43.893  12.650
91973W        W58404  11.767   2.224  11.012
91974W        W58405  42.679  13.682  10.752
91975W        W58406  23.198  23.469   5.513
91976W        W58407  29.049  36.168  11.979
91977W        W58408  33.091  38.392  12.471
91978W        W58409  31.729  12.806   0.755
91979W        W58410  23.021  25.512   2.212
91980W        W58411  23.015  38.474   2.193
91981W        W58412  12.065  28.466   3.282
91982W        W58413  10.110  37.549   5.083
91983W        W58414  23.871  22.965   1.909
91984W        W58415  43.675  27.131   0.066
91985W        W58416   8.804  25.907   2.349
91986W        W58417  15.832  24.013   0.434
91987W        W58418  40.301   1.162  10.117
91988W        W58419  26.232  26.212   0.844
91989W        W58420  24.406  33.726   2.300
91990W        W58421   4.973  36.551  12.242
91991W        W58422  21.418  30.361   0.806
91992W        W58423  41.395  29.466   2.779
91993W        W58424  35.100   8.750   2.747
91994W        W58425  40.823   6.152   1.620
91995W        W58426  40.841  42.452  12.518
91996W        W58427  36.330  44.414  14.778
91997W        W58428  20.046  26.397  10.743
91998W        W58429  33.132  11.589  11.596
91999W        W58430  17.818  31.155  11.214
92000W        W58431   6.711  28.257   0.289
92001W        W58432  26.731  25.654   1.328
92002W        W58433  34.009   8.064   2.139
92003W        W58434   9.089  34.825  13.024
92004W        W58435  31.198  29.880   1.653
92005W        W58436  24.199  24.006  12.901
92006W        W58437  20.434  21.540  12.529
92007W        W58438  37.113  29.578   4.491
92008W        W58439  14.340   6.258   2.703
92009W        W58440  12.876  44.901   3.584
92010W        W58441  25.624  44.599   0.385
92011W        W58442   4.884  37.648  12.617
92012W        W58443  41.479  37.275  13.708
92013W        W58444   5.407  10.668  10.661
92014W        W58445  35.599  16.376   0.798
92015W        W58446   5.995  37.403  10.673
92016W        W58447  15.587  20.082   4.395
92017W        W58448  26.521  11.805   2.400
92018W        W58449  19.746  19.432  14.475
92019W        W58450   9.387  18.234  12.098
92020W        W58451  21.547  31.433   1.811
92021W        W58452  13.403   9.752  10.741
92022W        W58453   0.925  26.060  12.531
92023W        W58454   3.763  44.897  12.856
92024W        W58455  37.938  43.517   1.213
92025W        W58456  18.782  40.520  14.390
92026W        W58457  34.913  29.179  14.377
92027W        W58458  10.772  28.776  14.397
92028W        W58459  31.104  41.370  14.051
92029W        W58460  33.090  13.101   4.071
92030W        W58461   4.379  30.160  11.737
92031W        W58462   9.402   3.724   2.663
92032W        W58463  31.203   5.708   3.427
92033W        W58464  41.039  31.602  14.848
92034W        W58465  43.848  27.408   3.703
92035W        W58466  41.306  18.090   4.162
92036W        W58467  30.386   3.805  13.949
92037W        W58468  33.673  14.693  12.932
92038W        W58469  24.771  13.301  14.309
92039W        W58470  26.983   4.917  10.730
92040W        W58471  42.492   1.387   4.426
92041W        W58472  20.221  24.058   4.704
92042W        W58473  20.802  31.412  10.287
92043W        W58474  11.680  26.755   4.124
92044W        W58475  17.008  17.324  12.508
92045W        W58476  23.593  32.333   5.411
92046W        W58477  10.229   5.522   1.386
92047W        W58478   1.239  35.624  13.005
92048W        W58479   7.623  40.624  10.404
92049W        W58480  28.439   9.655   0.348
92050W        W58481  41.324  19.973  12.922
92051W        W58482  21.849   1.845   1.367
92052W        W58483  16.131  22.207   3.278
92053W        W58484  16.494  31.443  13.514
92054W        W58485  37.569   1.741   4.057
92055W        W58486  17.666  25.563  13.684
92056W        W58487  44.803  43.307   3.859
92057W        W58488  34.114  40.466   3.723
92058W        W58489  31.596  11.873   2.833
92059W        W58490  42.183   2.852   4.936
92060W        W58491  37.288  40.348   4.946
92061W        W58492   8.244   8.334   3.761
92062W        W58493  29.685   8.686  14.914
92063W        W58494  11.229  21.572   0.336
92064W        W58495  26.183   1.371  10.557
92065W        W58496  37.579  31.936  14.926
92066W        W58497  27.602  39.257  11.498
92067W        W58498  27.553  14.239   0.395
92068W        W58499  14.488  12.131  12.067
92069W        W58500  29.678   1.449   3.294
92070W        W58501  25.277   8.663  10.672
92071W        W58502  23.605  28.860   9.809
92072W        W58503  11.895   3.863  11.553
92073W        W58504  23.438  41.204  14.716
92074W        W58505  15.531  38.397  12.216
92075W        W58506  39.259  28.832   4.037
92076W        W58507  29.542  34.544  11.681
92077W        W58508  38.523   4.752   3.575
92078W        W58509  18.695  22.913   3.188
92079W        W58510   0.158  34.014  13.621
92080W        W58511  11.238  19.858   1.673
92081W        W58512  20.204   8.698  12.659
92082W        W58513  33.412  19.268  10.515
92083W        W58514  11.362  13.583   2.781
92084W        W58515   9.720   9.244   1.905
92085W        W58516  18.363  33.719  14.860
92086W        W58517  38.884   0.405  13.289
92087W        W58518  32.055  42.765  10.011
92088W        W58519   0.707  25.529   4.603
92089W        W58520  11.122  41.134  12.539
92090W        W58521  29.987  12.167  10.664
92091W        W58522  27.085   8.658   4.013
92092W        W58523   3.897  37.372   4.261
92093W        W58524  28.173  34.737   2.324
92094W        W58525  14.487   2.415  13.315
92095W        W58526  35.074  43.357  14.841
92096W        W58527   2.476  17.272  14.026
92097W        W58528  44.548   5.747  14.352
92098W        W58529  40.483  10.206   2.315
92099W        W58530   9.608  16.674   0.001
92100W        W58531  38.057  10.362  12.868
92101W        W58532  34.401  23.424   1.710
92102W        W58533  44.964  44.730  13.789
92103W        W58534  19.956   8.341   3.809
92104W        W58535   6.706  44.365  11.465
92105W        W58536   5.084  16.126   3.272
92106W        W58537  31.086  17.986  12.613
92107W        W58538  20.185  18.985   2.307
92108W        W58539  33.158  22.656  14.423
92109W        W58540  29.602  13.035  14.435
92110W        W58541  10.592  25.788  13.696
92111W        W58542   5.770  28.455  10.694
92112W        W58543  43.373  34.095   1.508
92113W        W58544  32.306   1.381   4.809
92114W        W58545  35.653  13.743  12.890
92115W        W58546  43.907   9.633   3.159
92116W        W58547   8.251  29.057  11.592
92117W        W58548  19.578  21.676  11.196
92118W        W58549  25.187   0.915   1.021
92119W        W58550  10.446  32.490  11.093
92120W        W58551  36.268   3.378   0.178
92121W        W58552  28.411  19.701  11.219
92122W        W58553  26.058  43.416   3.669
92123W        W58554  22.785  23.158   3.233
92124W        W58555  11.876   6.872  10.184
92125W        W58556  10.888  14.255   2.750
92126W        W58557  35.546  16.898   0.863
92127W        W58558  12.909   1.331  14.383
92128W        W58559  28.621  42.518   1.364
92129W        W58560  12.647  28.112  11.588
92130W        W58561  10.552   4.344   1.785
92131W        W58562  38.262   9.600  12.546
92132W        W58563  20.557  27.982  13.157
92133W        W58564  40.390  38.505  10.924
92134W        W58565  17.579  27.892  14.964
92135W        W58566  44.905  19.176   4.544
92136W        W58567   9.908  35.276   2.770
92137W        W58568   4.770  15.188  13.734
92138W        W58569  37.524  16.666  14.344
92139W        W58570   5.067  26.046   0.792
92140W        W58571   3.328  31.990  10.619
92141W        W58572  36.876  10.065  13.451
92142W        W58573  28.724  27.416  13.852
92143W        W58574  35.091   1.807   1.380
92144W        W58575  15.733  31.964   4.367
92145W        W58576   6.747  28.906  10.364
92146W        W58577   6.874  33.122  10.538
92147W        W58578  37.805  12.140  10.542
92148W        W58579  26.697  35.931  13.899
92149W        W58580  34.406  12.213  14.877
92150W        W58581  21.263  35.980   3.707
92151W        W58582  25.904  28.093   0.287
92152W        W58583  10.644  14.881   5.068
92153W        W58584   7.688  37.853   3.347
92154W        W58585  20.059  40.291  10.699
92155W        W58586  31.331  18.085  13.067
92156W        W58587  24.989  24.212   4.206
92157W        W58588  33.409   9.724  13.993
92158W        W58589   4.569  22.727  13.391
92159W        W58590  22.005   8.709   0.797
92160W        W58591  17.674  37.831   4.518
92161W        W58592  31.834  38.332  12.191
92162W        W58593  34.588  10.850  13.033
92163W        W58594   8.759  44.056   0.273
92164W        W58595  40.135   1.956   3.637
92165W        W58596  26.405  12.888   0.520
92166W        W58597  34.979  22.745  13.409
92167W        W58598  33.854   3.322  12.221
92168W        W58599   6.470  11.140  14.390
92169W        W58600   3.941   9.913  12.920
92170W        W58601  12.882  24.168  14.771
92171W        W58602  14.901  34.439  13.470
92172W        W58603   8.783  35.629  11.610
92173W        W58604  43.468  14.771   0.399
92174W        W58605  21.287   2.502   3.987
92175W        W58606  43.223  37.105  11.115
92176W        W58607  10.087  39.236  12.052
92177W        W58608  33.943   5.635   0.910
92178W        W58609  16.700   9.342   3.160
92179W        W58610  30.512  44.117   3.549
92180W        W58611  27.460  36.750  13.956
92181W        W58612  42.716  21.029   1.922
92182W        W58613  27.038   6.373  11.492
92183W        W58614  26.052  24.630  14.292
92184W        W58615  39.653  28.328   0.703
92185W        W58616  23.878  23.847  12.459
92186W        W58617  37.623  37.601   0.331
92187W        W58618  22.751  30.795   2.200
92188W        W58619  28.377  41.979  14.327
92189W        W58620  20.028  10.197   5.086
92190W        W58621  21.658  31.934   2.946
92191W        W58622   6.277  36.139   0.930
92192W        W58623  11.856   3.289   4.161
92193W        W58624  37.716  14.330  11.185
92194W        W58625   8.688  32.112   0.743
92195W        W58626  25.453  44.050  13.792
92196W        W58627  20.726  10.871   2.805
92197W        W58628  38.916  15.028  13.018
92198W        W58629   8.272  30.902   1.023
92199W        W58630   5.247  43.157   1.850
92200W        W58631   3.929  11.802   1.350
92201W        W58632   9.354   9.933  13.459
92202W        W58633  44.524  35.176   0.592
92203W        W58634  18.603  23.430  14.003
92204W        W58635  26.646   8.800   4.984
92205W        W58636  36.949  40.661  10.727
92206W        W58637  16.307  44.295   0.596
92207W        W58638   2.646   3.599   0.936
92208W        W58639  29.465  26.022  14.006
92209W        W58640  21.097  21.287   0.441
92210W        W58641  43.293   5.434   0.234
92211W        W58642   9.890   1.689   3.314
92212W        W58643  21.612   4.762  10.588
92213W        W58644  39.993  27.770   4.792
92214W        W58645   2.028  15.307  14.858
92215W        W58646  33.379  41.001  10.249
92216W        W58647  36.559  37.252  12.786
92217W        W58648  21.945  17.631   1.694
92218W        W58649  23.723  42.678   0.622
92219W        W58650  31.959  31.850  14.410
92220W        W58651  33.989   1.821   1.717
92221W        W58652  16.571  32.973  14.445
92222W        W58653  27.668  18.108   0.230
92223W        W58654  14.199  28.450  11.966
92224W        W58655  20.851  41.074  11.502
92225W        W58656   1.713  43.264  11.476
92226W        W58657  13.234  30.666   1.622
92227W        W58658  20.817  25.085   3.764
92228W        W58659  37.404   8.236   4.632
92229W        W58660  23.584  34.947  13.440
92230W        W58661  39.879   4.854   3.153
92231W        W58662  16.790  10.680   0.931
92232W        W58663  10.329  19.650  13.417
92233W        W58664  10.771   9.222   3.176
92234W        W58665  28.985  35.361   2.757
92235W        W58666  26.735  13.155   1.569
92236W        W58667  34.489   0.433  12.875
92237W        W58668  20.632  38.345  14.772
92238W        W58669  33.591  10.254  10.112
92239W        W58670  33.416  27.194  10.102
92240W        W58671  29.757  37.094  11.459
92241W        W58672  23.553  38.086  10.309
92242W        W58673  26.018  38.049  10.763
92243W        W58674  21.106  32.781   3.361
92244W        W58675  44.958  28.237  11.168
92245W        W58676  26.409  22.994  13.842
92246W        W58677   4.950   4.323  14.774
92247W        W58678   1.959  22.539  11.934
92248W        W58679  11.298  22.462   0.662
92249W        W58680  15.068   4.644   3.135
92250W        W58681   1.738   8.632  14.978
92251W        W58682  17.631  41.004   2.470
92252W        W58683  11.324  34.227  12.025
92253W        W58684  43.888  22.442   0.726
92254W        W58685   7.160  43.102  12.104
92255W        W58686  19.017  12.690  13.980
92256W        W58687   3.872  19.427   9.899
92257W        W58688  10.306   7.006  13.859
92258W        W58689  41.384  19.155   1.210
92259W        W58690  15.709  26.201   4.797
92260W        W58691  34.591  19.662   3.882
92261W        W58692  25.565   1.819   3.753
92262W        W58693  24.124  11.471   4.266
92263W        W58694  25.679   6.496   1.378
92264W        W58695  26.278  31.400   2.774
92265W        W58696  25.610  10.681  13.509
92266W        W58697  37.137  18.757  14.828
92267W        W58698  36.357  12.237  12.777
92268W        W58699   3.371  24.801   1.490
92269W        W58700  39.422  30.173   1.873
92270W        W58701   7.394  31.479   4.089
92271W        W58702   7.717  11.978  14.371
92272W        W58703   8.980  18.679  11.431
92273W        W58704  23.466  16.796   0.807
92274W        W58705  43.196  26.620   2.312
92275W        W58706  20.537  19.294   1.572
92276W        W58707  39.549  10.105  10.686
92277W        W58708  29.981  25.716  12.336
92278W        W58709  34.492  31.972   3.670
92279W        W58710  41.244  33.458   4.884
92280W        W58711  31.295  24.339  12.139
92281W        W58712  10.238  19.211  11.464
92282W        W58713  10.206   8.675   2.437
92283W        W58714  35.869  36.903   0.357
92284W        W58715  36.860   9.822  12.977
92285W        W58716   6.879   7.110  14.949
92286W        W58717  39.126  12.574   2.096
92287W        W58718  10.515  22.210   0.157
92288W        W58719  37.941  19.184   1.224
92289W        W58720  32.407  23.375  14.965
92290W        W58721   9.070   5.752   3.735
92291W        W58722   1.856  40.883   4.616
92292W        W58723  27.501  18.654   4.895
92293W        W58724  12.893  22.577   0.299
92294W        W58725  29.969  19.802   4.551
92295W        W58726   8.413   8.154   3.295
92296W        W58727  43.364   4.440  12.945
92297W        W58728  36.401  23.265   0.873
92298W        W58729  11.618  22.897   1.433
92299W        W58730  21.032  37.485  12.144
92300W        W58731  25.082  27.115   3.931
92301W        W58732  37.544  17.301  11.444
92302W        W58733   4.474   5.825   2.381
92303W        W58734  10.698   2.645  11.591
92304W        W58735  41.537  27.692   3.186
92305W        W58736  25.985  15.492  10.997
92306W        W58737  41.306  13.276   2.339
92307W        W58738  41.742  18.290   2.557
92308W        W58739   7.156   4.912   2.759
92309W        W58740  41.388  31.002  13.283
92310W        W58741   2.892   1.736   0.491
92311W        W58742  17.285  41.787   3.719
92312W        W58743  14.774  42.353   3.750
92313W        W58744  32.774  39.350  13.483
92314W        W58745   1.524  30.861   1.256
92315W        W58746  38.503  13.833   0.838
92316W        W58747   9.786  10.126  10.621
92317W        W58748  22.723  13.174   2.203
92318W        W58749  33.555  24.630  13.409
92319W        W58750   3.013  40.930   0.363
92320W        W58751   5.288  41.256   1.820
92321W        W58752   9.769  35.731   0.433
92322W        W58753  15.096  17.292  12.020
92323W        W58754   9.785   8.848  10.932
92324W        W58755  29.097  21.036  13.422
92325W        W58756   5.465  14.187   0.456
92326W        W58757  18.138   7.190   2.219
92327W        W58758  32.144  22.724  14.316
92328W        W58759  21.088  42.518   0.260
92329W        W58760  38.347  39.888   1.373
92330W        W58761  42.290   8.394   3.826
92331W        W58762  31.523  35.115   3.729
92332W        W58763  14.488   3.884  12.981
92333W        W58764  29.634  34.847   1.669
92334W        W58765  37.531   0.028   1.951
92335W        W58766   4.658   3.197  11.123
92336W        W58767   3.174  38.525   3.106
92337W        W58768  34.092  15.745   3.624
92338W        W58769  41.487  10.364  10.706
92339W        W58770  28.679  25.744  13.617
92340W        W58771  18.685  23.941  11.048
92341W        W58772   7.421  36.071   3.606
92342W        W58773  35.032  15.259   1.691
92343W        W58774  37.249   4.727   0.020
92344W        W58775  25.758  20.515   4.075
92345W        W58776  19.441   9.236  12.262
92346W        W58777   3.291   6.202   2.761
92347W        W58778  42.834  13.182   0.775
92348W        W58779   5.525  38.774  14.937
92349W        W58780  34.303  22.949   0.950
92350W        W58781  42.246   5.333  14.327
92351W        W58782  18.781  19.322  11.484
92352W        W58783  31.449  23.199  13.404
92353W        W58784   7.596  13.122  14.877
92354W        W58785  38.094  38.872  13.388
92355W        W58786  28.863  12.723   0.370
92356W        W58787   0.897   0.323   3.521
92357W        W58788   1.692  30.404   0.272
92358W        W58789  14.783  35.366  12.404
92359W        W58790  16.131  38.333  11.001
92360W        W58791  26.831  13.833  12.044
92361W        W58792  26.566   2.201  14.886
92362W        W58793  16.481  12.083   5.288
92363W        W58794  42.492  20.459  11.591
92364W        W58795  25.468  11.811   2.400
92365W        W58796  25.700  30.955   1.372
92366W        W58797  42.308  40.570  12.090
92367W        W58798   0.487  13.780   0.187
92368W        W58799  10.625   4.487  13.370
92369W        W58800  37.297   3.453   4.813
92370W        W58801  20.874  14.874   3.341
92371W        W58802  23.517  27.598  10.800
92372W        W58803   5.743  17.522  11.668
92373W        W58804  38.983   3.617  12.703
92374W        W58805  42.374   2.776  12.483
92375W        W58806  21.401  44.831   3.148
92376W        W58807  41.481  41.667  12.236
92377W        W58808  25.092  11.684   0.599
92378W        W58809  13.659  13.344  12.454
92379W        W58810   8.982  20.750   3.342
92380W        W58811  25.252  15.697   3.799
92381W        W58812  17.522  42.281  14.238
92382W        W58813  32.137  39.064  14.013
92383W        W58814  36.134  42.413   2.291
92384W        W58815   8.756  18.293   4.164
92385W        W58816  10.968  30.583  10.939
92386W        W58817  13.294  23.794   2.378
92387W        W58818  41.008  19.984  12.479
92388W        W58819  35.068  28.591   1.269
92389W        W58820  28.559  37.375  10.750
92390W        W58821  27.196  43.454  12.139
92391W        W58822  32.425  31.481  13.757
92392W        W58823  32.402  22.154  10.642
92393W        W58824  42.832  10.889   0.676
92394W        W58825  26.268  37.424  12.432
92395W        W58826  18.762  43.210  14.842
92396W        W58827  38.947  39.392  12.500
92397W        W58828  12.755  10.677   4.769
92398W        W58829   0.372  32.159   0.042
92399W        W58830  43.291  16.158  10.905
92400W        W58831   8.986  16.096  10.359
92401W        W58832  16.279  41.223  12.144
92402W        W58833   7.802  40.348   1.003
92403W        W58834   4.985  30.828  12.891
92404W        W58835  25.674  15.110   4.911
92405W        W58836  34.884  27.979   3.156
92406W        W58837   0.213  41.421   4.732
92407W        W58838  39.746  21.808   3.669
92408W        W58839   1.389   5.810   4.006
92409W        W58840  13.132  29.759  11.166
92410W        W58841  26.878  44.345  12.584
92411W        W58842   6.734   1.878  10.548
92412W        W58843  19.159  29.891  12.968
92413W        W58844  15.864  37.543   2.357
92414W        W58845   8.580  27.787   3.749
92415W        W58846  19.904  19.297   4.584
92416W        W58847  20.030  12.616   0.377
92417W        W58848  39.032  27.609   4.395
92418W        W58849  26.009  11.397   1.771
92419W        W58850  39.516  29.627  10.630
92420W        W58851  29.403  36.987  12.423
92421W        W58852   1.693  22.957   2.037
92422W        W58853  14.545  27.179  10.745
92423W        W58854  13.728  11.976  12.109
92424W        W58855  19.695  44.846  14.291
92425W        W58856  28.305   4.775   2.579
92426W        W58857  38.045  12.719  13.107
92427W        W58858  17.269   0.538  12.622
92428W        W58859  38.538   2.195   1.379
92429W        W58860   8.995  28.464   4.694
92430W        W58861   2.794  38.299   4.043
92431W        W58862  25.459  36.967   0.794
92432W        W58863  39.127  28.283   0.800
92433W        W58864  39.099  12.698   0.299
92434W        W58865  30.033  10.492   0.310
92435W        W58866  18.162  35.999  12.583
92436W        W58867  24.582   3.176   4.738
92437W        W58868  42.490  38.344  11.123
92438W        W58869  12.107  33.690   1.440
92439W        W58870  32.457   7.841  13.938
92440W        W58871  39.893  30.313   2.188
92441W        W58872  33.894  12.758   0.471
92442W        W58873   8.696  15.752   4.715
92443W        W58874  20.509   3.590  14.946
92444W        W58875  44.016   1.235  10.709
92445W        W58876  36.525   3.280   2.810
92446W        W58877   6.910  38.000   4.634
92447W        W58878  14.199  28.885   3.214
92448W        W58879   6.699  16.759  10.971
92449W        W58880  21.649  11.044  11.793
92450W        W58881   3.795  39.008   2.811
92451W        W58882  33.526  18.673   4.547
92452W        W58883  12.232  35.422   4.367
92453W        W58884  31.607  39.063   2.631
92454W        W58885  43.493   7.195   1.937
92455W        W58886  35.359   9.556   0.187
92456W        W58887   9.887  18.268  12.063
92457W        W58888  28.502  21.066   1.323
92458W        W58889  42.029   5.254   2.298
92459W        W58890  40.844  40.592  10.329
92460W        W58891   7.727  22.415   0.269
92461W        W58892  22.762  43.473   2.328
92462W        W58893  29.860   2.913  10.289
92463W        W58894   4.694  22.189  11.121
92464W        W58895   1.476  17.284   2.387
92465W        W58896   1.996  23.406   3.937
92466W        W58897  26.958   5.053   1.977
92467W        W58898  36.076  11.159   4.612
92468W        W58899   7.230  36.801   2.178
92469W        W58900  24.712  41.440  11.970
92470W        W58901  25.984   9.106   1.063
92471W        W58902  12.096   7.825   0.757
92472W        W58903  35.367  18.649  14.018
92473W        W58904   2.980   4.401   1.111
92474W        W58905  30.379   2.532   2.490
92475W        W58906  12.639  23.720  10.321
92476W        W58907   4.468  35.893  12.453
92477W        W58908  36.411  37.832   2.625
92478W        W58909  14.855   9.724  10.799
92479W        W58910  21.773  33.587   0.957
92480W        W58911  26.631  36.050   3.756
92481W        W58912  12.129  10.653   0.720
92482W        W58913  41.447  11.435   0.970
92483W        W58914   9.139  19.196   4.110
92484W        W58915   6.588   8.826  11.689
92485W        W58916   7.613  43.917   0.988
92486W        W58917  38.979  22.865   4.146
92487W        W58918  44.826  24.563  11.587
92488W        W58919  18.184   8.708  11.500
92489W        W58920  43.504  41.300  10.600
92490W        W58921   5.512  16.338  11.563
92491W        W58922  37.164  16.696   0.748
92492W        W58923  22.725  29.101  11.954
92493W        W58924  11.316  24.707  12.551
92494W        W58925  22.556   8.047  11.072
92495W        W58926   6.147   6.460  11.116
92496W        W58927  30.928  12.030  11.488
92497W        W58928  30.070  20.150  11.336
92498W        W58929  35.385  14.173   4.927
92499W        W58930   0.297  24.134   3.803
92500W        W58931  26.983  24.585   3.459
92501W        W58932   1.377  29.054   4.746
92502W        W58933  16.399  21.556  12.428
92503W        W58934  12.814  36.630  12.316
92504W        W58935   2.420  13.524   1.264
92505W        W58936  41.855   6.265   1.194
92506W        W58937  15.479  43.012   2.509
92507W        W58938   8.812  19.595   4.978
92508W        W58939  36.731   5.947   0.762
92509W        W58940  31.595  19.618   4.454
92510W        W58941   3.669  35.849  12.898
92511W        W58942  28.091   6.828   3.447
92512W        W58943  38.172  25.689  14.255
92513W        W58944  24.370  41.895   1.261
92514W        W58945  15.628  16.516   0.801
92515W        W58946  24.575   3.780  12.569
92516W        W58947   3.964   4.429   2.772
92517W        W58948   7.376  17.795   1.820
92518W        W58949  23.620  10.885   4.766
92519W        W58950  36.979   0.435   1.385
92520W        W58951  40.001  25.099  12.338
92521W        W58952  17.210   2.925   4.192
92522W        W58953  18.553  17.575   4.266
92523W        W58954  32.074  33.915   4.783
92524W        W58955  34.857  39.749   4.545
92525W        W58956  35.319  35.003  12.093
92526W        W58957   5.202  16.682   2.144
92527W        W58958  13.140  23.136   0.822
92528W        W58959   6.209  34.534   3.404
92529W        W58960  12.752  25.202  14.962
92530W        W58961   7.271   2.900  14.889
92531W        W58962  11.351  18.456   2.895
92532W        W58963   1.361  33.095  11.648
92533W        W58964  44.540   1.006   9.991
92534W        W58965  26.503   9.273  14.716
92535W        W58966  26.984  14.093   1.873
92536W        W58967  21.047  32.392   1.858
92537W        W58968  28.696  19.943   0.763
92538W        W58969   7.938  35.843   0.315
92539W        W58970   0.455  35.758   1.322
92540W        W58971   2.370  24.148  13.067
92541W        W58972  19.655  29.374   3.266
92542W        W58973  43.077  32.922   3.718
92543W        W58974   4.854   8.951  11.729
92544W        W58975  28.913  18.315  14.525
92545W        W58976  15.617  36.012   1.567
92546W        W58977  38.473  37.956   0.489
92547W        W58978  37.411  30.499   1.746
92548W        W58979  10.358  10.857  13.380
92549W        W58980  32.659  11.268  12.667
92550W        W58981  12.386  18.125  13.895
92551W        W58982  14.292  34.683   2.184
92552W        W58983  17.112  31.059  14.289
92553W        W58984  20.254  31.509  11.001
92554W        W58985  42.817  29.136   3.733
92555W        W58986  14.797  42.474   0.760
92556W        W58987  18.463  23.742  14.385
92557W        W58988  23.500   4.397  12.552
92558W        W58989  12.852  13.722   4.079
92559W        W58990  21.601  23.010   3.723
92560W        W58991   9.411  41.382  14.338
92561W        W58992  43.822  40.902   3.642
92562W        W58993  37.323  27.443   5.515
92563W        W58994  11.193   2.772   0.003
92564W        W58995  37.129  31.222   1.081
92565W        W58996  22.968   0.215  13.002
92566W        W58997  17.057   0.998   4.525
92567W        W58998  29.143  23.252   4.190
92568W        W58999  18.725  13.924   0.800
92569W        W59000  41.335  34.400   3.609
92570W        W59001  19.956  40.280  11.654
92571W        W59002  34.384  24.771  13.523
92572W        W59003   6.715   8.763   3.566
92573W        W59004  24.052   0.343   1.711
92574W        W59005  27.247   2.235  13.578
92575W        W59006  29.396  26.564  11.182
92576W        W59007  25.460  35.035   1.811
92577W        W59008  14.074  34.079  13.407
92578W        W59009  42.431  32.883   3.117
92579W        W59010  29.317  15.473   0.766
92580W        W59011  39.382  15.831  11.115
92581W        W59012   2.236  23.643  13.036
92582W        W59013  38.930  39.256   2.736
92583W        W59014   5.305  10.243   4.613
92584W        W59015   2.804  23.419   1.268
92585W        W59016  32.899   7.960   0.266
92586W        W59017  39.496  16.962  12.984
92587W        W59018  30.578  33.034   2.094
92588W        W59019  16.365  39.781   3.654
92589W        W59020  28.554   7.907  11.594
92590W        W59021  15.945  31.955  12.552
92591W        W59022  29.270  29.890   1.774
92592W        W59023  33.657   8.785  12.120
92593W        W59024   3.506   2.071  12.600
92594W        W59025  34.069  30.022   3.392
92595W        W59026  18.345  12.260   4.416
92596W        W59027  17.632  10.844  13.988
92597W        W59028   6.312  14.505  10.742
92598W        W59029   3.658   4.135   4.056
92599W        W59030  41.048  18.079  11.509
92600W        W59031  38.408   1.732  13.877
92601W        W59032  27.860  22.663  11.587
92602W        W59033  23.098   7.298  11.151
92603W        W59034  13.783   1.801  14.025
92604W        W59035  30.631  36.225  11.238
92605W        W59036  40.382  34.288   4.054
92606W        W59037  11.926  27.657   1.908
92607W        W59038  23.594  14.353  13.105
92608W        W59039  28.733  17.769  11.457
92609W        W59040  25.446   0.807   4.563
92610W        W59041  24.957  15.757  11.723
92611W        W59042  21.637   9.752  12.510
92612W        W59043   2.143  19.629  11.846
92613W        W59044  40.163  34.876   4.116
92614W        W59045  12.566   3.818   0.754
92615W        W59046  12.385  25.722   1.709
92616W        W59047  17.987  34.486   4.607
92617W        W59048  42.635  43.711  14.278
92618W        W59049  28.474   0.870   1.929
92619W        W59050  37.872   6.959  12.496
92620W        W59051  13.389  36.859   4.090
92621W        W59052  20.033  43.971  13.893
92622W        W59053  39.566  21.760   2.375
92623W        W59054  38.321  13.538   3.313
92624W        W59055   5.154  28.978  11.632
92625W        W59056  22.747  33.057   1.136
92626W        W59057   5.104  34.943  14.996
92627W        W59058  28.093  19.007  12.591
92628W        W59059   0.159  11.172  14.823
92629W        W59060  12.406  43.461  13.608
92630W        W59061   4.688  23.135  14.080
92631W        W59062   5.976  38.085  11.959
92632W        W59063  41.325  41.558   3.237
92633W        W59064  23.536  27.350   4.058
92634W        W59065  18.751   2.833   1.274
92635W        W59066   5.767   3.779   4.678
92636W        W59067  30.516  13.571   4.589
92637W        W59068  34.927  41.946  14.918
92638W        W59069  11.892  29.985   4.105
92639W        W59070   4.661  12.649  10.588
92640W        W59071  22.518   2.200   4.691
92641W        W59072  39.706  20.799  13.936
92642W        W59073   7.726  21.146   0.840
92643W        W59074  37.513  38.806  12.033
92644W        W59075  11.663  19.337   4.885
92645W        W59076  14.155  19.871  11.520
92646W        W59077  42.025  19.021  12.542
92647W        W59078  31.988   7.335   3.781
92648W        W59079  21.171  21.451  12.897
92649W        W59080  27.920  24.466  14.240
92650W        W59081  38.246  16.446  14.143
92651W        W59082   1.292  26.589   2.690
92652W        W59083  30.679   0.469  10.807
92653W        W59084  34.642   7.425   2.688
92654W        W59085  28.380   4.817  10.280
92655W        W59086  37.622  23.962   3.603
92656W        W59087  28.719  25.731   0.950
92657W        W59088  16.093  21.735   4.358
92658W        W59089  34.884  10.463   1.475
92659W        W59090  42.841  37.380  10.435
92660W        W59091  33.923  12.818  11.512
92661W        W59092  14.828  33.987  12.176
92662W        W59093  40.953  24.144   2.209
92663W        W59094  27.662  22.313   3.544
92664W        W59095  28.648   7.474   4.684
92665W        W59096  28.003  41.232  14.531
92666W        W59097  32.285  27.848  13.545
92667W        W59098  22.715   4.384   1.260
92668W        W59099  27.468  18.742  14.927
92669W        W59100  29.746  19.453  13.333
92670W        W59101  43.870  30.932  12.160
92671W        W59102   2.187  28.606  14.550
92672W        W59103  37.959  21.982   3.708
92673W        W59104  41.304  30.564   2.358
92674W        W59105   9.419  26.546  14.402
92675W        W59106  43.535  38.890   1.863
92676W        W59107  31.537  20.352  14.374
92677W        W59108   3.029  35.244  13.557
92678W        W59109  36.857  18.539   1.353
92679W        W59110  38.487  10.665   4.714
92680W        W59111  19.153  20.312  13.283
92681W        W59112  15.640  35.469  12.853
92682W        W59113   5.629   3.373  12.867
92683W        W59114  39.035  15.261  10.764
92684W        W59115   5.313  14.217   0.962
92685W        W59116   6.015  23.274   4.599
92686W        W59117  30.580  18.253   1.275
92687W        W59118  20.261   9.205  12.839
92688W        W59119  10.604  35.168   0.394
92689W        W59120  25.998  28.003   1.864
92690W        W59121  17.758   2.254   0.274
92691W        W59122   2.742  16.772  11.832
92692W        W59123  22.934  40.979   3.371
92693W        W59124   3.250   0.860   4.612
92694W        W59125  12.065  19.053   0.974
92695W        W59126  24.138  17.661  13.304
92696W        W59127  29.389   8.140  12.931
92697W        W59128  35.127  42.072   2.926
92698W        W59129  26.483  34.791   0.800
92699W        W59130   0.037  39.135   1.799
92700W        W59131   0.405  24.125  12.945
92701W        W59132  34.126  28.582  14.474
92702W        W59133  27.691  27.144  10.793
92703W        W59134  29.127   2.368   4.829
92704W        W59135  35.636   9.491   2.803
92705W        W59136  24.169  13.141   1.273
92706W        W59137  29.692   1.201  14.845
92707W        W59138  14.160  42.000   4.861
92708W        W59139  36.899  42.719   4.108
92709W        W59140   9.350  14.062  14.864
92710W        W59141  39.015  30.330  14.556
92711W        W59142  20.004  31.505  13.507
92712W        W59143  33.918  13.143   1.761
92713W        W59144  34.548   7.708  13.989
92714W        W59145  34.125  37.420   4.521
92715W        W59146  24.160  30.699   3.731
92716W        W59147  18.982  18.101   4.520
92717W        W59148  21.924   0.450  13.875
92718W        W59149  17.052   7.763  14.395
92719W        W59150  33.911   0.375   0.001
92720W        W59151   9.604   7.243  11.348
92721W        W59152  11.292  39.704   4.928
92722W        W59153  21.748  41.285   2.568
92723W        W59154   7.378  22.295  11.251
92724W        W59155  42.999   7.077  11.999
92725W        W59156   1.795  37.039  14.456
92726W        W59157   8.619  43.865   2.780
92727W        W59158  14.229  34.394  14.815
92728W        W59159  11.337   5.133   0.210
92729W        W59160  35.208  35.982  10.284
92730W        W59161  10.277  26.230   0.491
92731W        W59162  24.450  17.552  10.686
92732W        W59163   3.156  42.360   2.814
92733W        W59164  43.378  25.658   3.872
92734W        W59165   9.058  10.208   3.238
92735W        W59166   8.333  32.792  14.721
92736W        W59167   9.241   4.980   2.898
92737W        W59168  35.475  38.996  11.292
92738W        W59169  27.516   0.669   2.277
92739W        W59170  13.053  17.037  12.006
92740W        W59171  18.620  30.315   3.670
92741W        W59172  39.077  24.136  13.830
92742W        W59173  29.752   5.018  13.232
92743W        W59174  10.769   1.487   3.435
92744W        W59175  15.065  39.642   2.767
92745W        W59176   3.414  26.302  14.856
92746W        W59177   0.220  12.160   2.540
92747W        W59178   7.817  15.327   4.616
92748W        W59179  26.143  23.540  12.488
92749W        W59180  11.304  15.407   0.958
92750W        W59181  24.620  34.131   4.538
92751W        W59182  18.029  12.808  10.369
92752W        W59183  18.203  16.237  11.383
92753W        W59184  11.402  10.720  14.884
92754W        W59185  16.093  11.674  14.236
92755W        W59186  22.146   4.860   2.075
92756W        W59187  19.479  38.657  12.481
92757W        W59188  22.995  27.051  11.178
92758W        W59189  27.625  43.571  13.360
92759W        W59190   3.333  21.090  13.592
92760W        W59191  24.809  38.032  13.095
92761W        W59192  29.526  32.585  11.940
92762W        W59193  20.830   5.021   1.682
92763W        W59194   1.966   8.824   3.584
92764W        W59195  26.906  24.758   2.832
92765W        W59196  38.369  41.803   2.130
92766W        W59197  35.922  35.857  12.472
92767W        W59198   2.854  15.649   0.772
92768W        W59199  34.859   6.441  11.185
92769W        W59200  12.948  17.971   1.741
92770W        W59201  21.513  28.400   1.025
92771W        W59202  27.707  39.967   5.041
92772W        W59203   9.359   5.371   1.058
92773W        W59204   6.009  27.412   4.116
92774W        W59205  13.177  22.672  11.022
92775W        W59206  33.925  25.990  13.378
92776W        W59207  33.793  25.226  14.350
92777W        W59208  32.305  15.171  13.883
92778W        W59209  28.605  16.167  11.089
92779W        W59210  33.423  34.380   0.769
92780W        W59211  31.679  20.466   1.263
92781W        W59212  18.619   2.923   4.610
92782W        W59213   9.135  42.485   2.671
92783W        W59214  15.157  34.893  14.843
92784W        W59215   1.680  35.820  11.208
92785W        W59216  26.440  34.744   3.835
92786W        W59217  42.164  22.105   3.791
92787W        W59218  44.191  19.229  12.424
92788W        W59219  39.313  37.737  13.205
92789W        W59220   7.110   7.828  11.052
92790W        W59221  23.475   6.563  11.139
92791W        W59222  23.214  43.766  12.950
92792W        W59223   4.932  40.904   0.363
92793W        W59224  27.122  33.612   2.266
92794W        W59225  26.547  42.287   2.406
92795W        W59226  29.079  39.915  13.314
92796W        W59227   6.495  35.239  12.451
92797W        W59228   6.026  28.369  12.974
92798W        W59229  27.611   7.174  13.983
92799W        W59230  27.511   1.781  13.759
92800W        W59231  15.394  30.710   0.802
92801W        W59232  31.053   4.118   1.385
92802W        W59233   7.405  22.093   4.739
92803W        W59234  28.651  26.089  11.569
92804W        W59235  10.604   3.929   2.108
92805W        W59236  17.090  13.219   1.827
92806W        W59237  11.064  13.536  12.502
92807W        W59238  16.115  37.964   1.257
92808W        W59239  42.918   3.753  14.870
92809W        W59240   8.823   4.489   1.718
92810W        W59241  17.280  17.647   2.463
92811W        W59242  29.886   8.182  14.863
92812W        W59243  35.943   6.147   1.801
92813W        W59244  11.841   7.379   0.871
92814W        W59245   0.020  38.891  13.031
92815W        W59246  26.108   5.633   0.172
92816W        W59247  14.566   1.253  13.708
92817W        W59248   7.873  20.265  13.322
92818W        W59249  19.804  42.172  12.948
92819W        W59250  20.451  28.876  11.516
92820W        W59251  27.363  18.256   2.647
92821W        W59252   5.444  16.740  13.989
92822W        W59253  24.136   1.386  13.771
92823W        W59254  13.659  22.965  14.261
92824W        W59255  14.152  40.959   0.776
92825W        W59256  20.209  34.346   2.587
92826W        W59257  13.310  20.526  10.528
92827W        W59258   0.437  25.154   3.686
92828W        W59259  27.749  38.385  10.950
92829W        W59260  35.770   7.448   1.293
92830W        W59261  27.728  28.888   2.637
92831W        W59262   8.764  29.162  13.912
92832W        W59263  25.078  28.323   3.736
92833W        W59264  28.074  35.481  14.957
92834W        W59265  32.881   3.540  14.232
92835W        W59266  40.078  26.145   0.165
92836W        W59267  27.284  14.690   0.318
92837W        W59268  30.935  11.317   0.691
92838W        W59269  20.700  11.405   2.904
92839W        W59270  10.726  16.320  10.555
92840W        W59271   3.913  11.983   2.303
92841W        W59272  27.181  26.688   3.624
92842W        W59273   6.161  20.160  10.692
92843W        W59274   5.750  37.407   0.920
92844W        W59275  37.372  20.093  12.566
92845W        W59276  43.938  14.020  11.178
92846W        W59277  30.208  35.386  11.164
92847W        W59278  31.694  38.423   3.704
92848W        W59279  43.399  10.415   3.176
92849W        W59280  32.108   7.414  10.699
92850W        W59281   7.878  30.143  13.514
92851W        W59282  11.777  13.200  11.170
92852W        W59283  12.842  27.954   1.821
92853W        W59284   5.356  36.008   4.172
92854W        W59285   3.917  41.578   1.470
92855W        W59286  43.975  32.704  13.829
92856W        W59287  16.697  28.699  12.935
92857W        W59288  18.789  16.158  14.511
92858W        W59289   4.897  25.569   0.937
92859W        W59290  20.636  36.441   2.800
92860W        W59291  21.566  10.784  13.602
92861W        W59292  36.183  40.887   3.250
92862W        W59293  36.561   6.277  13.497
92863W        W59294  24.520   1.422  12.691
92864W        W59295  16.381  33.013  13.875
92865W        W59296  12.323  42.219  12.556
92866W        W59297  26.610   9.288  10.057
92867W        W59298  36.948  15.486  13.386
92868W        W59299  44.069  40.710   0.203
92869W        W59300  30.574  36.540  12.095
92870W        W59301  16.286  30.704  12.068
92871W        W59302  43.020  14.071   2.585
92872W        W59303   1.052  40.235   3.167
92873W        W59304  26.992  18.800   4.750
92874W        W59305  25.735  10.468   3.227
92875W        W59306   3.922  32.812  14.247
92876W        W59307   1.495   1.548   1.841
92877W        W59308   8.243  30.897  10.804
92878W        W59309  31.691  20.651  12.976
92879W        W59310   6.207  31.315   0.355
92880W        W59311   4.215  11.101   2.886
92881W        W59312  24.983   1.737  10.395
92882W        W59313  11.732   4.494   1.288
92883W        W59314  41.270   4.258   3.764
92884W        W59315  41.534  40.272  14.239
92885W        W59316  22.595  24.998  13.735
92886W        W59317  44.455  41.985  11.784
92887W        W59318  17.112  30.552  14.336
92888W        W59319  19.354   1.318  11.805
92889W        W59320  22.954  13.088  14.877
92890W        W59321  27.665   3.486   0.355
92891W        W59322  41.898   0.445   1.226
92892W        W59323  37.425  18.688  10.578
92893W        W59324   5.604   3.164  12.407
92894W        W59325  18.151  33.040  11.261
92895W        W59326   8.222   5.768   3.902
92896W        W59327  10.321  29.427   1.036
92897W        W59328  13.746  44.313   3.102
92898W        W59329  26.882  26.575   2.826
92899W        W59330   5.924  25.000  12.053
92900W        W59331  17.093  39.005   0.479
92901W        W59332  24.577  22.231  14.487
92902W        W59333   3.864  22.279   2.760
92903W        W59334  34.802   9.690   2.650
92904W        W59335  40.109  12.165  12.526
92905W        W59336  13.619  30.039  10.714
92906W        W59337  21.771  44.706  11.101
92907W        W59338  33.133  17.190   5.160
92908W        W59339  26.806  40.762   4.680
92909W        W59340  27.959  24.595  12.838
92910W        W59341   2.356  26.465   1.902
92911W        W59342  21.076  23.003   2.395
92912W        W59343   4.714   1.707   3.708
92913W        W59344  17.138  20.293  11.520
92914W        W59345  11.139   7.423  14.354
92915W        W59346   5.200  21.535   1.160
92916W        W59347  33.898  12.906  13.022
92917W        W59348  17.409   2.694  11.026
92918W        W59349  22.955   7.806  14.860
92919W        W59350  23.127  21.968  14.760
92920W        W59351   0.334  16.694   1.640
92921W        W59352  35.579  24.628  11.175
92922W        W59353  41.923  32.596  10.903
92923W        W59354  31.194   6.436   2.206
92924W        W59355   3.346  26.523  13.735
92925W        W59356  26.123   2.435   2.248
92926W        W59357  32.630  13.263  12.544
92927W        W59358  39.350  21.015   1.893
92928W        W59359  23.650  19.189  11.660
92929W        W59360  36.764  33.683  11.759
92930W        W59361  19.816  40.066  12.099
92931W        W59362   8.574  44.034  11.970
92932W        W59363  14.233  13.448   4.517
92933W        W59364   2.286   1.690  10.594
92934W        W59365  28.412  31.559  12.090
92935W        W59366  16.049  22.220  11.035
92936W        W59367  37.701   1.910   4.893
92937W        W59368  15.789  30.655  11.889
92938W        W59369  32.093  42.386  13.116
92939W        W59370  27.043  26.492  10.678
92940W        W59371  38.007   0.443   3.489
92941W        W59372  11.238  15.625  10.186
92942W        W59373  42.767  44.090  13.027
92943W        W59374  13.265  22.093  14.805
92944W        W59375   7.764  36.091   0.736
92945W        W59376  27.170  19.518   1.672
92946W        W59377  36.244   1.783  13.018
92947W        W59378  44.515  20.485  14.991
92948W        W59379  37.574   8.943   2.748
92949W        W59380  21.492   7.924  11.173
92950W        W59381  29.604   7.705  13.073
92951W        W59382  33.128   8.767  13.820
92952W        W59383  28.966  16.234   0.405
92953W        W59384  36.484  21.314   0.890
92954W        W59385  38.014   9.517   4.101
92955W        W59386  43.969  33.999   0.220
92956W        W59387  11.588  19.879   2.792
92957W        W59388  37.131  13.758   2.661
92958W        W59389  30.934   8.664   0.847
92959W        W59390  24.406  23.930   1.285
92960W        W59391  25.711  40.236   5.104
92961W        W59392  18.133  32.690  12.870
92962W        W59393  36.549  30.647   4.046
92963W        W59394  40.138  37.443  13.861
92964W        W59395  36.369  30.935   2.609
92965W        W59396  27.915  39.266  14.423
92966W        W59397  25.279  10.725   1.887
92967W        W59398   4.755  14.228  14.545
92968W        W59399  30.987  15.781   0.471
92969W        W59400  31.541  33.411  13.256
92970W        W59401  28.685  29.050   1.891
92971W        W59402   5.404  42.278  14.362
92972W        W59403  26.899   0.094  13.401
92973W        W59404  15.586  31.015   2.274
92974W        W59405  29.224  17.517  14.318
92975W        W59406  29.376  36.136   5.013
92976W        W59407   1.741  21.922   0.779
92977W        W59408  22.285  11.407   2.053
92978W        W59409  38.255  29.767  12.020
92979W        W59410  29.614  35.940   0.743
92980W        W59411  21.670  31.905  12.025
92981W        W59412  41.321  35.608   2.523
92982W        W59413  38.889  41.956   2.265
92983W        W59414  39.848  16.051   2.258
92984W        W59415  23.537  41.446  13.142
92985W        W59416  31.518  42.020   3.115
92986W        W59417   0.046  40.013   1.948
92987W        W59418  44.799   7.880  10.769
92988W        W59419  37.201   4.687   0.595
92989W        W59420  29.030  37.952   4.616
92990W        W59421   6.029  24.586  13.299
92991W        W59422  32.649   6.387  12.479
92992W        W59423  30.575  38.622  13.565
92993W        W59424  26.385   2.873   2.061
92994W        W59425  35.059  38.799  11.617
92995W        W59426  23.225  19.877   3.747
92996W        W59427  37.833   2.832   0.382
92997W        W59428  27.701   4.820   4.047
92998W        W59429  30.014  14.141   3.800
92999W        W59430  16.750  10.786  11.065
93000W        W59431  22.249   9.272   3.228
93001W        W59432  25.031  15.826   0.662
93002W        W59433  42.469  13.575   2.963
93003W        W59434  13.846  31.500   4.977
93004W        W59435  27.459   8.751  12.624
93005W        W59436   2.912  15.306   1.857
93006W        W59437  38.843  15.384  14.978
93007W        W59438  21.407  11.134   1.728
93008W        W59439  19.285  17.962  12.113
93009W        W59440   1.310   1.326  10.786
93010W        W59441  32.504  21.361  10.105
93011W        W59442   0.450   0.199  11.892
93012W        W59443  11.670   6.174  11.558
93013W        W59444   3.838  40.548  11.977
93014W        W59445   6.312  31.374   2.255
93015W        W59446  18.229  33.441   2.309
93016W        W59447  12.746  33.597  12.325
93017W        W59448  11.322  11.052  12.830
93018W        W59449  22.574  20.722   1.696
93019W        W59450  22.289  41.180  14.891
93020W        W59451  28.199  29.075  13.765
93021W        W59452  18.748  27.596  12.974
93022W        W59453  44.159  33.004   1.121
93023W        W59454  12.168  23.621  13.507
93024W        W59455  29.935  12.028  12.015
93025W        W59456   1.805  39.901   3.327
93026W        W59457  35.827   2.997   0.460
93027W        W59458   9.778  14.050  11.113
93028W        W59459  42.047  37.055   0.936
93029W        W59460  18.515  33.871   0.326
93030W        W59461   8.045  18.654  14.819
93031W        W59462  41.536   4.373   3.282
93032W        W59463  39.054  29.350  14.837
93033W        W59464  20.487  21.769  13.904
93034W        W59465  25.997  11.740  14.062
93035W        W59466  35.456  31.126   0.921
93036W        W59467  44.378  28.801   4.276
93037W        W59468  44.570   2.909  12.102
93038W        W59469  42.035   3.116   3.622
93039W        W59470  25.394  41.400  11.620
93040W        W59471  40.590  37.822  12.049
93041W        W59472  17.591   0.863  10.454
93042W        W59473  27.602  12.755   4.011
93043W        W59474  37.774  18.133   0.006
93044W        W59475  31.154  41.648   0.910
93045W        W59476  37.587  29.482   3.626
93046W        W59477   0.493  42.475  12.063
93047W        W59478   7.426  43.013   4.575
93048W        W59479  17.044  30.596   1.425
93049W        W59480  28.899  12.075  13.456
93050W        W59481   7.403  21.526   0.742
93051W        W59482  15.188  44.989  13.693
93052W        W59483  35.889  17.307  14.801
93053W        W59484  33.418   9.216  13.804
93054W        W59485  19.707  20.293  11.611
93055W        W59486  43.576  15.496   3.627
93056W        W59487  38.379  25.058   3.868
93057W        W59488  30.443  32.702  11.663
93058W        W59489   1.331  37.564   0.389
93059W        W59490  20.544  21.378  10.777
93060W        W59491  18.301  42.304   1.455
93061W        W59492  35.496  41.440  12.660
93062W        W59493  42.807  21.135  11.908
93063W        W59494  18.331  36.733  14.379
93064W        W59495  36.388  13.654   4.113
93065W        W59496  29.470  23.809  10.630
93066W        W59497  22.334  36.384  10.528
93067W        W59498  40.822  20.420   0.645
93068W        W59499   9.237  31.433  14.535
93069W        W59500  43.035   2.433   5.240
93070W        W59501  14.875  28.180   4.320
93071W        W59502  21.162  10.477   4.931
93072W        W59503  16.475  40.436   3.745
93073W        W59504   1.983  31.685   4.536
93074W        W59505  11.696  32.672  11.194
93075W        W59506  39.387  28.433  11.061
93076W        W59507   4.344  42.172  11.022
93077W        W59508  37.872  14.189   0.100
93078W        W59509  43.818  29.060   4.933
93079W        W59510   0.831  24.994   1.840
93080W        W59511   0.698   8.701  13.519
93081W        W59512  15.714  39.877   2.243
93082W        W59513  15.777  43.416   0.202
93083W        W59514  43.344  32.073   1.282
93084W        W59515   2.528  26.034  13.394
93085W        W59516  24.119  34.348   4.960
93086W        W59517   4.996  28.336  11.693
93087W        W59518  37.402  41.563  11.663
93088W        W59519  12.789  16.140  13.389
93089W        W59520   5.763  31.522   0.146
93090W        W59521  30.541   0.753   2.293
93091W        W59522  41.625  44.753   1.853
93092W        W59523  40.485  18.619  13.568
93093W        W59524  28.908   8.485  14.314
93094W        W59525   6.249  15.281   2.181
93095W        W59526  33.953  44.441   2.709
93096W        W59527  35.440  40.510   2.342
93097W        W59528  27.916   1.924  14.891
93098W        W59529  33.088  33.199   1.319
93099W        W59530  22.494  34.271   0.905
93100W        W59531   3.962  44.704  11.600
93101W        W59532  25.917  35.075  11.946
93102W        W59533   5.751   4.422   1.377
93103W        W59534  15.238  12.857  13.448
93104W        W59535  26.023  11.235   0.455
93105W        W59536  18.072  10.561  14.248
93106W        W59537  28.668  13.299   3.073
93107W        W59538   8.645  34.389   2.677
93108W        W59539   0.667  19.455  11.253
93109W        W59540  43.760  10.148   4.127
93110W        W59541  34.904  19.010  12.106
93111W        W59542  13.814  15.427   3.643
93112W        W59543  37.877   4.249  14.909
93113W        W59544   9.435  35.244  12.112
93114W        W59545  35.095   9.939  12.975
93115W        W59546  28.135  33.540  11.600
93116W        W59547  23.590   0.223   4.651
93117W        W59548   9.993  26.636  13.385
93118W        W59549  22.968  37.839   2.777
93119W        W59550  13.689  36.325  13.731
93120W        W59551  24.290  44.667   3.344
93121W        W59552  20.709   8.980   4.092
93122W        W59553  39.782  42.499  12.462
93123W        W59554  20.783  28.511  10.661
93124W        W59555  22.243  12.966  13.874
93125W        W59556   0.512  44.873   1.363
93126W        W59557   0.697  42.925   4.702
93127W        W59558  26.138   0.009   1.728
93128W        W59559   3.765  41.168  12.768
93129W        W59560  25.426  28.835  11.110
93130W        W59561  15.846   0.661   2.700
93131W        W59562  16.009  37.144  11.557
93132W        W59563   6.482  16.165  14.414
93133W        W59564  44.937  32.535   3.280
93134W        W59565  15.064  39.133   2.588
93135W        W59566  40.252   7.864  14.268
93136W        W59567  12.704  10.771  11.173
93137W        W59568   6.694  16.552  11.935
93138W        W59569  43.425  37.863   1.715
93139W        W59570  41.045  44.972   0.080
93140W        W59571  27.931   7.098   2.020
93141W        W59572  16.695   5.675  14.281
93142W        W59573   9.362  11.645   2.410
93143W        W59574   7.081  18.558   2.346
93144W        W59575  40.070  32.017  13.360
93145W        W59576   1.779  14.347   3.164
93146W        W59577   1.923   9.159   4.484
93147W        W59578  44.666  30.357  12.655
93148W        W59579  16.524   8.053   2.597
93149W        W59580  23.990   6.805   1.911
93150W        W59581  25.202  15.320   5.135
93151W        W59582  28.469  30.612   0.034
93152W        W59583  13.705   1.295   4.700
93153W        W59584  37.270  21.710   2.768
93154W        W59585   1.963   5.296   3.540
93155W        W59586  22.029  42.246  11.872
93156W        W59587  30.053  28.504  13.926
93157W        W59588  15.505  32.224   0.716
93158W        W59589  40.292  21.191  14.780
93159W        W59590   1.302  20.746   3.358
93160W        W59591   9.083  34.614  11.568
93161W        W59592   7.837  15.963  12.113
93162W        W59593  43.094  33.434   3.686
93163W        W59594  21.514   1.335   2.689
93164W        W59595  44.863  39.606   2.678
93165W        W59596  32.720   9.026  13.439
93166W        W59597   8.798  27.677  11.578
93167W        W59598   2.958  11.267  13.281
93168W        W59599  27.330   7.280  13.583
93169W        W59600   6.575  26.638   0.531
93170W        W59601   5.460  38.428  12.493
93171W        W59602  20.748  13.578  11.607
93172W        W59603   9.152  11.304   0.997
93173W        W59604  34.388  14.101   0.974
93174W        W59605   5.776   4.170   3.167
93175W        W59606  44.222  20.885   0.091
93176W        W59607  12.728  27.762   4.195
93177W        W59608   0.410  23.568   0.275
93178W        W59609  29.955  35.431  12.918
93179W        W59610  17.578   3.000   2.701
93180W        W59611  30.037   7.361  13.244
93181W        W59612  11.241  22.805  11.739
93182W        W59613   2.388  16.717   4.796
93183W        W59614  11.222  10.617  12.046
93184W        W59615  18.899  26.399   9.861
93185W        W59616  26.513  33.333  12.940
93186W        W59617  18.344  25.712  10.635
93187W        W59618  21.473  41.986   4.113
93188W        W59619  22.560  11.765   1.229
93189W        W59620   5.783   4.340   2.283
93190W        W59621  22.190  24.521   0.882
93191W        W59622  18.767  10.362   4.091
93192W        W59623  40.916  44.286  12.843
93193W        W59624  40.741  11.733   1.712
93194W        W59625  29.926  38.942   2.212
93195W        W59626  19.388  28.106   1.454
93196W        W59627   0.501  38.424   2.735
93197W        W59628   4.593  10.253  14.874
93198W        W59629  31.161  21.118  13.993
93199W        W59630  43.404   5.458  13.800
93200W        W59631  25.794   3.395   0.222
93201W        W59632  17.207  37.536  11.386
93202W        W59633  25.675  33.234   3.172
93203W        W59634  37.518  35.691   3.146
93204W        W59635  22.005  31.466   2.795
93205W        W59636  25.815  29.433   3.546
93206W        W59637  43.607  41.785  14.345
93207W        W59638   0.136  39.332   0.818
93208W        W59639  30.180   5.026   9.730
93209W        W59640  31.548   3.371   0.400
93210W        W59641  39.526  38.578  10.514
93211W        W59642   6.239  39.022  11.160
93212W        W59643  40.399   8.033   4.963
93213W        W59644  35.869  23.238  14.417
93214W        W59645  14.330  27.282   4.879
93215W        W59646  19.151  39.791  11.508
93216W        W59647  22.952  18.036  11.630
93217W        W59648   5.251   2.231  14.039
93218W        W59649  22.503  37.297   3.856
93219W        W59650  11.238  43.424   0.830
93220W        W59651  21.055  26.013  13.424
93221W        W59652  18.992  36.826  12.651
93222W        W59653   7.082  21.478  11.162
93223W        W59654  28.193  10.760  10.462
93224W        W59655  36.973   4.925  13.469
93225W        W59656  22.271  27.250   1.347
93226W        W59657   7.798  25.426   0.691
93227W        W59658  13.288  26.508   0.895
93228W        W59659  40.931   3.709   1.062
93229W        W59660  24.048   5.968   4.777
93230W        W59661   6.244   1.745  13.296
93231W        W59662  16.734  29.611  13.968
93232W        W59663  41.504  37.359  11.098
93233W        W59664  36.078  25.627  13.530
93234W        W59665  11.621  26.560   0.034
93235W        W59666  15.161  35.822   1.779
93236W        W59667  18.341   1.123  10.747
93237W        W59668  37.098   3.609   1.224
93238W        W59669  40.857  16.117  13.817
93239W        W59670  25.645  10.866  12.571
93240W        W59671  30.181   9.064  13.899
93241W        W59672  40.388  21.524  12.973
93242W        W59673  32.910  30.284   0.862
93243W        W59674  10.153  31.422  14.111
93244W        W59675  19.552  27.684   0.684
93245W        W59676   8.820  18.528   3.707
93246W        W59677  17.631  27.049  10.721
93247W        W59678  28.391  10.198   9.969
93248W        W59679  29.648  13.614   4.450
93249W        W59680  41.700   3.816   2.256
93250W        W59681  11.515  24.236   1.828
93251W        W59682  35.237  29.091  13.959
93252W        W59683  31.382  38.858   2.173
93253W        W59684  41.052   5.964  10.714
93254W        W59685  41.275  15.712  14.033
93255W        W59686  21.042   2.124   4.265
93256W        W59687  31.832  35.418  14.480
93257W        W59688  26.257  29.692   3.623
93258W        W59689  13.013  38.538   4.465
93259W        W59690  25.591  16.829   3.312
93260W        W59691  25.147  17.478   0.731
93261W        W59692  21.463  19.484  11.088
93262W        W59693  37.928   3.960   2.102
93263W        W59694   4.745   1.327  12.605
93264W        W59695  15.891  15.638  13.641
93265W        W59696  23.984  28.622  12.084
93266W        W59697  13.672  17.634  11.629
93267W        W59698   4.996  44.413  14.575
93268W        W59699  34.467  17.561  13.343
93269W        W59700  43.299  43.232   2.350
93270W        W59701   3.539   6.788  14.837
93271W        W59702   8.632   4.898   1.319
93272W        W59703  35.359   9.476  10.743
93273W        W59704  16.007  33.856   0.716
93274W        W59705   0.269  14.112   1.471
93275W        W59706  15.652   8.666  13.963
93276W        W59707  37.912  43.585  10.210
93277W        W59708  14.770  15.991   3.788
93278W        W59709  32.013  33.172   3.381
93279W        W59710  32.011   5.890   4.534
93280W        W59711  27.354  31.040  12.648
93281W        W59712  11.869  35.040  12.825
93282W        W59713  11.112   4.394  12.449
93283W        W59714  41.186  28.198   0.472
93284W        W59715  33.186  42.387  13.886
93285W        W59716   3.435  12.569  14.820
93286W        W59717  27.153  16.554  13.008
93287W        W59718  21.352   7.663  10.752
93288W        W59719  38.644  29.916  10.535
93289W        W59720  31.326  39.380  14.232
93290W        W59721  42.508   7.265  11.019
93291W        W59722  27.443   7.136  11.198
93292W        W59723  11.419  42.222  11.186
93293W        W59724   1.464  13.413  12.912
93294W        W59725  12.309  15.458   4.215
93295W        W59726  24.577  11.542  14.791
93296W        W59727   8.605  13.785   4.543
93297W        W59728  14.863   1.732   1.656
93298W        W59729  30.010  42.086  13.918
93299W        W59730  28.652  27.198   0.993
93300W        W59731  11.722  13.671  11.395
93301W        W59732   1.437  19.444   2.707
93302W        W59733  13.049  37.850  12.181
93303W        W59734  42.472   0.050   2.679
93304W        W59735  15.171  34.433   4.025
93305W        W59736  23.756  36.504   0.950
93306W        W59737  14.794  24.937   1.023
93307W        W59738   6.194  10.690  13.713
93308W        W59739   3.429  36.634   1.809
93309W        W59740  43.803  15.147  14.419
93310W        W59741  13.988   9.838   2.143
93311W        W59742  20.056  12.320  10.584
93312W        W59743  12.078  31.894   4.919
93313W        W59744  25.763  27.025   1.235
93314W        W59745  27.945  36.590  13.848
93315W        W59746  44.672  36.205   2.860
93316W        W59747  32.066   5.965   3.499
93317W        W59748  41.123  13.591   2.932
93318W        W59749  16.092   6.436  13.265
93319W        W59750  19.860  10.843   1.555
93320W        W59751  23.125   7.180  13.004
93321W        W59752  41.863  41.963  11.986
93322W        W59753  31.829  30.974   4.018
93323W        W59754  17.522  11.024  10.551
93324W        W59755  16.303  34.035  14.737
93325W        W59756  17.128  27.794   4.259
93326W        W59757  39.948  42.360  14.333
93327W        W59758   8.319  37.404  10.709
93328W        W59759  43.074  33.822   0.593
93329W        W59760  23.784  43.930   0.186
93330W        W59761  28.046  41.889   4.522
93331W        W59762  37.963  44.018   1.147
93332W        W59763  25.040  19.785   1.426
93333W        W59764  38.058   6.288  11.204
93334W        W59765  36.853  29.056   2.042
93335W        W59766  16.697  32.852  14.945
93336W        W59767  13.029  32.586   0.363
93337W        W59768  22.085  24.640  12.373
93338W        W59769  32.801  10.634  11.733
93339W        W59770  30.382  12.609   2.306
93340W        W59771  10.071  33.131  11.537
93341W        W59772  27.087  28.497  11.900
93342W        W59773  37.343  12.149  11.577
93343W        W59774  35.967  37.575   2.722
93344W        W59775   9.193  27.603   0.913
93345W        W59776  11.622  37.185   0.888
93346W        W59777  27.145   1.966  11.445
93347W        W59778  30.164  38.103   1.052
93348W        W59779  34.519  26.816  12.419
93349W        W59780   4.084   0.767  14.891
93350W        W59781  37.490  17.028  10.405
93351W        W59782   2.904  23.911   1.189
93352W        W59783  31.048  12.624   2.014
93353W        W59784  34.149  20.794  14.843
93354W        W59785   7.071  37.804   2.113
93355W        W59786   2.203  29.563   5.195
93356W        W59787  29.856   7.224   1.408
93357W        W59788  40.054   7.104  10.879
93358W        W59789   0.871  36.810  11.944
93359W        W59790  40.264  41.886  12.989
93360W        W59791  28.056  44.035   1.805
93361W        W59792  34.075  27.263   0.407
93362W        W59793  31.504  37.568   2.579
93363W        W59794  36.196  22.922  12.088
93364W        W59795   8.680  40.052  11.547
93365W        W59796  15.438  42.435   3.188
93366W        W59797  17.662  17.941   3.354
93367W        W59798   0.819  40.307  13.062
93368W        W59799  26.500  44.919   2.415
93369W        W59800   7.802  35.535  10.677
93370W        W59801  36.473  39.982   2.015
93371W        W59802  11.768  38.340  12.885
93372W        W59803  26.706  19.606   2.209
93373W        W59804  18.604  33.214  10.487
93374W        W59805  26.048  37.287   2.226
93375W        W59806  24.025  44.253  14.855
93376W        W59807   8.233  20.574  11.032
93377W        W59808  18.801  29.100  14.976
93378W        W59809  13.247   0.411  10.243
93379W        W59810  16.527  16.081  14.911
93380W        W59811  44.671  30.753  11.239
93381W        W59812  17.303   1.905  13.603
93382W        W59813  43.906  41.605  13.877
93383W        W59814  40.294  31.432   0.504
93384W        W59815  20.840   2.008  12.824
93385W        W59816  24.411  39.861  14.272
93386W        W59817  18.831  28.374   2.151
93387W        W59818  13.352  44.577   2.339
93388W        W59819  43.863  28.685  10.462
93389W        W59820  24.766  42.484  14.442
93390W        W59821  44.737  22.918  10.811
93391W        W59822  14.354  21.126   4.994
93392W        W59823  30.508  17.422  10.987
93393W        W59824  40.530  40.579   0.487
93394W        W59825   3.729  28.724   3.474
93395W        W59826   2.418   9.765   3.690
93396W        W59827   9.866  38.620  14.667
93397W        W59828  27.470  34.267  13.006
93398W        W59829  20.250  30.075   1.244
93399W        W59830  40.891  21.084   3.146
93400W        W59831  36.967  22.262  12.950
93401W        W59832  37.493  34.576   3.132
93402W        W59833   6.753  41.036  14.982
93403W        W59834  12.027   7.855   4.637
93404W        W59835  32.150  12.689  13.550
93405W        W59836  28.890  12.164   1.875
93406W        W59837  27.089  15.690   1.487
93407W        W59838  10.719  34.872   4.571
93408W        W59839  37.265  14.083  11.182
93409W        W59840  27.202  13.643  14.454
93410W        W59841   6.365  32.183  11.501
93411W        W59842  23.755   0.512  14.600
93412W        W59843  18.270   8.825   4.890
93413W        W59844  25.059   9.326  13.361
93414W        W59845  27.237   7.166  13.101
93415W        W59846  20.350  37.037   4.654
93416W        W59847   0.250  18.693   1.822
93417W        W59848  15.403   7.085  12.032
93418W        W59849  18.129  24.525   2.932
93419W        W59850  12.265  34.452   4.234
93420W        W59851  36.116  42.547  12.197
93421W        W59852  32.603  15.604   0.792
93422W        W59853  24.590  30.900   3.573
93423W        W59854  40.354  13.652   1.222
93424W        W59855   9.281  24.749   2.763
93425W        W59856  24.428  24.747   4.242
93426W        W59857  19.560   3.593   3.338
93427W        W59858  22.713   1.679   2.621
93428W        W59859  23.698  14.066   1.948
93429W        W59860  12.029  37.415   0.602
93430W        W59861   4.760  10.229   4.772
93431W        W59862  26.130  17.870   2.767
93432W        W59863  26.785  28.451   3.573
93433W        W59864  35.579  44.524   2.307
93434W        W59865  10.807   1.768   4.440
93435W        W59866  36.636  32.981   1.682
93436W        W59867  37.910  32.090   3.782
93437W        W59868  24.084  23.446  14.287
93438W        W59869  29.715  32.813   3.208
93439W        W59870  17.364   7.353  14.582
93440W        W59871  38.272  43.272   4.541
93441W        W59872  11.702   2.303   3.258
93442W        W59873  39.055   9.746  12.929
93443W        W59874  23.697  28.355   4.142
93444W        W59875   2.315  34.105  11.035
93445W        W59876  37.053  17.614   2.343
93446W        W59877   0.247  42.922   0.280
93447W        W59878  19.295  30.118   1.151
93448W        W59879  42.878   0.535   2.287
93449W        W59880  37.834  10.642   2.164
93450W        W59881  36.667  35.524  10.469
93451W        W59882  27.121  10.819   4.105
93452W        W59883  15.162  26.588  13.068
93453W        W59884   7.293  11.566   0.277
93454W        W59885  14.202  16.108  14.107
93455W        W59886  15.648  26.872  14.593
93456W        W59887   8.163  35.941  14.638
93457W        W59888  43.967  21.462   0.890
93458W        W59889  15.330   8.649  11.084
93459W        W59890   8.368   0.311  10.599
93460W        W59891  34.892  43.842  13.341
93461W        W59892  35.420  34.804  10.062
93462W        W59893  13.770  43.870   3.751
93463W        W59894  34.519  20.241   2.646
93464W        W59895   3.780   0.785   0.815
93465W        W59896  35.359  15.608   0.341
93466W        W59897  25.234  44.530   3.379
93467W        W59898  38.169  27.471   4.077
93468W        W59899   7.693  21.468  12.103
93469W        W59900   4.634   5.795  14.984
93470W        W59901  21.035   3.249   4.581
93471W        W59902  29.711  21.376   4.994
93472W        W59903  27.015  11.429  11.253
93473W        W59904  15.677  29.105  11.573
93474W        W59905  31.144  15.591  12.088
93475W        W59906   9.629  25.135  11.020
93476W        W59907   7.478  10.839   0.981
93477W        W59908  10.868  34.421  11.858
93478W        W59909  19.674  21.436   3.232
93479W        W59910  43.499  44.978  14.368
93480W        W59911   7.398   6.672  14.774
93481W        W59912  25.511  12.226   1.744
93482W        W59913   8.961  26.120   0.487
93483W        W59914  34.701  43.429  13.551
93484W        W59915   3.405  29.274   2.755
93485W        W59916  44.919   7.258   4.627
93486W        W59917  39.222  36.820   3.163
93487W        W59918   9.788   8.674  11.405
93488W        W59919  39.044  34.728  11.643
93489W        W59920  38.771  29.601  12.304
93490W        W59921   1.932  25.587  12.498
93491W        W59922  27.369  17.229   0.505
93492W        W59923  44.214  36.953  13.616
93493W        W59924  14.449  22.927   9.780
93494W        W59925  26.056   8.473  11.546
93495W        W59926  34.816  19.607   2.323
93496W        W59927  18.530  11.449  12.759
93497W        W59928  22.675  18.159   2.661
93498W        W59929  20.010  26.245  11.942
93499W        W59930  20.652  36.917   5.124
93500W        W59931  18.502  17.198  11.082
93501W        W59932  25.699   0.310   1.636
93502W        W59933  11.850   9.351   3.087
93503W        W59934  20.459  15.807   1.593
93504W        W59935  42.150  25.627   2.222
93505W        W59936  26.156  30.970  11.964
93506W        W59937  26.723   4.607   3.575
93507W        W59938  20.025  22.052   0.847
93508W        W59939  39.217  30.735   3.241
93509W        W59940  43.375  28.029   4.270
93510W        W59941  36.922  20.843  12.735
93511W        W59942   3.970  16.379   0.525
93512W        W59943  41.312  15.375   3.192
93513W        W59944  14.330  43.486   0.023
93514W        W59945  42.557  24.341   2.960
93515W        W59946  30.412  43.793  14.484
93516W        W59947  29.097  13.720  12.933
93517W        W59948  15.066  13.580   4.152
93518W        W59949   8.445  43.847   0.613
93519W        W59950   9.209  32.863   1.684
93520W        W59951  20.098  20.653   3.343
93521W        W59952   5.784  44.339  13.528
93522W        W59953  21.768  20.199   2.647
93523W        W59954  23.137  44.902  11.361
93524W        W59955  14.666  17.675   1.424
93525W        W59956  17.569  35.918   2.682
93526W        W59957  24.649  40.614  11.091
93527W        W59958  35.291  44.242   4.169
93528W        W59959  16.645  25.137  13.116
93529W        W59960  35.800  35.024   3.270
93530W        W59961  41.851  33.507   1.813
93531W        W59962  37.464  40.041  10.889
93532W        W59963   8.317  25.189   1.766
93533W        W59964  18.507  38.084   0.558
93534W        W59965  36.630  21.671  12.490
93535W        W59966  28.064  25.389  10.557
93536W        W59967  23.450   9.361   2.548
93537W        W59968  36.443  13.644  14.109
93538W        W59969  12.705   2.202  14.577
93539W        W59970  13.300  33.028  13.649
93540W        W59971  24.050  10.546  11.136
93541W        W59972  38.421   1.582  14.389
93542W        W59973  37.803  24.148  11.170
93543W        W59974  38.451   0.504  11.081
93544W        W59975  15.595  39.278   4.873
93545W        W59976  26.139  35.370   0.319
93546W        W59977   2.072  43.326   1.354
93547W        W59978  22.799   4.888   1.351
93548W        W59979  17.738  16.425   1.826
93549W        W59980  30.344  28.109  14.778
93550W        W59981  33.317  40.398  12.216
93551W        W59982  41.417  37.063  10.520
93552W        W59983   9.285   9.614  12.653
93553W        W59984  23.095   7.745   4.097
93554W        W59985  21.306  28.551  10.675
93555W        W59986   0.275   7.214  11.136
93556W        W59987  17.549  12.616   3.255
93557W        W59988  17.919  43.738   2.947
93558W        W59989   1.877   2.939  13.970
93559W        W59990  40.051  19.818  13.947
93560W        W59991   3.461   9.553   1.568
93561W        W59992  30.712  39.918  10.742
93562W        W59993   9.141  39.047  10.582
93563W        W59994  21.771  27.941  12.405
93564W        W59995  33.007   3.764   0.517
93565W        W59996  24.599  42.127   4.381
93566W        W59997   8.120  20.633  14.063
93567W        W59998  32.890  23.563  10.762
93568W        W59999  40.877  27.784   0.504
93569W        W60000  35.709   0.691   4.148
93570W        W60001   2.274  18.195  11.124
93571W        W60002  26.395  13.585   1.384
93572W        W60003   5.733  15.292   2.178
93573W        W60004  37.503  41.044   3.652
93574W        W60005  29.964   5.794   1.142
93575W        W60006  11.187  19.967   0.279
93576W        W60007  30.187  39.113   1.787
93577W        W60008  44.042  19.133  13.793
93578W        W60009   6.351  31.031  10.744
93579W        W60010  34.301  36.968   0.758
93580W        W60011  26.233  24.098   2.319
93581W        W60012  32.418  30.263  10.222
93582W        W60013  40.060  35.408   1.363
93583W        W60014  11.468  16.611   4.168
93584W        W60015  34.201  14.317  13.545
93585W        W60016  34.640   5.831  13.934
93586W        W60017  16.307  44.323  13.030
93587W        W60018  32.783  23.138  12.059
93588W        W60019  33.056  21.730   0.420
93589W        W60020  20.976  13.443   0.887
93590W        W60021  15.986   9.828   4.659
93591W        W60022  44.053  43.828   0.385
93592W        W60023  19.837  20.274   3.617
93593W        W60024  10.684  42.832   3.653
93594W        W60025  12.602  34.109  10.560
93595W        W60026  35.914  15.047  11.651
93596W        W60027  43.474  39.015   0.305
93597W        W60028  27.128  39.407   4.045
93598W        W60029   0.189  31.472   4.665
93599W        W60030  31.533  17.099   1.122
93600W        W60031  10.797   4.817  11.452
93601W        W60032   3.172  21.122  12.058
93602W        W60033   6.579  42.476   2.878
93603W        W60034  24.083  19.078   2.670
93604W        W60035   0.487  44.244  14.535
93605W        W60036  34.362  19.324  10.747
93606W        W60037   5.330  13.232   2.381
93607W        W60038  19.614  16.268   3.782
93608W        W60039  18.147  10.859   4.546
93609W        W60040  36.031  19.263  10.755
93610W        W60041   6.666   4.201  12.517
93611W        W60042  11.594  16.103   4.008
93612W        W60043  19.630   4.664   3.133
93613W        W60044  19.721  42.507   3.093
93614W        W60045   1.482  44.758   0.522
93615W        W60046  17.711  30.982  11.696
93616W        W60047  41.986   9.909  11.123
93617W        W60048  33.757   9.393  11.391
93618W        W60049  24.736   8.363  14.517
93619W        W60050  38.794  42.852   1.060
93620W        W60051  28.918  43.009  13.749
93621W        W60052  15.378   7.739  10.732
93622W        W60053  24.007   6.832  11.194
93623W        W60054  41.031  44.908  10.830
93624W        W60055  20.405  36.909   2.574
93625W        W60056  42.125   3.266   0.834
93626W        W60057  23.500  30.056  12.534
93627W        W60058   2.253  38.980   0.042
93628W        W60059   9.630  22.402   3.200
93629W        W60060  10.099  41.576  12.692
93630W        W60061   6.768  44.959   4.548
93631W        W60062  36.959  11.077  13.387
93632W        W60063  21.155  28.474   3.216
93633W        W60064  39.605  36.786  12.517
93634W        W60065  13.939  29.027   1.008
93635W        W60066   7.272  36.722   1.307
93636W        W60067  44.091  12.297  10.703
93637W        W60068  24.001  16.949  14.016
93638W        W60069  22.863  37.775   1.401
93639W        W60070  17.372  32.634  10.617
93640W        W60071  44.383  27.644  11.473
93641W        W60072  16.385   7.254   1.873
93642W        W60073  44.277   5.213  13.557
93643W        W60074  25.209  29.295   0.749
93644W        W60075  28.180  35.897   2.351
93645W        W60076   3.910   1.915   4.646
93646W        W60077  28.053  22.484  14.920
93647W        W60078  41.506  32.729  10.589
93648W        W60079  17.037   4.365  12.351
93649W        W60080  34.425  31.169  10.192
93650W        W60081   7.116  32.643   3.269
93651W        W60082  18.999  32.590   1.953
93652W        W60083  19.660  16.802   3.169
93653W        W60084  14.738   3.125   2.413
93654W        W60085  37.162  41.560   9.976
93655W        W60086  32.076  20.005   2.800
93656W        W60087  40.034  31.411  12.180
93657W        W60088  35.982  13.056   0.946
93658W        W60089  15.627  43.739   0.945
93659W        W60090  29.973  43.326   4.923
93660W        W60091  42.531  33.541   2.308
93661W        W60092  38.283  16.961  14.307
93662W        W60093  43.960  41.552  12.334
93663W        W60094  38.705  19.932   4.277
93664W        W60095  33.565  30.395  11.487
93665W        W60096  39.960   6.667   1.869
93666W        W60097   5.809  34.266  13.468
93667W        W60098  16.326  21.268   3.502
93668W        W60099  15.593  13.561  12.991
93669W        W60100  14.281  25.756   0.874
93670W        W60101  22.112   1.583  13.741
93671W        W60102  10.753   8.886  10.460
93672W        W60103  29.103  35.117  11.975
93673W        W60104  32.417  21.145  14.684
93674W        W60105  28.267   3.652  12.117
93675W        W60106  36.974  11.126   0.820
93676W        W60107  24.209  40.156   3.261
93677W        W60108  40.580   4.472   1.093
93678W        W60109  32.237  24.974  11.604
93679W        W60110  37.304  40.555   3.564
93680W        W60111   0.770  35.039   3.435
93681W        W60112  35.757  33.865  10.633
93682W        W60113  40.973  40.537  13.420
93683W        W60114  25.888  41.597   2.836
93684W        W60115  11.766   2.507   0.688
93685W        W60116  28.978  38.890   2.570
93686W        W60117  34.051  35.456   0.484
93687W        W60118  44.547  23.956  13.468
93688W        W60119  17.496  37.877   3.688
93689W        W60120  14.702  44.210   2.245
93690W        W60121  24.352   9.408   2.313
93691W        W60122   0.571  21.056   3.743
93692W        W60123  27.711   1.259   1.342
93693W        W60124   5.830  23.961  12.517
93694W        W60125  25.656  23.074  14.473
93695W        W60126  36.814  27.119  11.245
93696W        W60127  35.328  43.981  14.385
93697W        W60128  17.202  36.088   0.381
93698W        W60129  40.559  38.422   3.801
93699W        W60130  16.258  20.530  11.549
93700W        W60131  26.680  11.433   3.647
93701W        W60132  35.425  17.428  14.992
93702W        W60133   7.041   7.293   2.221
93703W        W60134  30.449  37.611  11.289
93704W        W60135  40.778   4.799  12.930
93705W        W60136  23.644  33.739   4.535
93706W        W60137  21.216  41.189  11.893
93707W        W60138  33.293  28.414  14.948
93708W        W60139  13.720  31.925   0.077
93709W        W60140  39.065  40.382   1.692
93710W        W60141   5.767  33.580  14.782
93711W        W60142   0.686  17.651   3.364
93712W        W60143   0.420  33.095  14.049
93713W        W60144  36.535   1.946  11.557
93714W        W60145  31.981  39.797   3.134
93715W        W60146  43.209  29.775  11.551
93716W        W60147   7.487  43.011  12.573
93717W        W60148  17.254  35.820  14.939
93718W        W60149   2.127   0.458  13.331
93719W        W60150  12.760  14.841  11.395
93720W        W60151  27.091  21.014   3.752
93721W        W60152   6.326  39.013   4.195
93722W        W60153  30.885  12.799   4.060
93723W        W60154  13.893   9.292  13.823
93724W        W60155  22.832  15.927  13.928
93725W        W60156  12.568   8.409  11.288
93726W        W60157  38.068  13.895   4.597
93727W        W60158  41.989  16.053   3.428
93728W        W60159  14.308  18.729  12.098
93729W        W60160  21.541  44.877  12.977
93730W        W60161  38.409  22.419  11.995
93731W        W60162  40.017  27.655   4.262
93732W        W60163  33.553  35.623   1.374
93733W        W60164  27.868  23.219  10.738
93734W        W60165  39.323   9.801   3.786
93735W        W60166  26.167   1.655  14.059
93736W        W60167  13.171  12.615  12.450
93737W        W60168   3.932  14.652   2.350
93738W        W60169  25.731  12.264   3.911
93739W        W60170  12.728  25.465  12.744
93740W        W60171  31.728  42.371   2.390
93741W        W60172  22.122  23.231   1.271
93742W        W60173  30.065  16.047  10.996
93743W        W60174  24.011  41.193   0.384
93744W        W60175  30.873  26.995  12.973
93745W        W60176  41.449  28.450   3.560
93746W        W60177  27.875  24.596  13.366
93747W        W60178  31.042  31.039   3.014
93748W        W60179  34.044  43.128   2.236
93749W        W60180   0.279  34.344   2.806
93750W        W60181  31.681  20.758  12.438
93751W        W60182  34.560  22.930   3.617
93752W        W60183  21.947  38.379  14.356
93753W        W60184  42.251  42.603   1.222
93754W        W60185  26.545  16.930   2.655
93755W        W60186   6.869  17.425  13.482
93756W        W60187   8.676  33.152  11.133
93757W        W60188  35.558  23.226   1.272
93758W        W60189  29.988  42.408  14.332
93759W        W60190  26.021   5.810   1.149
93760W        W60191  19.864  25.254   1.151
93761W        W60192   6.397  42.818  11.551
93762W        W60193  14.142  37.915  11.740
93763W        W60194   4.530  29.090   5.101
93764W        W60195  20.304  18.258  12.150
93765W        W60196  19.668   2.612  12.941
93766W        W60197   6.920  26.703  12.852
93767W        W60198  31.583  10.757   1.723
93768W        W60199  26.731  26.556   4.894
93769W        W60200  41.353  43.772  12.093
93770W        W60201  23.408  13.749   2.219
93771W        W60202  19.222  21.322  11.429
93772W        W60203   1.503  39.482   3.551
93773W        W60204  23.539  10.485   0.877
93774W        W60205  39.619  39.013  14.467
93775W        W60206  20.827  25.942   1.057
93776W        W60207  12.842  32.063  14.947
93777W        W60208  14.114  11.163   2.898
93778W        W60209  37.823  36.732   3.995
93779W        W60210  39.625  15.557  11.495
93780W        W60211  12.789  20.474   3.558
93781W        W60212  32.697  28.172  10.253
93782W        W60213  42.233  10.750  14.542
93783W        W60214  38.969  41.448   0.352
93784W        W60215   8.798  17.550  11.210
93785W        W60216  40.312  37.406  12.196
93786W        W60217   4.512  19.131  14.958
93787W        W60218  43.241  15.106   0.718
93788W        W60219  38.100  14.398   4.479
93789W        W60220  29.629  40.500  11.135
93790W        W60221  28.125  35.994  12.191
93791W        W60222  13.459   0.423  12.893
93792W        W60223  24.146  30.120  11.824
93793W        W60224   8.295  41.816  12.388
93794W        W60225   2.013  19.668  11.242
93795W        W60226  42.463  16.360  11.513
93796W        W60227  28.690   6.457   2.402
93797W        W60228  30.148  28.013  14.062
93798W        W60229  31.116  24.010   0.853
93799W        W60230  15.730  28.138  10.495
93800W        W60231  22.259   0.129  14.079
93801W        W60232  20.261   3.915  11.860
93802W        W60233  40.844   1.249   1.445
93803W        W60234   6.698  31.553  13.578
93804W        W60235  34.021  35.092  12.896
93805W        W60236   0.947  35.645   3.047
93806W        W60237   4.520   5.283   0.769
93807W        W60238  36.078  12.304  13.939
93808W        W60239  11.604  12.690   2.218
93809W        W60240  33.011  24.404   0.846
93810W        W60241  16.500  24.547  14.813
93811W        W60242  35.634  34.581  12.916
93812W        W60243   9.449  30.414   1.358
93813W        W60244  13.257  38.842  12.549
93814W        W60245  18.472  30.167   2.895
93815W        W60246  19.218  25.973  12.873
93816W        W60247  23.915  29.166   1.427
93817W        W60248  28.479  24.950  13.502
93818W        W60249  18.345  14.701   1.806
93819W        W60250  16.546  12.354   1.750
93820W        W60251   3.858  31.008   0.462
93821W        W60252   5.912  20.613   9.817
93822W        W60253  38.853  38.548   0.016
93823W        W60254   5.457  10.042  14.866
93824W        W60255   0.319  13.506  12.637
93825W        W60256   4.998  28.524  14.917
93826W        W60257  32.164  10.164  12.882
93827W        W60258  34.432  13.796   4.119
93828W        W60259  43.320  26.913  12.446
93829W        W60260  21.521   8.876   0.839
93830W        W60261   9.270  38.999  12.215
93831W        W60262  17.551  35.386   3.874
93832W        W60263  27.657  32.407  14.910
93833W        W60264  31.540  18.635   1.256
93834W        W60265  34.568  16.863   2.392
93835W        W60266   0.333  25.007   0.536
93836W        W60267   5.325  13.490  14.855
93837W        W60268   4.067  33.798   2.086
93838W        W60269  17.599  27.004   2.188
93839W        W60270   5.877  13.530  11.570
93840W        W60271  36.791  34.901  13.078
93841W        W60272   8.225   7.001  10.667
93842W        W60273  40.955  20.977  13.454
93843W        W60274  37.682  43.917  11.893
93844W        W60275  18.340  36.046   1.468
93845W        W60276   6.174   5.363  13.005
93846W        W60277  41.546  12.358   4.123
93847W        W60278  32.482  20.131  10.654
93848W        W60279   8.608  23.595   0.981
93849W        W60280  11.087  40.286   3.271
93850W        W60281  25.699  27.138  12.834
93851W        W60282  38.930  17.884   3.184
93852W        W60283   9.751   4.754   0.366
93853W        W60284  43.326   0.819   2.733
93854W        W60285  18.713  21.575  11.410
93855W        W60286  33.514  20.279  10.645
93856W        W60287  35.311  29.381  11.942
93857W        W60288  15.724   4.162  10.248
93858W        W60289  13.718  22.215   4.934
93859W        W60290  26.138  42.536   0.915
93860W        W60291  12.629  27.988   2.661
93861W        W60292  11.592   0.145   0.237
93862W        W60293  36.705  23.417   2.237
93863W        W60294  18.020  17.727   2.528
93864W        W60295  20.105  25.403   0.683
93865W        W60296   1.034  25.700   1.686
93866W        W60297   1.382  42.528   3.135
93867W        W60298  41.564  25.361   0.744
93868W        W60299  41.321  23.526   4.113
93869W        W60300  40.937  16.150   0.679
93870W        W60301  31.006  17.482  11.065
93871W        W60302  40.366   9.732   4.752
93872W        W60303  41.927   3.996  11.111
93873W        W60304  20.200  21.073   3.634
93874W        W60305  39.904   1.933   0.849
93875W        W60306  15.632  28.409  10.004
93876W        W60307  31.544  31.149   3.650
93877W        W60308  24.938  11.815  14.539
93878W        W60309  42.951  30.982   3.246
93879W        W60310  17.258  13.156   0.477
93880W        W60311  30.688  42.033   0.309
93881W        W60312  22.927  35.867   4.192
93882W        W60313  35.585  37.435   2.395
93883W        W60314   7.441  12.597   3.919
93884W        W60315   7.159  43.473  14.842
93885W        W60316  44.813   5.138  13.424
93886W        W60317  13.435  42.454   1.634
93887W        W60318  26.187  30.678   3.515
93888W        W60319  33.018  14.815   0.721
93889W        W60320  12.047  25.150  14.313
93890W        W60321  42.526  26.087  13.000
93891W        W60322  22.526   6.276  11.363
93892W        W60323   9.912   0.464  12.581
93893W        W60324   6.933  21.344   0.875
93894W        W60325  13.700  43.402  14.480
93895W        W60326  39.704   1.808  12.727
93896W        W60327  18.550  34.150   1.766
93897W        W60328   5.591  14.182  12.156
93898W        W60329   9.140  12.211   3.231
93899W        W60330  16.248   2.485   4.485
93900W        W60331  21.593  27.319   3.562
93901W        W60332  40.035  35.517   3.258
93902W        W60333  12.689   0.508   4.671
93903W        W60334  12.863  19.116  13.805
93904W        W60335  10.342  21.097  12.003
93905W        W60336   3.953  34.433  13.863
93906W        W60337  21.056  24.015   0.813
93907W        W60338  27.059  30.989   2.803
93908W        W60339  20.585  44.774  13.004
93909W        W60340   6.254  14.593  12.588
93910W        W60341  32.517  19.681   3.077
93911W        W60342  15.340   0.736  13.511
93912W        W60343  29.975  31.517  10.340
93913W        W60344   4.798  14.875   0.853
93914W        W60345  22.056  34.833   1.412
93915W        W60346  11.922   5.272  10.548
93916W        W60347  13.154  40.751   4.732
93917W        W60348  18.932  43.850   4.276
93918W        W60349  36.526  28.124   3.612
93919W        W60350  11.043   1.429  13.781
93920W        W60351  32.032   7.498  12.394
93921W        W60352  24.150  30.452   0.904
93922W        W60353  43.161  23.433  13.461
93923W        W60354  14.085  41.544   4.546
93924W        W60355   3.512  34.701   0.995
93925W        W60356  37.335  15.766   3.172
93926W        W60357  37.370  31.453  14.965
93927W        W60358   4.745  34.853   3.656
93928W        W60359  32.541  38.391   1.149
93929W        W60360   3.986  42.350   2.473
93930W        W60361  43.409  39.785   1.828
93931W        W60362   0.347  16.348  14.232
93932W        W60363   6.439  36.704   3.709
93933W        W60364  40.324  31.219  12.601
93934W        W60365   4.984  32.906  13.999
93935W        W60366  40.572  35.241   2.426
93936W        W60367  34.008  40.001   3.995
93937W        W60368  27.531  42.157   4.519
93938W        W60369  32.579  41.303   3.251
93939W        W60370   2.762  31.119  11.227
93940W        W60371  42.614  34.840  13.875
93941W        W60372  18.595  15.111  10.453
93942W        W60373  31.868   5.193   4.094
93943W        W60374  36.187  24.175   0.770
93944W        W60375  16.262  37.995  11.969
93945W        W60376  29.331  10.115   1.350
93946W        W60377  20.775   3.410   1.370
93947W        W60378  24.077  13.837  11.107
93948W        W60379  29.391  43.941  14.361
93949W        W60380  29.086  42.898  12.226
93950W        W60381   7.205  43.129   4.124
93951W        W60382   6.864  28.999  14.942
93952W        W60383  32.061   5.005   3.611
93953W        W60384  21.524  35.672   4.935
93954W        W60385  28.712  22.395   3.796
93955W        W60386  31.537  14.165  10.701
93956W        W60387  24.893   4.495  12.442
93957W        W60388  29.961  21.790   0.904
93958W        W60389   2.749  34.603  11.899
93959W        W60390  18.713  13.308   1.951
93960W        W60391  32.624   5.949  14.972
93961W        W60392  20.280   2.616  11.903
93962W        W60393   9.858  21.667   0.202
93963W        W60394  32.081  11.201  11.998
93964W        W60395  33.948  14.224   0.724
93965W        W60396  32.956  27.899   1.700
93966W        W60397   9.749   7.826   2.214
93967W        W60398  10.093  27.434  11.936
93968W        W60399  40.081   1.130  12.659
93969W        W60400  33.689  16.245   2.374
93970W        W60401  23.581   4.008   2.282
93971W        W60402  30.018   2.629   0.912
93972W        W60403   0.902  42.728   0.736
93973W        W60404  40.542  21.796   2.558
93974W        W60405  25.154  32.663  14.687
93975W        W60406  36.831  22.010   2.773
93976W        W60407  42.062   1.750  12.499
93977W        W60408  39.395   9.110  10.672
93978W        W60409  26.115  23.839   1.848
93979W        W60410  24.621  16.357  14.455
93980W        W60411  11.000  35.575   1.541
93981W        W60412  25.602  28.102   2.631
93982W        W60413  41.370  26.623  14.868
93983W        W60414  24.622  44.072   1.357
93984W        W60415  27.147   9.279  11.643
93985W        W60416   5.848  35.876  10.743
93986W        W60417  21.546   9.349   3.890
93987W        W60418  31.375  35.994  13.079
93988W        W60419  28.225  35.956  13.051
93989W        W60420  18.664  25.298   9.876
93990W        W60421  34.546  34.761  13.608
93991W        W60422  20.261  26.613   1.336
93992W        W60423  12.840  43.875   4.621
93993W        W60424   7.692   1.779  10.788
93994W        W60425   0.939  28.569   4.399
93995W        W60426  27.131  15.764  12.010
93996W        W60427  14.735  21.062   2.577
93997W        W60428  37.571  20.733   3.406
93998W        W60429   4.535  32.855   4.051
93999W        W60430   4.634  20.619   3.099
94000W        W60431  36.099   2.276   4.286
94001W        W60432  36.565  43.628  12.922
94002W        W60433  24.302  37.299  13.498
94003W        W60434  10.263  12.364   4.527
94004W        W60435   7.138  18.557  12.875
94005W        W60436  34.748  17.271   1.247
94006W        W60437  36.984   5.661   4.904
94007W        W60438   5.325  42.360   2.333
94008W        W60439   7.277   0.341   4.329
94009W        W60440  39.522  15.159   4.064
94010W        W60441  21.204   5.733   1.241
94011W        W60442  28.472  40.484  13.863
94012W        W60443  21.282  34.937   3.088
94013W        W60444  44.087   4.705   2.950
94014W        W60445  23.644   7.925  11.538
94015W        W60446  16.111  18.294  14.822
94016W        W60447   0.365  25.904  12.676
94017W        W60448  28.795   9.440   0.677
94018W        W60449  23.960  22.007  11.123
94019W        W60450   9.641  17.321   0.749
94020W        W60451  30.943  26.548   3.468
94021W        W60452  37.945   8.225   4.518
94022W        W60453  17.268  14.871   4.264
94023W        W60454   5.709  15.881   0.929
94024W        W60455  34.335  19.182  14.312
94025W        W60456  16.600  10.075   2.654
94026W        W60457  37.181   3.109  14.744
94027W        W60458  41.266   2.989   2.682
94028W        W60459   1.814  11.302  11.581
94029W        W60460  43.175   2.329  13.423
94030W        W60461  37.692  21.129  13.384
94031W        W60462   9.363  31.271   4.546
94032W        W60463   5.270  41.738  13.563
94033W        W60464  26.567   5.734   3.214
94034W        W60465   1.532   9.652  12.131
94035W        W60466  10.450  11.611  12.353
94036W        W60467  42.273  14.087   0.904
94037W        W60468   6.745  19.270   2.639
94038W        W60469  35.112  22.335   2.263
94039W        W60470  25.134  20.091  11.170
94040W        W60471  31.646  21.274   0.807
94041W        W60472   4.992  15.763  13.109
94042W        W60473  24.046  18.205   3.317
94043W        W60474  11.426  31.399   3.695
94044W        W60475  14.301  29.222  12.444
94045W        W60476  19.277  36.442   0.627
94046W        W60477  32.167   8.756  11.137
94047W        W60478  33.366  22.449  10.675
94048W        W60479  36.052  42.755  11.095
94049W        W60480   9.950   7.257  12.007
94050W        W60481  24.074  21.914  13.259
94051W        W60482  41.318  14.509   1.404
94052W        W60483  13.677   0.882  12.978
94053W        W60484  21.704   6.249  10.606
94054W        W60485  20.730   6.880  11.658
94055W        W60486  21.034  16.298  10.346
94056W        W60487  44.463  15.835   3.750
94057W        W60488   2.737   5.382  10.801
94058W        W60489  33.094  16.246   1.493
94059W        W60490   4.736  29.472  12.919
94060W        W60491  26.943  13.253   4.853
94061W        W60492  15.409  38.429   1.886
94062W        W60493  13.530   6.705   3.734
94063W        W60494  44.746  25.082   1.768
94064W        W60495  31.591  30.008  11.556
94065W        W60496  29.657  12.263  13.381
94066W        W60497  24.695  24.707  13.405
94067W        W60498  41.772  32.421   2.326
94068W        W60499   4.127  39.635  12.001
94069W        W60500   3.724  20.834   3.053
94070W        W60501  34.951  21.621   2.733
94071W        W60502  28.960  17.077   2.683
94072W        W60503  38.471  32.054   0.676
94073W        W60504  22.704  24.223  11.008
94074W        W60505   0.714  13.388   4.530
94075W        W60506  39.510  42.953   4.320
94076W        W60507  21.240   6.458  13.976
94077W        W60508  33.985  14.772   4.718
94078W        W60509  14.555   1.055   0.846
94079W        W60510  21.688  27.996   0.706
94080W        W60511  36.090   0.788   1.723
94081W        W60512  37.066  34.047  11.951
94082W        W60513   4.880   4.322  10.142
94083W        W60514  30.573  21.459   4.609
94084W        W60515   7.896  26.673  11.896
94085W        W60516  35.414  16.802   2.728
94086W        W60517   3.501  35.308  10.783
94087W        W60518   8.125  20.708   1.834
94088W        W60519  42.214  37.561  12.579
94089W        W60520  24.605  38.674   3.281
94090W        W60521   5.291  12.286  11.615
94091W        W60522  23.299  29.404  13.465
94092W        W60523  16.143  19.358   4.515
94093W        W60524  37.630  22.617   0.872
94094W        W60525  12.857  18.511   3.707
94095W        W60526  37.689  13.624  11.502
94096W        W60527  33.142  21.770   4.855
94097W        W60528  15.245  36.602  10.349
94098W        W60529  27.977  39.592   2.301
94099W        W60530  37.340  12.916   3.179
94100W        W60531  14.627   0.278   5.036
94101W        W60532   7.897  19.247   4.662
94102W        W60533  18.101  22.071   0.046
94103W        W60534   6.888  23.977   0.320
94104W        W60535  15.673   1.287   2.461
94105W        W60536  39.362   7.363   0.321
94106W        W60537   0.809   5.094  14.404
94107W        W60538  17.512  29.964   2.624
94108W        W60539   1.512  20.989   2.810
94109W        W60540  28.127  29.852  11.586
94110W        W60541  38.386   5.341  14.983
94111W        W60542  14.540  16.533   5.206
94112W        W60543  32.498  27.794  14.858
94113W        W60544   3.779  26.991   2.819
94114W        W60545   7.900   5.293   0.223
94115W        W60546  21.545  19.866  11.442
94116W        W60547  40.012   2.289   2.835
94117W        W60548   9.026   2.745   0.364
94118W        W60549   1.362  40.008  10.695
94119W        W60550  43.853  38.301  13.521
94120W        W60551  21.979  12.779  14.298
94121W        W60552   1.231  36.798  12.284
94122W        W60553  12.713  11.183  12.336
94123W        W60554  30.915  37.326  13.555
94124W        W60555  17.230   9.772   1.932
94125W        W60556   9.162  13.659   0.659
94126W        W60557  31.655  29.700  13.057
94127W        W60558  20.940  29.598  13.090
94128W        W60559  14.730   2.985  14.313
94129W        W60560   3.926   6.380   1.319
94130W        W60561   9.043  20.302  10.813
94131W        W60562  35.071  35.379  14.580
94132W        W60563  14.253  38.437  11.883
94133W        W60564  26.072  15.777  14.410
94134W        W60565  33.776  39.781  12.626
94135W        W60566  42.803  41.512  10.770
94136W        W60567  32.519  38.902   1.422
94137W        W60568  10.402  36.908   2.206
94138W        W60569  28.729  18.689   3.625
94139W        W60570   3.642  31.706   4.879
94140W        W60571  17.641  13.019  10.669
94141W        W60572  22.169  31.654  13.959
94142W        W60573  37.280   5.225   4.912
94143W        W60574  24.191   9.416   1.355
94144W        W60575   0.942  15.172   3.343
94145W        W60576  30.805  20.143   4.693
94146W        W60577  10.238   4.649   3.321
94147W        W60578  27.147  35.604  14.326
94148W        W60579  38.839   6.317   3.749
94149W        W60580  22.620   0.814   2.262
94150W        W60581  12.157  27.436   3.264
94151W        W60582   4.897  20.675   1.738
94152W        W60583  10.306  22.449   1.303
94153W        W60584  38.031  22.950   1.445
94154W        W60585   7.882  34.890   0.340
94155W        W60586  38.037  33.103   2.780
94156W        W60587  38.038   5.683  12.027
94157W        W60588  41.939   8.974   3.172
94158W        W60589   9.876  18.547   3.644
94159W        W60590   9.862  33.920  14.964
94160W        W60591   6.640  22.775   3.418
94161W        W60592   0.247   2.790  13.502
94162W        W60593   5.043  18.742  13.058
94163W        W60594  38.791  31.045   0.220
94164W        W60595   4.060  19.134  14.656
94165W        W60596  12.214  29.892   0.851
94166W        W60597   5.172  13.308   0.852
94167W        W60598  16.617   7.698  12.063
94168W        W60599  39.971   2.949  13.416
94169W        W60600   6.253  30.542  14.332
94170W        W60601   0.507  22.208  13.374
94171W        W60602  32.094  32.142   3.210
94172W        W60603  38.008   5.185  12.055
94173W        W60604   7.137  21.731  14.421
94174W        W60605   7.782   3.502  13.895
94175W        W60606  35.878  18.622  14.016
94176W        W60607   2.538   4.232  12.813
94177W        W60608  42.415   7.099   4.494
94178W        W60609  17.083  10.846  12.973
94179W        W60610  37.000   7.085  13.975
94180W        W60611  39.285  34.023  13.125
94181W        W60612  39.032  38.873   0.370
94182W        W60613  11.601  13.885  14.752
94183W        W60614   2.376  26.086   0.437
94184W        W60615  26.118  12.697   4.591
94185W        W60616  25.241  44.255  14.253
94186W        W60617  31.189  43.393   3.262
94187W        W60618  29.685  38.090  14.306
94188W        W60619  23.208   1.475  14.924
94189W        W60620  28.902  18.246  11.643
94190W        W60621  36.103  29.034   3.224
94191W        W60622   5.312  29.484  11.638
94192W        W60623  42.443   4.910   0.521
94193W        W60624  33.917  13.620   3.636
94194W        W60625  31.401  27.938  12.125
94195W        W60626  44.458  33.373   3.231
94196W        W60627  42.780  42.005  14.805
94197W        W60628  43.113  26.689   5.115
94198W        W60629   5.669  38.902  12.535
94199W        W60630  20.116  21.184   2.630
94200W        W60631  13.638  41.748  11.106
94201W        W60632   2.161  11.640  14.056
94202W        W60633  15.240  37.479   4.497
94203W        W60634  44.241   7.439  12.338
94204W        W60635  17.616  27.037  11.230
94205W        W60636   6.194  26.900   2.277
94206W        W60637   3.078   2.340  14.567
94207W        W60638  38.578  24.921  13.008
94208W        W60639  39.596  41.085  12.090
94209W        W60640  43.318  18.802  12.114
94210W        W60641  40.767   6.791   3.393
94211W        W60642  32.436  32.482   3.444
94212W        W60643  18.063  37.008   1.871
94213W        W60644  29.336  42.762  13.978
94214W        W60645  25.719   6.263   2.272
94215W        W60646   7.561  11.724   2.440
94216W        W60647  31.891  37.995   0.067
94217W        W60648  13.706   9.370   3.134
94218W        W60649   0.545  18.722   3.227
94219W        W60650  28.610  20.542   3.299
94220W        W60651  27.910  20.196  14.321
94221W        W60652  35.796   7.038   3.685
94222W        W60653  18.211  29.250   4.162
94223W        W60654  28.667  14.131   1.728
94224W        W60655  27.953  34.815   4.699
94225W        W60656  30.881   6.812   4.980
94226W        W60657  20.455   6.118   2.186
94227W        W60658  26.657  23.698   1.753
94228W        W60659   5.405  39.901   2.182
94229W        W60660   5.250  36.952  10.996
94230W        W60661  28.089   1.007  14.868
94231W        W60662  36.934  15.282   2.571
94232W        W60663  25.147   8.587   2.732
94233W        W60664  23.303  22.514   2.289
94234W        W60665  23.969   4.373   0.793
94235W        W60666  24.606  17.798   1.759
94236W        W60667  35.345  38.968  14.945
94237W        W60668  13.132  18.231   0.704
94238W        W60669  44.888  29.440   1.544
94239W        W60670   8.675  17.143   1.932
94240W        W60671  30.500  44.721   2.124
94241W        W60672  23.174  19.494  14.963
94242W        W60673   3.149  40.105   4.084
94243W        W60674  32.551  44.207   2.690
94244W        W60675  11.387   0.725   4.474
94245W        W60676  41.621  12.879  14.448
94246W        W60677   0.182  29.917   1.755
94247W        W60678  26.947   4.018  12.963
94248W        W60679  27.114  30.416   1.326
94249W        W60680  10.665  40.593   3.202
94250W        W60681  26.557  41.433  14.837
94251W        W60682   5.116  17.738  12.919
94252W        W60683  15.819   3.216   2.454
94253W        W60684  15.791  38.934   2.836
94254W        W60685  43.429  26.718  10.281
94255W        W60686  31.683  27.342  12.504
94256W        W60687  28.917   9.870  14.341
94257W        W60688  34.510  10.504  10.365
94258W        W60689  40.973  39.313  13.357
94259W        W60690  31.927  31.996   4.611
94260W        W60691  36.890   2.690  13.087
94261W        W60692  41.110  16.658   4.165
94262W        W60693  17.783   3.677  14.282
94263W        W60694  32.468  43.524  11.584
94264W        W60695   6.452   2.752   4.598
94265W        W60696  12.294  42.454   3.864
94266W        W60697  26.088   3.421  12.991
94267W        W60698   7.197  26.782  10.686
94268W        W60699  29.217  30.171   5.005
94269W        W60700   8.468   8.553   0.407
94270W        W60701  42.724  20.318  12.852
94271W        W60702  25.435  13.126  11.631
94272W        W60703  42.348  26.423   4.051
94273W        W60704  11.628   1.232   4.174
94274W        W60705   9.781  30.104  14.367
94275W        W60706  44.549  36.872  12.155
94276W        W60707  10.252  38.505   1.778
94277W        W60708  29.147  11.057   1.104
94278W        W60709  37.215  36.583   2.033
94279W        W60710  38.570  30.310  11.411
94280W        W60711  11.663  19.279   2.860
94281W        W60712   5.205   2.936   2.361
94282W        W60713  33.488   3.425   4.985
94283W        W60714  13.135  28.064  11.681
94284W        W60715  24.490   0.565  12.120
94285W        W60716  35.321   3.492  10.755
94286W        W60717  32.930  12.904  12.004
94287W        W60718  14.628  15.244  12.366
94288W        W60719  12.889  22.147  13.626
94289W        W60720  33.844  40.903   2.635
94290W        W60721  27.587   8.431   2.903
94291W        W60722  32.905  10.384  13.500
94292W        W60723  17.806  23.508  13.015
94293W        W60724  18.615  33.922   3.591
94294W        W60725  26.042  19.761   4.549
94295W        W60726  41.907  29.217   1.999
94296W        W60727  24.718  31.218  13.088
94297W        W60728  11.768  15.736  13.909
94298W        W60729  24.450  37.758  14.337
94299W        W60730  13.683  29.620   2.208
94300W        W60731  16.966  35.232  10.418
94301W        W60732  13.614   2.866   2.601
94302W        W60733  21.692   6.741  11.360
94303W        W60734  40.462  15.249  11.034
94304W        W60735  19.726   5.320  14.755
94305W        W60736  25.249  40.061   3.188
94306W        W60737  22.941   5.896   2.125
94307W        W60738  42.387  44.045   3.734
94308W        W60739  40.489  41.328   4.482
94309W        W60740  42.362  28.151  14.411
94310W        W60741   7.857  44.925   4.713
94311W        W60742  35.313  37.394   1.455
94312W        W60743  33.863  20.307  12.749
94313W        W60744   3.944   0.366  11.206
94314W        W60745  42.747  22.480  12.932
94315W        W60746  40.813  44.289   1.445
94316W        W60747  20.985  22.355  11.979
94317W        W60748  43.310  37.537   2.579
94318W        W60749  14.278   4.687   1.803
94319W        W60750  25.992  35.833   0.480
94320W        W60751  26.238  44.318   3.632
94321W        W60752   4.225   3.285  12.538
94322W        W60753  30.582  40.071  13.966
94323W        W60754   1.488  42.657   2.375
94324W        W60755  19.534  28.750   2.707
94325W        W60756  29.406   1.838   0.967
94326W        W60757  43.029  44.928   4.147
94327W        W60758   2.236  22.954  11.976
94328W        W60759   6.144  14.417  10.276
94329W        W60760   6.955  37.948   2.583
94330W        W60761  38.958  31.989   0.485
94331W        W60762  44.994  10.816   0.690
94332W        W60763  28.823  21.331   3.518
94333W        W60764  27.303  24.015  11.633
94334W        W60765  44.066  15.731   2.395
94335W        W60766  44.233  17.279  11.040
94336W        W60767  33.210  12.856  13.598
94337W        W60768  19.640  36.392   4.590
94338W        W60769  27.959  24.091   4.189
94339W        W60770  27.054  38.206  12.210
94340W        W60771  12.757   2.026   4.140
94341W        W60772  23.789  27.397   5.047
94342W        W60773  42.450  35.328  10.503
94343W        W60774   7.349  40.141  11.512
94344W        W60775  40.876  43.880  14.845
94345W        W60776  27.287  25.606   1.064
94346W        W60777  26.695  16.554   2.313
94347W        W60778  11.059   4.216   4.320
94348W        W60779  13.493  27.738   2.582
94349W        W60780  21.743  17.449   4.001
94350W        W60781  38.609   8.641  13.654
94351W        W60782  38.296  18.039  14.823
94352W        W60783  42.500  37.451   2.154
94353W        W60784  17.002   6.367  14.656
94354W        W60785  21.369  11.315  14.277
94355W        W60786   0.209  16.109   2.873
94356W        W60787  15.236  39.677   0.712
94357W        W60788  41.870  44.023   4.510
94358W        W60789   4.924  28.649  11.256
94359W        W60790  42.957  13.772  11.184
94360W        W60791  40.298   0.062  12.159
94361W        W60792  27.116   4.087   1.716
94362W        W60793  30.983  16.848  14.143
94363W        W60794   7.181  20.641   0.064
94364W        W60795   9.086  12.902  11.018
94365W        W60796  40.916   4.414  12.585
94366W        W60797  17.002  16.172  14.768
94367W        W60798   8.706  22.120   1.718
94368W        W60799  35.213  43.973   0.698
94369W        W60800  31.013  11.252   3.670
94370W        W60801  20.259  40.648   3.377
94371W        W60802  33.895   6.141   2.817
94372W        W60803  43.863   0.230  10.726
94373W        W60804  19.151  21.026  11.842
94374W        W60805  12.603   5.838   0.436
94375W        W60806  40.459  16.513  11.610
94376W        W60807  23.615  20.016  11.953
94377W        W60808   9.867  21.049  14.458
94378W        W60809  28.275   4.896  13.093
94379W        W60810  24.570  30.675  10.610
94380W        W60811  41.848  13.925  12.534
94381W        W60812  23.144  26.051   3.865
94382W        W60813   5.866  44.090  13.005
94383W        W60814  29.283  42.750   2.548
94384W        W60815  42.427  26.716  10.424
94385W        W60816  14.655   7.456   4.047
94386W        W60817  34.954   9.414  13.867
94387W        W60818   2.262  40.060  10.048
94388W        W60819  18.438  40.025  10.705
94389W        W60820  21.692   1.292  12.855
94390W        W60821  39.444  22.272   2.341
94391W        W60822  28.798  37.967  13.420
94392W        W60823  13.648  37.424   2.378
94393W        W60824  27.565  27.444   2.287
94394W        W60825   7.483   2.373  11.023
94395W        W60826  34.481  31.988  11.032
94396W        W60827  38.120  16.109   2.757
94397W        W60828  42.331  23.266  12.639
94398W        W60829  33.504  17.077  13.120
94399W        W60830  23.438  19.259   1.124
94400W        W60831  39.597  39.195   1.268
94401W        W60832  28.372  43.797   4.095
94402W        W60833  36.584  18.810  12.694
94403W        W60834   6.441   6.143  13.987
94404W        W60835  33.042  26.787  12.908
94405W        W60836  22.180  34.949  12.781
94406W        W60837  28.080  19.220  11.213
94407W        W60838  21.332  20.301  14.887
94408W        W60839  26.309  13.365   1.832
94409W        W60840   5.670  24.484   2.565
94410W        W60841  35.358  16.140   1.197
94411W        W60842  41.537  15.949  10.198
94412W        W60843  41.578  15.770   4.153
94413W        W60844  12.999  37.602   3.354
94414W        W60845  16.104  33.968  10.691
94415W        W60846  10.219  27.663  12.411
94416W        W60847  27.387  23.697  13.453
94417W        W60848  13.239  40.490  11.234
94418W        W60849   6.818  19.570  12.704
94419W        W60850  21.005  13.150   2.292
94420W        W60851  35.899   6.952   2.224
94421W        W60852   4.418   0.374   4.399
94422W        W60853  36.401  16.160   0.297
94423W        W60854  29.913  21.179  14.363
94424W        W60855  42.812  38.345   1.335
94425W        W60856  32.879  11.627  10.930
94426W        W60857  43.767  29.981   1.728
94427W        W60858  13.092  25.358   3.652
94428W        W60859  44.355  25.022   4.725
94429W        W60860  19.254  32.686   3.845
94430W        W60861  25.664  26.794  13.974
94431W        W60862  17.208  42.051   1.828
94432W        W60863   5.659  29.337   1.581
94433W        W60864  23.443   9.921  11.547
94434W        W60865  15.672  30.326  14.699
94435W        W60866   0.916  35.153  10.960
94436W        W60867  30.178  44.699  13.396
94437W        W60868  33.433   4.953   2.807
94438W        W60869  40.931   3.381  13.670
94439W        W60870  16.630  34.451  12.948
94440W        W60871  31.632   3.667   0.887
94441W        W60872  21.634  33.544   4.464
94442W        W60873  41.904  39.585  11.156
94443W        W60874  37.540   8.532  10.780
94444W        W60875  17.083  10.274  13.452
94445W        W60876  33.296   3.549   4.095
94446W        W60877  22.691   9.485   3.360
94447W        W60878   1.171  13.651  12.504
94448W        W60879  30.571  30.514  14.947
94449W        W60880  18.124  13.270  12.055
94450W        W60881  33.395  41.535  11.518
94451W        W60882  23.317  38.038   1.389
94452W        W60883  24.621  29.055  13.518
94453W        W60884  42.789  12.668  10.367
94454W        W60885  12.576  26.620  14.903
94455W        W60886  25.372  41.006  13.173
94456W        W60887  19.253  39.113   4.989
94457W        W60888  11.660  37.482  12.624
94458W        W60889   2.061  32.296  12.925
94459W        W60890  14.958  29.040   4.627
94460W        W60891   4.400  21.177  12.898
94461W        W60892   4.367  29.951   3.393
94462W        W60893  20.672  33.345   1.668
94463W        W60894  33.578  35.827   0.749
94464W        W60895  40.785  29.649   1.402
94465W        W60896   1.950   8.316   4.215
94466W        W60897  13.306  37.158   2.036
94467W        W60898  26.524  10.464   3.665
94468W        W60899  41.921   4.194   1.467
94469W        W60900   6.711  36.757  13.974
94470W        W60901  10.172  25.290   1.266
94471W        W60902   2.775  11.829  12.476
94472W        W60903  18.719  27.849  12.134
94473W        W60904  18.206  13.832   0.742
94474W        W60905  19.327  27.647  14.695
94475W        W60906   9.932   2.382   4.590
94476W        W60907  35.613  18.729  14.477
94477W        W60908   5.950  10.211  11.087
94478W        W60909   2.706   7.145   4.146
94479W        W60910  34.811  35.861   5.036
94480W        W60911   2.709   9.306   1.891
94481W        W60912  33.447   6.067  10.254
94482W        W60913   6.479  18.319   3.230
94483W        W60914  28.376  38.024   1.342
94484W        W60915  14.223  32.226   0.923
94485W        W60916  28.773  10.985   1.621
94486W        W60917  27.154   0.577   1.888
94487W        W60918  37.018  11.080   4.366
94488W        W60919  11.268  44.802   0.458
94489W        W60920  36.354  34.405   4.348
94490W        W60921  22.548  42.081   1.411
94491W        W60922  29.204  30.540  12.566
94492W        W60923  19.107  23.713   4.206
94493W        W60924  15.316  35.990   0.623
94494W        W60925   8.317  43.576  11.097
94495W        W60926  39.796  23.113  14.329
94496W        W60927  42.949   6.807  11.570
94497W        W60928  38.085  15.165  10.973
94498W        W60929  14.824  18.498   0.717
94499W        W60930   9.053  29.170   1.818
94500W        W60931  23.907  21.409   4.920
94501W        W60932  13.660  24.291  13.919
94502W        W60933  15.198   2.695  12.395
94503W        W60934  22.503  12.258   2.051
94504W        W60935  15.683  17.798   1.483
94505W        W60936   8.120  38.282   1.277
94506W        W60937  16.726   7.802  12.544
94507W        W60938  29.353   9.398   0.777
94508W        W60939  36.424  10.579  11.604
94509W        W60940   4.430  20.612   3.603
94510W        W60941  25.456  43.189  12.894
94511W        W60942  17.157  42.441  11.204
94512W        W60943  15.241   8.410  13.294
94513W        W60944  15.602  26.742   3.669
94514W        W60945  25.675  12.161  13.986
94515W        W60946  31.581   1.847  11.690
94516W        W60947  17.074   9.253   1.155
94517W        W60948  27.245   9.692   3.618
94518W        W60949  14.196  15.145   3.426
94519W        W60950  10.512  28.403  13.346
94520W        W60951   0.225  22.192  12.945
94521W        W60952  24.247  26.695  12.127
94522W        W60953  23.591   1.551   2.073
94523W        W60954  35.044  37.064  13.459
94524W        W60955  10.729   9.282  13.081
94525W        W60956  15.540   5.432  12.576
94526W        W60957  24.276  30.137   0.499
94527W        W60958  19.083  34.029   3.397
94528W        W60959  20.004  39.616  14.422
94529W        W60960  31.392  21.270  13.526
94530W        W60961  32.514   5.897   1.802
94531W        W60962  35.662  37.172  12.139
94532W        W60963  14.381  29.467  12.940
94533W        W60964   4.449  27.220   3.730
94534W        W60965   1.922  37.741   1.805
94535W        W60966   8.112   0.438   4.330
94536W        W60967  43.358  26.154   3.731
94537W        W60968  12.165   7.671   2.138
94538W        W60969  22.459  37.742   2.704
94539W        W60970  19.036  36.578   4.846
94540W        W60971  17.047  19.323   4.067
94541W        W60972  33.935  42.582   1.395
94542W        W60973  16.451  25.281   4.875
94543W        W60974  26.534  37.750   2.924
94544W        W60975  20.513  21.044   4.222
94545W        W60976   5.400  44.238  14.856
94546W        W60977  44.014  21.882   2.313
94547W        W60978  23.943   9.666  10.766
94548W        W60979  32.572  38.038  11.878
94549W        W60980   9.407  31.648   3.763
94550W        W60981   9.155   3.709  12.931
94551W        W60982   7.802  42.426  14.156
94552W        W60983  32.707  10.234  13.978
94553W        W60984  32.279  10.478  13.585
94554W        W60985   9.906  41.238  11.874
94555W        W60986  38.573  24.229   0.266
94556W        W60987  22.433  12.827   0.862
94557W        W60988  34.382  35.351  11.412
94558W        W60989  15.127   2.178   4.100
94559W        W60990  31.990  11.646   4.226
94560W        W60991  31.868  14.800  14.367
94561W        W60992  23.536  31.174  13.355
94562W        W60993  17.854   4.435   2.876
94563W        W60994  42.846   5.275  14.974
94564W        W60995   8.557  14.059   0.352
94565W        W60996  11.654  25.884   4.424
94566W        W60997  37.401  19.662   2.339
94567W        W60998  31.386  29.494  14.504
94568W        W60999   7.146  31.303   3.658
94569W        W61000  28.457  24.668   0.296
94570W        W61001  24.949  44.053   3.255
94571W        W61002   4.341  22.243   1.974
94572W        W61003  17.806  25.480  12.950
94573W        W61004  17.682  20.639  13.228
94574W        W61005   5.264  41.232  13.375
94575W        W61006  39.911  33.992   2.142
94576W        W61007  20.316  13.592   2.091
94577W        W61008  34.908   9.266  10.383
94578W        W61009  39.474  21.112   2.638
94579W        W61010   9.600  20.038  10.456
94580W        W61011  23.258  39.797  10.757
94581W        W61012   5.843   2.015  13.047
94582W        W61013  36.529  10.754  13.579
94583W        W61014  37.559   8.243   4.148
94584W        W61015  28.619   8.774  13.110
94585W        W61016  39.950  12.225  11.722
94586W        W61017   9.828  34.098  14.453
94587W        W61018  25.998  10.510   3.678
94588W        W61019  16.251  34.145   4.378
94589W        W61020  42.426  42.365   4.105
94590W        W61021  34.194  43.238  11.242
94591W        W61022  27.713  42.729  14.373
94592W        W61023  10.323  14.530  13.350
94593W        W61024  40.472  11.778   5.366
94594W        W61025  17.346  18.530  11.081
94595W        W61026  16.260  37.010   1.244
94596W        W61027  44.459  11.154   1.246
94597W        W61028   8.203  14.962   1.448
94598W        W61029   0.286  17.628   0.486
94599W        W61030  41.115  31.623  13.923
94600W        W61031   0.476  22.199   3.088
94601W        W61032  19.320  36.498  11.639
94602W        W61033  20.117  17.540  11.497
94603W        W61034  30.164  38.404   2.299
94604W        W61035  34.408   1.719  11.798
94605W        W61036   2.806  21.729  14.853
94606W        W61037  41.751   1.856   0.908
94607W        W61038  11.502   3.014   2.366
94608W        W61039  15.587  12.672   0.246
94609W        W61040  43.367  15.237   2.851
94610W        W61041  39.330  11.841   9.735
94611W        W61042  23.418  10.776   0.445
94612W        W61043   9.721  19.066   1.839
94613W        W61044  21.975  27.671   0.412
94614W        W61045  37.940  37.421  14.955
94615W        W61046  27.631  31.050  14.508
94616W        W61047  35.490  20.739  11.689
94617W        W61048  21.208  24.999   2.427
94618W        W61049  37.509   2.480  14.659
94619W        W61050   9.861  18.223  14.035
94620W        W61051  41.379  34.944  14.465
94621W        W61052  42.792  22.084   0.404
94622W        W61053  10.525  35.461   1.383
94623W        W61054  24.241  12.351   2.053
94624W        W61055  10.754  14.673  12.005
94625W        W61056  34.364  30.427   4.990
94626W        W61057  11.897  20.080   3.637
94627W        W61058  27.986  33.652   3.246
94628W        W61059  39.517  26.503   3.700
94629W        W61060  17.719  20.735   3.631
94630W        W61061  16.195  29.157  14.420
94631W        W61062  16.723  18.770   1.368
94632W        W61063   0.407  14.714  13.352
94633W        W61064  14.748  24.468   0.750
94634W        W61065  43.403  10.826   1.798
94635W        W61066  18.778  17.590  11.421
94636W        W61067   9.670  29.886   3.221
94637W        W61068  43.247  13.472   4.634
94638W        W61069  12.780   0.766  11.346
94639W        W61070  28.750  30.445  11.664
94640W        W61071  31.656  16.873  12.008
94641W        W61072  34.416  34.882   2.785
94642W        W61073  41.351  43.417  14.760
94643W        W61074  26.150   8.065  10.653
94644W        W61075  20.482  22.081  14.452
94645W        W61076  19.249  34.137   0.783
94646W        W61077   3.187   1.336   2.912
94647W        W61078  37.897  12.991  10.800
94648W        W61079   9.637  18.525  10.721
94649W        W61080  21.275  38.023  13.410
94650W        W61081  30.920   4.227  11.679
94651W        W61082  32.944  27.435   2.388
94652W        W61083  30.264  44.132   4.417
94653W        W61084  39.780  22.961  10.385
94654W        W61085  18.817  38.038  13.473
94655W        W61086   1.519  25.862   1.587
94656W        W61087  31.516  23.281   0.953
94657W        W61088  11.093  44.354   0.680
94658W        W61089   5.883   4.839   4.718
94659W        W61090  44.018  20.511   0.932
94660W        W61091   3.482   1.442   4.168
94661W        W61092  23.495  15.831  11.991
94662W        W61093   3.275  17.085  14.484
94663W        W61094  34.042   0.911  13.231
94664W        W61095  43.264   0.792  13.060
94665W        W61096  10.071  35.025  12.871
94666W        W61097  16.587  41.774  11.591
94667W        W61098   0.587   6.433   0.357
94668W        W61099   0.563  44.308   3.843
94669W        W61100  12.580  14.035  13.071
94670W        W61101   7.248   9.877  10.519
94671W        W61102  18.181  30.990   2.191
94672W        W61103  27.780  14.358  11.794
94673W        W61104  28.708   1.234   4.055
94674W        W61105  44.755   9.824   0.088
94675W        W61106  29.625  14.981  14.565
94676W        W61107   7.165  31.660  13.817
94677W        W61108  10.505  19.165  11.894
94678W        W61109  17.094   9.900  12.913
94679W        W61110  33.463  12.122  12.035
94680W        W61111  39.751   6.913   2.260
94681W        W61112  36.719  36.121   1.161
94682W        W61113   8.407  27.352   4.016
94683W        W61114  33.960   0.037  11.416
94684W        W61115  42.196  13.367   4.704
94685W        W61116   8.772  11.456  10.183
94686W        W61117  26.409  30.785   1.634
94687W        W61118  12.236  39.352   2.795
94688W        W61119  36.969  41.458  14.308
94689W        W61120   8.693  26.052   4.564
94690W        W61121  20.007  23.992  11.450
94691W        W61122  18.624  15.325  12.611
94692W        W61123   7.298  36.224  11.579
94693W        W61124  33.824  14.629   3.213
94694W        W61125  43.929  20.041  14.624
94695W        W61126  29.442  28.157  13.463
94696W        W61127   4.397  20.223  10.400
94697W        W61128  33.681   4.293   2.886
94698W        W61129  13.103  40.925  14.298
94699W        W61130  31.907  21.186  13.455
94700W        W61131   5.481  18.052   3.203
94701W        W61132  30.806  30.998  14.946
94702W        W61133   7.241  37.517   0.781
94703W        W61134  19.704  27.345   1.581
94704W        W61135  24.039  40.879   1.359
94705W        W61136  30.020  36.074  14.874
94706W        W61137  17.241   8.509  13.127
94707W        W61138   0.003   7.663   1.415
94708W        W61139   3.318   1.885   0.229
94709W        W61140   3.549  30.000   2.186
94710W        W61141   6.685   9.738  11.190
94711W        W61142  40.387  29.127  14.922
94712W        W61143  40.397   0.041  11.637
94713W        W61144  18.772   7.517   1.775
94714W        W61145  41.380  30.630  14.915
94715W        W61146   0.609  30.115  13.887
94716W        W61147  19.684  41.829   1.871
94717W        W61148  24.478   8.885  12.867
94718W        W61149  41.423   3.834   4.552
94719W        W61150  18.161  29.011   1.736
94720W        W61151   9.766  11.620  14.453
94721W        W61152  35.569   2.810   0.041
94722W        W61153   4.499  33.716   1.777
94723W        W61154  39.053  28.950  14.517
94724W        W61155  31.371  16.753  13.376
94725W        W61156   5.197  43.174  14.315
94726W        W61157   3.288  42.948  12.463
94727W        W61158  27.297  40.040  12.444
94728W        W61159   1.723  24.792   0.341
94729W        W61160   1.520   1.739   4.588
94730W        W61161   5.932   5.659  12.475
94731W        W61162  10.316  18.816   1.906
94732W        W61163  30.536  19.030   4.920
94733W        W61164  32.114  33.652  10.760
94734W        W61165  28.948  20.166  13.193
94735W        W61166  26.930  30.091  13.526
94736W        W61167  30.671  12.606  11.331
94737W        W61168  31.084  28.380  13.908
94738W        W61169   0.366   6.313   4.748
94739W        W61170  22.645  32.758  11.089
94740W        W61171   7.732  28.384   1.444
94741W        W61172   6.455  18.700  10.736
94742W        W61173   0.788  44.280  11.624
94743W        W61174  34.360  13.376   3.825
94744W        W61175  34.468  22.404  11.588
94745W        W61176   5.869  17.206   2.355
94746W        W61177  43.349  26.362   0.802
94747W        W61178  10.399  22.832   3.701
94748W        W61179   7.770   2.318   0.442
94749W        W61180  23.150  10.427   2.245
94750W        W61181  25.541  34.446   1.005
94751W        W61182  21.047  29.622  14.007
94752W        W61183   7.857  26.969   0.657
94753W        W61184   1.208   7.699  12.952
94754W        W61185   6.704  34.512   2.292
94755W        W61186  22.241  12.199  13.404
94756W        W61187  43.336   7.673   2.662
94757W        W61188  41.694  19.516   3.108
94758W        W61189  27.190  13.663  11.672
94759W        W61190  18.155  34.401   1.995
94760W        W61191   2.198  30.691  14.504
94761W        W61192  37.792  13.109  11.605
94762W        W61193   9.900   9.927   3.262
94763W        W61194  10.895   5.780  13.940
94764W        W61195   4.315  25.019   3.442
94765W        W61196  10.176  28.977   1.752
94766W        W61197  37.473  21.846   1.251
94767W        W61198  33.654  18.906   1.792
94768W        W61199  12.783  41.599  12.449
94769W        W61200  24.234  21.751   1.654
94770W        W61201  20.570  17.085  14.351
94771W        W61202  26.561  28.780   3.170
94772W        W61203   4.471  24.526  11.987
94773W        W61204  21.610   3.496  11.156
94774W        W61205  41.438   3.237  14.969
94775W        W61206  34.338   2.505  13.743
94776W        W61207   8.921  13.655  12.458
94777W        W61208  40.792  31.838   2.879
94778W        W61209   7.617  32.656   3.256
94779W        W61210  10.708  29.672   0.752
94780W        W61211  19.746  18.177  10.662
94781W        W61212  43.846  20.005   3.645
94782W        W61213   2.743  23.961  13.855
94783W        W61214  30.573  35.976   4.861
94784W        W61215  16.267  26.952   1.975
94785W        W61216  31.559  40.026   0.380
94786W        W61217  26.598  43.036  12.537
94787W        W61218  41.946  20.362   4.331
94788W        W61219  28.394   2.719  13.936
94789W        W61220   5.587  27.571   0.812
94790W        W61221   5.199  25.060  11.424
94791W        W61222   1.063  40.757  12.913
94792W        W61223   7.141  30.285   2.145
94793W        W61224  28.967  32.589   3.826
94794W        W61225  24.056  17.247   4.327
94795W        W61226  28.379   6.965   2.295
94796W        W61227   7.042  39.264  11.171
94797W        W61228  31.239  19.067   1.370
94798W        W61229   9.104  42.242   4.100
94799W        W61230  23.173  18.085   2.788
94800W        W61231  27.111  34.053   0.892
94801W        W61232  36.467   2.374   0.437
94802W        W61233  13.598   1.928  14.502
94803W        W61234  19.067  35.588   0.049
94804W        W61235  29.193  29.022   1.782
94805W        W61236  18.333   8.836   2.922
94806W        W61237  20.078  32.374  12.974
94807W        W61238  15.547   6.905  12.628
94808W        W61239   4.630   0.307   0.511
94809W        W61240  21.298  17.595   3.736
94810W        W61241  11.370   4.327  10.702
94811W        W61242  16.753  30.377  12.062
94812W        W61243   2.761  29.626  14.013
94813W        W61244  35.362  14.369   3.238
94814W        W61245   8.715  19.509   3.609
94815W        W61246  13.594  29.205   2.492
94816W        W61247  28.254  25.946  11.911
94817W        W61248  39.915  36.422   4.883
94818W        W61249   9.718   9.506   1.177
94819W        W61250  24.437  33.442  11.128
94820W        W61251  20.760  29.936   1.351
94821W        W61252  17.942  26.976   2.589
94822W        W61253  38.472  25.961  10.908
94823W        W61254  27.147  41.010  14.358
94824W        W61255   7.434  41.486   0.951
94825W        W61256  13.354  27.673  14.725
94826W        W61257  32.905  24.300  11.676
94827W        W61258  28.076   1.050  14.089
94828W        W61259  37.807  24.123   3.020
94829W        W61260   0.456   0.435   0.564
94830W        W61261  32.417   3.819   0.123
94831W        W61262   1.943  18.705  12.215
94832W        W61263   1.480  39.521  11.847
94833W        W61264  33.563   1.249   0.125
94834W        W61265  43.829  14.996  11.080
94835W        W61266  10.639  31.618  12.384
94836W        W61267   6.615   4.423  14.515
94837W        W61268  41.955  16.237   1.496
94838W        W61269  33.878  44.908  10.525
94839W        W61270  15.716   2.668   3.678
94840W        W61271  36.863  42.944   9.729
94841W        W61272  28.656   9.118   1.439
94842W        W61273  13.938  16.925  14.003
94843W        W61274   0.369  38.358   1.249
94844W        W61275  28.642  42.878   3.764
94845W        W61276  20.143  38.803   3.529
94846W        W61277  28.878  31.140   1.360
94847W        W61278  22.259   7.898   0.419
94848W        W61279  14.898  38.265  13.404
94849W        W61280   6.435  34.382  14.906
94850W        W61281   3.764  33.019  10.701
94851W        W61282  32.922  27.484  14.917
94852W        W61283  44.092  30.124   0.765
94853W        W61284  16.810  12.773  12.122
94854W        W61285   9.913  12.339   2.505
94855W        W61286   6.230  36.868   2.293
94856W        W61287  44.097  42.392   1.783
94857W        W61288  11.782  42.978  11.032
94858W        W61289  10.845   4.040  12.097
94859W        W61290  34.588  13.038   0.977
94860W        W61291  21.420   4.491  12.515
94861W        W61292  28.583  38.721   4.499
94862W        W61293   8.337  30.825  11.998
94863W        W61294   2.418  21.766   4.611
94864W        W61295   3.597  26.502  10.165
94865W        W61296  20.679   1.265   0.488
94866W        W61297  30.596  38.927  10.516
94867W        W61298   6.312   7.644  13.777
94868W        W61299  38.968  28.564  14.164
94869W        W61300   2.014  11.835   3.088
94870W        W61301   4.736  44.003  10.233
94871W        W61302  29.656   7.946  10.283
94872W        W61303  37.514   9.861  13.842
94873W        W61304   6.856  19.529   0.770
94874W        W61305  38.642  11.814   2.701
94875W        W61306   8.354  12.215  14.275
94876W        W61307  21.076  24.478   3.278
94877W        W61308  25.292  27.854  14.371
94878W        W61309  35.504   5.646  10.475
94879W        W61310  22.271  44.645  14.282
94880W        W61311  16.804  41.742  12.878
94881W        W61312  24.554  36.078  11.547
94882W        W61313  21.665  37.537   2.811
94883W        W61314  38.469  14.855   4.387
94884W        W61315  12.641  15.033  12.677
94885W        W61316  25.689  14.329   1.678
94886W        W61317  43.004  21.673  12.935
94887W        W61318  13.126  43.946  13.929
94888W        W61319  43.262   0.039  10.584
94889W        W61320  24.246  17.153   1.763
94890W        W61321  30.434   8.779   1.077
94891W        W61322  27.683  11.794  12.547
94892W        W61323  37.603  40.330   0.717
94893W        W61324  18.767   2.389  12.666
94894W        W61325  14.694  31.039   4.872
94895W        W61326  32.471  11.289  10.787
94896W        W61327   3.905  41.895  14.856
94897W        W61328  29.179   9.218   1.786
94898W        W61329  23.433  27.673  11.300
94899W        W61330   4.754  23.041   3.764
94900W        W61331  11.092   6.716  12.425
94901W        W61332  20.147   9.748  11.267
94902W        W61333  12.696  43.420   4.303
94903W        W61334  35.925  20.162   4.118
94904W        W61335  26.985   5.249   9.918
94905W        W61336  43.058  32.576  13.774
94906W        W61337   1.515  11.887  12.051
94907W        W61338  36.818  14.666   0.276
94908W        W61339  22.761  15.530  13.374
94909W        W61340  31.663  42.936  14.750
94910W        W61341  35.580   6.627  13.970
94911W        W61342  29.112  21.554  12.468
94912W        W61343  20.607  14.331   3.467
94913W        W61344  26.410   7.597   2.019
94914W        W61345  39.403  32.526   1.673
94915W        W61346   3.061   0.279  13.455
94916W        W61347  41.719  35.356   2.300
94917W        W61348   8.673   5.421  14.231
94918W        W61349  30.395  20.509  11.528
94919W        W61350  31.448  38.446  13.107
94920W        W61351  22.571  13.226  10.316
94921W        W61352  37.331   9.229   3.553
94922W        W61353   2.478  35.352  10.867
94923W        W61354   5.293  16.605   3.459
94924W        W61355  42.936   5.982   3.207
94925W        W61356   9.025  10.871  13.777
94926W        W61357  41.162  37.907   4.117
94927W        W61358  23.586   8.897  11.383
94928W        W61359  28.881  18.141  12.668
94929W        W61360  43.876  35.063   3.553
94930W        W61361  27.921  44.934  12.489
94931W        W61362  24.242  21.239   3.177
94932W        W61363  11.988  20.333   2.142
94933W        W61364   8.891   7.358   2.436
94934W        W61365  32.801  14.030  10.493
94935W        W61366  20.268  33.308   3.285
94936W        W61367   0.739  26.547  12.512
94937W        W61368   5.640  14.076  14.389
94938W        W61369  29.601  13.653   1.790
94939W        W61370  20.631  31.146  10.695
94940W        W61371  11.389  25.531  10.697
94941W        W61372   8.701  10.246   1.796
94942W        W61373   8.488  12.360   4.433
94943W        W61374  38.852  17.503  11.484
94944W        W61375  37.179  35.823   4.649
94945W        W61376  30.174  12.165  13.046
94946W        W61377  18.125  30.754  14.386
94947W        W61378  14.619  10.177  10.781
94948W        W61379  28.704  22.033  14.711
94949W        W61380  40.429   8.668   4.969
94950W        W61381   0.195  36.085  12.216
94951W        W61382  16.933   2.351   2.233
94952W        W61383  39.093   6.794   0.904
94953W        W61384   1.328   2.383  11.476
94954W        W61385   8.392  34.873  11.023
94955W        W61386  20.934  11.555   3.658
94956W        W61387   5.745  19.839   0.409
94957W        W61388  29.088  35.630  12.071
94958W        W61389   1.540  43.770   2.886
94959W        W61390  41.236  20.561   0.197
94960W        W61391  36.359   1.012  14.544
94961W        W61392  19.025  33.109   3.159
94962W        W61393  27.412  42.646  11.647
94963W        W61394  12.109  39.064  13.334
94964W        W61395  19.735   4.521   3.624
94965W        W61396  30.112  36.895  11.045
94966W        W61397  42.574  35.033   2.737
94967W        W61398  16.644   0.208   4.625
94968W        W61399  10.356  10.444   4.611
94969W        W61400  27.122  28.135  10.226
94970W        W61401  21.712  28.882   4.199
94971W        W61402  44.306  38.910   3.994
94972W        W61403  27.903  40.289   1.172
94973W        W61404  29.891  39.532  11.695
94974W        W61405  15.080  15.915  13.077
94975W        W61406  35.681  25.699   0.146
94976W        W61407  44.810  27.592   3.269
94977W        W61408  25.176  21.368   2.680
94978W        W61409  12.849  40.534   2.161
94979W        W61410  23.102  35.928  14.915
94980W        W61411  37.612  24.912  11.949
94981W        W61412   0.893   2.701   0.474
94982W        W61413  30.995   5.121  14.473
94983W        W61414  17.621  24.436  13.509
94984W        W61415  40.525  16.542   1.247
94985W        W61416   0.057  22.131   4.697
94986W        W61417  40.472   7.563   4.740
94987W        W61418  26.730  32.450   5.103
94988W        W61419  22.691  22.714  12.145
94989W        W61420   2.845  11.666   1.270
94990W        W61421  19.737  38.536   4.474
94991W        W61422   1.395  17.234  10.820
94992W        W61423  31.229  24.137   0.336
94993W        W61424  40.172   4.348  13.709
94994W        W61425  31.409  30.514   1.191
94995W        W61426  42.334   5.002   4.212
94996W        W61427  30.557  30.227   2.766
94997W        W61428  25.191   3.313  13.038
94998W        W61429  10.365   7.346   1.107
94999W        W61430  35.365   9.987  12.526
95000W        W61431  16.415  22.595  11.582
95001W        W61432   1.248  15.056   0.291
95002W        W61433  39.514  29.193  14.710
95003W        W61434  33.896   4.716   2.694
95004W        W61435   7.310  44.391  13.154
95005W        W61436   7.211  17.070   0.426
95006W        W61437   9.903   5.426  10.697
95007W        W61438  31.940  33.486   2.170
95008W        W61439  27.541  16.202  13.572
95009W        W61440  37.397  14.853   3.624
95010W        W61441   8.303   8.003   1.901
95011W        W61442  40.293  34.005   1.746
95012W        W61443  33.148  14.728  12.942
95013W        W61444  16.126   2.956   3.566
95014W        W61445   5.818   1.351   4.600
95015W        W61446   5.337   3.366   2.667
95016W        W61447   6.790  22.511   0.209
95017W        W61448  10.614  18.365   3.330
95018W        W61449  43.180  11.870   3.394
95019W        W61450  43.714  27.225  12.584
95020W        W61451  33.504  30.012   4.972
95021W        W61452   9.342  19.005  10.698
95022W        W61453  30.978   1.462  11.145
95023W        W61454  31.404  35.770  14.496
95024W        W61455   8.894   2.986   2.130
95025W        W61456  10.214  40.390   3.350
95026W        W61457  28.748  27.028  10.957
95027W        W61458  32.155  15.472  11.613
95028W        W61459  38.179  19.174   0.209
95029W        W61460  38.401  31.042   2.928
95030W        W61461  23.374  43.279  14.243
95031W        W61462  42.798  31.931  12.398
95032W        W61463  32.380  28.614  11.933
95033W        W61464  40.541  22.006  10.798
95034W        W61465  18.808  44.902   1.731
95035W        W61466  41.522   1.583  13.552
95036W        W61467  34.930  34.979   4.170
95037W        W61468   3.847   0.289  14.839
95038W        W61469  35.322  16.101   4.093
95039W        W61470   8.610  41.420   4.338
95040W        W61471  44.617   1.768   1.626
95041W        W61472  42.928  31.247  13.449
95042W        W61473   5.215   6.041  14.870
95043W        W61474  11.868   3.191  14.213
95044W        W61475   3.805  39.333   1.966
95045W        W61476  15.300  43.810   4.194
95046W        W61477  30.894  44.409  13.031
95047W        W61478  31.446  33.526  14.470
95048W        W61479  19.488  16.972   3.680
95049W        W61480  35.664  16.802   3.186
95050W        W61481  18.848  19.536  13.986
95051W        W61482  35.333   8.094   4.803
95052W        W61483  28.902  41.459   4.703
95053W        W61484  34.158  17.187   0.409
95054W        W61485  30.648  23.894   4.639
95055W        W61486  26.024   2.137   0.380
95056W        W61487  13.081  13.136   2.786
95057W        W61488  16.293  38.331   1.597
95058W        W61489  41.328  40.281   2.700
95059W        W61490  29.664  37.035  13.375
95060W        W61491   7.136  15.967  13.862
95061W        W61492  15.081  33.096   1.516
95062W        W61493   7.706  38.616  10.642
95063W        W61494  36.408  20.617  13.479
95064W        W61495  21.541   0.423   1.306
95065W        W61496  28.362   8.549   4.596
95066W        W61497  43.714  33.613  13.806
95067W        W61498  42.545  44.003   4.233
95068W        W61499  33.579   1.143  11.432
95069W        W61500   2.210  34.696   2.233
95070W        W61501  31.033   4.682  13.530
95071W        W61502  26.248  38.972   4.187
95072W        W61503  26.084  26.238   3.886
95073W        W61504  28.923  24.277   4.130
95074W        W61505  40.448  38.533  14.883
95075W        W61506  11.906   5.296  14.462
95076W        W61507  33.713  21.068  12.320
95077W        W61508  35.556  43.902  13.900
95078W        W61509  34.436   3.407   4.625
95079W        W61510  44.462  37.301   1.643
95080W        W61511  26.005  32.807   2.416
95081W        W61512  35.441  40.385   3.308
95082W        W61513  17.594   2.998   0.655
95083W        W61514  37.525  32.458   3.634
95084W        W61515  44.044  11.396  14.118
95085W        W61516  43.516  25.524  11.087
95086W        W61517  14.234  17.045   2.057
95087W        W61518  31.628  27.423   4.756
95088W        W61519  37.967  29.666  11.184
95089W        W61520  32.715   3.753  14.690
95090W        W61521  43.935  44.768  13.836
95091W        W61522  20.872  27.830  13.734
95092W        W61523  26.571  35.361   4.489
95093W        W61524  19.095   9.137   4.333
95094W        W61525  28.718   3.844  14.738
95095W        W61526   1.537   5.347   3.169
95096W        W61527  44.944  17.567  13.107
95097W        W61528   8.093  26.469  12.618
95098W        W61529  19.983  24.584   2.976
95099W        W61530  42.396  18.125   0.270
95100W        W61531  31.284  29.145  12.442
95101W        W61532   5.634   4.210   3.952
95102W        W61533   9.909  26.995   0.065
95103W        W61534  12.997   7.290  14.006
95104W        W61535  24.284  27.581   5.020
95105W        W61536  31.501  12.363   3.750
95106W        W61537  38.731  30.635   3.353
95107W        W61538   3.870  11.220  13.555
95108W        W61539   6.181  10.134   3.061
95109W        W61540  41.530   8.131   2.407
95110W        W61541   9.876  40.831   4.675
95111W        W61542  20.183  12.311  14.724
95112W        W61543  43.926  17.514  13.114
95113W        W61544  21.414  16.068   1.830
95114W        W61545  35.099  24.230  10.742
95115W        W61546  40.834  25.378   2.110
95116W        W61547  29.003  39.151   3.736
95117W        W61548  38.391  38.239  14.746
95118W        W61549   0.881  43.422   4.204
95119W        W61550  35.850  14.041   1.006
95120W        W61551  11.581   4.780  12.040
95121W        W61552  20.264  14.678   0.487
95122W        W61553   1.350  37.573  12.846
95123W        W61554  13.347  22.496   3.906
95124W        W61555  23.952  38.022   2.802
95125W        W61556   4.537   8.307  13.482
95126W        W61557  40.628  17.617  14.437
95127W        W61558  17.220  21.562  13.143
95128W        W61559  20.026  32.329  14.879
95129W        W61560  11.875  27.342  12.886
95130W        W61561   6.288  26.542  13.345
95131W        W61562   8.216  15.422   4.295
95132W        W61563  21.368  21.691   4.982
95133W        W61564  31.507  36.680   3.572
95134W        W61565  11.838   3.110  11.174
95135W        W61566   9.338  15.423  11.503
95136W        W61567  44.007  30.102  13.942
95137W        W61568  27.647  31.955   1.286
95138W        W61569   2.272   9.542  14.916
95139W        W61570  34.421  32.341   4.512
95140W        W61571  31.644  32.516  13.260
95141W        W61572  15.120  10.242   1.733
95142W        W61573   0.593  41.553  14.938
95143W        W61574  18.922   3.743  12.352
95144W        W61575  42.887  22.966   4.939
95145W        W61576   0.538  42.031   2.645
95146W        W61577   9.891  23.477  12.568
95147W        W61578  13.286  38.703  10.972
95148W        W61579  27.270  24.942  11.569
95149W        W61580   9.196  44.889  10.410
95150W        W61581  41.422   2.423   3.945
95151W        W61582  20.431  27.074  13.443
95152W        W61583  17.713   3.692  13.746
95153W        W61584  19.200  31.453   1.210
95154W        W61585  16.779  27.681  10.938
95155W        W61586   0.108   3.814  13.915
95156W        W61587  13.585   1.429   0.720
95157W        W61588  11.042  35.149   1.809
95158W        W61589  18.620  14.154   2.271
95159W        W61590  16.741   8.881  11.869
95160W        W61591  38.282  14.155   1.273
95161W        W61592  41.377  34.292  13.096
95162W        W61593  26.572  28.266   3.118
95163W        W61594  43.324  29.976   1.456
95164W        W61595  33.970  11.885  14.983
95165W        W61596  22.428   3.235   3.686
95166W        W61597  33.877  20.270  11.032
95167W        W61598   1.873  14.602   1.847
95168W        W61599  34.145  44.061   0.254
95169W        W61600  17.057   3.790   3.682
95170W        W61601  39.030   1.603   0.931
95171W        W61602  18.304   3.468  10.222
95172W        W61603  32.889  44.287   4.199
95173W        W61604  44.408  10.261  13.996
95174W        W61605  29.676  18.716  12.564
95175W        W61606  12.584  37.887  14.852
95176W        W61607  34.577  39.472   1.732
95177W        W61608  34.075  37.615   0.470
95178W        W61609  42.772  15.573  10.740
95179W        W61610  17.786  23.109  13.533
95180W        W61611  26.615  40.072  11.035
95181W        W61612  29.447  18.147   0.883
95182W        W61613  36.861  23.142   2.875
95183W        W61614  32.992   9.155   2.327
95184W        W61615  11.400  10.577  13.580
95185W        W61616  34.323  32.390   4.009
95186W        W61617  21.990  11.868   3.670
95187W        W61618   4.327  20.715   0.816
95188W        W61619  28.769   1.416   4.534
95189W        W61620  34.770  38.968   3.432
95190W        W61621  10.694   4.590   0.749
95191W        W61622   4.461  37.360   3.669
95192W        W61623  20.017  10.178  11.046
95193W        W61624  25.010  15.201   0.971
95194W        W61625  33.516  12.320   4.118
95195W        W61626  26.963  10.595   1.471
95196W        W61627  33.127   7.321  14.145
95197W        W61628  40.449  36.134  11.950
95198W        W61629  14.612  19.249   4.344
95199W        W61630   1.491  37.925   0.980
95200W        W61631   7.048  41.163   4.237
95201W        W61632  18.757  12.630   2.251
95202W        W61633  13.229  22.525  14.507
95203W        W61634  27.777  20.144  12.103
95204W        W61635  11.450  37.385   2.267
95205W        W61636  20.225  14.528   3.841
95206W        W61637  15.185  32.580  11.683
95207W        W61638   3.798  11.170  10.620
95208W        W61639  18.614   5.437   3.192
95209W        W61640  37.043   8.517  11.857
95210W        W61641  22.652  32.975  10.608
95211W        W61642  18.259  37.948  11.046
95212W        W61643   1.177  33.865   0.174
95213W        W61644  21.056  42.392  14.312
95214W        W61645  34.546  27.004  13.847
95215W        W61646  26.996  25.266   2.332
95216W        W61647   6.139   4.536  10.091
95217W        W61648  31.511  27.758   2.185
95218W        W61649  30.997  11.852   3.603
95219W        W61650  36.870  11.237  10.632
95220W        W61651   0.469  11.261   1.292
95221W        W61652  27.091  17.735   1.801
95222W        W61653  10.590  36.275  11.497
95223W        W61654  28.058  27.073  12.070
95224W        W61655  16.420   3.373   1.241
95225W        W61656  17.324  23.785   2.666
95226W        W61657  35.294  42.035  13.540
95227W        W61658  44.108   8.271   4.251
95228W        W61659   2.802  35.960  12.931
95229W        W61660  30.765  21.121   2.420
95230W        W61661  28.710  40.190   2.437
95231W        W61662  42.294  38.351   1.392
95232W        W61663  16.570  43.810   2.774
95233W        W61664  40.818   8.784  12.591
95234W        W61665  22.275   9.223  11.526
95235W        W61666   5.380  14.047  12.911
95236W        W61667  31.239  28.874   9.924
95237W        W61668  22.247   7.925  10.661
95238W        W61669  20.311  29.165   2.202
95239W        W61670  30.218   3.232   0.734
95240W        W61671  27.566  20.405  11.704
95241W        W61672  29.894  23.650   1.314
95242W        W61673   9.611  31.547  12.583
95243W        W61674  21.752  44.467  11.551
95244W        W61675  36.567  30.019   2.225
95245W        W61676  35.548  41.843  11.314
95246W        W61677  36.448  12.926  13.589
95247W        W61678  30.085   9.011   1.921
95248W        W61679  20.305  26.681  11.083
95249W        W61680   7.998  26.133   2.502
95250W        W61681  35.898  11.795   0.345
95251W        W61682  39.450  31.872   0.575
95252W        W61683  34.521  40.438  13.948
95253W        W61684  30.911  14.676  13.822
95254W        W61685  19.218  41.401  11.850
95255W        W61686   2.197  16.670   0.356
95256W        W61687  35.095  38.131   0.812
95257W        W61688  39.451  25.699  11.791
95258W        W61689   0.300  27.439  12.359
95259W        W61690  39.067  17.769  14.597
95260W        W61691  31.703  25.999  12.968
95261W        W61692  29.366   6.575   1.438
95262W        W61693  10.969  12.248  13.056
95263W        W61694  31.840  20.274   0.792
95264W        W61695   5.470  10.908   2.807
95265W        W61696  27.872   7.365   3.599
95266W        W61697  17.293  39.309   3.756
95267W        W61698   3.322  24.005   0.887
95268W        W61699  42.390  36.223  13.384
95269W        W61700  41.648  36.486   2.960
95270W        W61701  42.525  38.348   2.328
95271W        W61702  12.338   4.610   0.449
95272W        W61703  10.821  14.633   4.560
95273W        W61704  30.615   9.613  12.002
95274W        W61705   9.249  33.053  10.446
95275W        W61706  44.750  37.979   2.116
95276W        W61707   2.592   8.696  10.161
95277W        W61708  44.699  15.240  14.079
95278W        W61709   7.188  39.907  12.502
95279W        W61710  44.383   4.933   3.860
95280W        W61711  21.757  26.220   4.174
95281W        W61712  42.199   9.584  11.469
95282W        W61713  42.019  28.512  11.091
95283W        W61714  14.106  35.870  10.990
95284W        W61715  37.855  16.574  11.609
95285W        W61716   6.395  13.177  13.925
95286W        W61717  16.108  11.514   0.119
95287W        W61718  42.920  35.304  10.718
95288W        W61719  38.449  26.094   3.787
95289W        W61720  20.736  32.999   3.662
95290W        W61721  28.095  17.045   3.079
95291W        W61722   2.388  36.306  12.433
95292W        W61723  27.414  29.953  13.352
95293W        W61724  23.634   6.735  11.656
95294W        W61725   9.806   5.499   1.736
95295W        W61726  13.630  42.888  12.677
95296W        W61727  20.029  17.668   1.837
95297W        W61728  34.386   2.499   2.269
95298W        W61729  28.889  29.575   2.890
95299W        W61730   8.869   4.995   3.699
95300W        W61731  13.672  36.861   0.364
95301W        W61732   6.588   8.844   0.209
95302W        W61733  18.661  43.629   0.486
95303W        W61734  22.407  17.477  12.600
95304W        W61735  16.141  16.046  13.918
95305W        W61736  24.221  23.556   3.682
95306W        W61737  28.952  17.666  12.854
95307W        W61738   4.180  31.028   4.350
95308W        W61739  36.759  38.057   0.291
95309W        W61740  27.723  40.367   2.229
95310W        W61741  16.975  33.477   3.756
95311W        W61742  35.837  26.525  13.855
95312W        W61743  15.034  21.615  10.656
95313W        W61744   7.674  10.194  14.676
95314W        W61745  28.761  17.012   0.898
95315W        W61746  18.738  24.657  12.430
95316W        W61747  19.382  36.051  14.293
95317W        W61748  35.934  22.468  14.249
95318W        W61749  19.414   8.227  12.844
95319W        W61750  21.327  35.206   2.311
95320W        W61751  24.273  25.182  12.521
95321W        W61752  41.987  26.814   3.268
95322W        W61753  36.557  39.484   0.781
95323W        W61754  38.016  11.707  11.090
95324W        W61755   3.509  29.856   3.404
95325W        W61756  30.207   7.766   2.991
95326W        W61757   5.906  39.332   0.940
95327W        W61758  44.494  16.936  14.377
95328W        W61759  32.587   5.143   1.402
95329W        W61760  31.126  13.053   1.307
95330W        W61761   9.961  39.111   0.980
95331W        W61762   7.195  43.514   0.357
95332W        W61763  20.921  32.459  14.646
95333W        W61764  30.539  41.138  13.993
95334W        W61765  38.644  26.861   4.177
95335W        W61766  21.008  16.130  13.483
95336W        W61767   6.772  25.692   3.130
95337W        W61768  28.007  34.110   3.440
95338W        W61769  19.101  11.802  12.363
95339W        W61770   0.941  29.981  11.894
95340W        W61771  43.061   3.175   4.051
95341W        W61772  16.140   8.068  11.994
95342W        W61773  44.648  14.895  14.935
95343W        W61774  21.524  27.765   1.869
95344W        W61775  35.311   7.183   1.194
95345W        W61776  42.818  27.389  14.481
95346W        W61777  41.280  28.389  13.803
95347W        W61778  25.976  17.534   1.371
95348W        W61779   1.656  29.739  11.987
95349W        W61780  12.623  18.065  12.468
95350W        W61781  28.887  34.239  13.829
95351W        W61782  16.284  29.664   3.086
95352W        W61783   6.200  37.074  11.433
95353W        W61784  21.124  22.235   1.491
95354W        W61785  22.976  27.550   2.853
95355W        W61786  38.784  40.870  12.493
95356W        W61787  17.074  37.544   2.744
95357W        W61788   8.264   8.474  11.571
95358W        W61789  34.545  36.858  13.550
95359W        W61790  20.266  21.836  10.868
95360W        W61791  28.658  42.781  11.538
95361W        W61792  32.448   0.185  13.138
95362W        W61793  17.568   3.464  12.337
95363W        W61794  32.145   2.506   2.705
95364W        W61795   5.131   8.147  10.789
95365W        W61796  15.123  32.015  12.939
95366W        W61797  23.781  16.864  13.551
95367W        W61798  35.928   4.679  11.928
95368W        W61799  21.555  42.749   1.190
95369W        W61800  15.172  25.941   3.966
95370W        W61801  22.119  28.005   4.634
95371W        W61802  15.285  27.524   1.314
95372W        W61803  43.882  11.027   1.900
95373W        W61804  33.495  34.932   2.870
95374W        W61805   7.409  16.823   3.628
95375W        W61806   7.979  22.225   0.968
95376W        W61807  22.642  31.975   0.482
95377W        W61808  28.538  25.125  11.912
95378W        W61809  22.996  33.676  13.478
95379W        W61810   4.445   6.431  11.036
95380W        W61811  14.753  24.179  12.574
95381W        W61812  20.661  30.684   2.811
95382W        W61813  44.689   4.008   4.239
95383W        W61814   9.263   7.430  14.892
95384W        W61815  19.747  42.003   0.825
95385W        W61816   6.259  35.956   4.476
95386W        W61817  43.485   4.939  10.770
95387W        W61818   4.238   9.263   1.859
95388W        W61819   7.801   1.316   4.802
95389W        W61820  29.616  31.633   0.926
95390W        W61821  11.946  19.081  11.896
95391W        W61822  30.365  39.608  13.904
95392W        W61823  43.058  37.336   3.806
95393W        W61824  11.017  42.175  14.507
95394W        W61825  43.265   9.393   1.895
95395W        W61826  43.412  37.582  13.832
95396W        W61827  37.074  21.260  14.814
95397W        W61828  11.288   9.487  11.449
95398W        W61829  11.233  37.012   4.199
95399W        W61830   4.881   1.287  10.506
95400W        W61831   0.784  23.024  14.981
95401W        W61832  27.352  18.804  14.408
95402W        W61833  11.763  19.853  11.258
95403W        W61834   7.503  35.011  13.421
95404W        W61835  43.503  38.250   0.775
95405W        W61836  32.633   0.649   2.714
95406W        W61837  32.073  24.419  11.195
95407W        W61838   9.395  19.523   1.849
95408W        W61839  15.614  30.045   3.054
95409W        W61840  16.300  21.755  13.089
95410W        W61841  20.259  22.347   0.312
95411W        W61842  16.859   0.450  14.872
95412W        W61843   8.130   9.623  13.908
95413W        W61844  25.968  24.495  12.526
95414W        W61845  23.351  38.559  10.462
95415W        W61846  19.297   7.503   1.861
95416W        W61847  24.147  34.979  11.094
95417W        W61848   4.442  10.176   2.903
95418W        W61849   4.410  43.563   0.943
95419W        W61850  18.815  21.710  13.394
95420W        W61851  29.687  38.587  14.493
95421W        W61852  30.147  27.197  12.385
95422W        W61853   1.412   5.000  11.255
95423W        W61854  38.000   3.746  14.913
95424W        W61855   1.224  29.425   2.305
95425W        W61856  27.476  31.940   3.098
95426W        W61857  29.216  44.517   4.080
95427W        W61858   0.939  15.266  14.941
95428W        W61859  14.800  25.568   1.762
95429W        W61860   8.562  39.234   0.645
95430W        W61861   1.904  35.270  13.924
95431W        W61862  12.671   0.239  13.535
95432W        W61863   5.922  33.601   2.265
95433W        W61864  12.656  15.820   1.251
95434W        W61865  38.010  32.460   4.581
95435W        W61866  37.090  38.022  12.737
95436W        W61867  23.887  34.625   2.570
95437W        W61868  10.363  17.624  11.665
95438W        W61869  39.151  40.940   2.299
95439W        W61870  29.068  10.026  12.896
95440W        W61871  42.027  41.322  12.991
95441W        W61872   9.381   3.994  13.271
95442W        W61873  39.286  36.699  12.115
95443W        W61874  15.070  36.450   0.461
95444W        W61875  40.388  18.506  12.170
95445W        W61876   1.797  38.166  13.440
95446W        W61877  17.832  31.921   3.095
95447W        W61878  28.865  20.499   3.756
95448W        W61879  44.337   2.624   0.422
95449W        W61880  25.949   6.186   3.817
95450W        W61881  39.734  39.381   3.911
95451W        W61882  27.861  21.652   0.598
95452W        W61883  38.716  34.664   4.275
95453W        W61884  37.439  16.829   0.338
95454W        W61885   7.710  36.554  11.582
95455W        W61886  32.593  24.647  14.470
95456W        W61887   7.717  36.711   2.013
95457W        W61888  41.741  38.761   4.141
95458W        W61889  19.414   2.227  14.873
95459W        W61890  13.892  22.652  11.126
95460W        W61891   4.127   3.811   0.784
95461W        W61892   1.663  24.538  14.794
95462W        W61893  30.825   5.272  12.067
95463W        W61894   6.947  38.717   0.412
95464W        W61895  10.847   5.208   4.373
95465W        W61896  36.757  21.769   0.791
95466W        W61897  41.879  36.439  13.262
95467W        W61898  13.225  39.481  13.059
95468W        W61899  12.143  23.223  11.145
95469W        W61900  36.161  24.212   3.299
95470W        W61901  36.060  35.585  11.120
95471W        W61902  39.344  36.042  12.921
95472W        W61903   0.510  32.650   1.308
95473W        W61904  11.285  30.651   1.409
95474W        W61905  25.953  30.609  12.989
95475W        W61906  26.287   5.420   1.985
95476W        W61907  41.238  39.067   1.876
95477W        W61908  24.478  33.064  12.073
95478W        W61909  10.964  38.782  13.917
95479W        W61910  27.385  18.148  14.796
95480W        W61911   7.303  25.575  14.370
95481W        W61912  19.311   3.178  11.095
95482W        W61913  10.209   1.234  14.631
95483W        W61914  13.317  44.783  11.612
95484W        W61915  41.726  12.989   1.408
95485W        W61916   7.762  28.992   4.741
95486W        W61917   1.463   4.084   3.390
95487W        W61918  10.775  43.602   2.275
95488W        W61919  43.167  34.903  13.882
95489W        W61920  31.550  12.110   2.352
95490W        W61921  28.837  17.684  13.361
95491W        W61922  33.099  24.779   1.187
95492W        W61923  18.191  40.346  12.380
95493W        W61924  37.346  13.180  12.606
95494W        W61925  30.017  30.403  12.005
95495W        W61926  29.362  16.554  14.690
95496W        W61927  35.938   0.572  13.918
95497W        W61928   4.727  17.120  14.291
95498W        W61929  19.205  17.714  11.125
95499W        W61930  23.746   7.693   1.931
95500W        W61931  31.811  14.735  12.665
95501W        W61932   0.298  10.622  11.931
95502W        W61933  35.810  34.946  13.592
95503W        W61934  13.231  44.052  13.388
95504W        W61935  19.695  10.232   0.453
95505W        W61936  39.620  43.975   4.118
95506W        W61937  28.628  15.151  11.180
95507W        W61938  15.086  21.697   1.925
95508W        W61939  44.791   9.441   0.436
95509W        W61940  29.392   2.812  14.060
95510W        W61941  11.371  26.834  10.791
95511W        W61942  36.653   8.701   4.598
95512W        W61943   8.410  27.661   4.440
95513W        W61944  22.514  11.143  13.983
95514W        W61945   9.733   6.454   1.469
95515W        W61946   4.370  37.975   4.456
95516W        W61947   6.775   2.912  11.342
95517W        W61948  35.027  28.972   3.215
95518W        W61949  20.554   1.851   2.231
95519W        W61950   4.582  19.951   4.226
95520W        W61951  27.096  31.157   1.812
95521W        W61952  14.869  14.201   2.221
95522W        W61953  26.497  14.017  14.426
95523W        W61954  33.161  23.114   0.219
95524W        W61955  29.378   9.868   0.432
95525W        W61956   3.900  26.500   3.862
95526W        W61957   3.969  35.991   0.314
95527W        W61958   7.427  43.989   1.862
95528W        W61959  37.351  36.584   0.744
95529W        W61960   0.779   9.205  11.435
95530W        W61961   2.705  11.377   3.637
95531W        W61962  14.271  28.046  10.555
95532W        W61963  21.009  44.248  13.888
95533W        W61964   2.886   9.767  13.793
95534W        W61965   5.932  27.124   0.999
95535W        W61966  42.368  39.314   4.247
95536W        W61967  37.551  38.072  12.506
95537W        W61968  39.447   1.870   1.707
95538W        W61969  27.701  24.840  13.960
95539W        W61970  33.966  27.999   3.189
95540W        W61971   1.151  19.218   4.237
95541W        W61972  39.609   5.960  13.442
95542W        W61973  10.194  33.770  14.221
95543W        W61974   9.867  28.433   3.044
95544W        W61975  36.063  33.147   3.264
95545W        W61976  42.425  15.125   2.670
95546W        W61977  22.485  42.256   0.921
95547W        W61978  25.765   9.702  12.987
95548W        W61979   7.525  26.068   3.774
95549W        W61980  24.786  44.774  12.831
95550W        W61981  20.298  12.337  13.812
95551W        W61982  16.298  43.551  13.492
95552W        W61983  13.959   2.792  11.523
95553W        W61984  31.870   5.315  12.904
95554W        W61985  18.572  27.242   2.746
95555W        W61986  43.333   9.163   4.314
95556W        W61987  30.489  42.714   4.169
95557W        W61988  27.978   4.488  10.231
95558W        W61989  37.012  11.833   3.662
95559W        W61990  39.981  34.459   4.352
95560W        W61991  34.762  44.650   3.105
95561W        W61992   9.394  39.579   2.358
95562W        W61993  37.014  41.915  14.526
95563W        W61994   1.703  40.132  11.232
95564W        W61995   9.303   6.205   3.695
95565W        W61996  14.985  30.688   5.091
95566W        W61997  30.906  29.533  13.577
95567W        W61998   1.184  33.575  11.614
95568W        W61999  16.239  24.931   2.846
95569W        W62000  31.047  24.454  11.687
95570W        W62001  30.388  40.966  11.644
95571W        W62002  25.095  14.889   1.943
95572W        W62003   9.876  21.855   1.878
95573W        W62004  17.022  33.197  11.292
95574W        W62005  15.176  16.860  14.384
95575W        W62006  26.077  22.002  10.542
95576W        W62007  35.005  17.415  11.911
95577W        W62008  29.154   3.386  13.951
95578W        W62009  26.113   2.399  12.826
95579W        W62010  40.924  33.568   4.100
95580W        W62011   2.726  41.796   2.490
95581W        W62012  10.786  22.251  12.009
95582W        W62013   4.764  32.899   2.585
95583W        W62014  33.326  19.111  12.463
95584W        W62015  31.596  17.088   2.314
95585W        W62016  26.427   7.411   0.301
95586W        W62017  11.508  30.681   2.428
95587W        W62018  16.694  24.280   0.508
95588W        W62019   2.956   8.896  13.840
95589W        W62020  23.276  43.957   4.320
95590W        W62021  29.680  10.839  12.124
95591W        W62022  37.295   1.378  13.602
95592W        W62023  23.116  15.305  14.497
95593W        W62024  30.422  23.527  11.244
95594W        W62025   3.849  36.751   2.122
95595W        W62026  40.846  26.567  14.854
95596W        W62027  14.168   2.027   0.346
95597W        W62028  19.674  44.939  10.645
95598W        W62029  12.388   0.401  10.624
95599W        W62030  37.519  28.454   2.853
95600W        W62031  23.479  13.043  14.792
95601W        W62032  44.269  36.954  14.938
95602W        W62033  39.527  20.669  14.410
95603W        W62034  31.855  36.985   4.847
95604W        W62035  21.716   9.108   4.936
95605W        W62036  10.725  12.046   4.305
95606W        W62037  33.952  38.137  12.975
95607W        W62038  25.890  30.943  14.642
95608W        W62039  17.824  38.007  14.509
95609W        W62040  41.872  11.161   3.730
95610W        W62041  36.887   2.422  13.523
95611W        W62042  38.918   7.375   2.087
95612W        W62043   8.137  15.717  13.115
95613W        W62044  15.363  25.850   4.868
95614W        W62045  25.607   5.855   0.243
95615W        W62046  32.985  31.696  14.979
95616W        W62047  18.149  42.175  14.966
95617W        W62048  18.117  31.500   2.381
95618W        W62049  38.629   1.287  14.024
95619W        W62050  16.246  24.636   3.255
95620W        W62051  31.392  29.939  13.426
95621W        W62052  30.507  36.409   1.326
95622W        W62053  21.621   4.907  11.849
95623W        W62054   0.320  39.004   3.958
95624W        W62055  15.566   7.965  11.153
95625W        W62056  25.091  21.573  11.142
95626W        W62057   4.943  23.735  13.455
95627W        W62058  37.112  14.101   4.521
95628W        W62059   2.985   6.639  12.527
95629W        W62060  13.567  27.970   1.396
95630W        W62061   0.684  18.270  13.886
95631W        W62062  18.816   6.887  14.566
95632W        W62063  25.132  14.203  12.945
95633W        W62064  41.309  35.613  11.642
95634W        W62065   7.274  41.378  14.330
95635W        W62066   7.347  36.526  14.934
95636W        W62067   3.885  25.564   0.513
95637W        W62068  28.157  23.645  10.666
95638W        W62069  32.465  25.670  12.580
95639W        W62070  29.518  19.615   0.965
95640W        W62071  15.876   4.876   2.895
95641W        W62072  28.675   9.333  11.433
95642W        W62073  38.010  13.169   3.579
95643W        W62074  24.596   9.218  11.582
95644W        W62075  21.131  10.519   0.347
95645W        W62076   8.409  28.085   4.151
95646W        W62077  18.116  40.027   3.269
95647W        W62078  26.543  12.200   3.330
95648W        W62079  12.723   9.982  10.495
95649W        W62080   6.186   7.354   5.095
95650W        W62081  30.942  27.241  12.023
95651W        W62082  35.012   2.762  13.025
95652W        W62083  37.014  38.484  13.987
95653W        W62084  30.138   9.505   0.220
95654W        W62085  41.284  41.310  14.018
95655W        W62086  16.531  36.191   1.610
95656W        W62087  17.909   3.629   5.672
95657W        W62088  14.764   7.751  13.578
95658W        W62089   2.947   6.309  11.188
95659W        W62090  25.245  30.472  13.969
95660W        W62091  31.737   5.437   0.838
95661W        W62092  37.720  28.442  12.531
95662W        W62093  26.541  36.651  14.953
95663W        W62094  20.262  15.348  14.625
95664W        W62095  20.312  36.092   2.183
95665W        W62096  39.061  10.876  13.932
95666W        W62097  39.580   5.338  12.101
95667W        W62098  24.682  17.478  11.145
95668W        W62099  11.654  16.527  11.078
95669W        W62100  38.598  29.013   1.318
95670W        W62101  20.976  26.634  12.347
95671W        W62102   6.383  10.758   3.879
95672W        W62103  40.999  22.381  11.704
95673W        W62104  44.693   9.792  12.170
95674W        W62105  38.405   0.063  14.270
95675W        W62106  38.091   7.816  10.671
95676W        W62107  33.420  42.220   2.759
95677W        W62108  27.149  17.114  10.252
95678W        W62109  40.062  36.374   1.453
95679W        W62110  23.891  28.011   3.797
95680W        W62111  11.347   6.311   2.911
95681W        W62112  22.824   3.176  12.352
95682W        W62113   7.188  12.545  11.017
95683W        W62114  30.918   9.584  13.862
95684W        W62115  29.104  25.167  13.064
95685W        W62116  13.564  18.381  14.423
95686W        W62117  42.915   1.992   2.362
95687W        W62118   6.230   3.213  12.028
95688W        W62119  14.228   9.128  12.915
95689W        W62120  12.694  35.563   0.211
95690W        W62121  39.669  14.641  11.975
95691W        W62122  29.011  22.484   2.964
95692W        W62123  31.263  11.839   5.035
95693W        W62124  20.427  17.489  13.093
95694W        W62125   2.194  32.580  14.006
95695W        W62126  13.782  13.329   1.697
95696W        W62127  32.233   0.899  12.070
95697W        W62128  11.031  10.173   0.719
95698W        W62129  25.083  30.013  13.766
95699W        W62130   2.799  43.890  11.528
95700W        W62131  32.071  20.759   3.330
95701W        W62132  35.345   5.695   3.730
95702W        W62133   5.406   8.605  10.746
95703W        W62134   4.394  10.403  10.828
95704W        W62135   6.746  26.528  10.584
95705W        W62136  41.463  37.181  11.688
95706W        W62137  35.268  10.225  13.422
95707W        W62138   6.413  29.616   1.452
95708W        W62139  41.381   1.822  12.237
95709W        W62140   7.751   8.047   0.086
95710W        W62141   7.042  13.558  11.128
95711W        W62142  28.894  36.115  12.462
95712W        W62143   5.937  26.014   4.354
95713W        W62144  39.172  28.055   3.194
95714W        W62145  31.537   6.663   4.213
95715W        W62146  24.967  25.046  11.201
95716W        W62147  19.377  25.005   1.177
95717W        W62148  19.132  21.234  10.678
95718W        W62149   6.308   2.349  12.468
95719W        W62150  11.787   3.433   0.738
95720W        W62151   2.200   3.426  12.535
95721W        W62152  38.632  15.893  11.483
95722W        W62153  35.949   0.730  11.533
95723W        W62154  20.935   2.122  11.195
95724W        W62155  11.811  33.660   0.706
95725W        W62156   1.911   5.992  10.468
95726W        W62157  18.462  37.470   4.248
95727W        W62158  39.020  16.038   1.116
95728W        W62159  39.477  26.861  14.999
95729W        W62160  24.935   4.615  11.628
95730W        W62161  34.081  12.657   1.848
95731W        W62162  43.924  40.015  12.379
95732W        W62163  32.644  30.055   2.399
95733W        W62164  10.678  40.291   1.966
95734W        W62165   7.326   2.992  12.634
95735W        W62166  13.704  29.955  12.629
95736W        W62167  43.370   0.765   4.713
95737W        W62168   9.459  13.626  12.476
95738W        W62169   5.665  32.535  14.337
95739W        W62170  26.229  28.386  13.085
95740W        W62171  30.510  13.325  12.041
95741W        W62172   5.581  36.160   1.338
95742W        W62173  21.180  34.622  12.482
95743W        W62174  19.152  22.436   1.446
95744W        W62175   6.235  13.758   3.662
95745W        W62176   0.560  22.756  12.448
95746W        W62177  30.845  28.362   1.698
95747W        W62178  20.232  36.719  12.668
95748W        W62179  40.959  22.560  12.565
95749W        W62180   5.821  33.321  12.443
95750W        W62181  21.013  23.963   3.245
95751W        W62182  22.193  36.811   2.778
95752W        W62183  29.240  26.830   2.883
95753W        W62184   0.842  34.037   4.266
95754W        W62185  21.147  13.161   0.458
95755W        W62186  41.412  40.342   0.652
95756W        W62187   0.515  37.874   2.765
95757W        W62188  33.158  34.121  12.206
95758W        W62189   1.401  36.940   3.385
95759W        W62190  17.828   4.884   3.608
95760W        W62191  34.510  44.907   3.676
95761W        W62192   7.624  17.505  12.110
95762W        W62193  15.120  42.901   0.819
95763W        W62194   9.848  11.559  13.937
95764W        W62195   1.906  43.854  11.188
95765W        W62196  30.682  31.654   4.470
95766W        W62197  39.915  41.245   0.192
95767W        W62198  13.192  13.390  14.832
95768W        W62199  33.835  12.400   2.248
95769W        W62200  35.157  28.556  14.283
95770W        W62201  11.908  35.121   4.079
95771W        W62202   9.971   2.869   1.313
95772W        W62203  18.172  33.147   2.754
95773W        W62204  44.383  36.486  13.330
95774W        W62205  22.026  20.077  12.610
95775W        W62206   0.082  20.998   1.818
95776W        W62207  44.914  12.781   2.918
95777W        W62208   0.997  27.402   2.211
95778W        W62209  32.620  18.187   0.404
95779W        W62210  44.759  30.921  12.607
95780W        W62211  23.292  29.919  12.069
95781W        W62212  14.458  24.451   2.822
95782W        W62213  32.996  38.403  14.323
95783W        W62214  44.307  44.379   2.279
95784W        W62215  38.991  34.272   4.490
95785W        W62216  28.254  17.585  11.362
95786W        W62217   4.966  13.634   1.455
95787W        W62218  38.650   0.810   3.309
95788W        W62219   3.580  12.703  13.857
95789W        W62220  24.255   8.651   4.824
95790W        W62221  38.411  24.042  12.627
95791W        W62222  23.951  30.564  14.061
95792W        W62223  34.683  40.764   3.042
95793W        W62224   8.251  31.140   2.836
95794W        W62225  23.657  30.253  10.911
95795W        W62226  15.473  33.208  12.918
95796W        W62227  37.329  40.211  14.364
95797W        W62228  14.328  25.108  13.122
95798W        W62229   8.636  30.186  10.375
95799W        W62230  44.467  38.286  11.154
95800W        W62231  25.032  32.663  12.873
95801W        W62232  36.870  41.379  11.442
95802W        W62233  14.565  32.675  14.350
95803W        W62234  34.004  43.137   0.357
95804W        W62235  40.261   4.328  14.845
95805W        W62236  19.519  33.923   1.387
95806W        W62237  42.056  14.208  14.842
95807W        W62238  23.240  15.660   2.761
95808W        W62239  38.881  19.543  13.850
95809W        W62240  18.739  24.330  14.924
95810W        W62241   3.273   8.478  13.039
95811W        W62242  43.751  19.731   3.203
95812W        W62243   3.190  24.398  14.583
95813W        W62244  19.682  30.245  12.763
95814W        W62245  44.003  19.762   2.736
95815W        W62246   2.363  11.086  11.552
95816W        W62247  24.463  19.953   0.878
95817W        W62248  10.797  44.767  14.065
95818W        W62249   7.313  33.170   4.146
95819W        W62250  36.183  27.707   2.865
95820W        W62251  28.333  44.422   2.267
95821W        W62252  27.944   6.903   1.196
95822W        W62253  20.976  41.390   0.595
95823W        W62254  42.352  30.339   3.295
95824W        W62255  35.195   8.762  13.123
95825W        W62256  16.855  11.273   2.798
95826W        W62257  41.878  24.207  11.406
95827W        W62258  32.689  23.655  12.860
95828W        W62259  24.739  34.885  11.616
95829W        W62260   9.121  40.029  10.360
95830W        W62261   3.753  14.641  11.147
95831W        W62262  24.735  44.325  13.527
95832W        W62263   3.398  20.666   3.874
95833W        W62264  24.416  12.696   3.328
95834W        W62265  25.552  41.992  13.973
95835W        W62266   5.409  33.148  12.195
95836W        W62267  27.983  22.203  10.805
95837W        W62268   5.409  14.394  13.789
95838W        W62269  23.787  17.740   2.225
95839W        W62270  43.625  35.585   3.418
95840W        W62271  32.363   4.803   1.833
95841W        W62272  44.970  25.395  10.542
95842W        W62273  12.145  20.526   4.273
95843W        W62274  39.567  42.774   2.237
95844W        W62275  32.160  22.668  11.745
95845W        W62276  12.576   7.644  14.343
95846W        W62277  20.179  38.841   0.422
95847W        W62278   0.926  23.107  13.566
95848W        W62279  27.279  30.153  12.848
95849W        W62280  26.763  29.324   4.739
95850W        W62281   9.702  38.856   2.577
95851W        W62282  16.205  16.128   1.151
95852W        W62283   4.652  43.639  14.340
95853W        W62284   6.371  25.171   1.883
95854W        W62285  13.219   1.035  11.064
95855W        W62286  27.954  44.535  12.117
95856W        W62287  35.864  22.091  12.558
95857W        W62288  42.015   8.406   4.249
95858W        W62289  16.064   0.823  14.372
95859W        W62290   6.813  15.063  13.460
95860W        W62291  42.823   8.722  10.478
95861W        W62292   8.185  14.074   3.622
95862W        W62293  37.727  19.342   0.448
95863W        W62294  15.767  26.201   2.305
95864W        W62295  29.910   9.100  11.850
95865W        W62296  31.227  20.889  11.551
95866W        W62297   3.425  33.437   0.908
95867W        W62298  41.815  38.087   0.774
95868W        W62299  39.687   2.652  13.866
95869W        W62300  25.973  42.777   0.413
95870W        W62301  21.562  31.951  10.686
95871W        W62302  12.844   8.867  13.013
95872W        W62303   4.321  32.649  12.978
95873W        W62304   8.443  25.066   4.271
95874W        W62305   4.716   5.007   1.184
95875W        W62306  42.827  14.425   2.257
95876W        W62307   9.578   4.631   0.856
95877W        W62308  33.928  36.789  12.481
95878W        W62309  12.391  11.897   1.773
95879W        W62310  23.005  15.756   0.972
95880W        W62311  27.580  18.028  13.045
95881W        W62312  23.936  10.149   2.684
95882W        W62313  12.157   7.338   1.307
95883W        W62314   6.227  28.678   2.729
95884W        W62315  41.368   1.966  13.875
95885W        W62316  39.950  24.213  13.747
95886W        W62317  18.453   1.046   0.913
95887W        W62318  43.498  30.429   1.671
95888W        W62319  43.924  41.450   3.431
95889W        W62320   6.898  41.874  14.021
95890W        W62321  40.804  16.272   2.705
95891W        W62322  14.286  19.738  14.680
95892W        W62323   5.990   0.516   1.292
95893W        W62324   4.499   4.382  13.281
95894W        W62325  13.774  29.554   0.654
95895W        W62326  27.472  37.565   3.795
95896W        W62327  36.953  17.050  12.518
95897W        W62328  34.305  11.261   0.984
95898W        W62329  33.688  44.860  14.989
95899W        W62330  39.247  27.479   1.798
95900W        W62331  12.069  39.256  14.720
95901W        W62332  19.791   0.800   4.544
95902W        W62333   1.716  32.507  14.207
95903W        W62334  28.458  36.563  14.863
95904W        W62335  28.391  26.718  11.128
95905W        W62336  15.069  27.585  14.022
95906W        W62337  42.618  38.822  10.974
95907W        W62338  18.228  25.960   1.653
95908W        W62339  30.023  35.470   3.886
95909W        W62340  41.984  21.216  11.523
95910W        W62341  23.209  14.512  10.594
95911W        W62342  35.536  34.536  11.484
95912W        W62343  35.274  25.599  13.091
95913W        W62344  30.161  33.467  11.157
95914W        W62345   7.275   0.933   1.673
95915W        W62346  25.061   0.049  13.827
95916W        W62347  25.424  22.892  13.044
95917W        W62348  40.041  12.349   1.337
95918W        W62349  37.068   0.107   1.764
95919W        W62350  22.547  34.858  14.910
95920W        W62351  25.091  34.832   4.061
95921W        W62352  39.447  31.048   3.567
95922W        W62353  14.300  11.178   3.370
95923W        W62354   0.711  33.450   0.901
95924W        W62355  33.283   8.432   1.718
95925W        W62356  35.889  35.095  11.226
95926W        W62357  20.777  36.851  10.065
95927W        W62358  20.414  28.977   1.471
95928W        W62359  39.910  41.740   2.313
95929W        W62360   9.214  20.565   4.147
95930W        W62361  10.224  43.414   2.615
95931W        W62362  37.058  33.957   0.274
95932W        W62363  14.126  16.109   1.683
95933W        W62364  43.792  40.030   2.089
95934W        W62365  43.286  38.306   4.582
95935W        W62366  16.767   3.401   5.422
95936W        W62367   1.446   5.958   2.417
95937W        W62368  42.893  43.231   0.217
95938W        W62369  41.307   9.121  13.850
95939W        W62370  16.601   5.485  11.624
95940W        W62371  30.644  26.498  12.956
95941W        W62372  36.398  23.242  14.269
95942W        W62373  36.782  29.051  13.941
95943W        W62374  26.661  10.258   5.031
95944W        W62375  41.756  38.588   2.243
95945W        W62376  11.597  34.555   2.273
95946W        W62377  20.091  40.333   3.746
95947W        W62378  20.023  24.034  14.914
95948W        W62379  20.181  17.715   2.744
95949W        W62380   2.024  37.110  13.953
95950W        W62381   1.915  39.805   1.907
95951W        W62382  27.483  19.704  14.817
95952W        W62383  14.702  38.188  11.884
95953W        W62384   9.904  12.081  11.759
95954W        W62385  27.880   1.341  11.084
95955W        W62386  39.377  32.106  14.525
95956W        W62387  17.522   3.159   1.768
95957W        W62388  14.508  24.612   0.316
95958W        W62389  32.538  32.219   4.279
95959W        W62390   5.502  36.782   1.208
95960W        W62391  23.596  39.521  11.093
95961W        W62392  28.475   7.268   1.019
95962W        W62393  27.599  30.003  14.364
95963W        W62394   6.943  26.972   0.792
95964W        W62395  38.397  18.844   4.022
95965W        W62396  31.710  25.594  10.452
95966W        W62397  24.886  42.073   1.346
95967W        W62398  37.892  27.225  12.571
95968W        W62399  36.096  10.606   0.825
95969W        W62400  26.371  42.926   3.142
95970W        W62401   3.128  26.160   3.521
95971W        W62402  11.758  26.724   0.511
95972W        W62403   2.315  17.515   3.725
95973W        W62404   2.957  19.717  14.014
95974W        W62405  13.924  43.820   0.026
95975W        W62406   6.325  35.192  11.535
95976W        W62407   7.209   5.805   2.846
95977W        W62408  14.190   3.442  14.909
95978W        W62409  17.704  17.066  11.405
95979W        W62410   0.456   4.310   1.215
95980W        W62411  21.573   4.771   4.178
95981W        W62412  12.224   5.348  14.857
95982W        W62413  23.613  14.172   0.470
95983W        W62414  32.813   4.044  14.272
95984W        W62415  39.088  31.608  13.854
95985W        W62416  27.936  31.913   5.124
95986W        W62417  43.023  24.547   2.237
95987W        W62418  20.530  26.190   1.886
95988W        W62419   9.448  26.226   0.640
95989W        W62420   7.924   5.311  12.538
95990W        W62421   1.749  13.799   2.180
95991W        W62422   1.454  17.666   1.217
95992W        W62423  28.126   2.989  13.032
95993W        W62424  19.257  11.827   3.261
95994W        W62425   2.764  18.505  14.475
95995W        W62426  19.200  38.937   3.665
95996W        W62427   6.283  16.132  12.969
95997W        W62428  27.060   0.007   4.531
95998W        W62429  23.579  21.234   1.413
95999W        W62430  20.157  38.885  11.557
96000W        W62431  39.936   8.310   0.506
96001W        W62432  20.773  43.928  14.259
96002W        W62433   3.843  29.985   2.588
96003W        W62434  11.127  16.319   0.959
96004W        W62435  26.951  25.029   0.153
96005W        W62436  17.680  35.157  10.747
96006W        W62437  43.535  36.569   1.312
96007W        W62438  17.823  14.667   1.852
96008W        W62439  12.760  26.338  11.073
96009W        W62440  26.088   6.979  11.573
96010W        W62441  17.831   5.681  11.980
96011W        W62442   5.658  34.516  14.456
96012W        W62443  10.571  33.030  11.636
96013W        W62444  16.429  10.173   4.582
96014W        W62445   7.832  38.836   0.695
96015W        W62446  41.557  26.593  12.017
96016W        W62447  32.524   0.891  12.489
96017W        W62448   9.806   7.386   0.446
96018W        W62449  28.664  31.679  13.504
96019W        W62450   5.230  21.140  11.167
96020W        W62451  14.144  34.483  12.914
96021W        W62452  21.254  41.897   3.575
96022W        W62453  18.258  34.865  12.492
96023W        W62454   9.208  16.599   0.322
96024W        W62455   3.000  22.242   0.598
96025W        W62456  33.574  36.994  11.183
96026W        W62457   4.747  34.409  12.937
96027W        W62458  15.106  18.173   3.416
96028W        W62459  30.414  33.957  12.573
96029W        W62460  44.402  44.377  11.674
96030W        W62461  33.518  24.001   1.126
96031W        W62462  20.697  36.826  14.858
96032W        W62463   8.943  27.432  12.967
96033W        W62464  43.849  37.502  11.190
96034W        W62465  23.958  21.986   3.951
96035W        W62466  36.809  12.126  10.684
96036W        W62467   8.252  27.395  13.580
96037W        W62468  42.438   7.502  10.570
96038W        W62469  15.504   5.220   4.069
96039W        W62470  10.300  25.048   3.222
96040W        W62471   1.117  28.009  13.105
96041W        W62472  18.197  19.103  12.330
96042W        W62473  26.024  35.452   2.258
96043W        W62474  40.431  16.369  13.943
96044W        W62475   4.943  29.694   1.106
96045W        W62476   1.651  15.301   4.977
96046W        W62477  39.309  20.093   1.189
96047W        W62478   9.046   2.362  13.760
96048W        W62479  32.888  12.673   1.500
96049W        W62480  35.842  24.832  10.767
96050W        W62481  38.929  11.864  14.920
96051W        W62482  16.578   0.363   1.974
96052W        W62483  43.022  21.393  14.426
96053W        W62484  28.830  43.375  12.927
96054W        W62485  10.332   6.887   0.334
96055W        W62486  30.947  12.168  14.788
96056W        W62487  44.992  11.729  14.520
96057W        W62488  42.924  15.319   2.014
96058W        W62489   1.990  32.167   1.557
96059W        W62490  33.004  43.947  13.613
96060W        W62491  21.780  20.234   4.082
96061W        W62492  25.498  18.299   4.561
96062W        W62493  32.950  44.207  12.494
96063W        W62494  31.937  34.504  13.331
96064W        W62495  33.085  10.671  10.779
96065W        W62496  21.401   4.286   4.083
96066W        W62497  30.483   7.224  14.977
96067W        W62498   5.369  38.352  11.998
96068W        W62499  19.190   7.968  13.885
96069W        W62500  25.514  30.141  12.413
96070W        W62501   8.753  44.158  11.513
96071W        W62502  39.746   9.851   2.104
96072W        W62503  29.832  19.265  11.097
96073W        W62504  32.836  23.546  13.962
96074W        W62505  38.887   0.497  14.869
96075W        W62506  44.446   1.094   0.998
96076W        W62507   5.869   4.366   0.012
96077W        W62508  18.696  38.117  14.297
96078W        W62509   3.467  38.857  14.611
96079W        W62510  41.271  39.845   0.492
96080W        W62511  39.516  40.681   1.722
96081W        W62512  32.938  27.060   3.646
96082W        W62513   3.532   4.413  11.633
96083W        W62514  42.567  10.141   0.171
96084W        W62515  28.973   0.251   4.252
96085W        W62516  43.884  15.723   4.366
96086W        W62517  18.307  43.933   0.263
96087W        W62518  33.224  20.707  10.673
96088W        W62519   9.842  40.328  10.847
96089W        W62520  36.744   1.919  13.053
96090W        W62521   8.951  26.137  11.578
96091W        W62522  37.546  39.403  12.660
96092W        W62523  13.834  13.450  14.426
96093W        W62524  13.146  30.071   0.999
96094W        W62525  26.598  15.052  14.395
96095W        W62526   5.658  41.942   0.880
96096W        W62527  31.635  20.018   3.076
96097W        W62528   5.358  25.206  12.730
96098W        W62529   9.012   2.540  11.108
96099W        W62530  14.212  28.193   3.656
96100W        W62531  25.038  20.097  12.687
96101W        W62532   4.896  39.129  12.955
96102W        W62533  14.906   7.255   2.848
96103W        W62534  19.715  13.634  10.640
96104W        W62535  13.610   7.556   2.767
96105W        W62536  16.992  24.395  11.239
96106W        W62537  14.730  19.019   3.585
96107W        W62538  13.236  34.953   0.523
96108W        W62539  32.655   4.240  14.864
96109W        W62540  12.529  16.697  10.443
96110W        W62541   7.371  35.354   4.665
96111W        W62542   7.135  28.593   0.329
96112W        W62543  22.543  42.846   4.613
96113W        W62544   8.753  24.619   3.609
96114W        W62545   1.654   6.155  12.513
96115W        W62546  39.820  42.359   4.240
96116W        W62547  36.997  34.715  14.990
96117W        W62548  26.763  43.476  13.048
96118W        W62549   3.076   7.268   1.789
96119W        W62550  29.947  14.189   0.465
96120W        W62551  14.834  35.912   0.813
96121W        W62552  43.654  21.494  14.473
96122W        W62553   1.952  31.241  11.620
96123W        W62554  39.626  37.897  11.704
96124W        W62555  11.586  40.427   3.182
96125W        W62556  20.731  10.737  14.126
96126W        W62557   8.472  26.617   4.559
96127W        W62558  44.901  36.497   0.372
96128W        W62559  32.807  33.905   3.228
96129W        W62560  34.164  17.244  14.017
96130W        W62561  21.523  23.295  12.850
96131W        W62562  30.503   5.435   0.359
96132W        W62563  35.578  30.963   3.663
96133W        W62564  27.410  10.492  10.183
96134W        W62565   1.637  38.483  14.266
96135W        W62566  14.112  10.164  10.761
96136W        W62567  36.449  28.076   1.649
96137W        W62568  28.402  24.287   1.255
96138W        W62569   1.346   1.243  14.065
96139W        W62570   5.460  21.279   2.406
96140W        W62571  18.625   6.160   3.709
96141W        W62572   1.018  41.895   4.531
96142W        W62573  41.989  33.785  14.765
96143W        W62574  26.620  33.101  13.477
96144W        W62575  21.979   1.915  14.103
96145W        W62576  37.418   9.687   3.763
96146W        W62577   5.451  10.615   0.345
96147W        W62578   6.792  20.564   1.237
96148W        W62579  33.529   4.301  14.297
96149W        W62580  41.463  34.012   3.180
96150W        W62581  16.642  43.501   3.227
96151W        W62582  15.365  22.161   4.537
96152W        W62583   9.533  19.553  14.058
96153W        W62584  38.056   3.452   1.906
96154W        W62585  43.494  14.345   3.762
96155W        W62586  18.516  29.930  12.164
96156W        W62587  13.659  17.523  14.732
96157W        W62588  30.724  41.997  10.492
96158W        W62589  28.292  32.929  10.118
96159W        W62590  24.026  38.309   2.345
96160W        W62591  27.526  27.182   3.569
96161W        W62592  33.509  25.187   1.793
96162W        W62593   7.769  10.230   1.188
96163W        W62594  27.829  37.110   2.357
96164W        W62595  42.084  24.458   0.789
96165W        W62596  19.059  43.952  13.898
96166W        W62597   0.442  40.605   4.159
96167W        W62598   4.941  25.469  12.503
96168W        W62599  17.704  22.294   4.370
96169W        W62600  33.677  35.986  14.909
96170W        W62601  42.808  28.507   2.221
96171W        W62602  30.040  17.270   1.989
96172W        W62603   5.847   0.664  11.173
96173W        W62604  29.126  17.533   2.824
96174W        W62605   9.326  14.913  11.503
96175W        W62606  29.519  24.492  14.036
96176W        W62607  21.219  40.628   1.766
96177W        W62608   5.493  14.340  14.961
96178W        W62609  42.625  19.125   1.756
96179W        W62610  26.182  27.383   2.315
96180W        W62611   8.315  11.823   3.724
96181W        W62612  43.297   1.492   3.461
96182W        W62613  27.617  10.492  11.966
96183W        W62614   7.837  24.050   2.310
96184W        W62615   7.577  27.422  11.219
96185W        W62616  26.134  31.181  13.617
96186W        W62617  31.196  31.438  14.426
96187W        W62618  31.191  20.836  10.561
96188W        W62619  32.890  19.945  14.433
96189W        W62620  42.020  27.891   0.848
96190W        W62621   8.468   7.669   5.027
96191W        W62622  20.093  13.209  13.560
96192W        W62623   9.456  23.398  12.138
96193W        W62624   9.953  31.517  12.976
96194W        W62625  10.570  37.572   1.653
96195W        W62626  33.325  29.974  12.387
96196W        W62627  31.060  27.949  13.033
96197W        W62628  20.275   3.680  13.364
96198W        W62629   8.092   3.558   0.828
96199W        W62630  31.103  15.651  13.515
96200W        W62631  19.510  25.547  11.395
96201W        W62632  25.611  27.235  13.727
96202W        W62633   3.920  23.171   0.902
96203W        W62634   3.225  43.737  13.743
96204W        W62635  27.483  17.677   4.598
96205W        W62636  22.958  24.309   4.110
96206W        W62637  39.443  41.570  12.101
96207W        W62638  10.180   6.912   0.844
96208W        W62639  17.730   3.406   3.002
96209W        W62640  19.635  10.397   0.947
96210W        W62641  13.170  34.477   4.439
96211W        W62642   5.310   5.512  10.912
96212W        W62643  35.605  23.940   4.627
96213W        W62644  39.355  28.213  12.942
96214W        W62645  38.080  28.629  12.825
96215W        W62646  38.317  26.610   1.149
96216W        W62647   8.162   4.167   4.892
96217W        W62648  42.957  32.875   2.327
96218W        W62649  19.610  28.725  12.998
96219W        W62650  28.018   6.267   3.164
96220W        W62651  26.583  12.999  14.217
96221W        W62652   9.711  23.388  10.296
96222W        W62653  31.245  38.999  11.572
96223W        W62654  24.215  22.983  14.983
96224W        W62655  35.845  17.835  14.976
96225W        W62656  36.782  24.565   0.400
96226W        W62657  27.174  30.883  13.422
96227W        W62658  13.501  23.778  12.901
96228W        W62659  11.085  43.758   2.661
96229W        W62660  35.047  43.348  12.530
96230W        W62661  37.801  43.272   9.813
96231W        W62662   3.729  12.382   4.492
96232W        W62663  41.634  15.378  13.871
96233W        W62664  36.864  43.187   3.142
96234W        W62665  39.055   7.663  14.740
96235W        W62666  40.641  37.579   3.769
96236W        W62667   6.101  13.316  13.295
96237W        W62668  26.525  35.341  14.933
96238W        W62669  26.072   9.446   0.068
96239W        W62670   4.488   0.549  10.547
96240W        W62671  32.207  33.138  10.697
96241W        W62672  13.406  10.756   1.878
96242W        W62673  30.164  36.662   0.700
96243W        W62674  29.229  35.039   1.922
96244W        W62675  24.561  30.577   2.605
96245W        W62676  34.096  41.950  11.585
96246W        W62677  39.396  26.924  12.569
96247W        W62678  20.701  35.550   2.752
96248W        W62679  42.732  44.022  13.872
96249W        W62680   8.879  34.522  12.361
96250W        W62681   3.891   4.239  11.254
96251W        W62682   9.070   3.952   0.870
96252W        W62683  21.755  38.565  11.611
96253W        W62684  19.352   3.602  12.652
96254W        W62685  31.626   4.969  14.938
96255W        W62686  42.858  26.710  13.503
96256W        W62687  25.100  26.977   1.881
96257W        W62688  15.781  21.539   2.196
96258W        W62689  12.086  39.592  12.885
96259W        W62690  17.658  21.580  10.665
96260W        W62691  28.631   2.725  10.740
96261W        W62692  38.624  21.415   1.262
96262W        W62693   3.896  31.853  10.914
96263W        W62694   7.238  42.533  11.949
96264W        W62695  33.055   5.270  11.577
96265W        W62696  44.030  14.369   1.972
96266W        W62697  12.377   7.265  14.950
96267W        W62698  37.082  13.429   0.378
96268W        W62699   3.869  33.360   0.564
96269W        W62700  40.443   7.950   4.394
96270W        W62701   8.934   8.268   4.968
96271W        W62702  15.203  30.914   4.686
96272W        W62703  12.569   8.790  14.850
96273W        W62704  39.126  18.809   2.389
96274W        W62705  39.569  34.271   4.098
96275W        W62706   6.618   4.042   2.852
96276W        W62707   5.569  13.450  11.143
96277W        W62708  16.127  27.434   0.295
96278W        W62709  32.487   0.967  14.605
96279W        W62710  40.184  11.095   3.095
96280W        W62711  13.753  12.756  13.621
96281W        W62712  33.654  40.817  14.478
96282W        W62713   3.893   1.366  13.681
96283W        W62714  26.098  16.645   4.546
96284W        W62715  40.442  14.288   0.458
96285W        W62716  23.131  22.679   0.567
96286W        W62717  20.231   6.499  12.995
96287W        W62718  39.984  10.741   3.421
96288W        W62719  12.193  40.022   2.365
96289W        W62720  28.790   7.355  10.766
96290W        W62721  11.259   8.336   1.789
96291W        W62722   8.519  11.583  12.857
96292W        W62723  29.326   6.257   3.749
96293W        W62724  26.493  20.654   3.785
96294W        W62725   0.769  23.590   4.573
96295W        W62726  42.289  13.823   0.458
96296W        W62727   1.101  29.991  11.400
96297W        W62728  24.213   4.514   2.931
96298W        W62729  10.285  39.289   4.187
96299W        W62730  33.947  10.737  14.918
96300W        W62731   1.427  41.025  13.186
96301W        W62732   7.490  32.112  13.328
96302W        W62733   5.716  13.035   2.115
96303W        W62734  25.510  18.980  12.014
96304W        W62735  15.312  29.382  14.030
96305W        W62736  36.434  40.249  11.853
96306W        W62737   1.489   8.162   4.054
96307W        W62738  41.473  33.373  11.879
96308W        W62739  33.473  21.161   1.170
96309W        W62740  21.240  44.522  11.663
96310W        W62741  36.974  28.644  11.842
96311W        W62742  33.436  22.282   3.639
96312W        W62743  12.331  41.633  11.083
96313W        W62744  44.379  17.575  13.808
96314W        W62745  17.081   7.962  12.016
96315W        W62746   8.881   4.211  11.634
96316W        W62747  34.066  37.918   2.291
96317W        W62748   1.947  27.911   4.520
96318W        W62749  27.483  17.764   1.434
96319W        W62750  43.555  19.033   3.294
96320W        W62751  43.071  15.182  14.957
96321W        W62752  10.843  39.234  10.358
96322W        W62753  13.812  36.387   1.859
96323W        W62754  32.539  20.772  11.426
96324W        W62755  24.267  31.760  14.725
96325W        W62756   2.249  40.971   2.364
96326W        W62757   7.135  42.925  14.517
96327W        W62758  30.872   6.927  13.468
96328W        W62759  10.770  44.067   1.318
96329W        W62760  36.771  26.270   3.630
96330W        W62761  43.785  41.911   0.070
96331W        W62762  40.376  18.312  11.008
96332W        W62763   1.917  17.135   3.686
96333W        W62764  21.254   2.385   5.124
96334W        W62765  36.913  35.981   4.233
96335W        W62766  41.222  29.966   2.730
96336W        W62767  10.462  20.485   4.940
96337W        W62768   1.799  11.541   1.309
96338W        W62769  23.134  43.358  14.731
96339W        W62770   6.694   2.393  13.750
96340W        W62771  36.311  38.312   0.328
96341W        W62772  12.778  31.079   2.605
96342W        W62773  19.556  42.250   2.672
96343W        W62774  25.719   8.858   4.792
96344W        W62775  31.958  32.488   4.190
96345W        W62776  17.129  16.763   3.209
96346W        W62777   5.004   8.737  14.880
96347W        W62778   3.254   7.941  12.075
96348W        W62779   7.818  41.844  13.946
96349W        W62780  31.237   9.177  10.737
96350W        W62781   4.217  21.448   2.776
96351W        W62782  10.633  31.423  10.478
96352W        W62783   1.451  32.909  14.421
96353W        W62784  34.626   0.174   4.631
96354W        W62785   4.496   5.995  12.526
96355W        W62786   8.886   8.355   0.725
96356W        W62787  27.692  37.551   0.446
96357W        W62788  31.077  32.144   4.412
96358W        W62789   0.262   9.745  11.892
96359W        W62790  39.574  14.155   2.081
96360W        W62791   9.266  35.082  13.433
96361W        W62792  31.513  21.754   0.893
96362W        W62793  29.924  15.284   4.962
96363W        W62794  40.848   5.191  14.876
96364W        W62795   5.338  23.001  14.699
96365W        W62796  23.034  11.685   0.974
96366W        W62797  31.373   0.023   0.260
96367W        W62798  43.021  39.040   4.534
96368W        W62799  27.277  30.708   4.074
96369W        W62800  17.708  34.074   3.819
96370W        W62801   1.340  13.791  14.589
96371W        W62802  30.144  22.470   4.177
96372W        W62803  30.993  11.670   1.402
96373W        W62804   3.421  12.101  11.667
96374W        W62805  33.345  40.036   0.542
96375W        W62806   2.326  19.133  11.681
96376W        W62807  32.422  42.022   3.112
96377W        W62808  29.494  35.120   1.226
96378W        W62809  17.489  25.809  13.268
96379W        W62810  38.310  44.882  10.714
96380W        W62811  34.331  34.996  10.598
96381W        W62812   8.231  42.048  11.148
96382W        W62813  10.806  34.990   3.220
96383W        W62814  23.543  33.004   3.748
96384W        W62815  34.691   8.707   1.663
96385W        W62816  41.301  11.106   3.739
96386W        W62817   9.757  35.961  10.472
96387W        W62818  10.683  29.156  11.206
96388W        W62819  29.681  29.444   5.160
96389W        W62820  34.914  16.571   3.680
96390W        W62821  11.652   0.838  10.730
96391W        W62822  11.794   3.789   4.365
96392W        W62823  22.600  10.135   0.392
96393W        W62824  36.515  22.703   2.187
96394W        W62825  18.109  35.032   0.746
96395W        W62826  13.271   7.522   0.336
96396W        W62827  42.354  22.779   4.199
96397W        W62828  39.957  39.687  10.414
96398W        W62829  40.883  38.801  10.258
96399W        W62830   4.964  44.850  11.854
96400W        W62831  12.855  19.148   4.849
96401W        W62832  18.330  29.621  11.495
96402W        W62833   2.216   4.850   5.072
96403W        W62834  20.386  11.661  14.425
96404W        W62835  38.603  19.995  12.475
96405W        W62836  32.474  10.754  13.967
96406W        W62837  19.510  37.515   4.581
96407W        W62838  33.611  41.514  14.875
96408W        W62839   1.412  25.352   1.750
96409W        W62840  29.958  22.534   3.318
96410W        W62841   1.870  11.519  12.053
96411W        W62842  38.473  12.191  13.928
96412W        W62843  34.316   4.310  11.059
96413W        W62844  10.677  38.617  13.473
96414W        W62845  17.027  29.254   3.418
96415W        W62846  17.078  27.855  14.832
96416W        W62847  33.882  19.106  10.687
96417W        W62848  11.317  31.834  12.599
96418W        W62849  34.356  24.030   2.676
96419W        W62850  42.465  38.065   1.828
96420W        W62851  29.928   8.829  13.156
96421W        W62852  39.940  27.087   1.896
96422W        W62853   4.742  15.950  14.973
96423W        W62854   9.345  32.455   1.370
96424W        W62855  44.502  37.999  12.376
96425W        W62856  28.214  36.359  14.459
96426W        W62857  14.789  19.265   1.252
96427W        W62858  13.684  17.990   4.834
96428W        W62859  17.278  34.947   0.397
96429W        W62860  18.163  31.609  11.243
96430W        W62861  41.039  14.717   0.934
96431W        W62862   1.242   0.490  11.298
96432W        W62863   7.860   0.885  11.256
96433W        W62864   0.418  15.520  13.875
96434W        W62865  36.857  28.389   3.239
96435W        W62866  34.265  25.891   0.666
96436W        W62867  17.153   5.491  14.084
96437W        W62868  30.932  42.435   4.291
96438W        W62869  39.131   5.399  12.953
96439W        W62870  21.755  21.917   3.072
96440W        W62871  17.543  44.868  14.453
96441W        W62872   9.103  43.973  11.926
96442W        W62873   9.361   7.081   9.930
96443W        W62874  10.273  24.146   4.015
96444W        W62875  32.324   7.684   3.986
96445W        W62876  27.469  39.462  13.256
96446W        W62877   8.423  14.564  13.450
96447W        W62878  20.697   3.876  12.142
96448W        W62879  36.834  18.852   4.413
96449W        W62880  27.140  23.277   2.848
96450W        W62881  41.721  39.813  14.533
96451W        W62882  19.718  19.781   2.495
96452W        W62883  36.514  41.527  14.040
96453W        W62884  39.113   7.354   3.657
96454W        W62885  30.325   6.478  13.017
96455W        W62886  19.700  14.138  11.845
96456W        W62887  34.254  27.744  11.526
96457W        W62888   9.793   4.963   3.157
96458W        W62889  25.772   6.209  12.323
96459W        W62890  39.317  15.199   0.002
96460W        W62891  31.712   1.341  14.915
96461W        W62892   4.681  15.797   0.918
96462W        W62893  25.104   9.224   3.653
96463W        W62894  34.958  11.773  14.398
96464W        W62895  25.297  28.599   0.433
96465W        W62896  13.819   2.321  10.738
96466W        W62897  39.815   9.675  12.549
96467W        W62898   3.835  33.664  14.546
96468W        W62899  38.993   0.697   0.814
96469W        W62900  36.383  22.998  11.241
96470W        W62901  31.032  33.932   1.113
96471W        W62902  34.151  18.993   3.344
96472W        W62903  28.162  24.648  13.800
96473W        W62904  42.873  16.707  11.552
96474W        W62905  13.226   9.335   1.840
96475W        W62906  12.193  12.676   2.369
96476W        W62907  14.756  25.950   0.968
96477W        W62908  15.574  35.507  12.060
96478W        W62909  31.578   4.612   3.113
96479W        W62910   5.865  20.854   0.315
96480W        W62911   9.324  43.037   4.139
96481W        W62912  33.510  37.462   3.867
96482W        W62913  22.578  18.743   1.215
96483W        W62914  41.882  22.576  12.558
96484W        W62915   1.010  15.247  11.267
96485W        W62916   3.339  24.537   0.065
96486W        W62917  14.791  19.209  12.158
96487W        W62918   3.790   3.991   4.534
96488W        W62919   0.710  11.733  11.110
96489W        W62920  31.436  30.145  13.913
96490W        W62921  20.602   5.184  12.629
96491W        W62922  30.069  25.645  13.815
96492W        W62923  22.091  15.366   1.854
96493W        W62924  18.510  35.478  11.311
96494W        W62925  41.541  42.087  14.419
96495W        W62926  41.482   7.821  13.443
96496W        W62927   9.208  13.740   3.365
96497W        W62928   4.128  19.224   1.913
96498W        W62929   1.050  22.742  10.963
96499W        W62930  22.523  28.664  13.837
96500W        W62931  28.451  32.097   2.782
96501W        W62932   2.834  32.837   3.028
96502W        W62933  11.626   6.669  13.370
96503W        W62934   8.892  31.766   3.725
96504W        W62935   2.499  18.178   4.278
96505W        W62936  34.606  34.634   2.261
96506W        W62937  11.418   4.136   3.621
96507W        W62938  34.586  43.253  14.441
96508W        W62939  36.398  23.679   0.554
96509W        W62940  17.181  40.437   5.001
96510W        W62941   4.144   6.395  12.452
96511W        W62942  39.815  12.442  14.516
96512W        W62943   5.573  28.924  11.917
96513W        W62944  20.057   8.504  10.907
96514W        W62945  31.798   7.618   0.343
96515W        W62946  23.936  39.847  13.329
96516W        W62947  23.473  22.248   1.382
96517W        W62948  37.541  27.964  11.845
96518W        W62949   7.692   6.178  10.802
96519W        W62950  37.089   0.420   0.475
96520W        W62951   0.723   9.058  12.219
96521W        W62952  12.539  43.950  10.676
96522W        W62953  19.064  34.996  10.777
96523W        W62954  22.622  18.924  14.542
96524W        W62955  34.980   3.354  12.081
96525W        W62956  10.612  20.157  10.766
96526W        W62957  33.777  20.977   0.382
96527W        W62958   6.883  18.916  13.783
96528W        W62959  38.593   2.820  12.395
96529W        W62960  35.835  18.796   1.396
96530W        W62961  26.739  31.391  10.419
96531W        W62962  40.057  25.104   0.220
96532W        W62963  10.631  14.586   0.893
96533W        W62964   3.525  10.284   1.307
96534W        W62965   1.193  24.236  13.835
96535W        W62966  10.376  22.842   2.667
96536W        W62967  12.726  17.562  12.437
96537W        W62968  30.418  27.581   1.309
96538W        W62969  20.241  43.307   0.756
96539W        W62970   1.749   6.778  14.217
96540W        W62971  10.324  14.617   3.684
96541W        W62972   1.535   8.716   1.204
96542W        W62973  29.500  17.130  11.699
96543W        W62974  21.508  10.308   0.042
96544W        W62975  39.385   8.144   1.650
96545W        W62976  33.809  30.885   4.511
96546W        W62977  35.912  21.113  10.729
96547W        W62978  31.646   4.388  13.780
96548W        W62979   4.343  12.950   2.898
96549W        W62980   9.647   5.881   2.774
96550W        W62981   3.552  43.429   0.777
96551W        W62982  42.333  23.777  12.578
96552W        W62983  15.370   4.164   1.261
96553W        W62984  32.784  18.183   0.922
96554W        W62985  37.083  27.530   2.673
96555W        W62986  22.256  39.271   2.940
96556W        W62987  11.607  26.053  11.517
96557W        W62988  20.736  41.595   0.198
96558W        W62989  29.499  25.044  14.036
96559W        W62990  18.020  17.865  14.945
96560W        W62991   0.251  16.141  12.013
96561W        W62992  34.558  41.061  11.275
96562W        W62993   1.465  43.873  10.851
96563W        W62994   2.356   4.143  14.309
96564W        W62995  33.157  11.138  11.119
96565W        W62996   6.134  32.677  14.204
96566W        W62997  32.859  15.176  13.029
96567W        W62998  17.920  35.637   4.193
96568W        W62999  25.515  17.418  14.430
96569W        W63000  36.165   9.304   0.278
96570W        W63001  33.114  36.235   1.651
96571W        W63002  38.297  24.670   0.386
96572W        W63003  39.964   0.119  13.758
96573W        W63004   8.889  15.266  13.792
96574W        W63005   3.418  38.888   5.090
96575W        W63006  33.436  27.569  12.614
96576W        W63007  11.422  22.058   0.979
96577W        W63008  38.664  12.201   3.129
96578W        W63009  13.901   9.709  12.392
96579W        W63010  12.111  19.809   2.248
96580W        W63011  23.763   2.740   4.719
96581W        W63012  37.561  19.554  12.133
96582W        W63013  32.999  20.451   1.745
96583W        W63014  25.978   6.699   4.687
96584W        W63015  44.429   7.347   4.865
96585W        W63016  21.641  13.749   4.131
96586W        W63017  39.348  19.626   4.925
96587W        W63018   0.627  34.895   0.893
96588W        W63019   5.639  19.232   3.205
96589W        W63020   5.034   9.560  14.105
96590W        W63021  20.904  10.208  11.687
96591W        W63022  40.547   9.225  12.599
96592W        W63023  21.359  39.454  12.842
96593W        W63024  43.168  36.231   0.023
96594W        W63025  25.145  37.564   1.330
96595W        W63026  26.994  14.130  14.464
96596W        W63027  25.432  40.529   1.388
96597W        W63028  37.923  39.433   9.872
96598W        W63029  24.294  17.900   2.250
96599W        W63030  10.082   2.708  11.114
96600W        W63031  44.850  16.939   1.693
96601W        W63032  28.360  25.358  13.816
96602W        W63033  32.246  10.302   0.790
96603W        W63034  42.110  14.035   4.086
96604W        W63035  18.003  19.984   1.660
96605W        W63036  20.599  12.336  14.372
96606W        W63037  15.847  41.058  13.057
96607W        W63038  19.524  33.622   4.642
96608W        W63039  39.484  31.614   1.594
96609W        W63040  20.001  29.896  11.917
96610W        W63041  21.710  15.584  12.498
96611W        W63042  28.173  24.229   0.386
96612W        W63043  37.655  33.595  12.696
96613W        W63044  24.097   1.105  12.001
96614W        W63045  31.131   8.694  12.096
96615W        W63046  21.810  43.375  11.024
96616W        W63047  20.480  31.810   3.592
96617W        W63048   8.716   2.995  12.049
96618W        W63049   3.866  44.036  12.627
96619W        W63050   7.803  20.079   0.775
96620W        W63051  37.097  13.451  13.855
96621W        W63052  10.912  13.662  13.552
96622W        W63053  23.703  30.180   2.677
96623W        W63054  26.745  37.998   0.544
96624W        W63055  15.135  36.577  10.861
96625W        W63056   6.477  40.849   4.828
96626W        W63057  12.714  15.522   4.541
96627W        W63058  34.558  15.776  13.948
96628W        W63059  23.203  40.451   2.808
96629W        W63060  17.068  24.871  11.457
96630W        W63061   6.167  13.217   1.913
96631W        W63062  26.920  27.098   2.731
96632W        W63063  14.644  13.457  10.640
96633W        W63064   9.929  24.467   4.230
96634W        W63065  11.530   7.825   1.641
96635W        W63066  30.524  13.027  14.542
96636W        W63067   7.112   4.924   0.259
96637W        W63068   5.796  34.181  11.261
96638W        W63069  19.290  42.145   3.121
96639W        W63070  36.312  19.288   4.040
96640W        W63071   9.965  27.594  12.882
96641W        W63072  34.019  24.195  14.166
96642W        W63073   3.803  32.021  11.390
96643W        W63074  20.780  12.568   1.927
96644W        W63075   4.438  30.509  12.140
96645W        W63076  21.744  21.480  10.718
96646W        W63077   7.396  34.995   0.539
96647W        W63078  24.196  39.743   0.491
96648W        W63079   5.221   4.593  14.405
96649W        W63080  24.414   8.309   0.936
96650W        W63081  11.962  20.599   3.782
96651W        W63082  20.573   6.970  14.438
96652W        W63083   6.058   9.436   2.097
96653W        W63084  25.823  33.866   1.385
96654W        W63085  37.492  40.079   1.943
96655W        W63086  32.700   0.419   3.631
96656W        W63087  14.702  22.622   2.671
96657W        W63088   0.158  14.749  14.903
96658W        W63089  10.051   7.352  10.848
96659W        W63090  43.513   7.799  13.415
96660W        W63091  12.440   3.874   2.142
96661W        W63092  40.551   3.174   3.913
96662W        W63093  21.793  12.351   4.259
96663W        W63094  21.405   0.330  12.487
96664W        W63095  31.789  44.944  11.113
96665W        W63096  35.160  40.866  12.110
96666W        W63097  38.050  35.443  12.912
96667W        W63098  29.606  28.764   0.968
96668W        W63099  24.911   1.460  14.021
96669W        W63100  14.233   2.033   4.128
96670W        W63101  20.095   4.940   3.103
96671W        W63102  38.799  10.277  11.280
96672W        W63103  42.341  25.157  10.696
96673W        W63104  30.422  14.664  14.356
96674W        W63105   6.664  35.415  14.110
96675W        W63106  42.749   6.152  14.715
96676W        W63107  31.265  27.135  13.345
96677W        W63108   5.876  27.735   0.332
96678W        W63109  35.836   4.050  13.659
96679W        W63110  24.969  41.930   2.965
96680W        W63111  39.662  22.431  10.309
96681W        W63112  13.632  11.870   3.840
96682W        W63113   9.188   7.153  10.562
96683W        W63114  17.718  29.751   1.260
96684W        W63115  22.578  17.822   2.275
96685W        W63116  11.204  44.757  12.819
96686W        W63117   6.042  30.180   3.433
96687W        W63118  37.556  14.651  12.343
96688W        W63119  19.472   8.329   2.773
96689W        W63120  44.500  28.025   2.639
96690W        W63121  16.493   0.322   2.486
96691W        W63122  39.478  29.759   4.055
96692W        W63123  19.537  11.365  14.041
96693W        W63124  42.230  41.656   3.279
96694W        W63125  27.140  33.668   4.408
96695W        W63126  22.622  43.076   3.512
96696W        W63127  12.137  37.213   2.897
96697W        W63128  25.756  22.037  10.144
96698W        W63129   9.068  17.830  12.963
96699W        W63130  19.844   5.289   0.737
96700W        W63131  26.466   7.023  10.729
96701W        W63132  20.435  35.758   1.791
96702W        W63133  20.070  43.510   2.875
96703W        W63134  30.570   3.868   1.308
96704W        W63135  13.923  21.551  11.123
96705W        W63136  17.579  28.639   0.397
96706W        W63137  29.152  10.645  14.800
96707W        W63138   8.684  12.815   1.989
96708W        W63139  14.881  30.284   0.335
96709W        W63140  31.438   1.136   1.831
96710W        W63141  32.439   6.655   4.809
96711W        W63142  16.889  33.085   0.376
96712W        W63143   0.351   1.051  14.829
96713W        W63144   1.147  31.034   0.960
96714W        W63145  19.940   3.816  13.769
96715W        W63146  34.486   5.797  11.041
96716W        W63147  20.879   5.594   4.336
96717W        W63148  16.141  37.044  13.508
96718W        W63149  11.892  44.512  13.892
96719W        W63150  18.770  28.043   3.562
96720W        W63151   4.966  11.797  10.941
96721W        W63152  34.122  31.375  12.925
96722W        W63153  29.261   5.302   2.251
96723W        W63154   2.031  41.104  14.029
96724W        W63155  13.825  34.338  10.724
96725W        W63156   9.820  43.034   4.185
96726W        W63157  25.381  10.920   3.184
96727W        W63158  43.896  14.117  13.862
96728W        W63159   7.958   8.169  13.303
96729W        W63160  42.764  33.925   9.951
96730W        W63161  27.173  31.130   3.799
96731W        W63162  31.165  42.121  13.092
96732W        W63163   5.880  41.638  13.873
96733W        W63164   2.159  13.064  12.651
96734W        W63165   1.016   3.262   3.582
96735W        W63166  27.175  10.002  10.249
96736W        W63167   9.219  29.601  10.796
96737W        W63168  13.255  22.999   4.826
96738W        W63169  15.285  18.546   1.888
96739W        W63170  42.259  12.424  12.863
96740W        W63171   2.716  15.266   1.373
96741W        W63172  42.005  18.620  12.137
96742W        W63173  35.523  36.392   1.240
96743W        W63174  28.935  14.799   4.167
96744W        W63175  13.343   5.815  14.729
96745W        W63176   4.126   4.254  12.286
96746W        W63177  26.008  40.800  11.733
96747W        W63178  35.076  23.531  12.107
96748W        W63179  19.946  25.980  12.376
96749W        W63180  16.745  22.280   4.152
96750W        W63181   5.542   6.889  12.486
96751W        W63182  23.768  16.418  10.611
96752W        W63183  43.774  39.082   2.357
96753W        W63184  44.189  16.784   0.170
96754W        W63185  15.605  40.311   4.463
96755W        W63186  28.975  12.885  10.833
96756W        W63187  31.253  32.961   5.051
96757W        W63188   4.728  34.033   4.705
96758W        W63189  19.553  41.932   4.502
96759W        W63190   7.588  16.093   3.188
96760W        W63191  27.180   1.344   4.391
96761W        W63192   8.358  27.471   2.970
96762W        W63193  33.483  21.473   4.550
96763W        W63194  25.408  28.910   4.120
96764W        W63195  34.931  42.678   1.245
96765W        W63196  16.236   1.098  13.952
96766W        W63197  41.386  28.909  11.598
96767W        W63198  43.979  28.541  13.911
96768W        W63199  28.191  37.484  13.927
96769W        W63200   3.830  18.593   0.475
96770W        W63201  40.502  31.307   4.104
96771W        W63202  10.592   0.877  14.596
96772W        W63203  19.180  35.899   4.243
96773W        W63204  41.235  30.849   3.669
96774W        W63205  14.177  21.592   3.186
96775W        W63206  13.122  34.518  12.383
96776W        W63207  37.909  21.427   3.582
96777W        W63208  31.122   5.754   3.934
96778W        W63209  29.488  33.119   2.225
96779W        W63210  18.718   3.259   4.231
96780W        W63211  29.514  17.273  13.592
96781W        W63212  33.808  13.373  11.735
96782W        W63213  20.667  16.340  12.083
96783W        W63214  11.682  39.076   4.582
96784W        W63215  29.787  11.252  12.812
96785W        W63216  25.458  41.973  12.182
96786W        W63217  18.276  18.324   0.026
96787W        W63218  35.800  26.433   3.846
96788W        W63219  34.041   9.889   1.237
96789W        W63220   7.881  17.111   2.716
96790W        W63221  12.590   0.031   0.427
96791W        W63222  43.018  10.563  12.555
96792W        W63223  29.206   9.734  14.772
96793W        W63224  20.561   2.834   3.764
96794W        W63225  38.597  13.183   1.597
96795W        W63226  16.765  23.715  11.587
96796W        W63227   8.212  29.438  13.912
96797W        W63228  43.921  20.828  10.643
96798W        W63229  31.828  12.177  14.219
96799W        W63230  35.256  22.668   5.177
96800W        W63231  11.199   0.434   3.429
96801W        W63232  20.119  41.955  10.922
96802W        W63233  22.414  36.336   2.804
96803W        W63234  10.764  13.643  14.959
96804W        W63235  34.428  32.872   0.275
96805W        W63236  40.048   9.379   1.937
96806W        W63237  28.454  30.713   1.924
96807W        W63238   4.664  12.027   0.816
96808W        W63239  27.061  24.284   2.639
96809W        W63240  15.760   5.926   3.213
96810W        W63241  37.269  36.883   1.218
96811W        W63242  11.008  34.438   0.021
96812W        W63243   1.366  33.335   2.630
96813W        W63244  27.208  44.024   0.833
96814W        W63245  10.782  30.460   1.922
96815W        W63246  34.066  19.406   1.100
96816W        W63247  37.016  36.152  13.915
96817W        W63248  11.341  39.961   2.717
96818W        W63249  42.668  11.796   2.290
96819W        W63250  34.271  26.033   3.314
96820W        W63251  44.986  37.037   2.419
96821W        W63252  29.802  10.130  14.499
96822W        W63253  11.148  11.684   3.062
96823W        W63254   3.069   5.901   0.065
96824W        W63255  17.227  15.803   4.440
96825W        W63256  28.318  34.554   2.790
96826W        W63257  39.266   8.622  10.678
96827W        W63258  16.568  15.631   2.940
96828W        W63259  25.805  27.627   3.935
96829W        W63260  39.293  13.725   3.309
96830W        W63261  23.828  23.057  11.975
96831W        W63262  40.995  20.920   0.506
96832W        W63263  33.968  14.398   4.322
96833W        W63264   8.377  41.065  13.078
96834W        W63265  18.599  20.922   0.383
96835W        W63266  18.013  20.663  11.964
96836W        W63267  29.719  11.296  13.326
96837W        W63268  21.303  38.485   3.605
96838W        W63269  22.174  27.523   1.774
96839W        W63270  14.879  31.770  11.140
96840W        W63271  39.478  25.303  14.342
96841W        W63272  10.188  20.202   1.200
96842W        W63273  18.603  13.617   3.340
96843W        W63274  35.748  22.255   4.180
96844W        W63275  23.166  40.925  11.505
96845W        W63276  10.734   1.402   2.413
96846W        W63277  31.713  30.919   2.334
96847W        W63278  19.126  25.484   2.363
96848W        W63279  21.527  40.008   3.590
96849W        W63280  43.891  44.443   4.314
96850W        W63281  40.447  22.667   3.033
96851W        W63282  44.272  16.792  11.998
96852W        W63283   3.925  18.453   2.791
96853W        W63284  28.110   4.353   2.869
96854W        W63285  22.903  26.183  12.578
96855W        W63286   4.636  22.060  13.997
96856W        W63287  12.660  34.926   3.263
96857W        W63288  21.295   6.373   2.740
96858W        W63289  44.531  22.026   4.690
96859W        W63290  22.670  17.137  12.291
96860W        W63291  41.934  38.992  13.601
96861W        W63292  22.221   1.489  10.653
96862W        W63293  31.784  37.129  14.879
96863W        W63294  20.434  26.684   0.356
96864W        W63295  14.188  14.755   1.270
96865W        W63296   9.376  24.062   4.496
96866W        W63297  11.622  15.218   1.356
96867W        W63298  19.572  37.332   3.253
96868W        W63299   1.729  15.789   3.977
96869W        W63300  40.903  28.142   4.554
96870W        W63301  35.024  40.555   2.704
96871W        W63302  39.448  29.748   3.134
96872W        W63303  35.194  14.098  10.381
96873W        W63304   2.246  33.702   2.212
96874W        W63305  44.888  21.324  14.668
96875W        W63306  16.177  32.944   0.760
96876W        W63307  40.462   0.368   2.192
96877W        W63308   3.474   7.740  14.771
96878W        W63309  12.138  28.057   0.269
96879W        W63310  41.497  26.582   2.235
96880W        W63311  41.859   6.321   3.147
96881W        W63312   3.871  31.514   3.550
96882W        W63313   6.766  31.801  12.127
96883W        W63314  10.888  21.022   3.308
96884W        W63315  18.982  27.140  11.508
96885W        W63316   2.325  43.907  10.424
96886W        W63317  37.824   8.770  11.241
96887W        W63318  18.429  42.444  10.694
96888W        W63319  24.891  30.315  14.479
96889W        W63320  23.919   5.225   3.704
96890W        W63321  23.023   7.743   1.249
96891W        W63322  36.560   7.102  14.242
96892W        W63323  15.287   0.809  12.659
96893W        W63324  26.211  16.056   2.979
96894W        W63325  29.732  18.180  10.687
96895W        W63326  20.048  11.676   3.669
96896W        W63327  13.600   8.696  14.798
96897W        W63328  30.947  21.008   1.290
96898W        W63329  19.502  38.865  13.619
96899W        W63330  39.012   9.921  10.720
96900W        W63331  40.066   8.848   1.725
96901W        W63332   0.050   2.784   2.349
96902W        W63333   2.857  40.978  12.333
96903W        W63334  41.055  28.093  10.714
96904W        W63335  24.073   3.807   2.268
96905W        W63336  25.196  44.540  14.680
96906W        W63337   9.179  39.799   3.942
96907W        W63338  15.046  19.119   0.685
96908W        W63339   4.411  31.609  13.898
96909W        W63340  13.253  43.561  13.232
96910W        W63341  21.355   4.517   0.301
96911W        W63342  16.222   7.402  13.123
96912W        W63343  31.107  13.839  11.558
96913W        W63344  36.995  40.943  11.165
96914W        W63345  11.545  32.249  12.871
96915W        W63346  34.903   1.525  10.184
96916W        W63347  31.130  27.703  14.557
96917W        W63348   9.155  27.753  10.954
96918W        W63349   2.758   8.891  11.880
96919W        W63350  31.401   0.719  11.643
96920W        W63351  10.759  40.675  11.855
96921W        W63352  17.152  14.731   2.674
96922W        W63353   1.037  23.131   4.526
96923W        W63354   5.260  21.418  10.720
96924W        W63355  42.602  24.044  10.434
96925W        W63356  23.023  10.357   3.746
96926W        W63357  27.376  41.869   2.421
96927W        W63358   8.814  26.876   0.039
96928W        W63359  40.144  42.842  14.913
96929W        W63360  18.418  34.963  13.790
96930W        W63361   8.817  33.479  12.302
96931W        W63362   3.174  19.570   3.228
96932W        W63363  29.751  35.547  13.378
96933W        W63364   9.684  34.386   0.320
96934W        W63365  15.213  30.950  11.264
96935W        W63366  25.974  11.085   0.940
96936W        W63367   5.884  39.276   4.134
96937W        W63368  30.156  21.678   1.857
96938W        W63369  25.298  31.412  14.869
96939W        W63370  35.415  14.735  14.828
96940W        W63371  28.389  40.501  12.064
96941W        W63372  26.067  10.281   2.749
96942W        W63373  27.121   3.404  12.478
96943W        W63374   3.761  35.357  13.058
96944W        W63375   7.246   8.642   3.527
96945W        W63376  25.723  36.541   0.888
96946W        W63377   3.538   7.405   4.181
96947W        W63378  35.164  14.818   3.452
96948W        W63379   4.469  32.470   0.461
96949W        W63380   9.143  26.127  12.169
96950W        W63381  11.601  13.197  13.978
96951W        W63382  38.954  38.898   3.121
96952W        W63383  38.451  10.332   4.282
96953W        W63384  19.624  25.636   2.373
96954W        W63385   0.768  19.173  13.590
96955W        W63386  27.252  39.331   2.723
96956W        W63387  17.330  43.477   1.416
96957W        W63388   5.241  10.023  14.213
96958W        W63389  28.967   3.092   0.323
96959W        W63390  25.489  34.317  14.346
96960W        W63391   9.310  38.033   2.858
96961W        W63392  13.455  27.400   1.719
96962W        W63393  37.296  37.795  11.086
96963W        W63394  11.293  30.833  12.587
96964W        W63395  42.073  38.911   2.851
96965W        W63396   6.704  22.752   0.882
96966W        W63397  25.926  39.827  14.904
96967W        W63398  38.661   5.433  11.202
96968W        W63399   4.669  36.411  11.590
96969W        W63400  41.519  28.956   1.237
96970W        W63401  13.691  11.432  10.884
96971W        W63402  38.849   1.133   1.053
96972W        W63403  36.745   7.476  12.783
96973W        W63404  34.123   0.893   4.645
96974W        W63405  35.767  18.225   3.269
96975W        W63406  37.983  33.574  11.972
96976W        W63407  16.514   9.827   1.231
96977W        W63408  26.240   0.651  11.191
96978W        W63409  20.670   1.716  13.884
96979W        W63410  36.254  44.246  11.321
96980W        W63411   9.608  31.536  14.889
96981W        W63412  24.260  43.576   4.235
96982W        W63413   5.415  23.682  14.206
96983W        W63414  29.416  30.724   3.710
96984W        W63415  42.342  43.769  14.735
96985W        W63416  23.645  12.106  13.355
96986W        W63417  34.549   7.550  14.875
96987W        W63418  41.637   9.456   4.803
96988W        W63419   1.950  12.655   3.033
96989W        W63420  41.579  29.618   1.789
96990W        W63421   5.219  37.902   4.056
96991W        W63422   8.321  44.085   4.963
96992W        W63423  36.980   6.539   4.952
96993W        W63424  31.120  28.064   3.128
96994W        W63425  42.987  21.191   0.215
96995W        W63426  16.996  12.602  11.675
96996W        W63427  43.902   0.901  11.978
96997W        W63428  34.649  21.298   2.326
96998W        W63429  20.279  21.703   1.183
96999W        W63430  43.439  24.019   4.988
97000W        W63431  41.307  31.141   1.150
97001W        W63432   2.328  28.180  11.535
97002W        W63433  16.476   6.608  12.967
97003W        W63434  20.342   1.272   1.925
97004W        W63435  23.498  29.118  12.376
97005W        W63436   8.116   7.672  13.373
97006W        W63437  35.864   2.611   1.417
97007W        W63438  42.481  38.189  13.375
97008W        W63439  19.631  34.958   4.058
97009W        W63440   4.314  11.257  10.403
97010W        W63441  29.607  29.901   1.401
97011W        W63442  23.579  11.524  14.856
97012W        W63443  11.751  43.514   0.778
97013W        W63444  12.245  40.916  11.633
97014W        W63445  17.182  42.341   0.823
97015W        W63446  28.463  34.874   3.729
97016W        W63447  18.781  12.081   4.143
97017W        W63448  32.635   6.855  14.339
97018W        W63449  20.709  15.326  14.278
97019W        W63450  33.720  24.407  12.935
97020W        W63451  10.065  40.799   2.287
97021W        W63452  39.431  13.470  11.126
97022W        W63453   9.290  17.912  10.261
97023W        W63454  24.755   0.470  11.681
97024W        W63455  34.538  37.942   3.981
97025W        W63456  38.960  22.700   1.418
97026W        W63457   7.406  15.241   3.619
97027W        W63458  32.818  44.831   2.546
97028W        W63459  15.171  17.390  12.890
97029W        W63460  37.421   0.019   4.580
97030W        W63461  20.188  39.420  13.955
97031W        W63462  17.598  17.305   2.233
97032W        W63463  41.705  42.852  11.673
97033W        W63464  12.679  42.685   4.174
97034W        W63465  28.124  10.704  10.973
97035W        W63466  22.729  40.047   5.112
97036W        W63467  10.607  10.819  11.515
97037W        W63468  21.058   9.833  11.397
97038W        W63469  13.825  19.120   0.249
97039W        W63470  34.176  35.607  14.421
97040W        W63471   0.549  39.085   1.737
97041W        W63472   3.719  20.986   4.442
97042W        W63473  18.588  36.955   4.338
97043W        W63474  30.661  11.758   0.768
97044W        W63475   9.441  40.072  14.207
97045W        W63476   6.589  20.216   3.042
97046W        W63477  35.213  36.972   9.491
97047W        W63478  29.168  12.156  14.647
97048W        W63479  28.021  24.917   4.583
97049W        W63480  18.346  25.967  13.000
97050W        W63481  30.992   9.787   2.892
97051W        W63482   2.262  39.395   4.505
97052W        W63483  42.647  37.008   0.362
97053W        W63484  27.050  21.283   2.259
97054W        W63485   1.453   7.833  11.237
97055W        W63486  44.060  40.711  12.062
97056W        W63487  19.143  28.079  13.382
97057W        W63488  39.839  18.518  14.300
97058W        W63489  24.283  42.955  13.067
97059W        W63490  26.414  32.616  13.350
97060W        W63491  26.213  33.337  14.614
97061W        W63492  13.003  23.970   1.653
97062W        W63493   0.208   2.334   4.068
97063W        W63494  12.000  31.945  13.008
97064W        W63495  27.268  40.945   4.512
97065W        W63496  41.203   9.192  13.347
97066W        W63497  29.871   0.370  12.043
97067W        W63498  23.540  33.108  13.835
97068W        W63499  31.893  22.810   5.015
97069W        W63500  10.483  22.613  10.259
97070W        W63501  17.701  18.553  10.696
97071W        W63502  21.625  19.111   2.443
97072W        W63503  43.834  10.661  10.562
97073W        W63504  44.900  30.748   3.865
97074W        W63505  14.504  41.847  11.424
97075W        W63506   7.526  18.922   0.563
97076W        W63507   5.015  23.857   1.946
97077W        W63508   6.877   4.002  13.929
97078W        W63509  16.150  32.620  11.301
97079W        W63510   7.717  24.781   3.672
97080W        W63511  12.487  31.950   2.663
97081W        W63512  22.408  25.760  14.880
97082W        W63513  19.635  29.742  12.856
97083W        W63514  34.544  24.485   1.827
97084W        W63515  25.160  43.303  14.046
97085W        W63516  13.548  38.758   2.199
97086W        W63517  11.701  25.040   0.921
97087W        W63518   1.740  30.522  13.289
97088W        W63519  44.603  22.316   2.921
97089W        W63520  41.298  14.336   3.232
97090W        W63521  41.357  42.900  12.051
97091W        W63522  22.953  16.557   4.822
97092W        W63523  41.329  27.939   1.348
97093W        W63524  43.678   8.824   5.070
97094W        W63525   7.718  25.569  12.019
97095W        W63526  32.465  11.164   1.788
97096W        W63527  10.226   5.294  11.925
97097W        W63528  33.417  26.729  12.528
97098W        W63529  24.658  21.060   3.866
97099W        W63530  20.478  18.279  10.323
97100W        W63531  43.851  43.355  13.519
97101W        W63532  10.913   2.375  14.009
97102W        W63533  38.897  21.099  11.134
97103W        W63534  43.598  23.024   3.506
97104W        W63535   8.596  38.962  14.943
97105W        W63536   5.474  35.685   4.592
97106W        W63537  34.438   0.793  14.025
97107W        W63538  20.045  14.263   4.571
97108W        W63539  27.282  31.710  10.280
97109W        W63540   7.366  40.539  14.829
97110W        W63541  15.233  13.229   1.323
97111W        W63542  44.269   0.795  13.976
97112W        W63543   2.918   8.289  10.114
97113W        W63544  24.475   1.132  14.885
97114W        W63545  20.645   0.854   3.887
97115W        W63546  13.167  43.916  12.872
97116W        W63547  40.273   8.244  14.648
97117W        W63548  37.371  12.832  11.650
97118W        W63549   7.899  38.977  12.524
97119W        W63550  29.563  36.903   2.814
97120W        W63551   0.499  28.924   3.234
97121W        W63552  40.642  35.837  10.981
97122W        W63553  32.923  12.220  14.776
97123W        W63554  22.071  21.475   1.740
97124W        W63555  32.396  35.003  10.730
97125W        W63556  30.678  38.441   2.453
97126W        W63557  23.992  21.459   0.719
97127W        W63558  20.225  43.779  11.563
97128W        W63559   2.449  32.836   2.047
97129W        W63560  12.540  37.662   5.025
97130W        W63561  13.701   6.531   4.223
97131W        W63562  39.082  31.466  12.143
97132W        W63563  35.449  13.027  12.370
97133W        W63564  34.568  40.585   2.410
97134W        W63565   5.706  27.413  11.467
97135W        W63566  31.728   9.105   3.723
97136W        W63567  31.645   7.639  14.268
97137W        W63568  25.011   8.307   3.330
97138W        W63569  33.480  10.644   0.194
97139W        W63570  22.114   5.946  11.538
97140W        W63571  16.677  10.182  13.966
97141W        W63572   0.893  33.526   0.433
97142W        W63573  16.136  19.487   3.376
97143W        W63574  32.975  16.087  13.090
97144W        W63575   8.122  28.745   1.408
97145W        W63576  24.869   4.217   3.716
97146W        W63577   3.214  12.116  13.537
97147W        W63578   6.793   2.153  12.504
97148W        W63579   1.224  38.348  11.039
97149W        W63580   0.318   1.284   2.544
97150W        W63581  31.457  34.308   1.883
97151W        W63582   0.697   9.476  11.868
97152W        W63583   3.477  39.823   3.671
97153W        W63584  31.556   2.316  11.940
97154W        W63585  41.702  41.855  11.509
97155W        W63586  18.450  35.675   2.796
97156W        W63587  44.303  19.725   4.210
97157W        W63588  18.764  33.348   5.028
97158W        W63589  19.672  41.967  10.669
97159W        W63590  17.803  30.984   2.700
97160W        W63591  44.709  31.811   0.744
97161W        W63592  19.123  13.747  13.298
97162W        W63593  21.564  37.970   1.201
97163W        W63594   6.506  14.653   1.432
97164W        W63595  13.513  14.715   3.262
97165W        W63596  19.712  38.396   5.342
97166W        W63597  17.243  38.191  11.128
97167W        W63598  23.909  19.196  12.107
97168W        W63599  12.616  14.555   1.746
97169W        W63600  35.312  34.983  10.607
97170W        W63601  29.667  11.278  11.883
97171W        W63602   2.285   9.604  10.970
97172W        W63603  19.480  29.106  11.493
97173W        W63604   9.121  12.150   0.994
97174W        W63605  13.492  16.387   3.741
97175W        W63606  17.569  13.174  13.196
97176W        W63607  10.559   1.239   0.012
97177W        W63608   5.767  10.666   1.955
97178W        W63609  19.685  27.004  11.720
97179W        W63610  41.643  41.586  14.417
97180W        W63611  15.394  29.568  11.563
97181W        W63612  29.729  15.727   4.678
97182W        W63613  41.482  31.916   3.594
97183W        W63614  32.006   6.873   4.047
97184W        W63615  26.937  28.067  11.647
97185W        W63616  34.371  28.562   4.455
97186W        W63617   6.146  11.006  11.965
97187W        W63618  36.993   1.056   4.595
97188W        W63619  28.207  20.070  13.920
97189W        W63620  44.395  26.516   2.706
97190W        W63621  29.234  12.094   0.991
97191W        W63622   0.863  37.326   2.131
97192W        W63623   9.097  21.279  10.814
97193W        W63624  33.836  27.026   1.314
97194W        W63625  23.794  21.240   3.455
97195W        W63626   2.354  20.839   3.169
97196W        W63627  35.059  21.982  12.923
97197W        W63628  11.456  18.346   3.719
97198W        W63629  44.526  19.494  14.923
97199W        W63630  19.653  30.986  11.559
97200W        W63631  24.299   2.997   0.385
97201W        W63632  31.908  36.004   1.234
97202W        W63633  32.642  36.040  11.304
97203W        W63634  20.791  30.687   0.936
97204W        W63635  13.652  19.754   4.160
97205W        W63636   7.196  32.869   0.814
97206W        W63637  35.912  17.171   2.278
97207W        W63638   0.194  43.816  12.428
97208W        W63639  31.937  38.028  14.565
97209W        W63640  24.781   3.184   0.327
97210W        W63641   3.306  41.803   4.592
97211W        W63642  42.537  42.243   3.097
97212W        W63643  24.888  23.748  13.427
97213W        W63644  26.446  22.474  11.733
97214W        W63645  13.655  30.413  14.428
97215W        W63646  21.496  29.139   3.794
97216W        W63647  34.352  27.223  14.763
97217W        W63648  15.914   5.748   2.751
97218W        W63649   6.491  25.553  10.739
97219W        W63650  15.575  22.518  12.443
97220W        W63651  43.826   9.486   1.957
97221W        W63652  17.736  26.081  11.261
97222W        W63653  19.746  37.704   4.160
97223W        W63654  17.546  25.547   4.182
97224W        W63655  15.633  33.932  11.743
97225W        W63656  16.953   1.338  13.016
97226W        W63657  14.156  37.952  11.218
97227W        W63658  31.416   2.209  13.030
97228W        W63659  27.470   2.969  12.394
97229W        W63660  27.503  38.243  11.356
97230W        W63661  26.190  25.104   2.074
97231W        W63662  31.025  37.483  13.068
97232W        W63663  22.608  14.310   3.596
97233W        W63664  39.606  17.788  10.927
97234W        W63665  29.885  36.595  14.945
97235W        W63666  41.833  25.090   9.705
97236W        W63667  29.872  24.328   1.378
97237W        W63668  23.462   3.999  13.327
97238W        W63669  31.171  27.116  12.460
97239W        W63670  19.448  28.816  10.616
97240W        W63671  14.451  29.027   4.544
97241W        W63672  10.897  28.875  13.397
97242W        W63673   5.780  20.800   1.264
97243W        W63674   0.484  27.977  14.395
97244W        W63675  38.418  16.254  12.015
97245W        W63676  35.172  21.136   2.249
97246W        W63677  21.247   3.911  11.449
97247W        W63678  16.345  27.578  12.879
97248W        W63679  28.035  38.985  11.669
97249W        W63680  36.140   8.204   4.093
97250W        W63681  39.713  44.910  12.669
97251W        W63682  19.509  15.244  12.986
97252W        W63683  15.208  36.574  13.912
97253W        W63684  40.089  10.663  11.135
97254W        W63685  25.994   0.208  12.519
97255W        W63686  20.225  20.927  13.811
97256W        W63687  31.122  15.822  13.021
97257W        W63688   2.361   9.786   0.388
97258W        W63689   9.329  15.674   3.835
97259W        W63690  18.179  35.545   4.631
97260W        W63691  24.772  34.180  11.240
97261W        W63692  39.073  36.962   0.902
97262W        W63693  28.492  28.567   2.821
97263W        W63694  38.580  10.807   1.921
97264W        W63695  38.616  29.954  13.404
97265W        W63696   5.984  40.343  12.340
97266W        W63697  25.474  16.308   3.264
97267W        W63698  19.730  36.049  11.231
97268W        W63699  36.390  11.381   1.268
97269W        W63700  34.446  29.446  12.459
97270W        W63701  18.330  10.688   4.091
97271W        W63702  33.608  35.485   1.862
97272W        W63703  11.691  31.101  12.470
97273W        W63704  35.940   7.862   0.063
97274W        W63705  20.698  26.283   3.328
97275W        W63706  11.739  29.263  12.948
97276W        W63707  18.694  19.224   0.924
97277W        W63708   1.274  40.977  13.977
97278W        W63709  27.144  24.043  14.415
97279W        W63710  33.995  12.355   4.821
97280W        W63711   8.318   2.781  12.678
97281W        W63712  35.363  37.884  10.772
97282W        W63713  16.727  40.798  11.568
97283W        W63714  28.554  44.002   4.559
97284W        W63715  13.655  30.940  14.474
97285W        W63716  25.728  41.301  13.485
97286W        W63717  39.339  19.643  14.502
97287W        W63718   6.397  27.250  10.577
97288W        W63719  26.096   9.657   2.377
97289W        W63720  40.075  28.689   2.722
97290W        W63721   4.513  41.270   4.183
97291W        W63722   9.608  37.589   3.641
97292W        W63723  15.635  20.191   3.453
97293W        W63724  12.903  37.398   1.222
97294W        W63725  44.017  35.699   4.315
97295W        W63726  35.034  25.618   0.761
97296W        W63727  14.233  44.178   0.945
97297W        W63728   5.270  27.051  12.056
97298W        W63729   4.993  38.363   4.176
97299W        W63730  11.367   8.400  14.446
97300W        W63731  44.021  18.671   1.266
97301W        W63732  23.994  29.031   5.119
97302W        W63733  18.134  10.896   3.643
97303W        W63734  13.655   5.453  13.869
97304W        W63735  20.483   9.810   3.797
97305W        W63736   5.398   8.621   2.460
97306W        W63737  16.581  28.901   4.046
97307W        W63738   0.577  26.514   3.094
97308W        W63739  16.722  35.417  13.216
97309W        W63740   9.278   5.227  13.540
97310W        W63741  11.720  12.872   4.554
97311W        W63742  11.604   5.708  12.932
97312W        W63743  44.593  40.830  12.080
97313W        W63744  23.877  39.905   0.104
97314W        W63745  30.659  27.600  12.973
97315W        W63746   3.934   4.435   1.911
97316W        W63747  24.898  27.101  12.392
97317W        W63748  15.229  18.996  11.539
97318W        W63749   3.181  38.646   4.111
97319W        W63750  20.170  21.535  14.874
97320W        W63751   5.892   9.386   2.923
97321W        W63752  25.606  32.421   1.125
97322W        W63753  29.663  23.463   1.892
97323W        W63754   0.419  13.690  10.752
97324W        W63755  35.884  13.743  14.090
97325W        W63756  43.559  40.015   1.200
97326W        W63757   7.304  30.814   3.651
97327W        W63758   1.484  28.017  14.559
97328W        W63759  44.951  12.957  11.177
97329W        W63760  14.694   7.142  13.895
97330W        W63761  23.559  35.416  14.325
97331W        W63762  25.964  21.637   3.083
97332W        W63763  15.176  21.454  14.804
97333W        W63764  27.952  36.816   3.746
97334W        W63765  37.446  34.179  11.641
97335W        W63766  14.822   9.118  11.456
97336W        W63767  42.373  30.021  10.560
97337W        W63768  35.807  15.599   2.882
97338W        W63769  24.436  40.889   4.014
97339W        W63770  19.287   2.722   3.643
97340W        W63771  26.017  26.991   4.970
97341W        W63772  40.432  34.564   1.853
97342W        W63773  18.068  18.898   4.056
97343W        W63774  39.757  44.943   3.839
97344W        W63775  26.655  17.339  11.068
97345W        W63776   5.865   5.679   2.372
97346W        W63777  22.959  22.545   1.037
97347W        W63778  16.806   2.388  14.886
97348W        W63779   2.246   8.080  14.705
97349W        W63780   2.037  14.110   1.870
97350W        W63781  24.069  10.333  14.750
97351W        W63782  35.473  30.660   1.238
97352W        W63783  17.969  37.463  14.951
97353W        W63784  32.287  34.047   3.341
97354W        W63785  28.089  34.538   3.683
97355W        W63786   4.887  39.552   2.348
97356W        W63787  28.432  32.711  13.419
97357W        W63788  36.446  36.358   0.732
97358W        W63789  12.270  19.710  13.274
97359W        W63790  36.546  39.036   0.521
97360W        W63791   5.500  13.587  14.352
97361W        W63792  22.483  14.365  11.117
97362W        W63793  11.543  12.231   1.914
97363W        W63794  19.447  20.256  14.026
97364W        W63795  39.402  18.746  13.530
97365W        W63796  22.539  35.051   2.782
97366W        W63797  42.111   7.902   0.926
97367W        W63798   7.789  11.878  11.215
97368W        W63799  24.077  21.261  13.806
97369W        W63800  43.684  40.839  13.346
97370W        W63801  24.219  32.870  12.465
97371W        W63802  12.591  14.340  12.067
97372W        W63803  16.816  37.874  12.514
97373W        W63804  37.980  32.357  12.173
97374W        W63805  36.313   5.886   4.640
97375W        W63806   8.793  29.695  10.520
97376W        W63807   1.525  15.794  13.491
97377W        W63808   3.772  26.471   4.360
97378W        W63809  32.538  35.540   2.809
97379W        W63810  38.219  34.541   4.223
97380W        W63811  16.787   2.256  14.315
97381W        W63812  16.120  20.598   2.381
97382W        W63813   3.300   6.747   2.852
97383W        W63814  29.942  24.229  11.155
97384W        W63815  23.182  12.670   4.111
97385W        W63816  21.402  16.128  11.144
97386W        W63817  38.346  37.886  12.984
97387W        W63818   3.145  14.057  12.471
97388W        W63819  37.531   3.765  11.572
97389W        W63820  39.293   4.234   3.784
97390W        W63821  36.932  26.979   4.746
97391W        W63822  18.102  10.912   0.472
97392W        W63823  16.614  28.476   3.169
97393W        W63824  17.150  38.372  14.535
97394W        W63825  19.627  44.202   1.378
97395W        W63826  20.639  12.122  12.888
97396W        W63827   9.956  27.057  12.942
97397W        W63828  12.303  44.885   1.795
97398W        W63829  43.694  36.444  14.990
97399W        W63830  41.028   2.843  12.951
97400W        W63831  43.992  25.515   1.678
97401W        W63832  30.804  11.646  12.350
97402W        W63833   9.146  19.848  14.244
97403W        W63834  36.492  16.555   3.590
97404W        W63835  35.038   3.769   3.733
97405W        W63836  37.005  38.942   1.376
97406W        W63837  10.424   3.602   4.062
97407W        W63838  23.937  28.454   9.862
97408W        W63839   7.436  28.959  13.159
97409W        W63840   7.598  39.917   4.141
97410W        W63841  12.298   1.293   1.237
97411W        W63842  32.459  32.805  12.965
97412W        W63843   0.338  23.309  14.796
97413W        W63844  21.140  18.422  12.474
97414W        W63845  19.992  22.549  14.832
97415W        W63846   4.856  38.699  13.798
97416W        W63847  42.869   4.628   4.947
97417W        W63848   1.970  25.145  14.008
97418W        W63849  15.762  11.912   3.090
97419W        W63850  40.364   2.257  10.468
97420W        W63851  38.525  24.306   0.779
97421W        W63852  16.535  20.441  12.809
97422W        W63853   6.323  15.109   4.509
97423W        W63854  10.101  18.776  13.954
97424W        W63855  29.520  15.914   3.108
97425W        W63856  30.390  14.006   0.262
97426W        W63857   7.740   9.820   3.147
97427W        W63858   4.311   3.807   0.310
97428W        W63859  10.772  16.003   3.728
97429W        W63860  40.349  22.105   4.199
97430W        W63861  28.424  29.510   1.775
97431W        W63862  31.519  35.851   3.174
97432W        W63863  31.706  24.682  13.315
97433W        W63864  34.997  20.191   0.434
97434W        W63865  24.045  21.552  14.540
97435W        W63866  10.929  31.673   1.644
97436W        W63867  21.041   6.988  14.815
97437W        W63868  16.031  22.875  12.439
97438W        W63869  26.412  34.082  12.384
97439W        W63870  41.774  33.692  12.901
97440W        W63871  42.814   8.444  12.351
97441W        W63872  27.595  19.176   2.651
97442W        W63873  26.859  22.513  10.792
97443W        W63874  41.291  24.008   0.750
97444W        W63875  38.249  34.543   1.477
97445W        W63876  24.876  43.609   0.596
97446W        W63877  40.369  23.972   4.561
97447W        W63878  15.295  26.686   1.779
97448W        W63879  20.422  29.534  11.090
97449W        W63880  43.064  24.036  12.130
97450W        W63881  18.724  44.733  12.149
97451W        W63882  36.527  21.292   2.232
97452W        W63883  28.680  30.409   4.307
97453W        W63884  15.339  31.694   0.724
97454W        W63885  30.468  40.354  13.517
97455W        W63886  18.156  38.768  13.056
97456W        W63887   6.383  17.620   2.642
97457W        W63888  28.025  33.811   2.464
97458W        W63889  21.453  21.588  11.623
97459W        W63890  33.637   4.401   1.768
97460W        W63891  24.102  40.334  12.068
97461W        W63892   0.902  30.413   4.676
97462W        W63893   1.118  18.698  13.048
97463W        W63894  11.340  16.272  12.473
97464W        W63895  24.244  44.744  11.911
97465W        W63896  11.040  24.380   0.196
97466W        W63897   5.001  13.383   2.805
97467W        W63898  18.544  21.291   2.693
97468W        W63899  12.072  40.707  13.527
97469W        W63900  11.383   5.345   3.455
97470W        W63901  10.120  39.863   3.439
97471W        W63902  12.116  20.155  13.500
97472W        W63903  23.090  13.611  13.871
97473W        W63904   4.389  23.792  12.614
97474W        W63905  13.087  10.191   4.847
97475W        W63906  23.665   4.021  12.862
97476W        W63907   8.823  43.076   3.560
97477W        W63908   1.408  11.448  14.745
97478W        W63909   4.317  18.504  13.427
97479W        W63910  42.071  29.982  13.544
97480W        W63911  20.223  31.397  12.837
97481W        W63912  16.001  20.355  14.894
97482W        W63913   2.500  39.922  12.643
97483W        W63914   7.962  29.947  14.938
97484W        W63915  19.598   3.284  14.389
97485W        W63916  40.060  13.777   2.876
97486W        W63917   2.148   1.336  11.544
97487W        W63918  20.655  42.734   3.708
97488W        W63919  21.551   2.673   1.356
97489W        W63920  12.133  33.298  14.572
97490W        W63921   9.371   3.915   4.564
97491W        W63922  38.861  17.274  10.580
97492W        W63923  24.073  15.476  14.017
97493W        W63924  39.872   5.038  14.465
97494W        W63925  32.720  44.003   0.861
97495W        W63926  19.759  36.880  12.440
97496W        W63927   1.540  23.251   4.445
97497W        W63928  29.146   3.287   4.798
97498W        W63929  24.565  19.075   0.120
97499W        W63930  43.839  10.678   3.268
97500W        W63931   9.690  12.767   2.716
97501W        W63932  13.074  23.483  10.178
97502W        W63933  14.624  10.744  11.400
97503W        W63934  35.154  35.912  12.929
97504W        W63935   1.839  43.285  11.962
97505W        W63936  38.336  43.918  11.104
97506W        W63937  37.385  25.003  13.500
97507W        W63938  12.324  39.894  13.520
97508W        W63939  26.172  42.961  13.470
97509W        W63940  35.941  17.062  10.729
97510W        W63941  36.316  22.256   0.758
97511W        W63942  34.869  44.865   1.059
97512W        W63943   0.353   4.611   4.889
97513W        W63944  15.963  37.836   3.607
97514W        W63945  14.920   9.223  13.399
97515W        W63946  17.263  19.324  12.436
97516W        W63947   2.606  26.033   1.977
97517W        W63948  24.987  20.189  13.187
97518W        W63949  21.796  30.537  12.480
97519W        W63950  25.629  20.489   4.562
97520W        W63951  18.213  33.244  14.953
97521W        W63952  31.408   4.239  11.920
97522W        W63953   8.740  27.084   2.898
97523W        W63954  43.497  41.975   2.760
97524W        W63955  16.051  32.524  10.795
97525W        W63956  26.050  25.161   3.260
97526W        W63957  30.494  22.676   2.392
97527W        W63958   6.358   9.299   4.522
97528W        W63959  26.199   6.725   2.968
97529W        W63960  44.394  24.104  12.109
97530W        W63961   5.338  20.163  14.409
97531W        W63962  32.588  23.575  11.906
97532W        W63963  23.947  41.354   4.697
97533W        W63964   9.684  16.876  12.051
97534W        W63965   3.450  32.622   0.395
97535W        W63966   3.873   4.739  11.279
97536W        W63967  13.313  42.876   3.340
97537W        W63968  22.621  13.809  13.871
97538W        W63969  30.418  27.038  11.769
97539W        W63970  24.075  28.043  14.828
97540W        W63971  34.140  27.182   1.746
97541W        W63972  41.278  43.277  13.443
97542W        W63973  27.151  31.954  12.571
97543W        W63974   3.837  37.587   0.867
97544W        W63975  32.622  44.929  11.440
97545W        W63976  32.589  10.029  14.503
97546W        W63977   2.084   1.509   2.374
97547W        W63978   4.407  37.987  13.497
97548W        W63979  27.527  31.371  12.061
97549W        W63980  30.595  22.220  13.396
97550W        W63981  13.952   1.984   4.569
97551W        W63982   8.743  19.810  12.213
97552W        W63983   1.470   2.213   0.969
97553W        W63984   3.680  37.416   3.063
97554W        W63985  19.971  40.046   1.652
97555W        W63986   6.384  29.595   4.044
97556W        W63987  10.637  25.093  14.796
97557W        W63988   5.210  16.846  11.913
97558W        W63989  36.057  11.621  10.731
97559W        W63990  36.918  39.484  11.191
97560W        W63991  21.093   2.411  14.824
97561W        W63992  11.410  34.029   2.850
97562W        W63993  11.833  26.927  13.805
97563W        W63994  39.620  42.423   1.174
97564W        W63995   0.053  15.298   3.214
97565W        W63996  27.048  21.960  11.524
97566W        W63997  44.990   1.858   3.338
97567W        W63998  33.314   3.332   0.681
97568W        W63999   8.210  17.604   0.464
97569W        W64000   5.937  35.028   0.495
97570W        W64001  34.003  22.779   4.876
97571W        W64002  23.758   0.216  13.436
97572W        W64003  18.115  19.048   1.825
97573W        W64004  28.506  25.963  12.526
97574W        W64005  16.086  11.851   4.826
97575W        W64006  27.376   8.524  13.442
97576W        W64007   7.615  10.102  12.893
97577W        W64008  22.252  13.268  12.061
97578W        W64009  23.765  25.630  13.948
97579W        W64010  44.985   5.695   3.345
97580W        W64011  29.792  16.791  12.923
97581W        W64012  37.343  37.008  13.417
97582W        W64013  30.145  22.500  11.639
97583W        W64014  33.131   7.995   1.467
97584W        W64015  20.121  28.672  11.861
97585W        W64016  12.683   8.857   0.332
97586W        W64017   1.775   4.414   3.023
97587W        W64018  35.890  16.186  13.393
97588W        W64019  20.556  21.304  14.641
97589W        W64020  39.525  26.303   1.256
97590W        W64021  28.554   3.728   4.287
97591W        W64022  16.180   4.361  14.054
97592W        W64023  28.611  28.006  13.113
97593W        W64024  39.411   3.329   1.357
97594W        W64025  33.361   4.268   1.341
97595W        W64026  15.709  37.116   2.034
97596W        W64027  37.996  41.933   3.057
97597W        W64028  24.220   0.395  14.807
97598W        W64029  15.439  40.965   2.357
97599W        W64030  27.121  29.972  14.563
97600W        W64031  20.005  34.095  14.430
97601W        W64032   7.927  23.603  11.105
97602W        W64033  35.547  36.048   3.352
97603W        W64034   7.764  27.951   1.744
97604W        W64035   2.761   1.754   4.290
97605W        W64036  20.549  22.470  12.265
97606W        W64037  35.826  25.197  13.392
97607W        W64038   7.084  15.656  14.912
97608W        W64039  37.057  21.170   1.631
97609W        W64040  11.920  44.923   2.232
97610W        W64041  26.806  12.583   0.393
97611W        W64042  16.186  28.941  13.858
97612W        W64043  33.377  25.635   0.030
97613W        W64044   4.290  17.210   3.062
97614W        W64045   7.399  29.534  12.664
97615W        W64046  19.149  44.427  13.679
97616W        W64047   8.542  39.564   2.755
97617W        W64048  36.896  42.822  11.950
97618W        W64049  13.086  12.216  11.636
97619W        W64050  23.157   8.479   0.420
97620W        W64051  20.792   7.794   1.098
97621W        W64052  19.220  30.881   0.384
97622W        W64053  13.874  41.820   2.732
97623W        W64054  22.589   2.960  10.694
97624W        W64055  10.567  28.994  12.539
97625W        W64056   6.097   1.914  14.294
97626W        W64057   8.533   2.675   2.347
97627W        W64058  28.723  16.202   1.878
97628W        W64059   1.450  19.645   4.147
97629W        W64060  19.379  31.663  14.520
97630W        W64061  36.920  27.979  12.451
97631W        W64062   9.779  10.830   4.808
97632W        W64063  39.295  21.953   4.053
97633W        W64064  19.133  39.003   9.671
97634W        W64065  38.172  44.097   3.752
97635W        W64066  34.895  23.680   0.882
97636W        W64067   1.907  28.141   0.445
97637W        W64068  38.708  14.419  13.030
97638W        W64069  28.429   9.748  11.676
97639W        W64070  31.889   8.288  12.976
97640W        W64071  23.026  33.464   3.255
97641W        W64072  35.054  25.706   3.225
97642W        W64073  15.644   5.498   3.660
97643W        W64074   0.938   4.237  11.489
97644W        W64075  42.273  16.264  13.086
97645W        W64076  33.427  12.048   2.261
97646W        W64077  25.233  41.631   0.282
97647W        W64078  32.351  13.209   1.883
97648W        W64079  16.630  31.632   0.240
97649W        W64080  23.286  41.350   1.497
97650W        W64081  33.588  30.869   1.703
97651W        W64082  23.168  34.848   1.375
97652W        W64083   8.009  34.034  12.525
97653W        W64084  10.188  12.449   0.450
97654W        W64085  19.663  41.454  11.070
97655W        W64086  24.178  31.687   1.887
97656W        W64087   8.407  16.052  13.850
97657W        W64088  14.477  29.192  14.060
97658W        W64089  39.456  33.972   4.515
97659W        W64090  17.998   2.422  13.781
97660W        W64091  30.651  15.833  13.334
97661W        W64092  37.627  43.439   2.641
97662W        W64093  44.367  23.147   0.578
97663W        W64094  12.133  39.991   1.479
97664W        W64095  37.956  17.570  13.520
97665W        W64096  36.085  23.608   2.910
97666W        W64097   1.028  44.332   3.585
97667W        W64098  11.037  32.490  12.855
97668W        W64099   4.392  37.144   3.205
97669W        W64100  29.232  18.759  11.674
97670W        W64101  35.487   8.057  14.154
97671W        W64102   8.660   0.992   1.642
97672W        W64103  36.658  27.236   9.869
97673W        W64104  17.837  26.518  13.903
97674W        W64105  26.256  35.438  10.468
97675W        W64106  40.752   5.928   4.485
97676W        W64107  21.215  10.181  12.124
97677W        W64108   9.305  39.027   2.884
97678W        W64109  11.170  36.276   4.603
97679W        W64110  42.883   1.516   4.764
97680W        W64111  28.226  19.017  14.798
97681W        W64112  28.013  38.399   0.045
97682W        W64113  34.118  44.469  13.845
97683W        W64114   0.289  38.384  14.924
97684W        W64115  39.892   1.930   1.368
97685W        W64116  19.742   1.816   1.623
97686W        W64117  22.182  26.752   2.310
97687W        W64118   6.767  38.372  11.598
97688W        W64119  14.856  20.299   1.202
97689W        W64120  12.590   3.978   3.864
97690W        W64121   4.384   2.266  12.449
97691W        W64122  36.108  31.700   1.245
97692W        W64123  11.166  40.471  11.589
97693W        W64124   0.243  10.848   2.597
97694W        W64125  27.387  35.121   0.768
97695W        W64126  42.518  12.603  11.505
97696W        W64127  20.676  17.969  13.005
97697W        W64128  26.521  43.539  12.608
97698W        W64129   4.411  20.679  11.991
97699W        W64130  32.929  20.939  11.888
97700W        W64131  32.861  39.015  10.545
97701W        W64132  11.320  30.516  14.766
97702W        W64133   6.257  26.436  14.532
97703W        W64134  12.669   4.300   2.916
97704W        W64135  41.287  11.301   2.373
97705W        W64136   3.306  23.560   4.932
97706W        W64137  42.273  27.562  14.295
97707W        W64138  10.784  19.552   1.723
97708W        W64139  16.129  20.037   1.134
97709W        W64140  18.823  35.489  12.926
97710W        W64141  29.131  44.460   0.055
97711W        W64142   6.813   5.903   1.406
97712W        W64143   5.752   0.966   2.917
97713W        W64144  35.531   3.842   3.847
97714W        W64145  34.081  43.453  14.427
97715W        W64146  17.678   8.012  13.360
97716W        W64147  37.939  28.234  12.106
97717W        W64148  36.971  13.113   4.765
97718W        W64149  27.205  13.672  12.475
97719W        W64150  40.746  27.614   1.858
97720W        W64151  26.522  22.173   0.664
97721W        W64152  40.957  14.709   2.322
97722W        W64153  38.564  43.330  14.497
97723W        W64154  23.161  11.165   4.755
97724W        W64155  38.839   1.553  13.633
97725W        W64156   5.904  23.976  10.787
97726W        W64157  26.009  36.351   0.497
97727W        W64158  16.333  20.861   3.175
97728W        W64159  26.605  43.250   1.924
97729W        W64160  11.433   7.298  11.957
97730W        W64161  16.759  38.992  11.683
97731W        W64162  16.757  25.534  11.973
97732W        W64163  34.866  32.568  14.016
97733W        W64164  40.061  13.989  12.432
97734W        W64165  43.820  33.252  12.923
97735W        W64166  28.056  12.594   2.416
97736W        W64167  14.291  42.016   1.299
97737W        W64168  28.867   8.770  12.562
97738W        W64169  38.427  12.697   0.935
97739W        W64170  39.488  34.029   2.443
97740W        W64171   1.834  40.097   4.766
97741W        W64172   7.742  13.809   0.302
97742W        W64173  23.967  26.482   3.335
97743W        W64174  36.124  18.716   0.012
97744W        W64175  44.909   0.470  11.162
97745W        W64176  23.391   0.439  12.775
97746W        W64177  18.288  38.699   3.695
97747W        W64178  18.664   5.737   1.212
97748W        W64179  24.715  34.477   3.774
97749W        W64180   6.917   8.417   0.272
97750W        W64181  38.597   2.457   0.076
97751W        W64182  16.533   4.966  11.514
97752W        W64183   9.213  40.949  14.556
97753W        W64184  22.543  32.623  14.282
97754W        W64185   4.411  22.229  12.468
97755W        W64186  17.097  33.102  13.590
97756W        W64187  37.836  24.684   1.205
97757W        W64188  35.980   4.950   1.141
97758W        W64189  39.055   2.841  12.175
97759W        W64190  38.385  44.831   0.222
97760W        W64191  44.719  32.256   2.853
97761W        W64192  21.413  27.008   3.961
97762W        W64193  12.822  26.446  14.020
97763W        W64194  13.501  12.238   4.893
97764W        W64195  40.309  35.973   3.239
97765W        W64196  23.198   7.978   0.381
97766W        W64197  32.432  19.619   2.031
97767W        W64198  22.663  22.394   2.904
97768W        W64199  31.873  29.654   4.537
97769W        W64200  16.322   9.669   3.174
97770W        W64201   6.739  14.359   4.712
97771W        W64202  11.662  31.982   3.326
97772W        W64203  21.122  35.748   4.563
97773W        W64204  25.080   6.284  12.855
97774W        W64205  22.796  31.734  10.944
97775W        W64206  21.150  11.529   1.478
97776W        W64207  20.366  42.613  12.024
97777W        W64208  12.871  16.260  10.469
97778W        W64209  19.764  14.610   2.707
97779W        W64210   4.524   0.780  12.032
97780W        W64211  22.602  32.203  12.896
97781W        W64212   5.488  39.559  12.044
97782W        W64213   8.908  16.207   3.487
97783W        W64214  42.759  39.079   0.792
97784W        W64215   2.527  30.123   2.269
97785W        W64216  13.907  30.644  11.893
97786W        W64217  29.853   0.424  13.763
97787W        W64218  32.818  34.785  11.635
97788W        W64219  11.518  17.730  10.199
97789W        W64220  36.288   4.032   5.129
97790W        W64221   7.381  29.829   0.832
97791W        W64222   8.262   2.497  10.612
97792W        W64223   1.427  31.851   4.931
97793W        W64224  42.941  32.949  11.568
97794W        W64225  20.162  26.175   0.352
97795W        W64226   1.398  36.282   0.402
97796W        W64227  40.377  15.826  13.811
97797W        W64228  30.920   8.182   5.018
97798W        W64229  17.240   0.765   2.308
97799W        W64230  30.110  13.749  10.780
97800W        W64231  28.949  29.484   1.840
97801W        W64232  39.376  22.010  12.920
97802W        W64233  20.491  44.769  14.284
97803W        W64234  29.849  14.728   2.065
97804W        W64235   6.357  25.616   1.131
97805W        W64236  13.412  14.253   2.090
97806W        W64237   5.420  39.085  12.985
97807W        W64238  32.918  44.816   4.095
97808W        W64239   9.754  28.635   1.553
97809W        W64240  16.734  16.266  13.832
97810W        W64241  14.739  42.804   5.035
97811W        W64242   1.170  37.242   4.269
97812W        W64243  11.414   3.794  14.744
97813W        W64244  23.825  19.050  11.171
97814W        W64245  16.704   0.643  13.468
97815W        W64246  33.743  32.150   4.784
97816W        W64247  27.035  36.430  14.896
97817W        W64248  28.222  21.979  13.949
97818W        W64249   4.457  16.134  10.693
97819W        W64250   2.450  18.608   0.764
97820W        W64251  29.068  32.010  13.545
97821W        W64252  12.748  35.730  13.401
97822W        W64253  34.174  14.763  12.885
97823W        W64254  24.659  17.372  14.505
97824W        W64255   5.493  36.471  13.374
97825W        W64256  26.936  29.085   9.944
97826W        W64257   3.513  14.835   3.788
97827W        W64258   8.022  29.259   1.382
97828W        W64259  34.146   2.928   0.499
97829W        W64260   6.479  34.129   4.268
97830W        W64261  12.716  44.743  13.519
97831W        W64262  38.144  12.803  13.626
97832W        W64263  42.410   0.476   1.753
97833W        W64264   2.939  13.170  14.419
97834W        W64265   5.313  10.711   2.264
97835W        W64266  24.272  11.144  13.620
97836W        W64267  12.212   0.657   4.541
97837W        W64268  40.757  18.090   1.771
97838W        W64269  35.086   6.256   3.601
97839W        W64270  30.221  21.750   1.345
97840W        W64271   6.422  34.490  13.016
97841W        W64272  21.251  20.591  13.469
97842W        W64273  18.827  26.217  14.820
97843W        W64274   5.764  42.293  12.712
97844W        W64275  13.596   2.386   1.832
97845W        W64276  38.827  43.972  13.143
97846W        W64277  38.045  19.698  12.011
97847W        W64278  44.796   1.438  12.605
97848W        W64279  41.772  16.149   1.950
97849W        W64280  25.614  43.314   1.276
97850W        W64281  30.667  40.635  12.008
97851W        W64282  43.292  42.991   2.801
97852W        W64283  43.368   4.962  13.874
97853W        W64284  37.936  39.949  14.760
97854W        W64285  35.296   9.099  14.984
97855W        W64286   3.328  41.932  11.976
97856W        W64287  43.453  24.395  13.366
97857W        W64288  22.239  12.335   4.580
97858W        W64289  44.292  32.309  14.379
97859W        W64290   7.797  42.303  11.090
97860W        W64291  39.495   5.538   3.625
97861W        W64292  39.003  40.449  14.369
97862W        W64293   6.096   5.200  14.392
97863W        W64294  17.123   9.149  11.093
97864W        W64295  16.684  26.068   1.136
97865W        W64296  15.773  29.059   0.749
97866W        W64297  41.516   5.368   4.494
97867W        W64298  40.883  33.446   3.600
97868W        W64299  26.761  19.857  13.455
97869W        W64300  23.281  33.396  13.099
97870W        W64301  39.352  24.106   3.538
97871W        W64302  35.516   7.722  12.973
97872W        W64303  27.054   8.179   3.510
97873W        W64304  10.634  16.034   1.918
97874W        W64305  37.353  19.746  10.875
97875W        W64306   9.554  28.538  13.322
97876W        W64307  13.317  18.136   1.189
97877W        W64308  15.865   7.648   3.638
97878W        W64309  16.373   1.343   4.209
97879W        W64310  31.727  34.381  12.317
97880W        W64311  21.475   8.837   3.482
97881W        W64312  36.992  39.437   3.990
97882W        W64313  22.655  13.221   1.693
97883W        W64314  27.985   3.695   9.856
97884W        W64315   0.926   0.330  13.050
97885W        W64316  36.217  23.486  11.217
97886W        W64317  13.714   7.646   2.247
97887W        W64318  24.583   8.408   0.435
97888W        W64319  25.756  36.790   2.173
97889W        W64320  26.570   2.134  12.985
97890W        W64321   3.393  10.190  11.398
97891W        W64322   2.686  25.685   0.691
97892W        W64323  34.441  17.167   0.842
97893W        W64324  31.881  18.116   3.085
97894W        W64325   4.861  44.485  10.365
97895W        W64326  43.840  17.642  12.639
97896W        W64327  10.971  26.050   4.183
97897W        W64328  25.096   6.719  12.602
97898W        W64329   7.406  27.426   3.238
97899W        W64330  35.130   8.251   2.515
97900W        W64331  12.970  39.876   3.441
97901W        W64332  42.448  42.090  13.328
97902W        W64333  38.089  29.868   2.311
97903W        W64334  41.046  22.911  11.701
97904W        W64335  15.786  39.934  14.384
97905W        W64336  14.276   0.027   2.986
97906W        W64337   9.147  25.098  12.825
97907W        W64338  43.311  42.157  12.582
97908W        W64339  18.672   1.243   0.468
97909W        W64340   1.207  26.180   2.360
97910W        W64341   7.925  38.446   4.116
97911W        W64342  17.166  41.157  10.764
97912W        W64343  29.415  11.360  11.463
97913W        W64344  22.681  21.023  12.392
97914W        W64345  18.628  24.415  11.941
97915W        W64346  28.623  43.543   1.166
97916W        W64347  40.327  40.435  12.020
97917W        W64348   7.293  40.540  13.940
97918W        W64349  27.572  39.112   3.765
97919W        W64350   5.205   7.851   5.066
97920W        W64351  16.248  10.079  10.646
97921W        W64352  40.383  36.606  13.696
97922W        W64353  13.366  10.100  11.118
97923W        W64354  42.748   9.632   1.969
97924W        W64355  18.989   6.474  13.892
97925W        W64356  36.135  31.044  12.662
97926W        W64357  28.232   5.201   0.790
97927W        W64358  36.957   5.930   1.823
97928W        W64359  34.371  24.310   3.107
97929W        W64360  25.556   5.649  12.999
97930W        W64361   6.619  10.172  11.831
97931W        W64362   1.391   6.688   3.421
97932W        W64363  37.024  13.820   0.698
97933W        W64364   9.444  14.581   3.061
97934W        W64365  30.953   9.075  14.909
97935W        W64366  34.658   7.948  10.862
97936W        W64367  44.326  39.265  10.795
97937W        W64368  33.967  26.324   0.783
97938W        W64369   9.733  16.104   4.211
97939W        W64370  31.390  31.966  13.610
97940W        W64371   3.126  31.699   4.980
97941W        W64372  44.457  17.010  11.573
97942W        W64373  30.255   7.472   4.496
97943W        W64374  31.949  13.932   9.909
97944W        W64375  14.808  10.827  13.865
97945W        W64376   1.972   4.780  11.055
97946W        W64377  40.421   9.422  14.762
97947W        W64378   8.202  17.139  12.736
97948W        W64379  19.019   2.281   1.798
97949W        W64380  16.057  14.626   2.677
97950W        W64381  17.083  43.767   2.679
97951W        W64382  17.630  22.038   3.905
97952W        W64383  39.767  21.307  14.058
97953W        W64384  25.106  33.360   4.598
97954W        W64385  30.725  31.433  14.181
97955W        W64386   1.920  31.357   2.862
97956W        W64387   7.228  40.268   2.670
97957W        W64388  40.910  35.422   2.811
97958W        W64389  42.052  26.645   2.424
97959W        W64390  29.655   9.807  11.081
97960W        W64391  12.872   0.909   2.788
97961W        W64392  14.738  34.511  12.911
97962W        W64393   7.723  14.144   2.297
97963W        W64394  18.156  17.544   1.859
97964W        W64395  11.188  22.162  14.321
97965W        W64396  34.179  30.051  13.048
97966W        W64397  35.296   8.347  13.757
97967W        W64398  10.577  17.773   3.080
97968W        W64399  37.623  29.394  11.516
97969W        W64400  18.061  33.893  11.612
97970W        W64401  43.025  28.687  13.667
97971W        W64402   8.769  42.505   0.145
97972W        W64403  42.539  40.382   1.169
97973W        W64404   8.755  20.004   1.658
97974W        W64405   1.308  42.327   2.018
97975W        W64406  43.239  36.626   2.179
97976W        W64407  14.344  28.634  14.636
97977W        W64408  26.677  10.165  11.538
97978W        W64409   6.552   3.304   5.026
97979W        W64410   2.949  25.422   0.219
97980W        W64411  32.065  20.664  13.519
97981W        W64412  29.616  36.873  10.989
97982W        W64413  16.623  15.082   2.280
97983W        W64414   3.366   7.825   4.663
97984W        W64415  24.463   9.793  11.663
97985W        W64416  39.685  34.975   0.251
97986W        W64417  14.813  26.713  13.420
97987W        W64418  16.854   6.907   4.552
97988W        W64419  15.864  25.307  14.663
97989W        W64420  34.763  25.175   4.595
97990W        W64421  34.103  10.069   2.334
97991W        W64422  20.503  37.029  12.356
97992W        W64423  17.891  34.455  13.093
97993W        W64424  34.466  31.778  14.007
97994W        W64425  43.999  23.342  14.537
97995W        W64426  10.325   4.261   0.234
97996W        W64427  17.499  34.536   3.670
97997W        W64428  43.334  40.290   2.097
97998W        W64429  44.703  38.595   4.066
97999W        W64430  22.108  11.174   0.687
98000W        W64431  23.934   1.987  12.488
98001W        W64432  30.162  40.523  12.279
98002W        W64433  40.759  28.368  13.786
98003W        W64434   3.682  29.673  11.152
98004W        W64435  40.241  11.154  14.718
98005W        W64436  32.134   3.137   5.157
98006W        W64437  28.746  28.709   3.926
98007W        W64438  26.124   7.057   3.786
98008W        W64439   9.823  39.358   3.871
98009W        W64440  31.632  28.106   2.966
98010W        W64441  12.217  12.461   0.005
98011W        W64442  28.220  21.674  13.429
98012W        W64443  39.276   9.714   2.334
98013W        W64444  27.184  23.206   1.303
98014W        W64445  13.245   4.469   0.575
98015W        W64446   8.585  31.949   0.249
98016W        W64447  39.007  39.718   3.664
98017W        W64448  24.920  40.407  13.968
98018W        W64449  15.938  15.313   3.565
98019W        W64450  40.333  24.448  11.992
98020W        W64451  34.138  21.782   3.371
98021W        W64452  13.634  20.532   0.973
98022W        W64453  39.866  15.998  11.209
98023W        W64454  32.841  13.739  12.490
98024W        W64455   2.820  14.602  11.920
98025W        W64456  19.434  29.696   3.591
98026W        W64457  37.432  21.921   4.776
98027W        W64458   2.729  35.845  13.953
98028W        W64459   9.242  20.209   0.503
98029W        W64460   9.604  25.675  13.420
98030W        W64461  42.711  18.708   3.346
98031W        W64462  39.462  16.098   0.829
98032W        W64463  28.059  44.763   1.296
98033W        W64464  43.757  30.489  11.463
98034W        W64465  21.460  40.207  10.443
98035W        W64466  40.323  26.547  14.894
98036W        W64467  35.291  24.125   2.885
98037W        W64468  39.833  39.126  12.889
98038W        W64469  42.921  38.939   0.252
98039W        W64470  24.903  32.975   2.648
98040W        W64471  37.007   9.176  13.041
98041W        W64472  18.789   8.478   2.272
98042W        W64473  18.437   4.822  12.618
98043W        W64474  37.411  30.457   3.769
98044W        W64475  19.351  41.393  14.464
98045W        W64476  24.621   4.142   0.396
98046W        W64477  26.517  18.863   4.528
98047W        W64478  31.140  40.072  13.271
98048W        W64479  19.582  16.740  14.773
98049W        W64480  27.028  16.339   3.081
98050W        W64481   4.240  17.287  12.541
98051W        W64482  21.705  40.061  11.605
98052W        W64483   3.263  23.088   4.703
98053W        W64484  28.754  15.978   3.868
98054W        W64485  27.938  38.763  12.118
98055W        W64486  17.683  24.283   0.446
98056W        W64487  30.533  37.496  11.767
98057W        W64488  15.021  43.018  13.610
98058W        W64489  24.471  21.607   2.126
98059W        W64490  35.819   6.201  10.997
98060W        W64491  37.796  39.575  11.777
98061W        W64492  30.202  37.470  14.068
98062W        W64493  39.522  41.843  11.639
98063W        W64494  13.596  20.281   4.166
98064W        W64495  17.660   0.252   2.902
98065W        W64496   6.643   3.759   0.295
98066W        W64497  44.196   8.920   4.710
98067W        W64498   3.229   5.629   3.411
98068W        W64499   6.634  34.879   1.861
98069W        W64500  24.978  22.586   3.265
98070W        W64501  20.793   8.594  13.406
98071W        W64502   9.967  23.084  12.887
98072W        W64503  18.845   0.385  10.793
98073W        W64504   0.794  11.049  10.773
98074W        W64505  39.015  21.219  14.899
98075W        W64506  13.758  16.357  13.403
98076W        W64507  22.768  12.235   2.487
98077W        W64508  39.368  17.865   1.462
98078W        W64509  23.561  27.721  12.032
98079W        W64510  15.139   4.417   0.861
98080W        W64511   4.280  44.134   1.353
98081W        W64512  16.960  14.299  13.983
98082W        W64513  23.260  21.233   4.529
98083W        W64514  21.967  22.728   1.281
98084W        W64515  20.231  30.635   4.097
98085W        W64516  39.783   6.226  14.012
98086W        W64517  17.735   9.894   1.048
98087W        W64518  43.560  35.955   0.860
98088W        W64519  44.505   0.717   3.627
98089W        W64520  21.952  43.923   2.456
98090W        W64521  25.877  25.622   3.098
98091W        W64522  27.573  31.405  10.598
98092W        W64523  10.205  15.148   4.370
98093W        W64524  12.336  16.124   0.951
98094W        W64525   4.319  16.169   0.204
98095W        W64526  12.818  41.268   0.958
98096W        W64527  28.732  39.935  12.634
98097W        W64528  31.737  21.955   1.339
98098W        W64529   3.010  26.223  13.431
98099W        W64530  21.432  29.473  13.073
98100W        W64531  12.742   6.610  14.281
98101W        W64532  11.808  33.607   2.430
98102W        W64533  37.449  44.318   2.579
98103W        W64534  24.987  36.045   4.127
98104W        W64535  33.191   8.440  11.633
98105W        W64536   0.827  31.980  14.858
98106W        W64537  21.182  29.396   4.172
98107W        W64538  37.906   2.012   4.414
98108W        W64539  42.816  40.880  12.786
98109W        W64540  41.418  25.075  10.807
98110W        W64541  26.635  11.144  14.306
98111W        W64542  34.959  43.261   4.072
98112W        W64543  29.418  44.046   1.478
98113W        W64544  23.999  12.295   0.029
98114W        W64545  36.581   2.440  11.644
98115W        W64546  25.546  26.645   4.656
98116W        W64547  11.122  18.938   0.461
98117W        W64548  10.166  44.827   2.403
98118W        W64549  16.842  28.179  14.058
98119W        W64550   7.125  32.051   1.358
98120W        W64551  12.229   3.911  10.172
98121W        W64552  13.677   6.256   2.006
98122W        W64553  31.145  21.765   0.179
98123W        W64554   6.210   2.369   2.353
98124W        W64555   2.838   2.227   4.501
98125W        W64556  43.717  22.071   3.178
98126W        W64557  17.963  18.057   0.421
98127W        W64558  33.492  27.950  11.892
98128W        W64559  27.597   8.718   0.927
98129W        W64560   8.140  14.878  11.238
98130W        W64561   4.228   8.588  14.486
98131W        W64562  44.944  12.199  14.298
98132W        W64563  31.618  37.905  11.951
98133W        W64564  37.883   3.759  11.198
98134W        W64565  32.984  26.467  12.476
98135W        W64566  14.902  37.195   1.487
98136W        W64567  28.599   4.349   2.693
98137W        W64568  16.576  40.599  13.583
98138W        W64569   5.573   4.527   3.539
98139W        W64570  38.334   5.146  14.513
98140W        W64571  26.217  30.120  14.547
98141W        W64572   2.288  21.133  11.869
98142W        W64573  42.565  10.859   4.147
98143W        W64574  10.145  37.602   3.703
98144W        W64575  36.333  38.159   1.208
98145W        W64576   3.400  22.514   0.329
98146W        W64577  18.950  42.431  13.249
98147W        W64578  15.323   0.749  11.695
98148W        W64579  16.757  12.003   1.377
98149W        W64580  39.501  25.437   0.853
98150W        W64581  43.721  13.952  13.400
98151W        W64582  44.697  31.958   2.423
98152W        W64583  13.392  13.922  12.009
98153W        W64584   1.907   0.760  14.072
98154W        W64585  22.473  29.112  12.446
98155W        W64586  26.675  42.324   0.907
98156W        W64587  12.402  11.192  14.284
98157W        W64588  40.725  34.724   0.527
98158W        W64589  41.675  25.045  11.680
98159W        W64590  37.150  20.174  14.492
98160W        W64591  30.122   2.392  14.965
98161W        W64592  19.728  27.502  12.004
98162W        W64593  17.792  41.282  12.523
98163W        W64594   3.358  38.291   1.417
98164W        W64595  43.711   8.584  12.396
98165W        W64596  25.997  18.129  14.838
98166W        W64597  21.202  19.595   0.677
98167W        W64598  28.458  12.586  13.105
98168W        W64599  21.171   4.919  10.791
98169W        W64600  37.168  34.684  13.419
98170W        W64601  21.610  30.117  11.228
98171W        W64602   3.104   7.503  12.962
98172W        W64603  30.090   8.817   4.198
98173W        W64604  12.164   1.921  12.546
98174W        W64605  21.485  17.315  12.992
98175W        W64606   0.003  27.059  10.739
98176W        W64607  15.182  33.371  13.342
98177W        W64608  22.722  26.932  13.915
98178W        W64609   4.183  41.223  13.575
98179W        W64610  27.714  22.105  14.785
98180W        W64611   9.375  23.664  13.507
98181W        W64612  37.397  16.244   1.531
98182W        W64613  14.326  14.895   4.558
98183W        W64614  33.010  26.511  10.588
98184W        W64615  12.722   5.767  14.081
98185W        W64616  16.763   4.985   3.395
98186W        W64617  32.623  37.411   0.006
98187W        W64618  40.331  22.505  13.963
98188W        W64619   9.738  13.090   4.450
98189W        W64620  21.694   8.406  11.122
98190W        W64621   4.920  23.761  11.635
98191W        W64622  13.748   0.766   4.745
98192W        W64623  33.051  14.418   1.677
98193W        W64624  18.463  30.959  12.705
98194W        W64625  44.459  35.485   4.450
98195W        W64626   9.161  17.494   0.643
98196W        W64627  33.597  35.297   3.273
98197W        W64628  40.212  19.678   3.217
98198W        W64629  44.093  18.107   2.242
98199W        W64630  29.041  44.511  11.736
98200W        W64631  26.470  23.376  11.202
98201W        W64632  44.494  14.697  13.278
98202W        W64633  38.308  16.843   1.457
98203W        W64634  34.633  42.089  10.124
98204W        W64635   5.377   8.432  12.065
98205W        W64636  16.113  40.786  14.633
98206W        W64637  19.470  43.255  10.361
98207W        W64638  11.292  10.378   2.671
98208W        W64639   2.136  43.945   4.632
98209W        W64640  12.203   9.902   4.115
98210W        W64641  39.067  33.859  13.575
98211W        W64642  19.496   4.994   2.233
98212W        W64643  24.352  23.168  13.196
98213W        W64644  20.275   4.349   1.407
98214W        W64645  14.573  28.104  10.113
98215W        W64646  14.947  19.406  11.710
98216W        W64647  20.536  10.791   2.344
98217W        W64648  18.504  12.217  11.160
98218W        W64649   6.892  25.688   1.286
98219W        W64650  14.278  35.112  10.534
98220W        W64651  13.000  27.603   2.674
98221W        W64652  28.418  11.283  11.616
98222W        W64653  39.981  43.383   3.373
98223W        W64654   8.420   3.310  12.686
98224W        W64655  36.513  32.710  13.548
98225W        W64656  41.926  40.087  12.569
98226W        W64657  19.794  37.960  13.591
98227W        W64658  18.555  27.048  10.709
98228W        W64659  41.187  18.800  13.838
98229W        W64660  31.163  24.078  12.563
98230W        W64661   5.676  22.080   1.646
98231W        W64662  36.810  18.177  14.734
98232W        W64663   4.842  10.816  13.283
98233W        W64664  24.266  26.415  14.288
98234W        W64665   1.970  25.326  14.489
98235W        W64666   0.803  15.226   1.926
98236W        W64667  26.578   0.817   0.753
98237W        W64668  24.357  14.850  13.404
98238W        W64669  27.997  39.911   0.402
98239W        W64670  16.668  38.352   3.823
98240W        W64671  16.240  18.115  11.367
98241W        W64672  14.436   9.368  13.899
98242W        W64673   5.324  39.647  10.750
98243W        W64674   8.348  35.117   1.394
98244W        W64675  37.849  41.735  11.525
98245W        W64676   3.400  41.305   0.225
98246W        W64677  24.506  40.419   4.598
98247W        W64678  38.110  26.145   1.413
98248W        W64679  35.992  40.217   1.936
98249W        W64680   7.894  14.621  13.385
98250W        W64681   5.670  34.592   0.319
98251W        W64682  10.859  33.955   0.839
98252W        W64683  22.552   2.405   2.006
98253W        W64684  17.738  27.006   4.232
98254W        W64685   6.061  31.963   3.233
98255W        W64686   4.309  33.664   3.719
98256W        W64687  33.908  14.232  12.085
98257W        W64688   9.851   3.376   0.224
98258W        W64689  18.041  41.498   1.886
98259W        W64690  23.187  35.661   4.625
98260W        W64691  14.073   8.272   3.831
98261W        W64692  33.254  30.776  13.447
98262W        W64693   0.028  40.487   2.269
98263W        W64694   0.985  10.695  12.538
98264W        W64695  15.115  20.193   4.581
98265W        W64696   3.435  36.495   0.902
98266W        W64697  39.889  10.682   1.576
98267W        W64698  24.247   4.695   1.175
98268W        W64699  21.997  15.565  11.688
98269W        W64700  43.839   0.865   2.829
98270W        W64701  42.869  34.443   3.737
98271W        W64702  21.210   2.331  10.810
98272W        W64703  27.713  37.909  14.513
98273W        W64704  13.312  27.545  13.041
98274W        W64705  14.596   0.013  11.363
98275W        W64706   1.312  43.349   1.838
98276W        W64707   7.594  30.148   1.227
98277W        W64708  43.423  14.352   0.091
98278W        W64709  13.404  19.012  14.127
98279W        W64710   3.836  31.893   3.896
98280W        W64711  30.877  29.953  13.302
98281W        W64712  21.991  23.371  12.579
98282W        W64713   9.430   7.049  13.897
98283W        W64714  10.906  38.446   0.365
98284W        W64715  11.073   6.268  13.833
98285W        W64716  36.719  35.103   0.215
98286W        W64717   9.430  28.517   2.325
98287W        W64718  21.146   8.771   1.804
98288W        W64719  44.368  13.090  11.578
98289W        W64720  37.107  32.569  14.723
98290W        W64721  14.172   6.992  11.153
98291W        W64722  42.056  29.971  14.479
98292W        W64723  19.213  16.152  11.688
98293W        W64724  24.235  14.132  10.730
98294W        W64725  40.501  41.801  10.713
98295W        W64726  22.129   9.201   4.618
98296W        W64727   5.262  18.926  14.259
98297W        W64728  37.055  20.225   4.468
98298W        W64729  44.736  43.552  12.365
98299W        W64730  41.011  27.416   2.339
98300W        W64731  14.167  31.082   1.873
98301W        W64732   7.343  35.465   1.880
98302W        W64733   2.478  16.592   2.485
98303W        W64734   3.510   0.146   3.393
98304W        W64735   0.401  37.260  11.587
98305W        W64736   9.511   3.960  11.019
98306W        W64737   2.296  35.650   0.022
98307W        W64738  14.278  18.246  14.966
98308W        W64739  38.024  37.742   4.654
98309W        W64740  39.822  38.065   4.552
98310W        W64741  31.816  39.527   1.272
98311W        W64742  40.323  11.545   3.288
98312W        W64743  10.701   7.185  14.109
98313W        W64744  44.343  39.307  12.620
98314W        W64745  25.645   8.714  12.108
98315W        W64746  34.989  13.551  11.964
98316W        W64747  34.086  38.511   0.168
98317W        W64748  28.048  36.178   0.458
98318W        W64749  31.656   2.431  14.325
98319W        W64750  37.288   3.828   3.100
98320W        W64751  22.561  20.904   3.006
98321W        W64752  16.184  42.336  13.116
98322W        W64753  42.803   3.255   1.444
98323W        W64754   5.962   8.670  13.413
98324W        W64755  39.066  29.904  13.124
98325W        W64756  17.062  36.483   3.681
98326W        W64757  12.872  24.579   0.911
98327W        W64758   1.306  23.732  13.932
98328W        W64759  30.213  41.408  11.918
98329W        W64760   9.011  24.645  13.356
98330W        W64761   3.979  15.804   0.347
98331W        W64762  19.270  29.289   4.274
98332W        W64763  44.686  25.676  12.198
98333W        W64764  10.846   9.284  12.184
98334W        W64765  13.937  16.178   1.185
98335W        W64766  33.973  23.960   3.092
98336W        W64767  43.231   0.501  13.795
98337W        W64768  40.541  25.944   0.218
98338W        W64769  31.151   7.846   4.636
98339W        W64770  29.035  43.018  14.867
98340W        W64771  25.906  27.169  14.313
98341W        W64772  43.996  11.016   4.007
98342W        W64773   2.900  14.171   2.823
98343W        W64774  17.506  39.500   0.962
98344W        W64775   1.021  19.010   0.813
98345W        W64776  14.190  20.737   1.789
98346W        W64777   4.190  34.563   1.196
98347W        W64778  11.651  19.115   1.916
98348W        W64779   0.819  42.896   4.202
98349W        W64780  33.975  20.940   1.320
98350W        W64781   9.065   0.378   2.951
98351W        W64782  40.332   3.774   4.390
98352W        W64783  11.413   8.921   3.770
98353W        W64784  44.344  40.774  12.521
98354W        W64785  22.868  20.522  12.536
98355W        W64786  23.264  25.971   2.244
98356W        W64787  14.304  42.735   0.668
98357W        W64788  44.746   5.340   1.688
98358W        W64789  43.409  40.313   0.809
98359W        W64790  31.411  15.985   3.167
98360W        W64791  14.692   0.262   2.184
98361W        W64792   9.327  15.074  14.779
98362W        W64793  32.567   5.184   5.526
98363W        W64794  42.967  26.970  12.063
98364W        W64795  33.593   5.260  14.365
98365W        W64796   8.474   9.022   2.743
98366W        W64797   6.942  33.455  14.861
98367W        W64798  26.410  39.791   0.899
98368W        W64799   0.169  34.459   4.398
98369W        W64800  20.305  44.947  14.756
98370W        W64801  24.901   5.895   2.436
98371W        W64802  23.008   4.223   4.031
98372W        W64803  36.044  21.329  11.220
98373W        W64804   5.873  19.576   3.510
98374W        W64805  18.559   4.829  10.168
98375W        W64806  24.586  12.088  11.732
98376W        W64807  13.058  30.179  12.956
98377W        W64808  17.385  23.686   1.256
98378W        W64809  16.269  25.573  11.601
98379W        W64810  26.757   2.450  12.636
98380W        W64811  24.425  17.696   0.245
98381W        W64812   8.912  30.447   2.170
98382W        W64813  31.068  30.562  12.313
98383W        W64814  32.061  22.213  13.378
98384W        W64815  20.826  39.328   3.246
98385W        W64816   7.248  36.418  12.064
98386W        W64817   7.404  41.493   3.763
98387W        W64818   2.661  31.371  12.084
98388W        W64819  44.133   6.223  10.856
98389W        W64820   7.529   7.390   0.483
98390W        W64821  30.737  10.962  14.744
98391W        W64822  20.934  14.242  13.525
98392W        W64823  35.027   2.888   3.726
98393W        W64824   0.264   9.120   3.353
98394W        W64825   4.172  43.967   3.738
98395W        W64826  14.789  22.605   0.783
98396W        W64827  23.641  32.013   0.311
98397W        W64828   5.907  10.944  10.731
98398W        W64829  37.507  17.855   1.381
98399W        W64830  42.205  39.634  10.728
98400W        W64831   3.447  24.701  13.650
98401W        W64832  38.255   7.753   1.492
98402W        W64833  34.081  24.478  14.702
98403W        W64834  38.660  23.442   3.330
98404W        W64835  15.359  12.138  10.788
98405W        W64836  10.472  16.921  11.194
98406W        W64837  39.882  28.459  12.548
98407W        W64838   9.127   5.185   2.422
98408W        W64839  10.591  26.085  10.678
98409W        W64840  41.850  26.845   1.891
98410W        W64841  29.130  23.406  10.706
98411W        W64842   8.468  10.698   0.693
98412W        W64843   5.091  10.427   5.176
98413W        W64844  18.656  42.904  10.608
98414W        W64845  35.328  26.599  11.890
98415W        W64846  42.727  24.934  14.299
98416W        W64847  14.135  12.393   1.705
98417W        W64848   5.287   0.912  10.457
98418W        W64849  11.366  12.587  14.789
98419W        W64850  24.820  31.860   0.966
98420W        W64851   8.370  35.686   4.563
98421W        W64852  44.609  12.896   2.155
98422W        W64853  41.031  18.905   4.278
98423W        W64854  21.662   7.400   0.974
98424W        W64855  40.687   5.265  14.394
98425W        W64856  35.954  26.251   1.414
98426W        W64857  31.087  17.451  11.621
98427W        W64858   7.546   2.166  14.226
98428W        W64859  42.049  32.867   2.444
98429W        W64860  44.925  10.668   3.627
98430W        W64861   4.112  28.895   3.148
98431W        W64862  31.569  35.370  13.445
98432W        W64863  23.803  18.392   0.297
98433W        W64864  25.639  23.726  11.626
98434W        W64865  33.812  41.079  14.025
98435W        W64866  31.928  42.589   4.216
98436W        W64867   2.182  16.141   0.708
98437W        W64868  31.696  25.049   1.266
98438W        W64869   6.334  43.986   4.467
98439W        W64870  37.112  38.608  11.087
98440W        W64871  12.327  20.456   4.773
98441W        W64872  31.068   2.917  12.132
98442W        W64873  12.193   0.045  12.416
98443W        W64874  33.315  18.647   1.504
98444W        W64875  41.073  41.972  13.438
98445W        W64876   0.699   3.838   2.891
98446W        W64877  21.208  25.735   1.331
98447W        W64878  25.108  35.608  11.222
98448W        W64879  38.235  37.309   4.488
98449W        W64880  44.538  28.402  14.756
98450W        W64881  39.846  36.943   4.926
98451W        W64882  18.635  23.927   4.218
98452W        W64883  38.420  16.796  13.823
98453W        W64884   2.327  13.042   4.251
98454W        W64885  22.607  39.768  14.525
98455W        W64886  17.803  37.652  12.549
98456W        W64887  18.759  16.436  13.472
98457W        W64888  41.308  10.778   4.439
98458W        W64889  39.664   0.440   1.882
98459W        W64890   4.739   6.671   3.737
98460W        W64891  33.626  34.954   4.744
98461W        W64892  43.681  36.851  13.361
98462W        W64893  10.876  19.674  10.764
98463W        W64894  43.304  31.963  10.851
98464W        W64895  21.782  33.733  13.910
98465W        W64896  10.963  14.121  11.557
98466W        W64897  41.455   3.360   4.344
98467W        W64898   9.261  29.739   0.862
98468W        W64899  24.953  30.444  13.482
98469W        W64900  42.575  44.957   1.803
98470W        W64901  23.147  23.505   0.995
98471W        W64902  39.137  24.077  10.628
98472W        W64903  30.487  34.954  11.119
98473W        W64904  32.334  23.499  11.463
98474W        W64905  22.262  28.221  13.842
98475W        W64906  32.377   6.946  11.502
98476W        W64907  22.639  44.423   2.806
98477W        W64908  41.529   3.937  12.368
98478W        W64909   6.726  18.792   2.846
98479W        W64910  27.585  10.813  11.076
98480W        W64911  12.081  42.977  12.840
98481W        W64912   8.820  27.716   1.260
98482W        W64913  25.485  33.663   2.951
98483W        W64914   4.358  33.472   0.772
98484W        W64915  37.336  37.580   3.503
98485W        W64916  18.952  31.944  11.631
98486W        W64917   0.884   8.843   4.200
98487W        W64918  39.445  20.417  14.873
98488W        W64919  33.315  39.895  12.384
98489W        W64920  24.627  39.959   1.384
98490W        W64921  12.729  33.946   1.904
98491W        W64922  41.865  32.551   1.205
98492W        W64923   6.212  34.200   4.689
98493W        W64924  18.337  26.629  11.751
98494W        W64925  37.028  36.800  14.986
98495W        W64926  13.714  25.335  11.566
98496W        W64927   8.685  16.477  12.925
98497W        W64928  20.497  27.542   3.792
98498W        W64929  21.153  42.845   2.579
98499W        W64930   7.944  39.728   3.184
98500W        W64931  25.510   4.334   1.776
98501W        W64932   0.327   4.580   0.716
98502W        W64933   5.987  16.268  14.336
98503W        W64934   7.485  38.967   3.400
98504W        W64935  43.841  13.336   1.117
98505W        W64936  21.374  37.952   5.112
98506W        W64937  42.159  19.903   2.331
98507W        W64938   0.239  29.959   0.865
98508W        W64939  35.837  29.430  13.462
98509W        W64940  25.656  33.373   3.712
98510W        W64941   4.941  20.732  12.048
98511W        W64942  20.024  17.675  14.057
98512W        W64943   8.095  22.657   0.708
98513W        W64944  20.927  15.825  13.963
98514W        W64945  20.680   4.186   4.750
98515W        W64946   0.189  37.660   4.157
98516W        W64947  12.728  32.093   9.920
98517W        W64948  22.598  26.036   1.386
98518W        W64949  30.145  23.504   2.153
98519W        W64950  12.561  38.568  14.347
98520W        W64951  36.580   1.266  14.951
98521W        W64952  28.209   9.670  12.150
98522W        W64953   7.377   9.861  14.943
98523W        W64954  34.146  40.941  14.414
98524W        W64955  34.434  26.405   0.575
98525W        W64956  40.081  35.555  14.432
98526W        W64957  28.678  35.069  14.447
98527W        W64958  15.277   8.394   3.272
98528W        W64959  20.278  12.525   1.283
98529W        W64960  38.518   7.094  12.568
98530W        W64961  17.236  39.260   1.807
98531W        W64962  42.190  17.319   5.240
98532W        W64963   7.751  22.635  11.151
98533W        W64964  26.252  39.954   4.319
98534W        W64965  29.718   5.671   3.086
98535W        W64966   3.299  34.887  10.546
98536W        W64967  35.503  23.625  13.813
98537W        W64968  36.462   0.963   0.862
98538W        W64969  29.811  25.942  12.978
98539W        W64970  12.082  30.808  12.319
98540W        W64971  18.059  42.337  12.747
98541W        W64972  33.134  15.098   2.812
98542W        W64973  14.363   7.809  10.692
98543W        W64974   3.005  27.641  14.928
98544W        W64975  35.386  25.119   1.871
98545W        W64976   0.125  19.703  12.576
98546W        W64977  13.317  41.433   0.850
98547W        W64978   0.764  12.067  14.736
98548W        W64979  24.573  23.765   1.760
98549W        W64980   0.494  21.875   2.698
98550W        W64981   6.318  38.876   2.335
98551W        W64982  11.316  35.959   4.131
98552W        W64983   3.672  14.191   2.257
98553W        W64984  22.205  16.394   1.365
98554W        W64985  24.473  30.166  11.409
98555W        W64986  13.733  43.416  13.954
98556W        W64987   6.765  43.073  12.806
98557W        W64988   3.401  27.750  14.240
98558W        W64989  24.104  18.106  13.000
98559W        W64990  34.739  11.324  14.211
98560W        W64991   1.469  36.996  14.026
98561W        W64992  35.320   2.660  11.204
98562W        W64993   7.291   2.931   0.815
98563W        W64994   1.041  27.622   4.435
98564W        W64995  17.600  43.404   0.376
98565W        W64996  30.091  19.629   0.273
98566W        W64997  37.852  19.349  13.756
98567W        W64998   6.663  25.376   4.571
98568W        W64999  29.224   0.835   1.849
98569W        W65000   8.370  35.017  13.149
98570W        W65001  17.208  20.652  12.974
98571W        W65002  36.894  35.208   2.690
98572W        W65003  21.520  14.758   1.968
98573W        W65004  18.218  41.045   3.160
98574W        W65005  26.069   5.192   2.893
98575W        W65006  10.276  41.826  13.110
98576W        W65007   0.565  17.769  13.926
98577W        W65008  16.888   1.362   3.324
98578W        W65009  21.016  36.817   4.018
98579W        W65010   3.609  36.371  10.732
98580W        W65011  32.310  28.618  11.138
98581W        W65012   6.756  23.767  13.891
98582W        W65013   1.306  13.148   1.741
98583W        W65014  37.666  13.410   1.479
98584W        W65015   9.659  27.548  11.634
98585W        W65016  15.090  24.143  13.894
98586W        W65017   5.226  35.270   4.814
98587W        W65018  28.877  31.431   3.270
98588W        W65019   6.726  13.854   4.687
98589W        W65020  29.736  29.012   1.640
98590W        W65021  38.869  35.424   0.882
98591W        W65022  40.615  40.306  13.765
98592W        W65023   9.311  33.856   1.845
98593W        W65024   2.886  38.291  13.957
98594W        W65025  26.549  14.829   4.040
98595W        W65026   8.873   7.649  13.898
98596W        W65027  35.193  36.949  12.147
98597W        W65028  38.831  28.995   3.774
98598W        W65029  13.869  27.944   2.302
98599W        W65030   1.791   1.076  14.833
98600W        W65031   1.922  38.786  11.567
98601W        W65032  28.697  18.487   1.882
98602W        W65033   3.428  32.344  12.567
98603W        W65034  13.534   2.460   0.799
98604W        W65035  25.514  22.514   2.454
98605W        W65036  32.523  35.771  13.473
98606W        W65037   4.165  16.336   2.337
98607W        W65038  20.794  16.090   4.488
98608W        W65039  16.522   5.890  12.968
98609W        W65040  26.982  11.221  10.773
98610W        W65041  11.512  33.465   1.108
98611W        W65042  20.196   9.215   3.824
98612W        W65043  18.783  23.272  14.922
98613W        W65044  15.266   4.005  10.045
98614W        W65045  17.295  32.342  14.016
98615W        W65046   5.491  43.464  13.994
98616W        W65047  19.506  30.173  12.014
98617W        W65048  31.936  24.019   4.379
98618W        W65049  25.716  25.076  12.883
98619W        W65050  43.260  15.646  13.296
98620W        W65051  12.657   8.792   4.410
98621W        W65052  14.446  19.157  12.533
98622W        W65053  17.701  32.839   2.859
98623W        W65054  14.881   7.684   4.506
98624W        W65055  30.357  44.686  11.209
98625W        W65056  41.979  21.363   4.156
98626W        W65057  43.239  26.931  10.724
98627W        W65058   4.928   0.713  11.245
98628W        W65059  10.234   2.456  11.738
98629W        W65060   7.858  26.075  11.637
98630W        W65061  20.766   9.787  10.578
98631W        W65062  15.469  37.988   3.587
98632W        W65063  34.340  20.252  10.812
98633W        W65064  18.164  27.894   1.188
98634W        W65065  27.674  34.144  11.196
98635W        W65066  42.655  26.258   3.188
98636W        W65067   6.759  40.979   1.810
98637W        W65068  12.099  37.481   3.365
98638W        W65069  43.264  43.222   3.700
98639W        W65070  13.371  15.210  13.593
98640W        W65071  25.964  39.006   1.854
98641W        W65072  28.847  38.414   0.588
98642W        W65073  20.560  24.100   0.915
98643W        W65074  11.666   5.368   1.357
98644W        W65075   4.343  32.214  12.583
98645W        W65076   5.176   0.296  14.785
98646W        W65077   3.615  19.724  11.574
98647W        W65078  32.850  30.384   2.784
98648W        W65079   7.176  15.855  12.028
98649W        W65080  21.089  31.371   0.874
98650W        W65081  25.101   3.701  11.126
98651W        W65082  42.430  15.804   1.241
98652W        W65083  39.295  35.484   1.970
98653W        W65084  12.435  32.858  13.767
98654W        W65085  11.604  18.508   2.442
98655W        W65086   3.165  30.928  12.506
98656W        W65087  42.703  17.129  12.955
98657W        W65088   9.119  14.526   2.637
98658W        W65089   4.407   6.228  11.518
98659W        W65090  23.262   2.230  10.447
98660W        W65091   3.236  39.610   0.285
98661W        W65092   5.823  35.129   2.948
98662W        W65093   8.280  44.775  13.354
98663W        W65094  23.630   6.192   0.377
98664W        W65095  41.039  10.625  11.606
98665W        W65096  16.062   2.785   2.340
98666W        W65097  18.209  17.845   9.793
98667W        W65098  10.170  21.798  12.951
98668W        W65099   5.276  11.618   0.283
98669W        W65100   9.579  28.181   2.697
98670W        W65101  13.129  26.581  12.251
98671W        W65102  11.048  38.032   4.618
98672W        W65103  22.769  33.800   4.272
98673W        W65104  12.818  17.101   4.302
98674W        W65105  23.618  43.198  13.384
98675W        W65106  37.293  36.070  11.108
98676W        W65107  19.164  25.941  14.530
98677W        W65108  20.109  11.367  11.489
98678W        W65109   7.100  21.139  10.690
98679W        W65110  13.687  32.567  12.524
98680W        W65111  42.403  11.495  13.640
98681W        W65112  33.603   4.638   0.268
98682W        W65113  13.075  27.097  12.180
98683W        W65114  36.567  31.223  12.013
98684W        W65115  23.204   2.968   1.855
98685W        W65116   8.663  42.504   4.162
98686W        W65117   5.738  22.181  11.135
98687W        W65118   2.538   9.757  11.834
98688W        W65119   0.845  21.281   4.173
98689W        W65120  24.744  11.254   4.514
98690W        W65121  28.980  13.158   3.445
98691W        W65122  40.910   1.466   2.948
98692W        W65123  17.657  25.512   1.216
98693W        W65124  40.432   0.323  12.634
98694W        W65125   8.342  35.068   3.202
98695W        W65126  23.096  34.354   3.146
98696W        W65127   3.431  29.063  12.259
98697W        W65128  36.668  17.370   5.041
98698W        W65129  33.066  16.868   0.846
98699W        W65130  43.161  13.600  12.131
98700W        W65131   8.993  23.337   1.253
98701W        W65132  27.115   8.222  10.923
98702W        W65133  34.489  36.972   0.228
98703W        W65134  22.947  19.795  12.992
98704W        W65135  20.963  38.936  11.467
98705W        W65136  17.495   1.716  12.428
98706W        W65137  12.968   0.002  11.292
98707W        W65138   2.475  17.075  12.573
98708W        W65139  43.352  30.035  12.828
98709W        W65140   1.940  27.855   1.898
98710W        W65141  25.014  40.602   2.336
98711W        W65142  27.867  27.056  14.963
98712W        W65143  32.198  21.052  12.541
98713W        W65144  34.990  13.313   0.765
98714W        W65145   0.677  14.841   4.237
98715W        W65146  24.454  31.028  11.533
98716W        W65147  14.528   6.317   4.556
98717W        W65148   2.886  28.495  12.647
98718W        W65149  20.064  28.542  12.813
98719W        W65150  25.435   8.186   2.408
98720W        W65151  23.276   1.874   1.165
98721W        W65152  31.655  23.753   3.348
98722W        W65153   8.754  24.802   0.423
98723W        W65154  22.131  27.237   3.330
98724W        W65155  44.104  14.804   1.662
98725W        W65156  38.825  14.238   2.720
98726W        W65157  36.088  36.131   3.302
98727W        W65158  18.071  23.564  14.702
98728W        W65159   2.979  16.167  14.379
98729W        W65160  10.303   0.176  12.963
98730W        W65161  17.797  41.271   0.274
98731W        W65162  44.838  41.367   4.371
98732W        W65163  14.655  32.139  12.731
98733W        W65164  30.573  28.941   2.462
98734W        W65165  41.862  33.674   0.761
98735W        W65166   4.334  40.455  11.705
98736W        W65167  40.100  19.335  10.933
98737W        W65168  19.122  33.662  13.384
98738W        W65169  42.362  11.101   0.556
98739W        W65170   6.953  22.117   1.313
98740W        W65171   8.186  41.724   4.291
98741W        W65172   0.248  24.020  13.929
98742W        W65173   4.248   5.284  12.991
98743W        W65174  27.172  30.518  13.785
98744W        W65175  41.085  31.411   0.771
98745W        W65176   2.418   1.399   0.446
98746W        W65177   4.034  13.847  11.227
98747W        W65178  43.308  12.416   4.511
98748W        W65179  23.679  23.982  12.966
98749W        W65180   8.348  10.336  10.916
98750W        W65181  16.909  38.248  13.364
98751W        W65182   0.801  14.618  14.280
98752W        W65183   4.228  28.592  13.696
98753W        W65184  10.286  19.727   0.929
98754W        W65185  43.549  27.171  13.877
98755W        W65186  23.377  39.007   0.263
98756W        W65187   1.741  40.981  13.609
98757W        W65188  36.353  11.106  11.565
98758W        W65189  44.780  21.643   3.662
98759W        W65190  43.518  21.075   3.309
98760W        W65191  10.487   6.855   1.280
98761W        W65192  34.922  15.847  10.214
98762W        W65193  39.507  40.339  14.596
98763W        W65194  38.799  34.630  11.214
98764W        W65195  17.334  33.059  10.887
98765W        W65196   5.649  40.596   2.352
98766W        W65197   3.772  32.431   3.728
98767W        W65198  39.855  13.285  11.997
98768W        W65199  15.220  20.238   1.702
98769W        W65200  17.106   3.340   5.026
98770W        W65201  17.042  11.644  10.998
98771W        W65202   7.596   3.336   1.013
98772W        W65203  36.926   0.628  12.138
98773W        W65204  25.007  25.521   2.658
98774W        W65205   9.333  20.180   2.928
98775W        W65206   4.187  14.261  12.874
98776W        W65207  41.477  22.540  11.658
98777W        W65208  13.660  42.768   1.284
98778W        W65209  19.677   4.252  13.789
98779W        W65210  19.681  41.930  13.413
98780W        W65211  11.348  20.537   4.694
98781W        W65212  22.547   9.723   3.799
98782W        W65213   3.409  21.624  11.912
98783W        W65214  35.933  27.643   0.317
98784W        W65215  34.901   3.481  11.145
98785W        W65216  11.922  39.669  12.325
98786W        W65217   1.697   6.743  13.335
98787W        W65218  33.544  26.170  11.576
98788W        W65219  24.593   1.366  11.153
98789W        W65220  38.011  25.732   1.737
98790W        W65221  11.073   7.751   4.561
98791W        W65222  21.210  44.757   3.613
98792W        W65223   2.453  33.635  12.009
98793W        W65224  15.576  34.016  10.536
98794W        W65225  31.510   2.138   1.077
98795W        W65226   4.301   5.424  12.043
98796W        W65227   3.843  25.003  11.031
98797W        W65228  33.091  35.102  13.929
98798W        W65229  34.872  32.053   4.035
98799W        W65230  21.105  27.049   3.552
98800W        W65231  18.848  40.856   5.068
98801W        W65232   5.081  36.948   1.439
98802W        W65233  10.105  33.786  12.897
98803W        W65234   7.743  39.726  13.086
98804W        W65235   5.186  22.848  10.864
98805W        W65236  25.641  33.352  14.262
98806W        W65237  37.075  12.822   2.114
98807W        W65238   6.461   3.778   2.405
98808W        W65239  23.849  34.740   0.368
98809W        W65240  11.158  15.994  12.875
98810W        W65241  41.978   4.850  10.807
98811W        W65242  21.538   6.356  14.460
98812W        W65243  13.727  36.377   0.184
98813W        W65244   2.236  13.019   3.284
98814W        W65245  19.086  40.936  14.389
98815W        W65246   9.079   0.732   2.537
98816W        W65247  18.576  24.673   4.684
98817W        W65248  27.658  30.234  14.834
98818W        W65249  12.131  36.499  13.897
98819W        W65250  26.605   1.643  13.713
98820W        W65251   1.913  23.705  13.445
98821W        W65252  14.773   8.092   3.290
98822W        W65253  35.364  41.797   0.875
98823W        W65254   3.365  21.072  11.569
98824W        W65255  44.571  25.123  13.003
98825W        W65256  12.200  24.155   2.333
98826W        W65257   2.781  22.698  12.826
98827W        W65258  16.720  24.892   3.282
98828W        W65259  39.418  39.747   3.137
98829W        W65260  11.175  43.480   4.840
98830W        W65261  42.709  42.298  12.913
98831W        W65262  19.652   6.156  13.469
98832W        W65263  14.605  10.280   1.619
98833W        W65264  10.818  42.410  13.389
98834W        W65265  31.919  42.662  12.699
98835W        W65266   7.977   0.748   1.436
98836W        W65267   6.657  40.847   2.310
98837W        W65268  41.960  43.673   0.510
98838W        W65269  36.479  22.674  13.105
98839W        W65270   9.862  27.601  14.693
98840W        W65271   6.331   0.202   0.969
98841W        W65272  14.132   0.498   2.818
98842W        W65273  42.444  38.553   3.763
98843W        W65274  11.614  21.209  12.401
98844W        W65275  12.799   2.485  11.181
98845W        W65276  44.796   7.179   1.369
98846W        W65277   9.930   7.574   0.907
98847W        W65278   3.020  44.751  12.269
98848W        W65279  37.953  12.175  13.569
98849W        W65280  10.865  22.379   2.435
98850W        W65281  18.584  25.432   4.192
98851W        W65282  44.234  16.816   3.806
98852W        W65283  15.126  37.114   2.714
98853W        W65284  26.039  14.557  11.479
98854W        W65285  34.516  39.998  11.091
98855W        W65286  13.018  31.472  13.855
98856W        W65287  11.108   5.936  13.441
98857W        W65288  31.283  30.099   2.955
98858W        W65289   6.819  28.920   3.747
98859W        W65290  24.072  30.067  13.456
98860W        W65291  37.953  16.796  13.106
98861W        W65292  20.530   0.243   2.794
98862W        W65293  12.360  20.192   3.359
98863W        W65294  22.803  40.743  13.614
98864W        W65295  31.168  37.670  12.585
98865W        W65296  20.671  26.788   3.270
98866W        W65297  10.182  14.665  11.191
98867W        W65298  20.295  31.986  11.203
98868W        W65299  10.522  37.482   0.233
98869W        W65300  36.413  30.202  14.696
98870W        W65301  14.654  25.392   0.819
98871W        W65302  17.429  22.944   3.213
98872W        W65303  15.894  26.136   0.316
98873W        W65304  25.492  16.982  11.529
98874W        W65305  44.974  44.930   1.206
98875W        W65306  15.276  18.664   0.856
98876W        W65307   9.607  44.677   3.218
98877W        W65308  12.933   3.652  13.061
98878W        W65309  18.823  15.641  14.392
98879W        W65310  22.679  19.340  12.962
98880W        W65311  18.719  41.553   3.631
98881W        W65312  22.096  30.167  14.097
98882W        W65313  21.224   0.340   4.252
98883W        W65314  10.680   5.800  10.532
98884W        W65315   6.599  42.892  14.456
98885W        W65316  44.297  23.638   2.371
98886W        W65317   9.187  30.509   0.045
98887W        W65318  31.865  28.557   2.803
98888W        W65319  30.094   7.074   1.848
98889W        W65320   4.923  11.162   0.664
98890W        W65321  27.567  30.398   3.775
98891W        W65322  13.951  21.961   3.607
98892W        W65323  30.603  15.851   0.147
98893W        W65324  38.557  30.184   4.055
98894W        W65325  14.651  15.257   4.341
98895W        W65326  29.584  42.518   1.602
98896W        W65327   3.459  42.547  11.164
98897W        W65328  32.872  13.147   4.536
98898W        W65329  30.158  16.634   4.780
98899W        W65330  14.597  39.242  13.549
98900W        W65331  29.396  38.736  11.007
98901W        W65332  15.081  13.787   3.282
98902W        W65333  16.153   8.689   4.532
98903W        W65334  17.026  40.696   1.421
98904W        W65335  13.677   5.632  12.508
98905W        W65336  30.026  41.825   1.168
98906W        W65337  29.604   4.228  10.488
98907W        W65338  17.139  37.277   1.740
98908W        W65339  17.986  40.059  11.976
98909W        W65340  39.448  29.103  12.332
98910W        W65341  30.233   6.514  14.441
98911W        W65342  33.559   5.928   0.711
98912W        W65343  15.767   2.924  13.603
98913W        W65344  11.757  12.749  12.833
98914W        W65345  25.057  17.986   1.597
98915W        W65346   3.214  11.978  12.240
98916W        W65347  41.604  11.805  11.093
98917W        W65348  38.760  13.862   3.262
98918W        W65349  28.858   4.625  11.313
98919W        W65350  23.916  26.985  12.406
98920W        W65351  23.759  42.153   0.752
98921W        W65352  16.079  33.892  14.292
98922W        W65353  44.159  23.063  12.851
98923W        W65354   6.142   1.011  13.801
98924W        W65355  26.678  28.864  13.895
98925W        W65356   0.249  41.631  13.752
98926W        W65357  13.290   4.718  14.769
98927W        W65358  20.200   2.230   2.166
98928W        W65359  15.482  41.363  12.866
98929W        W65360  26.697  10.863  14.884
98930W        W65361  15.152  33.522   4.164
98931W        W65362  19.694   7.769  11.196
98932W        W65363  12.125  32.551  14.402
98933W        W65364  36.162   3.508  12.847
98934W        W65365  22.202  40.526  12.344
98935W        W65366  38.272  11.133   3.836
98936W        W65367  28.435  16.612   1.766
98937W        W65368  11.191  38.469   3.580
98938W        W65369  18.581  18.384   4.679
98939W        W65370  42.090  13.299   2.709
98940W        W65371  15.169  20.232   2.676
98941W        W65372  21.167  18.182   2.385
98942W        W65373  22.459  10.236  14.894
98943W        W65374  14.245  12.572  13.499
98944W        W65375   2.176  25.128   1.330
98945W        W65376   5.254  11.140  13.931
98946W        W65377   2.794   6.691  12.053
98947W        W65378  13.449   7.410  10.754
98948W        W65379   3.405  19.258  11.672
98949W        W65380  31.555  43.742   1.800
98950W        W65381  43.517  40.862  12.078
98951W        W65382  37.798  11.765   4.135
98952W        W65383  20.132   0.060  10.879
98953W        W65384  26.368  42.526  13.255
98954W        W65385  25.472  39.301   2.294
98955W        W65386  34.513  29.918  11.575
98956W        W65387  33.631  22.019  12.086
98957W        W65388   5.228  13.213  11.544
98958W        W65389  40.735  11.155  14.872
98959W        W65390  17.275   7.146   1.827
98960W        W65391  31.661  17.283   4.122
98961W        W65392   4.109  13.143  12.457
98962W        W65393  34.611   8.461  11.093
98963W        W65394   1.958  24.185   3.292
98964W        W65395  21.670  14.867  14.321
98965W        W65396   1.752   5.241  12.456
98966W        W65397  36.397   1.538   3.916
98967W        W65398   1.834  19.753   0.531
98968W        W65399  44.531  34.873   0.150
98969W        W65400  34.220  25.686  13.067
98970W        W65401  23.210  39.482   3.890
98971W        W65402  33.579  24.397  14.890
98972W        W65403  40.340   0.476   1.241
98973W        W65404  43.337   2.848  10.727
98974W        W65405  36.832  44.277   3.767
98975W        W65406  28.077  30.061   0.565
98976W        W65407  23.720  20.009   3.645
98977W        W65408   5.026  32.298   4.232
98978W        W65409  13.678  41.300   2.497
98979W        W65410  39.793  39.231  13.988
98980W        W65411   9.493  34.634  14.887
98981W        W65412  27.954  42.611  13.944
98982W        W65413  34.879  11.680  10.992
98983W        W65414   6.417  22.254  13.578
98984W        W65415  22.776   3.716   3.032
98985W        W65416  23.678  12.911  13.797
98986W        W65417  44.851  23.587   3.102
98987W        W65418  34.355   6.391   2.971
98988W        W65419   9.303   6.252   2.864
98989W        W65420  25.425  25.613   4.525
98990W        W65421   3.329  12.782  10.346
98991W        W65422  30.567  29.227   4.249
98992W        W65423  13.135  11.290   0.035
98993W        W65424  41.469  14.813   2.341
98994W        W65425  30.362   2.876  12.415
98995W        W65426  27.148  41.632  11.497
98996W        W65427  41.945   1.040  10.317
98997W        W65428  42.182   2.992   0.392
98998W        W65429  27.436   0.086   4.152
98999W        W65430  44.448  25.935   4.538
99000W        W65431   7.927   1.948   3.264
99001W        W65432  35.192  43.326  13.612
99002W        W65433   2.309  11.869  13.219
99003W        W65434  21.668   3.161  13.776
99004W        W65435  23.013  31.074  13.431
99005W        W65436  16.709   7.187  12.025
99006W        W65437  16.031  10.078   3.174
99007W        W65438  22.858   2.655   1.652
99008W        W65439  30.236  11.983   1.824
99009W        W65440   8.213  18.639  12.103
99010W        W65441  12.347  26.163   0.017
99011W        W65442  27.964  19.523  13.920
99012W        W65443  21.019  24.193   3.700
99013W        W65444   4.646  40.099  13.983
99014W        W65445  20.472   7.463  13.458
99015W        W65446  16.232  30.421   2.554
99016W        W65447  24.664  40.979   2.162
99017W        W65448  24.166  16.256   9.990
99018W        W65449   7.150  36.513   0.837
99019W        W65450   5.367   9.698  10.750
99020W        W65451  14.244  20.870  12.933
99021W        W65452  12.529  22.542   3.451
99022W        W65453  15.265  24.652   2.082
99023W        W65454  23.176  43.398   1.216
99024W        W65455  18.007   7.442  12.013
99025W        W65456  21.517  38.689   3.177
99026W        W65457  31.605   4.917   0.872
99027W        W65458   8.429   6.905  13.143
99028W        W65459  21.213  41.855  13.370
99029W        W65460  27.980  23.482  12.858
99030W        W65461   4.209  40.687   0.387
99031W        W65462  35.605  14.091   2.838
99032W        W65463  33.021  25.030   4.584
99033W        W65464  44.294  40.403  14.850
99034W        W65465   3.753   1.759   1.728
99035W        W65466   6.104  35.934  14.120
99036W        W65467   5.008   4.211  11.890
99037W        W65468  43.286  30.845   1.414
99038W        W65469  38.626  27.306   3.211
99039W        W65470   1.071  21.055   4.590
99040W        W65471   1.200  38.098  12.964
99041W        W65472  15.306   6.652   3.048
99042W        W65473   4.051  25.844   1.741
99043W        W65474   1.338  29.588  11.603
99044W        W65475   3.643   9.457   0.766
99045W        W65476  34.567  11.301   3.602
99046W        W65477  36.622  24.221  11.646
99047W        W65478  42.918  21.074  13.857
99048W        W65479  39.018  17.717   3.675
99049W        W65480   8.321  30.091   2.669
99050W        W65481  33.467  13.604  14.214
99051W        W65482  21.983   5.235  14.407
99052W        W65483   0.034  35.376  14.024
99053W        W65484   1.997  13.592  11.243
99054W        W65485   4.278  28.792   2.316
99055W        W65486   1.092  27.225   4.082
99056W        W65487   0.558  10.650  13.460
99057W        W65488  36.749  14.292   0.817
99058W        W65489   7.677   3.744   2.637
99059W        W65490  28.290   7.427   1.801
99060W        W65491  20.988  30.611   3.771
99061W        W65492   8.354  17.272   2.832
99062W        W65493  30.911   3.663  14.554
99063W        W65494   4.521  15.806   4.437
99064W        W65495  41.188  17.838   3.326
99065W        W65496   8.848  40.578   0.849
99066W        W65497   4.223  39.721   1.390
99067W        W65498  11.347  40.492   0.736
99068W        W65499  40.627  21.720   2.059
99069W        W65500  15.888   1.908  14.832
99070W        W65501  10.438  14.791   1.486
99071W        W65502  15.389  35.394  11.210
99072W        W65503  44.456  18.484   2.252
99073W        W65504  13.180  36.553  13.112
99074W        W65505  15.100  41.029  11.160
99075W        W65506   0.493  35.637  13.960
99076W        W65507   2.678   4.935  13.057
99077W        W65508  35.445  42.445  10.716
99078W        W65509  11.097   6.711  14.912
99079W        W65510  27.054   8.236   1.989
99080W        W65511  11.106  12.774   2.444
99081W        W65512  26.551  29.297   3.271
99082W        W65513   7.849  27.063  13.853
99083W        W65514  15.669  13.176  13.358
99084W        W65515  10.812  12.280   3.848
99085W        W65516  30.692  43.765   2.381
99086W        W65517   0.743  39.388  13.525
99087W        W65518  41.430  32.089  11.945
99088W        W65519  20.788   3.055  11.123
99089W        W65520  25.330  35.604  10.752
99090W        W65521   7.613  14.993  11.127
99091W        W65522  39.438  31.744   3.202
99092W        W65523  16.215  37.146  12.635
99093W        W65524  38.136  37.071  10.723
99094W        W65525  44.958  22.028  12.547
99095W        W65526  19.105   0.695   0.344
99096W        W65527   6.468   6.844   1.868
99097W        W65528  20.071  41.530   1.561
99098W        W65529  28.439  27.563   4.507
99099W        W65530  35.052   7.470  12.159
99100W        W65531   8.070  17.749  12.102
99101W        W65532  44.407  36.372  12.363
99102W        W65533  32.521  25.687   2.699
99103W        W65534  12.857  42.105  13.945
99104W        W65535  34.488  36.165   1.243
99105W        W65536   5.858  36.793  12.209
99106W        W65537  19.783  18.534   4.960
99107W        W65538  44.472  37.914  10.790
99108W        W65539   2.849  30.059   2.721
99109W        W65540  16.986  14.031  11.589
99110W        W65541  26.007  22.547   4.002
99111W        W65542  18.286   9.647   4.085
99112W        W65543  35.230  35.430  11.637
99113W        W65544  23.630  32.684  11.292
99114W        W65545  17.125  37.207   4.455
99115W        W65546  35.836  27.710  13.037
99116W        W65547   1.755  12.555  13.415
99117W        W65548  12.221  29.707  13.599
99118W        W65549  28.931  35.391  13.031
99119W        W65550  27.160  41.814  10.991
99120W        W65551  21.297  35.997  10.329
99121W        W65552   1.336  40.464  11.021
99122W        W65553  19.247  11.287  11.612
99123W        W65554  15.773  18.994   3.638
99124W        W65555  40.103  12.845  12.075
99125W        W65556   9.302   7.259   0.405
99126W        W65557  33.188  31.903  10.646
99127W        W65558  18.485   7.396   3.331
99128W        W65559  24.488  23.087   0.422
99129W        W65560   8.978  18.623  12.567
99130W        W65561  33.902  41.011  10.331
99131W        W65562   8.930  30.968   1.531
99132W        W65563  12.943  19.984   3.206
99133W        W65564  32.495  28.250  10.735
99134W        W65565  15.166  40.928  14.812
99135W        W65566  18.690  21.846   0.856
99136W        W65567  43.749  15.836  13.294
99137W        W65568  30.625  32.555   2.377
99138W        W65569   8.202  16.879   3.164
99139W        W65570  11.791   2.408  13.075
99140W        W65571  23.998   8.473  12.154
99141W        W65572   5.673   5.374  11.708
99142W        W65573  15.059  20.074   0.773
99143W        W65574   0.524  23.574  13.153
99144W        W65575  23.313  14.367   1.683
99145W        W65576   5.447  25.670  13.461
99146W        W65577  26.499  24.561   4.971
99147W        W65578  12.674  21.074  11.483
99148W        W65579   1.310  42.795  13.857
99149W        W65580  10.191  38.732  12.065
99150W        W65581  42.854  29.121  13.390
99151W        W65582  16.286  20.467  13.249
99152W        W65583  29.306  34.952  14.379
99153W        W65584   3.345  38.896   4.553
99154W        W65585  24.661  28.123   3.538
99155W        W65586  20.430  11.738  13.501
99156W        W65587   5.599  21.242   0.479
99157W        W65588  11.391  44.890   1.977
99158W        W65589  10.845  23.489  14.370
99159W        W65590  37.778  32.334  12.687
99160W        W65591  25.828  35.314  14.920
99161W        W65592   7.785  42.578   0.266
99162W        W65593  19.525  38.619   2.229
99163W        W65594  15.694  39.525  10.427
99164W        W65595  34.788  26.651  10.645
99165W        W65596   0.283  13.735  14.072
99166W        W65597  34.897  37.089  12.603
99167W        W65598  33.293  42.029  11.249
99168W        W65599   2.065  26.489  11.414
99169W        W65600  14.251  19.681  11.049
99170W        W65601  26.128  11.212   4.140
99171W        W65602  40.365  43.609  11.149
99172W        W65603  44.014  34.008   3.211
99173W        W65604  14.810  24.479   1.265
99174W        W65605  24.684  20.327  12.368
99175W        W65606   2.866  16.809   0.060
99176W        W65607  36.892  11.387   3.942
99177W        W65608  22.619  25.928   2.317
99178W        W65609  43.547  36.910  12.465
99179W        W65610  43.727  40.968   1.606
99180W        W65611  33.393  31.525   3.332
99181W        W65612  22.699  19.048   2.820
99182W        W65613  29.478  16.239   0.481
99183W        W65614   7.913  13.629   2.829
99184W        W65615  19.132  28.928  12.973
99185W        W65616  43.985  15.893  12.829
99186W        W65617  44.512  11.420  14.376
99187W        W65618   8.772   1.719  14.380
99188W        W65619  35.421  21.575   3.065
99189W        W65620   9.440  18.541  11.675
99190W        W65621  11.468  15.064  12.938
99191W        W65622  44.021  37.623   0.382
99192W        W65623   2.734   1.282   4.533
99193W        W65624  12.581  25.993  14.603
99194W        W65625   3.801  31.970  14.286
99195W        W65626  36.441  36.097   1.598
99196W        W65627  29.926   1.706  14.871
99197W        W65628  10.040   4.763   1.013
99198W        W65629  39.323  38.641   1.537
99199W        W65630  38.005   1.856  14.460
99200W        W65631   5.904  12.307  12.608
99201W        W65632  36.625  38.354  12.154
99202W        W65633  19.622  21.761   3.648
99203W        W65634  23.635  26.202   0.328
99204W        W65635  20.211  42.284  11.625
99205W        W65636  25.551  38.998   0.361
99206W        W65637  15.077  22.426  12.593
99207W        W65638  35.490  15.062   4.408
99208W        W65639  43.902  24.508  11.159
99209W        W65640  21.331  25.133   4.657
99210W        W65641   3.918  44.455   2.193
99211W        W65642  20.293   7.981  13.810
99212W        W65643  37.109  16.843  13.424
99213W        W65644  42.632  38.557   1.844
99214W        W65645  33.769  38.479   4.965
99215W        W65646   1.121  26.817  13.422
99216W        W65647   0.550  32.692   3.996
99217W        W65648  25.509  16.078   4.142
99218W        W65649   3.013  27.457   3.364
99219W        W65650   2.764  36.370  14.817
99220W        W65651  28.370  31.257  13.514
99221W        W65652  42.350  33.191   2.698
99222W        W65653   2.458  27.998   4.556
99223W        W65654  19.536  44.972   0.936
99224W        W65655  30.313  40.980  12.157
99225W        W65656  43.547  30.943  11.690
99226W        W65657  12.797  44.008   2.056
99227W        W65658   6.387  34.671   4.858
99228W        W65659  23.525  41.985   2.738
99229W        W65660  44.327  44.305  12.172
99230W        W65661  37.126  41.985   0.413
99231W        W65662   3.580  10.081  14.760
99232W        W65663  32.433  27.293  14.920
99233W        W65664  28.708  21.733  12.223
99234W        W65665   0.823  26.687   1.244
99235W        W65666  18.583  35.781   0.174
99236W        W65667  30.697  32.831  12.097
99237W        W65668   5.240  11.809  10.508
99238W        W65669  12.999  30.549  13.705
99239W        W65670  35.630  32.925   0.704
99240W        W65671  33.375  18.240  14.893
99241W        W65672  38.254  16.743   4.847
99242W        W65673  16.565  39.858   1.942
99243W        W65674  10.178  25.953  14.976
99244W        W65675   9.111  32.383   0.839
99245W        W65676  33.565  27.014   4.643
99246W        W65677   0.899   0.978  11.085
99247W        W65678  37.489  34.282  12.147
99248W        W65679  16.753  21.935   2.228
99249W        W65680   9.173  23.711  13.985
99250W        W65681   8.873  21.517  13.095
99251W        W65682   9.963  26.409  10.259
99252W        W65683  42.016  43.744  11.668
99253W        W65684  38.077  18.266   3.130
99254W        W65685  40.868   2.461   4.695
99255W        W65686  19.588  13.635  11.146
99256W        W65687  42.386  11.023   2.706
99257W        W65688  12.235   9.397  12.828
99258W        W65689  34.004  44.209   3.678
99259W        W65690   2.434  34.777   4.586
99260W        W65691   9.817  21.356   2.019
99261W        W65692  13.824  41.208   3.321
99262W        W65693   4.492  28.090  14.238
99263W        W65694  27.469  14.743  13.995
99264W        W65695  28.061  31.647   4.073
99265W        W65696   0.978   9.196  10.967
99266W        W65697  21.720  18.023  11.949
99267W        W65698  42.044  19.492  12.308
99268W        W65699  27.908  35.618  11.753
99269W        W65700  33.390  43.891  13.279
99270W        W65701  27.940  37.642  12.091
99271W        W65702  21.014   8.514   3.703
99272W        W65703  11.105  11.380  12.512
99273W        W65704   2.983   9.319   1.433
99274W        W65705  15.749  23.227   3.709
99275W        W65706  36.757  19.729  14.365
99276W        W65707  21.711  21.659  14.458
99277W        W65708  22.612  21.883  11.236
99278W        W65709  39.499  32.250   3.100
99279W        W65710  34.943   4.011   0.195
99280W        W65711   1.235  31.072   2.872
99281W        W65712  44.181  17.373   0.952
99282W        W65713  32.629  14.297  12.608
99283W        W65714  40.448  31.349  11.608
99284W        W65715   3.895  12.336   1.317
99285W        W65716  10.249  43.077  12.443
99286W        W65717  10.460  42.558   1.533
99287W        W65718  21.727   7.374   4.407
99288W        W65719   9.756  38.877  12.818
99289W        W65720  20.282   7.921   3.794
99290W        W65721  26.547  14.553  11.689
99291W        W65722  27.856  23.812  10.234
99292W        W65723  22.632  35.876   1.874
99293W        W65724  43.578  25.825  14.763
99294W        W65725  10.451  21.186  13.780
99295W        W65726  14.845  11.359   2.415
99296W        W65727   4.318  23.233  11.943
99297W        W65728   5.017   4.814  14.874
99298W        W65729   7.207  39.264   2.755
99299W        W65730   8.897  15.286   4.600
99300W        W65731  17.645  40.420  10.651
99301W        W65732  42.090  23.312   1.378
99302W        W65733   3.178  20.960   1.307
99303W        W65734  12.196   9.892   4.670
99304W        W65735  11.441  12.218   3.820
99305W        W65736  33.404  14.559  12.513
99306W        W65737  41.029  28.695  13.441
99307W        W65738   8.311  16.969  13.699
99308W        W65739   2.698  39.844   2.931
99309W        W65740   5.425   2.910  12.825
99310W        W65741  32.106  19.170   2.190
99311W        W65742  26.117  14.537  12.521
99312W        W65743  29.538   7.247  11.699
99313W        W65744  32.322   0.494   3.191
99314W        W65745  42.205  18.640  13.958
99315W        W65746  17.606  34.973  13.300
99316W        W65747  10.789  42.336   1.870
99317W        W65748  35.436  44.225  14.872
99318W        W65749  15.028  10.782   3.901
99319W        W65750   2.341  43.950  10.942
99320W        W65751   0.988   1.341   1.744
99321W        W65752  21.765   8.374  12.894
99322W        W65753  18.588   0.389   2.803
99323W        W65754  42.525  11.850   4.880
99324W        W65755  27.004  44.920   2.316
99325W        W65756  42.371  27.426   2.133
99326W        W65757   3.447  14.121  10.109
99327W        W65758  37.991   2.172  13.371
99328W        W65759  20.751  17.943  11.134
99329W        W65760  26.909   5.423   4.405
99330W        W65761   6.758  26.001  11.646
99331W        W65762  28.067   3.548   4.495
99332W        W65763  28.074  36.819  13.403
99333W        W65764   7.770  27.211   0.163
99334W        W65765  27.486  36.338   1.187
99335W        W65766  15.389  36.260  13.455
99336W        W65767  39.821  37.254  12.540
99337W        W65768   3.713  21.847   0.931
99338W        W65769   6.227  15.031  12.346
99339W        W65770  18.016  22.947   4.047
99340W        W65771   9.527  11.295  12.599
99341W        W65772  29.887  28.532  12.579
99342W        W65773  18.231  40.464   0.816
99343W        W65774  15.603  28.057   1.962
99344W        W65775  17.667  14.332  13.404
99345W        W65776  36.773   1.410  11.509
99346W        W65777  19.271  36.618   3.100
99347W        W65778  21.844  34.890  13.606
99348W        W65779  27.758  20.085   2.230
99349W        W65780  39.032  16.854   3.338
99350W        W65781  44.375   1.232  11.100
99351W        W65782  31.642  16.644  14.449
99352W        W65783   1.681  39.085   2.754
99353W        W65784  19.829  40.296   0.308
99354W        W65785  20.167  18.013  12.602
99355W        W65786  26.573   2.727  14.849
99356W        W65787   3.224  43.558   4.224
99357W        W65788  24.162  27.182  14.230
99358W        W65789  33.459  25.483   0.568
99359W        W65790  38.143  12.672   0.511
99360W        W65791  22.495   1.259  12.409
99361W        W65792   4.001   7.396   0.321
99362W        W65793  17.185  42.393  11.703
99363W        W65794  38.639  31.586   3.351
99364W        W65795  19.076  34.255   3.866
99365W        W65796  35.520   8.600  10.887
99366W        W65797  39.358  33.497  13.914
99367W        W65798   4.278  32.514  11.976
99368W        W65799   2.535  15.815  13.882
99369W        W65800  28.112  26.085   1.527
99370W        W65801  19.094  39.921   2.334
99371W        W65802  14.935   6.964   5.054
99372W        W65803  29.829   2.096   0.783
99373W        W65804   3.756  40.974   2.338
99374W        W65805   4.251  32.848   2.382
99375W        W65806   6.291  25.696   3.848
99376W        W65807  35.642  10.051   4.386
99377W        W65808  43.043  27.739  13.515
99378W        W65809  35.082  25.789  14.462
99379W        W65810   6.486  23.771  12.476
99380W        W65811  19.129   6.358   1.609
99381W        W65812  31.455   6.910  10.723
99382W        W65813  38.331   7.609  13.497
99383W        W65814  18.393  36.667  12.079
99384W        W65815  23.092  34.336   2.630
99385W        W65816  22.484  24.565  12.822
99386W        W65817  33.956   5.787   1.417
99387W        W65818   4.363  42.387  10.563
99388W        W65819   5.321  15.777  10.542
99389W        W65820  41.134  26.494   0.323
99390W        W65821  35.465  19.156   3.285
99391W        W65822  16.308  38.110  13.400
99392W        W65823  24.850  25.560   0.805
99393W        W65824  22.290  28.796   2.788
99394W        W65825   9.197  23.033  12.391
99395W        W65826   1.725  16.009   4.442
99396W        W65827  40.274  32.882   2.619
99397W        W65828  28.920  16.749  14.486
99398W        W65829  21.188  14.657  10.932
99399W        W65830  16.245  23.189   4.170
99400W        W65831  23.651  24.274   4.697
99401W        W65832  38.052   3.215   0.107
99402W        W65833  16.676  30.094  12.692
99403W        W65834  13.732  14.909   2.732
99404W        W65835  36.108  37.115   1.732
99405W        W65836  25.892  42.360  14.335
99406W        W65837  26.133  36.445   4.693
99407W        W65838   1.736  35.946   2.831
99408W        W65839  39.322  33.340   2.827
99409W        W65840  26.914  37.512  14.419
99410W        W65841  23.915   4.923   2.714
99411W        W65842  41.682  26.147   3.309
99412W        W65843  11.795  43.082   5.127
99413W        W65844   4.249  28.561  14.322
99414W        W65845  41.816  21.374  14.468
99415W        W65846  36.663  16.389  12.418
99416W        W65847  13.634  34.425  12.906
99417W        W65848  27.074  24.898   4.504
99418W        W65849  20.100  43.801   0.633
99419W        W65850   0.803  15.319   1.404
99420W        W65851   0.925   3.335  13.931
99421W        W65852  14.819  11.251   0.667
99422W        W65853  28.156  35.058   4.139
99423W        W65854  44.524  15.278   1.097
99424W        W65855  11.415   3.303  13.920
99425W        W65856   6.551   5.794  11.897
99426W        W65857   3.980  13.151   3.241
99427W        W65858  41.899  26.104  10.687
99428W        W65859  42.259  42.747  10.784
99429W        W65860  27.692  24.703  11.706
99430W        W65861   5.430   8.359  11.198
99431W        W65862  44.956   0.507  13.465
99432W        W65863   7.672  26.941  14.743
99433W        W65864  16.511  43.812   0.986
99434W        W65865  25.648  10.243   0.360
99435W        W65866  35.859  27.378   0.801
99436W        W65867  27.140  25.032   0.625
99437W        W65868  25.020  40.839  12.227
99438W        W65869  15.623  36.518  14.689
99439W        W65870  35.479  23.415  11.603
99440W        W65871  11.328  43.506   1.711
99441W        W65872  40.946  39.717  13.036
99442W        W65873  22.046  10.642  14.314
99443W        W65874  26.275  39.355   3.690
99444W        W65875  16.686  36.112   3.740
99445W        W65876  37.920  42.453  13.133
99446W        W65877   8.761  28.203  12.415
99447W        W65878   3.901  18.034   0.012
99448W        W65879  35.093  42.595  13.088
99449W        W65880  34.632   7.293   4.057
99450W        W65881  41.989  30.813   4.183
99451W        W65882  21.460  24.984  11.195
99452W        W65883  34.091   6.214   4.589
99453W        W65884   9.930  10.912  10.998
99454W        W65885  42.793  12.324  12.124
99455W        W65886  32.458  44.022   2.215
99456W        W65887  28.433  33.148   0.717
99457W        W65888  34.500  41.518   2.078
99458W        W65889   1.256  12.652   1.481
99459W        W65890   9.318   6.756   0.263
99460W        W65891  20.104  17.211   0.276
99461W        W65892  29.226   4.887   0.919
99462W        W65893  19.219  39.172  13.951
99463W        W65894   4.494  39.141   2.255
99464W        W65895  26.584  34.354   2.303
99465W        W65896  40.871  21.186  12.091
99466W        W65897  34.517   8.493  11.603
99467W        W65898   2.556   7.155  10.177
99468W        W65899  19.648  37.269  12.938
99469W        W65900  21.738  28.002   2.569
99470W        W65901  39.522  32.126   1.360
99471W        W65902  20.818  16.629  12.577
99472W        W65903  16.394  40.696   1.788
99473W        W65904  14.851  14.763  10.638
99474W        W65905  35.128  34.556   2.236
99475W        W65906   3.939   5.925   4.717
99476W        W65907   2.736  17.224  13.054
99477W        W65908  42.572  43.938   1.270
99478W        W65909  35.271   6.333   0.409
99479W        W65910  14.543  21.105  13.965
99480W        W65911   4.253  34.197   1.792
99481W        W65912  35.009  34.407  14.322
99482W        W65913   2.979  17.108   3.683
99483W        W65914   3.519  36.981   3.316
99484W        W65915   6.316  41.312   4.510
99485W        W65916  29.925   7.479  12.739
99486W        W65917  13.142   2.314  13.210
99487W        W65918  33.247  44.895  12.077
99488W        W65919  36.344  42.563   3.514
99489W        W65920  28.257  39.328   2.648
99490W        W65921  33.929  24.796   0.647
99491W        W65922   5.172   3.836   2.746
99492W        W65923  29.703  41.278   2.155
99493W        W65924  32.493   4.771  13.546
99494W        W65925  24.589  40.351   3.780
99495W        W65926  18.011  32.402   1.831
99496W        W65927  24.717  11.320   2.357
99497W        W65928  13.795   2.814   0.035
99498W        W65929  15.384  17.076   4.474
99499W        W65930   2.197  15.148   2.310
99500W        W65931  11.178  10.805   3.780
99501W        W65932   2.280  16.608  11.676
99502W        W65933  34.010  40.818   1.795
99503W        W65934  19.161  36.401   4.366
99504W        W65935  28.707  15.551  14.943
99505W        W65936   8.279  28.430   2.812
99506W        W65937  14.389  41.972   2.180
99507W        W65938  24.260  13.584   3.332
99508W        W65939   7.266  38.085   3.907
99509W        W65940  44.436  13.919  10.550
99510W        W65941  12.991   1.979   4.595
99511W        W65942  19.858   3.353  13.520
99512W        W65943  27.028   9.859   4.825
99513W        W65944   0.341  37.400   2.644
99514W        W65945  42.444  33.154  13.318
99515W        W65946  14.290  15.735   0.418
99516W        W65947  12.077   8.685   0.747
99517W        W65948  33.601  42.373  12.093
99518W        W65949  30.028  30.979   0.382
99519W        W65950  24.523  23.007  13.940
99520W        W65951  33.570  35.130  10.065
99521W        W65952  19.691  31.640   1.321
99522W        W65953  37.158  10.548  11.236
99523W        W65954   9.120   3.682  14.756
99524W        W65955  36.162  23.027   3.722
99525W        W65956  20.137  27.085   3.903
99526W        W65957  29.590  32.446  10.549
99527W        W65958   6.534  42.203   0.039
99528W        W65959  17.927  32.491  11.447
99529W        W65960   7.467   8.588  12.495
99530W        W65961  23.990  11.097  11.207
99531W        W65962   6.945  14.074   2.805
99532W        W65963  27.806  37.053  12.992
99533W        W65964  23.030  43.963   3.312
99534W        W65965  27.497  31.558  14.343
99535W        W65966  28.648  43.717  13.338
99536W        W65967  19.978  25.280   4.097
99537W        W65968  18.647  14.846   0.338
99538W        W65969   2.652  24.533   1.789
99539W        W65970  35.943  43.493   0.921
99540W        W65971  16.228   5.453  13.551
99541W        W65972  33.507   4.842  10.993
99542W        W65973  36.475   5.952  12.012
99543W        W65974   8.234  11.137   0.928
99544W        W65975  11.721  43.764  12.549
99545W        W65976   3.193  21.828  11.094
99546W        W65977  26.102  27.452  11.183
99547W        W65978  33.449  26.737  14.947
99548W        W65979   8.308  40.637  13.528
99549W        W65980   2.629  15.162  14.177
99550W        W65981  41.859  41.040   3.783
99551W        W65982  41.295  22.070  12.972
99552W        W65983  42.888  38.856  11.570
99553W        W65984  25.206   0.931  11.213
99554W        W65985  32.861  22.656   3.368
99555W        W65986  28.819  20.306  12.072
99556W        W65987  19.615   1.545   4.224
99557W        W65988   8.681  13.175  13.512
99558W        W65989  23.726   8.849   3.919
99559W        W65990  41.906  35.212  11.637
99560W        W65991   9.875  35.901   1.493
99561W        W65992  37.355  36.035  10.156
99562W        W65993  21.271  29.073  14.039
99563W        W65994  28.383  30.364   0.873
99564W        W65995  20.872  31.911   5.239
99565W        W65996  16.469   9.470   3.962
99566W        W65997  34.094   2.313  12.517
99567W        W65998  14.084  27.687  12.462
99568W        W65999  12.157   3.284  12.498
99569W        W66000  23.464   7.184  12.101
99570W        W66001  22.668  17.401   4.089
99571W        W66002  44.934   8.251   4.627
99572W        W66003  25.568   0.531   4.118
99573W        W66004  20.255  20.926  13.275
99574W        W66005  24.850   3.332   3.362
99575W        W66006   0.683   6.705   4.570
99576W        W66007  24.694  32.383   1.778
99577W        W66008   0.188  10.346   0.852
99578W        W66009  42.930  27.061   0.936
99579W        W66010  35.559  42.373  14.429
99580W        W66011  26.654   6.860   1.604
99581W        W66012  32.206  27.170  13.430
99582W        W66013  18.017  13.093   5.372
99583W        W66014   9.863  42.478  12.893
99584W        W66015  29.455  32.636   3.657
99585W        W66016  44.836   3.072   3.848
99586W        W66017   5.243  18.199   0.524
99587W        W66018  42.656  30.436  10.412
99588W        W66019  40.994  29.226   2.259
99589W        W66020  29.653  29.378   4.485
99590W        W66021  21.229  44.801   0.022
99591W        W66022  31.063   8.876   4.448
99592W        W66023  31.184  19.088   4.140
99593W        W66024  28.629  43.225  10.652
99594W        W66025   7.374  37.369  13.056
99595W        W66026  10.378  39.418  14.278
99596W        W66027   7.691  20.788  14.959
99597W        W66028  20.566  10.719  13.091
99598W        W66029   5.299  18.015  12.454
99599W        W66030  40.309  42.292  10.720
99600W        W66031  42.533   0.339   0.541
99601W        W66032  15.221  27.027   4.561
99602W        W66033   1.271  31.594  14.759
99603W        W66034  13.330   5.408  10.769
99604W        W66035   2.242  20.815   1.428
99605W        W66036  23.603  21.014  10.241
99606W        W66037  14.217  44.162   3.278
99607W        W66038  39.193  31.797  12.532
99608W        W66039   9.707  13.313  11.697
99609W        W66040  15.040  26.569   0.394
99610W        W66041  27.714  27.150  11.702
99611W        W66042  18.581  22.092   1.938
99612W        W66043  32.995  27.290  12.761
99613W        W66044  39.856   8.805   4.176
99614W        W66045  43.796   6.684   4.132
99615W        W66046  39.075  24.658   2.957
99616W        W66047  15.536  26.702   2.266
99617W        W66048   3.243  27.911   3.187
99618W        W66049  11.117  40.794   1.409
99619W        W66050  43.962   3.757   4.820
99620W        W66051  42.263  35.490   4.657
99621W        W66052  35.025  40.460  14.079
99622W        W66053   6.530  12.665  13.932
99623W        W66054  33.998  13.371   2.208
99624W        W66055  39.376  24.472  10.403
99625W        W66056  19.270  36.477  13.293
99626W        W66057  32.910  33.771   2.660
99627W        W66058  26.556   0.822   0.236
99628W        W66059  31.710  29.494  11.608
99629W        W66060  22.058  14.697   1.266
99630W        W66061   3.542   3.356   3.679
99631W        W66062   7.577   7.797  10.819
99632W        W66063  11.212  40.914   0.395
99633W        W66064  42.943  42.518  12.506
99634W        W66065  14.424   3.713   3.523
99635W        W66066  18.632   8.142  13.396
99636W        W66067  41.333   7.636   3.258
99637W        W66068  21.498  29.586   1.744
99638W        W66069  22.232   4.851   1.568
99639W        W66070   4.128   6.527   0.870
99640W        W66071  20.703  17.328   3.315
99641W        W66072  26.679  43.382  14.826
99642W        W66073  23.156  32.448  13.812
99643W        W66074  33.963  44.304  14.312
99644W        W66075  17.712  37.506  14.423
99645W        W66076  26.173  39.123  12.345
99646W        W66077  19.286  27.658   3.226
99647W        W66078  23.346  11.178   1.779
99648W        W66079  25.075   1.426  14.552
99649W        W66080   3.626  40.033   2.806
99650W        W66081  24.228  28.400   3.742
99651W        W66082  13.875  25.210   0.330
99652W        W66083  42.303  34.068  11.147
99653W        W66084  26.599  31.785   1.862
99654W        W66085  17.087   3.247   0.841
99655W        W66086  26.718  36.933  10.946
99656W        W66087   4.860  16.534  11.684
99657W        W66088  17.577  26.489  12.023
99658W        W66089  31.078  36.047   3.344
99659W        W66090  43.357  38.882  11.237
99660W        W66091  27.016   5.197   2.840
99661W        W66092  18.510   1.461  12.972
99662W        W66093  34.082  36.505   2.544
99663W        W66094  37.173  25.485  14.344
99664W        W66095  33.968  30.961  12.624
99665W        W66096  22.455   2.415   5.139
99666W        W66097  28.293   8.413  10.216
99667W        W66098  20.868   2.825  13.454
99668W        W66099   2.186  12.879  13.435
99669W        W66100  44.728   0.209  13.871
99670W        W66101   6.003   7.253  14.505
99671W        W66102  36.897  21.241  11.880
99672W        W66103  30.129  24.750  14.954
99673W        W66104  33.794  23.120  12.819
99674W        W66105  43.399   7.984  10.614
99675W        W66106  42.354  26.093   2.333
99676W        W66107  38.893  24.562  10.568
99677W        W66108  33.487  36.341   0.812
99678W        W66109  39.780  24.788   3.822
99679W        W66110   5.432  27.067   0.760
99680W        W66111  36.790  11.847   4.130
99681W        W66112   2.856  13.178  10.891
99682W        W66113  18.118   5.955  11.575
99683W        W66114  37.506  28.511   4.881
99684W        W66115  12.020  23.721  11.049
99685W        W66116  33.536  17.517   1.277
99686W        W66117  20.006  39.572  12.059
99687W        W66118  21.681  35.022  12.592
99688W        W66119  43.936   2.698  11.851
99689W        W66120  41.305   2.407  10.739
99690W        W66121  20.357   1.452  11.199
99691W        W66122  12.395   9.255   2.376
99692W        W66123  43.895  39.214   2.867
99693W        W66124  26.131  24.969   4.044
99694W        W66125  31.152  26.092   2.125
99695W        W66126  33.089  19.673   1.296
99696W        W66127  10.798  22.395   1.827
99697W        W66128  13.668  33.903  14.728
99698W        W66129  42.602   7.796   0.752
99699W        W66130  25.890  28.086   0.801
99700W        W66131  17.249  18.604   0.282
99701W        W66132  43.423  32.622  14.888
99702W        W66133  44.566  22.410  10.887
99703W        W66134  20.582  27.695  11.021
99704W        W66135  42.137  32.490   3.302
99705W        W66136  37.632  20.766   0.446
99706W        W66137  44.458  37.447  13.385
99707W        W66138  33.101  29.592   5.388
99708W        W66139  31.770   0.779  12.936
99709W        W66140  16.533   4.733  14.902
99710W        W66141   8.014   1.311  12.404
99711W        W66142  15.330  23.493   2.429
99712W        W66143  25.925  42.956  14.915
99713W        W66144  40.916  10.873   0.428
99714W        W66145  13.774  18.658   1.883
99715W        W66146   5.355   4.672   2.777
99716W        W66147  25.625  25.157   4.645
99717W        W66148  40.540   8.780   1.932
99718W        W66149   8.982  29.551   2.876
99719W        W66150   9.247  27.903  14.212
99720W        W66151  44.707  32.876   1.198
99721W        W66152  18.512  28.145  12.545
99722W        W66153  30.530  13.314  13.600
99723W        W66154  44.891  33.178   0.339
99724W        W66155  11.441  22.463  12.907
99725W        W66156  42.913   6.714  10.599
99726W        W66157  17.337   6.775  13.413
99727W        W66158  20.439  34.152  11.656
99728W        W66159  31.082  25.478  12.137
99729W        W66160  44.152  25.480  13.482
99730W        W66161  33.141  39.358  14.868
99731W        W66162  17.798   1.441   3.402
99732W        W66163  30.361   8.908  12.608
99733W        W66164  26.553   1.330   0.795
99734W        W66165  43.438   3.081  14.973
99735W        W66166  18.747  37.665  10.627
99736W        W66167  10.641  15.827  10.686
99737W        W66168  37.980  25.090   3.012
99738W        W66169   2.099  38.036   2.248
99739W        W66170  43.265  22.063   2.097
99740W        W66171  31.990  30.541   0.177
99741W        W66172   2.375   3.972   3.428
99742W        W66173  19.580  22.168  14.729
99743W        W66174  43.814   3.814  14.763
99744W        W66175  20.639  36.145   4.984
99745W        W66176  13.752  36.403   3.268
99746W        W66177  40.362  30.409  10.298
99747W        W66178  35.551  13.816  10.696
99748W        W66179  16.848  35.351   1.693
99749W        W66180  12.385   6.792  10.408
99750W        W66181  19.044  31.847   1.490
99751W        W66182  21.786  18.133   2.334
99752W        W66183  42.170  42.065  12.521
99753W        W66184  12.801  21.573  11.405
99754W        W66185  13.327  17.239   2.343
99755W        W66186   2.748  31.590   0.957
99756W        W66187  24.558  15.652  13.964
99757W        W66188  31.630   5.812  14.621
99758W        W66189  27.245  15.221   2.157
99759W        W66190  31.708   7.147  13.996
99760W        W66191  35.463  34.378  13.768
99761W        W66192   2.753  16.216   2.727
99762W        W66193  16.237  24.393   2.772
99763W        W66194  36.525  20.891   2.586
99764W        W66195  27.779  20.466   1.375
99765W        W66196  34.151  25.929   2.203
99766W        W66197  24.520  41.377  13.894
99767W        W66198  41.891  24.017  12.489
99768W        W66199  27.657  10.234  11.494
99769W        W66200  17.333  38.898  14.199
99770W        W66201  21.940  22.245   3.851
99771W        W66202  43.643  25.616  13.585
99772W        W66203   4.290  25.623  12.103
99773W        W66204  18.698  35.482  14.290
99774W        W66205  32.431  14.071   2.656
99775W        W66206  40.058  41.110  14.716
99776W        W66207  15.453   1.481  13.315
99777W        W66208  26.738  43.596  14.363
99778W        W66209  21.065  37.723  11.162
99779W        W66210  25.754   1.446  13.811
99780W        W66211  13.545  25.599   3.324
99781W        W66212  36.483  31.904   2.625
99782W        W66213  32.504  16.187  12.871
99783W        W66214   7.387  33.491  10.950
99784W        W66215   2.311  11.158   2.643
99785W        W66216   5.005   9.807   4.558
99786W        W66217  18.691   7.844   4.028
99787W        W66218  11.300  44.761   0.964
99788W        W66219  36.428  17.062  14.267
99789W        W66220  40.340  35.418   2.844
99790W        W66221  11.924  43.990   0.864
99791W        W66222   2.856   0.229  13.930
99792W        W66223  34.671  35.632   4.123
99793W        W66224  30.132  42.928   2.690
99794W        W66225   9.427  28.564  14.784
99795W        W66226   3.276  31.812  13.132
99796W        W66227  16.060  32.459  12.681
99797W        W66228  15.374  11.160  12.083
99798W        W66229  19.656  36.670   1.943
99799W        W66230   0.021   7.848  13.833
99800W        W66231  14.339  18.087  13.883
99801W        W66232  21.911   1.906   2.205
99802W        W66233  15.641  27.380  14.481
99803W        W66234  16.879  13.760   2.740
99804W        W66235   1.057  10.221  11.146
99805W        W66236  30.409  39.518   2.730
99806W        W66237  39.437  38.349   2.383
99807W        W66238  28.031  24.172  12.517
99808W        W66239   6.458   1.834   0.375
99809W        W66240  34.617  22.484   0.947
99810W        W66241   0.811   6.737  11.527
99811W        W66242  24.014  27.074   3.793
99812W        W66243  23.978  27.555   3.573
99813W        W66244  14.247  18.286  12.414
99814W        W66245  30.606  27.077   1.202
99815W        W66246  41.832  39.448  13.353
99816W        W66247   4.912  17.324   1.787
99817W        W66248  29.079  21.751   3.654
99818W        W66249  25.261  31.583  11.746
99819W        W66250  18.215  36.938  13.483
99820W        W66251  42.180  42.346  12.955
99821W        W66252  37.923   3.852  13.383
99822W        W66253  10.291  24.093  12.187
99823W        W66254  39.382  31.234   3.095
99824W        W66255   0.331  38.802   3.105
99825W        W66256  11.778   8.361   0.397
99826W        W66257  17.539   4.262   9.843
99827W        W66258  10.763  26.946   2.256
99828W        W66259  16.895  28.508   1.327
99829W        W66260  18.958  32.352   1.485
99830W        W66261   6.204  39.788  12.980
99831W        W66262  41.098  31.894   0.957
99832W        W66263  19.050  28.722   2.475
99833W        W66264  19.993  27.515   2.857
99834W        W66265   0.835  39.848  14.398
99835W        W66266   5.854  21.161   1.625
99836W        W66267  15.244  33.411   4.647
99837W        W66268   4.994  12.423  12.304
99838W        W66269  42.665  34.773   3.373
99839W        W66270  38.966   3.283   0.214
99840W        W66271   9.709  11.082  14.508
99841W        W66272   1.001  23.698  14.383
99842W        W66273   6.846  35.449  10.679
99843W        W66274  12.830  19.617  11.577
99844W        W66275  29.365   2.196  12.917
99845W        W66276  11.156  16.630  12.129
99846W        W66277  18.803  13.227   1.446
99847W        W66278  44.156  21.240  12.243
99848W        W66279  15.124  14.124   2.866
99849W        W66280  40.441  23.947  13.060
99850W        W66281  12.148  17.105  14.538
99851W        W66282  12.392   1.001  14.868
99852W        W66283  35.811  32.475   0.930
99853W        W66284  27.270  41.281   4.093
99854W        W66285  28.916  23.277  12.021
99855W        W66286  17.433   8.179  11.163
99856W        W66287  32.547   6.682   3.330
99857W        W66288  14.650   7.853   0.997
99858W        W66289   8.152  13.031   1.265
99859W        W66290  36.263  38.890  12.367
99860W        W66291  41.881  32.465   4.127
99861W        W66292  36.360  27.410   4.546
99862W        W66293  37.773  36.274   0.772
99863W        W66294   5.246  41.340   0.374
99864W        W66295  16.898  33.562   0.774
99865W        W66296  37.391  27.287  14.785
99866W        W66297   3.530  10.333  13.928
99867W        W66298  37.326  18.276  14.739
99868W        W66299  11.289  34.471  13.311
99869W        W66300   5.895  44.490  10.167
99870W        W66301  13.667  21.801   3.209
99871W        W66302   3.212  21.059   0.315
99872W        W66303  21.794  30.704   0.699
99873W        W66304   8.122   6.295  12.401
99874W        W66305  30.723   2.767  14.185
99875W        W66306  12.661  30.681   1.760
99876W        W66307  17.626  14.647   1.373
99877W        W66308   6.714  14.150   1.787
99878W        W66309  23.041   9.789   3.600
99879W        W66310  21.474  15.498   4.196
99880W        W66311  12.178   8.704   0.236
99881W        W66312  32.077  43.803   3.357
99882W        W66313  32.474  41.023   0.810
99883W        W66314   7.043  38.078   1.675
99884W        W66315  23.712  17.639   1.406
99885W        W66316  27.104  14.869   1.679
99886W        W66317  37.421  41.538   4.674
99887W        W66318  38.389   9.663   4.581
99888W        W66319   7.136  36.777  10.752
99889W        W66320  23.805  19.440   0.275
99890W        W66321  35.563   0.869  11.021
99891W        W66322  13.490  39.325   3.370
99892W        W66323   5.786  42.834  12.643
99893W        W66324  14.554  38.680   1.307
99894W        W66325   7.030  36.892   1.716
99895W        W66326  32.110  28.242  13.931
99896W        W66327  17.492  24.140  11.138
99897W        W66328  11.306  28.182  11.661
99898W        W66329  27.956  33.789   1.015
99899W        W66330   5.526   4.196   2.715
99900W        W66331   5.677   1.956   3.164
99901W        W66332  42.355  10.615   0.332
99902W        W66333  12.850   5.372  10.993
99903W        W66334  41.707  42.477   4.649
99904W        W66335  24.069  11.864   2.259
99905W        W66336  16.901  38.809  12.623
99906W        W66337  43.160   5.285   3.741
99907W        W66338  41.778  34.506   0.446
99908W        W66339  42.813   8.132  13.741
99909W        W66340  33.116   9.360  13.368
99910W        W66341  16.324  21.756   3.399
99911W        W66342  21.086  31.084  14.566
99912W        W66343  19.508  10.080   1.830
99913W        W66344  26.188  40.365  11.034
99914W        W66345  12.942   0.272   3.913
99915W        W66346   6.170  38.061   1.946
99916W        W66347  25.819  29.036   1.786
99917W        W66348  18.238  17.000  14.897
99918W        W66349  36.634  23.261  13.822
99919W        W66350  32.876  39.478   4.137
99920W        W66351  11.406  30.865   4.745
99921W        W66352   2.712  43.513   0.366
99922W        W66353  40.795  43.386  13.331
99923W        W66354  12.774  10.217  12.705
99924W        W66355  38.791   9.123   0.986
99925W        W66356  39.617  33.960  12.112
99926W        W66357  14.622  33.322   3.492
99927W        W66358  26.944  40.804   0.380
99928W        W66359  15.479   0.436  13.917
99929W        W66360  13.796   1.216   3.394
99930W        W66361   1.285  44.022   1.941
99931W        W66362  11.162  35.431   3.761
99932W        W66363  41.091  43.348  11.979
99933W        W66364  28.254  38.385  10.911
99934W        W66365  43.726  23.117   1.274
99935W        W66366  14.594   7.227   0.719
99936W        W66367  30.447  15.399  11.586
99937W        W66368  11.231  38.841   1.236
99938W        W66369  26.899  18.195  11.589
99939W        W66370  25.234  38.517   2.724
99940W        W66371  17.289  42.782   3.276
99941W        W66372   3.815  27.887   0.878
99942W        W66373  13.763  29.960  11.280
99943W        W66374   5.191  13.897  14.001
99944W        W66375  26.252   1.365   4.389
99945W        W66376  37.830  33.568   2.741
99946W        W66377   6.004   9.546   3.805
99947W        W66378  40.771   6.797   4.783
99948W        W66379   7.237  32.896  12.652
99949W        W66380  10.206  21.344   3.695
99950W        W66381  15.623  27.126   1.389
99951W        W66382  12.893  19.462   0.811
99952W        W66383  33.136  17.682  14.853
99953W        W66384  22.652  35.531   4.540
99954W        W66385  36.723  43.907  14.493
99955W        W66386   0.944  40.319  13.563
99956W        W66387  39.308   5.164  14.569
99957W        W66388   7.847  30.693   0.735
99958W        W66389  38.540   3.787   3.534
99959W        W66390  19.657  42.324   0.337
99960W        W66391  24.417  30.508  14.372
99961W        W66392  35.346  24.415  11.591
99962W        W66393  18.148  17.751  13.444
99963W        W66394  17.519  40.865  12.402
99964W        W66395   0.173   0.339   1.479
99965W        W66396  27.565  24.655   4.648
99966W        W66397   3.852  10.711   4.429
99967W        W66398  20.780  33.741   0.729
99968W        W66399   7.766  25.755   2.773
99969W        W66400  12.644  29.979   3.193
99970W        W66401  24.079  38.322   3.252
99971W        W66402  39.389   9.487   4.562
99972W        W66403  19.791   8.831  14.849
99973W        W66404  32.073   7.355   4.315
99974W        W66405  13.850  22.962  12.497
99975W        W66406  36.392  16.279   1.241
99976W        W66407  20.285  18.612  14.700
99977W        W66408  12.078  38.344  10.770
99978W        W66409   9.228  38.763  12.656
99979W        W66410  22.008  36.428   2.444
99980W        W66411  38.066  12.340  12.677
99981W        W66412  40.335  43.828  14.887
99982W        W66413  37.839   8.557   3.025
99983W        W66414  31.671  26.560   4.552
99984W        W66415  44.893   4.497   2.012
99985W        W66416  15.840  30.059   2.160
99986W        W66417   1.246  25.996   3.869
99987W        W66418  34.593  43.895  13.761
99988W        W66419   6.213   7.295   1.895
99989W        W66420   7.979  22.078  13.457
99990W        W66421  11.656  29.008  10.579
99991W        W66422   3.678  30.018  12.540
99992W        W66423  18.621  36.630   1.805
99993W        W66424  21.722   1.195  11.990
99994W        W66425   5.738  39.077  12.054
99995W        W66426  17.610  19.038   2.858
99996W        W66427  36.966   0.050   2.812
99997W        W66428  14.353  20.219   5.274
99998W        W66429  44.023  22.057   4.614
99999W        W66430  41.016  40.538  12.514
    0W        W66431  39.944  13.269  14.242
    1W        W66432  15.930  36.935  11.087
    2W        W66433  29.053   0.863  14.220
    3W        W66434  28.572  12.820  10.519
    4W        W66435   6.225  29.558  11.752
    5W        W66436  28.195   6.826  12.395
    6W        W66437  28.922  20.174  14.456
    7W        W66438  43.082  38.697   1.634
    8W        W66439  24.819  26.020   2.257
    9W        W66440  17.269   3.314   4.539
   10W        W66441  33.600  40.433   4.619
   11W        W66442  13.402  11.368  14.026
   12W        W66443  12.653  40.599  14.175
   13W        W66444  37.573   2.960  14.399
   14W        W66445  24.357  41.087  12.935
   15W        W66446  21.805  38.483   3.698
   16W        W66447  11.081  11.864   1.174
   17W        W66448   9.358  28.489   0.742
   18W        W66449  16.211  25.692   0.017
   19W        W66450  36.715   3.139  14.998
   20W        W66451  38.940  21.610   1.835
   21W        W66452  11.453  13.692   4.462
   22W        W66453   9.632   0.141   4.661
   23W        W66454   3.934  35.032  11.687
   24W        W66455  34.070   5.190   3.785
   25W        W66456   7.751  33.128  10.607
   26W        W66457   0.403  23.300   2.220
   27W        W66458  23.778  29.520  12.502
   28W        W66459   6.889  40.802  11.612
   29W        W66460  12.210  27.944   3.257
   30W        W66461  31.500  25.285   3.261
   31W        W66462  31.941  37.962   2.390
   32W        W66463  35.354  43.757  12.458
   33W        W66464  23.250  19.570  12.552
   34W        W66465   0.496  43.478  12.130
   35W        W66466  31.584   5.396  11.582
   36W        W66467  31.681  10.737   3.369
   37W        W66468  36.964   5.198   2.702
   38W        W66469  32.658  42.978   4.600
   39W        W66470  24.251  10.654   1.836
   40W        W66471   4.810   9.594  10.899
   41W        W66472  25.776  26.731   3.843
   42W        W66473  15.176  13.532  14.070
   43W        W66474  10.725   2.135  11.644
   44W        W66475  42.527  24.333   0.999
   45W        W66476  39.105  15.705  11.531
   46W        W66477  40.787  28.183   1.817
   47W        W66478   4.721  18.288   1.795
   48W        W66479  41.490  42.891   4.880
   49W        W66480  39.836  23.598   4.552
   50W        W66481  26.782  13.328   3.599
   51W        W66482   1.046   3.598   0.153
   52W        W66483  40.278  26.275  12.637
   53W        W66484  37.193  24.530  13.263
   54W        W66485  20.783  30.660  12.586
   55W        W66486  16.728  33.935   4.532
   56W        W66487  11.807  17.745   1.053
   57W        W66488  35.077  28.598   0.203
   58W        W66489   0.184  26.115   1.685
   59W        W66490  17.535  25.463   3.375
   60W        W66491  31.482  32.776  11.141
   61W        W66492  21.054   7.056   3.779
   62W        W66493  30.534  37.204  10.985
   63W        W66494  24.351  12.215  12.572
   64W        W66495  44.111  33.615   4.405
   65W        W66496  22.765  14.352  12.998
   66W        W66497  11.383   4.220  12.867
   67W        W66498  14.284  24.684   3.228
   68W        W66499  34.394  18.465  13.798
   69W        W66500  33.423   8.663  14.518
   70W        W66501  30.144   2.835   4.103
   71W        W66502   9.226  26.734  10.783
   72W        W66503  40.686  15.403   1.766
   73W        W66504   5.839  39.413  10.761
   74W        W66505  43.343  14.849   4.106
   75W        W66506  44.487  25.558  14.851
   76W        W66507  18.749  27.722   1.424
   77W        W66508  37.994   8.471   3.622
   78W        W66509  30.153  22.258   0.770
   79W        W66510  29.777  32.651   2.273
   80W        W66511  30.497  21.740   0.873
   81W        W66512  29.552   7.189  13.025
   82W        W66513   5.845  35.991   4.797
   83W        W66514  17.717  10.585   4.398
   84W        W66515  35.073   0.951  12.507
   85W        W66516   0.677   8.771  12.641
   86W        W66517  14.573   7.021   3.794
   87W        W66518  37.848  12.233  11.692
   88W        W66519  33.920  18.615   0.455
   89W        W66520  29.049   3.826  13.467
   90W        W66521  31.685  31.574   1.480
   91W        W66522  24.750  29.538  13.374
   92W        W66523  22.694   9.532   4.243
   93W        W66524  19.586  43.366   3.629
   94W        W66525  39.803   7.662  14.074
   95W        W66526  29.038  43.808   4.402
   96W        W66527  22.602  41.698   3.753
   97W        W66528   5.896  17.793   4.928
   98W        W66529   1.102  10.329   4.784
   99W        W66530  10.498  39.037   5.050
  100W        W66531   0.631  15.834   2.779
  101W        W66532  35.430  32.678  12.988
  102W        W66533  44.781   0.079  10.802
  103W        W66534  14.426  33.902  11.163
  104W        W66535  23.462  28.401   1.951
  105W        W66536  29.173  22.969   3.105
  106W        W66537  10.168   5.404   2.270
  107W        W66538  18.186   6.418   3.550
  108W        W66539  16.129  18.768   0.806
  109W        W66540  17.794  26.568  11.045
  110W        W66541  13.653  18.652   0.460
  111W        W66542   1.277  32.414  14.470
  112W        W66543   5.813  43.510  13.032
  113W        W66544   9.615  15.982   0.785
  114W        W66545  43.412  23.664   2.374
  115W        W66546  28.124   6.277  12.455
  116W        W66547  37.059  10.460   3.397
  117W        W66548  36.946  22.928   4.344
  118W        W66549  12.725   2.396  14.088
  119W        W66550   3.837   6.986   3.634
  120W        W66551   3.983  15.320  14.508
  121W        W66552  13.055  21.352  10.108
  122W        W66553  31.599  42.761   1.086
  123W        W66554   3.401  35.921   3.131
  124W        W66555   4.753  33.667  14.469
  125W        W66556  25.640  28.088  12.625
  126W        W66557  12.606  37.550  14.418
  127W        W66558  19.328  20.140   3.379
  128W        W66559  42.285   5.281  14.827
  129W        W66560  37.473   6.228   4.247
  130W        W66561   0.660  14.277  13.591
  131W        W66562  40.118  44.956  11.196
  132W        W66563  24.500  37.000  11.467
  133W        W66564   8.404  16.551  13.380
  134W        W66565  32.237  35.020   1.218
  135W        W66566  43.957  28.704   2.805
  136W        W66567  38.371  11.042   1.468
  137W        W66568   6.391  30.420  12.116
  138W        W66569   4.228  35.819  14.907
  139W        W66570  36.530  24.031   1.707
  140W        W66571  20.822  13.681   3.094
  141W        W66572  16.176  42.603  13.548
  142W        W66573  33.487  39.852  14.082
  143W        W66574  11.947  24.816   2.855
  144W        W66575   6.323   6.517   2.419
  145W        W66576   7.893  44.841   2.560
  146W        W66577  12.757   1.234  11.082
  147W        W66578  20.900  43.217   2.872
  148W        W66579  32.064  11.006  13.468
  149W        W66580   3.231  35.343  13.066
  150W        W66581  21.084   0.526  12.857
  151W        W66582  31.942  34.933   2.914
  152W        W66583  24.793  27.184  11.623
  153W        W66584  40.143  20.273   4.508
  154W        W66585  14.864   0.951   4.326
  155W        W66586  44.311  26.017   3.619
  156W        W66587  31.609  31.544  14.952
  157W        W66588   7.111  39.875   4.255
  158W        W66589  41.576   5.646   2.302
  159W        W66590   4.696   1.927   3.187
  160W        W66591  43.255  28.333  11.609
  161W        W66592  44.211  34.394   4.770
  162W        W66593   8.800  35.686   2.186
  163W        W66594  40.268  21.040  10.859
  164W        W66595  15.797  23.732  12.631
  165W        W66596  42.296  38.108   3.217
  166W        W66597  29.889   7.668   0.517
  167W        W66598  37.776  17.147  12.028
  168W        W66599  13.322  19.849  10.406
  169W        W66600  29.077  42.631  11.781
  170W        W66601   8.446   8.323  14.424
  171W        W66602  31.139  42.842  13.957
  172W        W66603  24.555  31.104   2.669
  173W        W66604  21.072  42.056  11.629
  174W        W66605   5.855  13.054   3.130
  175W        W66606  33.349  24.976  14.215
  176W        W66607  43.642  11.190   0.068
  177W        W66608  41.889   9.772   0.027
  178W        W66609   1.249  10.856  10.957
  179W        W66610  41.381  19.351  14.744
  180W        W66611  17.280  35.823  12.561
  181W        W66612  19.069  38.532   1.407
  182W        W66613  33.443  21.755   2.819
  183W        W66614   7.174  44.891  12.446
  184W        W66615  16.754  18.308   1.120
  185W        W66616   1.716  13.803  10.865
  186W        W66617  41.969   8.240   2.689
  187W        W66618  43.503  16.062   1.808
  188W        W66619  27.526  12.685  13.035
  189W        W66620   0.919  25.734  11.553
  190W        W66621  12.027   4.986   2.199
  191W        W66622   0.933  29.586   1.880
  192W        W66623  34.052  24.607   4.333
  193W        W66624  20.850  12.243   0.409
  194W        W66625  10.323  42.892  13.888
  195W        W66626   0.430   6.725   3.799
  196W        W66627  28.806  40.806  13.592
  197W        W66628  23.613  34.399   1.644
  198W        W66629  25.191  27.042   1.360
  199W        W66630  33.454  14.098   1.865
  200W        W66631  13.452  29.546   3.192
  201W        W66632  21.141  22.243   3.696
  202W        W66633  28.991  15.819   3.059
  203W        W66634  20.804  33.984   3.139
  204W        W66635   8.688  18.273   3.251
  205W        W66636   6.207  24.123   4.041
  206W        W66637  40.523   3.946  13.827
  207W        W66638  41.262  40.531   5.221
  208W        W66639  35.461  32.293  12.072
  209W        W66640  37.432  27.165   4.568
  210W        W66641  12.170  16.839   1.399
  211W        W66642   5.856   7.856  13.006
  212W        W66643   8.748  19.239  14.888
  213W        W66644   9.416  36.025   1.210
  214W        W66645   5.243  35.616  13.517
  215W        W66646  37.963   3.224   3.394
  216W        W66647  41.984  36.660  12.794
  217W        W66648  21.311   0.584   2.450
  218W        W66649  20.710  17.744   1.403
  219W        W66650  44.256   5.356   1.279
  220W        W66651  30.180  18.324  11.663
  221W        W66652  23.013   1.038  12.546
  222W        W66653   6.987  43.580   4.041
  223W        W66654  17.171  26.593   2.857
  224W        W66655  19.164  26.034   2.869
  225W        W66656   4.373  40.465   0.830
  226W        W66657  34.951  41.882  12.051
  227W        W66658  43.432  23.940  14.048
  228W        W66659  44.240  22.598   3.201
  229W        W66660  36.001   5.984  13.984
  230W        W66661  42.533   4.414   0.349
  231W        W66662  37.009  26.123   4.071
  232W        W66663  29.469  29.900  10.824
  233W        W66664  30.924  37.609   0.405
  234W        W66665  26.505  13.423  11.569
  235W        W66666  27.943  11.327  12.517
  236W        W66667   8.580  42.843  13.487
  237W        W66668  30.574  44.991  13.592
  238W        W66669  15.520  14.813  11.593
  239W        W66670  43.777  22.188  13.814
  240W        W66671  24.506  31.937   3.667
  241W        W66672   9.453  25.124   2.351
  242W        W66673   5.314  16.854   0.718
  243W        W66674  30.970  25.414  13.751
  244W        W66675  43.569  34.922  14.857
  245W        W66676  11.283  15.696  12.467
  246W        W66677  15.344   5.382  13.396
  247W        W66678  41.931  35.388  11.129
  248W        W66679  16.860  31.937   2.931
  249W        W66680  10.223  32.286  14.547
  250W        W66681  19.719  35.179  10.648
  251W        W66682   6.028  26.239  12.992
  252W        W66683  28.996  43.374  11.936
  253W        W66684  39.255  43.482  10.827
  254W        W66685  40.306  30.370   4.928
  255W        W66686  22.002  31.183  14.884
  256W        W66687   5.675   0.851   3.761
  257W        W66688  15.099  33.988   0.908
  258W        W66689  15.285  21.621   2.402
  259W        W66690  13.856   9.895  14.469
  260W        W66691   6.848  40.724   4.488
  261W        W66692  43.309   6.428  10.747
  262W        W66693  24.124  31.204   3.622
  263W        W66694   9.665  17.826  12.986
  264W        W66695  33.149  18.739  10.284
  265W        W66696   9.139  30.813   2.460
  266W        W66697  38.251  18.798  13.072
  267W        W66698  22.727   6.627   0.385
  268W        W66699  20.482   9.477  14.531
  269W        W66700  13.166   6.500   5.076
  270W        W66701  40.329  29.832  13.099
  271W        W66702  27.863  17.523   3.189
  272W        W66703  34.432  22.137  13.553
  273W        W66704  20.077  44.572  14.500
  274W        W66705  20.369  32.821   3.169
  275W        W66706  25.277   7.499   1.741
  276W        W66707  28.416   0.502   3.736
  277W        W66708   7.244  20.379  10.700
  278W        W66709  31.349  36.053   2.121
  279W        W66710  23.252  20.322   4.464
  280W        W66711  28.346  38.600   4.960
  281W        W66712  18.336  44.511  14.593
  282W        W66713  23.838   7.351  14.698
  283W        W66714  16.328  32.155  11.422
  284W        W66715  29.887  31.220  14.106
  285W        W66716  14.972   2.777  13.875
  286W        W66717  36.912  30.342   3.848
  287W        W66718  41.777  12.827   3.631
  288W        W66719  29.524  11.660  13.002
  289W        W66720  24.676  27.688  11.616
  290W        W66721  21.515  38.006   0.172
  291W        W66722  33.412  41.885   1.329
  292W        W66723  21.231  31.664  11.957
  293W        W66724  31.876  24.927  11.232
  294W        W66725  12.092  34.984  14.606
  295W        W66726  25.728  17.655  11.977
  296W        W66727  29.465  30.518   2.283
  297W        W66728  39.882  27.036   3.665
  298W        W66729  36.123  21.021  12.090
  299W        W66730  23.710  18.899   0.333
  300W        W66731   9.901  32.951   4.059
  301W        W66732  18.888  31.158  13.891
  302W        W66733  17.221  20.606   0.459
  303W        W66734  33.449   9.748   0.393
  304W        W66735  42.262  21.771   4.300
  305W        W66736  21.183  40.424   0.209
  306W        W66737  32.288  37.912   4.573
  307W        W66738  26.707  27.512  14.311
  308W        W66739  33.090  35.726  11.251
  309W        W66740  39.753   7.933   1.287
  310W        W66741  28.335   5.765   2.942
  311W        W66742   6.773  27.912   3.673
  312W        W66743  41.067   5.768   1.416
  313W        W66744  42.930  39.955   2.086
  314W        W66745  36.407  36.153  12.495
  315W        W66746  14.160  10.182  13.760
  316W        W66747   6.430  10.972  12.416
  317W        W66748  27.978   1.762   2.194
  318W        W66749   8.788  40.793  13.327
  319W        W66750   0.953  16.176  11.639
  320W        W66751  24.264  35.125   2.382
  321W        W66752  14.970  33.535   0.731
  322W        W66753  40.936  38.078   1.829
  323W        W66754  41.004  42.596   0.420
  324W        W66755  33.083  33.172  13.910
  325W        W66756  38.667  37.593  13.272
  326W        W66757  36.112  43.049  12.369
  327W        W66758  44.063  32.596   0.307
  328W        W66759  40.984   2.995   3.656
  329W        W66760   7.862  30.163   1.675
  330W        W66761  32.871  34.630   2.414
  331W        W66762  26.119  39.532  13.055
  332W        W66763   7.795   0.434  14.894
  333W        W66764  23.725  36.410   2.852
  334W        W66765   1.804  17.562  10.711
  335W        W66766  27.607   4.399   0.466
  336W        W66767  17.563  12.299  14.176
  337W        W66768  12.235  32.091  10.136
  338W        W66769  22.265  22.771   0.335
  339W        W66770  26.534  31.883  13.824
  340W        W66771  43.229  41.234  11.027
  341W        W66772   4.408   6.299   2.141
  342W        W66773  40.921  35.274  11.551
  343W        W66774  40.866  40.255   3.231
  344W        W66775  38.470  23.806  11.641
  345W        W66776  36.634  22.499   4.443
  346W        W66777  43.949  36.650  14.587
  347W        W66778  23.052   6.753  14.929
  348W        W66779  43.817  40.594   2.823
  349W        W66780   6.250   6.237  13.513
  350W        W66781  23.084  15.800   1.811
  351W        W66782  30.346  33.497  10.675
  352W        W66783   9.892  21.374   3.280
  353W        W66784  28.056  39.378  13.895
  354W        W66785  20.296  15.790   2.455
  355W        W66786  28.684   1.247  13.954
  356W        W66787   7.787  17.741   4.930
  357W        W66788  25.559  15.574  10.702
  358W        W66789  44.893  20.228  13.037
  359W        W66790   8.166  26.036  11.177
  360W        W66791  36.121  33.690   3.311
  361W        W66792  28.480  24.248   3.304
  362W        W66793  10.906  13.756   2.933
  363W        W66794   3.491  32.447  11.324
  364W        W66795  18.326   9.186   0.875
  365W        W66796   7.856   6.422  14.847
  366W        W66797  24.920  19.364   1.746
  367W        W66798   1.455  25.871  12.350
  368W        W66799  11.066  13.605  10.712
  369W        W66800  28.313  13.397   2.727
  370W        W66801  29.237  21.117  10.764
  371W        W66802  27.065  44.301  10.624
  372W        W66803   2.877  41.854   1.953
  373W        W66804  12.205  41.404  11.853
  374W        W66805  27.868  25.976   3.745
  375W        W66806  28.633  10.810  13.841
  376W        W66807   7.006  19.914  10.704
  377W        W66808  26.181  17.111  11.170
  378W        W66809  36.931   3.943   0.870
  379W        W66810  22.150  13.667   4.275
  380W        W66811  12.868  12.837  13.380
  381W        W66812  21.504  22.185  11.133
  382W        W66813  27.900  42.346   3.736
  383W        W66814   4.013  28.214  14.002
  384W        W66815  17.635   2.785   0.158
  385W        W66816  17.806   0.392   3.887
  386W        W66817  33.801  43.848  12.226
  387W        W66818  31.390  35.911   1.213
  388W        W66819  21.109   1.977  13.845
  389W        W66820  42.782   5.474   4.574
  390W        W66821  24.253   2.876  14.343
  391W        W66822  36.908  14.762   2.655
  392W        W66823  26.580   0.234  11.085
  393W        W66824  37.502  32.977   3.509
  394W        W66825  29.841  34.644   5.168
  395W        W66826  12.407  20.909   4.501
  396W        W66827  10.843  39.328  11.748
  397W        W66828  37.021  41.932   2.563
  398W        W66829  16.387  34.421  13.444
  399W        W66830  20.724  27.183   2.759
  400W        W66831  35.840  13.133   2.670
  401W        W66832   9.266  43.979   0.386
  402W        W66833  11.765  10.096  11.948
  403W        W66834  25.109  22.212   2.406
  404W        W66835  40.469  24.456  12.994
  405W        W66836  28.671  10.145   4.750
  406W        W66837   3.019  25.671   3.720
  407W        W66838  24.722  19.295   3.146
  408W        W66839  13.118  42.213   4.165
  409W        W66840  13.890  24.451   0.833
  410W        W66841  17.770  11.233  11.839
  411W        W66842  30.865  39.569   2.422
  412W        W66843  43.132  37.767   3.523
  413W        W66844  15.672  43.465  12.421
  414W        W66845  10.900  16.507  12.565
  415W        W66846  26.737  20.217  11.183
  416W        W66847  23.920  24.600   2.986
  417W        W66848  32.522  22.984   3.914
  418W        W66849  32.332  29.799  13.622
  419W        W66850  19.468   6.494   2.106
  420W        W66851   1.664  32.485  11.026
  421W        W66852   4.195   4.400   3.232
  422W        W66853  14.476  40.551   0.232
  423W        W66854  14.145  10.542  13.396
  424W        W66855  25.181  16.159  10.531
  425W        W66856  18.632  22.036  11.607
  426W        W66857   3.413   0.305  11.200
  427W        W66858  39.037   0.343   3.980
  428W        W66859   5.274   4.349   3.167
  429W        W66860  32.393  18.194   2.193
  430W        W66861   5.810  41.900  14.369
  431W        W66862  42.218  15.410  14.809
  432W        W66863   1.473  13.310   4.063
  433W        W66864  17.856  34.961   3.878
  434W        W66865  31.048   4.016   2.164
  435W        W66866  34.954  29.972   2.476
  436W        W66867  27.192  35.618   4.542
  437W        W66868  33.916   1.776   4.242
  438W        W66869  19.011  11.372  14.125
  439W        W66870  17.565  11.772   2.734
  440W        W66871  35.960  16.497   3.509
  441W        W66872  19.349  24.299   4.878
  442W        W66873  17.942  31.588  13.361
  443W        W66874  19.753   3.105  11.455
  444W        W66875   1.893  39.523   1.369
  445W        W66876  20.075  37.368   4.360
  446W        W66877  44.035  44.021  14.568
  447W        W66878   2.139  18.795  13.068
  448W        W66879  17.986  19.763   3.321
  449W        W66880  28.902  17.997   0.024
  450W        W66881  41.138  28.192   3.225
  451W        W66882  43.266  30.750   4.906
  452W        W66883  22.489  39.748  11.238
  453W        W66884  40.097  34.056  13.503
  454W        W66885  37.243  32.574   0.967
  455W        W66886  43.814  19.079   4.273
  456W        W66887  44.434   3.523   0.835
  457W        W66888  44.254  41.837   3.298
  458W        W66889   9.933  44.393  12.406
  459W        W66890  22.560  36.891   4.152
  460W        W66891  42.451   5.959  11.893
  461W        W66892  43.323   8.302   3.796
  462W        W66893   8.563  15.084  12.852
  463W        W66894  25.604  23.127   1.357
  464W        W66895  42.740  17.255  12.431
  465W        W66896  10.777   8.708   1.707
  466W        W66897  18.258   6.730   2.404
  467W        W66898   6.575  31.984   3.169
  468W        W66899  29.846  20.981  12.808
  469W        W66900  32.761  30.055  11.032
  470W        W66901   1.061   3.816  10.756
  471W        W66902   1.431   5.728   0.902
  472W        W66903   1.199  11.969  13.822
  473W        W66904  39.036  16.571   4.347
  474W        W66905  19.450  11.514  10.581
  475W        W66906   2.232  42.438   2.866
  476W        W66907   1.896   6.580   0.728
  477W        W66908  40.506  32.507   1.127
  478W        W66909  28.353  37.613   3.733
  479W        W66910  26.493   8.963   0.889
  480W        W66911  30.607  26.928  12.218
  481W        W66912  27.666  23.619  14.802
  482W        W66913  31.634  24.710  12.053
  483W        W66914  37.996  17.290   0.844
  484W        W66915  24.998  24.515  10.767
  485W        W66916   1.282   2.778   3.590
  486W        W66917  16.160  31.353  12.550
  487W        W66918  29.421  43.813   0.296
  488W        W66919  23.297  26.476  14.997
  489W        W66920   2.299  28.573   1.675
  490W        W66921  23.994  10.204  12.394
  491W        W66922  23.280  35.108   2.373
  492W        W66923  32.379   8.675  14.322
  493W        W66924   4.560  19.067  12.630
  494W        W66925  29.130  15.679  11.592
  495W        W66926  20.169  12.759   4.127
  496W        W66927  34.335   1.085   3.182
  497W        W66928  17.736  41.001   0.930
  498W        W66929   9.883  36.478  11.085
  499W        W66930  32.482  41.630  14.247
  500W        W66931  11.938   0.653   5.087
  501W        W66932   1.355  21.138   4.154
  502W        W66933  40.587  24.116   2.650
  503W        W66934  31.331   9.297  14.056
  504W        W66935  24.955  29.208   2.685
  505W        W66936  31.157  20.109  13.975
  506W        W66937  23.432  44.773   4.419
  507W        W66938   0.826  33.425   1.415
  508W        W66939  10.845  36.629  13.424
  509W        W66940   6.436  32.686  12.929
  510W        W66941  33.804  32.062   5.307
  511W        W66942  27.538  25.175   4.636
  512W        W66943  18.031  34.491   3.756
  513W        W66944   7.300  38.425  10.898
  514W        W66945  37.446   0.458  14.634
  515W        W66946  13.674   3.296   4.098
  516W        W66947  22.851  27.740  14.488
  517W        W66948   9.485  34.219  11.156
  518W        W66949   9.113  15.755  13.926
  519W        W66950  20.991  19.951   4.866
  520W        W66951  10.886  30.954  11.663
  521W        W66952   8.892  41.370  14.466
  522W        W66953  28.695  16.136   3.374
  523W        W66954  29.270  32.597  13.055
  524W        W66955  37.260  40.587   2.019
  525W        W66956  12.130   5.734  10.721
  526W        W66957   8.200  14.731  12.982
  527W        W66958   4.115   9.885   2.615
  528W        W66959  31.812  31.151  12.914
  529W        W66960  19.118  30.368  14.327
  530W        W66961   3.510   6.021  12.947
  531W        W66962   3.540  24.715   3.673
  532W        W66963  40.294  43.791  12.893
  533W        W66964  16.675  19.244   2.707
  534W        W66965   0.439  22.754  11.554
  535W        W66966  10.549   0.944  12.005
  536W        W66967  11.003  15.578   4.611
  537W        W66968  17.650  24.653   2.821
  538W        W66969  18.342   2.263   3.530
  539W        W66970  18.074  10.706   1.285
  540W        W66971  29.509  36.817   4.532
  541W        W66972  19.018   5.150   4.900
  542W        W66973  43.346  33.576   4.809
  543W        W66974  32.675  16.105  14.844
  544W        W66975  41.226  26.233  13.639
  545W        W66976   1.161  41.863  12.244
  546W        W66977  42.848  19.347   2.815
  547W        W66978   1.009  44.515   1.840
  548W        W66979  10.661  15.704   2.475
  549W        W66980  32.518  34.869  12.039
  550W        W66981  22.971  16.085   3.545
  551W        W66982   0.262  13.911  11.179
  552W        W66983  40.443  13.885  13.879
  553W        W66984  43.286  29.946   0.926
  554W        W66985  40.248  40.476   0.950
  555W        W66986  23.018  27.331   3.550
  556W        W66987  21.949  21.793   2.586
  557W        W66988  38.406  16.349   1.393
  558W        W66989  25.493  39.204  11.316
  559W        W66990  30.645  31.690   2.691
  560W        W66991  26.130  37.878  13.396
  561W        W66992  30.369  28.383  10.836
  562W        W66993  35.052   2.297   4.191
  563W        W66994  42.275   2.495  12.068
  564W        W66995  23.316   5.309   0.905
  565W        W66996   4.898  40.533  10.728
  566W        W66997  32.900  11.216   4.076
  567W        W66998  35.815  35.069  10.334
  568W        W66999  21.547  22.033   0.225
  569W        W67000   1.005  33.118   3.421
  570W        W67001  38.508  38.547  13.476
  571W        W67002  20.023   2.684  11.386
  572W        W67003  12.509   0.432   4.156
  573W        W67004   4.679  35.947   0.947
  574W        W67005  24.589   1.490   2.367
  575W        W67006   2.396  13.360  12.999
  576W        W67007  25.573  36.511   4.918
  577W        W67008  19.085  29.015   3.834
  578W        W67009   5.662  44.639   0.087
  579W        W67010  13.512   9.373   4.496
  580W        W67011   1.233   7.312   2.165
  581W        W67012  35.123  37.227   3.632
  582W        W67013  29.402  14.996   0.952
  583W        W67014  30.525   3.351  12.301
  584W        W67015  33.643  10.955  12.770
  585W        W67016   1.368  39.338   1.341
  586W        W67017  29.520  19.285   2.832
  587W        W67018   1.037   7.399   3.331
  588W        W67019  16.692  30.701   1.017
  589W        W67020  40.963  10.892  12.530
  590W        W67021  30.056  17.242  12.962
  591W        W67022  38.511  42.321   0.312
  592W        W67023   5.929   3.153  14.324
  593W        W67024  23.778  43.409  11.955
  594W        W67025   6.916  40.361  11.362
  595W        W67026  19.035  22.790  10.706
  596W        W67027  25.606  44.837   2.446
  597W        W67028  16.587  13.191   2.734
  598W        W67029  30.023  27.450   2.810
  599W        W67030  24.994   3.783   3.163
  600W        W67031  28.381   1.576  11.050
  601W        W67032  39.049  13.159  11.280
  602W        W67033  23.579   6.657   4.550
  603W        W67034  15.250   4.169   3.123
  604W        W67035  42.695  36.642  12.508
  605W        W67036  29.629   6.633   3.288
  606W        W67037  39.895  28.640  14.396
  607W        W67038  15.699  26.794  10.314
  608W        W67039  32.588  27.847  11.540
  609W        W67040  20.306  39.309  12.522
  610W        W67041  29.468  14.557   3.368
  611W        W67042  33.483  40.442   1.805
  612W        W67043  29.022   8.653  13.415
  613W        W67044   9.963  21.528  10.589
  614W        W67045   3.237  33.662  13.814
  615W        W67046  35.074   1.284  14.895
  616W        W67047  22.145  35.572  13.594
  617W        W67048  35.587  26.549  13.386
  618W        W67049  44.197  26.673  10.552
  619W        W67050   7.122  25.630  12.329
  620W        W67051  39.223  18.934   4.521
  621W        W67052  26.568  21.085   4.114
  622W        W67053  19.029  28.775  10.892
  623W        W67054   6.149   1.184   1.136
  624W        W67055  22.682  24.425   2.739
  625W        W67056  26.860  23.609  14.389
  626W        W67057  13.332  28.788  10.818
  627W        W67058  12.116  43.249   2.584
  628W        W67059  44.954  24.610   1.817
  629W        W67060  15.536  18.333   4.111
  630W        W67061  39.231   2.424  14.009
  631W        W67062  24.065  44.016   2.358
  632W        W67063  43.856  23.464   0.039
  633W        W67064  43.868  18.313  13.452
  634W        W67065  43.490  25.721   3.364
  635W        W67066  25.279  41.469   1.630
  636W        W67067  21.712   5.803   3.421
  637W        W67068   8.775  22.590  10.702
  638W        W67069  32.436  13.183  13.925
  639W        W67070  32.012  22.626   4.541
  640W        W67071  40.963  14.399  12.552
  641W        W67072  41.137  33.917   3.753
  642W        W67073  41.907  33.934  14.259
  643W        W67074  39.992  35.361  11.312
  644W        W67075  31.443   0.681  13.814
  645W        W67076  38.091  38.079  10.827
  646W        W67077  21.323  22.163   3.189
  647W        W67078  41.054  19.216   0.444
  648W        W67079  21.935  43.804   1.424
  649W        W67080  18.613  18.505  13.870
  650W        W67081  27.842   9.791   1.740
  651W        W67082   0.976   5.917  11.224
  652W        W67083  29.529  14.330   3.827
  653W        W67084  13.216   7.777   2.125
  654W        W67085  23.598   0.563   3.871
  655W        W67086   6.971   2.779   0.299
  656W        W67087  34.850  16.251  14.810
  657W        W67088  38.526   0.997  11.129
  658W        W67089  18.877  12.562  11.161
  659W        W67090  41.095  32.595   3.078
  660W        W67091   5.529  24.614  13.373
  661W        W67092  44.960   1.858   4.713
  662W        W67093  23.109  37.858  11.189
  663W        W67094  30.987   3.405  14.093
  664W        W67095  24.081  10.902   4.103
  665W        W67096  30.435  16.178  12.451
  666W        W67097   1.210  13.105   3.657
  667W        W67098  36.080  23.524   3.928
  668W        W67099  21.064   5.966  14.859
  669W        W67100  31.412  32.350  12.266
  670W        W67101  40.895  26.936   1.419
  671W        W67102  41.475  43.727  13.480
  672W        W67103  33.977  20.031  11.890
  673W        W67104   8.869   6.671  12.926
  674W        W67105   3.899  26.682   3.285
  675W        W67106   0.280  22.739  12.902
  676W        W67107  16.075  22.031   1.135
  677W        W67108   2.419  38.004  12.460
  678W        W67109  21.499  31.077   4.478
  679W        W67110  10.700  34.859  12.074
  680W        W67111  35.513  36.509  11.112
  681W        W67112  15.114  29.369  13.540
  682W        W67113  33.906  15.119  12.010
  683W        W67114   0.670   9.698  12.442
  684W        W67115  18.247   1.757  10.714
  685W        W67116  31.966  10.545  13.170
  686W        W67117  20.608  38.785  11.838
  687W        W67118  29.852   7.628  11.582
  688W        W67119  39.109  31.532  11.638
  689W        W67120  22.797  33.490   2.295
  690W        W67121  35.176  15.557   3.672
  691W        W67122   8.849  18.559  13.460
  692W        W67123   0.830  26.134  14.844
  693W        W67124  13.966  16.922  14.504
  694W        W67125   8.138  22.070   1.800
  695W        W67126   2.941  37.618   2.094
  696W        W67127  20.056  38.010  14.085
  697W        W67128  28.186  30.119  12.057
  698W        W67129   7.389  19.074   1.149
  699W        W67130  32.487   6.639  13.814
  700W        W67131  26.951   6.855   2.076
  701W        W67132   0.675   9.786   0.523
  702W        W67133   3.291  36.802  10.771
  703W        W67134  41.458  42.539   0.179
  704W        W67135  20.693  22.639  13.915
  705W        W67136  42.341   3.492   1.398
  706W        W67137  42.936  21.942  12.194
  707W        W67138  20.559  28.035  10.605
  708W        W67139  37.369   5.287  14.968
  709W        W67140  44.805  36.995   1.205
  710W        W67141  12.742  27.980   4.664
  711W        W67142  18.704  22.220   4.802
  712W        W67143   4.485   7.280   0.392
  713W        W67144  12.841  11.775  13.389
  714W        W67145  19.758  26.994   0.074
  715W        W67146  31.486  14.824  11.220
  716W        W67147  22.014  33.371  10.548
  717W        W67148   9.731  13.690   2.664
  718W        W67149  23.877   1.207   2.357
  719W        W67150  10.253   3.322   1.349
  720W        W67151   4.729  44.529   0.030
  721W        W67152  34.842   2.243   2.134
  722W        W67153  20.219   3.850  12.375
  723W        W67154  11.883   0.921  14.799
  724W        W67155  32.141  33.919  12.070
  725W        W67156  17.816   3.215  11.118
  726W        W67157  25.175   3.214  12.162
  727W        W67158  21.447  44.853  10.653
  728W        W67159  28.531  26.099   1.897
  729W        W67160  15.108  29.613   1.899
  730W        W67161  39.509  23.499  12.907
  731W        W67162  26.104  39.031   2.352
  732W        W67163  39.397  20.771  13.527
  733W        W67164  38.698  15.059   0.351
  734W        W67165  29.673  13.190   2.152
  735W        W67166  24.839  32.663  10.195
  736W        W67167   7.164  12.147  12.063
  737W        W67168  31.135  20.550  12.866
  738W        W67169  19.001  23.251   2.344
  739W        W67170  31.522  41.951   2.624
  740W        W67171   0.190   6.695   0.178
  741W        W67172  18.109  28.236   4.166
  742W        W67173  39.058  16.689   3.833
  743W        W67174  15.643  28.895  11.109
  744W        W67175  38.464   6.986   0.263
  745W        W67176  38.162  16.342   3.826
  746W        W67177  33.070  35.558   2.789
  747W        W67178  37.869   0.716   1.671
  748W        W67179  24.729   8.854  14.378
  749W        W67180  38.619  30.019   1.433
  750W        W67181  31.079  22.693   4.550
  751W        W67182  34.007  33.615   3.718
  752W        W67183  21.970  13.865   3.772
  753W        W67184  15.599  43.657   4.582
  754W        W67185  28.226  42.892   4.906
  755W        W67186  43.318  15.708   2.653
  756W        W67187  28.386   8.401  13.438
  757W        W67188   7.661   6.414   4.289
  758W        W67189  36.417  35.653  12.451
  759W        W67190  11.696  30.884  10.611
  760W        W67191  29.156  34.895   2.427
  761W        W67192  24.491   3.789   1.294
  762W        W67193  34.573  30.092   1.015
  763W        W67194  21.526  34.594  12.850
  764W        W67195  22.797  44.045   0.190
  765W        W67196  41.888  37.993  11.612
  766W        W67197  13.047  41.591  14.842
  767W        W67198  19.518  31.226  14.217
  768W        W67199  27.116  26.731  12.397
  769W        W67200  28.936   9.146   3.096
  770W        W67201  36.462  20.712  10.732
  771W        W67202  38.198  24.614  13.928
  772W        W67203   7.470  38.611   0.292
  773W        W67204  36.415  40.753  12.116
  774W        W67205  19.001  32.379  12.416
  775W        W67206  27.656  31.158   4.730
  776W        W67207   6.881   6.668  12.021
  777W        W67208  33.495  26.552   2.025
  778W        W67209  33.889  21.046  11.837
  779W        W67210   5.041  27.622   0.132
  780W        W67211  22.004  39.036  11.568
  781W        W67212  22.442  21.082   3.883
  782W        W67213  36.088   1.521  13.963
  783W        W67214  20.988  30.518   1.776
  784W        W67215  17.067   3.745   0.792
  785W        W67216   1.164  34.349   4.522
  786W        W67217  43.857  18.452   0.363
  787W        W67218   0.411  31.010   4.662
  788W        W67219   7.271   0.418  13.067
  789W        W67220  11.354  26.298  10.723
  790W        W67221  31.896  27.875   0.770
  791W        W67222  29.418  22.221   1.434
  792W        W67223  18.626  24.287   0.857
  793W        W67224   5.171  35.762  13.029
  794W        W67225  19.212  28.337  10.705
  795W        W67226  15.451  10.637  14.778
  796W        W67227  23.816  37.368   1.327
  797W        W67228  30.383  41.660   3.973
  798W        W67229  15.307  28.223   3.241
  799W        W67230  36.589  42.751   3.059
  800W        W67231  32.648  17.136   4.056
  801W        W67232  41.913  24.532   3.739
  802W        W67233  43.547  31.188  14.861
  803W        W67234   0.767  27.633   3.988
  804W        W67235  42.532  32.297   1.744
  805W        W67236  43.462  12.929  10.543
  806W        W67237  44.139  31.653   3.677
  807W        W67238  35.635   8.835   4.667
  808W        W67239   7.642   2.494   4.611
  809W        W67240   7.417  41.994  11.282
  810W        W67241  24.631   2.384   4.847
  811W        W67242  35.632  37.824  13.105
  812W        W67243  43.235  11.663   4.985
  813W        W67244  16.133  24.606   1.973
  814W        W67245  12.648  30.006  14.910
  815W        W67246  39.953  36.547  13.981
  816W        W67247  21.655  15.286   2.273
  817W        W67248   8.856  42.660   3.257
  818W        W67249  20.721  30.727  13.625
  819W        W67250  24.456  25.152  13.524
  820W        W67251  15.306  23.447  14.422
  821W        W67252  17.195  42.043  13.038
  822W        W67253  33.310   5.424  13.002
  823W        W67254  42.449  37.645  13.420
  824W        W67255  34.463  39.490  12.041
  825W        W67256  18.575  29.182   1.487
  826W        W67257  37.149   4.620   1.496
  827W        W67258  18.448  15.291  14.440
  828W        W67259  13.733  42.776   4.273
  829W        W67260  32.601  11.582   2.736
  830W        W67261  13.055   5.449  12.975
  831W        W67262  38.353   8.657  14.108
  832W        W67263  41.029  34.563  14.603
  833W        W67264  19.490  20.764  11.567
  834W        W67265   0.521  44.920   0.490
  835W        W67266  27.677  23.659  11.637
  836W        W67267  25.166  26.479  12.043
  837W        W67268  24.185  36.893  11.044
  838W        W67269  42.528  14.073  11.079
  839W        W67270  16.268   5.894   0.874
  840W        W67271  13.127  12.679  14.271
  841W        W67272  26.679  14.284  14.012
  842W        W67273  12.789  31.047   4.767
  843W        W67274  19.332  42.486  14.922
  844W        W67275  23.587  35.799   1.729
  845W        W67276   1.503  43.256   1.366
  846W        W67277  42.197  11.193   1.836
  847W        W67278  11.147  23.057   4.485
  848W        W67279  24.723   1.161   0.338
  849W        W67280  29.040  12.676   3.622
  850W        W67281   6.857  36.503   2.945
  851W        W67282  23.602  23.787   2.951
  852W        W67283  44.615   3.450  10.711
  853W        W67284  34.396  37.662  13.839
  854W        W67285  39.008  10.953   1.635
  855W        W67286  36.373   7.572   0.133
  856W        W67287  36.528  41.964  14.338
  857W        W67288  26.761  41.846   2.651
  858W        W67289  14.662  39.431   1.771
  859W        W67290  29.957  39.438  13.646
  860W        W67291   1.785  24.742  11.059
  861W        W67292  27.676  19.770   4.206
  862W        W67293  21.290  35.546   1.464
  863W        W67294   6.076  35.302   4.123
  864W        W67295   9.359  36.950  14.821
  865W        W67296  13.184  43.652   2.223
  866W        W67297  44.969  35.061   0.418
  867W        W67298  43.180  13.465   3.767
  868W        W67299  32.213  37.392  11.193
  869W        W67300  33.846  31.085   1.296
  870W        W67301  42.232  23.041   2.236
  871W        W67302  36.859  25.964  12.561
  872W        W67303  42.079  21.518  11.928
  873W        W67304  17.623  39.136   3.295
  874W        W67305  34.712  34.377   1.022
  875W        W67306  31.231  13.761   2.575
  876W        W67307   8.801  19.346   0.932
  877W        W67308  20.460  17.733   4.077
  878W        W67309  19.782  35.375  11.941
  879W        W67310  43.386  26.939   4.345
  880W        W67311   5.747  42.083  10.524
  881W        W67312   6.421  22.946   4.481
  882W        W67313  32.643  10.177   2.873
  883W        W67314   1.726  24.675   3.183
  884W        W67315  28.307  31.332   1.181
  885W        W67316  29.185   5.458   3.180
  886W        W67317   7.189   1.008   0.209
  887W        W67318  21.494  20.727   4.726
  888W        W67319  21.020  11.230  11.142
  889W        W67320   4.502  32.563  10.425
  890W        W67321   9.248   3.414   1.437
  891W        W67322   3.857   6.458  13.427
  892W        W67323  40.472  19.006   1.744
  893W        W67324  24.732  21.275   2.926
  894W        W67325  26.691  20.607   4.259
  895W        W67326  34.867   8.634   3.193
  896W        W67327  16.128  38.978  12.362
  897W        W67328  29.457  13.578   2.723
  898W        W67329  41.509  44.521   2.694
  899W        W67330  25.275  12.166   3.675
  900W        W67331  35.474  22.610  12.077
  901W        W67332  37.272  26.037   4.507
  902W        W67333   7.963  30.639   4.180
  903W        W67334   3.173   6.161  12.539
  904W        W67335  20.794  31.953   1.893
  905W        W67336  19.361   5.143   0.078
  906W        W67337   9.893  16.090  11.146
  907W        W67338  12.142  42.765  11.943
  908W        W67339  40.087  21.571  11.632
  909W        W67340  30.871   3.135  14.525
  910W        W67341  25.251   5.355   2.137
  911W        W67342   6.246  12.372   0.804
  912W        W67343   8.504  36.037  10.205
  913W        W67344  17.616  39.565  11.293
  914W        W67345   8.455   4.728   2.019
  915W        W67346  36.304  28.626  11.898
  916W        W67347  17.727  35.849   3.747
  917W        W67348  32.704  35.222  14.417
  918W        W67349  23.814   5.869   4.318
  919W        W67350  27.469   7.287   5.055
  920W        W67351  34.394  12.731   0.558
  921W        W67352  15.674  32.619  11.503
  922W        W67353  15.333  14.285   3.347
  923W        W67354  14.183  35.376  13.044
  924W        W67355  42.525   4.168  11.157
  925W        W67356  39.954   0.197   2.250
  926W        W67357  42.814  23.027   0.831
  927W        W67358  38.024   1.437   3.223
  928W        W67359  24.707  20.457   4.554
  929W        W67360  32.953   3.813   4.415
  930W        W67361  29.220  36.153  14.853
  931W        W67362  15.687  41.870   1.258
  932W        W67363   1.903  35.609  14.433
  933W        W67364  22.589   8.451   3.051
  934W        W67365  32.107   0.476   0.753
  935W        W67366   0.640  27.689  10.781
  936W        W67367  34.299   7.163  12.891
  937W        W67368  21.204   0.491  12.019
  938W        W67369  18.841  24.938   4.196
  939W        W67370  21.610  32.318  14.221
  940W        W67371  17.234   2.720  11.513
  941W        W67372  13.328  14.743  11.654
  942W        W67373  42.970  44.281  13.487
  943W        W67374   1.155  37.414  14.061
  944W        W67375  21.291  32.313   2.301
  945W        W67376  11.791  42.927  14.971
  946W        W67377   9.197  13.212  13.549
  947W        W67378  13.332  13.010  10.276
  948W        W67379  19.164  24.477   0.791
  949W        W67380   7.751  33.182  12.088
  950W        W67381  41.481   3.734  14.823
  951W        W67382   8.775  34.585   3.143
  952W        W67383  21.193   4.808   2.481
  953W        W67384   4.572  10.212   5.249
  954W        W67385  39.867  44.362   3.611
  955W        W67386  22.230  11.919  13.833
  956W        W67387   7.131  22.058   1.801
  957W        W67388  43.716  26.743  10.749
  958W        W67389   0.319  15.122  12.910
  959W        W67390   0.297  38.612   4.595
  960W        W67391  37.637  36.327  12.196
  961W        W67392  36.588  20.225  14.436
  962W        W67393   6.003  44.354   3.632
  963W        W67394   0.705  15.830   0.038
  964W        W67395  30.975  43.945  12.868
  965W        W67396  20.226  27.186  13.918
  966W        W67397   2.774  43.746   4.072
  967W        W67398   3.371  44.458  14.455
  968W        W67399  41.390  44.311   4.524
  969W        W67400   7.702  18.672   4.117
  970W        W67401  35.421  31.748   3.309
  971W        W67402  10.784  31.904   2.696
  972W        W67403  19.868  35.946  13.330
  973W        W67404  30.546  21.506  13.022
  974W        W67405  18.766  16.112   1.378
  975W        W67406  24.818  18.042   3.586
  976W        W67407  19.237   1.760  13.589
  977W        W67408  31.700  42.970  10.943
  978W        W67409  10.699  21.207   3.756
  979W        W67410  20.154  21.208   2.117
  980W        W67411  27.341  37.265  14.036
  981W        W67412  41.030  25.370   3.639
  982W        W67413  18.028  40.858  12.364
  983W        W67414  20.036  15.474   0.234
  984W        W67415   3.975  29.142   3.622
  985W        W67416  13.884   0.769   1.648
  986W        W67417  21.287  29.225  10.310
  987W        W67418  15.677  29.058   2.137
  988W        W67419   3.281  32.987  12.038
  989W        W67420  27.323  13.729  10.785
  990W        W67421  40.330   4.220   3.720
  991W        W67422  21.179   8.952  10.882
  992W        W67423  22.115   3.355  13.482
  993W        W67424  16.915  29.482  13.295
  994W        W67425  36.441  10.639  12.136
  995W        W67426   2.156  31.516  12.001
  996W        W67427  20.255  13.384  11.624
  997W        W67428  36.306  42.308   3.044
  998W        W67429  41.526   8.713  12.322
  999W        W67430  28.601  44.300  11.565
 1000W        W67431  44.022  43.841   3.995
 1001W        W67432  23.489  12.234   4.111
 1002W        W67433   7.636  24.253   1.435
 1003W        W67434  14.278  16.790   1.443
 1004W        W67435  42.338  10.849   4.616
 1005W        W67436  43.332  26.508   0.279
 1006W        W67437  25.288  18.277   3.674
 1007W        W67438  43.309  40.836   3.874
 1008W        W67439  32.185  36.325  13.866
 1009W        W67440   3.166  41.431   2.715
 1010W        W67441  19.703  16.673  10.625
 1011W        W67442  17.144   9.915  11.907
 1012W        W67443  24.643  40.851  13.908
 1013W        W67444  29.220  37.872  14.385
 1014W        W67445  11.126  25.972   0.312
 1015W        W67446   1.240  28.432   3.715
 1016W        W67447   6.309  25.011  13.330
 1017W        W67448  38.718  43.743   3.106
 1018W        W67449  41.360  21.977   1.191
 1019W        W67450  37.110  36.515  10.320
 1020W        W67451  10.418  20.014  12.954
 1021W        W67452  37.491   5.647  12.078
 1022W        W67453  15.801   9.641  12.604
 1023W        W67454   4.346  26.051   4.987
 1024W        W67455  23.476  39.420  14.007
 1025W        W67456  11.316  21.505  12.722
 1026W        W67457  26.927  14.057   4.035
 1027W        W67458  42.960  16.200  11.580
 1028W        W67459  11.085  11.843   3.963
 1029W        W67460  42.671  34.108   0.498
 1030W        W67461  12.660  36.460   2.837
 1031W        W67462   9.148   0.886  14.538
 1032W        W67463   8.724   9.430   4.491
 1033W        W67464   5.748  41.564  10.711
 1034W        W67465   6.787  24.761  13.270
 1035W        W67466  27.342  43.910   0.001
 1036W        W67467  27.749   5.202   2.385
 1037W        W67468  29.266  40.855  11.145
 1038W        W67469  17.686   7.843   1.331
 1039W        W67470  13.806   2.856   5.074
 1040W        W67471  20.992  44.300   1.792
 1041W        W67472  39.019  36.843  13.099
 1042W        W67473  24.377  11.067   0.454
 1043W        W67474  11.493  21.058   4.163
 1044W        W67475  33.905  26.259   4.864
 1045W        W67476  40.802   6.851  10.764
 1046W        W67477  33.841  27.183  14.590
 1047W        W67478   7.952  41.480  12.522
 1048W        W67479  16.898   9.002  14.770
 1049W        W67480  36.010   5.014  13.853
 1050W        W67481  37.392   7.117   2.867
 1051W        W67482  20.139  16.785   2.943
 1052W        W67483   3.789  27.067   1.899
 1053W        W67484  39.216  26.870   0.484
 1054W        W67485   2.056   6.197   0.418
 1055W        W67486  40.854   8.717   3.258
 1056W        W67487  13.346  30.206  11.106
 1057W        W67488  12.865  13.326   3.366
 1058W        W67489  19.511  41.104  11.555
 1059W        W67490  38.933  40.642  13.884
 1060W        W67491  37.873   4.667   0.642
 1061W        W67492   4.259  23.263   4.799
 1062W        W67493  16.720  16.105  11.975
 1063W        W67494   5.718   9.417  10.460
 1064W        W67495  12.811   3.503  13.818
 1065W        W67496  24.797   2.562  12.675
 1066W        W67497  20.734  19.632   4.549
 1067W        W67498   9.189  42.350  11.183
 1068W        W67499  18.994  44.812  12.935
 1069W        W67500  20.456  43.611   3.659
 1070W        W67501  41.764  22.322   2.482
 1071W        W67502  37.545  42.597   3.721
 1072W        W67503  43.801   8.784   0.484
 1073W        W67504  41.391  21.799   3.446
 1074W        W67505  33.109   4.661  12.164
 1075W        W67506  27.176  19.534  11.613
 1076W        W67507  39.718  38.811   4.211
 1077W        W67508  29.354  39.506  11.554
 1078W        W67509  38.182  15.950  10.534
 1079W        W67510   8.168  25.111  11.448
 1080W        W67511  27.135  15.608   0.465
 1081W        W67512  26.974  31.809   3.273
 1082W        W67513  36.827  29.099   4.557
 1083W        W67514  39.750   5.131  11.353
 1084W        W67515   5.208   0.784   2.299
 1085W        W67516  33.102  19.931  12.195
 1086W        W67517  21.812   6.382   2.714
 1087W        W67518  13.202  35.966   4.106
 1088W        W67519   9.702  29.405   3.068
 1089W        W67520  29.273  31.060  12.531
 1090W        W67521  15.243  26.882   2.715
 1091W        W67522  19.045  37.621  13.971
 1092W        W67523  20.666  13.299   0.262
 1093W        W67524  20.226  29.545   2.685
 1094W        W67525  39.904  31.429   1.377
 1095W        W67526  34.878  37.426  13.035
 1096W        W67527  27.310  20.287   3.186
 1097W        W67528  31.004  41.516  10.403
 1098W        W67529  43.334  27.407   2.925
 1099W        W67530  30.772   9.351  14.499
 1100W        W67531  44.877   8.936  11.553
 1101W        W67532  28.023  29.687   2.577
 1102W        W67533   3.979  30.799   0.940
 1103W        W67534  30.981  26.172   1.082
 1104W        W67535  12.079  10.790  14.325
 1105W        W67536  24.972  19.180  14.814
 1106W        W67537  25.934  22.899   9.939
 1107W        W67538  14.841  38.906  12.614
 1108W        W67539  32.893  17.551   4.251
 1109W        W67540  20.143  19.292   1.904
 1110W        W67541  11.709  17.289   4.269
 1111W        W67542  44.088  38.274  10.656
 1112W        W67543  41.444  30.505   4.741
 1113W        W67544  13.779  14.126   0.035
 1114W        W67545   4.391  25.460   1.752
 1115W        W67546  32.487   9.581   1.494
 1116W        W67547  16.781   8.225  14.517
 1117W        W67548  41.481  32.083  11.146
 1118W        W67549  10.263  20.744  13.991
 1119W        W67550  10.456   7.763  13.619
 1120W        W67551  15.158  23.201  13.939
 1121W        W67552   8.886  36.554   5.033
 1122W        W67553   4.313  26.119   4.362
 1123W        W67554  20.043  34.859  12.360
 1124W        W67555  30.618   8.283   0.990
 1125W        W67556  18.812   7.881  11.196
 1126W        W67557   9.437  24.693  10.801
 1127W        W67558  25.439  17.776  12.397
 1128W        W67559   4.898   8.358   4.401
 1129W        W67560  30.587  37.949   0.673
 1130W        W67561  43.418  39.373  13.495
 1131W        W67562  38.646  24.549  11.016
 1132W        W67563   0.361  42.911  11.238
 1133W        W67564  31.653   7.322  10.973
 1134W        W67565   8.367   7.293   0.488
 1135W        W67566   0.320   2.699   1.194
 1136W        W67567  15.881  13.660  12.557
 1137W        W67568   9.149  33.081  13.003
 1138W        W67569  33.579  15.663  14.766
 1139W        W67570  36.833  42.533   1.818
 1140W        W67571  24.392  15.801  12.955
 1141W        W67572   5.888  14.049  13.003
 1142W        W67573  33.432   9.853  12.575
 1143W        W67574  16.512  38.037  14.960
 1144W        W67575   5.904  34.999  14.467
 1145W        W67576  43.817  15.505   2.795
 1146W        W67577   6.534  21.916   2.312
 1147W        W67578  16.921  37.901  14.631
 1148W        W67579  28.072   9.420  10.593
 1149W        W67580  30.038  12.185   0.824
 1150W        W67581  32.884  16.022   4.233
 1151W        W67582   9.899   1.766   2.303
 1152W        W67583   3.427  37.655   0.277
 1153W        W67584  40.518  34.113  13.784
 1154W        W67585   7.387  17.303   0.893
 1155W        W67586   5.291  43.384   1.375
 1156W        W67587  31.288  11.824  12.412
 1157W        W67588  10.662  23.086   1.203
 1158W        W67589  24.651  18.806  12.389
 1159W        W67590  34.088  34.106  11.846
 1160W        W67591   6.789   2.904  13.924
 1161W        W67592  21.659  39.532   0.338
 1162W        W67593  44.202  15.681  12.081
 1163W        W67594  42.953  26.867   3.800
 1164W        W67595  18.591  29.157   2.025
 1165W        W67596  40.085  33.311  14.511
 1166W        W67597  21.961  33.850   0.541
 1167W        W67598  38.632  15.233  10.378
 1168W        W67599   1.698  36.424   1.711
 1169W        W67600  19.123   5.356   2.877
 1170W        W67601   9.192  31.163   2.850
 1171W        W67602  33.650  20.558   1.170
 1172W        W67603  35.149   6.352  14.053
 1173W        W67604  12.769   8.098   3.450
 1174W        W67605  44.827   3.336  10.228
 1175W        W67606  12.875   1.875   2.843
 1176W        W67607  30.457  32.105   1.809
 1177W        W67608  43.902  26.568  10.115
 1178W        W67609  28.678   0.872   1.456
 1179W        W67610  17.722  17.612   0.307
 1180W        W67611   9.466  16.102   1.357
 1181W        W67612  34.117  29.512  14.953
 1182W        W67613  14.640   3.244  13.884
 1183W        W67614  41.281   0.720  14.257
 1184W        W67615  24.136  36.111  10.383
 1185W        W67616  44.483  25.951  13.448
 1186W        W67617   2.211  15.306   0.366
 1187W        W67618  39.106  38.976  12.175
 1188W        W67619  30.600   9.816  13.520
 1189W        W67620  27.744  14.688   0.529
 1190W        W67621  26.308  44.115   1.899
 1191W        W67622  41.843   4.865  12.736
 1192W        W67623  22.537  37.422   0.444
 1193W        W67624  24.707  38.111   2.349
 1194W        W67625  14.206   3.883   2.250
 1195W        W67626  31.050  20.989  12.047
 1196W        W67627  31.523   0.575   3.410
 1197W        W67628   9.729  40.551   0.561
 1198W        W67629   2.139  38.311  10.779
 1199W        W67630  13.823  38.817  12.671
 1200W        W67631   8.934  14.780   4.104
 1201W        W67632  23.085  39.306  11.983
 1202W        W67633  20.060   3.546  11.537
 1203W        W67634   7.579  42.460  11.544
 1204W        W67635   5.455   0.661  13.022
 1205W        W67636  29.652  43.758  14.790
 1206W        W67637   5.423  28.169  13.403
 1207W        W67638   5.309  28.690   2.865
 1208W        W67639  25.654  35.535  12.064
 1209W        W67640  26.983  11.647  11.714
 1210W        W67641  27.079  36.296   3.739
 1211W        W67642  23.834   9.176  11.029
 1212W        W67643  31.010  39.062  14.761
 1213W        W67644  13.635   2.601   3.614
 1214W        W67645  11.914  18.617   3.746
 1215W        W67646  29.158  13.219   2.941
 1216W        W67647  37.161  23.953   0.988
 1217W        W67648   1.039  25.144  12.157
 1218W        W67649  20.274  41.238   2.829
 1219W        W67650  20.958  28.674  13.992
 1220W        W67651  31.656  29.327  10.654
 1221W        W67652  33.634  18.106   4.535
 1222W        W67653   8.343  23.437   2.782
 1223W        W67654  26.308  43.558   0.765
 1224W        W67655  20.652  35.213  12.354
 1225W        W67656  22.347  28.661  10.731
 1226W        W67657  20.188  12.354  12.802
 1227W        W67658  42.479  32.264   0.737
 1228W        W67659  36.650  23.139   1.798
 1229W        W67660  27.452  17.276   1.247
 1230W        W67661  11.312  14.789  11.941
 1231W        W67662  35.035  20.080  13.971
 1232W        W67663  28.248   9.555   0.820
 1233W        W67664  22.728  11.667  11.500
 1234W        W67665  32.203  35.108  14.331
 1235W        W67666  41.367  12.212  12.126
 1236W        W67667  25.188  32.469   1.918
 1237W        W67668  38.749   9.595   2.348
 1238W        W67669  26.534   6.381   1.734
 1239W        W67670  22.458   2.918  12.834
 1240W        W67671  16.129  23.200  12.956
 1241W        W67672  16.539  34.581   1.400
 1242W        W67673  28.771   7.612  14.265
 1243W        W67674  31.107  19.042  12.518
 1244W        W67675  44.809  41.746   0.471
 1245W        W67676  40.391  16.761   0.231
 1246W        W67677   4.791  18.048   0.733
 1247W        W67678  21.896   1.890  11.531
 1248W        W67679   6.099  37.250  14.884
 1249W        W67680   7.393  32.510  10.757
 1250W        W67681   2.315  36.256   4.782
 1251W        W67682  11.238  14.779   3.405
 1252W        W67683  38.918   0.438  10.881
 1253W        W67684  12.518  25.647  11.488
 1254W        W67685   6.347   7.164  11.551
 1255W        W67686  18.312   7.178   4.184
 1256W        W67687  24.861  42.730  13.462
 1257W        W67688  23.205  22.635  12.005
 1258W        W67689   5.079   4.411   3.687
 1259W        W67690  34.962   0.550   0.804
 1260W        W67691  15.771  20.978  11.503
 1261W        W67692   0.239  44.923   1.793
 1262W        W67693   2.834  42.076   3.353
 1263W        W67694  21.520   1.309   1.432
 1264W        W67695  27.210  21.633  13.508
 1265W        W67696  19.553   3.788  14.948
 1266W        W67697  22.078   4.753   2.576
 1267W        W67698   2.420  43.019  12.654
 1268W        W67699  39.573  37.044   2.866
 1269W        W67700  11.396  12.045   3.335
 1270W        W67701  39.349  11.409   0.494
 1271W        W67702   1.508  40.994   0.327
 1272W        W67703  19.593  28.488  12.518
 1273W        W67704  43.637  11.140  11.730
 1274W        W67705   5.298  27.887   2.201
 1275W        W67706  28.523  38.073  11.402
 1276W        W67707  18.117  35.490  12.846
 1277W        W67708   6.178  38.880  12.484
 1278W        W67709  17.630  33.026  13.533
 1279W        W67710   4.132  20.540   3.182
 1280W        W67711  34.114   8.615  11.105
 1281W        W67712  35.108  15.209   0.922
 1282W        W67713   7.948  25.049  13.849
 1283W        W67714   8.369  28.041  12.684
 1284W        W67715  19.346  12.705  14.378
 1285W        W67716  25.255  41.806  11.310
 1286W        W67717  18.084   7.644  10.801
 1287W        W67718  37.378  14.069   4.089
 1288W        W67719  14.825  39.898  13.361
 1289W        W67720  44.524  44.059   0.389
 1290W        W67721  25.134  26.456  12.928
 1291W        W67722  29.917  39.573   1.405
 1292W        W67723  10.747  38.829  11.655
 1293W        W67724   0.304   7.878   0.507
 1294W        W67725  17.732  33.466   2.889
 1295W        W67726  34.861  30.240   4.939
 1296W        W67727  36.514  15.132  14.370
 1297W        W67728  17.697  24.303  10.696
 1298W        W67729  31.414  11.744  13.292
 1299W        W67730  31.571  22.573  11.076
 1300W        W67731  31.161  29.675  14.935
 1301W        W67732  19.392  25.210  12.656
 1302W        W67733  22.799  22.752  11.180
 1303W        W67734  39.931  18.324   2.828
 1304W        W67735  21.955  28.402   2.790
 1305W        W67736  13.363  26.214  14.749
 1306W        W67737  25.801  24.551  12.042
 1307W        W67738  40.424  18.133   1.338
 1308W        W67739  24.621  13.509   2.080
 1309W        W67740  38.750  29.036   4.267
 1310W        W67741  44.181  13.260  10.859
 1311W        W67742   9.761  15.256   0.007
 1312W        W67743  17.159   3.765  11.733
 1313W        W67744  33.169  22.055  12.344
 1314W        W67745  17.232  10.510  13.935
 1315W        W67746  11.003  27.617  10.941
 1316W        W67747  40.638  13.839   0.295
 1317W        W67748  10.974  25.720   3.799
 1318W        W67749  32.600  22.631  11.405
 1319W        W67750  13.335  25.685   1.008
 1320W        W67751  20.743   4.487  11.998
 1321W        W67752  30.599   7.212   1.817
 1322W        W67753  38.456   2.857   3.597
 1323W        W67754  25.648   5.415  13.455
 1324W        W67755  33.066  39.132  13.054
 1325W        W67756   7.858  43.809  14.345
 1326W        W67757  28.858  13.551   1.480
 1327W        W67758  17.252   7.261   4.111
 1328W        W67759  28.227  22.602  13.397
 1329W        W67760  36.555  30.337  11.688
 1330W        W67761   5.846  18.669   4.073
 1331W        W67762   9.986  33.635   3.142
 1332W        W67763  42.173  24.465   4.571
 1333W        W67764   1.865  13.912   4.558
 1334W        W67765  44.021   9.100  12.866
 1335W        W67766  35.056   0.036   0.602
 1336W        W67767  19.142  34.755  11.248
 1337W        W67768  42.257   3.731  12.020
 1338W        W67769   9.388  20.693  10.779
 1339W        W67770   3.256  13.229   0.994
 1340W        W67771  24.253  43.355  12.154
 1341W        W67772   6.863  21.729  12.491
 1342W        W67773   7.700  21.268  10.720
 1343W        W67774  21.950  27.777   2.166
 1344W        W67775  33.093  37.949   2.142
 1345W        W67776   5.876  15.200  11.427
 1346W        W67777  39.859  23.718   1.462
 1347W        W67778  11.144  24.443  11.195
 1348W        W67779  13.541  21.385   1.315
 1349W        W67780  19.753   8.762   2.567
 1350W        W67781  28.517  29.748  13.871
 1351W        W67782   9.705  12.733   0.629
 1352W        W67783  38.997  39.512  13.539
 1353W        W67784  35.118  36.216   0.135
 1354W        W67785  21.174   3.738  12.424
 1355W        W67786  35.970  30.484   1.821
 1356W        W67787  44.940  36.006   3.268
 1357W        W67788  10.875  14.654   2.348
 1358W        W67789  32.272  13.663  14.823
 1359W        W67790   2.905  33.304   3.844
 1360W        W67791   9.005  20.104  14.672
 1361W        W67792  29.075  30.224  12.956
 1362W        W67793  20.091  18.749   1.832
 1363W        W67794  26.063   2.457  14.922
 1364W        W67795  35.919  20.704  13.033
 1365W        W67796   3.715  25.075   4.141
 1366W        W67797  39.087  24.251   2.224
 1367W        W67798  29.489  19.205  10.713
 1368W        W67799  27.528  31.888  12.150
 1369W        W67800   0.667  14.134   0.515
 1370W        W67801  21.722  11.165   2.142
 1371W        W67802  15.004  15.562   3.603
 1372W        W67803   1.434   7.204  14.194
 1373W        W67804  32.874  40.637  14.936
 1374W        W67805  25.586  16.079   0.364
 1375W        W67806   8.260  39.708  11.429
 1376W        W67807   8.617  22.484  14.826
 1377W        W67808  24.425  36.007   4.188
 1378W        W67809   5.442  10.229  10.959
 1379W        W67810  38.121   2.707  14.964
 1380W        W67811  31.064  24.609  11.193
 1381W        W67812  42.836  40.360  13.910
 1382W        W67813   4.083  33.797   4.146
 1383W        W67814   5.325   9.132  10.706
 1384W        W67815  40.432  31.985   3.237
 1385W        W67816  13.342  15.354  14.943
 1386W        W67817   2.432  12.515  10.615
 1387W        W67818  35.541  18.536  10.540
 1388W        W67819   9.147   5.751   2.808
 1389W        W67820  29.409  38.887   1.334
 1390W        W67821   0.815  23.660   1.299
 1391W        W67822  12.317   1.915  13.524
 1392W        W67823  38.350  36.272   2.660
 1393W        W67824   8.398  38.619   3.732
 1394W        W67825  15.641  35.518   1.749
 1395W        W67826  17.337  30.373  12.998
 1396W        W67827   5.879   9.850  11.646
 1397W        W67828  44.481  22.046  14.484
 1398W        W67829   2.162  40.560  13.883
 1399W        W67830  14.162   1.451  14.939
 1400W        W67831   2.493  12.337  12.903
 1401W        W67832  34.133  23.746  12.207
 1402W        W67833  15.221   1.026   4.995
 1403W        W67834  25.024  12.029   4.180
 1404W        W67835   2.006  19.197  12.091
 1405W        W67836  19.297  24.776  13.954
 1406W        W67837  10.829  13.627   3.751
 1407W        W67838  10.300  19.328  12.374
 1408W        W67839  16.143  16.009   2.169
 1409W        W67840   9.677   7.103  12.643
 1410W        W67841  11.369  44.926   4.548
 1411W        W67842   5.362  34.657   2.116
 1412W        W67843  24.057  15.727   0.953
 1413W        W67844  39.094   3.287   1.867
 1414W        W67845   3.894  18.236  14.538
 1415W        W67846  12.858   1.945   1.240
 1416W        W67847  16.208  27.676   3.264
 1417W        W67848  35.160  44.295  11.683
 1418W        W67849  41.024  36.889  11.703
 1419W        W67850  21.986  34.948   3.655
 1420W        W67851  11.711  41.860  10.911
 1421W        W67852  12.854   4.693  12.501
 1422W        W67853  41.981   0.731   3.224
 1423W        W67854  34.794  19.733  13.484
 1424W        W67855  32.162  13.788  11.096
 1425W        W67856  14.826  31.559   2.827
 1426W        W67857  29.020  15.115   3.761
 1427W        W67858  11.058   9.647  12.489
 1428W        W67859  25.499  33.899  10.709
 1429W        W67860  12.185  35.411   2.205
 1430W        W67861  28.030   8.415  12.471
 1431W        W67862   5.001  39.047  11.564
 1432W        W67863  28.612   5.870   1.321
 1433W        W67864  34.958  42.364   2.261
 1434W        W67865  21.167   8.544  11.220
 1435W        W67866  15.026   6.731   3.770
 1436W        W67867  19.048  24.287  11.239
 1437W        W67868  41.900  35.286  13.975
 1438W        W67869  20.008  32.678  13.387
 1439W        W67870  36.577   3.572   4.271
 1440W        W67871  16.547  23.049  12.417
 1441W        W67872  11.174  36.756  10.752
 1442W        W67873  11.386   3.340   0.423
 1443W        W67874   7.857  30.614   1.257
 1444W        W67875  32.537  15.851  11.668
 1445W        W67876  18.236  37.294   0.387
 1446W        W67877   9.372   4.113  14.931
 1447W        W67878  24.667   0.181  14.975
 1448W        W67879  20.781  35.170   2.405
 1449W        W67880  22.362  28.485  14.313
 1450W        W67881  40.667  13.069  11.658
 1451W        W67882  36.325  33.360  13.997
 1452W        W67883  11.742  29.922  13.540
 1453W        W67884  40.101   7.650  10.816
 1454W        W67885  38.283   6.143  12.497
 1455W        W67886  42.446  18.914   2.186
 1456W        W67887  32.649  16.229  10.838
 1457W        W67888  37.946  32.997   3.830
 1458W        W67889  26.938  16.222  14.891
 1459W        W67890  17.211  42.847  11.937
 1460W        W67891  44.774  44.235  11.115
 1461W        W67892   7.861  34.166  10.749
 1462W        W67893   0.071  36.896  13.410
 1463W        W67894   5.906  32.629   0.427
 1464W        W67895  15.597  40.941  12.544
 1465W        W67896  23.210   4.491   2.205
 1466W        W67897  13.050  25.070   5.019
 1467W        W67898  38.295  36.853   9.956
 1468W        W67899  28.457  26.750   4.569
 1469W        W67900  18.631  11.557  12.256
 1470W        W67901   2.777  35.024   1.380
 1471W        W67902  31.029  27.968   0.571
 1472W        W67903  24.792  42.990  13.001
 1473W        W67904  19.620   7.374  13.788
 1474W        W67905  10.857   9.272  14.011
 1475W        W67906  15.869   4.143   1.433
 1476W        W67907   1.111   0.997   0.883
 1477W        W67908  41.937   9.083   5.031
 1478W        W67909  16.217  36.982   0.326
 1479W        W67910  33.690  34.486  12.509
 1480W        W67911   8.077  29.419   9.845
 1481W        W67912  31.566  40.170  12.088
 1482W        W67913  31.908   4.853   0.443
 1483W        W67914  42.575   9.719   2.889
 1484W        W67915  27.076   4.143  11.105
 1485W        W67916   4.248  40.812  12.677
 1486W        W67917  19.009  24.604   2.070
 1487W        W67918  20.063   4.862   4.732
 1488W        W67919  29.737  17.636  12.376
 1489W        W67920  25.555   9.402  12.651
 1490W        W67921  18.372  27.633   2.405
 1491W        W67922  30.889   0.352   1.321
 1492W        W67923  38.644  26.565   3.756
 1493W        W67924  23.585  20.260  14.924
 1494W        W67925  14.558  27.705  13.485
 1495W        W67926  10.892  24.398  13.338
 1496W        W67927  18.996  25.752  11.175
 1497W        W67928  16.221   0.798   3.021
 1498W        W67929  25.530  27.958  12.157
 1499W        W67930  10.197  22.993  11.101
 1500W        W67931  31.405  30.687   3.856
 1501W        W67932  21.673  22.753   1.827
 1502W        W67933   4.769  19.952   0.674
 1503W        W67934  33.100  25.107  11.507
 1504W        W67935  28.134  44.057  11.189
 1505W        W67936   8.663  12.802  13.007
 1506W        W67937  25.737   8.686  10.890
 1507W        W67938  37.468  27.958   2.091
 1508W        W67939   8.374   5.617  13.648
 1509W        W67940  35.920   0.240   3.970
 1510W        W67941  19.113  25.350   4.092
 1511W        W67942   5.425  41.353  13.872
 1512W        W67943  44.336  11.145  12.520
 1513W        W67944  23.038  26.732  11.569
 1514W        W67945   5.000  23.688   0.465
 1515W        W67946  28.906  43.755   1.759
 1516W        W67947  24.491   4.204   4.347
 1517W        W67948   9.364  44.043   3.173
 1518W        W67949  10.830  26.602   3.608
 1519W        W67950   8.905  37.047  12.804
 1520W        W67951   3.665  38.977   0.748
 1521W        W67952  31.358   1.463   0.306
 1522W        W67953  33.178  37.921   0.011
 1523W        W67954  18.274  28.455  14.782
 1524W        W67955  40.054  29.575   4.364
 1525W        W67956  30.699  31.208   3.668
 1526W        W67957   5.939   7.412  14.019
 1527W        W67958  41.202  27.060  11.599
 1528W        W67959  31.918  21.140   4.663
 1529W        W67960  11.155  21.591   2.572
 1530W        W67961  13.723   1.573  10.749
 1531W        W67962   3.768  44.866   2.835
 1532W        W67963  10.717  34.882  14.879
 1533W        W67964  32.668  28.872   2.052
 1534W        W67965  25.224  34.463  12.847
 1535W        W67966  35.006  23.998  13.963
 1536W        W67967  37.606  11.362   1.982
 1537W        W67968  18.748  33.455   2.365
 1538W        W67969   7.154  27.015  14.050
 1539W        W67970  18.612  38.804   4.498
 1540W        W67971  32.168  42.528   3.270
 1541W        W67972  22.027  40.865   2.435
 1542W        W67973  44.633  12.317  13.877
 1543W        W67974  30.463  34.877   2.150
 1544W        W67975  24.374  25.591  11.473
 1545W        W67976  21.954   5.337   3.412
 1546W        W67977  11.740  10.958  13.416
 1547W        W67978  38.110   7.376   0.280
 1548W        W67979   9.167  41.730  11.730
 1549W        W67980  17.858  11.299   2.717
 1550W        W67981  13.303   3.928  12.776
 1551W        W67982  28.543   4.151   1.789
 1552W        W67983  28.077  28.368  10.231
 1553W        W67984  17.344   0.777  12.159
 1554W        W67985  44.016  17.811  13.536
 1555W        W67986  35.323   5.062  11.669
 1556W        W67987   9.457  14.349   0.315
 1557W        W67988  38.385  37.118   1.093
 1558W        W67989  33.036   4.503  10.919
 1559W        W67990  19.302  32.111   2.751
 1560W        W67991   2.420  23.668  10.531
 1561W        W67992   0.541  41.661  10.744
 1562W        W67993   4.315  13.765   1.787
 1563W        W67994  26.649  30.387   2.102
 1564W        W67995  14.160  27.659   1.070
 1565W        W67996  10.606   5.925   4.507
 1566W        W67997  21.561  11.131  12.315
 1567W        W67998  10.801  13.344   1.865
 1568W        W67999  18.196   6.961   0.396
 1569W        W68000   8.848  36.551   3.190
 1570W        W68001  17.129  23.585   1.711
 1571W        W68002   8.927  35.410  14.708
 1572W        W68003  10.844  16.176  14.248
 1573W        W68004  27.846  25.634   1.601
 1574W        W68005   0.191  41.121  13.839
 1575W        W68006  40.070  43.163  11.145
 1576W        W68007   6.382  37.147   4.518
 1577W        W68008  32.353   4.269   1.248
 1578W        W68009  42.351  21.299  12.332
 1579W        W68010   8.262  12.989  13.975
 1580W        W68011  23.752  31.389  10.785
 1581W        W68012  10.411  36.391   2.332
 1582W        W68013  26.552   6.614   4.668
 1583W        W68014  19.538  14.568  13.262
 1584W        W68015  24.850  14.206  13.407
 1585W        W68016   3.007   9.328  12.538
 1586W        W68017  13.182  24.215  12.899
 1587W        W68018  41.064  36.536  10.698
 1588W        W68019  24.607  13.841   1.665
 1589W        W68020  42.702   3.307  11.080
 1590W        W68021  38.861  32.507   0.416
 1591W        W68022  32.917   0.277   0.274
 1592W        W68023   9.196   9.357  11.535
 1593W        W68024   5.548  23.034   2.170
 1594W        W68025  38.908  14.962  14.696
 1595W        W68026  12.845  32.957   0.024
 1596W        W68027  44.672  11.612   1.452
 1597W        W68028  14.020  26.551   0.354
 1598W        W68029  40.163  14.818  14.777
 1599W        W68030   0.505   9.775  13.423
 1600W        W68031  38.915  33.936   0.796
 1601W        W68032  17.086   6.733  12.971
 1602W        W68033  38.788  42.866  11.846
 1603W        W68034   4.496  10.962   3.761
 1604W        W68035  27.521  42.424  10.687
 1605W        W68036  42.106  30.640   3.688
 1606W        W68037  43.220   4.774  10.366
 1607W        W68038  33.506  29.538   2.874
 1608W        W68039   2.818  14.608  11.110
 1609W        W68040  42.055  22.636  13.426
 1610W        W68041  40.555   4.857   0.701
 1611W        W68042  21.124  25.994  12.897
 1612W        W68043   7.855   6.691   2.497
 1613W        W68044  19.462   2.856  13.730
 1614W        W68045  32.074  19.090   4.645
 1615W        W68046  33.130  33.710  13.924
 1616W        W68047  19.212  38.559   2.764
 1617W        W68048  13.091  13.346   4.351
 1618W        W68049  34.925  36.368   4.561
 1619W        W68050  10.922  11.303  13.936
 1620W        W68051  37.085  29.501  14.003
 1621W        W68052  16.624  20.654  14.124
 1622W        W68053  19.746  25.012   4.601
 1623W        W68054  24.728   3.117  11.895
 1624W        W68055  44.322   7.834   0.068
 1625W        W68056  11.084  29.231   1.437
 1626W        W68057   3.420  34.913   3.238
 1627W        W68058   3.325   5.245   2.711
 1628W        W68059  14.739  22.833   3.130
 1629W        W68060  43.356  40.723  10.718
 1630W        W68061  43.101  20.431   4.071
 1631W        W68062  31.441  32.300  11.407
 1632W        W68063  25.247  30.029   3.568
 1633W        W68064  24.006  18.413   1.389
 1634W        W68065  25.439  35.911   1.878
 1635W        W68066   6.715   1.384   0.586
 1636W        W68067  44.459   2.514  12.912
 1637W        W68068   0.569  43.847  11.800
 1638W        W68069  11.172   1.478  11.381
 1639W        W68070  33.294  34.906  11.780
 1640W        W68071  32.771  28.037  11.117
 1641W        W68072  15.582  24.038  14.491
 1642W        W68073  19.116  43.446  13.125
 1643W        W68074  21.629  37.800   4.127
 1644W        W68075  11.950   9.541  11.157
 1645W        W68076   5.109   2.723  13.910
 1646W        W68077  43.029  39.324   3.226
 1647W        W68078  20.160   4.591  10.427
 1648W        W68079   3.505  41.920  11.048
 1649W        W68080   8.819   6.329   0.234
 1650W        W68081  21.257   7.728   2.415
 1651W        W68082  30.569  35.187   3.774
 1652W        W68083  21.020  28.009  11.520
 1653W        W68084  15.710  20.065   1.832
 1654W        W68085  23.811  38.547  11.578
 1655W        W68086  30.072   8.286   5.150
 1656W        W68087  27.227  32.618  10.736
 1657W        W68088  33.786  25.927  14.873
 1658W        W68089  11.166  33.556   2.823
 1659W        W68090  10.604  24.722   4.658
 1660W        W68091  43.420  19.661   5.092
 1661W        W68092   6.677  17.981   3.598
 1662W        W68093   1.329  17.868   3.776
 1663W        W68094   1.223   9.594   1.290
 1664W        W68095  39.503   4.509  10.824
 1665W        W68096   8.645  29.349   4.592
 1666W        W68097   7.660  21.069  12.565
 1667W        W68098  19.024   5.778   3.646
 1668W        W68099  29.652  40.364   1.845
 1669W        W68100  18.126  40.328   4.118
 1670W        W68101  44.825   4.273  11.219
 1671W        W68102  24.290  12.821  12.208
 1672W        W68103   7.142  41.297   0.274
 1673W        W68104  10.703  23.499  14.879
 1674W        W68105  17.417   8.177   4.151
 1675W        W68106   1.951  15.168  10.799
 1676W        W68107   9.758  42.250  12.366
 1677W        W68108  38.359  35.819  14.895
 1678W        W68109  37.493  22.215  11.679
 1679W        W68110   7.516   5.894  11.210
 1680W        W68111   3.665  19.509   4.076
 1681W        W68112  41.572  15.854   2.308
 1682W        W68113  36.866  14.597  14.382
 1683W        W68114  22.512  18.503   0.685
 1684W        W68115  13.972  14.879  12.443
 1685W        W68116  24.451  42.954  14.439
 1686W        W68117  31.344  32.412   4.055
 1687W        W68118   3.361   3.293   1.567
 1688W        W68119  42.481   7.881  13.255
 1689W        W68120  18.177   5.024   2.872
 1690W        W68121  36.184  30.624   0.397
 1691W        W68122  31.590  44.312  11.278
 1692W        W68123  23.998  25.185   1.148
 1693W        W68124  35.715  17.321  11.135
 1694W        W68125  37.550  18.584  12.433
 1695W        W68126   9.775   6.740   3.860
 1696W        W68127  26.224  31.709  13.057
 1697W        W68128  25.599  10.483  14.021
 1698W        W68129   9.957  44.013   0.944
 1699W        W68130  22.130  16.049   3.299
 1700W        W68131  30.682  11.687  11.198
 1701W        W68132  21.694   9.370   1.872
 1702W        W68133  37.634  30.338   1.303
 1703W        W68134   8.644  35.655  13.432
 1704W        W68135  39.523  32.929   1.968
 1705W        W68136  12.565  40.036  12.050
 1706W        W68137  17.445   3.920   2.464
 1707W        W68138  15.559  29.401  11.107
 1708W        W68139  27.532   7.718  14.896
 1709W        W68140  26.259  22.078   4.124
 1710W        W68141  44.759   6.617  11.375
 1711W        W68142  38.798   9.814   3.699
 1712W        W68143   0.640  35.662  14.839
 1713W        W68144  14.344  43.890  14.240
 1714W        W68145  10.669  13.589   4.627
 1715W        W68146  43.336  27.637  11.968
 1716W        W68147  23.239  41.043  13.509
 1717W        W68148  28.551  20.926   3.675
 1718W        W68149  36.620   1.068   3.224
 1719W        W68150  28.878  44.448  14.162
 1720W        W68151   1.329  33.425   3.152
 1721W        W68152  43.989  23.196  12.342
 1722W        W68153  11.208  24.467   3.579
 1723W        W68154   4.764  37.052   4.570
 1724W        W68155   7.604   3.277   4.583
 1725W        W68156  36.232   9.478   4.221
 1726W        W68157  24.829  25.125   2.172
 1727W        W68158  23.911  26.463  12.461
 1728W        W68159  32.594  36.069  12.595
 1729W        W68160  26.439  44.444   5.008
 1730W        W68161  34.336  27.476  13.783
 1731W        W68162  29.953   0.147   2.039
 1732W        W68163   6.049  25.852   2.441
 1733W        W68164  13.224  41.820   4.935
 1734W        W68165   8.510  17.361   4.925
 1735W        W68166  18.032   7.410  13.583
 1736W        W68167  25.018  41.903  10.372
 1737W        W68168  30.645  19.727   3.166
 1738W        W68169   8.642   5.906   0.504
 1739W        W68170  15.349  34.392  11.907
 1740W        W68171  29.347  12.269  11.350
 1741W        W68172   5.545  13.000  14.043
 1742W        W68173  44.394   1.260  11.619
 1743W        W68174  24.842  28.889   1.675
 1744W        W68175  28.904  30.613  13.844
 1745W        W68176   7.767  37.048   2.864
 1746W        W68177  26.407  42.645  14.299
 1747W        W68178  28.535  27.175   4.865
 1748W        W68179  20.060  35.482  14.485
 1749W        W68180   0.392  16.121   3.899
 1750W        W68181  11.196  32.291  14.496
 1751W        W68182   1.246  21.603  11.567
 1752W        W68183  11.329  19.544   4.530
 1753W        W68184  13.044   2.718  10.651
 1754W        W68185   5.373  39.440   0.982
 1755W        W68186  16.786   7.322  14.527
 1756W        W68187  44.573  31.415  11.187
 1757W        W68188   8.222  39.064  13.860
 1758W        W68189   8.887   9.757  11.368
 1759W        W68190  34.147  28.159  10.654
 1760W        W68191  12.105  40.244  10.428
 1761W        W68192   3.352  13.833  11.937
 1762W        W68193  10.074  30.220   3.268
 1763W        W68194  35.657  39.518  13.832
 1764W        W68195  13.759  14.239   3.344
 1765W        W68196  27.002  37.016   2.859
 1766W        W68197  35.421  16.327   2.238
 1767W        W68198   9.609   1.410  14.426
 1768W        W68199   7.220  29.310   3.064
 1769W        W68200  21.457  41.119  10.236
 1770W        W68201  16.639   3.636  14.924
 1771W        W68202  27.482  38.317  14.304
 1772W        W68203  31.116   7.612  11.178
 1773W        W68204  28.923  33.722  11.637
 1774W        W68205   6.509  20.687   3.711
 1775W        W68206   1.958   4.397   2.134
 1776W        W68207  25.954  30.429   0.822
 1777W        W68208  14.651  23.633   0.702
 1778W        W68209  43.472  24.302  11.947
 1779W        W68210  32.843  35.454  12.527
 1780W        W68211  22.165  42.308  10.478
 1781W        W68212  38.428  41.827   0.259
 1782W        W68213  36.036  39.831  13.612
 1783W        W68214  13.237   9.261  10.788
 1784W        W68215  22.868  33.955   3.375
 1785W        W68216  27.434  43.736  12.539
 1786W        W68217  30.948  12.365   3.766
 1787W        W68218  25.417  27.594  12.937
 1788W        W68219  38.041   1.783   0.010
 1789W        W68220   3.329  44.406  11.125
 1790W        W68221   2.733  11.885   3.846
 1791W        W68222  34.086  15.217   2.700
 1792W        W68223  16.034  12.159  11.922
 1793W        W68224   3.961  29.072  11.107
 1794W        W68225  35.702  42.694  13.000
 1795W        W68226  23.165  24.031  13.052
 1796W        W68227  14.122  10.082   3.741
 1797W        W68228  41.847  21.617   2.837
 1798W        W68229  10.271  15.704  11.023
 1799W        W68230  21.466   7.200   0.041
 1800W        W68231  25.034  12.803   0.513
 1801W        W68232  21.326   2.374   4.621
 1802W        W68233  14.078  34.027  14.437
 1803W        W68234  42.972  28.888  12.465
 1804W        W68235  23.727  18.581  12.049
 1805W        W68236  10.145  36.024   2.571
 1806W        W68237  26.419  18.123  14.420
 1807W        W68238  35.496   1.844  10.694
 1808W        W68239  25.974  20.348   3.193
 1809W        W68240  44.388   0.737   5.099
 1810W        W68241  29.433  40.038  14.739
 1811W        W68242  18.195  11.826  11.877
 1812W        W68243  14.534   3.776   3.000
 1813W        W68244  25.569  39.495   4.059
 1814W        W68245  11.300   6.113  12.990
 1815W        W68246  38.927  44.464   3.578
 1816W        W68247  37.585   0.370  12.871
 1817W        W68248  23.157  10.780   2.641
 1818W        W68249  30.993  32.298  13.504
 1819W        W68250  36.132  40.022  14.766
 1820W        W68251  27.481   0.854   4.726
 1821W        W68252  32.004  44.740  13.748
 1822W        W68253  17.360  34.519  13.187
 1823W        W68254  35.991  27.272   1.708
 1824W        W68255  13.801  32.292   2.162
 1825W        W68256  40.274   5.676   3.197
 1826W        W68257  40.842  43.450  10.928
 1827W        W68258  33.689  31.458  11.483
 1828W        W68259  30.216   9.242  10.616
 1829W        W68260  38.222  31.761  13.402
 1830W        W68261  39.203  17.057   4.234
 1831W        W68262  40.401  21.304  11.290
 1832W        W68263  38.135  15.604  14.747
 1833W        W68264  19.775   1.457   2.021
 1834W        W68265  36.501  33.205   2.808
 1835W        W68266  33.790  38.788   0.896
 1836W        W68267  18.198  43.486  13.567
 1837W        W68268  18.243  19.220  12.823
 1838W        W68269   9.633  21.813   2.337
 1839W        W68270   7.021  24.129   3.321
 1840W        W68271  22.598  19.939  14.439
 1841W        W68272  43.397   2.581  14.987
 1842W        W68273  44.360  38.576  14.416
 1843W        W68274   3.228   3.297   4.693
 1844W        W68275  19.244  34.668  14.386
 1845W        W68276  42.821  40.754  14.294
 1846W        W68277  44.074   7.128   0.678
 1847W        W68278  28.097  29.978   1.067
 1848W        W68279  41.146  40.474  11.678
 1849W        W68280   9.300  14.187  11.323
 1850W        W68281  27.098  14.934  12.673
 1851W        W68282  18.122   4.653   3.263
 1852W        W68283  30.369  36.873   4.828
 1853W        W68284   7.556  43.489   3.202
 1854W        W68285  11.532  25.908   3.901
 1855W        W68286  13.778  39.926   3.603
 1856W        W68287  13.291  13.399  12.872
 1857W        W68288  34.017   4.727  11.157
 1858W        W68289  16.792  42.796  12.956
 1859W        W68290  12.528   7.110  14.141
 1860W        W68291  13.715  33.793  11.644
 1861W        W68292  42.027  11.035   2.321
 1862W        W68293  19.162  39.904  13.237
 1863W        W68294  29.195  41.002   0.039
 1864W        W68295  26.060  24.850  13.823
 1865W        W68296   3.910  16.021   1.372
 1866W        W68297  42.695  29.141  10.793
 1867W        W68298   7.410  23.168   3.322
 1868W        W68299  14.188  24.667  13.885
 1869W        W68300   6.441  10.125  10.927
 1870W        W68301   6.128  15.981  14.752
 1871W        W68302  28.061  11.183  13.400
 1872W        W68303   3.660  31.136   2.299
 1873W        W68304   0.445   1.863  11.904
 1874W        W68305  36.511  10.246   4.101
 1875W        W68306  43.931  38.138  12.117
 1876W        W68307   8.721  31.468  14.341
 1877W        W68308  12.406  29.021   0.454
 1878W        W68309  14.232  24.174  13.738
 1879W        W68310  20.539   9.826   1.398
 1880W        W68311  27.661   9.042  10.737
 1881W        W68312  41.452  43.959   1.405
 1882W        W68313  32.968  33.071   3.288
 1883W        W68314   2.793  16.643   1.600
 1884W        W68315   3.357  23.966   3.388
 1885W        W68316  43.012   2.897   0.798
 1886W        W68317  44.343   5.790   0.708
 1887W        W68318  28.118  15.456   0.337
 1888W        W68319  16.909   8.195  11.152
 1889W        W68320   2.016   2.166   0.930
 1890W        W68321  18.531   4.183  14.495
 1891W        W68322  19.227   7.185  14.336
 1892W        W68323  37.115   0.408  11.160
 1893W        W68324  43.940  15.854   4.973
 1894W        W68325   4.827  32.184   0.177
 1895W        W68326  39.831  18.155  12.842
 1896W        W68327  27.404  28.005   3.072
 1897W        W68328   5.004  29.187   3.712
 1898W        W68329  37.382  43.070  14.236
 1899W        W68330   6.783  17.697   5.210
 1900W        W68331   3.556  23.625   3.689
 1901W        W68332  43.307  22.166   0.345
 1902W        W68333  31.018  25.066  10.975
 1903W        W68334  26.135  26.060   2.964
 1904W        W68335  32.958  13.264  14.251
 1905W        W68336  27.672  25.682  12.862
 1906W        W68337  12.129  33.281   2.158
 1907W        W68338  16.581   1.786  11.957
 1908W        W68339  31.182  29.519  11.621
 1909W        W68340  41.692   5.338  14.315
 1910W        W68341   4.813   3.760  11.947
 1911W        W68342  11.491  19.596   3.225
 1912W        W68343  37.819  11.988   0.824
 1913W        W68344  25.755  43.380  14.378
 1914W        W68345  17.194  11.113   5.090
 1915W        W68346  30.150  15.534   0.194
 1916W        W68347  39.753  43.754   2.398
 1917W        W68348   4.179  28.687   1.784
 1918W        W68349   1.947  35.395  10.817
 1919W        W68350  19.281  20.297  12.357
 1920W        W68351   4.385  44.697   2.219
 1921W        W68352  18.146  18.428   1.264
 1922W        W68353  16.224  41.874   1.547
 1923W        W68354  34.991  38.560   3.644
 1924W        W68355  33.417  24.373   3.902
 1925W        W68356  33.420  39.368  11.016
 1926W        W68357  14.538  19.897   2.141
 1927W        W68358  28.550  29.700  12.446
 1928W        W68359  28.468   7.286  14.513
 1929W        W68360  14.228  26.690   2.756
 1930W        W68361  40.743  16.716   2.962
 1931W        W68362  34.421   6.939  13.362
 1932W        W68363  23.588  43.104   1.302
 1933W        W68364  36.523   5.202   3.022
 1934W        W68365  38.835   1.518   2.319
 1935W        W68366  21.634  15.249   4.669
 1936W        W68367  26.557  27.750   3.118
 1937W        W68368  31.804  16.980   1.709
 1938W        W68369  15.359  43.555   1.366
 1939W        W68370  34.549  24.493  12.649
 1940W        W68371  35.007  16.502   2.798
 1941W        W68372   4.738  43.157  13.107
 1942W        W68373   8.994  24.014  11.574
 1943W        W68374   3.419  44.941   1.918
 1944W        W68375  41.887  34.962   3.271
 1945W        W68376  16.694  14.275   0.099
 1946W        W68377  20.093   3.420  14.613
 1947W        W68378  33.105   9.374   0.532
 1948W        W68379  18.175  14.849   3.295
 1949W        W68380  41.272  44.371   1.705
 1950W        W68381  12.831   9.269  11.123
 1951W        W68382  38.259  11.864  14.493
 1952W        W68383   8.489  34.059   0.434
 1953W        W68384   6.219  33.873  11.001
 1954W        W68385  41.724  12.228  11.374
 1955W        W68386   4.259  44.828  12.434
 1956W        W68387  24.204   8.795   3.621
 1957W        W68388  26.516  36.404   2.356
 1958W        W68389  42.394   6.971  12.856
 1959W        W68390  23.255  26.713   2.774
 1960W        W68391  31.604  17.625  10.400
 1961W        W68392  37.096  15.103   0.385
 1962W        W68393   9.884  11.214  12.992
 1963W        W68394   0.899   9.487   0.888
 1964W        W68395  19.247  26.719  11.704
 1965W        W68396  40.663  24.780  14.689
 1966W        W68397  25.577  10.072  11.198
 1967W        W68398  28.024  27.917  12.337
 1968W        W68399  38.707  40.570   4.027
 1969W        W68400  14.592  40.983   3.644
 1970W        W68401   0.814  13.849   1.353
 1971W        W68402  36.083  11.798   1.244
 1972W        W68403  37.765  39.825  11.295
 1973W        W68404  20.782  12.174  13.882
 1974W        W68405  26.004  21.505   0.652
 1975W        W68406  27.599   2.893  10.718
 1976W        W68407  17.609   3.926  12.128
 1977W        W68408  26.082  35.010  10.713
 1978W        W68409  20.073   1.138   2.346
 1979W        W68410  44.312   0.283   4.856
 1980W        W68411  39.642   9.766   2.768
 1981W        W68412  30.211   6.767   0.012
 1982W        W68413  32.898  42.482   3.712
 1983W        W68414  44.977  16.752  10.772
 1984W        W68415  43.553  23.294   2.736
 1985W        W68416  31.616  13.850   1.615
 1986W        W68417  42.574   7.617   4.546
 1987W        W68418  35.095  41.785  11.567
 1988W        W68419  34.125   2.427  10.608
 1989W        W68420  31.534  25.190  14.275
 1990W        W68421  11.920  24.164  11.804
 1991W        W68422   6.281  43.780  14.795
 1992W        W68423  15.230  27.957   3.669
 1993W        W68424  18.412  43.516   2.543
 1994W        W68425  25.175   3.424   1.609
 1995W        W68426  25.691  41.365  12.960
 1996W        W68427  38.748  22.041   3.176
 1997W        W68428  23.101  10.772  11.308
 1998W        W68429   2.892   3.360  10.651
 1999W        W68430   7.751  33.075   4.895
 2000W        W68431   8.625  31.585   2.246
 2001W        W68432  35.290  40.416  11.869
 2002W        W68433   7.762   0.746  14.472
 2003W        W68434  37.330   5.974  13.085
 2004W        W68435  20.621   5.307  11.679
 2005W        W68436   2.651  31.439   2.354
 2006W        W68437  42.636   5.398   3.718
 2007W        W68438  11.084   8.164   2.821
 2008W        W68439  29.360  41.341   4.961
 2009W        W68440  24.174  15.073   0.438
 2010W        W68441  36.892  37.452   3.272
 2011W        W68442  31.830  31.857  11.479
 2012W        W68443  44.286  30.444  11.388
 2013W        W68444  43.954  14.512   2.945
 2014W        W68445  27.189  19.858  14.387
 2015W        W68446  34.141  27.044   0.907
 2016W        W68447   8.741   1.197  14.397
 2017W        W68448  37.035   3.363  10.897
 2018W        W68449  20.170  35.983   0.918
 2019W        W68450  22.495  43.601   0.243
 2020W        W68451   9.827  19.636  14.487
 2021W        W68452  13.594   7.936   3.121
 2022W        W68453  12.524   6.114  14.440
 2023W        W68454  15.864  24.547   1.308
 2024W        W68455  20.570  41.573  12.430
 2025W        W68456   6.447  17.742  13.354
 2026W        W68457  14.222  18.823  13.136
 2027W        W68458  32.149  31.145  12.112
 2028W        W68459  40.784  43.230  13.834
 2029W        W68460   7.470   1.657   1.378
 2030W        W68461  44.452  35.883  14.403
 2031W        W68462  39.130  32.138   2.301
 2032W        W68463  35.879  23.698   1.653
 2033W        W68464  34.855   2.321  12.074
 2034W        W68465  41.934  38.335   3.596
 2035W        W68466  14.736  32.429   0.992
 2036W        W68467  32.030  31.685   2.911
 2037W        W68468  19.692  13.914   4.982
 2038W        W68469  28.687  26.524  10.728
 2039W        W68470  41.388  34.878   4.564
 2040W        W68471  38.772  36.124   4.625
 2041W        W68472  27.986  13.192  12.584
 2042W        W68473  42.851   7.465   3.051
 2043W        W68474  31.499  10.197  13.404
 2044W        W68475  18.022   2.228  10.869
 2045W        W68476   3.617  16.629  11.588
 2046W        W68477  15.732   7.928   0.099
 2047W        W68478  18.995  23.920   0.695
 2048W        W68479  33.473  40.864   4.904
 2049W        W68480  33.334   4.837   1.737
 2050W        W68481  41.914  34.957  14.393
 2051W        W68482  35.374  11.217  14.877
 2052W        W68483  44.953  20.601  12.153
 2053W        W68484  39.701   5.633   0.986
 2054W        W68485  14.552   2.842  13.580
 2055W        W68486  33.476  36.629   1.784
 2056W        W68487  10.905  15.323   4.163
 2057W        W68488  27.065   8.808   0.263
 2058W        W68489  10.299  21.506   1.942
 2059W        W68490   1.873  21.544  11.024
 2060W        W68491   9.097   4.149  14.473
 2061W        W68492   6.388  38.499   4.076
 2062W        W68493   7.954  33.661  12.028
 2063W        W68494  41.528   7.238  13.006
 2064W        W68495  27.167  15.767  14.969
 2065W        W68496   1.426  28.970   1.394
 2066W        W68497  27.274  36.964  13.085
 2067W        W68498   7.374  30.153  13.346
 2068W        W68499  21.328  43.038   0.233
 2069W        W68500  27.411  21.149  11.049
 2070W        W68501  12.414  33.896   2.804
 2071W        W68502   5.482  14.930  13.062
 2072W        W68503  31.207   0.637   2.786
 2073W        W68504  39.963   2.346  11.499
 2074W        W68505   9.178  28.654   3.762
 2075W        W68506   9.832  25.926  11.880
 2076W        W68507  16.795   1.375   0.391
 2077W        W68508  32.386  11.729  11.041
 2078W        W68509  41.259  12.167  13.009
 2079W        W68510  23.980  23.643  11.985
 2080W        W68511  36.709  19.311   0.547
 2081W        W68512  14.081  18.455   4.137
 2082W        W68513  35.789  32.877  14.928
 2083W        W68514  39.426  24.959   1.110
 2084W        W68515  36.801  30.098   2.692
 2085W        W68516  24.730  39.795   5.155
 2086W        W68517  28.678  15.157  13.989
 2087W        W68518  19.151  43.182   3.185
 2088W        W68519   7.687  40.282  11.886
 2089W        W68520   2.778  18.236  11.108
 2090W        W68521   4.188  27.863  12.510
 2091W        W68522  23.600   2.498  12.581
 2092W        W68523  28.141  15.483  14.444
 2093W        W68524   9.912  16.304  12.594
 2094W        W68525  17.623   4.900   1.238
 2095W        W68526  43.906  42.473  13.782
 2096W        W68527  12.381  39.072   4.129
 2097W        W68528  27.207  37.380   0.403
 2098W        W68529  16.159  38.434   3.067
 2099W        W68530  24.218  20.446   0.888
 2100W        W68531  11.612  35.898  14.415
 2101W        W68532  21.905   0.440  13.354
 2102W        W68533  24.489  27.128  11.198
 2103W        W68534  22.174  36.148  13.406
 2104W        W68535   5.780  20.979   4.154
 2105W        W68536  18.286  39.850   4.857
 2106W        W68537  24.571  27.445   1.286
 2107W        W68538  21.294  29.904  14.441
 2108W        W68539  41.981  38.154  11.118
 2109W        W68540  40.385  35.355   4.128
 2110W        W68541  10.239   0.338  11.218
 2111W        W68542  44.539  15.633  12.935
 2112W        W68543  39.908  10.243   4.554
 2113W        W68544  28.216  40.769  14.402
 2114W        W68545  18.989   4.929   1.498
 2115W        W68546   8.719   8.297   1.981
 2116W        W68547  36.365  17.026  13.351
 2117W        W68548  40.533  10.927  13.797
 2118W        W68549  21.255   6.901   3.068
 2119W        W68550  12.953   8.389   4.249
 2120W        W68551  30.287  27.480   3.261
 2121W        W68552  19.294  29.090  14.821
 2122W        W68553  28.795  22.896   1.138
 2123W        W68554  38.550  39.827  13.884
 2124W        W68555  25.380   2.964  13.450
 2125W        W68556  32.402  31.969   2.089
 2126W        W68557  22.592  39.341  12.138
 2127W        W68558  34.843   1.192   1.951
 2128W        W68559  35.169  29.660   0.316
 2129W        W68560  26.877  13.536   1.890
 2130W        W68561  15.757  22.555  12.936
 2131W        W68562  33.616   2.543   1.808
 2132W        W68563   2.250  29.825  10.662
 2133W        W68564  26.702  24.200   3.707
 2134W        W68565  17.684  19.501  12.684
 2135W        W68566  13.363  18.215  10.331
 2136W        W68567  13.615  29.398   1.140
 2137W        W68568  40.512   9.237  11.511
 2138W        W68569  14.104  35.472  11.309
 2139W        W68570  41.069  34.763  11.592
 2140W        W68571  37.666  29.390  10.248
 2141W        W68572  19.550   0.367   2.959
 2142W        W68573  30.169  30.254   3.672
 2143W        W68574   8.990  44.975   0.250
 2144W        W68575   0.470  37.079  12.081
 2145W        W68576   2.898   7.813  13.916
 2146W        W68577   1.300  35.776   3.694
 2147W        W68578   8.887  17.551   2.187
 2148W        W68579  10.213  29.454  12.873
 2149W        W68580  39.265  23.140  11.688
 2150W        W68581   8.831  16.173   4.461
 2151W        W68582  12.644   4.402  13.968
 2152W        W68583   3.282   8.736  11.174
 2153W        W68584  12.145  26.412  12.062
 2154W        W68585  40.466  35.763  14.865
 2155W        W68586  24.849   8.329   1.274
 2156W        W68587  32.308  27.975  14.379
 2157W        W68588  16.310  20.089   2.615
 2158W        W68589   5.928   4.066  12.455
 2159W        W68590  35.139  43.651   0.262
 2160W        W68591  15.259   4.920  13.608
 2161W        W68592   9.535  10.948   0.001
 2162W        W68593  33.032  11.448   4.530
 2163W        W68594  11.184  44.003   4.508
 2164W        W68595   7.942  20.437   2.763
 2165W        W68596  40.875  15.801  12.857
 2166W        W68597  39.854  37.701  14.803
 2167W        W68598  41.284  20.089   3.849
 2168W        W68599  34.418  21.150  11.834
 2169W        W68600  43.040  14.867   4.565
 2170W        W68601   3.540  35.996  13.864
 2171W        W68602   1.310  16.467  13.910
 2172W        W68603  12.661  29.072   3.435
 2173W        W68604   1.247  44.639  14.048
 2174W        W68605  34.028  35.411  12.070
 2175W        W68606  16.357  38.023  10.633
 2176W        W68607  40.520  27.723   4.069
 2177W        W68608  36.707   7.184   0.280
 2178W        W68609  41.741  25.998   4.636
 2179W        W68610   1.839   0.996   3.590
 2180W        W68611  36.197  32.475   2.456
 2181W        W68612   0.994  33.259  12.879
 2182W        W68613  16.736  16.389   1.352
 2183W        W68614  11.721  34.205   0.701
 2184W        W68615  23.393  38.805   3.823
 2185W        W68616  36.441   8.085   1.405
 2186W        W68617  11.130  20.818   2.023
 2187W        W68618  18.595   3.401  11.514
 2188W        W68619  39.409  10.160   3.105
 2189W        W68620   4.917   6.098   0.305
 2190W        W68621  15.641   1.971  12.433
 2191W        W68622   8.076   7.731   4.657
 2192W        W68623  14.304  43.427   0.526
 2193W        W68624   4.674  15.202  10.520
 2194W        W68625   0.195   6.927  10.681
 2195W        W68626  44.425  15.223  13.226
 2196W        W68627  13.730  12.717   4.298
 2197W        W68628  40.056  27.900   2.257
 2198W        W68629  26.945  29.438   0.357
 2199W        W68630   5.763  30.104  13.364
 2200W        W68631  39.328  10.160   2.066
 2201W        W68632   4.363   4.682  11.510
 2202W        W68633  13.637  17.012   4.955
 2203W        W68634  12.965  35.812  14.789
 2204W        W68635  37.624  32.062   3.194
 2205W        W68636   2.889  22.692   0.288
 2206W        W68637  30.021   1.504  12.784
 2207W        W68638  18.933  11.841   1.619
 2208W        W68639   8.467  12.901   5.229
 2209W        W68640  34.043   8.199   3.798
 2210W        W68641  31.351  35.486  12.934
 2211W        W68642   2.845  14.018  13.982
 2212W        W68643  30.056  18.584  13.842
 2213W        W68644  22.574  27.874   1.793
 2214W        W68645   0.034  30.416   1.111
 2215W        W68646   6.558   9.760   0.320
 2216W        W68647   1.047  20.108  11.094
 2217W        W68648  44.385  16.598   4.582
 2218W        W68649  22.470  12.691   3.316
 2219W        W68650  11.068  21.634  14.396
 2220W        W68651   3.721   3.426   4.549
 2221W        W68652  34.601  26.257  11.660
 2222W        W68653  19.790  40.587   0.732
 2223W        W68654  34.941  29.049  12.109
 2224W        W68655   9.421   6.704  14.330
 2225W        W68656  24.053  33.181   1.312
 2226W        W68657  41.454  29.885  11.686
 2227W        W68658  22.959  26.466   3.116
 2228W        W68659  32.869  16.650  13.947
 2229W        W68660  18.124  25.078   0.708
 2230W        W68661  41.510  29.446   0.457
 2231W        W68662   6.779  11.688  14.459
 2232W        W68663  10.720  31.350  11.952
 2233W        W68664  40.015  13.651  12.807
 2234W        W68665   1.675   3.947   0.025
 2235W        W68666   2.761   2.466  12.871
 2236W        W68667  32.543  32.438   2.399
 2237W        W68668  39.116  29.025  13.491
 2238W        W68669  35.284   5.404   0.757
 2239W        W68670  21.627  38.588  12.995
 2240W        W68671  38.402  23.146   3.691
 2241W        W68672  44.274  27.743   4.440
 2242W        W68673  39.567  15.151   0.925
 2243W        W68674  38.734  26.478   1.728
 2244W        W68675  22.537  12.202   1.551
 2245W        W68676  32.315  30.400   2.657
 2246W        W68677  10.303  41.386  14.484
 2247W        W68678  13.674  27.142   4.090
 2248W        W68679  29.064   0.038   1.861
 2249W        W68680  12.826   4.799   0.617
 2250W        W68681  32.868  19.954  11.101
 2251W        W68682  15.599  29.400   0.400
 2252W        W68683  30.393  24.075   2.781
 2253W        W68684  29.899  28.398   1.206
 2254W        W68685  44.887  26.233   2.866
 2255W        W68686   3.318  33.494  11.911
 2256W        W68687   1.435  38.257   4.468
 2257W        W68688  28.041  24.584   2.752
 2258W        W68689  10.675  28.589   0.457
 2259W        W68690  28.958  36.173   3.951
 2260W        W68691  19.837  43.117   2.057
 2261W        W68692  31.069  44.580   1.891
 2262W        W68693  16.193  24.607  11.534
 2263W        W68694  12.440  17.760   4.268
 2264W        W68695   2.996   6.766   1.299
 2265W        W68696  37.208   9.356  11.125
 2266W        W68697  16.195  27.169  13.914
 2267W        W68698  20.282   2.996  14.270
 2268W        W68699  24.013   7.950  11.187
 2269W        W68700   7.343   5.519  12.452
 2270W        W68701   4.937  35.634  10.493
 2271W        W68702  26.910  37.963  10.694
 2272W        W68703  27.184  39.419  12.209
 2273W        W68704  43.082  17.400  12.006
 2274W        W68705  29.013  24.892   1.235
 2275W        W68706   8.589  17.425  12.944
 2276W        W68707   5.193  28.539  14.057
 2277W        W68708  26.800  15.756  12.400
 2278W        W68709  36.363  11.179   2.176
 2279W        W68710   5.700  36.385  10.683
 2280W        W68711  14.728   5.799  13.598
 2281W        W68712  13.660  22.060  11.693
 2282W        W68713  30.901   0.227  12.062
 2283W        W68714  37.412  39.837  12.195
 2284W        W68715  17.777  22.766   1.719
 2285W        W68716  28.590   9.824  13.056
 2286W        W68717  13.356  28.966   3.761
 2287W        W68718   2.709  15.341   0.301
 2288W        W68719  17.603  41.337  13.519
 2289W        W68720  24.272  40.392   1.460
 2290W        W68721  44.774  31.472   4.332
 2291W        W68722   8.677  23.177   3.089
 2292W        W68723   4.830  28.674   3.771
 2293W        W68724  25.259  21.517   1.803
 2294W        W68725  38.799  10.606   2.375
 2295W        W68726  26.720   4.299   0.442
 2296W        W68727  44.868  11.233   2.796
 2297W        W68728  30.117  28.390   4.101
 2298W        W68729   2.797  26.312   0.639
 2299W        W68730  38.978  20.005  11.566
 2300W        W68731   2.661  30.695  10.760
 2301W        W68732  31.860  35.482   0.404
 2302W        W68733  23.189  24.180  10.791
 2303W        W68734   3.939  13.936   4.505
 2304W        W68735  18.427  18.949  11.460
 2305W        W68736  28.444  16.241   0.435
 2306W        W68737   8.803  18.919   1.947
 2307W        W68738  29.692  22.684   0.686
 2308W        W68739  30.662  17.637  11.414
 2309W        W68740  36.391   8.673  12.547
 2310W        W68741  26.989  17.594   1.304
 2311W        W68742  38.900  33.165  14.137
 2312W        W68743  15.258  29.912   0.431
 2313W        W68744  12.122  18.728  12.795
 2314W        W68745   4.157  24.032   2.492
 2315W        W68746  26.238   8.809  12.623
 2316W        W68747   8.594  39.019   4.228
 2317W        W68748  30.015  18.422   2.600
 2318W        W68749  40.035  42.047   0.106
 2319W        W68750  42.796  13.244  12.141
 2320W        W68751  17.516  27.664   3.936
 2321W        W68752  21.233   1.868  13.335
 2322W        W68753   1.485  20.489   2.932
 2323W        W68754  39.514  30.724  13.885
 2324W        W68755  43.029  41.763   2.715
 2325W        W68756   8.840   7.842   3.297
 2326W        W68757  43.738  17.146   2.285
 2327W        W68758  15.386   2.927   1.824
 2328W        W68759  37.002  32.098   0.455
 2329W        W68760  44.494  43.925   0.892
 2330W        W68761  24.416  17.623  11.562
 2331W        W68762   2.407  20.538  13.703
 2332W        W68763  34.782  20.647   2.850
 2333W        W68764  43.356  40.001   4.402
 2334W        W68765  17.697  41.984  12.911
 2335W        W68766  14.859  31.580  13.039
 2336W        W68767  20.433  27.183  11.049
 2337W        W68768  28.060  33.704   4.336
 2338W        W68769   3.394  24.969   4.541
 2339W        W68770  18.856  33.219  13.001
 2340W        W68771   3.988  43.928  13.127
 2341W        W68772   5.987  32.914  12.714
 2342W        W68773   9.362   2.215  11.937
 2343W        W68774  27.911  36.089  10.490
 2344W        W68775  41.845  44.477   3.614
 2345W        W68776   5.913  37.958   3.598
 2346W        W68777  31.219   3.981   0.904
 2347W        W68778  43.030  31.934   4.536
 2348W        W68779  30.522   8.290   3.497
 2349W        W68780  19.150   7.247   3.580
 2350W        W68781  17.513  38.033   0.463
 2351W        W68782   9.258  24.731  13.844
 2352W        W68783  41.869  28.704  11.549
 2353W        W68784  15.242  18.192  10.996
 2354W        W68785  42.575  11.576  13.144
 2355W        W68786  30.392  33.819   3.081
 2356W        W68787  25.139   4.903  13.046
 2357W        W68788  31.991  34.691  14.623
 2358W        W68789  37.314  29.234   2.266
 2359W        W68790  33.893   4.052  12.813
 2360W        W68791  25.873  22.800   3.572
 2361W        W68792  12.551  42.977  13.733
 2362W        W68793  29.544  20.816   0.289
 2363W        W68794  42.058  30.453  12.951
 2364W        W68795  21.503  22.457  10.679
 2365W        W68796  44.691  28.270   2.224
 2366W        W68797  28.739  38.919  13.587
 2367W        W68798  26.757  10.955   2.841
 2368W        W68799  17.757  37.838  13.998
 2369W        W68800  40.804  14.700   4.106
 2370W        W68801  39.875  27.460  11.793
 2371W        W68802   5.668  20.095  12.924
 2372W        W68803  30.902  17.297   0.374
 2373W        W68804  15.177  31.903   1.494
 2374W        W68805  39.988  39.919   1.718
 2375W        W68806  26.188  30.588   2.129
 2376W        W68807  27.604  18.645   0.892
 2377W        W68808  44.071  35.301   1.360
 2378W        W68809   7.751  36.984  12.484
 2379W        W68810  36.386  42.759   1.715
 2380W        W68811  40.805  31.474   2.296
 2381W        W68812   7.222  19.634   3.673
 2382W        W68813  15.507  25.529   1.055
 2383W        W68814  15.314   5.490   1.886
 2384W        W68815   3.879  10.653  13.731
 2385W        W68816   6.245  11.361   1.685
 2386W        W68817  25.656  40.263   0.054
 2387W        W68818  24.145   2.833  11.928
 2388W        W68819   8.517  23.976   1.878
 2389W        W68820   1.488  30.374   2.206
 2390W        W68821  12.720  33.719   0.734
 2391W        W68822  42.908   8.802   0.023
 2392W        W68823   5.878   9.278   4.973
 2393W        W68824  33.481  19.859   3.004
 2394W        W68825  27.199  28.462   0.495
 2395W        W68826  22.988  17.535   0.883
 2396W        W68827  25.568  21.843   0.258
 2397W        W68828   6.229   3.373  10.121
 2398W        W68829  24.665  38.872  10.644
 2399W        W68830  36.921   0.169  10.743
 2400W        W68831  11.296  43.034  14.732
 2401W        W68832  31.619  23.571   4.686
 2402W        W68833   2.734  35.549  10.455
 2403W        W68834  41.065  16.610  12.950
 2404W        W68835  41.027  16.357  11.639
 2405W        W68836  25.677   3.848   4.157
 2406W        W68837  22.944  38.180  12.928
 2407W        W68838  29.037  27.023   4.935
 2408W        W68839  22.593  36.995   0.106
 2409W        W68840   5.234  33.581  11.971
 2410W        W68841  26.691  37.385   2.590
 2411W        W68842  32.968  13.659  11.645
 2412W        W68843  15.998  42.982   2.709
 2413W        W68844  22.692  28.123  11.545
 2414W        W68845  29.434   9.462   3.730
 2415W        W68846  26.277   7.224   1.676
 2416W        W68847  32.973  28.256  13.017
 2417W        W68848  34.103  34.028   2.158
 2418W        W68849  28.551  22.849   0.153
 2419W        W68850   6.328  25.511  14.251
 2420W        W68851   2.978   5.196   2.252
 2421W        W68852   8.782  43.329  13.512
 2422W        W68853   4.417  44.443  11.579
 2423W        W68854   4.449  29.173   3.917
 2424W        W68855  44.030  16.116  13.616
 2425W        W68856  30.103  43.913  12.968
 2426W        W68857  44.558  16.640  12.961
 2427W        W68858  24.993  31.038  10.069
 2428W        W68859  35.794  32.139  14.065
 2429W        W68860  22.167  27.001   1.811
 2430W        W68861  37.781  23.690   0.385
 2431W        W68862  26.075  26.016   4.405
 2432W        W68863  29.604  12.549   2.798
 2433W        W68864  28.046  20.358  12.953
 2434W        W68865  11.413   4.880   2.223
 2435W        W68866  11.345  25.980  11.948
 2436W        W68867  16.789   0.732   2.699
 2437W        W68868  35.745  28.327   2.459
 2438W        W68869  27.089   6.439  12.411
 2439W        W68870  26.031   8.916   3.108
 2440W        W68871  25.302   3.791   2.736
 2441W        W68872  38.635  16.685   0.062
 2442W        W68873  36.479  16.861  12.503
 2443W        W68874  37.492  11.158   0.827
 2444W        W68875  27.546   7.236   1.074
 2445W        W68876  39.550  27.233  12.154
 2446W        W68877  21.684  18.120   4.559
 2447W        W68878   8.304  24.943  12.441
 2448W        W68879  14.066  27.479   4.071
 2449W        W68880   7.198  34.285  11.251
 2450W        W68881  18.763   1.813  11.852
 2451W        W68882  33.346  42.255  12.582
 2452W        W68883   0.801   4.516   0.291
 2453W        W68884  35.934  10.880   3.080
 2454W        W68885  31.550  30.661  13.964
 2455W        W68886  16.765  43.828  14.032
 2456W        W68887  10.837  23.715   0.569
 2457W        W68888  10.755  12.354  10.686
 2458W        W68889  15.149  43.673  14.309
 2459W        W68890  32.942  23.190   1.592
 2460W        W68891  23.023  30.337  13.653
 2461W        W68892  18.386  29.150  12.527
 2462W        W68893  26.740  39.130  14.424
 2463W        W68894   1.940  41.820   4.581
 2464W        W68895  36.880  37.156  11.072
 2465W        W68896   7.859   4.015  13.015
 2466W        W68897  43.124   7.754   4.757
 2467W        W68898  28.978  35.893   2.436
 2468W        W68899  23.648  10.752   1.306
 2469W        W68900  17.091  34.172  12.896
 2470W        W68901  10.543  30.069   1.046
 2471W        W68902   2.276  44.291   0.263
 2472W        W68903  20.281  24.044   1.753
 2473W        W68904  44.024   1.049  14.359
 2474W        W68905   8.701  19.037  13.915
 2475W        W68906  40.506   5.191  12.510
 2476W        W68907  39.581  20.767   1.330
 2477W        W68908  43.904  37.754   4.182
 2478W        W68909  23.432  16.262   0.865
 2479W        W68910  33.435  39.459   2.580
 2480W        W68911   4.794   6.758   3.103
 2481W        W68912  12.348  44.740   4.875
 2482W        W68913  38.766  13.419  12.790
 2483W        W68914  27.411   3.226  12.909
 2484W        W68915   8.569  13.427   4.166
 2485W        W68916  36.568   8.943   0.198
 2486W        W68917  18.894  44.340   0.884
 2487W        W68918  44.986  31.083   2.301
 2488W        W68919  18.188  23.302  10.766
 2489W        W68920  26.039   6.610   0.557
 2490W        W68921   9.228  35.858   4.553
 2491W        W68922  39.319  26.488  13.462
 2492W        W68923   0.068  38.152  14.528
 2493W        W68924   6.391  34.538   0.990
 2494W        W68925   0.746  37.096   2.852
 2495W        W68926   9.305   3.064   3.713
 2496W        W68927  29.301  40.392   1.294
 2497W        W68928  15.350  11.293   2.472
 2498W        W68929   9.851  40.335  11.365
 2499W        W68930   3.381  22.117  10.694
 2500W        W68931  23.168  15.695  13.603
 2501W        W68932  41.834  11.575  14.493
 2502W        W68933  25.224  11.732   1.956
 2503W        W68934  22.208  33.931  11.598
 2504W        W68935  29.360  29.551   2.145
 2505W        W68936  28.941  31.166   2.833
 2506W        W68937   3.522  36.543  13.977
 2507W        W68938  43.483  40.425   4.139
 2508W        W68939  29.461  17.994  11.080
 2509W        W68940  17.060  19.602   3.297
 2510W        W68941  21.582  40.759   1.309
 2511W        W68942  15.950  42.350   3.261
 2512W        W68943  35.966  31.201  13.114
 2513W        W68944  21.633  11.653  10.800
 2514W        W68945  34.062  35.652   2.741
 2515W        W68946  14.917  12.236   4.577
 2516W        W68947  21.208  20.704  14.013
 2517W        W68948  19.631   2.782  12.475
 2518W        W68949   3.915  31.418  10.655
 2519W        W68950   7.814   2.243   2.859
 2520W        W68951  13.855   7.882  10.654
 2521W        W68952  42.414   6.844   1.334
 2522W        W68953  43.243  11.354  13.215
 2523W        W68954  41.824  23.572  13.349
 2524W        W68955   2.896  34.433  11.033
 2525W        W68956   9.210  14.336  14.427
 2526W        W68957  24.585  38.762   5.239
 2527W        W68958   6.666  15.090   3.089
 2528W        W68959  15.125   9.689  12.981
 2529W        W68960  10.341  33.513  13.292
 2530W        W68961  26.998  28.577  10.008
 2531W        W68962   4.481  13.408  14.486
 2532W        W68963  11.815   6.980   3.770
 2533W        W68964  10.855  11.328   2.812
 2534W        W68965  28.664   3.038   5.088
 2535W        W68966  31.762  31.042   5.075
 2536W        W68967  12.971  19.000  12.415
 2537W        W68968   2.932  41.783   0.764
 2538W        W68969  35.587   5.674   1.342
 2539W        W68970  30.017  11.116  10.655
 2540W        W68971   9.370   4.184  11.473
 2541W        W68972  13.264  13.780   0.888
 2542W        W68973  24.701  42.947   4.545
 2543W        W68974  30.542  13.518  14.424
 2544W        W68975  39.041  15.010   4.506
 2545W        W68976   9.447  24.396   4.093
 2546W        W68977  34.504  34.073  12.150
 2547W        W68978  31.412  14.234   2.454
 2548W        W68979  18.604   3.269   2.935
 2549W        W68980   5.178   1.946   1.843
 2550W        W68981  40.384   9.767  14.374
 2551W        W68982   4.283  16.675  13.347
 2552W        W68983  15.696  40.803   1.284
 2553W        W68984  29.148  30.165   1.348
 2554W        W68985  19.635   2.024  11.989
 2555W        W68986  26.310  24.572  12.145
 2556W        W68987  40.224  31.139   0.084
 2557W        W68988  26.290  27.553   4.129
 2558W        W68989  22.252  24.872  11.519
 2559W        W68990  44.240  29.330   2.290
 2560W        W68991  19.735  41.329  12.003
 2561W        W68992  34.059  31.860  13.612
 2562W        W68993  25.113   5.312   4.076
 2563W        W68994  30.591  11.511   3.859
 2564W        W68995  12.822   7.954  14.731
 2565W        W68996  24.285  21.432  14.965
 2566W        W68997  24.714  36.790  14.501
 2567W        W68998  38.887  28.387  13.176
 2568W        W68999   6.059  35.906   0.054
 2569W        W69000  44.998   8.642   4.152
 2570W        W69001  19.793  22.151   4.824
 2571W        W69002   8.680  22.740   3.389
 2572W        W69003  34.160  44.050   4.190
 2573W        W69004  32.381   3.169  11.082
 2574W        W69005  18.425  26.764   3.539
 2575W        W69006  20.717  27.493   4.697
 2576W        W69007  41.987  24.020  13.923
 2577W        W69008  21.569  16.579   1.378
 2578W        W69009  19.934  39.117   0.847
 2579W        W69010  17.816  35.103  14.906
 2580W        W69011  33.968   3.840  13.270
 2581W        W69012  38.977   6.846   3.735
 2582W        W69013  28.527  28.495   4.325
 2583W        W69014  26.982  18.100   0.933
 2584W        W69015  29.599  23.788  11.590
 2585W        W69016   8.737  29.141   2.666
 2586W        W69017  43.934  32.076   3.443
 2587W        W69018  14.897  32.451  13.056
 2588W        W69019  17.566  21.991   0.010
 2589W        W69020   6.857  33.198   4.385
 2590W        W69021  20.694  42.553   4.558
 2591W        W69022  18.208   2.737  14.516
 2592W        W69023  19.352  12.392  14.789
 2593W        W69024   0.271  15.630   4.300
 2594W        W69025   2.777  37.228  12.613
 2595W        W69026  44.635  29.005  10.683
 2596W        W69027  43.761  37.536   1.490
 2597W        W69028  10.559  11.787   3.843
 2598W        W69029  19.671   1.678  14.311
 2599W        W69030  33.519   0.297  11.218
 2600W        W69031   5.451  21.024   0.008
 2601W        W69032   2.807  15.365   3.851
 2602W        W69033  27.075  44.322   1.265
 2603W        W69034  35.742   2.884  14.038
 2604W        W69035  23.166  37.320   3.772
 2605W        W69036  34.556  23.664  13.413
 2606W        W69037  10.235  24.829  14.976
 2607W        W69038  32.531  43.918   4.151
 2608W        W69039  44.211  12.099   1.200
 2609W        W69040  37.435  30.394  11.651
 2610W        W69041  42.246  42.921   1.802
 2611W        W69042   4.947   4.807   4.138
 2612W        W69043   4.976  24.941  12.498
 2613W        W69044  28.857   7.648  13.348
 2614W        W69045   9.386   1.463  11.490
 2615W        W69046   5.374  23.004  13.883
 2616W        W69047  42.371  33.156   0.449
 2617W        W69048  30.484  39.527  11.001
 2618W        W69049  19.243  21.726   3.169
 2619W        W69050  38.945  23.756   1.358
 2620W        W69051  35.823  35.490   4.900
 2621W        W69052  29.828  22.833   2.897
 2622W        W69053  25.782  14.278   4.945
 2623W        W69054   4.706  15.154   2.282
 2624W        W69055   9.862  43.082  14.011
 2625W        W69056  42.533  27.477   4.071
 2626W        W69057  10.688  21.175   1.478
 2627W        W69058   2.381  22.189   1.907
 2628W        W69059   3.221  27.154  14.870
 2629W        W69060  10.496   8.608  12.094
 2630W        W69061  30.160  11.689  14.442
 2631W        W69062  26.174  13.597   4.589
 2632W        W69063  38.386  11.110  13.847
 2633W        W69064  32.296  18.469   4.134
 2634W        W69065  25.700   3.028  12.141
 2635W        W69066  42.357   7.360   2.379
 2636W        W69067  28.064  27.446   1.562
 2637W        W69068  33.049  41.934   4.951
 2638W        W69069   1.811  31.916  14.081
 2639W        W69070  39.729   2.143  13.965
 2640W        W69071  22.331  42.332  10.968
 2641W        W69072  42.428  18.280   3.306
 2642W        W69073  29.531  30.152  11.274
 2643W        W69074  24.996  43.359  11.987
 2644W        W69075   6.169  15.776  14.277
 2645W        W69076  43.298  36.422   3.706
 2646W        W69077  19.097  37.769   1.689
 2647W        W69078  22.736  32.227  14.015
 2648W        W69079  32.582  37.808   3.077
 2649W        W69080   7.775   6.414   3.483
 2650W        W69081  27.474  44.397  13.274
 2651W        W69082  28.469  16.969  13.119
 2652W        W69083  29.164   4.375  12.948
 2653W        W69084  33.603  38.427  10.552
 2654W        W69085  14.892   9.828   2.485
 2655W        W69086  28.106  35.988   3.202
 2656W        W69087  44.463   1.146   0.248
 2657W        W69088  11.164  27.686  12.363
 2658W        W69089  37.561  32.839   0.054
 2659W        W69090  16.761   5.167  14.229
 2660W        W69091  12.065  22.670   1.410
 2661W        W69092   6.803  30.488   1.382
 2662W        W69093  35.356   1.639  12.160
 2663W        W69094   8.204  41.841  14.280
 2664W        W69095   0.730  44.320  14.982
 2665W        W69096  26.647   4.520   4.099
 2666W        W69097  18.043  20.540  11.088
 2667W        W69098  40.543  19.011  12.222
 2668W        W69099  24.105   4.156   1.257
 2669W        W69100  39.255  30.030   2.716
 2670W        W69101  42.473  24.715  12.074
 2671W        W69102  37.947  34.079  11.672
 2672W        W69103  16.053  40.751   2.168
 2673W        W69104  10.984  35.023  11.584
 2674W        W69105  34.554  17.304  12.144
 2675W        W69106  36.867  38.349   1.199
 2676W        W69107   2.217  42.754  12.248
 2677W        W69108   4.740  19.617  14.878
 2678W        W69109  26.510  22.671   4.678
 2679W        W69110  36.007   5.828   2.242
 2680W        W69111  36.051   6.212   0.861
 2681W        W69112   1.433  28.034   2.787
 2682W        W69113  31.599  44.939  13.410
 2683W        W69114  44.528   8.095  14.439
 2684W        W69115  26.064  35.274  13.866
 2685W        W69116   2.051   5.729  13.363
 2686W        W69117  20.102   0.499  13.863
 2687W        W69118  11.069  34.960  13.140
 2688W        W69119  44.015  35.171   0.739
 2689W        W69120   1.934  18.675   0.870
 2690W        W69121  37.126  40.026   3.432
 2691W        W69122  13.817   2.971  10.109
 2692W        W69123  37.475  25.963  11.982
 2693W        W69124  30.088  44.850   2.460
 2694W        W69125   4.168  15.103   2.203
 2695W        W69126  33.780   7.600   4.603
 2696W        W69127   2.226   0.788  14.996
 2697W        W69128   1.039  37.868   1.757
 2698W        W69129  42.010   0.848  11.665
 2699W        W69130  27.393  28.692  12.426
 2700W        W69131   7.265   2.751  12.164
 2701W        W69132  29.239  39.828  11.144
 2702W        W69133  16.671  11.738  11.994
 2703W        W69134  25.217  30.557  10.043
 2704W        W69135  14.076  10.244   4.683
 2705W        W69136  28.747  19.816  11.595
 2706W        W69137  34.029   1.333   2.390
 2707W        W69138  12.771  32.709   1.074
 2708W        W69139  10.873   0.529   2.229
 2709W        W69140  29.258  28.714   4.080
 2710W        W69141  38.783   4.029   0.882
 2711W        W69142  29.144   2.195  13.910
 2712W        W69143  28.653  32.537  14.983
 2713W        W69144  43.012  13.595  13.036
 2714W        W69145  35.953  36.319  14.553
 2715W        W69146  40.758  12.456   3.723
 2716W        W69147  29.494  38.973  11.980
 2717W        W69148  17.097  35.967  10.937
 2718W        W69149  26.191  35.723   3.723
 2719W        W69150  40.220  18.377  13.931
 2720W        W69151  13.878  21.031   3.693
 2721W        W69152  31.916  10.759   3.829
 2722W        W69153  23.987  20.798  11.853
 2723W        W69154  33.872  13.180  14.747
 2724W        W69155   6.101  14.265  14.260
 2725W        W69156   6.946  10.749  11.506
 2726W        W69157  15.760  34.366   0.412
 2727W        W69158  26.994   1.046   0.040
 2728W        W69159  38.034  17.246   4.820
 2729W        W69160  18.198  29.456  12.923
 2730W        W69161   4.702  13.353   1.009
 2731W        W69162  21.254  26.895  14.043
 2732W        W69163  18.059  43.404  11.646
 2733W        W69164  32.110  36.181  14.874
 2734W        W69165  30.978   4.868  10.767
 2735W        W69166  10.190  32.760  10.729
 2736W        W69167  32.171  29.714  13.050
 2737W        W69168  24.292  20.637  13.217
 2738W        W69169  16.072   4.442   3.177
 2739W        W69170   7.697  27.893   3.228
 2740W        W69171  15.982   4.810  13.869
 2741W        W69172  25.313  20.247   1.177
 2742W        W69173  19.748  32.064   1.792
 2743W        W69174  42.474  23.616  14.516
 2744W        W69175   4.712   6.316  14.247
 2745W        W69176  24.531  28.576  12.156
 2746W        W69177  29.076  42.033   3.241
 2747W        W69178   7.704  25.640  12.520
 2748W        W69179  31.168  40.030  11.543
 2749W        W69180  24.907   3.281  14.024
 2750W        W69181  14.484  30.967  12.000
 2751W        W69182  33.463  29.400  14.263
 2752W        W69183   6.647  34.665  11.034
 2753W        W69184  15.206  44.692  10.644
 2754W        W69185  37.600   3.243  12.936
 2755W        W69186  14.055  12.091   4.153
 2756W        W69187   7.696  25.847   3.302
 2757W        W69188  27.791  39.378   1.843
 2758W        W69189  16.433  14.586   2.181
 2759W        W69190  25.297   4.783   3.986
 2760W        W69191  19.656  21.118   9.915
 2761W        W69192  14.213  43.969   2.294
 2762W        W69193  32.067   6.239   0.183
 2763W        W69194  26.231  35.902   1.377
 2764W        W69195   7.233  10.468   4.398
 2765W        W69196  26.974  12.663  12.972
 2766W        W69197  28.771  37.080  14.699
 2767W        W69198   6.950  34.107  12.186
 2768W        W69199  37.622  37.912   3.099
 2769W        W69200  25.667  28.141  13.621
 2770W        W69201   1.450  23.582   2.161
 2771W        W69202  15.928  43.677  12.848
 2772W        W69203  12.664   1.211  12.108
 2773W        W69204  12.865  42.496  12.914
 2774W        W69205  30.997  42.834  12.537
 2775W        W69206  37.565   4.285   1.521
 2776W        W69207   7.889  42.558   4.194
 2777W        W69208  27.664  17.647   0.442
 2778W        W69209  33.960  35.142  10.987
 2779W        W69210  17.290  32.600   3.690
 2780W        W69211  21.930  25.308   3.176
 2781W        W69212  42.996  34.850   2.439
 2782W        W69213  20.500  18.322  11.686
 2783W        W69214  28.740  10.880   4.369
 2784W        W69215   8.996  37.569  11.509
 2785W        W69216  11.131  15.385   1.460
 2786W        W69217   0.105  17.141  11.955
 2787W        W69218  44.608  18.560   3.580
 2788W        W69219   3.417  41.948   1.468
 2789W        W69220   3.975   8.364  14.890
 2790W        W69221  23.677  25.188   0.314
 2791W        W69222  18.240   3.940   4.880
 2792W        W69223  30.657   8.015   4.493
 2793W        W69224  28.477   5.152   1.725
 2794W        W69225  15.763  29.902   4.509
 2795W        W69226  20.282   6.913  13.920
 2796W        W69227  20.668   3.052   0.212
 2797W        W69228  31.956   0.196  12.474
 2798W        W69229  39.622  32.863  11.095
 2799W        W69230  39.866  16.932   3.334
 2800W        W69231  37.163  33.195   4.676
 2801W        W69232  42.529  19.239   4.467
 2802W        W69233  27.085  16.813  13.497
 2803W        W69234  41.939  18.974   1.432
 2804W        W69235  39.302  12.817   1.199
 2805W        W69236  38.326  16.126   3.351
 2806W        W69237  27.268  38.829   3.358
 2807W        W69238  38.323  34.938   4.538
 2808W        W69239   1.413  22.084  11.605
 2809W        W69240  39.147   5.927   1.945
 2810W        W69241  22.404  40.479  13.860
 2811W        W69242   5.228   8.603   3.147
 2812W        W69243  38.084   3.762  14.396
 2813W        W69244  32.230   8.474  12.546
 2814W        W69245  12.196   3.214   1.452
 2815W        W69246  43.818  40.550   1.961
 2816W        W69247  43.527  37.444   2.050
 2817W        W69248  33.622  39.989   3.279
 2818W        W69249   4.434  21.990  11.558
 2819W        W69250  16.891  35.649  12.239
 2820W        W69251  33.564  30.664  10.072
 2821W        W69252  30.983  13.817   3.023
 2822W        W69253  17.336  17.222  14.827
 2823W        W69254  37.563  21.107   1.742
 2824W        W69255  16.253  35.813   0.771
 2825W        W69256  25.530  14.365  12.643
 2826W        W69257  32.115  31.490  14.742
 2827W        W69258  26.161  40.021  12.756
 2828W        W69259  39.976   4.646  12.547
 2829W        W69260  28.409   2.103  10.952
 2830W        W69261  32.914  12.814  13.998
 2831W        W69262  15.719  37.956   3.128
 2832W        W69263  32.304  31.087   0.503
 2833W        W69264  18.279  13.018   1.733
 2834W        W69265   4.845  43.227   2.181
 2835W        W69266  40.048   9.770  11.240
 2836W        W69267  35.311  16.425  14.956
 2837W        W69268  43.441  18.625  14.231
 2838W        W69269  11.692  16.067   0.368
 2839W        W69270  36.482  28.480   0.225
 2840W        W69271  27.414   7.325   3.881
 2841W        W69272   8.847   5.535  11.511
 2842W        W69273   8.285   0.072   2.332
 2843W        W69274  15.693  16.762   2.373
 2844W        W69275  27.404  35.470   1.324
 2845W        W69276  10.339  40.234   4.680
 2846W        W69277  33.234   5.594   4.946
 2847W        W69278  17.476  18.163  14.552
 2848W        W69279  44.587  12.169  10.766
 2849W        W69280  10.965  28.386   4.230
 2850W        W69281  43.094  14.724  13.243
 2851W        W69282  19.474  13.620  12.945
 2852W        W69283  13.624  31.660  13.318
 2853W        W69284   1.980  18.371  11.488
 2854W        W69285  11.253  15.810  14.198
 2855W        W69286  12.832  29.536  14.794
 2856W        W69287  21.299   6.938  11.107
 2857W        W69288  37.855  31.155  14.255
 2858W        W69289  36.048  29.051   9.819
 2859W        W69290  23.761  40.099   5.011
 2860W        W69291  12.330  41.799   0.865
 2861W        W69292   0.316  20.092  13.303
 2862W        W69293  16.079  22.546   1.126
 2863W        W69294  26.914  40.460   1.203
 2864W        W69295   3.969  40.270   3.134
 2865W        W69296  12.760  14.513   0.438
 2866W        W69297  30.280   9.318   0.710
 2867W        W69298  33.547  42.914   2.293
 2868W        W69299  29.615  38.571   3.680
 2869W        W69300   2.271   7.089   0.088
 2870W        W69301  11.185   7.757  11.187
 2871W        W69302  22.084  19.335   0.691
 2872W        W69303  15.386  11.174  11.044
 2873W        W69304  21.137   4.399  14.835
 2874W        W69305  36.527  14.719  12.932
 2875W        W69306  18.836  38.244   0.152
 2876W        W69307   6.745  22.612  14.690
 2877W        W69308  24.772  13.850  12.158
 2878W        W69309  36.342   9.402  14.374
 2879W        W69310  39.308  43.533   1.695
 2880W        W69311   2.967  39.263   3.741
 2881W        W69312  35.961  35.376  14.289
 2882W        W69313  15.775  32.479   1.929
 2883W        W69314  20.356  21.812   4.260
 2884W        W69315  36.964  15.763  14.700
 2885W        W69316  21.493  16.048  14.327
 2886W        W69317  12.821  17.537   3.989
 2887W        W69318   1.276  37.149  14.491
 2888W        W69319  23.574  28.024  10.505
 2889W        W69320   8.369  39.097  13.067
 2890W        W69321  15.195  44.001  13.844
 2891W        W69322   6.799  29.724  11.961
 2892W        W69323  34.425  21.931   1.696
 2893W        W69324  34.502  26.956   0.309
 2894W        W69325  30.221  31.680   3.013
 2895W        W69326  35.900  20.358  10.987
 2896W        W69327  30.070   5.824  13.686
 2897W        W69328  33.968   3.187  10.109
 2898W        W69329  44.566  19.301   3.167
 2899W        W69330  17.471  44.485   3.718
 2900W        W69331  12.428  24.765   4.121
 2901W        W69332   4.485  36.139  13.784
 2902W        W69333  44.328  25.739   1.320
 2903W        W69334  12.707  11.271   2.161
 2904W        W69335   0.363  25.762  13.174
 2905W        W69336  22.299  41.819  12.008
 2906W        W69337  41.478  26.150   0.051
 2907W        W69338  26.160  12.380   4.172
 2908W        W69339  15.278  10.668   4.401
 2909W        W69340  42.556  12.206   4.085
 2910W        W69341   8.784  29.567   1.489
 2911W        W69342  14.648   0.498   1.723
 2912W        W69343  13.769  21.113  12.221
 2913W        W69344  19.204  41.775   1.658
 2914W        W69345  24.208  11.340   2.311
 2915W        W69346  12.801  33.541   3.371
 2916W        W69347  22.067  28.939  13.397
 2917W        W69348  30.107  25.480   1.956
 2918W        W69349  12.575  20.151   1.316
 2919W        W69350  28.617  11.571  12.042
 2920W        W69351   0.429  13.692   1.737
 2921W        W69352  25.505  13.316  12.637
 2922W        W69353  25.453  34.812  11.196
 2923W        W69354  25.042  42.094   2.455
 2924W        W69355  32.195  13.374  10.756
 2925W        W69356  31.614   2.445  13.434
 2926W        W69357  15.371  44.758  11.884
 2927W        W69358  37.192   2.226  12.928
 2928W        W69359  15.353  13.751   3.754
 2929W        W69360  13.815  19.617  10.684
 2930W        W69361  39.456  23.709  11.616
 2931W        W69362  33.851  44.794   0.837
 2932W        W69363  16.802  40.051   3.669
 2933W        W69364  39.534  16.821   2.066
 2934W        W69365  44.552  31.817   0.237
 2935W        W69366  44.862  23.227  11.200
 2936W        W69367  16.602  34.916   2.800
 2937W        W69368   3.378  16.443  12.754
 2938W        W69369   2.965  38.723  12.239
 2939W        W69370  42.007  25.461  13.653
 2940W        W69371   4.939  21.952  13.585
 2941W        W69372  35.152   2.734  14.735
 2942W        W69373  26.296   6.849  12.979
 2943W        W69374  16.110   1.337   2.148
 2944W        W69375  35.643  17.748   3.441
 2945W        W69376  32.947   8.910   3.165
 2946W        W69377  41.761  22.941  12.183
 2947W        W69378  16.990  26.887  11.567
 2948W        W69379  32.416   8.581  13.450
 2949W        W69380  32.290  43.522   1.246
 2950W        W69381  11.702  33.614   1.934
 2951W        W69382   3.083  30.025  14.185
 2952W        W69383   0.463  22.252   1.387
 2953W        W69384  29.985  42.752   2.216
 2954W        W69385  13.852  14.383  14.289
 2955W        W69386  15.681   1.462  13.818
 2956W        W69387  29.185  35.634   0.816
 2957W        W69388  27.167   7.403   1.409
 2958W        W69389  17.564  27.445   0.907
 2959W        W69390  13.830  26.084  14.991
 2960W        W69391   8.540  13.213  14.916
 2961W        W69392  24.211  31.562   2.732
 2962W        W69393  26.390  15.244  11.187
 2963W        W69394  13.367   0.361   1.681
 2964W        W69395   8.101  12.955  14.639
 2965W        W69396  33.648   0.466   0.462
 2966W        W69397  14.623  36.889  11.590
 2967W        W69398  32.528  41.971   2.590
 2968W        W69399  18.594  18.663  10.649
 2969W        W69400  42.400  27.582   1.648
 2970W        W69401  10.174   6.519  13.820
 2971W        W69402   0.082  35.513   3.287
 2972W        W69403  26.125  16.579   2.718
 2973W        W69404  25.779  16.642  13.901
 2974W        W69405   1.622   3.748  14.470
 2975W        W69406   8.414  22.191   2.209
 2976W        W69407  22.620   3.238   0.175
 2977W        W69408  44.459   5.759  11.720
 2978W        W69409  33.201  32.853   2.882
 2979W        W69410  21.589   5.982   2.946
 2980W        W69411   9.280  28.280  13.750
 2981W        W69412  44.348  19.998  14.987
 2982W        W69413  10.771  17.269   3.181
 2983W        W69414  20.034  44.048  12.036
 2984W        W69415  33.896  14.246   1.235
 2985W        W69416  26.742  12.910   3.893
 2986W        W69417  19.607  24.939  10.808
 2987W        W69418   1.173  37.784   2.237
 2988W        W69419  14.724  43.045  11.805
 2989W        W69420  10.295  34.592  13.513
 2990W        W69421  31.422  32.919   0.006
 2991W        W69422  15.741  16.047  13.347
 2992W        W69423  32.039   5.311   5.508
 2993W        W69424  27.140  44.497   4.544
 2994W        W69425   5.232  44.401   1.250
 2995W        W69426  19.677   4.411  10.305
 2996W        W69427  28.702  36.977   1.144
 2997W        W69428  13.739   8.457   4.892
 2998W        W69429  31.052  39.490   4.358
 2999W        W69430  16.767  43.322  13.031
 3000W        W69431   2.779  12.606   4.706
 3001W        W69432  17.789  18.197  13.559
 3002W        W69433  29.970  18.243  11.199
 3003W        W69434  18.179  39.846   4.340
 3004W        W69435   5.130   9.869  11.178
 3005W        W69436  27.082  18.118   3.468
 3006W        W69437  44.234  27.989  14.868
 3007W        W69438   5.754   5.699  12.971
 3008W        W69439  17.273  43.055   0.158
 3009W        W69440   2.438  19.775   1.365
 3010W        W69441  25.190  27.511   3.572
 3011W        W69442  32.834   2.815  13.079
 3012W        W69443  31.876  41.357   4.656
 3013W        W69444  13.334  40.970   0.305
 3014W        W69445  14.137  36.757  13.019
 3015W        W69446  37.347  11.175  12.501
 3016W        W69447  19.867  36.165   2.705
 3017W        W69448   0.863  34.626  12.548
 3018W        W69449  34.387  41.984  14.855
 3019W        W69450  35.322   2.665  13.832
 3020W        W69451  42.521   8.829  13.365
 3021W        W69452  26.934  16.792  11.640
 3022W        W69453  28.689   8.197  11.129
 3023W        W69454  20.373  41.423   2.350
 3024W        W69455  44.990   4.706   3.149
 3025W        W69456  24.317  27.307   2.268
 3026W        W69457  31.527  37.559  12.955
 3027W        W69458  26.574  42.404   4.215
 3028W        W69459   4.328   8.731   2.181
 3029W        W69460  26.680  24.225  12.303
 3030W        W69461  36.861  23.959  14.857
 3031W        W69462  17.454  37.566   4.131
 3032W        W69463  42.156  27.068  10.710
 3033W        W69464   5.438  11.717  14.287
 3034W        W69465   3.895  27.766   3.280
 3035W        W69466  41.039  39.603   1.161
 3036W        W69467  25.680  44.339  14.568
 3037W        W69468  14.641  40.533   4.341
 3038W        W69469   2.870  28.899   3.436
 3039W        W69470  36.000  24.103   1.278
 3040W        W69471  33.738   8.949  11.183
 3041W        W69472  29.778  27.506   3.275
 3042W        W69473   7.470  39.428   3.660
 3043W        W69474  13.774  41.912  13.764
 3044W        W69475  25.536  24.847   3.448
 3045W        W69476  42.907  32.475  10.678
 3046W        W69477  11.320  16.293  11.433
 3047W        W69478  34.035  40.531  10.517
 3048W        W69479  24.137  43.256   3.241
 3049W        W69480  23.982  31.625  11.174
 3050W        W69481  37.112  15.333   4.323
 3051W        W69482   6.460  33.063  14.927
 3052W        W69483  24.715  32.152  10.248
 3053W        W69484   3.971  18.274  12.274
 3054W        W69485  17.052  27.872  10.531
 3055W        W69486  36.327  30.606  14.377
 3056W        W69487   2.187  40.347  12.458
 3057W        W69488  43.401  41.686   2.193
 3058W        W69489   7.185  13.599   4.649
 3059W        W69490  38.547  15.244   1.157
 3060W        W69491  33.683  36.472   1.333
 3061W        W69492  11.691  31.225  14.430
 3062W        W69493   4.965  34.381  13.408
 3063W        W69494  41.441  17.890   2.068
 3064W        W69495   3.004  44.142   1.806
 3065W        W69496   9.919  15.741  14.945
 3066W        W69497   2.064   0.360   1.637
 3067W        W69498   6.519  27.591  13.929
 3068W        W69499  40.300  14.079  11.648
 3069W        W69500  13.147  39.169   4.593
 3070W        W69501  37.316  20.847   1.306
 3071W        W69502  33.319   7.321   4.767
 3072W        W69503   8.371  15.189  13.902
 3073W        W69504  26.838  29.590  14.234
 3074W        W69505   0.189  18.081  13.733
 3075W        W69506  38.934  10.428   1.867
 3076W        W69507  32.446  38.061   0.686
 3077W        W69508  11.532  43.634   3.576
 3078W        W69509   5.392  31.596   4.077
 3079W        W69510  32.352  13.854  12.563
 3080W        W69511   9.530  20.173  10.944
 3081W        W69512   8.719  21.211   4.667
 3082W        W69513   4.179  11.079   4.611
 3083W        W69514  15.539  10.746   2.456
 3084W        W69515  39.547  40.123   4.062
 3085W        W69516   2.445  41.867   0.907
 3086W        W69517   7.152  39.242   1.854
 3087W        W69518  24.690  42.599   4.163
 3088W        W69519  42.033  31.652   2.775
 3089W        W69520   9.285  17.577   4.258
 3090W        W69521  11.365   7.032   1.198
 3091W        W69522  38.116  43.595   2.719
 3092W        W69523  14.619   3.337  13.376
 3093W        W69524  27.626  33.497  11.715
 3094W        W69525  22.715  26.481   1.125
 3095W        W69526   2.384  32.050  11.130
 3096W        W69527  13.158  27.473   0.513
 3097W        W69528  39.299  28.365  13.477
 3098W        W69529  39.122   3.596   1.002
 3099W        W69530  37.324  40.368   0.251
 3100W        W69531  23.150  18.104  12.614
 3101W        W69532  37.534  38.570  12.490
 3102W        W69533  36.376  18.921   3.202
 3103W        W69534  43.914   7.592   3.305
 3104W        W69535   0.228  43.839  11.419
 3105W        W69536  15.666  19.099   4.498
 3106W        W69537   8.726  12.779  13.902
 3107W        W69538  44.325   7.863  11.963
 3108W        W69539   5.929  23.437  10.866
 3109W        W69540  34.563   7.471   1.849
 3110W        W69541  44.537  17.236   3.764
 3111W        W69542  20.712  43.986   3.401
 3112W        W69543  39.526   0.386  12.752
 3113W        W69544  14.796   9.332   2.621
 3114W        W69545   9.772  29.140  11.931
 3115W        W69546  21.035  13.194  12.377
 3116W        W69547  13.700  39.099   0.403
 3117W        W69548  28.097  41.453   4.134
 3118W        W69549  29.392   3.299   3.954
 3119W        W69550  19.819  38.414   0.421
 3120W        W69551  32.706  20.927  13.823
 3121W        W69552  43.916  21.861   4.143
 3122W        W69553  40.448  13.632  12.473
 3123W        W69554   8.788   6.858  10.291
 3124W        W69555  44.236  43.096   0.459
 3125W        W69556  34.470   7.904  10.396
 3126W        W69557  19.771  19.399  13.928
 3127W        W69558  12.865   9.309  11.639
 3128W        W69559  20.708  40.798   1.758
 3129W        W69560  15.761  37.649  11.552
 3130W        W69561  34.612  19.989  11.187
 3131W        W69562  15.231  35.489   2.688
 3132W        W69563  41.759   0.392  11.706
 3133W        W69564  31.421   2.997   0.025
 3134W        W69565  42.330   7.849  14.285
 3135W        W69566  29.708  39.204  14.993
 3136W        W69567  41.613  42.949   4.381
 3137W        W69568  31.549  44.800   4.572
 3138W        W69569  37.893   3.956   3.757
 3139W        W69570  39.949  20.205  13.023
 3140W        W69571  12.187  14.945  12.907
 3141W        W69572  40.631  35.672  11.716
 3142W        W69573  37.527  24.574   0.783
 3143W        W69574  22.241   5.664   2.217
 3144W        W69575  44.940   4.190   1.172
 3145W        W69576  35.104  18.739   3.682
 3146W        W69577   4.431   4.540  12.592
 3147W        W69578  14.723  17.068   0.822
 3148W        W69579  24.121  35.497  11.035
 3149W        W69580  14.381  22.605  10.200
 3150W        W69581  38.052  16.552  12.661
 3151W        W69582  35.695  12.548  11.588
 3152W        W69583  24.815   6.026   1.320
 3153W        W69584  24.992  34.978  14.778
 3154W        W69585  19.343  26.642   4.517
 3155W        W69586   8.403   0.795   2.398
 3156W        W69587  16.083  27.660  12.442
 3157W        W69588  40.612  31.715   0.847
 3158W        W69589  19.190  19.728   3.629
 3159W        W69590  25.112   8.830  13.558
 3160W        W69591   1.335  37.921  13.437
 3161W        W69592  33.139  37.820   0.815
 3162W        W69593  17.408  44.803   0.411
 3163W        W69594  30.224  21.328   2.624
 3164W        W69595  31.611  20.525  10.451
 3165W        W69596  29.655  25.094   3.408
 3166W        W69597  29.094  16.800  11.544
 3167W        W69598  34.550  18.254  12.105
 3168W        W69599   6.387  27.074  13.434
 3169W        W69600  21.930   8.036   0.065
 3170W        W69601  33.076   2.892  14.997
 3171W        W69602  22.866  41.080  13.042
 3172W        W69603  33.565  25.735  10.631
 3173W        W69604  18.765   8.913  10.824
 3174W        W69605  23.318  25.072   1.628
 3175W        W69606  26.331   3.413   1.784
 3176W        W69607  42.395   8.362   1.549
 3177W        W69608  10.620   1.832  13.302
 3178W        W69609  34.491   9.502   0.566
 3179W        W69610  21.507  42.736  10.985
 3180W        W69611  34.031   0.463   2.657
 3181W        W69612  11.233   2.025   2.422
 3182W        W69613  31.431  44.982  10.718
 3183W        W69614   9.440  26.292   1.980
 3184W        W69615  20.018  13.598   0.459
 3185W        W69616   3.626   7.430  13.005
 3186W        W69617   9.672  28.078   4.367
 3187W        W69618  13.280   8.624  12.136
 3188W        W69619  10.679  26.650   2.700
 3189W        W69620  18.670   4.811  11.830
 3190W        W69621  28.996  29.167  11.640
 3191W        W69622   3.736  27.054  13.087
 3192W        W69623  42.227   0.892  11.194
 3193W        W69624  13.832  21.527   0.892
 3194W        W69625   2.342   4.047   2.910
 3195W        W69626  15.322  11.295  12.593
 3196W        W69627   4.793   6.411  10.623
 3197W        W69628  26.815  14.674   0.130
 3198W        W69629   7.349  39.466   1.394
 3199W        W69630  31.841  36.210  12.965
 3200W        W69631  16.243   8.864   1.910
 3201W        W69632  30.383  38.519  10.800
 3202W        W69633  17.305  28.626  14.951
 3203W        W69634  36.876   9.521   3.163
 3204W        W69635  12.721  28.491   4.533
 3205W        W69636   6.910  16.682   2.822
 3206W        W69637  18.864  25.118   1.185
 3207W        W69638   0.457  30.573   4.901
 3208W        W69639  19.579  38.884   9.918
 3209W        W69640   0.996  44.748  11.561
 3210W        W69641  21.529  42.532  12.665
 3211W        W69642  44.693   2.170  10.796
 3212W        W69643  18.200   4.466   4.066
 3213W        W69644  34.202   8.766  13.946
 3214W        W69645  44.309   2.194   0.048
 3215W        W69646  39.948   9.569  14.624
 3216W        W69647  14.226  14.742   2.614
 3217W        W69648  19.648  27.180   0.532
 3218W        W69649  27.288  16.819  12.019
 3219W        W69650  25.754  24.539  11.190
 3220W        W69651  15.333   6.933  13.520
 3221W        W69652  28.132  35.834  10.883
 3222W        W69653  18.757  35.979   2.372
 3223W        W69654  38.036   6.334   2.766
 3224W        W69655  30.785  13.783  10.948
 3225W        W69656  40.033   2.046  14.961
 3226W        W69657  12.282  36.967   0.686
 3227W        W69658  27.505  39.273   3.183
 3228W        W69659  14.339   1.300  12.494
 3229W        W69660  24.065  33.349   2.426
 3230W        W69661  41.522  12.182  10.708
 3231W        W69662  35.368  12.124   0.058
 3232W        W69663   0.358  18.494  11.519
 3233W        W69664  16.101   2.213  12.528
 3234W        W69665  30.306   8.297  11.973
 3235W        W69666  44.344  27.942  12.411
 3236W        W69667  44.803   6.301   2.649
 3237W        W69668  42.574  13.514  14.949
 3238W        W69669  20.293  12.989  12.025
 3239W        W69670  42.152  13.285   1.273
 3240W        W69671   2.226  26.497  14.463
 3241W        W69672  30.600   0.188  11.227
 3242W        W69673  36.400  15.602  12.142
 3243W        W69674  38.071  29.081  13.593
 3244W        W69675  24.774   8.155   0.003
 3245W        W69676  33.559  11.556  14.798
 3246W        W69677  23.734   5.707  10.876
 3247W        W69678  44.332   0.602  10.290
 3248W        W69679  40.477   5.938   3.633
 3249W        W69680  22.889  23.532   2.370
 3250W        W69681   4.501  28.352  11.599
 3251W        W69682  43.434  10.292   0.673
 3252W        W69683   0.247  33.089   4.158
 3253W        W69684  34.195   5.576  12.146
 3254W        W69685  14.858   3.891   0.424
 3255W        W69686   5.903  27.536  12.808
 3256W        W69687  30.019  31.466   0.625
 3257W        W69688  37.016   4.342   3.178
 3258W        W69689  24.130  26.752  13.880
 3259W        W69690  17.939  28.484  11.192
 3260W        W69691  38.395  40.076  11.904
 3261W        W69692  39.853  31.428  14.314
 3262W        W69693  16.526   9.388  14.842
 3263W        W69694  10.319  19.084   2.738
 3264W        W69695  13.936  18.994  11.539
 3265W        W69696  22.729   9.060   5.164
 3266W        W69697  11.330  40.004   1.865
 3267W        W69698  32.175  12.799   3.273
 3268W        W69699  43.860   9.253   4.336
 3269W        W69700  15.427  13.817  14.525
 3270W        W69701  43.420  25.444   2.881
 3271W        W69702  10.212  29.270  11.526
 3272W        W69703  37.225  20.623   3.796
 3273W        W69704  21.537  44.313   4.737
 3274W        W69705  40.594  21.626   1.550
 3275W        W69706  44.882  10.351  12.526
 3276W        W69707  42.741  30.522  11.687
 3277W        W69708  33.641   6.363  13.007
 3278W        W69709  28.678  35.517  13.495
 3279W        W69710  20.563  27.249   4.231
 3280W        W69711  15.224  16.581   3.271
 3281W        W69712   9.314   4.204  13.998
 3282W        W69713  29.463  32.116   0.884
 3283W        W69714  19.542  16.340   1.299
 3284W        W69715  44.616  15.186  10.722
 3285W        W69716   2.532   1.700  12.855
 3286W        W69717  10.863  37.943   1.865
 3287W        W69718  32.761  11.183  13.943
 3288W        W69719  32.178  12.569  14.412
 3289W        W69720   3.357  16.944  11.906
 3290W        W69721  44.927  18.535  14.423
 3291W        W69722  10.233   3.066   0.882
 3292W        W69723  11.547  20.335   1.858
 3293W        W69724  43.754  10.287  13.576
 3294W        W69725  14.136  36.368  14.034
 3295W        W69726  34.133  21.836  13.853
 3296W        W69727  30.419  27.806   2.239
 3297W        W69728  40.320  38.515   1.339
 3298W        W69729  41.803  20.273  12.926
 3299W        W69730  21.064  23.139   3.430
 3300W        W69731  38.711   0.815   1.985
 3301W        W69732  41.782   2.518  13.539
 3302W        W69733  37.492  38.290  12.029
 3303W        W69734  26.070   0.460   4.226
 3304W        W69735  25.118  31.984  14.024
 3305W        W69736  24.671  18.452  14.833
 3306W        W69737  42.651  22.119   3.616
 3307W        W69738  38.741  13.844  14.966
 3308W        W69739  30.677  40.239  14.446
 3309W        W69740  19.642   5.329  11.835
 3310W        W69741  21.000   6.728  12.669
 3311W        W69742   4.906  34.425   1.357
 3312W        W69743  14.608  17.736   4.586
 3313W        W69744  11.575   8.721   0.977
 3314W        W69745  12.084  23.196  14.080
 3315W        W69746  43.938  28.207  10.757
 3316W        W69747  32.019   5.501   3.716
 3317W        W69748  14.378   4.080  11.714
 3318W        W69749  32.845  42.298  11.510
 3319W        W69750  40.594   0.902   3.323
 3320W        W69751   7.773  25.097  14.940
 3321W        W69752   2.813   2.028   1.446
 3322W        W69753  30.748  24.072   0.485
 3323W        W69754  38.113  42.960   5.457
 3324W        W69755  44.138  14.402  13.525
 3325W        W69756  34.518  30.436   3.161
 3326W        W69757  44.501  13.201   1.732
 3327W        W69758  22.761  36.014   0.291
 3328W        W69759  23.658  25.256   4.293
 3329W        W69760  35.461  16.882   2.217
 3330W        W69761  30.454  12.645   3.125
 3331W        W69762  41.115  39.766   4.131
 3332W        W69763  41.757  38.552  11.350
 3333W        W69764  29.551  20.998  12.013
 3334W        W69765  30.828  15.830  10.787
 3335W        W69766  12.727  29.177   1.425
 3336W        W69767  10.645  24.476  12.413
 3337W        W69768  14.533  15.157   2.299
 3338W        W69769  37.665  24.260   4.738
 3339W        W69770   0.901   5.955   2.274
 3340W        W69771  36.031  10.826  12.389
 3341W        W69772   5.971  32.900  12.156
 3342W        W69773   1.630  36.184   3.615
 3343W        W69774  22.075  24.574   4.679
 3344W        W69775  11.820   7.761   3.090
 3345W        W69776  16.468  40.667  10.237
 3346W        W69777  22.119  38.708  12.944
 3347W        W69778  24.085  12.076  14.077
 3348W        W69779   5.179  12.751   1.411
 3349W        W69780  41.550  37.407   4.905
 3350W        W69781  19.236  30.363  10.774
 3351W        W69782  17.704  28.666   2.087
 3352W        W69783  21.886  28.960   9.767
 3353W        W69784   7.516  38.607  12.315
 3354W        W69785  21.067  10.604   3.623
 3355W        W69786  23.721  27.423  11.631
 3356W        W69787  35.955  23.481   0.346
 3357W        W69788  18.992  25.600   0.986
 3358W        W69789  24.283  34.847  13.735
 3359W        W69790  22.574  35.946  14.763
 3360W        W69791   2.516  28.573  14.988
 3361W        W69792   7.442  39.892   4.652
 3362W        W69793  18.657  15.428  13.519
 3363W        W69794  33.981   3.415   2.948
 3364W        W69795  19.196  38.409  13.461
 3365W        W69796  38.432  18.355  13.275
 3366W        W69797   3.938  17.111   3.912
 3367W        W69798  18.291  11.423  10.243
 3368W        W69799  21.622  26.738   1.782
 3369W        W69800   8.756  27.675  12.545
 3370W        W69801  24.714   1.394   1.216
 3371W        W69802  24.345  39.665   3.154
 3372W        W69803  32.947  40.782   0.739
 3373W        W69804  29.032  29.649   1.332
 3374W        W69805   9.190  38.382   4.536
 3375W        W69806  41.427  15.302   4.849
 3376W        W69807  37.064  28.566   1.993
 3377W        W69808  16.779  19.270   1.237
 3378W        W69809  43.486  14.763   3.066
 3379W        W69810  39.388  12.834   2.778
 3380W        W69811   1.775  40.321  10.747
 3381W        W69812  33.728   9.288   4.656
 3382W        W69813  35.472  34.071  11.749
 3383W        W69814   8.275  21.213   1.861
 3384W        W69815   0.788  38.276  14.525
 3385W        W69816  37.350  18.847   4.529
 3386W        W69817  28.176  43.016   3.561
 3387W        W69818  22.053  16.080  13.408
 3388W        W69819  11.920  37.161   2.296
 3389W        W69820  15.777   5.296   0.492
 3390W        W69821  37.395  13.511  14.422
 3391W        W69822   9.897  36.610   4.237
 3392W        W69823   9.869  37.521  12.047
 3393W        W69824  28.570   8.718   0.528
 3394W        W69825  24.108   8.093   0.568
 3395W        W69826   2.831   4.957  14.265
 3396W        W69827  17.555  43.922   4.327
 3397W        W69828   5.416  44.135  14.328
 3398W        W69829  24.623  22.781   2.605
 3399W        W69830  11.376  20.173  12.372
 3400W        W69831  11.579  15.623  11.467
 3401W        W69832   9.422  35.780  12.094
 3402W        W69833  34.393  28.406   2.402
 3403W        W69834   9.265  41.776  13.005
 3404W        W69835   4.775  19.083   3.714
 3405W        W69836  18.097  17.591   3.533
 3406W        W69837  15.168   4.612  12.149
 3407W        W69838  40.264  15.198  13.085
 3408W        W69839   6.926  37.602  10.328
 3409W        W69840  13.661  40.225  13.883
 3410W        W69841   1.738  16.542  10.576
 3411W        W69842  38.401  43.821  12.416
 3412W        W69843  37.732  25.031   5.050
 3413W        W69844  31.535   1.368  14.407
 3414W        W69845  16.532  13.788  12.987
 3415W        W69846  38.739  34.398   1.486
 3416W        W69847   3.855  22.301   4.116
 3417W        W69848   8.464  11.598   0.867
 3418W        W69849  10.317  12.557   1.725
 3419W        W69850  23.491  21.632   0.810
 3420W        W69851  19.351   9.028  12.770
 3421W        W69852   4.159  40.020  13.782
 3422W        W69853  28.484  44.457   1.299
 3423W        W69854  27.041   0.730   0.491
 3424W        W69855   5.878   1.855   2.660
 3425W        W69856   1.004   0.763  14.456
 3426W        W69857  40.830  40.433   1.773
 3427W        W69858  32.723  31.667  13.291
 3428W        W69859   1.317  23.525  12.517
 3429W        W69860  17.186  18.104   2.218
 3430W        W69861  37.594  36.476  11.239
 3431W        W69862  40.163  44.288   1.449
 3432W        W69863  24.726  32.322  12.067
 3433W        W69864   4.953   9.986  10.603
 3434W        W69865  24.921  33.289   9.884
 3435W        W69866  40.897   0.705  13.103
 3436W        W69867   2.518  29.841   1.374
 3437W        W69868  28.129  33.787  14.723
 3438W        W69869   0.693  41.945   0.303
 3439W        W69870  13.298  44.419   2.832
 3440W        W69871   6.451   3.908   3.313
 3441W        W69872  11.633  40.866  10.836
 3442W        W69873  13.366   8.744   3.673
 3443W        W69874  25.591  43.985   4.106
 3444W        W69875  30.399  36.049   4.324
 3445W        W69876  37.440  23.467  10.730
 3446W        W69877  32.064  19.889   4.433
 3447W        W69878  44.324   5.303  14.466
 3448W        W69879  18.223  15.600   1.964
 3449W        W69880   9.745  10.756  14.103
 3450W        W69881  34.379  11.927   1.251
 3451W        W69882  32.933  36.283  14.315
 3452W        W69883  44.241  36.925   4.580
 3453W        W69884   2.329  33.434  14.518
 3454W        W69885  30.173  33.101   3.416
 3455W        W69886  25.699   1.934  14.026
 3456W        W69887   9.648  42.558   2.696
 3457W        W69888  13.072  27.084  11.111
 3458W        W69889  37.110   0.237   2.307
 3459W        W69890  33.420  18.109  11.500
 3460W        W69891  42.387  24.563   3.564
 3461W        W69892  17.579  29.122   2.327
 3462W        W69893   0.793   0.302  14.610
 3463W        W69894  32.179   3.778  12.041
 3464W        W69895   9.722  31.445  10.627
 3465W        W69896  15.150   4.271  12.531
 3466W        W69897  12.083  16.045   0.046
 3467W        W69898  36.829  31.289   4.475
 3468W        W69899  33.498  22.851   4.924
 3469W        W69900  35.472  19.264   4.267
 3470W        W69901  35.649  39.782  10.227
 3471W        W69902  10.221  28.318   0.324
 3472W        W69903  34.137  17.125  12.457
 3473W        W69904   9.437  41.870  14.837
 3474W        W69905  33.075  39.198   0.376
 3475W        W69906  44.918  41.241   0.521
 3476W        W69907   7.339  24.044   3.784
 3477W        W69908  10.051   5.223  12.972
 3478W        W69909   0.361   6.875   3.290
 3479W        W69910  12.756  25.206   5.423
 3480W        W69911  34.652  17.549   3.045
 3481W        W69912  31.733  10.105  14.286
 3482W        W69913   1.994  33.495  14.118
 3483W        W69914  16.880   0.205  14.402
 3484W        W69915  13.617   6.322  10.898
 3485W        W69916  41.620  39.586   4.435
 3486W        W69917  29.401  19.781  12.420
 3487W        W69918  42.762   7.649   2.567
 3488W        W69919  23.506  28.901   1.704
 3489W        W69920  10.650  34.207  13.582
 3490W        W69921  38.958  29.978  10.115
 3491W        W69922  12.756  30.960   4.204
 3492W        W69923  24.097  22.789   4.325
 3493W        W69924  11.951  25.977   1.480
 3494W        W69925  15.676   2.968   3.255
 3495W        W69926  26.497  44.027   3.181
 3496W        W69927  34.211  31.682   1.229
 3497W        W69928  21.201  21.105  11.505
 3498W        W69929  10.356  35.605   2.839
 3499W        W69930  12.417   0.882  11.788
 3500W        W69931  32.587   2.498   4.478
 3501W        W69932   1.198  35.341   3.361
 3502W        W69933  14.127  24.936   3.649
 3503W        W69934  21.908   9.727   4.651
 3504W        W69935  30.591  18.806   0.498
 3505W        W69936  23.276  12.177   2.405
 3506W        W69937  44.406  10.143   0.326
 3507W        W69938  19.695  14.619  11.389
 3508W        W69939   3.149  37.458  12.869
 3509W        W69940  38.229  11.893  12.410
 3510W        W69941  26.685  19.274  12.134
 3511W        W69942   4.920   2.298   0.883
 3512W        W69943  40.805   4.542   4.448
 3513W        W69944  42.949  36.439  12.986
 3514W        W69945  43.572  14.179   1.789
 3515W        W69946  12.852  13.305  13.124
 3516W        W69947   1.745  34.776  11.255
 3517W        W69948  13.669  21.257   0.467
 3518W        W69949   6.205  34.452   2.470
 3519W        W69950  13.140   6.774  14.629
 3520W        W69951  14.375  32.713  12.130
 3521W        W69952  25.225  41.405  10.965
 3522W        W69953   3.178  38.114  12.242
 3523W        W69954  18.679  19.039  13.850
 3524W        W69955  40.302  14.029   3.317
 3525W        W69956  43.362  43.931  10.985
 3526W        W69957  44.448  14.584   3.212
 3527W        W69958  24.386  14.284  11.970
 3528W        W69959  31.113  15.889   1.752
 3529W        W69960  15.523   9.978   1.392
 3530W        W69961  17.382   1.327  12.114
 3531W        W69962  41.837  15.019   0.933
 3532W        W69963  19.072  17.801   1.683
 3533W        W69964   6.919  28.672   2.360
 3534W        W69965   8.709   5.709   4.100
 3535W        W69966  18.555  21.213   3.705
 3536W        W69967  17.344  36.910  12.136
 3537W        W69968   5.908  35.810  12.044
 3538W        W69969  34.363  22.636   1.377
 3539W        W69970  15.864  33.016  11.186
 3540W        W69971  19.100  18.225  13.906
 3541W        W69972  41.826   4.793   2.131
 3542W        W69973  41.472   8.155   3.335
 3543W        W69974  26.631  12.681  12.518
 3544W        W69975   0.076  30.794  13.870
 3545W        W69976  17.181  17.642   1.466
 3546W        W69977  33.515  31.883  12.915
 3547W        W69978  12.945  26.314   3.326
 3548W        W69979   6.639  42.725   0.769
 3549W        W69980  35.422  20.597  12.956
 3550W        W69981   1.737  28.412   3.639
 3551W        W69982   8.569  23.081   1.528
 3552W        W69983  31.552  41.638   0.230
 3553W        W69984  21.880  39.575  12.920
 3554W        W69985   5.281  38.317   0.095
 3555W        W69986  30.745  21.785   4.214
 3556W        W69987  28.154  13.841   3.603
 3557W        W69988  14.547  14.242  13.417
 3558W        W69989  31.241  17.473  12.597
 3559W        W69990  44.408  36.525   4.288
 3560W        W69991  33.986  36.085  14.315
 3561W        W69992  43.757  44.714   1.889
 3562W        W69993  14.786  23.362   9.877
 3563W        W69994  33.542  32.365  13.898
 3564W        W69995   5.307  29.012   1.840
 3565W        W69996  35.403  22.077  11.363
 3566W        W69997  29.938  11.891   1.333
 3567W        W69998  13.337  12.143   1.837
 3568W        W69999  33.708   3.860   4.217
 3569W        W70000  30.571  37.147  13.042
 3570W        W70001  38.232  24.864  14.909
 3571W        W70002  37.941  34.299   1.791
 3572W        W70003   5.876  15.423   4.383
 3573W        W70004  41.503  13.397  14.435
 3574W        W70005  19.343  14.035   4.010
 3575W        W70006  26.694  36.244  12.310
 3576W        W70007  43.339  44.038   9.978
 3577W        W70008  43.264  23.733   2.871
 3578W        W70009   1.504  30.350   1.273
 3579W        W70010   0.567  42.035  11.133
 3580W        W70011  12.276  28.413  13.975
 3581W        W70012   5.199  27.675  13.488
 3582W        W70013  20.516  14.400  13.896
 3583W        W70014  11.759  10.206  12.934
 3584W        W70015  11.076   9.398   1.388
 3585W        W70016  20.664   2.900  12.962
 3586W        W70017  17.378  37.497   0.309
 3587W        W70018  18.104   9.678  14.002
 3588W        W70019  25.493   1.848  13.531
 3589W        W70020   1.686   8.940  14.517
 3590W        W70021  39.950  25.070  14.304
 3591W        W70022   7.789  32.895  11.602
 3592W        W70023  35.611  25.949   1.850
 3593W        W70024   1.669  22.749   1.109
 3594W        W70025  29.950  32.685  12.230
 3595W        W70026   7.342  22.617  10.821
 3596W        W70027  34.008  22.285   4.628
 3597W        W70028  39.710  43.259   3.809
 3598W        W70029  26.459   6.694  14.349
 3599W        W70030  30.038   3.078   4.574
 3600W        W70031  21.688   1.991   4.496
 3601W        W70032  38.470   6.133   4.328
 3602W        W70033  11.490  27.397  12.074
 3603W        W70034   3.241  18.085   1.251
 3604W        W70035  22.345  31.859  11.129
 3605W        W70036  30.416  16.024   3.263
 3606W        W70037  35.960  23.108   4.749
 3607W        W70038   4.367  37.337   1.024
 3608W        W70039  29.694  21.376   0.733
 3609W        W70040  20.704  28.620   4.603
 3610W        W70041  22.280  28.075   0.201
 3611W        W70042   7.024  42.318   0.777
 3612W        W70043  26.700  21.624  11.156
 3613W        W70044  41.961  10.747   3.408
 3614W        W70045  20.585  28.362   0.065
 3615W        W70046  20.890  43.228  11.357
 3616W        W70047  16.065  31.558   3.079
 3617W        W70048  10.912  24.778   1.779
 3618W        W70049  20.974  11.865   2.277
 3619W        W70050   6.733  38.075   1.258
 3620W        W70051  25.634  34.615  13.490
 3621W        W70052  34.333  26.293  13.493
 3622W        W70053  41.144  13.895   4.598
 3623W        W70054  33.031  14.675  11.846
 3624W        W70055  15.723   4.247   0.256
 3625W        W70056  25.061  40.435  12.598
 3626W        W70057   2.835  27.885   0.414
 3627W        W70058   2.149  11.989  11.977
 3628W        W70059  22.771  42.754   0.948
 3629W        W70060  32.783  18.554   9.894
 3630W        W70061  43.475  23.155   4.431
 3631W        W70062   4.222  16.059  12.814
 3632W        W70063  20.823  19.423   1.983
 3633W        W70064  39.774   7.725  12.515
 3634W        W70065  15.584  43.028   3.017
 3635W        W70066  24.953  32.239   3.739
 3636W        W70067  24.612  16.364  11.157
 3637W        W70068  29.561  25.417   2.327
 3638W        W70069  19.186  35.225   4.999
 3639W        W70070  34.384   4.072  12.962
 3640W        W70071  15.800   3.229  12.931
 3641W        W70072  13.213  20.873   4.787
 3642W        W70073   0.335  36.935  12.572
 3643W        W70074  30.045  18.206   3.074
 3644W        W70075  19.520  26.732  12.527
 3645W        W70076   4.148  40.323  11.201
 3646W        W70077   7.707   4.874   4.112
 3647W        W70078  30.903  22.091  14.355
 3648W        W70079  14.833  34.029  12.685
 3649W        W70080  20.830  20.855   0.474
 3650W        W70081  44.793  21.258  13.876
 3651W        W70082  20.488  37.534   4.568
 3652W        W70083  32.843  25.269   2.584
 3653W        W70084  44.332  30.606   0.844
 3654W        W70085  11.600  18.911   1.386
 3655W        W70086   8.622  36.836  11.436
 3656W        W70087  30.683  43.231   3.275
 3657W        W70088  21.093   6.054   0.814
 3658W        W70089  17.574  16.761   1.477
 3659W        W70090  21.735  21.702  11.192
 3660W        W70091   6.354   9.695  13.904
 3661W        W70092  13.566  27.576  14.265
 3662W        W70093  33.854   7.349  13.117
 3663W        W70094  27.030  22.951   0.881
 3664W        W70095  35.668  13.151   0.452
 3665W        W70096  42.813  17.089  14.849
 3666W        W70097  34.116  41.485  13.076
 3667W        W70098  31.017  23.431  11.502
 3668W        W70099  40.263  25.603  11.633
 3669W        W70100   0.258  42.961  10.744
 3670W        W70101  16.197  12.138  12.819
 3671W        W70102  27.282  20.756  12.565
 3672W        W70103   7.306  28.537   1.196
 3673W        W70104  41.310  11.701  10.686
 3674W        W70105   4.679  38.803   1.918
 3675W        W70106  30.036  19.217  14.844
 3676W        W70107  24.013  42.413  12.042
 3677W        W70108  22.985  13.321  12.531
 3678W        W70109  38.002  19.579   4.662
 3679W        W70110  18.310   5.868   4.221
 3680W        W70111  27.910  38.523  13.551
 3681W        W70112  22.037   1.973   0.478
 3682W        W70113  10.663  33.306   3.693
 3683W        W70114  29.949  20.289   1.094
 3684W        W70115  35.186  23.031  12.139
 3685W        W70116  30.613  15.592   1.751
 3686W        W70117  44.876  37.174  14.229
 3687W        W70118  23.170  21.912   1.134
 3688W        W70119  25.211   7.901  14.840
 3689W        W70120  36.079  31.918  13.670
 3690W        W70121  35.464  41.777   3.216
 3691W        W70122   3.350   3.558   2.536
 3692W        W70123  28.625   2.187  13.963
 3693W        W70124  38.025  26.239  10.760
 3694W        W70125  29.055   6.714   2.728
 3695W        W70126  38.011  40.051   2.336
 3696W        W70127  40.277   0.286  14.161
 3697W        W70128  36.525  15.539  10.114
 3698W        W70129  42.854  26.730   0.472
 3699W        W70130   7.108  39.257  14.643
 3700W        W70131  33.927  37.631   3.188
 3701W        W70132   1.320  21.125  12.500
 3702W        W70133  29.693   9.797   0.834
 3703W        W70134  42.254  31.859  10.655
 3704W        W70135  37.044  20.369  12.269
 3705W        W70136   3.104   8.763  10.260
 3706W        W70137   9.390  10.152   2.390
 3707W        W70138   5.855  17.764  10.481
 3708W        W70139  26.488  40.857  11.965
 3709W        W70140  32.118  27.481  14.394
 3710W        W70141  38.023  35.849   3.179
 3711W        W70142   2.229   4.651   2.786
 3712W        W70143   3.520   0.932  12.086
 3713W        W70144   1.900  43.658   4.248
 3714W        W70145  14.570  13.399   4.118
 3715W        W70146  39.119  26.002   1.341
 3716W        W70147  15.616  26.724  12.888
 3717W        W70148  16.817  38.820  13.960
 3718W        W70149  38.648  34.174   4.099
 3719W        W70150  23.703  22.955   0.755
 3720W        W70151  36.918   5.175  12.089
 3721W        W70152  39.301  26.394   2.605
 3722W        W70153  24.157  26.366  13.063
 3723W        W70154  42.442  11.326   2.264
 3724W        W70155  21.126  20.442   0.340
 3725W        W70156  36.009  40.983  13.399
 3726W        W70157  44.389   3.924  10.756
 3727W        W70158   1.797  11.738   4.625
 3728W        W70159  22.228  41.357  11.804
 3729W        W70160  13.731  30.906   1.684
 3730W        W70161  20.016   2.782   0.253
 3731W        W70162  38.139   3.469  12.496
 3732W        W70163  30.860   3.627   0.370
 3733W        W70164  35.264   3.844  13.052
 3734W        W70165  25.211  14.760   3.863
 3735W        W70166   4.274  18.193  10.870
 3736W        W70167  26.016  19.499  13.113
 3737W        W70168  27.547  17.798  14.418
 3738W        W70169  14.368   8.566  12.223
 3739W        W70170  44.827   7.154  14.325
 3740W        W70171  44.249  17.123   3.350
 3741W        W70172  25.256  15.091   3.227
 3742W        W70173  28.595   0.001   3.695
 3743W        W70174  33.083  43.324  14.951
 3744W        W70175  33.382  16.929  10.646
 3745W        W70176  42.972  27.744   4.124
 3746W        W70177   7.593  25.259   3.603
 3747W        W70178   9.782   1.568   1.021
 3748W        W70179  15.127  41.872   0.886
 3749W        W70180  18.644  39.125   9.786
 3750W        W70181   5.557  40.350  13.511
 3751W        W70182  13.189  21.863  11.568
 3752W        W70183  38.336  30.378  13.234
 3753W        W70184  13.393  34.131   0.441
 3754W        W70185  43.559  19.104  14.054
 3755W        W70186  12.265  40.926   1.865
 3756W        W70187  13.848  38.906   1.775
 3757W        W70188  30.980  32.588  10.651
 3758W        W70189  20.747  44.881   4.187
 3759W        W70190   8.643  19.648   2.289
 3760W        W70191   2.458   8.237  10.387
 3761W        W70192  19.755  37.617   0.463
 3762W        W70193  31.482  25.768   2.417
 3763W        W70194  44.115   8.380   3.249
 3764W        W70195  38.922   9.251   4.558
 3765W        W70196   8.632  12.529   4.889
 3766W        W70197  34.978   4.144  13.937
 3767W        W70198  27.016   4.840   1.010
 3768W        W70199   4.426  29.911   0.416
 3769W        W70200  26.724  15.808  13.945
 3770W        W70201  19.230  10.469   3.105
 3771W        W70202  29.101  24.723  13.862
 3772W        W70203  20.667  19.768   2.353
 3773W        W70204  41.319  13.780  13.779
 3774W        W70205  12.677  19.730   2.181
 3775W        W70206  15.717   6.445  12.655
 3776W        W70207  28.681  12.554   2.688
 3777W        W70208  30.909   2.172   0.289
 3778W        W70209  27.414   5.947  12.224
 3779W        W70210   9.677   5.799   0.288
 3780W        W70211  22.932   2.907   4.369
 3781W        W70212  35.343   3.320   1.252
 3782W        W70213  42.463  26.975   0.736
 3783W        W70214  31.068  22.708  14.775
 3784W        W70215  15.567  42.304   0.376
 3785W        W70216  38.099  10.297   0.716
 3786W        W70217  35.516  23.844  10.723
 3787W        W70218  44.810  35.702   2.877
 3788W        W70219  24.550  25.620  12.572
 3789W        W70220  20.726  10.298   2.704
 3790W        W70221  25.545  26.258  11.146
 3791W        W70222  41.363  23.481   2.610
 3792W        W70223  24.163  44.999  12.661
 3793W        W70224  26.527  26.653  10.741
 3794W        W70225  24.851  32.334   9.766
 3795W        W70226   2.910  31.462   2.789
 3796W        W70227   8.327  15.656   3.208
 3797W        W70228  17.143  19.280  14.308
 3798W        W70229  44.583  20.726   0.477
 3799W        W70230  13.056  24.176   2.123
 3800W        W70231  13.143  43.433   4.605
 3801W        W70232  30.628  15.152  14.503
 3802W        W70233  14.184   4.463   0.448
 3803W        W70234   7.551  41.254  13.416
 3804W        W70235  18.646  10.132  11.225
 3805W        W70236  14.676  12.552   3.766
 3806W        W70237  36.361  33.059  13.144
 3807W        W70238  36.502  35.907   4.557
 3808W        W70239   1.769  10.499   0.971
 3809W        W70240  14.877  43.353  10.796
 3810W        W70241  21.680  36.421  11.617
 3811W        W70242  13.725  18.523  14.929
 3812W        W70243  11.612  19.205  13.352
 3813W        W70244  17.177  30.444   0.929
 3814W        W70245  36.413  34.906  14.854
 3815W        W70246   3.993  31.481  12.162
 3816W        W70247  26.780  28.523  10.901
 3817W        W70248  27.050   3.264  10.257
 3818W        W70249   5.827  43.012   1.152
 3819W        W70250  15.123   9.507  11.598
 3820W        W70251  16.645  10.919   2.280
 3821W        W70252  25.031  33.376  12.638
 3822W        W70253  42.232  11.048   0.029
 3823W        W70254  28.475  30.943   2.739
 3824W        W70255  18.819   6.878   1.036
 3825W        W70256  12.577  35.959   2.932
 3826W        W70257  19.101  16.216   3.844
 3827W        W70258  37.962   1.661  12.604
 3828W        W70259   2.655  26.233   5.197
 3829W        W70260  21.626  40.282  13.938
 3830W        W70261   1.261  20.017  10.646
 3831W        W70262  19.253   8.892  10.639
 3832W        W70263   6.398   8.411   0.392
 3833W        W70264  18.716  32.958   0.784
 3834W        W70265  37.882  12.690  11.909
 3835W        W70266   3.186   8.086   0.748
 3836W        W70267  19.035   5.267   0.478
 3837W        W70268   5.944   3.952  13.950
 3838W        W70269  44.321   8.263   3.745
 3839W        W70270  18.065  19.312   3.086
 3840W        W70271  32.030   4.969  13.396
 3841W        W70272   7.346  32.543   1.346
 3842W        W70273  21.331  36.426  14.990
 3843W        W70274   4.460   9.838  12.640
 3844W        W70275  33.565  35.793  12.731
 3845W        W70276  11.583   3.554   2.181
 3846W        W70277  31.326   5.851  12.344
 3847W        W70278  24.503  36.325  12.058
 3848W        W70279  10.757  41.337   2.759
 3849W        W70280   8.320  33.154  13.186
 3850W        W70281  28.174  29.028   1.942
 3851W        W70282  19.141  16.841   1.965
 3852W        W70283  18.162  38.622  13.999
 3853W        W70284  13.231  42.988   0.003
 3854W        W70285  12.770  38.818   0.550
 3855W        W70286   6.585  11.594   2.725
 3856W        W70287  29.463  14.740  13.695
 3857W        W70288  15.761  32.038   1.123
 3858W        W70289  35.907  10.915  14.037
 3859W        W70290  15.135  41.467   4.158
 3860W        W70291  19.565  23.319   2.892
 3861W        W70292   4.861  17.077  12.373
 3862W        W70293   9.019  36.343   0.031
 3863W        W70294   9.451  43.303   1.937
 3864W        W70295   5.979   8.214  12.043
 3865W        W70296  12.331  39.860  11.601
 3866W        W70297  17.521  12.270  13.319
 3867W        W70298   9.154  22.008   1.418
 3868W        W70299  42.253  12.700   3.530
 3869W        W70300  32.747  41.535   2.799
 3870W        W70301  10.829  37.561   4.499
 3871W        W70302  42.509  31.411   0.868
 3872W        W70303  20.651  10.756  12.568
 3873W        W70304  22.182  40.628   4.520
 3874W        W70305  27.571  43.129  13.105
 3875W        W70306  37.965  41.051   3.029
 3876W        W70307  34.315   6.062  13.536
 3877W        W70308  31.089  43.014   1.740
 3878W        W70309  37.009  42.963   4.564
 3879W        W70310  12.364  10.768   0.269
 3880W        W70311   2.612  38.039   2.359
 3881W        W70312  23.034  19.515   1.368
 3882W        W70313   4.996  26.549   5.142
 3883W        W70314  11.877  24.590   0.730
 3884W        W70315  22.661  25.673  12.044
 3885W        W70316  26.587  30.325  12.075
 3886W        W70317  20.537   7.505  14.366
 3887W        W70318   1.793  40.625  11.159
 3888W        W70319  40.806   2.210   2.297
 3889W        W70320  27.986  17.273   4.435
 3890W        W70321   8.462  35.995  12.820
 3891W        W70322  39.052  39.994   2.068
 3892W        W70323  32.200  23.844  12.106
 3893W        W70324  11.340  31.334   4.533
 3894W        W70325  28.394   2.549   2.711
 3895W        W70326  24.193   3.318  10.216
 3896W        W70327  33.502  32.363  10.596
 3897W        W70328   5.519   0.690   3.305
 3898W        W70329  32.163  24.167   1.709
 3899W        W70330  13.056  13.698   2.809
 3900W        W70331   4.975  11.550   3.273
 3901W        W70332   1.196  11.939  11.145
 3902W        W70333  29.633  21.974  12.930
 3903W        W70334   1.506  27.102  14.376
 3904W        W70335  36.109  11.553  13.211
 3905W        W70336  40.000  11.048   2.631
 3906W        W70337  39.638  17.289   1.910
 3907W        W70338   2.741  41.168   0.748
 3908W        W70339  27.208  41.547   3.644
 3909W        W70340  44.004  34.612  13.942
 3910W        W70341  15.511  35.582  13.341
 3911W        W70342   9.736  13.617  12.904
 3912W        W70343   9.987  37.427  11.563
 3913W        W70344  38.803  18.598   0.429
 3914W        W70345  39.616   3.928   0.297
 3915W        W70346  29.062  31.247  14.995
 3916W        W70347  30.972  24.301   4.489
 3917W        W70348  25.990  25.446   2.599
 3918W        W70349  33.669  29.997  12.894
 3919W        W70350  18.894  36.105  13.284
 3920W        W70351  18.647  29.723   2.705
 3921W        W70352   2.008  12.117  12.862
 3922W        W70353   5.460  39.572   1.477
 3923W        W70354  22.632   0.990  13.156
 3924W        W70355  24.169  39.242   4.495
 3925W        W70356  21.181  10.634  11.806
 3926W        W70357   9.365  33.902  14.305
 3927W        W70358  35.155   8.819  13.982
 3928W        W70359  14.554   3.896   1.493
 3929W        W70360  36.594  25.138   1.273
 3930W        W70361  21.405  14.792   3.268
 3931W        W70362  11.320  11.117  12.128
 3932W        W70363  32.565   8.147  14.341
 3933W        W70364  40.347  15.406   4.452
 3934W        W70365  43.760  28.431  11.449
 3935W        W70366   6.859  20.989  12.873
 3936W        W70367   8.320  22.092  12.179
 3937W        W70368  34.733  27.975   9.956
 3938W        W70369  21.957  31.953   1.167
 3939W        W70370   5.752  27.138  14.994
 3940W        W70371   8.638  39.735   0.509
 3941W        W70372   3.748   2.127   3.335
 3942W        W70373  36.155  42.076   4.641
 3943W        W70374  13.713  16.815   2.580
 3944W        W70375  18.351  37.204   1.467
 3945W        W70376   2.371   5.493  11.623
 3946W        W70377  44.115  13.216   2.895
 3947W        W70378  21.731  33.948   1.417
 3948W        W70379  44.999  32.803  13.962
 3949W        W70380  33.610  41.747   4.524
 3950W        W70381  31.138   9.642  11.986
 3951W        W70382  20.754  42.423   1.360
 3952W        W70383  32.047  38.528   1.287
 3953W        W70384   8.930  21.065   2.387
 3954W        W70385  29.982  20.821   1.017
 3955W        W70386   0.341  21.737   2.239
 3956W        W70387   6.645  43.087   2.286
 3957W        W70388  32.639   4.340   0.837
 3958W        W70389  39.912  38.856   0.427
 3959W        W70390  34.746  31.294  12.107
 3960W        W70391  32.146  15.562  11.081
 3961W        W70392   0.816  35.129  12.450
 3962W        W70393   6.643   8.228  14.895
 3963W        W70394  42.622  38.098   3.616
 3964W        W70395  42.442  23.561  10.550
 3965W        W70396   1.496  31.219  13.529
 3966W        W70397  11.415  41.323   4.906
 3967W        W70398  25.239  43.886  12.989
 3968W        W70399   3.884   1.587   3.278
 3969W        W70400  23.024   7.652   0.729
 3970W        W70401   0.785  25.669  12.908
 3971W        W70402  34.380  28.561   3.394
 3972W        W70403   5.114  31.372  13.594
 3973W        W70404  35.112  42.756  11.462
 3974W        W70405   3.688  22.672   1.630
 3975W        W70406   4.511  29.540  13.808
 3976W        W70407  12.838  12.196   1.863
 3977W        W70408  16.752  36.640  13.831
 3978W        W70409   9.463  44.822  13.011
 3979W        W70410  41.785  38.984   3.271
 3980W        W70411   6.383  37.137  13.422
 3981W        W70412  34.708  40.465   0.415
 3982W        W70413   5.657   1.452   2.286
 3983W        W70414  30.975  16.854   5.120
 3984W        W70415  16.136   4.304  14.962
 3985W        W70416  26.060  22.664   1.270
 3986W        W70417  21.595   2.466  11.145
 3987W        W70418  32.266  23.740   0.981
 3988W        W70419  22.934   6.623   1.850
 3989W        W70420  37.794   8.534  12.195
 3990W        W70421  39.501  31.029  12.826
 3991W        W70422   5.405  30.948   1.426
 3992W        W70423   9.875   6.654   4.379
 3993W        W70424   2.946   2.813   1.800
 3994W        W70425   5.842   4.268   4.848
 3995W        W70426  10.707   1.989   3.583
 3996W        W70427  38.150  11.364  14.330
 3997W        W70428  34.639  25.150   0.123
 3998W        W70429   1.017  42.160  13.338
 3999W        W70430  29.188  30.971   2.405
 4000W        W70431   4.914   8.283  11.227
 4001W        W70432  27.574   3.417   0.861
 4002W        W70433  39.466  20.312   3.137
 4003W        W70434   6.310  10.582  14.740
 4004W        W70435   8.365  30.699   0.406
 4005W        W70436  38.552  19.474   4.054
 4006W        W70437   4.302  11.134  14.935
 4007W        W70438  10.674  14.874   1.936
 4008W        W70439   1.005   5.354   3.427
 4009W        W70440  34.349  34.126  10.823
 4010W        W70441  40.451  23.651   2.904
 4011W        W70442  38.839  30.054  12.017
 4012W        W70443  34.221   0.406   4.366
 4013W        W70444   6.912   8.263  14.436
 4014W        W70445  12.098  17.688   4.684
 4015W        W70446  33.180  37.655  11.548
 4016W        W70447  44.855  22.737   2.713
 4017W        W70448  11.683  25.611   2.641
 4018W        W70449  33.423  31.598   1.882
 4019W        W70450  17.990  16.347  10.363
 4020W        W70451  27.683  19.318  12.386
 4021W        W70452   6.669  17.589  11.100
 4022W        W70453  41.554  12.734   0.313
 4023W        W70454  30.685   7.628   2.240
 4024W        W70455  26.625  20.078  10.299
 4025W        W70456  44.021  31.913   4.544
 4026W        W70457  41.686  32.971   0.966
 4027W        W70458  41.417  24.079  11.150
 4028W        W70459  31.624  17.704  12.836
 4029W        W70460   6.068  36.560  14.312
 4030W        W70461   4.102  10.441  12.455
 4031W        W70462   7.121   1.518   3.282
 4032W        W70463  21.571  37.263   0.413
 4033W        W70464  39.426  26.741  12.063
 4034W        W70465  20.491  21.276   0.707
 4035W        W70466  27.998   9.269   1.851
 4036W        W70467  40.546  19.124   0.298
 4037W        W70468  44.258  40.033  13.340
 4038W        W70469   0.211  32.353   2.742
 4039W        W70470  24.826  36.296  14.455
 4040W        W70471  20.747  16.207  12.916
 4041W        W70472   7.259  28.329   4.028
 4042W        W70473  43.549  12.738   3.345
 4043W        W70474  12.257  24.432  13.764
 4044W        W70475  13.947   8.682  12.980
 4045W        W70476  10.805  44.826   0.806
 4046W        W70477  32.437   8.748   0.459
 4047W        W70478   9.665  44.903  10.656
 4048W        W70479   6.938   3.267   0.027
 4049W        W70480  23.827  42.970   2.757
 4050W        W70481  31.858  11.262   2.313
 4051W        W70482   4.217  10.835  11.046
 4052W        W70483  39.090  31.676   5.019
 4053W        W70484  35.844  19.293   1.157
 4054W        W70485   9.398  21.711  10.755
 4055W        W70486  10.172  38.538  13.422
 4056W        W70487  31.435  22.080   1.751
 4057W        W70488   6.933  20.572   2.788
 4058W        W70489   3.829  41.175  14.345
 4059W        W70490  15.884   8.396  11.089
 4060W        W70491  41.696  37.407   3.382
 4061W        W70492   2.665   5.848   4.485
 4062W        W70493  31.545  33.274  11.309
 4063W        W70494   4.104   6.974  11.847
 4064W        W70495  25.172  22.658   1.405
 4065W        W70496  23.274   6.258   1.684
 4066W        W70497  24.450   3.304  14.941
 4067W        W70498  11.919  44.892   4.585
 4068W        W70499   8.086   2.342  12.131
 4069W        W70500  30.752   7.714  12.514
 4070W        W70501  11.350   5.485  11.224
 4071W        W70502  39.091   8.161   0.792
 4072W        W70503   0.910  17.261  11.621
 4073W        W70504   6.896  25.797  13.416
 4074W        W70505  12.295   3.432   0.972
 4075W        W70506  25.403   5.285  11.978
 4076W        W70507   0.690  24.576   3.149
 4077W        W70508   9.328  23.885  11.196
 4078W        W70509  19.730  15.803   3.980
 4079W        W70510  30.384   3.433  11.770
 4080W        W70511  32.138  16.085  11.918
 4081W        W70512   5.232  24.031   1.187
 4082W        W70513  31.414  36.519  13.039
 4083W        W70514  27.015  27.464  10.866
 4084W        W70515   4.705  39.887   4.101
 4085W        W70516   6.422  29.028  11.231
 4086W        W70517  25.916  11.318  12.398
 4087W        W70518  38.050  36.625  12.097
 4088W        W70519  36.442  20.374  11.131
 4089W        W70520  11.126  12.159  14.071
 4090W        W70521  14.572  37.858  11.498
 4091W        W70522  13.193  40.718   1.833
 4092W        W70523   5.957  26.656  14.920
 4093W        W70524   0.844  36.447  11.567
 4094W        W70525  18.461  13.081   4.034
 4095W        W70526   9.932  23.996  11.440
 4096W        W70527  26.159  33.825  13.444
 4097W        W70528  22.164  15.094  12.909
 4098W        W70529  29.048   7.672   0.069
 4099W        W70530  33.933  21.482   1.311
 4100W        W70531  14.647  35.391  11.764
 4101W        W70532  39.373  25.494  13.847
 4102W        W70533  23.511  12.903   2.907
 4103W        W70534  32.953  32.908  14.354
 4104W        W70535  32.059  14.415   0.608
 4105W        W70536  11.866  29.091  11.076
 4106W        W70537   7.785  41.325  13.859
 4107W        W70538  18.632  39.411   1.379
 4108W        W70539   6.614  35.175  11.093
 4109W        W70540  31.695  14.640   0.022
 4110W        W70541  17.451  44.967  11.088
 4111W        W70542  38.057  37.038  12.995
 4112W        W70543   5.430  22.296  11.888
 4113W        W70544  12.253  40.939   0.875
 4114W        W70545  40.288  36.277   2.402
 4115W        W70546  29.387  37.357   1.853
 4116W        W70547  33.109  41.011   0.278
 4117W        W70548   4.861  44.143  11.588
 4118W        W70549  13.007  34.418  11.111
 4119W        W70550  20.418  40.979  11.221
 4120W        W70551  18.701  29.415  13.566
 4121W        W70552  23.288  42.241   4.581
 4122W        W70553  37.111  29.476   1.862
 4123W        W70554  37.550  44.431  12.835
 4124W        W70555  19.644  26.127   0.358
 4125W        W70556   3.654  42.552  12.433
 4126W        W70557  24.040  36.307   2.459
 4127W        W70558  36.122  33.751   4.666
 4128W        W70559  25.138  35.563   2.769
 4129W        W70560  14.266  42.965   0.204
 4130W        W70561   4.316  15.311   1.722
 4131W        W70562  13.388   4.698  12.499
 4132W        W70563   4.742  25.965   3.721
 4133W        W70564   1.745   4.835   4.347
 4134W        W70565  40.512  18.988  12.739
 4135W        W70566  40.502  33.848   2.658
 4136W        W70567  17.923  15.578   0.692
 4137W        W70568  28.119  26.468  11.918
 4138W        W70569  40.199  22.413   5.004
 4139W        W70570  30.690  19.359  13.289
 4140W        W70571   8.049  41.418  13.396
 4141W        W70572  18.145  22.352  10.490
 4142W        W70573   5.316   0.291   2.361
 4143W        W70574   7.381  32.045   2.861
 4144W        W70575  14.606  44.886   0.363
 4145W        W70576  33.979   1.422   0.926
 4146W        W70577  16.885  28.966  13.320
 4147W        W70578  40.963  14.216   0.434
 4148W        W70579  37.111  29.373  10.354
 4149W        W70580   3.907  19.389   0.776
 4150W        W70581  35.190   5.476   1.609
 4151W        W70582  26.505  37.536   3.933
 4152W        W70583  34.045  37.406  13.531
 4153W        W70584  32.497  20.407   0.291
 4154W        W70585  33.428  16.773   4.082
 4155W        W70586  35.552  14.584   1.363
 4156W        W70587   8.484  28.519   4.642
 4157W        W70588  17.808  14.256  11.197
 4158W        W70589  43.826   5.184  14.400
 4159W        W70590   4.262  21.310   3.623
 4160W        W70591  27.569  39.736  14.234
 4161W        W70592  15.798  11.784  13.846
 4162W        W70593   4.825  43.685   1.948
 4163W        W70594  17.246  15.792  13.072
 4164W        W70595  24.908  26.659  13.374
 4165W        W70596   2.076  22.165   4.641
 4166W        W70597  26.092  38.468   3.030
 4167W        W70598  40.280  25.134  14.738
 4168W        W70599  27.449  13.216  12.531
 4169W        W70600  42.592  27.988  12.226
 4170W        W70601  17.207  23.184  13.868
 4171W        W70602  18.687  32.418  14.015
 4172W        W70603  10.117  11.735  10.865
 4173W        W70604  40.723  39.116   3.226
 4174W        W70605  40.607  25.586  10.819
 4175W        W70606   8.859  36.398  11.192
 4176W        W70607  34.119  20.798  13.928
 4177W        W70608   5.351   0.903  10.993
 4178W        W70609  15.722   3.458  11.572
 4179W        W70610  36.475  31.978  12.942
 4180W        W70611  31.085   2.349  11.650
 4181W        W70612  18.917  38.633  12.418
 4182W        W70613  26.241   1.694   0.571
 4183W        W70614   8.375  36.131  11.092
 4184W        W70615  31.835  20.257   3.707
 4185W        W70616   2.411  37.336  10.638
 4186W        W70617  43.751  21.048   3.805
 4187W        W70618  13.954  22.238  13.711
 4188W        W70619   0.959   0.865  13.070
 4189W        W70620  43.661   4.699   4.538
 4190W        W70621  21.545  43.874  12.845
 4191W        W70622  21.074   4.725  11.236
 4192W        W70623  30.985  27.561  13.374
 4193W        W70624  38.274  31.118   1.931
 4194W        W70625  25.504  34.819  10.149
 4195W        W70626  20.032   0.399  11.228
 4196W        W70627  15.580  42.993  14.894
 4197W        W70628   0.278  22.138   4.070
 4198W        W70629   5.340  21.267  14.002
 4199W        W70630   0.767   2.577  12.676
 4200W        W70631  24.420  24.166  12.058
 4201W        W70632  12.324  30.981   4.505
 4202W        W70633  17.197  16.597  12.541
 4203W        W70634  44.385   4.732  13.397
 4204W        W70635   4.803  26.687   3.157
 4205W        W70636  10.129  41.753   3.754
 4206W        W70637  25.930  28.867  12.572
 4207W        W70638   9.665  11.574   3.658
 4208W        W70639  43.329  35.797   2.662
 4209W        W70640   1.588   5.239   0.665
 4210W        W70641   8.414  40.010  14.134
 4211W        W70642   7.931   8.917  14.918
 4212W        W70643  19.986  27.563   3.744
 4213W        W70644  15.056  39.844  13.811
 4214W        W70645  25.205  22.180   4.025
 4215W        W70646   2.791  19.988   4.334
 4216W        W70647  26.519  12.926   4.980
 4217W        W70648  21.156  31.092  10.544
 4218W        W70649  10.602  34.099  14.303
 4219W        W70650   2.392  18.052  11.591
 4220W        W70651   0.169  27.436   4.144
 4221W        W70652  43.015  42.227  11.204
 4222W        W70653  40.881  24.517   3.795
 4223W        W70654  33.804  39.316  13.396
 4224W        W70655  11.741  39.590   4.679
 4225W        W70656  33.577  21.626  10.469
 4226W        W70657  11.279   0.202  12.584
 4227W        W70658   8.186  10.175   2.359
 4228W        W70659  28.440  21.047   2.291
 4229W        W70660  33.519   3.508  11.880
 4230W        W70661   2.053  26.067   1.752
 4231W        W70662   4.454  38.452  12.111
 4232W        W70663   2.586  25.093   0.386
 4233W        W70664   3.338  44.759   0.077
 4234W        W70665  41.426  21.275   0.487
 4235W        W70666  23.182  16.231   3.099
 4236W        W70667  37.927  38.484   0.074
 4237W        W70668   7.772   3.240  14.535
 4238W        W70669   5.794  18.527  11.534
 4239W        W70670   7.427  32.971   0.003
 4240W        W70671  24.529  28.937   4.004
 4241W        W70672  35.960  35.117   2.233
 4242W        W70673  18.365  27.543  14.875
 4243W        W70674  16.077  39.404  12.668
 4244W        W70675  12.682  31.882  12.376
 4245W        W70676  21.601  34.197   0.314
 4246W        W70677  21.194  10.668  10.919
 4247W        W70678   8.276   6.502   1.719
 4248W        W70679  16.262   5.736   3.216
 4249W        W70680  21.261  16.885   0.369
 4250W        W70681   5.300  28.326   2.495
 4251W        W70682  10.180   5.195  14.455
 4252W        W70683  14.086  28.582  13.664
 4253W        W70684  32.240  18.155   4.593
 4254W        W70685  37.080  17.561   1.286
 4255W        W70686  31.493  17.577  14.390
 4256W        W70687  39.254  10.733  14.796
 4257W        W70688   0.957  35.998   0.484
 4258W        W70689  16.057  28.509  10.651
 4259W        W70690  35.890  21.116   2.918
 4260W        W70691  24.106  37.356  14.019
 4261W        W70692  15.078  42.923   2.988
 4262W        W70693  24.068   0.350   3.325
 4263W        W70694  26.307   4.927   4.187
 4264W        W70695  25.146  37.804   4.470
 4265W        W70696  41.008  25.008  14.377
 4266W        W70697   1.828  16.687  14.639
 4267W        W70698  26.420  15.541  11.609
 4268W        W70699  33.536  33.300   2.740
 4269W        W70700  25.029  20.382   5.058
 4270W        W70701  17.681  30.457   2.651
 4271W        W70702  17.032   7.770  11.511
 4272W        W70703  23.701  10.986  12.209
 4273W        W70704   2.778  39.760   3.745
 4274W        W70705   0.285   6.569   4.281
 4275W        W70706  29.041   9.665   4.185
 4276W        W70707  22.301  35.132  14.244
 4277W        W70708   5.293  10.103   3.336
 4278W        W70709  13.122  36.427   3.881
 4279W        W70710   6.462  30.821  11.220
 4280W        W70711  44.809  36.472   1.029
 4281W        W70712  34.445  31.459   0.810
 4282W        W70713   9.740   9.360  11.048
 4283W        W70714  40.617  33.283  14.528
 4284W        W70715   9.379  17.613  12.563
 4285W        W70716  19.378  20.476   3.745
 4286W        W70717  42.867  29.803  13.302
 4287W        W70718  20.745  10.289  13.342
 4288W        W70719  26.534  42.344   3.723
 4289W        W70720  24.437  13.860   0.710
 4290W        W70721  14.923  35.552   0.429
 4291W        W70722  20.114   3.224   4.592
 4292W        W70723  24.542   5.216  12.048
 4293W        W70724  18.478  19.637   3.207
 4294W        W70725  43.703  30.689  14.814
 4295W        W70726  27.195  34.605   0.902
 4296W        W70727   3.983   3.990   1.636
 4297W        W70728  32.680  26.586   0.859
 4298W        W70729  29.487   3.999   2.277
 4299W        W70730  32.072  15.942  11.430
 4300W        W70731  40.713  15.341  12.694
 4301W        W70732  10.487  39.269  10.762
 4302W        W70733  18.339  18.827   0.128
 4303W        W70734   5.324   8.892   4.901
 4304W        W70735  27.806   9.371   0.431
 4305W        W70736  34.316   5.775  13.050
 4306W        W70737  42.470  18.566  13.004
 4307W        W70738  26.731  41.516   3.820
 4308W        W70739   4.428  30.623   4.711
 4309W        W70740  42.966  10.384   2.373
 4310W        W70741  23.202  26.426   5.375
 4311W        W70742   2.454   1.849  14.691
 4312W        W70743  14.438  30.500   4.136
 4313W        W70744  39.779  42.839  12.877
 4314W        W70745  18.552  13.447   0.852
 4315W        W70746  32.570  13.158   4.111
 4316W        W70747   6.200   0.286  11.075
 4317W        W70748  22.112  17.179   1.841
 4318W        W70749  43.240  28.628  14.576
 4319W        W70750  18.099  39.943  14.321
 4320W        W70751   8.719  16.672  12.037
 4321W        W70752  27.849  34.882  12.030
 4322W        W70753  13.007  10.267   2.140
 4323W        W70754  32.461   6.898   2.095
 4324W        W70755   1.396  40.696  14.401
 4325W        W70756  19.246   3.500   0.709
 4326W        W70757  19.240   4.666   0.899
 4327W        W70758  35.819  25.142  11.901
 4328W        W70759   5.622  19.352   4.634
 4329W        W70760  30.006  38.496  11.722
 4330W        W70761   4.353  37.862  11.369
 4331W        W70762  38.531   6.313   0.898
 4332W        W70763  29.979   4.062  10.862
 4333W        W70764  42.452   4.745  13.512
 4334W        W70765  12.028   2.792  12.507
 4335W        W70766   6.500  19.764   4.339
 4336W        W70767  18.050  43.070  12.463
 4337W        W70768  29.383  42.309   0.589
 4338W        W70769  42.427  32.631  14.540
 4339W        W70770  34.046  21.625  10.707
 4340W        W70771  38.017   6.870  11.162
 4341W        W70772  39.261   8.224  11.458
 4342W        W70773  28.466  20.282   4.590
 4343W        W70774   8.729  23.518   2.205
 4344W        W70775  42.536  35.016   4.596
 4345W        W70776  22.589  14.666   1.411
 4346W        W70777   4.741  44.987  14.726
 4347W        W70778   9.197   1.903   4.564
 4348W        W70779  38.611  30.064  14.910
 4349W        W70780  38.464  29.861   4.943
 4350W        W70781  28.741  27.498  12.463
 4351W        W70782   3.453   7.226  13.451
 4352W        W70783  21.437   1.286  13.340
 4353W        W70784  32.422  36.082   3.606
 4354W        W70785  21.930   9.072   4.147
 4355W        W70786  34.172  15.667  13.565
 4356W        W70787  27.324  14.508  11.071
 4357W        W70788  29.690  15.554   0.419
 4358W        W70789  11.165  25.942   1.858
 4359W        W70790  39.912  21.773  12.900
 4360W        W70791  14.745  13.340  13.771
 4361W        W70792  42.868  39.452   4.233
 4362W        W70793   3.843  44.177  10.252
 4363W        W70794  43.037  16.386  12.100
 4364W        W70795  22.161  19.144  14.247
 4365W        W70796  27.431  19.584  13.860
 4366W        W70797  25.395  29.642  11.946
 4367W        W70798  38.556  38.882   3.481
 4368W        W70799   2.317  25.229   5.115
 4369W        W70800  33.172  12.449  12.862
 4370W        W70801   6.361  22.322   0.412
 4371W        W70802  28.082  24.842   3.713
 4372W        W70803  16.196   7.920  10.659
 4373W        W70804  22.468  39.264   1.411
 4374W        W70805  35.568  43.928   0.259
 4375W        W70806  16.821  10.102   0.289
 4376W        W70807  14.647   4.279  13.853
 4377W        W70808  16.894   2.345  12.173
 4378W        W70809   9.716  17.515  11.181
 4379W        W70810  30.824  10.706   4.560
 4380W        W70811  39.113  30.538   0.986
 4381W        W70812  44.729  44.066  12.447
 4382W        W70813  15.624  25.194  11.695
 4383W        W70814  28.949  44.924   0.794
 4384W        W70815   6.565  17.684  12.862
 4385W        W70816  41.615  42.871   3.108
 4386W        W70817   6.688  39.554  14.508
 4387W        W70818  21.900  43.972  11.553
 4388W        W70819   1.658  31.057   4.184
 4389W        W70820  12.146  31.318  12.361
 4390W        W70821  38.992  19.630   2.104
 4391W        W70822  41.740  20.604   3.608
 4392W        W70823  17.197  32.563  12.488
 4393W        W70824   9.671  27.367  11.146
 4394W        W70825   1.150  35.297  11.645
 4395W        W70826  11.811  13.259  12.652
 4396W        W70827  41.978  43.256  11.514
 4397W        W70828  40.133  11.368  11.980
 4398W        W70829  40.232  26.816   2.699
 4399W        W70830  20.548  26.442  13.999
 4400W        W70831  11.818  26.643  10.946
 4401W        W70832  16.120  17.152   0.255
 4402W        W70833   7.158  14.653  11.155
 4403W        W70834   5.488   0.726  14.929
 4404W        W70835  14.497  17.802   4.097
 4405W        W70836   0.681  25.503  11.147
 4406W        W70837  33.563  38.384   3.639
 4407W        W70838  35.038  26.707  14.315
 4408W        W70839  13.837  39.929  13.501
 4409W        W70840   5.140  26.030   1.648
 4410W        W70841  31.277  25.724  12.925
 4411W        W70842  23.348  34.129   0.831
 4412W        W70843  15.705  21.527  14.401
 4413W        W70844  10.670  15.005  12.412
 4414W        W70845  29.978  17.064   2.468
 4415W        W70846  21.263  22.490  12.833
 4416W        W70847  42.534  41.530   2.726
 4417W        W70848  37.090  28.851   3.177
 4418W        W70849  30.955  39.481  13.422
 4419W        W70850  23.696  30.954   3.432
 4420W        W70851   4.843  36.145   2.918
 4421W        W70852  10.828  26.383   4.537
 4422W        W70853  11.489   3.550  13.430
 4423W        W70854  10.280  16.117   2.281
 4424W        W70855  43.503   9.607  13.874
 4425W        W70856  11.393   0.889   0.009
 4426W        W70857  38.047  32.547   3.620
 4427W        W70858  29.663  11.076   1.231
 4428W        W70859   4.809  13.952   3.749
 4429W        W70860  30.316  39.162  12.989
 4430W        W70861  14.253  28.053   0.724
 4431W        W70862  15.595  27.727  11.505
 4432W        W70863  14.516  29.502  12.004
 4433W        W70864  34.070  43.919  13.787
 4434W        W70865   9.820  33.368  13.356
 4435W        W70866  44.456  33.413   0.170
 4436W        W70867  14.887  26.557  10.050
 4437W        W70868  41.026  44.458   2.411
 4438W        W70869  18.653  21.158  14.910
 4439W        W70870  29.547   4.395   2.621
 4440W        W70871  32.696   0.671  11.969
 4441W        W70872  32.574  20.690  12.349
 4442W        W70873   2.911  42.443   0.456
 4443W        W70874   3.305  10.304  14.394
 4444W        W70875  18.859  15.426  10.092
 4445W        W70876   3.742   3.639   3.137
 4446W        W70877  30.935  43.850  14.891
 4447W        W70878  33.128  26.239   1.206
 4448W        W70879   9.911  25.089   0.318
 4449W        W70880   5.271  16.385  12.821
 4450W        W70881   2.322  22.037  11.555
 4451W        W70882   1.393  35.331  10.798
 4452W        W70883  31.503  41.908  11.497
 4453W        W70884  30.396  38.250   1.483
 4454W        W70885  22.748   2.236  10.583
 4455W        W70886  16.786  33.689   2.293
 4456W        W70887  42.475  20.557   1.809
 4457W        W70888  39.446  26.524  13.984
 4458W        W70889  13.305  42.923   4.619
 4459W        W70890  32.986  20.525  11.586
 4460W        W70891  13.927   9.671  10.606
 4461W        W70892  32.497   7.847   4.531
 4462W        W70893  41.901  13.308  12.318
 4463W        W70894   9.540   7.397  10.873
 4464W        W70895  19.098  15.438   0.883
 4465W        W70896   6.815  11.183   3.277
 4466W        W70897   7.583  33.510  13.378
 4467W        W70898  27.544   8.176   3.364
 4468W        W70899   1.493  21.654  12.017
 4469W        W70900  32.309  17.053  14.767
 4470W        W70901   5.803  26.953  11.263
 4471W        W70902   3.256   6.995   0.379
 4472W        W70903   0.769  32.522  14.454
 4473W        W70904  23.443  26.440   2.375
 4474W        W70905  37.258   1.575   3.635
 4475W        W70906  32.160  17.102  11.513
 4476W        W70907  32.375   3.483  14.387
 4477W        W70908   6.392  11.865  11.971
 4478W        W70909   3.194  30.160  12.805
 4479W        W70910  42.307  44.416  12.371
 4480W        W70911  11.762   6.656   4.895
 4481W        W70912  32.571   5.685  11.233
 4482W        W70913  23.913  20.518   3.692
 4483W        W70914  41.366  33.786  13.198
 4484W        W70915  28.003  20.181   4.297
 4485W        W70916  27.034  23.681   1.371
 4486W        W70917  19.760   0.943   5.077
 4487W        W70918   5.308  39.294  14.909
 4488W        W70919   9.132  13.557   3.839
 4489W        W70920  26.477   6.979   2.625
 4490W        W70921  42.964  31.644  11.083
 4491W        W70922  14.288  14.999  13.690
 4492W        W70923  26.177  25.621  13.976
 4493W        W70924  41.023  17.216   3.789
 4494W        W70925  43.544  26.750   3.094
 4495W        W70926  24.138  28.641   4.205
 4496W        W70927  44.553  29.301  12.565
 4497W        W70928  28.465  11.155   1.208
 4498W        W70929   1.489  10.927  14.797
 4499W        W70930  28.730  41.295   2.321
 4500W        W70931  31.938  35.865  13.943
 4501W        W70932  24.245   3.531   2.699
 4502W        W70933   8.657  17.518  13.836
 4503W        W70934  28.954  22.030   2.722
 4504W        W70935   2.333  42.544   2.277
 4505W        W70936  43.795   5.861  13.130
 4506W        W70937  28.378  37.116   3.896
 4507W        W70938  19.439  11.749   0.806
 4508W        W70939   8.493  42.726   3.696
 4509W        W70940  31.804  39.475  11.477
 4510W        W70941  33.986   1.703  14.315
 4511W        W70942  25.538   6.691  13.535
 4512W        W70943   9.842  27.964   0.465
 4513W        W70944  16.702  25.907  14.295
 4514W        W70945  20.444   3.870   2.405
 4515W        W70946   5.603   8.165   4.690
 4516W        W70947   0.464  39.938   1.648
 4517W        W70948   4.986   3.928   3.246
 4518W        W70949   2.528  35.440  13.644
 4519W        W70950  14.734  11.380  10.675
 4520W        W70951  18.604  20.556  11.651
 4521W        W70952  28.210  39.125   1.669
 4522W        W70953  31.327  31.118  14.879
 4523W        W70954   1.274  36.646  11.400
 4524W        W70955  20.656  28.859  12.985
 4525W        W70956  32.203  24.814  12.517
 4526W        W70957  34.132  35.084   3.742
 4527W        W70958  13.488   9.060  13.534
 4528W        W70959  41.307  16.027  11.948
 4529W        W70960  28.982   6.161  11.649
 4530W        W70961  25.748   1.041  10.600
 4531W        W70962  15.934  18.516  11.963
 4532W        W70963  33.343  27.020   2.196
 4533W        W70964   1.831  21.110   1.391
 4534W        W70965   8.202  29.153   4.084
 4535W        W70966   6.608  32.069   4.196
 4536W        W70967  30.338  24.783   2.328
 4537W        W70968  24.092  33.505   1.921
 4538W        W70969  39.464  10.534   4.741
 4539W        W70970  14.631   0.947   3.306
 4540W        W70971   2.553  38.638  10.773
 4541W        W70972  34.542  11.280   2.722
 4542W        W70973  36.600  12.658   2.677
 4543W        W70974  16.163  19.179   2.564
 4544W        W70975  33.517  25.731  13.584
 4545W        W70976  36.458  17.063   2.843
 4546W        W70977  40.300  44.460  12.266
 4547W        W70978  19.057  22.346  14.040
 4548W        W70979  30.059   7.928  14.005
 4549W        W70980  12.783   9.705  13.529
 4550W        W70981  13.119   6.343   3.770
 4551W        W70982   8.880  14.409  12.155
 4552W        W70983  34.859  27.467  13.836
 4553W        W70984  42.704  17.761  11.253
 4554W        W70985  27.100  39.110  13.317
 4555W        W70986  27.688  42.124   2.747
 4556W        W70987  39.016  41.625  13.869
 4557W        W70988   0.779  41.756  13.771
 4558W        W70989   9.902  36.527  11.595
 4559W        W70990  44.867  34.256  14.030
 4560W        W70991   2.046  44.301  13.384
 4561W        W70992  38.958  15.067   1.419
 4562W        W70993  13.153  37.526  10.691
 4563W        W70994  15.370  25.479  13.897
 4564W        W70995   2.349  29.583  11.524
 4565W        W70996  37.978   8.899  13.086
 4566W        W70997   9.838  40.062   4.154
 4567W        W70998  43.410  19.588   0.854
 4568W        W70999  18.808  22.835  12.409
 4569W        W71000   8.649  43.005  12.980
 4570W        W71001  30.040  20.719  14.104
 4571W        W71002   7.953  18.315  10.993
 4572W        W71003   7.344  12.916   0.275
 4573W        W71004  31.692  17.390  13.930
 4574W        W71005  30.141   3.871   2.437
 4575W        W71006  39.464  16.909   1.145
 4576W        W71007   7.343  23.791   1.440
 4577W        W71008  33.201  10.206  10.571
 4578W        W71009   2.278  10.567   1.060
 4579W        W71010  36.870  35.130  14.715
 4580W        W71011  40.021  27.595  12.854
 4581W        W71012  12.754   0.842  14.499
 4582W        W71013   2.783  34.423   4.370
 4583W        W71014  15.706  33.887   4.198
 4584W        W71015   7.927  23.504  13.281
 4585W        W71016  13.794  30.524   4.613
 4586W        W71017  27.930   5.044  11.136
 4587W        W71018  26.621  26.483   1.049
 4588W        W71019  24.835   7.844  11.051
 4589W        W71020   8.510  18.933   2.829
 4590W        W71021   3.055  22.123   2.351
 4591W        W71022  11.693   5.870  12.433
 4592W        W71023  27.690   2.190   2.278
 4593W        W71024  38.519  19.628   1.380
 4594W        W71025  42.813  27.523  12.048
 4595W        W71026  36.939  13.734   2.170
 4596W        W71027   8.803  11.835  12.523
 4597W        W71028  22.765  20.354  11.586
 4598W        W71029  23.202  13.631   3.309
 4599W        W71030  18.084  25.384   2.485
 4600W        W71031  26.015  13.894   2.582
 4601W        W71032  12.150   6.973  12.561
 4602W        W71033   8.308  44.338   3.919
 4603W        W71034  15.719  38.292  14.433
 4604W        W71035   9.925  20.689   0.131
 4605W        W71036   9.435  27.707  12.877
 4606W        W71037  34.724  16.775   4.141
 4607W        W71038  37.249  14.270  12.083
 4608W        W71039  43.347  12.021   1.331
 4609W        W71040  26.324  35.120  11.141
 4610W        W71041   6.078  25.690  13.818
 4611W        W71042  19.434   6.974   1.941
 4612W        W71043  22.706   6.644   3.923
 4613W        W71044   0.196  42.435   2.664
 4614W        W71045  17.124   3.959  14.908
 4615W        W71046  31.981  28.910  10.679
 4616W        W71047   9.274   6.741  12.491
 4617W        W71048  15.089   7.755  11.159
 4618W        W71049  11.332  28.725  11.604
 4619W        W71050  25.713  30.627  12.535
 4620W        W71051  18.865   6.034  11.201
 4621W        W71052  12.867  21.535  14.398
 4622W        W71053   1.505   8.470  10.717
 4623W        W71054  33.480  18.678   0.919
 4624W        W71055  26.816  15.747  12.912
 4625W        W71056  18.760  30.216  12.996
 4626W        W71057  14.067   4.409   3.489
 4627W        W71058  27.656   1.273   3.211
 4628W        W71059  13.875  15.867   0.768
 4629W        W71060  26.979  39.360   4.532
 4630W        W71061  24.203  18.580   2.580
 4631W        W71062  22.220  38.177   1.941
 4632W        W71063   8.434  12.295   2.460
 4633W        W71064   4.901  36.629  14.966
 4634W        W71065  30.527  14.531  12.968
 4635W        W71066  34.195  27.334  11.864
 4636W        W71067   0.985   2.922  12.022
 4637W        W71068  18.920  17.871   4.039
 4638W        W71069  16.955  41.786   3.319
 4639W        W71070  39.885   2.237   1.821
 4640W        W71071  25.226   8.110  11.391
 4641W        W71072   7.875  40.035  14.440
 4642W        W71073  37.887   7.090   0.887
 4643W        W71074  38.570   0.887  14.802
 4644W        W71075  37.393  41.981   4.972
 4645W        W71076  18.695  16.736  12.088
 4646W        W71077   4.367  27.682  10.903
 4647W        W71078  14.324  29.619   2.828
 4648W        W71079  36.261  35.449   0.761
 4649W        W71080  23.168  31.994  11.191
 4650W        W71081  41.542  31.700   1.834
 4651W        W71082   9.255  25.247   0.970
 4652W        W71083  11.890  10.245   3.665
 4653W        W71084  22.260  38.556  11.600
 4654W        W71085  41.767   4.977   4.251
 4655W        W71086  20.232   3.179  13.177
 4656W        W71087  35.831  41.741  14.872
 4657W        W71088  21.577  14.281   3.309
 4658W        W71089  24.414   8.387  13.910
 4659W        W71090   1.711   0.232  14.757
 4660W        W71091  21.682   6.125  13.102
 4661W        W71092   1.951  30.762  14.954
 4662W        W71093   4.718  13.370  11.457
 4663W        W71094  14.467  11.662   3.522
 4664W        W71095  18.814  35.518  10.450
 4665W        W71096  44.254  11.800   4.860
 4666W        W71097  36.371   4.705   2.010
 4667W        W71098  13.842  40.193   3.134
 4668W        W71099  37.453  22.003   3.586
 4669W        W71100  25.621   2.207   0.874
 4670W        W71101  25.505  12.780  12.639
 4671W        W71102  35.597  34.632   3.699
 4672W        W71103  18.792  20.949   3.027
 4673W        W71104  20.484  36.580   2.194
 4674W        W71105  23.989  15.574   1.883
 4675W        W71106   4.151  26.103  12.614
 4676W        W71107  36.754  15.204  11.135
 4677W        W71108  23.717  39.986  12.884
 4678W        W71109   1.873  17.504   0.095
 4679W        W71110   7.194  27.744  12.336
 4680W        W71111  27.381  38.364   3.122
 4681W        W71112   3.412  23.161   0.919
 4682W        W71113  29.438  31.245   4.105
 4683W        W71114  12.817  34.722  11.730
 4684W        W71115  12.592   2.001  11.170
 4685W        W71116  23.240   2.842   3.399
 4686W        W71117  13.648  11.003  12.961
 4687W        W71118  23.477   5.310  12.460
 4688W        W71119  14.132  12.064  12.433
 4689W        W71120   9.383  12.804   4.131
 4690W        W71121   5.472  42.834   3.688
 4691W        W71122  13.146  38.295   1.742
 4692W        W71123  35.081  22.396  11.610
 4693W        W71124  23.182   5.968  14.520
 4694W        W71125  20.272   4.768  12.385
 4695W        W71126  29.509  34.273  12.705
 4696W        W71127   2.106   9.351   1.193
 4697W        W71128  11.088  43.937  13.158
 4698W        W71129   0.586  39.447  11.170
 4699W        W71130  23.273  27.656   1.280
 4700W        W71131   7.807  30.454   3.260
 4701W        W71132   9.665  34.767  12.068
 4702W        W71133  19.228   7.767  13.034
 4703W        W71134   4.487  15.074   0.071
 4704W        W71135  26.161  15.072  12.545
 4705W        W71136  34.307  12.584   4.223
 4706W        W71137  21.526  28.121  13.459
 4707W        W71138   8.910  39.125  11.456
 4708W        W71139   7.584  31.957   0.518
 4709W        W71140   9.223  12.689   0.863
 4710W        W71141   7.302   9.171   2.386
 4711W        W71142  16.927  23.221  13.328
 4712W        W71143  29.383  39.347   0.408
 4713W        W71144   5.434  15.430  13.054
 4714W        W71145  16.374  27.071   2.528
 4715W        W71146  37.000   4.130  12.985
 4716W        W71147  36.802  29.629   3.219
 4717W        W71148  24.713  33.040   4.469
 4718W        W71149  37.539   2.027  14.317
 4719W        W71150   7.945  28.635   0.089
 4720W        W71151   1.414  35.153   2.151
 4721W        W71152  11.345  30.691   4.254
 4722W        W71153  31.704   5.853  13.291
 4723W        W71154  21.559  18.786   4.200
 4724W        W71155  37.295  15.257  11.195
 4725W        W71156   5.576  43.170  11.870
 4726W        W71157  27.365  10.166  14.204
 4727W        W71158   0.372  28.702   1.072
 4728W        W71159   5.669  20.082   0.860
 4729W        W71160   5.350  34.880   3.115
 4730W        W71161  42.251  35.808   4.231
 4731W        W71162   8.733   2.444  12.774
 4732W        W71163  25.175  42.959   3.461
 4733W        W71164  38.262   0.097   3.816
 4734W        W71165  28.540  12.392   3.171
 4735W        W71166   3.437  17.492   4.732
 4736W        W71167  27.275  17.596  13.978
 4737W        W71168  15.385   5.762  11.218
 4738W        W71169   0.985  25.263   9.744
 4739W        W71170   0.824  37.876  10.979
 4740W        W71171   3.799  18.231   4.612
 4741W        W71172  39.779  33.568   1.127
 4742W        W71173  36.473  35.598   0.286
 4743W        W71174  10.145  15.221   2.421
 4744W        W71175  13.900   0.390   3.785
 4745W        W71176  22.253  41.464   1.928
 4746W        W71177  32.263  10.961  12.983
 4747W        W71178  33.602  43.744   1.905
 4748W        W71179  29.014  35.398   4.181
 4749W        W71180  15.464  30.653  14.350
 4750W        W71181  31.551  26.104  10.754
 4751W        W71182  42.848   5.979   4.518
 4752W        W71183  34.307  28.074   3.580
 4753W        W71184  33.074   1.173   1.337
 4754W        W71185   3.951  17.335   4.742
 4755W        W71186   8.203  12.412   0.755
 4756W        W71187   7.884   9.829   3.658
 4757W        W71188  38.062  12.742   1.916
 4758W        W71189  44.345  41.550   2.145
 4759W        W71190  43.061  12.104   1.749
 4760W        W71191  11.876   3.448  13.755
 4761W        W71192  13.849  36.313  14.690
 4762W        W71193  11.631  28.678  14.175
 4763W        W71194  42.043  10.326   3.111
 4764W        W71195  41.295  42.032   4.179
 4765W        W71196   0.320  17.648   4.684
 4766W        W71197  22.735  32.706  12.912
 4767W        W71198   4.671   9.097   0.766
 4768W        W71199  28.384  12.156  13.400
 4769W        W71200  44.792  28.565  11.543
 4770W        W71201  28.470  25.479   4.175
 4771W        W71202   6.766  41.199   2.664
 4772W        W71203  14.840   8.354  14.305
 4773W        W71204   7.315  27.660   1.810
 4774W        W71205   6.887   1.036  13.370
 4775W        W71206  44.549  30.196   4.623
 4776W        W71207  13.355  21.698  13.071
 4777W        W71208  21.932  40.338   3.749
 4778W        W71209   7.811  17.848   3.505
 4779W        W71210  28.663  14.053  13.095
 4780W        W71211  33.461  14.362   3.421
 4781W        W71212  41.443   6.130   0.877
 4782W        W71213  10.069  32.174   3.226
 4783W        W71214  21.966  19.078  12.476
 4784W        W71215  42.451  19.762  12.488
 4785W        W71216  14.677  35.666   4.542
 4786W        W71217  41.439  41.559  14.918
 4787W        W71218  31.949  15.035   5.226
 4788W        W71219  27.643  25.112   3.719
 4789W        W71220  33.928   2.258  14.313
 4790W        W71221   4.003  11.673  11.185
 4791W        W71222   4.708  41.939   4.527
 4792W        W71223  26.190   3.935   2.308
 4793W        W71224  37.482  32.340   1.785
 4794W        W71225   1.888   8.448  14.504
 4795W        W71226  40.420  27.528   4.557
 4796W        W71227  37.427  12.460  12.010
 4797W        W71228  10.797   0.018  12.625
 4798W        W71229  13.724  38.508  13.071
 4799W        W71230  27.811  30.128   4.147
 4800W        W71231  22.185   4.643  12.976
 4801W        W71232   2.405  12.300   1.357
 4802W        W71233  38.606  41.948  11.161
 4803W        W71234  27.041  23.268   3.762
 4804W        W71235  40.276   1.718  10.184
 4805W        W71236   7.306  19.252   2.602
 4806W        W71237  17.653  30.643   0.233
 4807W        W71238  32.716  18.750   4.134
 4808W        W71239  26.209  41.176   2.820
 4809W        W71240  35.456   9.163   1.416
 4810W        W71241  29.505  19.583  10.320
 4811W        W71242  26.190   7.870   0.188
 4812W        W71243  40.053  15.080   2.453
 4813W        W71244   2.888  25.421  13.126
 4814W        W71245  20.141  42.158   0.183
 4815W        W71246  42.993  42.493  13.886
 4816W        W71247  42.003  16.001   4.942
 4817W        W71248  14.039  28.166   4.888
 4818W        W71249  36.329  21.070   0.434
 4819W        W71250  39.348  21.590  13.865
 4820W        W71251  42.673  29.017   0.882
 4821W        W71252  40.955   4.338  13.097
 4822W        W71253   1.360   7.297   2.688
 4823W        W71254   7.767   3.096   2.373
 4824W        W71255  15.326  31.413  14.262
 4825W        W71256  19.306  42.424  12.843
 4826W        W71257  13.848  27.970   3.949
 4827W        W71258   3.295  16.777   0.368
 4828W        W71259  10.795  15.504  12.426
 4829W        W71260  35.869  42.381   3.320
 4830W        W71261  13.578  40.569   0.592
 4831W        W71262  23.993  34.918   3.751
 4832W        W71263   3.614  37.638  10.367
 4833W        W71264  24.192  35.534   2.697
 4834W        W71265  34.204   7.993  14.516
 4835W        W71266  13.173  21.308   1.713
 4836W        W71267  22.530  41.518   4.655
 4837W        W71268  20.201  42.478  13.865
 4838W        W71269   1.913  12.679   4.072
 4839W        W71270  28.186  20.712   1.911
 4840W        W71271   6.718  39.711  13.082
 4841W        W71272  23.700  12.052   0.949
 4842W        W71273  30.625  41.593  11.086
 4843W        W71274  23.652   3.634  11.074
 4844W        W71275  11.083  39.056   2.650
 4845W        W71276  30.610  15.451   2.531
 4846W        W71277  27.144  12.686   4.226
 4847W        W71278  36.468  32.371  10.272
 4848W        W71279  38.212   2.430  12.965
 4849W        W71280  30.387  16.792  14.973
 4850W        W71281  23.493  32.994  13.339
 4851W        W71282  33.990  38.943  10.460
 4852W        W71283  19.683  34.928   0.568
 4853W        W71284  42.473   8.948   4.365
 4854W        W71285   3.374  22.256   0.945
 4855W        W71286  19.439  43.612  11.475
 4856W        W71287  14.847  16.529   3.860
 4857W        W71288  21.369  25.821   3.583
 4858W        W71289  24.259   5.032  14.243
 4859W        W71290  21.034  37.227  14.737
 4860W        W71291  13.579  27.183  12.002
 4861W        W71292  27.102  38.346   3.556
 4862W        W71293   8.430  39.854  11.935
 4863W        W71294  26.142  34.732   4.921
 4864W        W71295   2.442  41.451  14.016
 4865W        W71296  41.982  33.389  11.123
 4866W        W71297  34.108  42.229  12.068
 4867W        W71298  32.982   7.804  13.930
 4868W        W71299  32.106  41.433   0.832
 4869W        W71300   0.529  35.891  13.480
 4870W        W71301  22.460  18.014  12.505
 4871W        W71302  16.707  21.528  14.348
 4872W        W71303  24.076  10.549   4.500
 4873W        W71304  32.486   2.275   0.933
 4874W        W71305  36.010  13.784   0.493
 4875W        W71306  42.872  21.530  13.440
 4876W        W71307   9.449  29.723   2.740
 4877W        W71308  41.100  17.626   0.817
 4878W        W71309  30.120  42.990  13.056
 4879W        W71310  26.502   9.855  10.722
 4880W        W71311  23.540  24.639   1.348
 4881W        W71312  14.399   0.101  12.921
 4882W        W71313   1.493  16.309  13.420
 4883W        W71314   1.044  42.671  14.845
 4884W        W71315  41.054  35.035  12.011
 4885W        W71316  44.318  16.353   0.404
 4886W        W71317  13.559  14.571   4.467
 4887W        W71318  13.391  26.523  13.194
 4888W        W71319  18.839  26.480  13.981
 4889W        W71320  11.214   2.043  14.504
 4890W        W71321   7.314  36.953   2.650
 4891W        W71322  42.341  33.437   0.015
 4892W        W71323  43.306   8.766   1.240
 4893W        W71324   7.833  22.227   2.861
 4894W        W71325  33.031  11.329  12.133
 4895W        W71326   7.774  44.850  14.007
 4896W        W71327   5.200  44.414  13.436
 4897W        W71328   9.106   7.754  13.329
 4898W        W71329  24.573   8.904  13.869
 4899W        W71330  28.029  36.317   3.644
 4900W        W71331  44.310  34.392   0.257
 4901W        W71332  21.571  31.341  10.781
 4902W        W71333  15.409   2.250  12.050
 4903W        W71334  39.786  24.829   4.494
 4904W        W71335   7.223  28.386   2.693
 4905W        W71336  24.659  32.011  14.980
 4906W        W71337  31.111  42.459   1.761
 4907W        W71338   6.982  10.819   1.731
 4908W        W71339   5.690   7.253   3.056
 4909W        W71340   0.032  44.950  11.227
 4910W        W71341   4.685  39.243   2.713
 4911W        W71342  28.058  32.361  13.390
 4912W        W71343   9.839  16.286   1.650
 4913W        W71344  12.253   8.692   4.078
 4914W        W71345   3.332  14.340  12.008
 4915W        W71346  23.971  13.291   3.704
 4916W        W71347  33.553   8.480  12.524
 4917W        W71348  38.576  22.228  13.509
 4918W        W71349  27.013  20.512   1.882
 4919W        W71350  33.914  41.760  12.053
 4920W        W71351   6.125  12.550  14.879
 4921W        W71352  35.229  38.131   0.257
 4922W        W71353  23.040  17.714  14.370
 4923W        W71354  11.125  14.636   1.861
 4924W        W71355   8.935  10.859   2.807
 4925W        W71356   0.806  14.269   2.318
 4926W        W71357  29.685  28.005  11.176
 4927W        W71358  35.847  31.468   0.858
 4928W        W71359  24.961   8.636   4.142
 4929W        W71360  23.016  41.392  11.303
 4930W        W71361  15.081   2.856   5.354
 4931W        W71362  24.742  23.432  13.016
 4932W        W71363  20.308  15.734  11.165
 4933W        W71364  18.512  32.570   2.914
 4934W        W71365  14.663  10.279   0.250
 4935W        W71366  26.810  31.321   3.285
 4936W        W71367  35.567   6.471   4.124
 4937W        W71368   8.784  19.194  11.514
 4938W        W71369  22.679  26.014   4.906
 4939W        W71370  41.376  24.815  13.487
 4940W        W71371  27.572  18.236   1.227
 4941W        W71372  23.224  22.922   9.831
 4942W        W71373  21.611  42.498  11.450
 4943W        W71374  17.844  23.576   4.571
 4944W        W71375  12.744  40.126  12.546
 4945W        W71376  20.184  29.039  11.106
 4946W        W71377  15.390   7.451   1.855
 4947W        W71378  15.661  10.325  12.431
 4948W        W71379  35.171  23.684   2.157
 4949W        W71380  41.330  18.138  11.072
 4950W        W71381   5.638  25.091   4.212
 4951W        W71382  40.782  44.875   3.705
 4952W        W71383  11.777  20.696   1.238
 4953W        W71384  35.425  17.104  10.761
 4954W        W71385   9.209  13.772  10.548
 4955W        W71386  12.372  36.333   3.301
 4956W        W71387  23.195  37.589   3.164
 4957W        W71388   4.687  26.417  11.535
 4958W        W71389  43.109  38.411  12.841
 4959W        W71390  18.830  40.459  13.025
 4960W        W71391   6.987  14.336   0.716
 4961W        W71392  21.485  10.229  10.859
 4962W        W71393   0.086  37.294   4.558
 4963W        W71394  14.044  39.267  12.464
 4964W        W71395  23.166  41.925  14.040
 4965W        W71396  42.405  28.395   4.055
 4966W        W71397  19.746  38.501   2.695
 4967W        W71398   8.353  19.124   0.223
 4968W        W71399  31.410  37.431  11.937
 4969W        W71400  44.799  13.828   4.548
 4970W        W71401  27.019  16.599   4.989
 4971W        W71402   2.192  27.124   0.582
 4972W        W71403  11.150  35.522  13.357
 4973W        W71404  18.484  37.845   3.781
 4974W        W71405  18.187  17.141  13.899
 4975W        W71406  42.572  23.478   0.819
 4976W        W71407  31.974  33.716   2.622
 4977W        W71408  40.950  44.622   3.273
 4978W        W71409  31.093  12.790  11.595
 4979W        W71410  31.627  14.322  12.376
 4980W        W71411  27.949  22.449  13.983
 4981W        W71412  43.550  33.688  12.833
 4982W        W71413  29.125  24.033  11.578
 4983W        W71414  13.814  44.867   2.812
 4984W        W71415  36.791   8.022  14.132
 4985W        W71416  11.791   0.857  12.571
 4986W        W71417  23.796   1.463  11.733
 4987W        W71418  37.006  33.097   2.721
 4988W        W71419  40.263  43.466  12.485
 4989W        W71420   0.819  17.077  10.152
 4990W        W71421   0.418  17.343   3.734
 4991W        W71422   3.872  16.408   1.038
 4992W        W71423  21.470  18.156  13.340
 4993W        W71424  11.555  24.244   0.949
 4994W        W71425  43.265  32.651   1.303
 4995W        W71426  27.087  34.650   4.898
 4996W        W71427  17.998  26.993  13.076
 4997W        W71428  19.602  39.401   0.311
 4998W        W71429  32.700  24.789   2.631
 4999W        W71430   1.464  31.385   0.729
 5000W        W71431  20.818  37.502  11.541
 5001W        W71432  29.989  40.667   0.723
 5002W        W71433  22.419   3.459   2.753
 5003W        W71434  38.465  19.153   3.628
 5004W        W71435  25.416  40.514  10.491
 5005W        W71436  34.785  10.297  13.618
 5006W        W71437  29.786  17.903  14.712
 5007W        W71438   2.728  41.848  12.839
 5008W        W71439  22.770  15.699   0.469
 5009W        W71440  29.767  12.127   3.078
 5010W        W71441   5.630  12.504  13.960
 5011W        W71442   1.190  26.439  13.903
 5012W        W71443   5.784  16.123   0.487
 5013W        W71444  33.348  12.257  13.333
 5014W        W71445  13.179  27.006   4.211
 5015W        W71446   8.038   5.970  11.997
 5016W        W71447   5.668  43.418   4.071
 5017W        W71448  29.913   0.136  14.751
 5018W        W71449  44.429  16.121  13.058
 5019W        W71450  20.507   1.324   4.644
 5020W        W71451   1.833  21.415   2.757
 5021W        W71452  16.743  21.500  11.939
 5022W        W71453  29.862  28.214   3.613
 5023W        W71454   0.272  13.079   3.643
 5024W        W71455   7.262   3.171   2.233
 5025W        W71456   6.472   8.442  12.007
 5026W        W71457  32.031  31.965   1.379
 5027W        W71458  31.711  14.642   1.781
 5028W        W71459  43.689  13.641  12.094
 5029W        W71460   0.905  43.997   0.346
 5030W        W71461  16.896  11.235  11.229
 5031W        W71462  27.244  20.780  13.404
 5032W        W71463   0.893  13.140   3.214
 5033W        W71464  15.998  42.379  14.394
 5034W        W71465   9.835  40.792  10.671
 5035W        W71466   1.290  44.563   1.005
 5036W        W71467  30.666  17.243  13.962
 5037W        W71468   9.306   0.233   1.474
 5038W        W71469  11.353  12.761   0.790
 5039W        W71470  32.081   0.210  13.526
 5040W        W71471  41.205   7.101  13.905
 5041W        W71472  10.593  17.330  12.877
 5042W        W71473   9.662  21.912   4.121
 5043W        W71474  11.291  16.743   0.727
 5044W        W71475  21.037  18.730   0.103
 5045W        W71476   7.713  21.001  14.482
 5046W        W71477   1.404  32.093  14.870
 5047W        W71478  16.859  23.111   4.375
 5048W        W71479  31.196  36.457  14.002
 5049W        W71480  23.645  14.771  10.512
 5050W        W71481  41.023  19.258  10.658
 5051W        W71482  11.598  13.892   1.753
 5052W        W71483   6.524  13.610  11.162
 5053W        W71484  33.862  14.685   2.320
 5054W        W71485  43.831  15.355  11.970
 5055W        W71486  23.782  17.358   3.356
 5056W        W71487  33.115  40.353   1.251
 5057W        W71488   2.726  24.096   3.759
 5058W        W71489  25.069  10.653   3.614
 5059W        W71490  32.131   5.517  13.336
 5060W        W71491  36.433  44.534   4.499
 5061W        W71492   7.174  15.993  12.547
 5062W        W71493  37.378   3.992  11.094
 5063W        W71494  25.542  28.563  12.450
 5064W        W71495  40.556  21.496  10.847
 5065W        W71496  26.566  39.791  12.951
 5066W        W71497  30.028   7.196  11.928
 5067W        W71498  20.635  37.640   1.230
 5068W        W71499   7.229   7.415   4.560
 5069W        W71500  23.037  12.177  12.761
 5070W        W71501  36.236  25.460  12.137
 5071W        W71502  31.373  44.474   0.379
 5072W        W71503  37.159  26.407   1.855
 5073W        W71504   2.266   2.385  13.979
 5074W        W71505   0.043  22.512  13.301
 5075W        W71506  27.178  35.937  14.788
 5076W        W71507  38.348   4.864  12.991
 5077W        W71508  18.658  15.588   2.266
 5078W        W71509  42.776  26.200   4.528
 5079W        W71510  18.497  41.808   2.415
 5080W        W71511  29.700  18.197   0.406
 5081W        W71512  34.777  37.539  10.607
 5082W        W71513  35.585  19.131  11.009
 5083W        W71514  40.989  27.148   1.889
 5084W        W71515  25.004   6.597   1.867
 5085W        W71516   8.803  39.610  12.565
 5086W        W71517  35.508  33.836   4.295
 5087W        W71518  44.755  36.201  14.689
 5088W        W71519  32.054  22.669  11.232
 5089W        W71520  41.320  13.346   0.993
 5090W        W71521  10.246  22.714  13.506
 5091W        W71522  32.109  11.839   0.501
 5092W        W71523   3.319  29.202   1.625
 5093W        W71524  42.438   7.818   1.431
 5094W        W71525   7.383   3.751   4.616
 5095W        W71526  16.144  20.773   4.754
 5096W        W71527  15.660  17.232   0.517
 5097W        W71528  15.782   9.455  14.381
 5098W        W71529  42.030  15.506   0.865
 5099W        W71530  18.366  23.251   0.815
 5100W        W71531  33.663  32.178  11.034
 5101W        W71532   7.429  26.429  11.909
 5102W        W71533  10.306  33.832   0.228
 5103W        W71534  19.934   0.658   2.288
 5104W        W71535  18.460   4.518  12.203
 5105W        W71536  29.521   8.393  13.382
 5106W        W71537  33.622  25.652   3.519
 5107W        W71538  39.970  42.836  13.352
 5108W        W71539   2.787   6.900   3.682
 5109W        W71540   7.560   0.934   2.751
 5110W        W71541  28.645  32.934   4.027
 5111W        W71542   2.396  44.398   0.767
 5112W        W71543  30.907  36.030  14.000
 5113W        W71544   4.112  43.899  13.652
 5114W        W71545   6.821  43.872   2.617
 5115W        W71546  36.822  40.387   3.647
 5116W        W71547  19.229   6.624   0.792
 5117W        W71548  16.500  12.900   1.543
 5118W        W71549  43.440  10.325  12.810
 5119W        W71550  42.850  14.676  10.759
 5120W        W71551  17.186  44.272   5.424
 5121W        W71552   2.972  44.957   1.407
 5122W        W71553  10.290  39.294   1.359
 5123W        W71554  33.018  19.143   1.274
 5124W        W71555  21.183  43.302  13.584
 5125W        W71556  26.285  15.130   3.100
 5126W        W71557  31.383  27.806  13.636
 5127W        W71558  44.949  34.827   4.118
 5128W        W71559  11.857  19.548  11.691
 5129W        W71560   4.431  24.940   2.435
 5130W        W71561   1.940  32.929   3.623
 5131W        W71562  41.103  19.971  13.398
 5132W        W71563  39.512  29.818  11.549
 5133W        W71564  25.092  29.102  13.743
 5134W        W71565  24.557  25.970   4.555
 5135W        W71566  13.266   9.254  12.544
 5136W        W71567   2.688  18.126  11.988
 5137W        W71568   7.646  42.243  13.677
 5138W        W71569  44.500  24.511  13.356
 5139W        W71570  41.552  24.990  13.030
 5140W        W71571  39.171   4.118   2.067
 5141W        W71572   3.714  16.177   3.646
 5142W        W71573  40.335  10.853  12.911
 5143W        W71574  25.252  25.737   0.142
 5144W        W71575  36.598  27.423  13.448
 5145W        W71576  23.620  18.205   4.525
 5146W        W71577  21.545  22.509   3.596
 5147W        W71578  40.198  14.713  12.902
 5148W        W71579  41.031  24.457   0.927
 5149W        W71580  16.827  14.220   2.397
 5150W        W71581  17.335  25.026   2.099
 5151W        W71582   0.947  43.218  14.862
 5152W        W71583  22.519  13.838  10.426
 5153W        W71584  26.006  34.538  14.357
 5154W        W71585   8.110   8.573   3.280
 5155W        W71586  12.226  10.775  12.991
 5156W        W71587   4.783  30.506  14.426
 5157W        W71588  15.267  19.519   1.458
 5158W        W71589   1.786  43.153   1.772
 5159W        W71590  36.812  25.482   3.101
 5160W        W71591  43.107  22.079   2.585
 5161W        W71592  29.385  29.471  14.446
 5162W        W71593  37.020   0.705  12.626
 5163W        W71594   0.361  29.113  12.992
 5164W        W71595   6.456   2.928  12.965
 5165W        W71596  22.444  35.449  11.174
 5166W        W71597  15.976  36.246  14.977
 5167W        W71598  27.069  31.158  11.254
 5168W        W71599  31.087  23.663   0.114
 5169W        W71600  17.615   6.909  12.451
 5170W        W71601  30.489  35.906  14.691
 5171W        W71602  18.020  17.686  12.591
 5172W        W71603  12.795  36.483  11.554
 5173W        W71604   0.189  32.462   0.880
 5174W        W71605  10.885  32.891  11.263
 5175W        W71606  27.851  19.099   0.171
 5176W        W71607   5.543  20.597  14.191
 5177W        W71608  15.659  16.450   2.785
 5178W        W71609   2.372  18.086   0.968
 5179W        W71610  30.868  44.061   2.841
 5180W        W71611  41.260   0.733   3.700
 5181W        W71612  15.356   1.235   4.173
 5182W        W71613   6.676  33.707   0.677
 5183W        W71614   1.709  25.678   4.467
 5184W        W71615  17.135  39.286  12.606
 5185W        W71616  32.384  17.722   0.473
 5186W        W71617  12.452   2.541   4.930
 5187W        W71618  38.073  31.984   1.674
 5188W        W71619   8.663  35.358  11.197
 5189W        W71620  43.247   2.378   2.198
 5190W        W71621   3.794  35.010  13.905
 5191W        W71622  37.755  37.908   2.599
 5192W        W71623  37.033   8.721  10.697
 5193W        W71624   1.541   9.179   2.605
 5194W        W71625  24.028  21.607   2.394
 5195W        W71626  40.893   0.802  11.637
 5196W        W71627   9.208  13.580  14.963
 5197W        W71628  22.916  10.171   1.641
 5198W        W71629  19.762  23.234  13.466
 5199W        W71630  37.612   3.062   0.832
 5200W        W71631  32.960  30.026   5.066
 5201W        W71632  31.595  39.512  12.787
 5202W        W71633   1.813  20.608   3.351
 5203W        W71634  17.299  10.314   3.163
 5204W        W71635   5.529  36.209  12.883
 5205W        W71636  10.302  41.087   0.437
 5206W        W71637  31.506   3.780   2.302
 5207W        W71638  18.173  18.537  14.157
 5208W        W71639  17.473   8.662   3.262
 5209W        W71640   2.852  21.832   2.763
 5210W        W71641   8.670   9.370  11.611
 5211W        W71642  44.483  18.383  10.678
 5212W        W71643  12.288  40.367  12.398
 5213W        W71644  37.556  33.753   4.152
 5214W        W71645  28.573  10.321  11.014
 5215W        W71646   5.900   9.931  13.982
 5216W        W71647  26.327  33.695  14.244
 5217W        W71648   0.601  31.783   4.557
 5218W        W71649  22.191  29.157  10.157
 5219W        W71650  33.857   0.324   2.183
 5220W        W71651  24.007  23.911  11.060
 5221W        W71652   3.652  43.360  10.719
 5222W        W71653  19.789  17.595   0.487
 5223W        W71654   1.964  36.614  12.469
 5224W        W71655  10.566  12.759   1.260
 5225W        W71656  10.660  15.126   4.587
 5226W        W71657  43.996  11.923   1.649
 5227W        W71658  21.203  24.723   3.723
 5228W        W71659  34.578  25.973  12.153
 5229W        W71660  35.580  40.271   4.620
 5230W        W71661  18.291  35.100   1.253
 5231W        W71662   7.439  11.299   4.172
 5232W        W71663  41.782  21.117   1.885
 5233W        W71664   3.491  31.623  11.524
 5234W        W71665  15.176  29.440   3.802
 5235W        W71666  41.754   0.137  12.144
 5236W        W71667   4.437  24.153   0.445
 5237W        W71668   9.360   7.153   3.182
 5238W        W71669  26.974  42.601   3.903
 5239W        W71670  34.566  21.163   3.402
 5240W        W71671  22.274   5.395  13.132
 5241W        W71672  24.694  16.148  13.988
 5242W        W71673  43.367   7.640  12.419
 5243W        W71674  24.619  13.178   3.341
 5244W        W71675  40.589  17.047  11.631
 5245W        W71676  38.087  29.422   3.558
 5246W        W71677   2.389  12.641  12.495
 5247W        W71678  27.929   4.234  11.565
 5248W        W71679  39.516   4.939  11.749
 5249W        W71680  29.544  35.207   2.288
 5250W        W71681  10.442   5.240  12.389
 5251W        W71682  41.526  19.131   0.217
 5252W        W71683  14.134  29.417   2.389
 5253W        W71684  35.728  15.869  11.167
 5254W        W71685  30.811  21.335   3.961
 5255W        W71686  37.374  12.228   3.668
 5256W        W71687  31.061  38.529  11.543
 5257W        W71688   4.742  18.529   2.339
 5258W        W71689   8.316  26.108   1.670
 5259W        W71690   3.715   2.606   4.152
 5260W        W71691  29.035   3.603  14.417
 5261W        W71692  21.262  16.661  10.048
 5262W        W71693  24.122  15.124  14.506
 5263W        W71694  14.658  36.288   1.156
 5264W        W71695   0.496  36.249   4.696
 5265W        W71696   8.665   8.751  13.611
 5266W        W71697  25.014  41.235  13.858
 5267W        W71698  16.280  30.102   1.673
 5268W        W71699   6.294  10.067   5.029
 5269W        W71700  36.822   9.594  14.357
 5270W        W71701  44.969  43.902   0.177
 5271W        W71702  41.861  39.741  11.904
 5272W        W71703  32.698  18.326  14.370
 5273W        W71704  31.196  30.062   0.315
 5274W        W71705  20.454  12.758   3.418
 5275W        W71706  36.971   8.495  11.164
 5276W        W71707  44.021  42.792   4.134
 5277W        W71708  24.578   0.762   1.855
 5278W        W71709  15.341  20.970   3.325
 5279W        W71710  36.145  25.211  10.964
 5280W        W71711   5.140   9.446   0.729
 5281W        W71712  41.344  41.010  11.652
 5282W        W71713   7.797   9.905   2.632
 5283W        W71714   7.159  33.916   0.763
 5284W        W71715   7.381  12.600   4.779
 5285W        W71716   1.029   2.343  13.591
 5286W        W71717  40.556   0.396   4.057
 5287W        W71718  14.585   5.389   2.587
 5288W        W71719  18.121   5.671  14.378
 5289W        W71720  17.825  14.199   1.164
 5290W        W71721  13.333  26.688   3.456
 5291W        W71722   8.768   5.004  11.367
 5292W        W71723  14.619  41.972  12.420
 5293W        W71724  44.986  13.324   4.010
 5294W        W71725  43.397  32.921   1.721
 5295W        W71726   2.758   5.935  10.870
 5296W        W71727   3.236   5.764  12.083
 5297W        W71728   9.815  40.359  10.326
 5298W        W71729  37.250   9.597  11.560
 5299W        W71730   8.360  41.032  10.773
 5300W        W71731   5.650   0.833  12.555
 5301W        W71732  21.800  38.830  14.578
 5302W        W71733  15.390  29.739   3.421
 5303W        W71734  28.895  42.231  10.924
 5304W        W71735  32.460   3.736   2.732
 5305W        W71736  10.271  37.965   0.251
 5306W        W71737  27.230  33.391  14.225
 5307W        W71738  24.794  19.103  12.826
 5308W        W71739   1.559  18.369  12.393
 5309W        W71740   8.294  29.694   4.149
 5310W        W71741  23.583  23.146  10.924
 5311W        W71742  31.133  33.969   2.717
 5312W        W71743  35.408  17.730  11.154
 5313W        W71744  32.020  27.285  13.908
 5314W        W71745  16.140  33.195  12.997
 5315W        W71746  27.967  20.857  11.983
 5316W        W71747  29.102  35.648  14.930
 5317W        W71748  16.563  19.188   1.713
 5318W        W71749  39.470  26.155   1.762
 5319W        W71750   5.256  19.515   3.357
 5320W        W71751  41.282  22.702  12.122
 5321W        W71752  35.095  22.025   0.195
 5322W        W71753  36.957  12.577   4.812
 5323W        W71754  39.125  11.300   4.131
 5324W        W71755  19.286  28.568  14.869
 5325W        W71756  10.378  36.389   4.204
 5326W        W71757  16.259  19.822  10.546
 5327W        W71758  14.543   1.028  10.506
 5328W        W71759  44.356  37.665   2.277
 5329W        W71760  25.496  42.465  11.166
 5330W        W71761  31.515  27.494  14.022
 5331W        W71762  33.320  10.580  11.856
 5332W        W71763   3.674  21.493  10.925
 5333W        W71764  32.607   7.699  10.608
 5334W        W71765   0.343   9.771  12.910
 5335W        W71766  10.109  15.789  11.501
 5336W        W71767   8.261  43.886   0.108
 5337W        W71768  12.809   2.945  12.007
 5338W        W71769   7.935  30.338  11.308
 5339W        W71770  30.220   8.455   0.719
 5340W        W71771  11.329   3.186   1.900
 5341W        W71772  12.406  32.608   3.218
 5342W        W71773  23.151  41.461  12.808
 5343W        W71774  38.978  33.471  11.788
 5344W        W71775  32.163  12.144   4.186
 5345W        W71776   6.309  25.874  11.863
 5346W        W71777   7.279  10.074  14.335
 5347W        W71778  41.427  28.399  11.661
 5348W        W71779  12.786  39.641  12.307
 5349W        W71780  24.671  27.845  12.851
 5350W        W71781  17.089  40.152   1.473
 5351W        W71782   8.997   4.006  11.155
 5352W        W71783  18.525  28.742   2.344
 5353W        W71784  37.290  23.608   0.610
 5354W        W71785  40.857  32.963   4.375
 5355W        W71786  28.893  40.813  11.483
 5356W        W71787  24.423  39.512   4.851
 5357W        W71788  23.519  24.686   2.416
 5358W        W71789  11.772  10.235   1.609
 5359W        W71790  20.109  25.273  13.435
 5360W        W71791  34.094  38.958  13.999
 5361W        W71792  23.328  28.413   2.787
 5362W        W71793  30.389   0.044  10.789
 5363W        W71794  43.301  27.222  14.694
 5364W        W71795  10.699  14.359   1.914
 5365W        W71796  33.302  14.296   4.319
 5366W        W71797   3.346  41.626   1.876
 5367W        W71798  24.623  25.623  13.389
 5368W        W71799  10.634  34.348   1.700
 5369W        W71800  44.267  32.071   0.584
 5370W        W71801  20.118  22.724   2.279
 5371W        W71802  36.033  35.921   4.251
 5372W        W71803  37.399  18.170   0.349
 5373W        W71804  15.138   1.316  12.926
 5374W        W71805  42.016   7.348  12.172
 5375W        W71806   7.077  20.605  14.082
 5376W        W71807  14.381  43.293  10.661
 5377W        W71808   9.971  26.206   4.458
 5378W        W71809  12.068  27.414   3.782
 5379W        W71810  23.522   2.904  11.600
 5380W        W71811  33.863  19.763   4.576
 5381W        W71812  39.823  14.532  13.924
 5382W        W71813  28.116  14.508  10.084
 5383W        W71814  35.639  33.670   0.507
 5384W        W71815  19.851  41.371   4.564
 5385W        W71816  15.594   4.586   1.065
 5386W        W71817  35.790  30.674  14.410
 5387W        W71818  44.730   0.926   1.754
 5388W        W71819   6.669   7.852   1.082
 5389W        W71820   3.922  44.942  12.045
 5390W        W71821  23.574  11.492   3.086
 5391W        W71822  35.250  21.581   3.558
 5392W        W71823   1.489  38.350   3.846
 5393W        W71824  25.775   3.969   0.846
 5394W        W71825  37.335  34.920   2.767
 5395W        W71826  12.741   6.196   3.185
 5396W        W71827  10.272  27.468   3.710
 5397W        W71828  17.110  34.451   0.306
 5398W        W71829  39.485  11.693   2.564
 5399W        W71830  34.277  15.944   4.993
 5400W        W71831   8.590   4.025  14.421
 5401W        W71832  37.955  33.341   1.468
 5402W        W71833   0.449  29.482   1.737
 5403W        W71834   9.793  19.232  10.650
 5404W        W71835  35.007   8.894  12.671
 5405W        W71836  17.362   3.435   0.438
 5406W        W71837   9.457   5.449  14.939
 5407W        W71838  26.182  35.687  14.743
 5408W        W71839  42.276  11.146  13.285
 5409W        W71840   5.196  40.727   1.835
 5410W        W71841  36.269   0.291  13.639
 5411W        W71842  11.225  38.459  12.154
 5412W        W71843  26.078  44.215  14.245
 5413W        W71844   0.183   7.103   1.026
 5414W        W71845  38.048  35.953   3.695
 5415W        W71846  26.585  30.958  10.191
 5416W        W71847  13.104  35.019  12.543
 5417W        W71848  36.981  41.661   4.940
 5418W        W71849   5.197  11.976   0.825
 5419W        W71850  25.600  26.153   0.014
 5420W        W71851  25.602  38.402  13.937
 5421W        W71852   5.683  13.547   4.226
 5422W        W71853  10.834  17.373   3.908
 5423W        W71854  15.599   8.157  14.066
 5424W        W71855  24.094  35.529   0.773
 5425W        W71856  22.647  15.976  10.176
 5426W        W71857  10.839  21.247  12.046
 5427W        W71858  30.482  37.703  10.277
 5428W        W71859  39.521  14.762   4.600
 5429W        W71860  21.817  32.050   2.106
 5430W        W71861  20.955  28.964  11.581
 5431W        W71862   7.751   4.121   4.548
 5432W        W71863  28.953  44.382  13.666
 5433W        W71864   8.108  40.927   0.941
 5434W        W71865  36.563  12.446  11.379
 5435W        W71866   0.015  34.316   0.798
 5436W        W71867  28.151  12.335  11.977
 5437W        W71868  40.787   4.298  14.977
 5438W        W71869  42.299   5.891  10.894
 5439W        W71870  38.796   8.821  14.807
 5440W        W71871  10.035  11.899   3.819
 5441W        W71872  17.728  43.290  12.103
 5442W        W71873  41.485   0.553   1.524
 5443W        W71874   4.979  29.173   0.973
 5444W        W71875  42.209  16.247   1.051
 5445W        W71876  19.729   3.284  12.449
 5446W        W71877  43.557  21.742  11.959
 5447W        W71878  25.614  27.166   4.192
 5448W        W71879  14.216  13.142   1.232
 5449W        W71880  23.123  14.763   2.614
 5450W        W71881  23.106  29.404   0.793
 5451W        W71882  35.038   7.981  12.109
 5452W        W71883   2.558  18.112   0.475
 5453W        W71884  10.371  14.764   2.363
 5454W        W71885  21.784  36.682   4.957
 5455W        W71886  42.236  32.055   3.024
 5456W        W71887   8.170  36.222   0.093
 5457W        W71888  22.674   1.492  14.988
 5458W        W71889  35.363  26.520   3.157
 5459W        W71890  18.481   0.909   5.037
 5460W        W71891   3.865  21.531  12.286
 5461W        W71892   8.862  21.926   0.833
 5462W        W71893  21.115  43.659   1.958
 5463W        W71894  38.529  15.196  12.486
 5464W        W71895  23.634  19.500   3.703
 5465W        W71896  22.438  37.452   1.357
 5466W        W71897   7.898   3.045  11.484
 5467W        W71898  42.985  11.323  14.320
 5468W        W71899  19.497  30.108   2.781
 5469W        W71900   9.202   1.159   2.157
 5470W        W71901   5.132  19.848   4.213
 5471W        W71902  31.533  18.495   3.437
 5472W        W71903  30.946  30.900  13.084
 5473W        W71904  24.595  22.702   4.598
 5474W        W71905   8.579  31.880   1.802
 5475W        W71906  10.224  25.669   2.272
 5476W        W71907  12.069  39.236   1.940
 5477W        W71908  18.254  24.434  14.020
 5478W        W71909  17.299   9.465  13.106
 5479W        W71910  33.995  19.210   2.465
 5480W        W71911  25.848   4.914  13.469
 5481W        W71912   7.433  31.891  14.213
 5482W        W71913  34.518  26.097  13.035
 5483W        W71914   9.850  28.198  13.551
 5484W        W71915  12.408  18.756   3.845
 5485W        W71916   6.459  14.682   5.103
 5486W        W71917  37.032  28.462   2.765
 5487W        W71918  26.223  22.241  13.002
 5488W        W71919   6.896  19.866  14.148
 5489W        W71920  23.185  41.441  10.803
 5490W        W71921   6.966   1.829   0.413
 5491W        W71922  24.218  42.516   0.689
 5492W        W71923  15.767  28.879  14.180
 5493W        W71924  19.489  15.314   3.667
 5494W        W71925  34.717  35.501   3.229
 5495W        W71926   1.705  43.070  13.581
 5496W        W71927  15.405  23.521   0.280
 5497W        W71928  33.576  19.470  13.928
 5498W        W71929  11.085  19.351  11.095
 5499W        W71930   8.222  22.205  14.449
 5500W        W71931  14.090   9.138  12.010
 5501W        W71932  24.420  29.822  13.087
 5502W        W71933   1.835  14.632   3.665
 5503W        W71934  22.975  10.194  14.893
 5504W        W71935  15.623  41.709   4.136
 5505W        W71936  32.791  16.927  12.525
 5506W        W71937  21.219  33.762   4.935
 5507W        W71938  31.126  42.506   0.359
 5508W        W71939  35.444   2.155  11.245
 5509W        W71940  40.094   0.862  14.929
 5510W        W71941  34.933  36.558  13.292
 5511W        W71942  10.220  16.716   3.741
 5512W        W71943  23.551  42.679  14.913
 5513W        W71944  32.809  10.426   4.643
 5514W        W71945  12.537   2.248  11.936
 5515W        W71946  43.449  24.447  14.785
 5516W        W71947  33.139   9.156   1.012
 5517W        W71948  24.742  44.576  11.964
 5518W        W71949   5.381  23.194   3.461
 5519W        W71950  17.802  41.198   2.917
 5520W        W71951  35.769   9.312  14.890
 5521W        W71952  25.564  33.091   4.560
 5522W        W71953  18.515   8.214   0.820
 5523W        W71954   0.338  23.477  14.027
 5524W        W71955  36.123  13.603   0.957
 5525W        W71956  36.538  33.570  13.196
 5526W        W71957   4.841  37.049  11.322
 5527W        W71958   6.508  40.842   3.624
 5528W        W71959  12.890  22.580  12.672
 5529W        W71960  32.862  34.044  14.947
 5530W        W71961  22.050   6.587   0.861
 5531W        W71962  28.064  41.783   2.623
 5532W        W71963   6.481   3.295  14.833
 5533W        W71964  27.485  41.397  12.452
 5534W        W71965  24.252  43.865  12.898
 5535W        W71966  18.828  21.627   1.834
 5536W        W71967  27.130  14.852   3.610
 5537W        W71968   0.371  33.874   1.009
 5538W        W71969  14.351  19.165  13.542
 5539W        W71970  16.253  26.301   1.348
 5540W        W71971   8.193  15.156   1.934
 5541W        W71972  20.662   6.804   1.410
 5542W        W71973  19.284  23.107   1.881
 5543W        W71974  34.835   2.369   3.654
 5544W        W71975  33.089  41.440  12.854
 5545W        W71976  37.154   5.162   1.411
 5546W        W71977  10.874   3.340   0.413
 5547W        W71978  17.328  27.550  11.226
 5548W        W71979  43.626  22.250   1.208
 5549W        W71980  23.141  23.968   1.927
 5550W        W71981   8.611  25.115  10.032
 5551W        W71982   2.687   8.195   2.428
 5552W        W71983   2.009  20.125  12.001
 5553W        W71984   2.992  18.126  12.493
 5554W        W71985  12.234  13.086   3.274
 5555W        W71986  37.554  10.865  11.093
 5556W        W71987  22.314  27.591  14.431
 5557W        W71988   5.457  38.392   1.971
 5558W        W71989   0.592  38.609  13.945
 5559W        W71990   7.098   0.315   3.841
 5560W        W71991  14.804  31.426  12.114
 5561W        W71992  33.532   6.079  12.487
 5562W        W71993  34.382   6.784   1.271
 5563W        W71994   5.684  26.538   3.133
 5564W        W71995  12.461  23.166  10.296
 5565W        W71996  14.966  12.004   5.507
 5566W        W71997  34.991  25.639   4.733
 5567W        W71998   2.439  14.025   1.464
 5568W        W71999  18.128  15.663  11.512
 5569W        W72000  29.989  12.149  14.296
 5570W        W72001  30.792  36.855   1.913
 5571W        W72002   1.300  24.138  11.632
 5572W        W72003  18.679   2.419  11.721
 5573W        W72004   8.877   8.921  10.623
 5574W        W72005  31.558  22.453   1.407
 5575W        W72006  23.743  26.577   4.314
 5576W        W72007  13.176  12.353  12.894
 5577W        W72008   5.988  20.829  11.037
 5578W        W72009  44.731   6.131   3.166
 5579W        W72010  35.024   1.941  13.429
 5580W        W72011  19.730  38.280  12.115
 5581W        W72012  19.269  25.917  13.396
 5582W        W72013  24.753   1.268   1.885
 5583W        W72014  37.014  40.412  12.523
 5584W        W72015   1.007  38.966  11.468
 5585W        W72016  41.650  10.075  13.968
 5586W        W72017  38.868  31.126   3.164
 5587W        W72018   6.311  41.285   2.964
 5588W        W72019  39.305   7.165   2.350
 5589W        W72020   6.873  11.012  12.971
 5590W        W72021  12.636  24.583   3.223
 5591W        W72022  23.537   9.755   2.870
 5592W        W72023  32.099  17.190  12.054
 5593W        W72024  32.415  29.645   1.225
 5594W        W72025   1.194   3.313  12.338
 5595W        W72026  38.763   8.752   1.375
 5596W        W72027   6.256  22.007   3.577
 5597W        W72028  12.831  20.187  13.989
 5598W        W72029  44.200  24.221  14.914
 5599W        W72030   4.844  43.340  13.966
 5600W        W72031   1.870  42.661   4.040
 5601W        W72032  25.227  44.791  10.919
 5602W        W72033  12.729  40.122   3.062
 5603W        W72034  40.157  16.667  14.280
 5604W        W72035   1.172   3.340  11.792
 5605W        W72036  35.942  39.986   2.852
 5606W        W72037  38.463   6.799  14.777
 5607W        W72038  17.130   4.486   3.650
 5608W        W72039  29.495  32.789   1.783
 5609W        W72040  38.491  27.681  14.821
 5610W        W72041   0.167  28.971   4.102
 5611W        W72042  25.186  11.147   3.649
 5612W        W72043  13.885  15.682   4.748
 5613W        W72044   1.377  21.484   4.569
 5614W        W72045  27.444  39.805  11.025
 5615W        W72046   9.452  38.525  13.870
 5616W        W72047  13.321  41.385   4.070
 5617W        W72048  31.958   8.261   2.647
 5618W        W72049  42.915  21.475   0.789
 5619W        W72050   9.965  16.690   5.019
 5620W        W72051  22.973  22.113  10.337
 5621W        W72052  24.239  20.659   5.414
 5622W        W72053   8.495   3.977  11.966
 5623W        W72054  16.991  39.483  11.339
 5624W        W72055  24.563  35.487   2.146
 5625W        W72056  28.057   0.487  13.953
 5626W        W72057  29.995  23.634  10.690
 5627W        W72058  27.569  15.855   4.379
 5628W        W72059   0.805  11.209  10.277
 5629W        W72060   4.162  28.960  11.564
 5630W        W72061   9.152  22.787   4.155
 5631W        W72062  42.922  39.857  13.992
 5632W        W72063  34.434  42.073   0.682
 5633W        W72064   7.800  34.407   2.688
 5634W        W72065  42.853  40.862   0.213
 5635W        W72066  34.307  39.910  12.747
 5636W        W72067  44.921  40.647   2.766
 5637W        W72068  38.295   0.742  11.574
 5638W        W72069  21.338  14.107   2.878
 5639W        W72070   1.496  24.043  13.442
 5640W        W72071  32.324  41.735  14.716
 5641W        W72072  23.991  41.453  12.906
 5642W        W72073  11.828  40.523  12.131
 5643W        W72074  37.593  11.418  11.975
 5644W        W72075  20.158  27.180  11.863
 5645W        W72076  38.792  32.743  14.439
 5646W        W72077  22.212  14.209  13.352
 5647W        W72078  26.422  11.275  14.751
 5648W        W72079  16.246  20.968  13.936
 5649W        W72080  40.060  27.346  13.932
 5650W        W72081  37.450  34.413   0.058
 5651W        W72082  37.351  36.419  14.209
 5652W        W72083  13.314  41.784  13.946
 5653W        W72084  31.528  36.881   3.086
 5654W        W72085  28.125  19.208  12.128
 5655W        W72086  25.139  12.487  12.390
 5656W        W72087  11.852  38.463   0.241
 5657W        W72088  38.787  19.068   4.276
 5658W        W72089  44.851  42.446   1.265
 5659W        W72090   4.932  31.189   1.364
 5660W        W72091   4.876  26.954   3.800
 5661W        W72092   0.695  27.508   1.275
 5662W        W72093  42.030  40.521   1.233
 5663W        W72094  32.692   3.877  13.568
 5664W        W72095  21.989  25.705  12.413
 5665W        W72096  19.994  23.129  10.457
 5666W        W72097  22.598  25.913   0.342
 5667W        W72098  16.606  21.800  13.872
 5668W        W72099   9.643  35.471   1.673
 5669W        W72100   0.797   8.589  14.879
 5670W        W72101   0.910  38.725   1.734
 5671W        W72102  40.151  12.891  14.508
 5672W        W72103   7.475   3.650   2.177
 5673W        W72104  39.094  36.665  12.610
 5674W        W72105  31.365  39.424  10.600
 5675W        W72106   5.155  36.826  13.200
 5676W        W72107  34.620  16.466  12.262
 5677W        W72108   9.255  44.528  13.907
 5678W        W72109  29.434  24.951   0.840
 5679W        W72110  13.879  40.926  13.394
 5680W        W72111  29.075  33.885   2.555
 5681W        W72112  14.627  10.802   3.572
 5682W        W72113  16.696  20.613   3.628
 5683W        W72114  10.888   7.217   1.052
 5684W        W72115  30.730  18.121  10.496
 5685W        W72116  20.187  37.575  11.824
 5686W        W72117  20.969  12.637  11.626
 5687W        W72118  12.097  14.600   1.804
 5688W        W72119  29.106  38.390   2.761
 5689W        W72120   9.937   6.119  12.957
 5690W        W72121  28.580  33.025  11.055
 5691W        W72122  12.843  39.965  13.409
 5692W        W72123   3.541  42.684   4.962
 5693W        W72124   5.260  35.499  14.044
 5694W        W72125  44.870  22.729   0.902
 5695W        W72126   3.536  25.630   3.770
 5696W        W72127  29.400  19.154  12.573
 5697W        W72128  29.906  43.843  14.337
 5698W        W72129   0.497  27.496   2.297
 5699W        W72130  19.805  38.480  11.623
 5700W        W72131   1.455  14.561   0.507
 5701W        W72132  37.464  25.460   5.160
 5702W        W72133  18.114  35.426   3.750
 5703W        W72134  44.656  28.566   0.228
 5704W        W72135  16.245   4.174  12.708
 5705W        W72136  15.696  34.999   0.414
 5706W        W72137  41.301  43.476  12.541
 5707W        W72138   1.706   8.373   0.823
 5708W        W72139   4.518   6.688  14.822
 5709W        W72140   4.066   1.946   2.960
 5710W        W72141  23.644  24.640  14.566
 5711W        W72142  41.848  10.250   4.029
 5712W        W72143  40.562  41.387   3.604
 5713W        W72144  33.082  19.960   0.800
 5714W        W72145   9.271  42.232   3.609
 5715W        W72146   6.696   6.191  11.065
 5716W        W72147  23.772  21.252  14.859
 5717W        W72148   5.251  36.114  13.635
 5718W        W72149  43.508  26.206  12.036
 5719W        W72150  16.421   0.588  13.056
 5720W        W72151  25.293  44.393  12.852
 5721W        W72152  18.195  38.098  14.142
 5722W        W72153  28.357  10.314   5.115
 5723W        W72154  39.337  43.805  11.976
 5724W        W72155  17.277   8.991  12.886
 5725W        W72156  37.957  29.002   1.931
 5726W        W72157   6.231  20.334  11.581
 5727W        W72158   0.021  24.048  14.417
 5728W        W72159  41.915  17.541  12.549
 5729W        W72160  22.699  33.545   1.270
 5730W        W72161  40.540  33.036  10.717
 5731W        W72162  25.867  23.984  11.155
 5732W        W72163  21.272   7.215  12.609
 5733W        W72164  10.677  36.857  12.962
 5734W        W72165  36.902  14.893  11.585
 5735W        W72166  10.334   1.444   0.455
 5736W        W72167  13.931  28.558  13.160
 5737W        W72168  22.204  38.517  14.818
 5738W        W72169  22.321  23.138  10.624
 5739W        W72170   9.373  34.351  12.477
 5740W        W72171  13.824  42.415  14.000
 5741W        W72172  18.409  28.086   2.149
 5742W        W72173  15.046  43.776  13.389
 5743W        W72174   7.586  27.923  12.063
 5744W        W72175  25.527  15.536   2.365
 5745W        W72176   4.409  43.960   0.171
 5746W        W72177  27.574  15.740  13.302
 5747W        W72178  19.626  14.595  13.778
 5748W        W72179  31.256  22.637   1.775
 5749W        W72180  30.589  41.909  11.486
 5750W        W72181  16.564   7.819  11.249
 5751W        W72182  16.970  30.623   3.719
 5752W        W72183  39.438   1.189  10.555
 5753W        W72184  30.476   8.941  14.331
 5754W        W72185  41.961  43.919  13.466
 5755W        W72186  25.583  28.952   1.338
 5756W        W72187  35.632   3.497  12.918
 5757W        W72188  38.507   3.771   1.257
 5758W        W72189  33.151  35.739   1.799
 5759W        W72190   9.772  32.981   3.557
 5760W        W72191   0.540  36.861   0.833
 5761W        W72192  40.459  18.874  14.858
 5762W        W72193   2.269  42.946   1.743
 5763W        W72194  11.584   9.908  11.514
 5764W        W72195  11.837  41.529   1.216
 5765W        W72196  30.892  36.354   1.821
 5766W        W72197   4.084  20.655   0.298
 5767W        W72198  34.457  21.236   2.823
 5768W        W72199  16.853  41.894  11.119
 5769W        W72200   5.558  13.258  12.384
 5770W        W72201  39.607  33.208  13.096
 5771W        W72202   2.920  44.356   4.606
 5772W        W72203   1.711  34.914  10.776
 5773W        W72204  15.565  39.611  12.631
 5774W        W72205   6.937  29.034   1.782
 5775W        W72206  25.230  31.077   2.105
 5776W        W72207  39.922  26.613   4.006
 5777W        W72208   2.772  11.224   4.137
 5778W        W72209   2.371  27.523  11.522
 5779W        W72210   6.803  11.751  11.031
 5780W        W72211   3.015  27.367  11.553
 5781W        W72212   4.203  42.938  11.197
 5782W        W72213  31.952  40.771  13.061
 5783W        W72214  34.699  17.878   2.630
 5784W        W72215  42.675  42.425  12.061
 5785W        W72216  38.925  25.566   4.021
 5786W        W72217  30.045  21.490   4.599
 5787W        W72218  31.245  28.566  11.609
 5788W        W72219  27.276  21.490  14.959
 5789W        W72220   4.244   4.287   2.326
 5790W        W72221  12.068   9.393  14.034
 5791W        W72222  21.061   6.186  14.373
 5792W        W72223  20.999  17.156  11.923
 5793W        W72224  16.796  30.857   0.308
 5794W        W72225  34.764  31.961   4.545
 5795W        W72226  28.142  14.725  13.375
 5796W        W72227  13.135  35.192   3.325
 5797W        W72228   4.291  26.087  11.797
 5798W        W72229  12.410  11.688   0.912
 5799W        W72230  16.659  20.821  13.625
 5800W        W72231   5.855  15.747  13.114
 5801W        W72232  20.643  44.871   4.776
 5802W        W72233   1.729  32.167  12.563
 5803W        W72234   6.402   6.323   2.924
 5804W        W72235   9.040  10.072  13.068
 5805W        W72236  23.611   7.607   2.444
 5806W        W72237  43.504  38.899   2.802
 5807W        W72238  41.936  37.558  11.356
 5808W        W72239  14.681   8.921   4.062
 5809W        W72240   1.896  28.040  13.328
 5810W        W72241  26.404  19.196   3.267
 5811W        W72242   0.378  33.900   3.172
 5812W        W72243  12.288  17.640  11.676
 5813W        W72244  38.116   9.849   2.799
 5814W        W72245  18.493  17.157   0.332
 5815W        W72246   4.217  35.335  13.978
 5816W        W72247  35.078  44.168   0.246
 5817W        W72248  22.254  26.027   0.703
 5818W        W72249  27.169  44.809  10.556
 5819W        W72250  34.959  21.718  12.481
 5820W        W72251  16.761  23.794   0.385
 5821W        W72252   2.689  38.411  14.472
 5822W        W72253   0.094  33.570   4.261
 5823W        W72254  37.806  41.450   3.815
 5824W        W72255  33.662  16.554  14.302
 5825W        W72256  28.364  20.482   3.817
 5826W        W72257  30.817   5.733   3.054
 5827W        W72258  15.943  31.040   3.104
 5828W        W72259   1.473  21.284   2.358
 5829W        W72260  18.751  18.737   1.816
 5830W        W72261  44.667  25.448  13.508
 5831W        W72262  26.892   7.954   0.763
 5832W        W72263  22.237  16.614  11.073
 5833W        W72264   7.382  42.196   3.124
 5834W        W72265  43.901  39.597   2.465
 5835W        W72266  11.914  33.567  13.219
 5836W        W72267  36.173   8.393   2.257
 5837W        W72268  25.021   5.448   4.582
 5838W        W72269  19.091   0.459   4.776
 5839W        W72270  26.491   0.570   5.082
 5840W        W72271  42.950  37.369  13.823
 5841W        W72272  41.651   7.488   1.778
 5842W        W72273  11.796  31.884  13.491
 5843W        W72274  28.501  24.663  11.574
 5844W        W72275  39.658  27.903  12.588
 5845W        W72276  17.738  22.603  13.636
 5846W        W72277  27.670  42.230  11.826
 5847W        W72278   6.842   0.395   2.990
 5848W        W72279   8.631  17.520  14.355
 5849W        W72280  14.489  43.341   1.275
 5850W        W72281   7.796  12.975   3.937
 5851W        W72282  33.816   1.971   2.734
 5852W        W72283   5.653  37.970   1.761
 5853W        W72284  35.935   8.258  14.299
 5854W        W72285  38.662  34.335  12.769
 5855W        W72286  21.732  26.155  14.399
 5856W        W72287   1.724  10.363   2.649
 5857W        W72288   9.238  12.113  12.508
 5858W        W72289  24.332  10.146  10.836
 5859W        W72290  23.607   2.735  12.099
 5860W        W72291  19.226  30.880  10.764
 5861W        W72292   5.854  35.055  12.712
 5862W        W72293   9.345  13.167  14.468
 5863W        W72294   4.692  39.578  13.098
 5864W        W72295  29.622   8.070   4.090
 5865W        W72296  38.826   8.697  12.330
 5866W        W72297   0.813  26.079   3.182
 5867W        W72298   3.481  40.546   2.222
 5868W        W72299   3.108   2.743  11.158
 5869W        W72300  39.585  16.693  10.742
 5870W        W72301  38.514  22.632   1.193
 5871W        W72302  17.149  35.594  11.274
 5872W        W72303  19.515  17.010   4.937
 5873W        W72304  27.680   9.298  11.576
 5874W        W72305  32.325  27.923   3.731
 5875W        W72306  35.096  16.711  14.401
 5876W        W72307  36.640  21.760  11.691
 5877W        W72308  27.039   5.380  10.419
 5878W        W72309  26.919   6.938   1.176
 5879W        W72310  27.435  33.965  11.608
 5880W        W72311  25.161  12.348   0.794
 5881W        W72312   0.530  43.535  11.134
 5882W        W72313  31.416  36.388  10.798
 5883W        W72314  18.634  10.841   0.442
 5884W        W72315  43.355  18.575   2.762
 5885W        W72316   3.263  31.495   0.927
 5886W        W72317  23.627  12.015   3.173
 5887W        W72318  31.416  18.257   3.898
 5888W        W72319  42.950  10.257  11.580
 5889W        W72320  34.295   8.466   1.912
 5890W        W72321  24.253   2.955   1.825
 5891W        W72322  15.635   2.396  10.002
 5892W        W72323  10.265  40.256  13.139
 5893W        W72324  39.040  35.317   1.357
 5894W        W72325  44.970  16.590   0.760
 5895W        W72326  19.905  31.842  14.922
 5896W        W72327  33.471  27.699  10.206
 5897W        W72328  40.230   9.843   3.370
 5898W        W72329  23.573  22.066  12.110
 5899W        W72330   5.935  30.884   3.256
 5900W        W72331  27.492   9.082  12.013
 5901W        W72332  35.490   3.984  10.786
 5902W        W72333  12.666  26.446  10.585
 5903W        W72334   9.252  26.494   1.260
 5904W        W72335  31.304   0.415  14.227
 5905W        W72336  12.120   8.860  11.538
 5906W        W72337  31.090  17.665   3.813
 5907W        W72338   9.156  20.940  11.178
 5908W        W72339  34.435  14.766   0.177
 5909W        W72340  35.243  28.103   2.363
 5910W        W72341  27.144  38.003   0.914
 5911W        W72342  37.923  24.166  13.033
 5912W        W72343  32.924  30.055   1.841
 5913W        W72344  38.321  22.240  12.995
 5914W        W72345  13.057   5.920   2.245
 5915W        W72346  44.524   8.426  10.364
 5916W        W72347   8.886  28.833  14.334
 5917W        W72348  33.083  12.140   3.792
 5918W        W72349  40.056  32.365   3.183
 5919W        W72350  43.304   5.292   2.810
 5920W        W72351  42.171   5.336   1.749
 5921W        W72352   2.859   9.275   4.817
 5922W        W72353  36.456  19.907   2.976
 5923W        W72354  25.938   3.480   2.182
 5924W        W72355  30.879  39.893   1.175
 5925W        W72356  32.792  14.983   4.125
 5926W        W72357  38.488  28.497   2.840
 5927W        W72358  40.517  20.322   2.184
 5928W        W72359  31.358  31.008   4.256
 5929W        W72360  16.708  22.262  10.265
 5930W        W72361  29.981  33.645  13.435
 5931W        W72362  27.557   2.684  14.243
 5932W        W72363  14.070  42.435   0.311
 5933W        W72364  16.043  44.027   1.031
 5934W        W72365  17.958  40.663   1.298
 5935W        W72366  29.402  40.881  11.648
 5936W        W72367  31.909  29.945   0.769
 5937W        W72368  14.274  23.164   2.091
 5938W        W72369  21.619  37.443  12.428
 5939W        W72370  28.033  19.299  14.409
 5940W        W72371  24.949  16.118   2.499
 5941W        W72372  10.407  22.563  10.861
 5942W        W72373  25.611  24.023  14.653
 5943W        W72374  37.555  17.782   2.298
 5944W        W72375  32.893   5.855   2.920
 5945W        W72376  11.592  35.617  11.918
 5946W        W72377  11.752  16.928  14.972
 5947W        W72378  15.390   9.419  13.365
 5948W        W72379  14.822  42.774  11.381
 5949W        W72380  34.585  13.338   1.423
 5950W        W72381  31.898   2.971  10.866
 5951W        W72382  44.000  30.651  13.015
 5952W        W72383  14.384  43.256  12.605
 5953W        W72384   8.147   5.918   3.396
 5954W        W72385  44.438   5.706   3.278
 5955W        W72386  39.490  34.544   4.538
 5956W        W72387   1.926  23.757  12.033
 5957W        W72388   5.988  11.296   0.279
 5958W        W72389  43.195  41.994   4.096
 5959W        W72390  14.781  14.227   5.398
 5960W        W72391  32.721  26.582   3.127
 5961W        W72392  26.799  34.959  11.202
 5962W        W72393  38.113  33.239  13.885
 5963W        W72394  32.861   0.386  13.366
 5964W        W72395  29.777   4.710  10.337
 5965W        W72396  20.201  17.349   3.135
 5966W        W72397  40.394   0.904   4.195
 5967W        W72398   6.282  28.574  11.925
 5968W        W72399  10.294  12.366  11.614
 5969W        W72400  30.506  40.391  10.862
 5970W        W72401  12.070   1.754   1.838
 5971W        W72402  39.971  19.303   3.678
 5972W        W72403  15.258  17.610   0.687
 5973W        W72404  10.068  44.518   1.810
 5974W        W72405   6.432   1.709   3.790
 5975W        W72406  18.318  20.144   3.247
 5976W        W72407   9.191  21.541   2.258
 5977W        W72408   9.690  30.718  14.996
 5978W        W72409  39.323  29.990   4.495
 5979W        W72410  13.386   2.750  14.574
 5980W        W72411  23.562  42.100   3.759
 5981W        W72412  33.011   4.975  10.741
 5982W        W72413  12.328  19.549   4.501
 5983W        W72414  16.763   9.772   0.742
 5984W        W72415  33.977   3.650  14.962
 5985W        W72416  18.604  24.703   2.883
 5986W        W72417  11.484   9.703   0.583
 5987W        W72418  30.939  34.442  14.388
 5988W        W72419  33.548  38.372   1.528
 5989W        W72420  15.790  19.226   2.208
 5990W        W72421   7.343   2.538  14.514
 5991W        W72422   7.676  38.197  12.996
 5992W        W72423  25.219  11.654  10.570
 5993W        W72424  35.175  18.505   0.896
 5994W        W72425  35.659  11.668  12.942
 5995W        W72426  26.476  32.899   2.660
 5996W        W72427  29.186  19.775   3.218
 5997W        W72428   5.881  18.208   4.615
 5998W        W72429   4.299  30.663   2.915
 5999W        W72430  34.105  40.854  11.307
 6000W        W72431  26.164   0.446  14.635
 6001W        W72432   0.245  35.431   0.131
 6002W        W72433   7.506  15.092   0.781
 6003W        W72434   2.845  34.945  12.305
 6004W        W72435  13.301  15.356  11.988
 6005W        W72436  33.866  12.924  12.004
 6006W        W72437  26.577  43.479  10.381
 6007W        W72438   1.791   9.871  14.550
 6008W        W72439  37.853  33.707   5.407
 6009W        W72440  33.849   3.060   3.612
 6010W        W72441  24.948   4.323   1.873
 6011W        W72442  31.168   1.376   2.265
 6012W        W72443  24.678   9.234  12.513
 6013W        W72444   7.760  27.819  14.875
 6014W        W72445  21.812  17.982   4.080
 6015W        W72446   4.547  35.008  14.923
 6016W        W72447  27.953  31.877  14.224
 6017W        W72448  31.894  29.691   1.228
 6018W        W72449  29.647   4.606  14.943
 6019W        W72450  15.070  43.942   1.641
 6020W        W72451  34.501  15.829  13.020
 6021W        W72452  44.448  30.154   4.125
 6022W        W72453  16.165  15.854   0.245
 6023W        W72454  22.541  42.048  14.309
 6024W        W72455   2.195  13.977   3.274
 6025W        W72456  31.958   3.326  12.033
 6026W        W72457  30.136   4.882  10.678
 6027W        W72458  38.085  23.604   1.219
 6028W        W72459  24.691   0.677   0.514
 6029W        W72460   8.396  17.173  14.984
 6030W        W72461  16.325  17.547   3.611
 6031W        W72462  23.012  36.840   0.397
 6032W        W72463  26.991  14.891  11.155
 6033W        W72464  29.540  23.567   4.096
 6034W        W72465  19.997  27.411   0.865
 6035W        W72466  40.893   7.391  12.082
 6036W        W72467  13.141   0.821   3.242
 6037W        W72468  34.010   3.901   3.768
 6038W        W72469   5.843   0.044  11.361
 6039W        W72470  11.395   4.052  13.361
 6040W        W72471  21.219  29.007   3.152
 6041W        W72472   8.450  39.153   3.663
 6042W        W72473  30.403   9.756   3.728
 6043W        W72474  33.849  11.409  10.656
 6044W        W72475  33.894  22.452   1.228
 6045W        W72476   0.464  19.968  11.698
 6046W        W72477  44.487  34.468   3.238
 6047W        W72478  24.428   8.689  11.390
 6048W        W72479  20.351  24.920  13.860
 6049W        W72480  15.534  27.169  14.999
 6050W        W72481   4.371   2.693   4.557
 6051W        W72482  36.459  11.202  13.337
 6052W        W72483   2.437  27.651  14.043
 6053W        W72484   7.160  32.435  14.976
 6054W        W72485  12.695   2.016  12.518
 6055W        W72486  17.600   6.971  14.243
 6056W        W72487  42.909  38.860  10.522
 6057W        W72488  38.010  17.090  11.570
 6058W        W72489  18.975   2.962   2.733
 6059W        W72490  33.560  37.752  10.121
 6060W        W72491  16.359  13.456  12.548
 6061W        W72492  21.494  10.614  12.203
 6062W        W72493  37.986  11.818  11.963
 6063W        W72494   9.582   3.528  10.706
 6064W        W72495  29.371  44.298  14.000
 6065W        W72496  10.904   9.747   3.228
 6066W        W72497  34.554   0.918  13.031
 6067W        W72498   3.425  32.137   2.081
 6068W        W72499  29.597  30.040  13.018
 6069W        W72500  26.288   6.158  10.596
 6070W        W72501  25.992  30.263   1.312
 6071W        W72502  19.515  44.758  12.971
 6072W        W72503  42.454  26.921   2.643
 6073W        W72504  18.826  17.278   0.740
 6074W        W72505  35.468   7.198  10.760
 6075W        W72506  37.003  25.026   3.407
 6076W        W72507  34.091  18.415  14.602
 6077W        W72508  28.547   8.349  12.441
 6078W        W72509  10.703  10.796  12.035
 6079W        W72510   6.905   5.508  13.855
 6080W        W72511  31.502  27.199   2.896
 6081W        W72512  21.169  23.690  13.761
 6082W        W72513  29.028   3.679  11.597
 6083W        W72514  23.913  32.072   2.642
 6084W        W72515  33.376  29.525   1.981
 6085W        W72516  24.171   1.371   2.804
 6086W        W72517   4.716  12.580  13.597
 6087W        W72518  44.206  22.113   3.323
 6088W        W72519  21.621  40.826  11.960
 6089W        W72520  29.102  18.037  13.644
 6090W        W72521  44.770  18.285   1.035
 6091W        W72522  25.150  22.033  10.880
 6092W        W72523   9.341  32.430   1.902
 6093W        W72524  41.586  18.790   3.676
 6094W        W72525  13.831  28.681   2.812
 6095W        W72526  43.805  11.371  14.601
 6096W        W72527  10.244  29.844   0.083
 6097W        W72528  27.077   7.719  13.642
 6098W        W72529  29.075  13.099   0.726
 6099W        W72530  11.430  40.341   1.455
 6100W        W72531  28.614  39.025  13.075
 6101W        W72532  18.507   8.715   3.401
 6102W        W72533  27.200  33.869  12.064
 6103W        W72534  32.729  34.403   0.697
 6104W        W72535  40.378   4.370  11.005
 6105W        W72536  38.796  11.440   0.193
 6106W        W72537   8.200   6.641  13.534
 6107W        W72538  40.921  25.248  12.980
 6108W        W72539   2.873  19.495   4.487
 6109W        W72540   6.851  31.608   1.483
 6110W        W72541  36.443  27.562  12.495
 6111W        W72542   9.147  11.383   3.700
 6112W        W72543   9.267   6.786  11.962
 6113W        W72544   7.719   1.147  12.809
 6114W        W72545  19.250  38.906  14.399
 6115W        W72546  32.082   5.517   2.124
 6116W        W72547  30.548  20.220   2.354
 6117W        W72548  38.529  17.299   3.709
 6118W        W72549  12.161  42.414   2.968
 6119W        W72550  33.889  24.897   5.094
 6120W        W72551  25.292  16.808  13.890
 6121W        W72552   4.015  15.834   4.498
 6122W        W72553  40.021  19.999   0.312
 6123W        W72554  34.811  40.255   0.880
 6124W        W72555   5.563  33.941   2.039
 6125W        W72556  25.507  42.909   0.570
 6126W        W72557   4.428  23.763  13.514
 6127W        W72558  37.579  33.435   0.676
 6128W        W72559  44.214  27.073  14.971
 6129W        W72560   0.052  39.611  12.042
 6130W        W72561  33.917  34.634   2.839
 6131W        W72562  18.544  35.329   0.872
 6132W        W72563  26.126   5.226   0.547
 6133W        W72564  33.925  14.315  13.966
 6134W        W72565   7.223  41.647   4.226
 6135W        W72566  39.482  22.512   3.243
 6136W        W72567  18.526  21.509  12.981
 6137W        W72568  29.128  10.082  10.312
 6138W        W72569  28.966  12.642  12.911
 6139W        W72570  29.461  30.753  11.251
 6140W        W72571  31.659   6.360  13.411
 6141W        W72572  15.645  16.745  11.621
 6142W        W72573  18.704  18.087  13.587
 6143W        W72574  12.130  24.061  14.114
 6144W        W72575  16.104  17.695  11.666
 6145W        W72576  11.557  16.388   1.823
 6146W        W72577   2.935  35.631   3.192
 6147W        W72578  14.829   6.528   1.971
 6148W        W72579  25.235   6.799   4.254
 6149W        W72580  29.059  10.171  10.822
 6150W        W72581  13.766   4.268   1.220
 6151W        W72582  18.087  22.984  12.132
 6152W        W72583  34.733   9.572  12.987
 6153W        W72584   0.546  42.925   2.366
 6154W        W72585  12.592  27.025   1.810
 6155W        W72586  22.100  28.338   3.690
 6156W        W72587  26.433  14.441   0.344
 6157W        W72588  22.272   9.229   1.245
 6158W        W72589  10.240   9.427  13.203
 6159W        W72590   6.880   1.798   2.438
 6160W        W72591  16.670  40.395  10.626
 6161W        W72592  16.098  38.474   4.694
 6162W        W72593  31.056  18.895  11.559
 6163W        W72594  27.696  23.018   4.244
 6164W        W72595  25.945  25.618  14.449
 6165W        W72596  18.249   9.347   4.895
 6166W        W72597  31.837  11.029   0.240
 6167W        W72598  34.238  31.790   5.438
 6168W        W72599  39.813  17.358  12.949
 6169W        W72600   3.861  29.424  10.741
 6170W        W72601  36.677  41.978  13.017
 6171W        W72602  27.036  38.258   1.362
 6172W        W72603  18.598  21.787   2.805
 6173W        W72604  27.922  15.645  12.930
 6174W        W72605   3.212  15.491  14.965
 6175W        W72606  34.132   8.609   3.473
 6176W        W72607  33.125   3.012   3.299
 6177W        W72608   5.920  34.148   0.363
 6178W        W72609   7.898   5.824  14.476
 6179W        W72610  38.411  15.762  13.359
 6180W        W72611   1.918   8.724  14.027
 6181W        W72612  21.558  40.755   2.161
 6182W        W72613  32.466   5.772   4.776
 6183W        W72614  16.201  43.352   2.385
 6184W        W72615  16.568  20.296   1.261
 6185W        W72616   7.233  17.773  11.750
 6186W        W72617  10.238  26.852   2.910
 6187W        W72618  12.241  21.703  13.823
 6188W        W72619  29.580  21.548  10.730
 6189W        W72620  20.171  18.141  14.878
 6190W        W72621  22.230  22.670   3.087
 6191W        W72622  29.468  13.608  12.544
 6192W        W72623  25.356  36.156  12.681
 6193W        W72624  24.692  16.351  12.595
 6194W        W72625   3.395  25.525  13.506
 6195W        W72626   8.956   4.753   2.167
 6196W        W72627  10.825  38.686   4.869
 6197W        W72628  12.385  43.961  13.436
 6198W        W72629  29.856  20.265  14.258
 6199W        W72630   5.363   2.958   1.871
 6200W        W72631  22.837  17.529  11.988
 6201W        W72632  26.453  13.914   4.236
 6202W        W72633  44.493   0.734  14.921
 6203W        W72634   0.331  16.082   3.374
 6204W        W72635  31.049   3.530   4.757
 6205W        W72636  39.104   2.650   4.540
 6206W        W72637  17.714  44.500  10.947
 6207W        W72638  38.345  34.985   0.336
 6208W        W72639  13.916  17.747   0.627
 6209W        W72640  35.391  43.310   2.818
 6210W        W72641  23.129  32.636   2.332
 6211W        W72642  35.997  36.308   1.460
 6212W        W72643   0.755  10.682   2.106
 6213W        W72644  30.454  42.995  10.600
 6214W        W72645  19.719  35.976   4.925
 6215W        W72646   7.324  25.296   5.014
 6216W        W72647  15.189  42.649   2.175
 6217W        W72648  31.487  25.188  12.018
 6218W        W72649  28.314  40.829  14.961
 6219W        W72650  13.635  12.162  14.843
 6220W        W72651   6.586  21.634  11.183
 6221W        W72652  25.649  10.304   1.842
 6222W        W72653  11.917  24.657  10.699
 6223W        W72654  44.036  36.452   4.689
 6224W        W72655  41.922  25.709   0.541
 6225W        W72656  17.269  10.605  11.929
 6226W        W72657  29.510  37.793  13.917
 6227W        W72658   0.727  15.586  14.599
 6228W        W72659  41.963  12.061  14.388
 6229W        W72660  19.591  30.072   1.920
 6230W        W72661   4.582  41.041  12.337
 6231W        W72662   2.514  10.066   4.092
 6232W        W72663   9.269  37.560   2.113
 6233W        W72664  40.132   1.177  13.178
 6234W        W72665  15.665  15.791   0.063
 6235W        W72666  28.079  22.749  10.731
 6236W        W72667  23.984   3.660  11.636
 6237W        W72668  26.642  21.670   4.454
 6238W        W72669  19.072  21.654   4.542
 6239W        W72670   7.507  42.516   0.876
 6240W        W72671  34.736  42.466  11.286
 6241W        W72672  33.316  10.195   3.638
 6242W        W72673  29.180  20.006   1.763
 6243W        W72674   9.332  43.798   3.672
 6244W        W72675  24.688  14.436  11.542
 6245W        W72676  15.305  21.962  13.409
 6246W        W72677  18.169  32.212  12.693
 6247W        W72678  32.943  43.059   1.763
 6248W        W72679   4.831  13.592   0.535
 6249W        W72680  12.565   7.455  13.719
 6250W        W72681  11.723  35.212   0.925
 6251W        W72682  16.176  19.694  12.381
 6252W        W72683  16.132  43.152   5.065
 6253W        W72684   7.965  42.713   2.865
 6254W        W72685  19.571  27.621  11.099
 6255W        W72686  37.177  17.344   0.610
 6256W        W72687   6.879  40.845  13.765
 6257W        W72688  22.838   7.500  14.400
 6258W        W72689  27.969  38.552   2.308
 6259W        W72690   9.784   8.451   1.199
 6260W        W72691  13.124  16.168  12.048
 6261W        W72692  39.218  42.726  14.852
 6262W        W72693  36.328  34.579  14.329
 6263W        W72694  10.815  15.748  11.951
 6264W        W72695  19.072   0.437   1.063
 6265W        W72696  43.286  21.261   2.772
 6266W        W72697  39.430   8.098  14.912
 6267W        W72698  21.447   4.463  11.499
 6268W        W72699   3.337  33.109   1.888
 6269W        W72700  35.970  21.644   4.747
 6270W        W72701  23.103   2.887  11.977
 6271W        W72702   4.102   1.256   0.821
 6272W        W72703  20.944  17.628  10.284
 6273W        W72704  42.449  18.101   1.340
 6274W        W72705  30.075  19.619   1.663
 6275W        W72706   0.379  17.710  14.952
 6276W        W72707  16.070  41.158   3.905
 6277W        W72708  44.015  25.396  10.963
 6278W        W72709  22.420   0.796   3.319
 6279W        W72710   3.941  36.896   4.042
 6280W        W72711  34.546   9.842  11.500
 6281W        W72712  18.724  33.390   0.422
 6282W        W72713   4.857  31.357  12.836
 6283W        W72714  25.510  19.053  11.496
 6284W        W72715  10.094   3.436  10.636
 6285W        W72716  31.470   1.280   2.709
 6286W        W72717  24.474   7.240  12.915
 6287W        W72718  30.521  27.100  10.745
 6288W        W72719  28.631  40.517   0.534
 6289W        W72720  38.049   4.963   2.829
 6290W        W72721  25.482  34.347  10.975
 6291W        W72722  26.760  24.330   3.074
 6292W        W72723  25.255  33.469   3.364
 6293W        W72724  33.690  44.412  10.240
 6294W        W72725  21.127  23.172  14.891
 6295W        W72726  11.355  30.209   2.213
 6296W        W72727  26.584  29.579   0.003
 6297W        W72728  32.544  10.320  14.937
 6298W        W72729  29.219  44.010   0.739
 6299W        W72730  11.079  25.091   2.657
 6300W        W72731   2.126  41.349  13.569
 6301W        W72732   0.352  16.032  13.841
 6302W        W72733  20.180  18.165  13.879
 6303W        W72734  27.783  33.363   4.625
 6304W        W72735  16.260   6.262  11.470
 6305W        W72736  28.474  35.121   1.233
 6306W        W72737  43.270  26.004  11.065
 6307W        W72738  30.544  40.729  14.464
 6308W        W72739  24.677  28.483   1.339
 6309W        W72740  16.268  28.071   3.890
 6310W        W72741  15.141  37.479  10.905
 6311W        W72742  38.748  27.565  14.217
 6312W        W72743  17.556  36.189  10.712
 6313W        W72744   9.782  21.241  11.344
 6314W        W72745   5.388  40.812   2.775
 6315W        W72746  17.310  29.651   3.184
 6316W        W72747  31.139  11.905  11.042
 6317W        W72748  39.620  10.731   3.826
 6318W        W72749  24.015  42.178   1.638
 6319W        W72750  23.777  34.280   4.061
 6320W        W72751  28.756  25.098   0.241
 6321W        W72752  14.811  26.093   0.461
 6322W        W72753  33.491  38.555   4.544
 6323W        W72754  23.438  44.770   0.196
 6324W        W72755  17.974  27.720  12.260
 6325W        W72756  34.998  20.270  14.440
 6326W        W72757  26.478  14.735  11.202
 6327W        W72758  41.796   4.227   0.955
 6328W        W72759  37.107  40.853   0.289
 6329W        W72760   2.149   3.679  14.358
 6330W        W72761   6.410  11.808   1.408
 6331W        W72762  11.617  32.504  14.214
 6332W        W72763   2.831  23.932   2.586
 6333W        W72764   7.103  44.808  14.740
 6334W        W72765  21.078  28.087  10.636
 6335W        W72766   7.930  22.506   1.976
 6336W        W72767   4.392   6.434   3.405
 6337W        W72768  40.747  22.780  13.114
 6338W        W72769  28.242  29.600  12.870
 6339W        W72770  36.374  32.022  14.700
 6340W        W72771  25.534   7.812  13.507
 6341W        W72772  32.122  27.431   0.815
 6342W        W72773  42.524  14.296   1.850
 6343W        W72774  10.972  14.806   4.106
 6344W        W72775  24.318  38.051  12.948
 6345W        W72776   2.978  11.396   0.838
 6346W        W72777  26.188  44.207  11.569
 6347W        W72778   0.964  24.466   1.757
 6348W        W72779   3.448  22.702   1.185
 6349W        W72780   2.365  38.864   4.527
 6350W        W72781  29.462  35.104   3.864
 6351W        W72782   7.077  22.436  13.348
 6352W        W72783  10.957  26.867  14.499
 6353W        W72784   3.319  24.498  12.043
 6354W        W72785  20.074  18.869   4.200
 6355W        W72786  33.451  28.524  13.036
 6356W        W72787  40.418  29.417   4.683
 6357W        W72788  30.141  36.876  12.868
 6358W        W72789  38.892  27.824   4.836
 6359W        W72790  13.639  32.550   4.538
 6360W        W72791  17.845   7.747   4.568
 6361W        W72792  30.843   6.825  11.370
 6362W        W72793  14.129  40.508  13.757
 6363W        W72794  17.702   1.689  13.305
 6364W        W72795   7.661  26.183   4.612
 6365W        W72796  35.895  40.812  14.761
 6366W        W72797  22.009  20.073   4.523
 6367W        W72798  30.503  30.573   2.352
 6368W        W72799  11.574   2.974   0.824
 6369W        W72800  23.928  32.465   0.280
 6370W        W72801   6.710  39.908   3.909
 6371W        W72802  29.698  15.269  14.996
 6372W        W72803   9.601  37.912  13.992
 6373W        W72804  11.555  28.632   3.307
 6374W        W72805   4.223  42.234   4.306
 6375W        W72806  10.826  37.959  11.153
 6376W        W72807   2.247  32.407   2.880
 6377W        W72808  32.059  39.882   4.131
 6378W        W72809  28.375   1.191  11.776
 6379W        W72810   2.236  39.626   0.513
 6380W        W72811  24.448   9.421   3.061
 6381W        W72812  19.291   4.688   1.856
 6382W        W72813  20.936  25.823   0.563
 6383W        W72814  17.314   0.208  14.117
 6384W        W72815  41.358  15.326   4.306
 6385W        W72816  25.539  27.271   0.823
 6386W        W72817  39.410  33.071  12.611
 6387W        W72818  33.642  34.419   3.291
 6388W        W72819  36.621   3.063   4.142
 6389W        W72820  19.745  43.420   0.807
 6390W        W72821   2.585   6.056   0.338
 6391W        W72822  19.984  35.435   1.722
 6392W        W72823  14.180   9.307  11.145
 6393W        W72824  23.481  34.501  14.414
 6394W        W72825  31.968  30.420   1.751
 6395W        W72826  13.550  15.987   2.765
 6396W        W72827  18.736  32.120  10.043
 6397W        W72828  39.660  38.268   0.949
 6398W        W72829   2.884   0.042   0.028
 6399W        W72830  18.399  43.198   2.130
 6400W        W72831  11.104  31.567  13.854
 6401W        W72832  13.093  37.404   0.732
 6402W        W72833  26.322  37.245  10.836
 6403W        W72834   4.424  21.223   2.352
 6404W        W72835  29.255  27.562  12.457
 6405W        W72836  35.599  26.958   1.567
 6406W        W72837  38.824  42.697   1.548
 6407W        W72838   1.441   9.304  11.191
 6408W        W72839  22.092  24.964  14.788
 6409W        W72840  40.511  21.765  13.429
 6410W        W72841  30.251  25.655  11.880
 6411W        W72842  32.664  43.188  12.917
 6412W        W72843  39.068   1.055  13.881
 6413W        W72844  22.606  18.647  14.121
 6414W        W72845  35.553  22.608   2.157
 6415W        W72846  31.526  15.168  12.423
 6416W        W72847  39.860  12.330   0.020
 6417W        W72848  31.245  34.981  12.953
 6418W        W72849  10.595  41.303   3.651
 6419W        W72850  15.670  33.598   1.138
 6420W        W72851  32.931  13.760  14.397
 6421W        W72852  21.264  42.278   3.227
 6422W        W72853  17.640  24.012   0.898
 6423W        W72854  14.014  36.031  11.483
 6424W        W72855   7.457  35.075   2.207
 6425W        W72856  17.125  15.076   0.881
 6426W        W72857   4.450  11.230   4.200
 6427W        W72858   9.775  13.035   3.163
 6428W        W72859  29.130  18.074   3.551
 6429W        W72860  29.212   1.268  13.949
 6430W        W72861  17.714  20.425   1.758
 6431W        W72862  30.434   7.082   5.180
 6432W        W72863  28.044  30.366   4.947
 6433W        W72864  22.759   0.420  10.651
 6434W        W72865  30.644   1.627   3.747
 6435W        W72866  19.830  13.139   2.750
 6436W        W72867  41.024   0.307   1.744
 6437W        W72868  37.456  42.483  12.927
 6438W        W72869   7.108  32.660  11.182
 6439W        W72870   8.757   4.872   2.626
 6440W        W72871   1.018  16.726  14.858
 6441W        W72872  24.499  24.456  12.956
 6442W        W72873  17.632  16.646   3.795
 6443W        W72874   2.943   3.354   3.860
 6444W        W72875  37.885  34.561  12.341
 6445W        W72876  40.041  37.971  11.408
 6446W        W72877   4.618  33.892  14.967
 6447W        W72878   3.228  29.426   3.267
 6448W        W72879   1.158   8.866  12.486
 6449W        W72880   9.625   1.981  12.990
 6450W        W72881  23.620  21.128   0.882
 6451W        W72882   4.330  16.612   4.113
 6452W        W72883  36.901  16.429   4.131
 6453W        W72884  29.037  41.310  12.421
 6454W        W72885  30.969  11.863   2.315
 6455W        W72886  35.766  38.693  14.304
 6456W        W72887  11.724  30.141   3.633
 6457W        W72888  14.816  39.378  14.001
 6458W        W72889  44.190  36.188   2.213
 6459W        W72890  17.723  15.374  12.623
 6460W        W72891  31.382  19.206   0.408
 6461W        W72892  29.882   2.487   0.421
 6462W        W72893  20.100  37.239  12.637
 6463W        W72894   1.878  37.462   3.646
 6464W        W72895   5.813   4.172  11.628
 6465W        W72896  21.736  10.724   1.781
 6466W        W72897  40.890   7.066  14.330
 6467W        W72898  40.865   0.302  13.464
 6468W        W72899  42.730  33.113  11.127
 6469W        W72900  23.175  16.186   4.540
 6470W        W72901  22.684  25.245  13.235
 6471W        W72902  20.541   3.143   4.172
 6472W        W72903  26.471  14.666   3.011
 6473W        W72904  42.709  31.491   5.127
 6474W        W72905  42.343   5.207  11.175
 6475W        W72906  26.056  43.203  13.928
 6476W        W72907  37.828  30.484   2.939
 6477W        W72908  18.612  27.784   2.829
 6478W        W72909  25.778  13.599   0.279
 6479W        W72910  41.858  42.783   0.423
 6480W        W72911  40.336  38.344   2.262
 6481W        W72912  28.468   9.272   3.331
 6482W        W72913  40.008  18.013  11.187
 6483W        W72914  41.313  25.407   5.143
 6484W        W72915  26.248  27.479  14.606
 6485W        W72916  42.976  17.162  14.360
 6486W        W72917  27.647   1.776  14.314
 6487W        W72918  24.809  16.663  14.013
 6488W        W72919   7.313  38.371  10.390
 6489W        W72920  40.826  18.061   0.787
 6490W        W72921  11.722  12.780  11.832
 6491W        W72922   5.741  30.137   1.101
 6492W        W72923  37.795  40.996   4.664
 6493W        W72924  44.423  43.002   2.967
 6494W        W72925  13.946  38.502  14.496
 6495W        W72926  27.941  43.883   3.210
 6496W        W72927  19.244   2.420  12.481
 6497W        W72928   5.294  15.492  14.369
 6498W        W72929  28.157   4.434   3.379
 6499W        W72930   8.692   1.799   2.751
 6500W        W72931  13.674  35.970   0.963
 6501W        W72932  44.597  33.603   4.291
 6502W        W72933  21.050  29.707   5.469
 6503W        W72934  33.437  37.990   1.189
 6504W        W72935  25.178  12.227  11.841
 6505W        W72936   1.373  23.195  12.887
 6506W        W72937  16.121  31.070  10.742
 6507W        W72938  22.503  34.297   2.214
 6508W        W72939  17.593  15.030   2.616
 6509W        W72940   1.876  24.306   0.214
 6510W        W72941  13.893  32.137   0.527
 6511W        W72942   0.622  41.102   4.161
 6512W        W72943  22.509  44.466   0.319
 6513W        W72944  44.901  25.582   3.430
 6514W        W72945  17.990  31.621   0.463
 6515W        W72946  28.205   0.143   2.789
 6516W        W72947  37.848  28.186   3.916
 6517W        W72948  18.480  17.605   0.960
 6518W        W72949   5.736  20.482  13.740
 6519W        W72950   4.161  38.526   4.454
 6520W        W72951  29.927  41.871   3.283
 6521W        W72952  18.580  21.603   1.320
 6522W        W72953  29.762  37.271   3.770
 6523W        W72954   6.246  44.225  12.379
 6524W        W72955  38.982  29.951  14.076
 6525W        W72956  28.177  34.902  11.152
 6526W        W72957  18.332  18.124   0.906
 6527W        W72958  33.253   6.244  13.350
 6528W        W72959  34.129  20.925   3.583
 6529W        W72960  17.327   3.062   1.272
 6530W        W72961  35.385   5.307  10.836
 6531W        W72962  22.683  42.305   1.859
 6532W        W72963  29.939  14.331   4.604
 6533W        W72964  19.296  18.519  14.899
 6534W        W72965  12.714  11.260  13.285
 6535W        W72966  31.842  26.716  11.172
 6536W        W72967  14.144   7.737   0.856
 6537W        W72968  33.958  41.265  12.111
 6538W        W72969  43.843   5.177  13.871
 6539W        W72970  42.858  33.124   1.805
 6540W        W72971  15.717  40.560  12.989
 6541W        W72972   9.149  16.754   2.633
 6542W        W72973  38.552   9.199  13.444
 6543W        W72974  34.975  20.792   3.298
 6544W        W72975  38.758  10.864   1.126
 6545W        W72976  25.674  13.443  14.418
 6546W        W72977  35.179  38.113  14.696
 6547W        W72978   0.535  42.110  13.508
 6548W        W72979  43.402  13.857  12.482
 6549W        W72980  25.973  11.918  14.872
 6550W        W72981  37.853  11.114   2.393
 6551W        W72982   6.105  19.809  12.942
 6552W        W72983  33.017  24.105   4.103
 6553W        W72984  42.804   2.234   4.085
 6554W        W72985   7.708  37.760  12.004
 6555W        W72986  19.166  10.771   0.771
 6556W        W72987   6.612  24.247   1.316
 6557W        W72988  36.852  18.993   2.189
 6558W        W72989  17.823  32.898  10.753
 6559W        W72990  43.366  15.174  11.205
 6560W        W72991  13.789  15.098  10.608
 6561W        W72992  29.321  33.988  13.089
 6562W        W72993  13.263  32.050  14.646
 6563W        W72994  40.392  13.806   4.265
 6564W        W72995  40.273  18.007  11.921
 6565W        W72996  43.161  43.029  13.900
 6566W        W72997  26.622  21.184   3.129
 6567W        W72998  25.210   2.264  12.916
 6568W        W72999  16.642  34.920  13.621
 6569W        W73000  40.068  22.596  11.695
 6570W        W73001  44.513   7.000  12.210
 6571W        W73002   3.425  37.542   4.085
 6572W        W73003  28.413  23.732  13.627
 6573W        W73004  11.168   2.380  11.598
 6574W        W73005   3.947  21.111   1.770
 6575W        W73006  19.465  36.933   2.339
 6576W        W73007  17.110   0.938  11.210
 6577W        W73008  23.659  24.442  11.546
 6578W        W73009  26.982  16.188   4.138
 6579W        W73010  32.146  37.365   1.348
 6580W        W73011  35.171  19.794   3.135
 6581W        W73012  30.952  35.581  14.265
 6582W        W73013  14.203  17.730  14.825
 6583W        W73014  38.660  18.580  12.386
 6584W        W73015  37.847  27.744  12.645
 6585W        W73016  18.400  36.238  13.450
 6586W        W73017  35.294  15.539   2.908
 6587W        W73018  20.402   1.889   4.958
 6588W        W73019   9.082   9.205   4.173
 6589W        W73020  33.902  31.369   1.883
 6590W        W73021  32.100  20.335   4.681
 6591W        W73022  19.722  33.169   2.517
 6592W        W73023  41.954  35.239  10.597
 6593W        W73024  13.575  17.855  11.155
 6594W        W73025   8.155  39.289   4.740
 6595W        W73026  25.165   2.813   2.286
 6596W        W73027  33.935  21.467   0.393
 6597W        W73028  16.094  37.957   0.354
 6598W        W73029  17.637  16.299  13.993
 6599W        W73030  24.112  40.003   0.967
 6600W        W73031  16.673  13.191   3.591
 6601W        W73032   0.670  43.295  10.690
 6602W        W73033  41.908  26.238   5.063
 6603W        W73034  20.203  31.412  14.889
 6604W        W73035  42.020  32.118  13.925
 6605W        W73036   7.309   9.246  11.305
 6606W        W73037  41.255  34.527  12.054
 6607W        W73038  31.112  29.648   2.244
 6608W        W73039   4.470  18.124   4.105
 6609W        W73040  41.499  30.697   4.218
 6610W        W73041  40.052  39.856   0.301
 6611W        W73042  30.582  11.100   2.040
 6612W        W73043  30.510  25.670   3.355
 6613W        W73044  44.356  20.402   3.639
 6614W        W73045  10.265  21.355  12.739
 6615W        W73046  14.173   0.693   0.735
 6616W        W73047  18.137  30.479   0.307
 6617W        W73048   7.246  12.033  11.053
 6618W        W73049  30.178  24.017   2.291
 6619W        W73050  16.974  26.242  12.376
 6620W        W73051  23.572  18.195   3.535
 6621W        W73052  35.088  10.835  12.915
 6622W        W73053   2.229  18.773   1.741
 6623W        W73054  14.138  35.251   1.122
 6624W        W73055  30.033  30.552   1.686
 6625W        W73056  38.318   8.605   3.244
 6626W        W73057   9.357  24.205   1.361
 6627W        W73058  30.435   8.004  11.569
 6628W        W73059  10.011  19.766  13.895
 6629W        W73060  37.823   6.322  14.424
 6630W        W73061  22.905  32.901   1.907
 6631W        W73062  20.665  41.292  14.780
 6632W        W73063  26.575  28.973  10.692
 6633W        W73064  12.700   6.653   1.865
 6634W        W73065   2.368  14.467   1.731
 6635W        W73066  42.610  20.540   4.169
 6636W        W73067  11.721   4.446  14.134
 6637W        W73068  23.649  27.708  14.771
 6638W        W73069   3.279  24.242  12.496
 6639W        W73070  27.437  18.009  12.565
 6640W        W73071  22.440  33.520   0.255
 6641W        W73072  35.591  23.955  11.578
 6642W        W73073  44.246  20.968   0.798
 6643W        W73074  36.072  36.945   5.105
 6644W        W73075  42.688  41.912   4.102
 6645W        W73076   9.209   1.874  12.420
 6646W        W73077  38.842  14.805  10.001
 6647W        W73078   4.389  43.952  14.654
 6648W        W73079  39.900  15.848   3.709
 6649W        W73080  20.767  41.727   3.590
 6650W        W73081  20.500  30.744   3.651
 6651W        W73082  24.716  32.458   2.794
 6652W        W73083  24.374  35.660   1.195
 6653W        W73084   3.500  22.995   4.247
 6654W        W73085  36.954  36.591  14.525
 6655W        W73086  21.741   3.789  10.731
 6656W        W73087  37.939  27.859  14.373
 6657W        W73088  15.076  22.840   5.225
 6658W        W73089  20.326   3.930  11.326
 6659W        W73090  21.224  12.659  12.485
 6660W        W73091  26.358  25.574   4.355
 6661W        W73092  32.344  12.259   1.400
 6662W        W73093   1.921  32.975   2.764
 6663W        W73094  43.000  29.242   4.207
 6664W        W73095   3.028  42.863   2.825
 6665W        W73096  37.916   1.483   4.704
 6666W        W73097  11.325  30.434   3.784
 6667W        W73098  36.914  42.363  11.679
 6668W        W73099  29.689  41.374  14.316
 6669W        W73100   3.176  23.477  12.864
 6670W        W73101  43.233  31.455   4.351
 6671W        W73102  44.553   7.596  14.676
 6672W        W73103  10.428  21.609   1.442
 6673W        W73104  37.041   3.357   4.337
 6674W        W73105  37.925  41.388   1.406
 6675W        W73106  42.475  41.692   2.218
 6676W        W73107  27.079  44.293  11.677
 6677W        W73108  33.848  41.227   5.453
 6678W        W73109  11.385  13.844  13.422
 6679W        W73110  32.963   4.795   3.485
 6680W        W73111  24.300  20.788  13.752
 6681W        W73112  37.094  19.655   0.681
 6682W        W73113  31.602   9.666  13.453
 6683W        W73114  14.712  20.949  12.257
 6684W        W73115   9.092  37.934   3.309
 6685W        W73116  35.088   5.739   2.771
 6686W        W73117  36.041  37.141  14.926
 6687W        W73118  15.766  28.538   2.118
 6688W        W73119  18.134  11.304  12.449
 6689W        W73120  30.719   5.280   0.845
 6690W        W73121  15.114  36.320   3.685
 6691W        W73122  10.198  11.367   1.140
 6692W        W73123   9.384  27.556   3.210
 6693W        W73124  15.020  38.421   1.491
 6694W        W73125  40.700  15.289  11.713
 6695W        W73126  14.735  14.696  13.634
 6696W        W73127  20.226  11.826  12.758
 6697W        W73128  43.910  23.821  12.807
 6698W        W73129   4.549  17.883  11.174
 6699W        W73130  12.900   4.951   1.856
 6700W        W73131  39.871  12.220  13.008
 6701W        W73132  32.720  18.296   1.792
 6702W        W73133  36.879  24.839  10.499
 6703W        W73134  37.624  40.962  13.389
 6704W        W73135  35.362  43.003  13.259
 6705W        W73136  20.990   8.039  11.228
 6706W        W73137  20.635  38.635  13.812
 6707W        W73138  39.654  36.968  11.569
 6708W        W73139   8.294  30.426   0.825
 6709W        W73140  32.002  28.406  10.768
 6710W        W73141  22.516  19.067   1.725
 6711W        W73142  41.310  36.343   4.458
 6712W        W73143   1.299  35.350  12.574
 6713W        W73144  16.770  20.267   4.357
 6714W        W73145  17.321   3.615  14.545
 6715W        W73146   3.686  24.860  12.078
 6716W        W73147  37.424  39.437  11.274
 6717W        W73148  28.334  10.165   3.129
 6718W        W73149   6.386  39.920  14.292
 6719W        W73150   1.225  31.931   3.045
 6720W        W73151   5.811  13.380  14.731
 6721W        W73152  10.754  30.211  13.103
 6722W        W73153  36.420  22.856  10.161
 6723W        W73154  26.756  30.173   0.818
 6724W        W73155  37.917   7.946   2.762
 6725W        W73156  35.952  42.433   3.850
 6726W        W73157  31.757   8.373  13.801
 6727W        W73158  20.701  42.382   4.079
 6728W        W73159  16.843  38.336  12.842
 6729W        W73160  36.627  32.321  12.148
 6730W        W73161   6.997  31.968   4.567
 6731W        W73162  19.841   4.847   2.645
 6732W        W73163  30.709  11.732   1.845
 6733W        W73164  26.112   6.950   0.167
 6734W        W73165  28.484  32.946  13.889
 6735W        W73166   1.509  21.216   0.457
 6736W        W73167  17.232  28.072  11.963
 6737W        W73168  27.207  19.041  10.657
 6738W        W73169   4.234  26.225  10.772
 6739W        W73170  30.876  29.517   4.771
 6740W        W73171   5.092   9.257  14.867
 6741W        W73172   6.945  27.693   3.171
 6742W        W73173   2.476   7.414   4.535
 6743W        W73174  25.255  23.055   3.179
 6744W        W73175  34.446  21.471   0.581
 6745W        W73176  43.266  42.580   1.460
 6746W        W73177  11.143  19.775  12.150
 6747W        W73178  19.705   5.992  14.007
 6748W        W73179  28.915  38.863   1.213
 6749W        W73180  21.763  34.183  10.749
 6750W        W73181   7.230  29.098   3.520
 6751W        W73182   7.791  29.191   2.805
 6752W        W73183   8.260  10.234  10.421
 6753W        W73184  10.169  33.522   1.687
 6754W        W73185  12.784  11.165  14.658
 6755W        W73186  24.956  34.077  14.894
 6756W        W73187  16.002  13.822   1.339
 6757W        W73188  40.195  34.621   3.189
 6758W        W73189  36.408   4.423  11.957
 6759W        W73190  32.854   4.866   1.956
 6760W        W73191  42.556  28.709   2.729
 6761W        W73192  17.653   7.346  10.489
 6762W        W73193   4.328  14.371  14.252
 6763W        W73194  35.624  42.004  13.952
 6764W        W73195   6.219  14.745   0.693
 6765W        W73196   0.378   5.619  12.024
 6766W        W73197  36.980  39.949  14.681
 6767W        W73198  35.601  20.067   3.207
 6768W        W73199  43.007  14.561   2.763
 6769W        W73200   6.997  35.189   0.885
 6770W        W73201  32.525  16.721  13.021
 6771W        W73202  42.263  43.775   3.280
 6772W        W73203   5.084  37.786  10.639
 6773W        W73204  39.073   0.911  11.985
 6774W        W73205  27.626  23.667   1.697
 6775W        W73206   9.966  34.408  14.867
 6776W        W73207  20.332   1.682   3.618
 6777W        W73208  28.926  41.511  11.037
 6778W        W73209  21.456   3.219  12.302
 6779W        W73210   6.782  37.773  11.002
 6780W        W73211  43.374   7.104  10.290
 6781W        W73212  19.515  29.049   1.081
 6782W        W73213  37.658   0.717  10.578
 6783W        W73214  36.178  43.884  12.136
 6784W        W73215  24.663  43.576  11.407
 6785W        W73216  41.683  16.390  12.026
 6786W        W73217  35.177  33.401   2.379
 6787W        W73218  34.940  22.522   0.277
 6788W        W73219  42.506  42.204   2.127
 6789W        W73220   9.297  32.422  14.362
 6790W        W73221  31.294   8.798  11.267
 6791W        W73222   6.421  21.265   0.808
 6792W        W73223  41.404  31.873   4.793
 6793W        W73224  40.971  33.228   1.691
 6794W        W73225  16.786  15.849   1.385
 6795W        W73226  32.177  27.857   4.253
 6796W        W73227  22.753  28.350  10.702
 6797W        W73228  32.510   5.595  14.611
 6798W        W73229   9.408  39.998   1.266
 6799W        W73230  20.736  18.487  13.812
 6800W        W73231  20.619  20.201   1.764
 6801W        W73232  28.609  41.614   4.128
 6802W        W73233   0.174  21.509   1.809
 6803W        W73234  32.590  30.999  12.447
 6804W        W73235   1.232   7.901   1.720
 6805W        W73236   8.516  30.229  11.352
 6806W        W73237  23.437  28.593   5.417
 6807W        W73238  35.431  34.404  14.683
 6808W        W73239  40.859  44.310   4.482
 6809W        W73240  40.073  44.770   1.295
 6810W        W73241  12.330  13.469   4.650
 6811W        W73242  29.686  35.415   3.498
 6812W        W73243  37.621  17.219  12.747
 6813W        W73244  37.611   1.918   0.278
 6814W        W73245  27.616   1.972   4.006
 6815W        W73246  14.267   7.287   1.112
 6816W        W73247   5.938  14.568  13.068
 6817W        W73248   3.682  19.554   5.062
 6818W        W73249  10.630  35.678  13.611
 6819W        W73250  18.245  43.296  14.901
 6820W        W73251  27.422  34.335  12.078
 6821W        W73252  31.598  26.712   4.065
 6822W        W73253  13.681  26.796   2.809
 6823W        W73254  33.788   1.917   0.671
 6824W        W73255  23.428  10.209   1.792
 6825W        W73256  39.259  20.684   4.518
 6826W        W73257  12.025   4.584   4.135
 6827W        W73258  41.819  31.137   1.260
 6828W        W73259  35.527  30.498  13.515
 6829W        W73260  26.559  35.049  13.847
 6830W        W73261   9.634  40.698  14.336
 6831W        W73262  10.697  38.585  12.134
 6832W        W73263   8.693  40.749  13.865
 6833W        W73264  10.811  10.441   2.442
 6834W        W73265  21.753   9.857   0.019
 6835W        W73266  22.354  28.238   1.501
 6836W        W73267  34.646  35.401  14.222
 6837W        W73268  10.712  28.177   3.837
 6838W        W73269  29.413   0.969   4.023
 6839W        W73270  30.287  35.517   4.845
 6840W        W73271  36.628  12.597  10.415
 6841W        W73272  42.042  43.233   0.228
 6842W        W73273  18.208  27.434  11.270
 6843W        W73274   4.991  35.814   4.492
 6844W        W73275  36.517   5.833   0.228
 6845W        W73276  14.655   8.258  13.472
 6846W        W73277   2.342  16.744   1.899
 6847W        W73278  20.646   5.656  14.070
 6848W        W73279   5.059  10.272  14.641
 6849W        W73280  37.885  29.532   4.034
 6850W        W73281  29.712  11.266  11.042
 6851W        W73282   0.345  32.682  13.557
 6852W        W73283  17.028  34.471   1.322
 6853W        W73284   3.158  38.891   0.852
 6854W        W73285   8.286   6.140   4.666
 6855W        W73286  26.509  10.856   1.469
 6856W        W73287   4.305  26.570  12.456
 6857W        W73288  33.000  22.517  11.085
 6858W        W73289   4.496  15.723   0.398
 6859W        W73290  32.974  34.035   0.935
 6860W        W73291  16.776   0.694   4.819
 6861W        W73292  34.613  25.759   2.911
 6862W        W73293  21.053  33.136   0.305
 6863W        W73294   6.789  36.139   0.818
 6864W        W73295  14.637  25.570   9.825
 6865W        W73296  34.559   8.108   3.794
 6866W        W73297  18.583  15.811  12.158
 6867W        W73298   3.094  25.206   2.428
 6868W        W73299  37.746   9.105   1.887
 6869W        W73300   9.246  15.574  12.423
 6870W        W73301  15.195   7.113   3.255
 6871W        W73302   0.703  12.632  12.444
 6872W        W73303   5.412   3.754  13.107
 6873W        W73304  16.230   2.962  14.504
 6874W        W73305   2.927  36.026   4.176
 6875W        W73306  43.861  17.588  10.821
 6876W        W73307  38.424  16.729  12.336
 6877W        W73308  30.038  17.594  14.366
 6878W        W73309  31.083  33.887  13.495
 6879W        W73310  43.899  34.442  14.888
 6880W        W73311  13.299  20.184  12.191
 6881W        W73312  35.588  28.148  12.503
 6882W        W73313  26.089  35.639   0.960
 6883W        W73314  39.915   1.656  11.012
 6884W        W73315  28.547   5.276   3.100
 6885W        W73316   4.910  42.082   0.415
 6886W        W73317  39.302   1.406   4.515
 6887W        W73318  10.672  29.192   1.915
 6888W        W73319   8.802  35.362   4.547
 6889W        W73320  30.987  40.793   0.973
 6890W        W73321   8.342  32.925   2.289
 6891W        W73322   0.887  38.521  13.089
 6892W        W73323  18.225   0.132   3.618
 6893W        W73324   7.902  20.360   0.359
 6894W        W73325  12.234  40.369   4.159
 6895W        W73326  16.608  23.242   2.582
 6896W        W73327  34.077  34.379   4.727
 6897W        W73328  23.179   0.402   0.336
 6898W        W73329  11.443  37.502  12.145
 6899W        W73330   1.027  19.067   2.808
 6900W        W73331  33.941   9.218  13.883
 6901W        W73332  31.620  28.203  11.532
 6902W        W73333  12.814  28.636   1.105
 6903W        W73334  17.684  14.603   3.391
 6904W        W73335   7.855   0.221  10.632
 6905W        W73336  39.856  25.537   0.434
 6906W        W73337  21.421  15.067  11.580
 6907W        W73338  20.519  21.054  11.162
 6908W        W73339  16.787  24.879   4.122
 6909W        W73340   9.675   3.390   2.319
 6910W        W73341  20.595  41.946   4.372
 6911W        W73342  44.640  26.391   4.646
 6912W        W73343   9.712  44.826   4.248
 6913W        W73344  27.100   3.215  13.401
 6914W        W73345  11.876  39.218   0.707
 6915W        W73346   6.880  36.000   2.716
 6916W        W73347  30.335   5.010  12.570
 6917W        W73348  21.958  23.311   2.153
 6918W        W73349   3.311  35.569  11.177
 6919W        W73350  17.703  37.505  11.504
 6920W        W73351  13.237  26.171  12.867
 6921W        W73352  13.674  12.789   1.567
 6922W        W73353   0.144   0.589  11.612
 6923W        W73354   8.637  13.235  12.595
 6924W        W73355  32.106  20.560  12.645
 6925W        W73356  38.990   7.394  14.203
 6926W        W73357  27.530   4.439   1.839
 6927W        W73358  27.536  37.032   1.965
 6928W        W73359   6.216  44.500  13.776
 6929W        W73360   9.247  32.548  11.695
 6930W        W73361  38.046  30.145   3.250
 6931W        W73362   9.182  25.494   4.106
 6932W        W73363  16.299  16.779  12.856
 6933W        W73364  38.183  43.793  13.985
 6934W        W73365  25.155  31.887   0.026
 6935W        W73366  19.516  23.160  11.750
 6936W        W73367  33.460   5.753   1.625
 6937W        W73368  15.583  22.429   4.107
 6938W        W73369  25.461  34.510   2.747
 6939W        W73370  30.100   6.401   3.425
 6940W        W73371  25.685   4.098   5.067
 6941W        W73372  36.169  22.817  14.979
 6942W        W73373   1.790  38.407   2.836
 6943W        W73374  17.095  36.616  11.530
 6944W        W73375  39.880  37.543   3.241
 6945W        W73376   6.398  39.351  13.251
 6946W        W73377  27.096   0.543  14.994
 6947W        W73378  32.325  34.890   4.217
 6948W        W73379  22.491  41.506   5.176
 6949W        W73380  26.152  19.215   0.843
 6950W        W73381   9.387  16.116   1.880
 6951W        W73382   7.794  10.197   0.681
 6952W        W73383   8.736   6.327  13.659
 6953W        W73384  31.515  42.855   4.071
 6954W        W73385  18.136   3.382   2.201
 6955W        W73386  34.509  43.671   2.911
 6956W        W73387   4.368  23.987  14.130
 6957W        W73388  44.178  28.080   0.796
 6958W        W73389  30.005  23.946   3.244
 6959W        W73390  13.499  30.644  13.842
 6960W        W73391  37.191  23.604  11.168
 6961W        W73392  33.902  14.770  12.405
 6962W        W73393  20.868  17.762   2.223
 6963W        W73394  28.709   4.376  14.749
 6964W        W73395   0.259  26.636   1.149
 6965W        W73396  10.654  21.481   2.341
 6966W        W73397  38.351  24.932   1.873
 6967W        W73398  41.831  18.275  11.072
 6968W        W73399   7.506  38.002   1.931
 6969W        W73400  28.747  34.895   3.273
 6970W        W73401  41.827  36.631   3.841
 6971W        W73402   5.720  34.964  14.964
 6972W        W73403  31.998  38.818   0.858
 6973W        W73404  20.818  36.756   1.706
 6974W        W73405  39.328  40.793  12.443
 6975W        W73406  25.453  20.481  13.996
 6976W        W73407  42.325  19.063   4.012
 6977W        W73408  23.046   8.872  13.041
 6978W        W73409   1.916  13.154  13.085
 6979W        W73410  19.260   8.951   3.867
 6980W        W73411   7.913   5.257   2.743
 6981W        W73412  30.905   4.643   0.348
 6982W        W73413  22.852  43.569   3.627
 6983W        W73414  37.889  28.990  11.687
 6984W        W73415  21.726   8.271   4.591
 6985W        W73416   7.074  34.488   2.679
 6986W        W73417  21.606   4.421   4.560
 6987W        W73418   4.264  38.466   1.043
 6988W        W73419  23.452  15.456  10.632
 6989W        W73420  39.033  20.683   3.183
 6990W        W73421   9.590   4.867  14.317
 6991W        W73422  32.396   7.193  12.618
 6992W        W73423  42.392   8.905   2.880
 6993W        W73424  13.088   2.291  12.703
 6994W        W73425  18.000  37.780   3.619
 6995W        W73426  12.930  34.000   4.593
 6996W        W73427  31.067  39.467   3.310
 6997W        W73428  43.942   3.799  10.984
 6998W        W73429  41.289   6.669   1.904
 6999W        W73430  25.136  28.111   2.854
 7000W        W73431   4.850  40.005  12.504
 7001W        W73432  22.507  41.983   4.904
 7002W        W73433   2.485  25.064   0.897
 7003W        W73434  21.332   3.459  14.060
 7004W        W73435   7.928  22.103   2.349
 7005W        W73436   3.475  25.730  12.476
 7006W        W73437  29.219  42.987   4.642
 7007W        W73438   6.350  26.366  12.035
 7008W        W73439  10.927  18.393  10.573
 7009W        W73440  18.490  43.587   4.500
 7010W        W73441  43.689   7.326   2.919
 7011W        W73442  11.433  42.842  11.454
 7012W        W73443   6.274  30.184   4.913
 7013W        W73444  26.039  12.148  14.385
 7014W        W73445  31.112  22.172  12.113
 7015W        W73446  11.125   8.981  11.384
 7016W        W73447  18.717   7.944   1.470
 7017W        W73448   1.528  19.627   0.946
 7018W        W73449  26.658  18.359   4.507
 7019W        W73450  35.048  42.355   3.915
 7020W        W73451  20.666   2.225  14.098
 7021W        W73452   4.730   4.488   2.328
 7022W        W73453   3.438  23.711   0.371
 7023W        W73454  29.285  11.587   1.822
 7024W        W73455  28.077  43.447   4.488
 7025W        W73456  19.182  30.439  12.549
 7026W        W73457  42.601  20.700  12.034
 7027W        W73458   9.497  28.207   1.783
 7028W        W73459  35.487  32.392   4.581
 7029W        W73460  12.821  21.251  11.005
 7030W        W73461  30.919  28.823   0.864
 7031W        W73462   3.052   4.851   3.516
 7032W        W73463  29.554  24.183  13.404
 7033W        W73464  31.887  14.209  13.912
 7034W        W73465   8.057  30.650  12.638
 7035W        W73466  23.567  12.640  13.359
 7036W        W73467  29.871  31.004   1.908
 7037W        W73468   8.185  10.247  14.897
 7038W        W73469   7.080  15.349  11.932
 7039W        W73470  14.358   9.744   0.257
 7040W        W73471  32.572  40.794   3.108
 7041W        W73472  38.867  17.991  11.608
 7042W        W73473   5.312  36.810  11.478
 7043W        W73474   7.124  27.604  11.013
 7044W        W73475  31.063   0.311   0.751
 7045W        W73476  23.099  37.812   3.603
 7046W        W73477  33.074  13.091  10.728
 7047W        W73478  24.234  17.231  11.029
 7048W        W73479  36.462  14.878   3.243
 7049W        W73480  37.815  12.596   4.958
 7050W        W73481   0.486   0.771  12.792
 7051W        W73482  41.798   6.895   0.081
 7052W        W73483  41.840   3.036  13.589
 7053W        W73484   5.134   2.262   4.467
 7054W        W73485  27.130  21.073   2.763
 7055W        W73486  19.793  10.964   3.245
 7056W        W73487  33.212  15.076   0.307
 7057W        W73488  14.632  42.879   1.044
 7058W        W73489  38.641  38.965  14.351
 7059W        W73490  24.286  16.791  13.588
 7060W        W73491  44.031   4.249   4.310
 7061W        W73492  37.170   6.297  10.660
 7062W        W73493  35.939   3.323  13.855
 7063W        W73494  12.159  19.561   0.137
 7064W        W73495  26.011   9.189  13.423
 7065W        W73496  14.052  16.635   4.966
 7066W        W73497  22.988   7.144   0.822
 7067W        W73498  23.504  22.058  10.327
 7068W        W73499  30.977  32.847  13.589
 7069W        W73500  31.915   5.004   2.741
 7070W        W73501  33.218   9.876   0.829
 7071W        W73502  37.578  17.129  10.935
 7072W        W73503  32.537  40.552  13.512
 7073W        W73504  43.623  16.724   3.229
 7074W        W73505  36.306  18.295   2.249
 7075W        W73506  32.547   7.379   2.307
 7076W        W73507   7.868   7.724   1.922
 7077W        W73508  33.346  31.222   1.381
 7078W        W73509  23.622  14.744   2.384
 7079W        W73510  21.783   4.966   4.613
 7080W        W73511  20.202  33.407  11.993
 7081W        W73512  43.754  16.472  13.890
 7082W        W73513   2.019  23.474   4.475
 7083W        W73514   2.044  37.006  11.182
 7084W        W73515  25.994  34.309   0.400
 7085W        W73516  42.275   2.530   2.776
 7086W        W73517   5.370  19.634   1.721
 7087W        W73518  28.024  26.077  14.549
 7088W        W73519  40.767  43.500   2.033
 7089W        W73520  13.253  12.670   1.840
 7090W        W73521  39.245  14.052   2.496
 7091W        W73522   4.905  41.636   4.130
 7092W        W73523  29.666  34.920   2.692
 7093W        W73524   5.423  14.633   4.557
 7094W        W73525  39.218  17.234  13.363
 7095W        W73526  14.656  32.651  12.637
 7096W        W73527  28.013  40.062  11.607
 7097W        W73528  23.185  22.769   4.174
 7098W        W73529  27.515  19.540  10.574
 7099W        W73530  25.157  44.990  14.990
 7100W        W73531   0.234  11.663   1.500
 7101W        W73532  39.893  20.746  11.996
 7102W        W73533  14.072   1.697  14.454
 7103W        W73534   4.359   5.411  14.780
 7104W        W73535  42.413  35.368   1.955
 7105W        W73536  11.412  35.889   3.645
 7106W        W73537  16.974  23.887  11.126
 7107W        W73538  18.057  26.993  11.494
 7108W        W73539  23.130  36.304  13.863
 7109W        W73540   9.956  38.414  12.991
 7110W        W73541  10.247  43.879   1.398
 7111W        W73542   7.925  33.547  13.760
 7112W        W73543  24.451  37.478  12.981
 7113W        W73544  20.082  21.291   0.327
 7114W        W73545  32.517  14.462   3.026
 7115W        W73546  43.777   6.753   1.898
 7116W        W73547  21.979  24.604   2.296
 7117W        W73548  34.601  27.714  14.740
 7118W        W73549  41.124  42.373   4.831
 7119W        W73550  12.604  19.052   0.911
 7120W        W73551  42.442  24.185   1.477
 7121W        W73552   4.446  35.131  13.524
 7122W        W73553   0.809  29.576  11.559
 7123W        W73554  11.209  36.134  12.425
 7124W        W73555  18.709   9.177   3.202
 7125W        W73556  43.712  40.880   0.542
 7126W        W73557  23.655  12.707   0.184
 7127W        W73558  11.412  38.373   0.466
 7128W        W73559  38.915  26.231   4.063
 7129W        W73560   1.185  13.308   0.738
 7130W        W73561  27.846  17.964  13.469
 7131W        W73562  41.238  39.959   5.404
 7132W        W73563   5.663  23.746  11.191
 7133W        W73564  21.245  14.972   0.571
 7134W        W73565  16.723  34.449   0.875
 7135W        W73566  30.165  32.145  13.997
 7136W        W73567  41.320  38.294   0.390
 7137W        W73568  15.200  15.344  11.739
 7138W        W73569  13.634   0.567   2.926
 7139W        W73570  26.959   1.112  11.858
 7140W        W73571  14.701  14.680   2.384
 7141W        W73572  42.612  36.511  11.657
 7142W        W73573   6.241  22.519   0.865
 7143W        W73574   3.195   9.366  13.951
 7144W        W73575  20.694  18.071   5.011
 7145W        W73576   2.819  19.512   0.295
 7146W        W73577  36.463  25.699   0.409
 7147W        W73578  18.120  24.569   3.864
 7148W        W73579  34.694  34.020  14.712
 7149W        W73580   7.652  32.149  12.144
 7150W        W73581  23.570  24.124  14.930
 7151W        W73582  29.210  39.405   4.138
 7152W        W73583   7.277  26.329  12.846
 7153W        W73584  40.919  31.762   0.424
 7154W        W73585  26.380  33.569   1.955
 7155W        W73586  21.976  20.281  10.288
 7156W        W73587  28.081  25.851   0.388
 7157W        W73588  21.188  33.385  14.873
 7158W        W73589  33.356   4.311  11.844
 7159W        W73590  28.766  23.453  13.370
 7160W        W73591  16.022   8.096   2.718
 7161W        W73592  33.778  24.892  14.781
 7162W        W73593  21.411   3.218  14.748
 7163W        W73594  41.962  27.143   2.318
 7164W        W73595  13.707   7.848  11.953
 7165W        W73596  12.293  20.483  14.845
 7166W        W73597  22.207  34.447  13.635
 7167W        W73598  28.943  28.148  12.600
 7168W        W73599   4.916  21.069  13.763
 7169W        W73600  22.171   9.674   2.668
 7170W        W73601  10.297  37.445  13.395
 7171W        W73602  12.193  12.338   1.303
 7172W        W73603  23.032   9.639   1.672
 7173W        W73604  30.546  34.346   4.020
 7174W        W73605  14.666  27.517  14.403
 7175W        W73606   3.330   3.282   2.075
 7176W        W73607  15.830  10.352   2.298
 7177W        W73608  34.466  26.557   3.365
 7178W        W73609  30.749  29.934   3.135
 7179W        W73610   6.253  13.160   1.407
 7180W        W73611  27.449  35.627  12.921
 7181W        W73612   9.334  24.641  12.942
 7182W        W73613   8.663  27.077  13.434
 7183W        W73614  34.604  17.108   4.524
 7184W        W73615   6.846   1.760   4.622
 7185W        W73616  17.727   7.449  12.450
 7186W        W73617   0.187  15.038   0.350
 7187W        W73618  36.766  35.194  11.211
 7188W        W73619  35.870   7.204   0.423
 7189W        W73620  32.387  38.774  11.863
 7190W        W73621  39.365  44.211   3.722
 7191W        W73622  42.828   7.373   0.944
 7192W        W73623  41.605  18.087  10.632
 7193W        W73624  31.228  31.003   2.200
 7194W        W73625  13.228   3.251  13.217
 7195W        W73626  14.736  34.024   1.915
 7196W        W73627  44.975  28.104   0.382
 7197W        W73628  31.883  21.947  12.966
 7198W        W73629  41.746  28.699   3.188
 7199W        W73630   4.765   0.129  12.267
 7200W        W73631   4.469  13.685   1.299
 7201W        W73632  32.638   8.806  10.653
 7202W        W73633  11.094  33.275  10.974
 7203W        W73634  34.637   9.856  14.793
 7204W        W73635  20.866  44.549  12.071
 7205W        W73636  21.466  41.580  11.572
 7206W        W73637   3.464  17.290   3.744
 7207W        W73638   2.171  37.420  14.345
 7208W        W73639  32.202  36.436   1.333
 7209W        W73640   7.246   1.403   0.537
 7210W        W73641  22.175  35.389   4.388
 7211W        W73642  15.451   5.979   2.076
 7212W        W73643  40.366  18.622   0.299
 7213W        W73644  33.654   8.797   1.967
 7214W        W73645   9.454   8.209  14.408
 7215W        W73646  17.963  44.775   0.525
 7216W        W73647   0.906  19.434  14.827
 7217W        W73648  34.535   7.776   1.446
 7218W        W73649   4.849  19.540  10.801
 7219W        W73650  26.468  19.277   4.230
 7220W        W73651   5.878   3.847  12.915
 7221W        W73652  21.517  34.699  14.770
 7222W        W73653  35.172  13.805   0.759
 7223W        W73654  39.554  39.872   4.943
 7224W        W73655  41.866  22.263   0.336
 7225W        W73656  40.899  40.041  12.632
 7226W        W73657  15.364   5.187   2.312
 7227W        W73658  12.444  34.792   2.258
 7228W        W73659  39.655  44.309  13.446
 7229W        W73660  16.548  36.537   0.288
 7230W        W73661   6.476  30.936   2.925
 7231W        W73662  12.345  19.732   3.594
 7232W        W73663  41.241  32.072  14.220
 7233W        W73664  37.333  19.154   2.281
 7234W        W73665  13.882  39.454  12.016
 7235W        W73666  27.208  36.221  13.492
 7236W        W73667  34.121  25.613   3.623
 7237W        W73668  41.339  31.481   0.294
 7238W        W73669   9.790   1.069  13.413
 7239W        W73670   6.734  39.195  11.976
 7240W        W73671  38.118  29.843   1.417
 7241W        W73672  19.995  39.745  12.549
 7242W        W73673   1.800  36.569  13.371
 7243W        W73674  36.617  16.961  11.047
 7244W        W73675  35.037  26.550   0.773
 7245W        W73676  23.898  14.606  13.422
 7246W        W73677   3.871  24.650   2.939
 7247W        W73678   0.756  33.085  13.328
 7248W        W73679  18.369   1.296  12.008
 7249W        W73680  44.262  38.733  12.669
 7250W        W73681  15.768  27.229   4.328
 7251W        W73682   3.348  39.330   3.136
 7252W        W73683   7.336  41.974  12.678
 7253W        W73684  37.333  12.369   0.450
 7254W        W73685  18.610  29.459  14.149
 7255W        W73686   8.081  40.636  11.774
 7256W        W73687  35.083   4.479   3.190
 7257W        W73688  18.153   1.716   2.780
 7258W        W73689  34.783  19.040   0.716
 7259W        W73690   8.308  27.086   2.623
 7260W        W73691  30.775  31.890   0.527
 7261W        W73692  28.645   7.629   3.316
 7262W        W73693  39.185  23.555  13.937
 7263W        W73694  34.154  15.090   2.196
 7264W        W73695   8.221  33.154  13.974
 7265W        W73696   6.655  32.300  12.057
 7266W        W73697  44.757  43.716  11.153
 7267W        W73698  35.353  40.470  10.939
 7268W        W73699  30.717  12.193  11.035
 7269W        W73700  30.827  23.426   1.474
 7270W        W73701  23.563  24.688   1.891
 7271W        W73702  32.835   6.315   1.813
 7272W        W73703  28.288  12.869   2.779
 7273W        W73704   4.217  26.452   0.382
 7274W        W73705  10.785  21.459  13.481
 7275W        W73706  38.335  16.004  11.073
 7276W        W73707  37.781  17.844  13.911
 7277W        W73708  34.159  24.523   4.844
 7278W        W73709  15.645  19.643  12.431
 7279W        W73710  18.694  34.398   1.340
 7280W        W73711   8.391  38.288   1.722
 7281W        W73712  25.079  40.183   1.183
 7282W        W73713   2.284  18.802   3.566
 7283W        W73714   0.519   1.786  12.396
 7284W        W73715  24.251   2.960  13.408
 7285W        W73716  40.951  15.545  14.985
 7286W        W73717  42.579  30.938   2.293
 7287W        W73718  31.384  24.302   2.482
 7288W        W73719  40.036  44.828  14.191
 7289W        W73720   0.442  43.349   0.041
 7290W        W73721   8.194   1.790  13.142
 7291W        W73722   3.866  26.566  14.977
 7292W        W73723  39.904   9.380   4.071
 7293W        W73724  17.458  14.403   4.532
 7294W        W73725  29.095  39.913   2.693
 7295W        W73726   7.745   8.266  12.814
 7296W        W73727  14.188  11.852   0.849
 7297W        W73728  25.922  28.150   3.656
 7298W        W73729  31.960   0.497   4.716
 7299W        W73730   1.319  38.786   1.420
 7300W        W73731  34.224   1.578   3.278
 7301W        W73732  25.496  33.402   0.215
 7302W        W73733  39.131  31.456   3.486
 7303W        W73734  41.596  36.437   0.371
 7304W        W73735  13.670  39.263  11.224
 7305W        W73736   1.149  39.310  10.294
 7306W        W73737  41.295  29.683   2.298
 7307W        W73738  38.821  43.704  10.001
 7308W        W73739  34.020   6.176   0.892
 7309W        W73740  34.223  11.213   4.166
 7310W        W73741  13.924  13.337  11.026
 7311W        W73742  37.899   3.783  12.083
 7312W        W73743  15.516  16.161  11.198
 7313W        W73744  21.864  38.215   4.995
 7314W        W73745  22.029  18.374   2.751
 7315W        W73746  24.582  19.548  10.066
 7316W        W73747   3.921  35.845  12.435
 7317W        W73748  16.536  25.423  12.416
 7318W        W73749  24.367  24.762  13.863
 7319W        W73750  30.505  40.596  13.058
 7320W        W73751  19.653  27.225  14.610
 7321W        W73752  37.075  33.197   3.253
 7322W        W73753  40.897   0.893  11.139
 7323W        W73754  33.684  20.964   3.217
 7324W        W73755  29.572  17.575   4.153
 7325W        W73756   8.376   5.196  11.107
 7326W        W73757  27.890  14.191   2.288
 7327W        W73758  28.525  13.890   2.722
 7328W        W73759  28.408  28.187   1.902
 7329W        W73760  23.505  28.633   3.239
 7330W        W73761  11.469  41.808  12.126
 7331W        W73762  41.241  18.768   3.286
 7332W        W73763  24.139   6.005   3.537
 7333W        W73764  19.066  37.460   3.002
 7334W        W73765  42.076   4.034  13.823
 7335W        W73766  41.984   3.694   0.004
 7336W        W73767  14.096  30.699  11.344
 7337W        W73768  38.972  27.442  11.400
 7338W        W73769  13.574  31.478  11.622
 7339W        W73770  25.943   9.690  11.924
 7340W        W73771   7.764  22.904  10.682
 7341W        W73772  22.480  17.615   0.905
 7342W        W73773  14.230  23.275   4.793
 7343W        W73774   1.448  12.082   3.695
 7344W        W73775  44.495  17.680   3.456
 7345W        W73776  42.732   8.934   2.429
 7346W        W73777   1.004  34.595   0.681
 7347W        W73778  28.427  21.607   3.310
 7348W        W73779  11.408  29.515  12.171
 7349W        W73780   5.818   5.457   1.346
 7350W        W73781  31.434   0.911   2.334
 7351W        W73782  21.714   0.263   2.322
 7352W        W73783  34.313  27.501  12.867
 7353W        W73784  40.448  24.425  13.932
 7354W        W73785   2.992  19.803   1.942
 7355W        W73786  38.805  35.136   4.469
 7356W        W73787  36.034   4.877  12.376
 7357W        W73788  27.729  10.903   4.695
 7358W        W73789  26.630  28.048  13.084
 7359W        W73790  38.493  25.014  12.036
 7360W        W73791  29.264  33.415   2.751
 7361W        W73792  21.695   3.666  13.723
 7362W        W73793  21.005  28.983  10.699
 7363W        W73794  23.201  17.056  13.643
 7364W        W73795  26.956  43.471   2.709
 7365W        W73796  43.868  18.311   4.797
 7366W        W73797  14.340   3.881  14.324
 7367W        W73798  32.720   6.063   5.208
 7368W        W73799  24.150  28.460   2.693
 7369W        W73800   9.874  36.512   1.587
 7370W        W73801   3.181  20.672  10.456
 7371W        W73802   9.750  10.040  12.024
 7372W        W73803  21.679   3.545   3.049
 7373W        W73804  18.181  33.419  13.410
 7374W        W73805   2.081  44.922   3.324
 7375W        W73806  18.292   7.950   2.750
 7376W        W73807  33.151  20.533  14.877
 7377W        W73808   0.355  12.621  11.572
 7378W        W73809   4.741  14.109   3.238
 7379W        W73810   5.715  26.041   3.894
 7380W        W73811  26.461  29.564   1.086
 7381W        W73812  23.270  43.838   0.942
 7382W        W73813  15.555   0.427   2.315
 7383W        W73814   4.252  17.657   4.220
 7384W        W73815  10.873  42.894   0.020
 7385W        W73816  35.840  28.838   2.399
 7386W        W73817  32.000  42.161  10.697
 7387W        W73818  15.143  16.152  12.621
 7388W        W73819  16.476  20.606   4.091
 7389W        W73820  10.265   8.709  10.664
 7390W        W73821  44.340  23.101  13.418
 7391W        W73822  27.943  21.078  14.479
 7392W        W73823  27.273   0.003   2.761
 7393W        W73824  13.762   7.401   0.955
 7394W        W73825  18.198   1.930  11.234
 7395W        W73826  36.357  26.889   3.042
 7396W        W73827   8.714   7.620   1.165
 7397W        W73828  24.503  13.245  10.608
 7398W        W73829  10.034   4.709  14.509
 7399W        W73830   1.431   9.349   4.656
 7400W        W73831   0.263   2.832  12.631
 7401W        W73832  30.925  38.030   2.173
 7402W        W73833  42.952  28.145   5.083
 7403W        W73834   2.329  39.933  12.143
 7404W        W73835   7.176   3.710   0.250
 7405W        W73836  31.980  13.933   0.791
 7406W        W73837  21.365  11.806   3.519
 7407W        W73838  43.867  36.515  11.104
 7408W        W73839  28.172  24.092  14.486
 7409W        W73840   2.201   8.827   0.354
 7410W        W73841   9.803  15.544  10.236
 7411W        W73842  24.533  30.103  12.670
 7412W        W73843  10.937  17.042  12.467
 7413W        W73844  27.090  32.896   3.183
 7414W        W73845  20.727  31.340   1.360
 7415W        W73846  16.682   5.891   0.235
 7416W        W73847  12.019  41.222  10.859
 7417W        W73848   2.515  43.594   1.280
 7418W        W73849  30.521  21.141  12.056
 7419W        W73850  20.534  13.033  10.742
 7420W        W73851  43.735  37.003  11.098
 7421W        W73852  28.198  24.191  13.526
 7422W        W73853  29.522  14.837   2.926
 7423W        W73854   5.691   8.320  12.472
 7424W        W73855  20.873   9.727   2.760
 7425W        W73856  22.221  17.646  11.158
 7426W        W73857  26.713  29.718   5.532
 7427W        W73858  24.406   5.724   2.617
 7428W        W73859  12.657  37.424   2.876
 7429W        W73860   2.489  29.545   1.846
 7430W        W73861   8.195  38.323   4.617
 7431W        W73862  10.837  39.009   4.073
 7432W        W73863   4.664  36.975  13.107
 7433W        W73864  11.322  10.019  12.731
 7434W        W73865  15.663  16.979   1.032
 7435W        W73866  10.250   4.927  11.541
 7436W        W73867   6.523  30.507   4.584
 7437W        W73868  11.794  23.262   3.875
 7438W        W73869  30.109  15.428   1.896
 7439W        W73870   1.196  17.542   3.363
 7440W        W73871  39.509  38.056  13.575
 7441W        W73872  22.612  21.758  14.084
 7442W        W73873   9.647  30.423   4.683
 7443W        W73874  18.669  18.228   3.284
 7444W        W73875  30.456  13.378  10.741
 7445W        W73876  22.149   9.579  12.544
 7446W        W73877   3.279  21.612  14.108
 7447W        W73878  34.374   7.284   0.277
 7448W        W73879  42.829  35.163   5.006
 7449W        W73880  25.769  19.188   4.007
 7450W        W73881  20.168  12.321   0.815
 7451W        W73882  21.378  31.967   4.554
 7452W        W73883  31.209  20.245  14.775
 7453W        W73884  17.026  20.762   4.901
 7454W        W73885  11.673  42.046   3.464
 7455W        W73886   8.909   9.185   2.501
 7456W        W73887  44.390  29.629   3.263
 7457W        W73888  31.877  30.496   3.796
 7458W        W73889   8.117   7.881  10.671
 7459W        W73890  21.315  31.903   1.961
 7460W        W73891  20.555  18.975  11.104
 7461W        W73892  17.431  16.586   9.773
 7462W        W73893   8.128  15.707   3.887
 7463W        W73894  41.961  18.006   1.152
 7464W        W73895   8.882  15.320  14.802
 7465W        W73896  16.819  11.737  11.483
 7466W        W73897  14.113  37.109  10.637
 7467W        W73898   2.806   4.583  10.557
 7468W        W73899   0.691  41.893  12.475
 7469W        W73900  15.412  34.395   5.044
 7470W        W73901   6.571  21.100  10.676
 7471W        W73902  39.792  20.545  10.730
 7472W        W73903  39.799  41.450   1.910
 7473W        W73904  11.179  41.556   4.489
 7474W        W73905   8.845  12.384  14.243
 7475W        W73906  19.110  18.348  13.397
 7476W        W73907  40.906  32.807  11.554
 7477W        W73908  18.398   2.510   0.916
 7478W        W73909  31.994  23.966  11.642
 7479W        W73910  35.525  23.932  13.263
 7480W        W73911  42.049  16.326  14.748
 7481W        W73912   9.022  40.239  11.914
 7482W        W73913  38.934  25.396  14.870
 7483W        W73914  15.675  29.517  12.534
 7484W        W73915  31.996  39.746   0.537
 7485W        W73916  38.909  32.669   2.643
 7486W        W73917  36.617  11.194   1.699
 7487W        W73918   2.083   9.596  12.078
 7488W        W73919   7.304   3.264  13.670
 7489W        W73920  38.944   6.260   4.582
 7490W        W73921  14.431  21.008  14.943
 7491W        W73922  42.568  36.428   4.753
 7492W        W73923  32.158  19.885   0.907
 7493W        W73924  30.398   2.326   4.528
 7494W        W73925  12.773  21.962   1.286
 7495W        W73926  27.996  34.222   4.428
 7496W        W73927   9.059   9.945   2.758
 7497W        W73928  33.678  34.109  11.504
 7498W        W73929   0.669  43.468   2.350
 7499W        W73930  10.965  23.507   4.320
 7500W        W73931  32.522  35.087   4.648
 7501W        W73932  36.457  32.891  10.177
 7502W        W73933   6.337   5.509   2.222
 7503W        W73934  25.097  27.444  14.620
 7504W        W73935   0.779  10.469  10.746
 7505W        W73936  21.228   9.142   4.756
 7506W        W73937   3.465  24.574  14.161
 7507W        W73938   3.765  36.844  12.657
 7508W        W73939  18.546   8.399   2.709
 7509W        W73940   4.484  20.372  11.129
 7510W        W73941   1.808  15.324  14.393
 7511W        W73942  35.541  17.619  13.282
 7512W        W73943  18.006  27.066   1.837
 7513W        W73944  33.900   6.211  14.472
 7514W        W73945  13.526  18.019  11.974
 7515W        W73946  12.384   2.951   3.274
 7516W        W73947  30.577  22.205   2.127
 7517W        W73948  22.599   5.979   5.199
 7518W        W73949  37.608  32.420   4.911
 7519W        W73950   4.661  12.538   0.432
 7520W        W73951  42.451   1.744   2.413
 7521W        W73952   5.168  15.461   4.985
 7522W        W73953   3.725  28.193   0.441
 7523W        W73954  40.573  14.210  11.219
 7524W        W73955   1.708  19.562  12.631
 7525W        W73956  43.485  26.004  14.275
 7526W        W73957   4.836  12.886   2.740
 7527W        W73958   1.502  30.153  11.680
 7528W        W73959  12.764  28.456  13.785
 7529W        W73960  36.789   2.253   2.378
 7530W        W73961  19.758  15.125  12.022
 7531W        W73962  23.301  32.508  12.339
 7532W        W73963   3.819  42.427  10.421
 7533W        W73964  32.978  34.144  13.086
 7534W        W73965  44.204   0.297   4.366
 7535W        W73966  22.111  15.618  12.195
 7536W        W73967  16.624  34.368   0.103
 7537W        W73968  37.911  34.104  10.721
 7538W        W73969  27.106  34.308  13.614
 7539W        W73970  43.884  13.303   1.638
 7540W        W73971  32.166  39.304  11.831
 7541W        W73972  36.818  40.437   2.660
 7542W        W73973  35.843  30.182   3.618
 7543W        W73974  33.478   7.702  10.807
 7544W        W73975  41.535   2.939   3.688
 7545W        W73976  18.705  15.236  13.991
 7546W        W73977  42.286  18.167   3.782
 7547W        W73978  21.525   3.351   0.753
 7548W        W73979  35.756  25.109   0.794
 7549W        W73980  39.215  39.528   1.211
 7550W        W73981  32.491   7.972  11.025
 7551W        W73982  23.084  31.504  11.705
 7552W        W73983  37.846  39.453   3.176
 7553W        W73984  19.508  40.827  14.733
 7554W        W73985   3.950   4.353  13.379
 7555W        W73986  27.664  10.312  10.980
 7556W        W73987  35.401   8.668   3.236
 7557W        W73988  20.090  37.750  11.318
 7558W        W73989  34.861   4.157   4.044
 7559W        W73990  40.974  44.787   1.463
 7560W        W73991  37.284  24.589   0.329
 7561W        W73992  25.046  16.770  11.690
 7562W        W73993  10.825  14.606   3.139
 7563W        W73994  42.594   4.005  13.899
 7564W        W73995  36.062   2.776  11.580
 7565W        W73996  25.533  41.464   3.225
 7566W        W73997   1.474  28.134   1.411
 7567W        W73998  21.575  33.921  12.526
 7568W        W73999   2.972  32.490   1.413
 7569W        W74000  16.776  32.872  10.774
 7570W        W74001  31.883   0.064   0.356
 7571W        W74002   3.087  11.752  14.694
 7572W        W74003  14.453  33.569   0.681
 7573W        W74004  10.844  14.614  13.236
 7574W        W74005  40.564  34.898  14.847
 7575W        W74006  13.236  35.028  11.588
 7576W        W74007  14.293   2.723  12.772
 7577W        W74008   7.888  16.070   3.604
 7578W        W74009  24.170  43.747   1.362
 7579W        W74010  14.547  20.086  14.952
 7580W        W74011  39.974  18.574  13.115
 7581W        W74012  24.175   1.763   0.787
 7582W        W74013   9.982  15.867  13.528
 7583W        W74014  14.112  44.908   1.378
 7584W        W74015  28.487  35.370   2.458
 7585W        W74016  15.207  13.818   4.716
 7586W        W74017  37.471  35.463  10.509
 7587W        W74018  11.258   9.428   4.516
 7588W        W74019  39.955  43.779  13.670
 7589W        W74020  32.745  25.629   1.269
 7590W        W74021  26.144   9.825  14.699
 7591W        W74022   6.738  33.345   1.439
 7592W        W74023  39.443  38.089   0.519
 7593W        W74024  27.743  31.523  14.777
 7594W        W74025  22.577  28.381   3.284
 7595W        W74026  34.352  13.277  10.944
 7596W        W74027  28.306  12.102   1.005
 7597W        W74028  14.906  23.215  11.077
 7598W        W74029  19.611  33.614  11.413
 7599W        W74030   5.238  18.499   2.654
 7600W        W74031   6.695  29.500  11.500
 7601W        W74032  39.581  17.173  12.515
 7602W        W74033  11.343  24.101  10.536
 7603W        W74034  23.910   8.519  13.957
 7604W        W74035  34.063  16.945  10.294
 7605W        W74036   1.311  43.240   0.536
 7606W        W74037  18.746  41.912  13.847
 7607W        W74038  32.039  26.567   3.548
 7608W        W74039  37.883  40.458  12.006
 7609W        W74040  43.156  29.294  10.649
 7610W        W74041  44.184  15.743  14.903
 7611W        W74042  36.650   6.395  10.744
 7612W        W74043  28.590  35.737   2.073
 7613W        W74044  23.955  24.764  12.490
 7614W        W74045  44.387  22.646   0.694
 7615W        W74046  29.583   7.725  13.956
 7616W        W74047   6.865  40.085  14.364
 7617W        W74048   9.757  15.216  13.517
 7618W        W74049  13.803  14.566  11.561
 7619W        W74050  27.660  18.158  10.406
 7620W        W74051  16.189  11.379   4.602
 7621W        W74052  18.359  35.924   4.941
 7622W        W74053  18.601   0.712   0.437
 7623W        W74054   9.763   8.662  14.782
 7624W        W74055   9.728  26.405  14.812
 7625W        W74056   2.355  38.590   4.077
 7626W        W74057  25.348   2.450  13.382
 7627W        W74058  26.609  16.883  14.010
 7628W        W74059  19.660  31.709  14.098
 7629W        W74060  13.557  41.791   1.285
 7630W        W74061  13.617  11.635   2.397
 7631W        W74062  37.547   3.350   1.268
 7632W        W74063  13.090  20.793   2.754
 7633W        W74064  10.104  33.515   5.383
 7634W        W74065  25.679  40.827   4.068
 7635W        W74066  21.075  25.397  13.516
 7636W        W74067  12.786  35.875   1.569
 7637W        W74068  35.531  37.908   3.158
 7638W        W74069  22.995  16.771  10.620
 7639W        W74070  28.985  32.064  12.501
 7640W        W74071  32.184  43.464   4.024
 7641W        W74072  13.717  25.989  10.991
 7642W        W74073  44.436  30.747  14.404
 7643W        W74074  41.867  40.009   4.605
 7644W        W74075   7.033  34.097   2.082
 7645W        W74076  19.174   1.874  12.191
 7646W        W74077  28.183  35.296  13.484
 7647W        W74078  13.664  16.109  13.877
 7648W        W74079   0.079  27.209   0.399
 7649W        W74080  31.702  38.109   1.920
 7650W        W74081   1.818   6.463  12.903
 7651W        W74082  40.901  18.420   4.118
 7652W        W74083   7.256  40.334  10.626
 7653W        W74084  37.720  18.195   1.045
 7654W        W74085  12.336   6.119  11.008
 7655W        W74086  26.457   6.119   3.733
 7656W        W74087   9.444  12.774  14.794
 7657W        W74088  22.241  12.104   4.112
 7658W        W74089  33.596  39.066   4.446
 7659W        W74090  26.426   2.399   3.652
 7660W        W74091  41.883   1.150  12.096
 7661W        W74092  21.994  21.816  13.473
 7662W        W74093  21.015  22.135  14.563
 7663W        W74094  40.868  34.085   4.176
 7664W        W74095  40.814  35.637   0.688
 7665W        W74096  43.569   0.622  11.090
 7666W        W74097  43.800  44.480   2.383
 7667W        W74098  39.375  37.754  10.224
 7668W        W74099   7.252  11.729  10.622
 7669W        W74100  12.280  10.861   4.531
 7670W        W74101  22.749  24.004  11.623
 7671W        W74102  24.092   0.495   2.782
 7672W        W74103  30.633  29.217  13.865
 7673W        W74104  29.438  41.034  12.158
 7674W        W74105  21.233  32.674  14.280
 7675W        W74106  39.845  33.569  11.612
 7676W        W74107  13.747  10.483  13.047
 7677W        W74108  28.626   6.248  13.883
 7678W        W74109  27.928  10.304  13.369
 7679W        W74110   5.200  26.294   3.931
 7680W        W74111  43.920  13.606   2.626
 7681W        W74112  16.864  32.091  12.538
 7682W        W74113  32.663   4.758  14.976
 7683W        W74114  37.587  20.420   4.582
 7684W        W74115  13.563  33.498   4.630
 7685W        W74116  37.688   8.678   4.606
 7686W        W74117  29.710  15.876   2.623
 7687W        W74118   1.242  32.695  14.006
 7688W        W74119  32.486  28.027   1.834
 7689W        W74120  28.652  34.396   3.764
 7690W        W74121  18.102  14.846   1.373
 7691W        W74122  13.761  27.013  14.319
 7692W        W74123  16.828   4.827  12.442
 7693W        W74124   0.756  14.174  11.618
 7694W        W74125  16.011  32.404   0.823
 7695W        W74126  23.693   3.421   4.102
 7696W        W74127  36.835   4.143  11.244
 7697W        W74128  43.958  26.043  12.339
 7698W        W74129  29.506   8.606   1.423
 7699W        W74130   5.067  36.296  13.091
 7700W        W74131  19.679   0.427  13.587
 7701W        W74132   3.999  38.909   1.166
 7702W        W74133   4.680  17.321  10.351
 7703W        W74134  37.827  37.391  10.993
 7704W        W74135  19.530  43.651  12.045
 7705W        W74136  12.387   6.388   2.280
 7706W        W74137  28.607  18.692  11.554
 7707W        W74138  39.720  22.607  14.402
 7708W        W74139   1.209  13.262  13.375
 7709W        W74140   2.692  42.792   0.808
 7710W        W74141  30.431   8.869   2.881
 7711W        W74142   1.239  12.597   4.548
 7712W        W74143  37.046  32.097  14.933
 7713W        W74144  39.939  40.092   3.711
 7714W        W74145  11.664  42.336  10.752
 7715W        W74146  19.920  13.587  14.540
 7716W        W74147  33.574  35.118  14.283
 7717W        W74148  41.496   0.327   4.719
 7718W        W74149   0.887  31.407   1.317
 7719W        W74150  15.567   3.704   2.316
 7720W        W74151  40.956  22.029  12.565
 7721W        W74152  11.569  29.722  13.095
 7722W        W74153  19.959  38.978  13.322
 7723W        W74154  30.940  39.034  14.208
 7724W        W74155  10.069  35.583   3.911
 7725W        W74156  16.499  39.458  11.535
 7726W        W74157   3.916  24.588  14.403
 7727W        W74158   0.854  20.297  11.528
 7728W        W74159  15.522  26.579   4.167
 7729W        W74160  16.517  22.675  13.695
 7730W        W74161   4.379  43.090   3.300
 7731W        W74162  14.045  19.661   0.203
 7732W        W74163  39.249  15.409  13.092
 7733W        W74164  40.013  31.387   4.332
 7734W        W74165  31.835  15.196  12.915
 7735W        W74166  27.972   2.237   0.301
 7736W        W74167  32.624  21.558   1.294
 7737W        W74168  21.965   4.526  11.584
 7738W        W74169  40.582  37.632  13.643
 7739W        W74170   5.180  21.226  10.001
 7740W        W74171  42.720  33.880  14.618
 7741W        W74172  26.688   3.988  10.730
 7742W        W74173  19.818  13.111   1.353
 7743W        W74174  31.358  30.946   4.760
 7744W        W74175  37.559  37.819   4.928
 7745W        W74176  28.024  37.450  14.968
 7746W        W74177  20.120  26.637  13.482
 7747W        W74178  29.417  26.752   1.120
 7748W        W74179  13.125   5.683  12.524
 7749W        W74180   8.521   7.690   0.216
 7750W        W74181  31.457  28.707  12.149
 7751W        W74182  19.814   6.157  10.672
 7752W        W74183  19.147  35.618  14.528
 7753W        W74184   5.493  38.379   2.478
 7754W        W74185   0.643  21.188  14.408
 7755W        W74186  11.567  21.634  14.267
 7756W        W74187   4.319  18.643   3.101
 7757W        W74188  28.070  31.881   2.152
 7758W        W74189  30.027  30.448  14.862
 7759W        W74190  27.662   0.698  11.141
 7760W        W74191  40.233   5.970   4.483
 7761W        W74192  28.321  16.279  13.808
 7762W        W74193  35.013  38.109   3.873
 7763W        W74194  16.665  40.878  12.049
 7764W        W74195  31.494  23.044  13.913
 7765W        W74196   7.177  10.582  11.085
 7766W        W74197  36.517  33.027  11.367
 7767W        W74198  42.441  43.285  10.637
 7768W        W74199  17.739   5.343   2.847
 7769W        W74200  13.344  35.449  14.450
 7770W        W74201  28.675  18.704   4.139
 7771W        W74202  41.335  36.379  13.475
 7772W        W74203  33.401  13.185  14.504
 7773W        W74204   6.302  40.153   2.624
 7774W        W74205  21.513  44.446  10.263
 7775W        W74206  28.108  36.172   1.377
 7776W        W74207   1.854  23.000  13.785
 7777W        W74208   8.076  25.435   3.382
 7778W        W74209   8.391  11.283  11.009
 7779W        W74210   4.288  21.429   1.477
 7780W        W74211  11.652   3.883  12.006
 7781W        W74212  33.388   2.185  12.034
 7782W        W74213   5.831   4.274  10.737
 7783W        W74214  41.341  39.443  11.977
 7784W        W74215  27.535  22.575   4.003
 7785W        W74216   1.773  40.751  14.961
 7786W        W74217  36.258  12.796   0.388
 7787W        W74218  18.740  22.553   1.787
 7788W        W74219   0.784  16.746   4.856
 7789W        W74220  33.693  44.560   0.410
 7790W        W74221  37.868  24.975   1.641
 7791W        W74222  16.243  17.875  12.778
 7792W        W74223   1.208  17.068   4.135
 7793W        W74224  23.917  31.909  11.627
 7794W        W74225  39.495  22.220   0.220
 7795W        W74226   5.245   5.962   3.807
 7796W        W74227   7.685  24.740  14.195
 7797W        W74228   4.302   7.571  14.932
 7798W        W74229   7.605  43.357  14.530
 7799W        W74230  32.909   9.255  13.868
 7800W        W74231  19.363  30.914  13.834
 7801W        W74232  23.035  37.594  14.401
 7802W        W74233  29.078  31.143   3.674
 7803W        W74234  33.120  33.587  10.570
 7804W        W74235  15.055  29.530  11.133
 7805W        W74236   9.143   1.427  14.664
 7806W        W74237  30.086   9.688  14.756
 7807W        W74238  35.522  37.701   1.107
 7808W        W74239  11.804  21.204   0.434
 7809W        W74240  30.885  19.614  13.716
 7810W        W74241  43.843  32.346   4.774
 7811W        W74242   9.285   6.934   4.120
 7812W        W74243   3.588   4.916   2.134
 7813W        W74244  34.277   5.186  14.818
 7814W        W74245  12.778  33.502   2.789
 7815W        W74246  19.993  24.902   0.750
 7816W        W74247  15.801  23.098  11.071
 7817W        W74248   6.245  24.313   2.318
 7818W        W74249  22.181  42.695  12.066
 7819W        W74250   5.744   5.874  11.584
 7820W        W74251  43.997  31.942  11.964
 7821W        W74252   9.783  18.038   4.671
 7822W        W74253  38.005  40.380  14.418
 7823W        W74254  17.730  10.763  12.118
 7824W        W74255  23.134  43.387  13.390
 7825W        W74256  30.156  18.251   4.543
 7826W        W74257  33.625  31.337  12.802
 7827W        W74258  19.099   5.603   0.882
 7828W        W74259  43.951  40.306  11.716
 7829W        W74260  29.443  32.361   3.212
 7830W        W74261  31.920  24.178  10.780
 7831W        W74262  18.741  37.475   1.218
 7832W        W74263  25.871  36.062  14.487
 7833W        W74264  25.619  41.963   0.376
 7834W        W74265  38.714  31.720  13.520
 7835W        W74266  23.176  28.679  12.606
 7836W        W74267   7.730  32.340  11.678
 7837W        W74268   6.387  29.428   3.161
 7838W        W74269  41.106  40.978   2.242
 7839W        W74270  21.578  21.966   3.586
 7840W        W74271   4.829  10.679   3.464
 7841W        W74272  24.015  32.871  13.879
 7842W        W74273  13.003  14.986   2.457
 7843W        W74274   3.373  19.217  13.993
 7844W        W74275  39.279  27.612  10.677
 7845W        W74276   1.378  19.423   0.026
 7846W        W74277  38.928  32.437  11.496
 7847W        W74278  35.565  11.670   3.707
 7848W        W74279   4.903   4.462   1.157
 7849W        W74280  22.216  11.566   4.053
 7850W        W74281  12.744   8.371   4.727
 7851W        W74282  11.123   5.333  13.769
 7852W        W74283  15.278  34.787  13.522
 7853W        W74284  13.207  19.571   1.214
 7854W        W74285  21.664  36.939  11.569
 7855W        W74286  36.027  39.810  12.722
 7856W        W74287  22.476  36.434  12.046
 7857W        W74288   7.658  25.235   2.406
 7858W        W74289  33.097  27.965  14.777
 7859W        W74290  34.780  28.154   2.650
 7860W        W74291   9.241  37.451  12.888
 7861W        W74292   3.867  19.430  10.508
 7862W        W74293   0.400  27.915   1.240
 7863W        W74294  36.544  28.962  13.382
 7864W        W74295  27.947  44.966   0.818
 7865W        W74296  31.570   4.815   1.398
 7866W        W74297  39.671  17.557   0.423
 7867W        W74298  12.216  33.112  10.623
 7868W        W74299   6.814  37.778   0.277
 7869W        W74300  27.620  12.821  10.695
 7870W        W74301  14.534  12.673   1.286
 7871W        W74302   0.961  42.812  11.549
 7872W        W74303  21.710  37.378  13.489
 7873W        W74304   2.742   7.409   3.692
 7874W        W74305  20.437  30.185  11.009
 7875W        W74306  14.041  22.423  13.060
 7876W        W74307  41.046   2.325  14.260
 7877W        W74308  25.757   7.723   3.687
 7878W        W74309  18.599  11.059  12.379
 7879W        W74310  28.636  35.599  14.341
 7880W        W74311  20.674   2.215  14.613
 7881W        W74312  37.628   2.488   4.483
 7882W        W74313   8.618  26.628   0.455
 7883W        W74314  34.647  37.538  12.563
 7884W        W74315  33.760  15.109   1.397
 7885W        W74316  33.791   3.470   3.926
 7886W        W74317  40.798  11.051  13.058
 7887W        W74318  39.897   7.225   1.860
 7888W        W74319  17.136  24.196   5.581
 7889W        W74320  16.919  12.086  10.807
 7890W        W74321  26.891  34.972  14.972
 7891W        W74322   9.443  16.557   4.208
 7892W        W74323  20.043  11.363  14.832
 7893W        W74324  27.108  10.625   2.732
 7894W        W74325  12.417   6.451   9.659
 7895W        W74326  16.122   0.879   0.927
 7896W        W74327  12.631  31.957   3.150
 7897W        W74328  12.111  31.645   1.439
 7898W        W74329  44.392  23.403  11.109
 7899W        W74330  25.222  33.875  12.634
 7900W        W74331  22.319  35.002  13.738
 7901W        W74332  35.046  14.333   1.362
 7902W        W74333  35.973  20.781   4.255
 7903W        W74334   7.983  22.790   3.834
 7904W        W74335   1.783   5.249  13.351
 7905W        W74336  41.142   7.387   1.331
 7906W        W74337  12.770  21.655   1.720
 7907W        W74338  21.391  38.402   4.854
 7908W        W74339  34.832  38.755   1.839
 7909W        W74340  41.532   0.444   0.030
 7910W        W74341  41.796  44.142   0.727
 7911W        W74342   8.615  40.117  11.052
 7912W        W74343  41.853   7.861  12.510
 7913W        W74344   0.008  11.620  12.150
 7914W        W74345   0.064  31.221   1.809
 7915W        W74346  24.926  20.550  14.047
 7916W        W74347  23.215  16.123  14.718
 7917W        W74348  14.069  21.492   3.776
 7918W        W74349   4.327  30.589   1.982
 7919W        W74350  22.774  32.036   1.825
 7920W        W74351   6.691   2.300   0.420
 7921W        W74352  21.284  11.673  14.628
 7922W        W74353  35.392   9.453  14.552
 7923W        W74354   7.852  33.349   2.578
 7924W        W74355   3.545   5.272  11.411
 7925W        W74356  21.773   1.329   2.233
 7926W        W74357  38.276  40.863  12.433
 7927W        W74358  15.489  19.190   4.022
 7928W        W74359  12.053  28.967   4.045
 7929W        W74360  13.242  24.308   3.577
 7930W        W74361  43.750   0.842   3.333
 7931W        W74362  17.093  44.757   3.453
 7932W        W74363  18.613  21.643  12.467
 7933W        W74364  28.877  31.100  13.426
 7934W        W74365  13.597  40.952   2.110
 7935W        W74366  40.374  11.526   0.401
 7936W        W74367  29.440  35.637   1.298
 7937W        W74368  18.192   5.237  13.483
 7938W        W74369  22.546  23.259  12.944
 7939W        W74370  27.856  38.002   1.432
 7940W        W74371  33.697  36.910  14.807
 7941W        W74372  19.531  17.204   0.258
 7942W        W74373  40.465  13.587  11.630
 7943W        W74374  19.629  28.087   4.588
 7944W        W74375   0.888  28.099   4.593
 7945W        W74376  23.845  38.707  12.351
 7946W        W74377  29.773   5.121   0.026
 7947W        W74378  11.798  17.574  12.433
 7948W        W74379   7.339  24.514   3.450
 7949W        W74380  39.035   4.837   4.934
 7950W        W74381  19.704   0.846  13.909
 7951W        W74382  29.667  24.325  14.514
 7952W        W74383  30.484  15.748   1.256
 7953W        W74384   4.310  27.635   4.271
 7954W        W74385  12.618  31.845  10.413
 7955W        W74386  35.389  38.329   5.534
 7956W        W74387  20.568  20.592  10.236
 7957W        W74388   6.138  35.882   2.079
 7958W        W74389   3.773  26.442  10.711
 7959W        W74390  17.645  12.363   1.395
 7960W        W74391  16.870  22.462   2.187
 7961W        W74392  36.664   4.124   4.333
 7962W        W74393   4.844  40.383  11.620
 7963W        W74394  41.770  20.573   0.354
 7964W        W74395   0.872  18.810   4.677
 7965W        W74396  11.612  11.325   4.563
 7966W        W74397  14.792  39.309   3.649
 7967W        W74398  26.564  32.269   2.050
 7968W        W74399  16.582   6.912  13.831
 7969W        W74400  12.881   9.812   0.440
 7970W        W74401  33.236  33.944  11.742
 7971W        W74402  44.506  25.524   1.795
 7972W        W74403  41.985  23.507  13.844
 7973W        W74404  22.676  13.432   4.025
 7974W        W74405  38.096  11.341   4.276
 7975W        W74406  20.534  43.571   0.398
 7976W        W74407  21.969  31.063  11.177
 7977W        W74408  23.821   8.607   1.006
 7978W        W74409  20.283   0.201  10.406
 7979W        W74410   3.096  32.494  14.476
 7980W        W74411  37.632  26.940  12.154
 7981W        W74412  26.522   1.245  14.901
 7982W        W74413   0.310   8.908   0.588
 7983W        W74414  13.376   2.333   4.562
 7984W        W74415  28.585  22.522  10.830
 7985W        W74416   5.407  29.729  12.103
 7986W        W74417   8.315  16.535   0.356
 7987W        W74418  43.078  16.094  13.474
 7988W        W74419  39.658  14.813  14.917
 7989W        W74420  11.225  39.377   0.352
 7990W        W74421  29.210   5.961   3.147
 7991W        W74422  35.498  25.425  11.575
 7992W        W74423  15.293  13.559   2.854
 7993W        W74424  21.989  34.279   4.947
 7994W        W74425   3.689  22.659  14.808
 7995W        W74426  27.654  30.373   0.440
 7996W        W74427  44.520  12.172   0.301
 7997W        W74428  36.792  38.561   1.665
 7998W        W74429  15.541  21.269   1.302
 7999W        W74430  14.255  43.573  13.816
 8000W        W74431  32.054  35.561  13.519
 8001W        W74432  26.434   8.286   3.805
 8002W        W74433  10.245  39.988  11.567
 8003W        W74434  36.540   1.102  13.418
 8004W        W74435  41.010  11.691   0.797
 8005W        W74436  25.722  34.089  13.443
 8006W        W74437  31.651  29.957  14.420
 8007W        W74438   1.176  31.178  12.722
 8008W        W74439  14.169  26.615  11.562
 8009W        W74440  14.227  22.665  13.510
 8010W        W74441  26.108  27.336   4.569
 8011W        W74442   5.672   7.738   0.764
 8012W        W74443  27.393  39.005   1.942
 8013W        W74444  12.684  41.100  14.025
 8014W        W74445  12.067  42.786  13.881
 8015W        W74446  13.472  30.430   5.011
 8016W        W74447   6.416  35.597   1.730
 8017W        W74448  12.518  37.840  13.864
 8018W        W74449  22.212  22.083  13.886
 8019W        W74450  24.197  29.026   5.615
 8020W        W74451  41.454  40.385  10.988
 8021W        W74452  26.270  27.535  14.050
 8022W        W74453  40.786  39.216   0.926
 8023W        W74454  24.596  31.334   4.492
 8024W        W74455  33.904  30.438   1.769
 8025W        W74456  38.039  28.026  11.648
 8026W        W74457  40.289  25.743   4.295
 8027W        W74458  14.290   8.724   3.749
 8028W        W74459  19.078  16.238  12.662
 8029W        W74460  42.101  17.334  13.587
 8030W        W74461  40.112  15.578   2.637
 8031W        W74462  29.005   5.015   4.357
 8032W        W74463   2.364  13.626  10.596
 8033W        W74464  28.176  16.736   1.344
 8034W        W74465  31.057  36.593  12.678
 8035W        W74466  32.667   7.822  11.908
 8036W        W74467   8.723  44.953   4.286
 8037W        W74468  26.675   1.691  14.212
 8038W        W74469  27.220  42.149  11.560
 8039W        W74470  38.650   5.687  13.361
 8040W        W74471  24.082   1.482  12.345
 8041W        W74472  43.634  38.547  11.913
 8042W        W74473  27.151  16.253  10.771
 8043W        W74474  32.205  40.596  11.110
 8044W        W74475  19.131   5.209  12.593
 8045W        W74476  33.902  14.357  14.824
 8046W        W74477  18.953   6.362   1.124
 8047W        W74478  17.578  12.150   4.489
 8048W        W74479  32.468  20.786  14.296
 8049W        W74480  19.465  40.445  11.780
 8050W        W74481  39.342  38.995  14.012
 8051W        W74482   6.736  29.524  14.865
 8052W        W74483   3.173  32.385   0.756
 8053W        W74484  17.219   2.417   4.112
 8054W        W74485   3.182  15.369   0.476
 8055W        W74486  17.171  27.688  12.698
 8056W        W74487   6.984  19.163  10.044
 8057W        W74488   5.855   3.763  12.046
 8058W        W74489   1.705  34.373  13.055
 8059W        W74490  14.737  18.775   4.585
 8060W        W74491  13.508  32.627   4.055
 8061W        W74492  35.448  40.088   3.733
 8062W        W74493  39.915  34.379   1.789
 8063W        W74494  17.412  24.806  10.616
 8064W        W74495  41.292   9.440   2.630
 8065W        W74496   8.168  17.970  13.435
 8066W        W74497  36.985   4.116  13.817
 8067W        W74498   6.841  44.452   3.365
 8068W        W74499   0.884   4.996  12.520
 8069W        W74500   8.425  29.106   1.102
 8070W        W74501   2.486  34.472   3.664
 8071W        W74502  23.186  15.839  12.446
 8072W        W74503  40.252  14.073   0.920
 8073W        W74504  20.635   8.023  14.297
 8074W        W74505   0.279  32.966  13.126
 8075W        W74506  21.479  39.419  11.994
 8076W        W74507  40.557   2.227   2.789
 8077W        W74508  21.077  44.925   5.049
 8078W        W74509  42.386   6.691   4.831
 8079W        W74510  27.090  21.464  14.455
 8080W        W74511  22.685  26.760   4.122
 8081W        W74512  22.237  16.948  12.048
 8082W        W74513  32.028  29.112   0.378
 8083W        W74514  30.890  42.744   2.133
 8084W        W74515  11.259   7.079   0.285
 8085W        W74516  15.776   5.741   1.777
 8086W        W74517   1.331  28.987  11.002
 8087W        W74518   7.139  32.154   4.091
 8088W        W74519  22.618  17.120  11.774
 8089W        W74520   5.533  40.530  13.034
 8090W        W74521  13.318  30.929   4.967
 8091W        W74522   2.440  21.668  12.903
 8092W        W74523  35.797  32.537  11.352
 8093W        W74524   4.905   5.717   3.248
 8094W        W74525  39.889   2.506   4.241
 8095W        W74526   0.959  24.192  12.041
 8096W        W74527  12.638   3.204  10.615
 8097W        W74528  15.285  38.843  12.837
 8098W        W74529  42.325  35.931  12.952
 8099W        W74530   2.543  12.250   0.492
 8100W        W74531  16.747   0.791   2.187
 8101W        W74532   3.019  18.621   1.925
 8102W        W74533   2.529  30.971   0.694
 8103W        W74534  19.682  27.043   3.652
 8104W        W74535  24.473   3.758   3.094
 8105W        W74536  42.500  26.519  14.725
 8106W        W74537  22.793   8.803  14.459
 8107W        W74538   3.375  12.727  12.878
 8108W        W74539  19.572   7.421  12.883
 8109W        W74540  36.532  23.809   3.189
 8110W        W74541   3.977   2.707   1.813
 8111W        W74542  42.914  40.389   2.371
 8112W        W74543   8.874  11.914  11.164
 8113W        W74544  32.581  20.627   3.263
 8114W        W74545  24.700  19.755   2.914
 8115W        W74546  11.460  39.621  13.489
 8116W        W74547  32.925  26.648  13.429
 8117W        W74548  35.838  21.006   0.213
 8118W        W74549   0.184  36.706   4.651
 8119W        W74550  17.152   5.379  14.571
 8120W        W74551  30.259  34.505  11.080
 8121W        W74552  22.470   7.873  13.062
 8122W        W74553  18.520   3.740   1.324
 8123W        W74554   7.885  20.591  11.479
 8124W        W74555  43.024  25.872  12.483
 8125W        W74556  22.453  37.078   3.209
 8126W        W74557  12.568  17.587   1.776
 8127W        W74558  37.120  17.800   3.674
 8128W        W74559  25.059  35.356   2.276
 8129W        W74560  27.558  32.448   3.226
 8130W        W74561   4.324  10.019  11.656
 8131W        W74562  39.796  32.960  12.028
 8132W        W74563   1.053  22.769  11.473
 8133W        W74564   2.552  35.829   1.807
 8134W        W74565  16.105   3.969   2.884
 8135W        W74566  41.316  42.754  12.971
 8136W        W74567  41.239  32.061   2.711
 8137W        W74568   7.484  31.899   4.385
 8138W        W74569  29.671  36.578   0.507
 8139W        W74570  10.737   9.373   0.948
 8140W        W74571  43.853   8.245   1.759
 8141W        W74572  17.194  18.841   4.049
 8142W        W74573  20.653  37.850   1.710
 8143W        W74574  22.065  25.277  14.331
 8144W        W74575  21.237  21.087  12.478
 8145W        W74576  38.781  40.432   3.069
 8146W        W74577  40.275  18.905  13.952
 8147W        W74578  24.763   2.814  10.416
 8148W        W74579  27.088  14.730   2.187
 8149W        W74580   8.402  13.888   2.808
 8150W        W74581  33.095   1.971   1.715
 8151W        W74582  23.612  38.731  14.630
 8152W        W74583   6.297   1.459  12.867
 8153W        W74584  29.873  24.519   2.330
 8154W        W74585  39.364   7.998  14.405
 8155W        W74586   1.893  16.858   1.404
 8156W        W74587  29.494   1.131  10.758
 8157W        W74588  13.362  40.905   4.271
 8158W        W74589  43.780   3.689   3.826
 8159W        W74590   3.406   7.149  12.650
 8160W        W74591  28.018  27.386   2.066
 8161W        W74592  12.184   5.284   3.580
 8162W        W74593  39.432   7.013  13.507
 8163W        W74594  25.957  18.378  14.391
 8164W        W74595  15.992  23.295  11.541
 8165W        W74596   4.865   6.129   1.666
 8166W        W74597  25.258  38.083   0.311
 8167W        W74598   4.813  15.275   3.692
 8168W        W74599  14.294  24.289  12.772
 8169W        W74600  17.504  36.457   1.430
 8170W        W74601  26.085  11.734  12.706
 8171W        W74602  21.549  23.674   0.434
 8172W        W74603  15.507  43.860   2.814
 8173W        W74604  17.593   5.697  14.302
 8174W        W74605  32.350   9.666   4.195
 8175W        W74606  15.616  30.241  12.135
 8176W        W74607  23.202  42.578  13.866
 8177W        W74608   9.060   7.220   1.207
 8178W        W74609  37.003   7.060  12.611
 8179W        W74610  20.148  11.113   1.139
 8180W        W74611  33.553  26.650   2.522
 8181W        W74612  25.040  22.607   3.779
 8182W        W74613  15.302  23.180  10.725
 8183W        W74614  31.931  30.012  13.917
 8184W        W74615  43.289  13.357  12.628
 8185W        W74616  40.904  15.207   0.767
 8186W        W74617  17.252  36.018   2.274
 8187W        W74618  21.008  31.980   4.172
 8188W        W74619  26.868   8.725   2.261
 8189W        W74620  31.399   4.802   0.367
 8190W        W74621  36.666   2.293   1.464
 8191W        W74622  14.186  21.497  13.902
 8192W        W74623   1.430  13.388  13.805
 8193W        W74624  11.164   1.691   2.820
 8194W        W74625   7.875  40.773   4.189
 8195W        W74626  30.573  41.691  14.774
 8196W        W74627  27.890  32.560   3.656
 8197W        W74628  25.301  23.629   0.525
 8198W        W74629   7.085  23.780  14.888
 8199W        W74630  15.786   9.869  10.699
 8200W        W74631  15.101  24.067   1.383
 8201W        W74632   0.925  33.389  12.030
 8202W        W74633  22.032  39.382   1.153
 8203W        W74634  41.584  36.117   0.840
 8204W        W74635   4.933  27.909  10.836
 8205W        W74636  16.750   4.188  11.971
 8206W        W74637  27.007  38.989   1.250
 8207W        W74638  43.515   1.903   3.250
 8208W        W74639  38.679   1.573   9.636
 8209W        W74640  18.192  29.660  12.460
 8210W        W74641  32.007  44.510  11.939
 8211W        W74642   5.801  11.939  12.247
 8212W        W74643  21.344  13.522   2.198
 8213W        W74644   0.523  11.948   0.179
 8214W        W74645   5.128   5.382  13.574
 8215W        W74646  14.976  14.860   0.642
 8216W        W74647  26.990   2.394  13.124
 8217W        W74648  44.799  13.226   4.490
 8218W        W74649  17.494  43.434  14.782
 8219W        W74650  31.528  31.417   2.286
 8220W        W74651  26.097  42.026   3.743
 8221W        W74652  32.390  15.840   1.224
 8222W        W74653   5.470   2.447   1.839
 8223W        W74654  10.177   0.442   0.531
 8224W        W74655  41.592  34.745   1.676
 8225W        W74656  16.835  28.822   0.057
 8226W        W74657   0.238  11.210   1.774
 8227W        W74658   4.224  14.391  11.881
 8228W        W74659  24.793   6.759   3.855
 8229W        W74660  13.224   5.160   2.778
 8230W        W74661  29.733  33.916  11.927
 8231W        W74662   1.968   8.473   3.195
 8232W        W74663  28.029  18.483  13.506
 8233W        W74664  38.507   2.036   3.771
 8234W        W74665  41.451   7.811   1.348
 8235W        W74666  43.639  16.786  11.382
 8236W        W74667  37.285  34.882  14.508
 8237W        W74668  20.452  29.521  10.216
 8238W        W74669  25.134  35.139  11.439
 8239W        W74670   9.295  38.670  14.472
 8240W        W74671   5.252  22.135   2.014
 8241W        W74672   7.615  32.526  11.222
 8242W        W74673  14.707  25.989  10.803
 8243W        W74674  29.873  37.468   0.333
 8244W        W74675  13.532  44.780   3.236
 8245W        W74676  28.593   7.842  13.824
 8246W        W74677  21.270  18.205   0.901
 8247W        W74678   8.441  18.350   4.597
 8248W        W74679  23.433   2.990   1.378
 8249W        W74680  37.133  27.092   2.389
 8250W        W74681  31.530  38.138  13.984
 8251W        W74682  29.487   4.648   4.501
 8252W        W74683  31.855   1.232  10.647
 8253W        W74684  25.201   1.836  14.251
 8254W        W74685  16.527  13.811   1.251
 8255W        W74686  33.100  11.602  12.553
 8256W        W74687  24.073  34.594   0.892
 8257W        W74688   2.399  17.125  11.676
 8258W        W74689  17.154  29.311  13.823
 8259W        W74690  40.934  37.488   1.839
 8260W        W74691  14.204   8.201   2.437
 8261W        W74692  14.205  31.123   3.680
 8262W        W74693  12.124  32.327  14.882
 8263W        W74694  18.002  38.609   4.127
 8264W        W74695  41.279  16.828  11.110
 8265W        W74696  28.535  21.638  10.701
 8266W        W74697  12.258  12.804  14.624
 8267W        W74698   3.531  21.015  14.901
 8268W        W74699  44.962  34.010   2.313
 8269W        W74700   3.029  12.461  13.160
 8270W        W74701   9.679  39.369  11.078
 8271W        W74702   8.949  37.060   2.171
 8272W        W74703  15.647  33.327  12.443
 8273W        W74704  13.598  29.102   2.989
 8274W        W74705  17.536  13.242   0.917
 8275W        W74706  10.355  16.251   3.617
 8276W        W74707  12.215  40.943   0.345
 8277W        W74708   1.012  30.439  13.775
 8278W        W74709  20.205  28.424  14.738
 8279W        W74710  25.429   6.929   3.266
 8280W        W74711  29.688  36.338   4.052
 8281W        W74712  35.873  41.860   0.808
 8282W        W74713  29.193  16.836   1.217
 8283W        W74714   5.269   3.372  14.074
 8284W        W74715  27.302   6.403   1.866
 8285W        W74716  24.035  38.931   2.595
 8286W        W74717   8.638  37.130   4.440
 8287W        W74718   2.369  27.491   1.919
 8288W        W74719  27.140  17.862  11.950
 8289W        W74720   6.182  38.935  13.462
 8290W        W74721   8.275   0.352   0.178
 8291W        W74722  21.080   5.995   3.057
 8292W        W74723  10.764   9.112   0.494
 8293W        W74724  43.059   7.903   0.979
 8294W        W74725  44.429  27.606  13.026
 8295W        W74726  38.539  17.569  11.873
 8296W        W74727  39.358   6.763   4.508
 8297W        W74728   2.401   0.913  14.075
 8298W        W74729   5.755  26.975   4.412
 8299W        W74730  24.615  37.815  10.719
 8300W        W74731  15.069   0.523   2.447
 8301W        W74732  39.450  38.495  12.345
 8302W        W74733  19.526  14.072   1.911
 8303W        W74734  25.508  28.175   2.091
 8304W        W74735  44.114   6.133  11.983
 8305W        W74736  39.316   8.661   3.196
 8306W        W74737   8.441  44.306  14.879
 8307W        W74738  37.343  34.235   4.051
 8308W        W74739  30.079  16.225  10.501
 8309W        W74740  27.867  16.511   0.041
 8310W        W74741  43.973   1.962   0.358
 8311W        W74742  22.698  17.760  12.935
 8312W        W74743  20.464  11.391  11.063
 8313W        W74744   9.605   6.427  11.579
 8314W        W74745   8.223  23.071  13.133
 8315W        W74746   7.293  40.800  13.441
 8316W        W74747  43.985   9.845  12.662
 8317W        W74748  35.251  10.983   4.118
 8318W        W74749  33.426  26.772  10.422
 8319W        W74750  28.540  28.265   3.742
 8320W        W74751   1.964  38.029   3.180
 8321W        W74752  14.820   2.512   0.731
 8322W        W74753  34.112   7.731   1.737
 8323W        W74754   6.402  33.460   2.424
 8324W        W74755  26.890   2.738  11.114
 8325W        W74756  38.513   5.908  12.089
 8326W        W74757  17.183   3.192   2.203
 8327W        W74758  32.047  22.472  13.832
 8328W        W74759  33.050  35.287  11.005
 8329W        W74760  21.738  32.204  11.100
 8330W        W74761  36.102  12.269  11.424
 8331W        W74762  36.668  44.389   1.290
 8332W        W74763  13.548  15.693   1.757
 8333W        W74764  36.521   6.452   2.675
 8334W        W74765  44.865   2.686   4.222
 8335W        W74766   0.728   3.760   0.981
 8336W        W74767   1.511  33.981  11.567
 8337W        W74768  16.375  16.733   0.535
 8338W        W74769  40.499  29.570  10.639
 8339W        W74770   2.454   7.752  11.636
 8340W        W74771  44.992  34.132  14.525
 8341W        W74772   2.309   8.458   2.201
 8342W        W74773  12.744   9.883   1.296
 8343W        W74774   8.778  35.101   1.919
 8344W        W74775  37.408  26.547  11.552
 8345W        W74776  32.939   2.287   2.096
 8346W        W74777  11.598  21.643   0.709
 8347W        W74778  42.108  43.734   4.148
 8348W        W74779  19.718  21.291  10.875
 8349W        W74780  41.959  31.501   3.998
 8350W        W74781  27.804  15.227  11.381
 8351W        W74782  10.396  17.650  13.484
 8352W        W74783  24.621  37.237   0.291
 8353W        W74784  14.234  13.113  14.330
 8354W        W74785  39.944  36.545  14.499
 8355W        W74786   2.992  26.493  10.928
 8356W        W74787  29.567  37.880   4.602
 8357W        W74788  35.730  16.519   4.045
 8358W        W74789  18.397  36.679  10.701
 8359W        W74790  11.028  32.229   2.200
 8360W        W74791   2.357  36.572   3.760
 8361W        W74792  33.177   1.056  11.095
 8362W        W74793   5.591  35.359   3.351
 8363W        W74794  37.860  26.966   4.792
 8364W        W74795  12.044  44.045  10.714
 8365W        W74796   6.743  19.525  14.503
 8366W        W74797   6.514  43.356   3.198
 8367W        W74798  39.871  28.096  13.010
 8368W        W74799  19.519  19.104   4.136
 8369W        W74800  44.261   3.812  13.468
 8370W        W74801  16.856  24.668  13.003
 8371W        W74802  35.787  11.308   3.348
 8372W        W74803  14.344  19.714   1.691
 8373W        W74804  10.140  38.789   1.352
 8374W        W74805  22.714  40.483   1.267
 8375W        W74806  14.805  41.994  11.020
 8376W        W74807  23.827   4.254   2.677
 8377W        W74808   5.520   4.721  14.863
 8378W        W74809  12.282  10.255   1.458
 8379W        W74810  37.828  13.478  12.433
 8380W        W74811  33.600   1.800  10.514
 8381W        W74812  40.675   0.010   0.474
 8382W        W74813  38.157  21.315  13.603
 8383W        W74814  36.640   6.474   0.780
 8384W        W74815   2.034   9.071  14.908
 8385W        W74816  42.863  14.084  13.053
 8386W        W74817   1.413  32.834  10.667
 8387W        W74818  11.939  41.251  12.660
 8388W        W74819   5.946   0.941  14.689
 8389W        W74820  34.620  13.171  12.039
 8390W        W74821  22.355  21.055   1.336
 8391W        W74822   2.754   8.724  11.060
 8392W        W74823  23.051  41.472  13.331
 8393W        W74824  44.783  36.124  10.811
 8394W        W74825  37.900  11.085  13.403
 8395W        W74826  28.083  44.122   2.781
 8396W        W74827  36.778   0.300  13.875
 8397W        W74828   7.364  40.465  11.103
 8398W        W74829  40.257   9.326  11.028
 8399W        W74830   2.713  15.765   1.272
 8400W        W74831   9.227  24.940  12.040
 8401W        W74832  38.366  21.064  12.278
 8402W        W74833  23.553   9.961   0.930
 8403W        W74834  43.788  20.214   0.536
 8404W        W74835  24.746  33.569  10.722
 8405W        W74836  12.129  28.489  11.955
 8406W        W74837  18.312  11.071   0.952
 8407W        W74838  29.308  32.443  13.730
 8408W        W74839  37.924  12.492  10.902
 8409W        W74840  44.509  28.036  14.399
 8410W        W74841  42.094  33.639   3.594
 8411W        W74842  19.512  21.676   2.745
 8412W        W74843  40.254  39.805  14.749
 8413W        W74844  41.388  36.870  10.998
 8414W        W74845  35.530   9.613  12.850
 8415W        W74846  31.115  39.755  12.878
 8416W        W74847  44.786  18.067   3.631
 8417W        W74848  33.908  11.846   4.727
 8418W        W74849   3.440  28.595   2.227
 8419W        W74850  36.325  19.029   4.508
 8420W        W74851   0.948  22.210   3.302
 8421W        W74852  31.628  44.832   1.221
 8422W        W74853  31.593   5.928  11.560
 8423W        W74854  11.124  11.124   2.402
 8424W        W74855  37.968  24.156   2.069
 8425W        W74856  14.589  21.616   1.723
 8426W        W74857  43.061  33.654  13.426
 8427W        W74858  10.765  19.037   1.672
 8428W        W74859   8.440  35.502  12.974
 8429W        W74860  15.045  35.025  12.692
 8430W        W74861  19.386  40.595   4.275
 8431W        W74862  42.318  35.943   1.364
 8432W        W74863  36.362   6.039  12.775
 8433W        W74864   2.461  13.792  11.996
 8434W        W74865  21.768   1.769  14.608
 8435W        W74866  28.886   1.254   0.537
 8436W        W74867  20.675  19.276  11.532
 8437W        W74868  24.748  22.976   3.052
 8438W        W74869  17.357  30.155   1.325
 8439W        W74870  27.546   0.367   4.946
 8440W        W74871   7.766  43.974  14.949
 8441W        W74872  22.554   3.923  14.778
 8442W        W74873  20.547  42.084  13.959
 8443W        W74874  16.112  41.013   1.039
 8444W        W74875  41.998   8.818  13.367
 8445W        W74876  12.813  10.336   3.048
 8446W        W74877  29.026  29.524  12.513
 8447W        W74878   8.748  24.365  12.468
 8448W        W74879  12.978  23.528  11.127
 8449W        W74880  41.890  43.444  10.663
 8450W        W74881  31.056  26.605   3.971
 8451W        W74882   0.413  11.438   3.421
 8452W        W74883   7.742  14.305   4.715
 8453W        W74884  44.077  20.723   2.759
 8454W        W74885   7.601   8.878   0.312
 8455W        W74886   5.711  42.252   1.656
 8456W        W74887  11.620   6.049   1.367
 8457W        W74888  12.663  12.888   3.081
 8458W        W74889   2.381  16.523   3.827
 8459W        W74890   4.964  44.211  13.839
 8460W        W74891   9.270  30.290   5.036
 8461W        W74892   3.694  40.590   3.657
 8462W        W74893  37.584  41.912  11.127
 8463W        W74894  39.372   6.523   3.846
 8464W        W74895  22.631  44.382  11.468
 8465W        W74896   6.071  21.101  12.444
 8466W        W74897  12.272  32.993  11.587
 8467W        W74898   1.110   5.975  12.448
 8468W        W74899  11.578  10.753   2.927
 8469W        W74900  25.471   7.707  12.980
 8470W        W74901   3.302  24.661   0.591
 8471W        W74902  44.898   1.417   1.083
 8472W        W74903  42.324  31.351   2.502
 8473W        W74904  40.071   4.833   0.471
 8474W        W74905   1.523  10.899   0.742
 8475W        W74906  41.816  14.119   3.218
 8476W        W74907  19.006  12.040   2.809
 8477W        W74908  27.924   3.307  10.694
 8478W        W74909  38.732  43.517   2.416
 8479W        W74910  38.088  41.491  11.908
 8480W        W74911  16.752  22.206   0.415
 8481W        W74912  36.343   1.734  14.968
 8482W        W74913   6.707  38.911  14.583
 8483W        W74914   5.948  16.062  11.645
 8484W        W74915   9.761  21.590   2.808
 8485W        W74916  21.675  29.657   4.648
 8486W        W74917  19.780  29.385   4.990
 8487W        W74918  20.496  32.459  12.318
 8488W        W74919  25.575   9.894   0.884
 8489W        W74920   0.635  30.605  12.571
 8490W        W74921  11.361  12.846   3.331
 8491W        W74922  33.541  10.687  11.030
 8492W        W74923   5.870  35.509   1.800
 8493W        W74924  14.233   2.925  14.818
 8494W        W74925  28.138  22.172   3.197
 8495W        W74926   0.841  13.253  11.526
 8496W        W74927  41.726  14.693   0.481
 8497W        W74928  10.804   9.896   3.826
 8498W        W74929  24.744  40.117   3.236
 8499W        W74930  34.901   7.379   3.237
 8500W        W74931  41.532   3.795   1.748
 8501W        W74932  31.443  36.208  11.815
 8502W        W74933  15.605  17.089  12.609
 8503W        W74934  11.391  25.185  14.951
 8504W        W74935  13.716  43.972  10.747
 8505W        W74936  39.806   3.850   4.250
 8506W        W74937  26.589  40.632   3.657
 8507W        W74938  18.774   2.878   3.261
 8508W        W74939  40.517   5.742  14.482
 8509W        W74940   0.505  14.469  12.408
 8510W        W74941  40.998  37.783  11.724
 8511W        W74942  15.597  26.225   3.736
 8512W        W74943  21.208  20.891   1.765
 8513W        W74944   7.939  35.639  12.995
 8514W        W74945  23.234  44.243  14.458
 8515W        W74946  24.003  25.147  13.820
 8516W        W74947   1.078  15.156  11.777
 8517W        W74948  43.330  11.569  12.461
 8518W        W74949  19.633  38.219   4.049
 8519W        W74950   6.617  28.533  14.025
 8520W        W74951  25.661   1.929   2.171
 8521W        W74952  25.611  19.522   2.771
 8522W        W74953  24.277   0.934   2.544
 8523W        W74954   7.179  26.983  14.552
 8524W        W74955   3.329  25.686  13.009
 8525W        W74956  15.269  38.380   3.239
 8526W        W74957   3.480   2.559  12.417
 8527W        W74958  22.060  28.049  14.310
 8528W        W74959   9.478   0.586   4.488
 8529W        W74960  15.814  27.585  14.914
 8530W        W74961   3.344  25.084  11.249
 8531W        W74962  23.602  13.614  11.867
 8532W        W74963  21.095  25.505  13.031
 8533W        W74964  32.408  34.962   3.690
 8534W        W74965  12.536  44.383   1.136
 8535W        W74966  12.848  22.729  11.782
 8536W        W74967  28.409  16.851  14.487
 8537W        W74968  31.666  17.313  11.692
 8538W        W74969   6.672  24.046   2.459
 8539W        W74970   2.396   1.470   1.779
 8540W        W74971  29.564  42.768  10.515
 8541W        W74972   5.887  34.235   1.206
 8542W        W74973  29.468   5.659   1.295
 8543W        W74974  35.858  11.527   2.877
 8544W        W74975  33.907  31.441  10.861
 8545W        W74976  38.742   4.498   4.550
 8546W        W74977  21.499   6.761  12.727
 8547W        W74978   3.386  39.175   1.733
 8548W        W74979  36.662  12.961  11.684
 8549W        W74980  38.323  35.408  12.452
 8550W        W74981  33.009  35.583  14.991
 8551W        W74982  28.672  39.467   4.078
 8552W        W74983  31.902  11.303   1.691
 8553W        W74984  39.390  33.541  10.909
 8554W        W74985  14.599  36.717  13.417
 8555W        W74986   0.989   6.834   0.724
 8556W        W74987  26.188  18.130  11.109
 8557W        W74988  44.959   2.981   0.066
 8558W        W74989   4.662  41.369   1.927
 8559W        W74990  35.941  16.306  12.066
 8560W        W74991  36.287  20.624   2.231
 8561W        W74992  10.155  43.980  12.178
 8562W        W74993  17.066  30.172  11.663
 8563W        W74994  16.330  34.585   5.143
 8564W        W74995   8.394   8.813  12.824
 8565W        W74996  28.965  19.750  12.073
 8566W        W74997  20.134  16.264  11.895
 8567W        W74998  25.853  42.345  11.597
 8568W        W74999  33.332  19.086  11.537
 8569W        W75000  14.788   5.345  11.991
 8570W        W75001  15.082  19.331  14.336
 8571W        W75002  22.518   1.722  12.127
 8572W        W75003   9.274   2.812  10.732
 8573W        W75004  18.830  29.891  13.384
 8574W        W75005  35.535  25.654  13.553
 8575W        W75006  27.159  17.162  14.998
 8576W        W75007  36.075  28.462  10.255
 8577W        W75008   0.088  38.148   2.882
 8578W        W75009  38.472   3.381   0.370
 8579W        W75010  28.176  31.850   1.181
 8580W        W75011  28.726  44.028   0.937
 8581W        W75012  23.347  19.249  11.250
 8582W        W75013  16.822  20.072  11.147
 8583W        W75014   0.400  41.244   0.741
 8584W        W75015  32.666   6.774   1.646
 8585W        W75016  18.041   1.921   4.815
 8586W        W75017  32.073   7.126   0.352
 8587W        W75018  33.995  15.130  11.060
 8588W        W75019  33.621   9.992   3.223
 8589W        W75020   9.811  20.654   2.584
 8590W        W75021  30.090  34.153   4.690
 8591W        W75022   4.262  38.161  13.998
 8592W        W75023  35.090  23.755  13.519
 8593W        W75024  18.150  16.089  13.889
 8594W        W75025  39.400  39.158   2.976
 8595W        W75026  27.992  20.247   1.797
 8596W        W75027  10.354  35.650   5.203
 8597W        W75028  38.285   1.451   5.089
 8598W        W75029  28.980  28.534   1.745
 8599W        W75030  36.056  19.407   4.944
 8600W        W75031   3.697  14.557   0.951
 8601W        W75032  26.676  24.120  10.934
 8602W        W75033   9.364  24.310   1.885
 8603W        W75034  23.508   8.876   1.352
 8604W        W75035  39.933   8.563  12.024
 8605W        W75036  24.638   4.159  10.793
 8606W        W75037  24.501  32.117  12.978
 8607W        W75038  33.411  32.768  13.192
 8608W        W75039  24.274   9.697  13.123
 8609W        W75040  43.075  22.720  10.709
 8610W        W75041  30.739  27.916   2.662
 8611W        W75042   5.253  31.960  11.007
 8612W        W75043  11.130  29.452   0.570
 8613W        W75044   7.245  10.167   1.331
 8614W        W75045  40.412  36.256   4.992
 8615W        W75046  17.017  10.248   0.748
 8616W        W75047   3.444  11.113  11.575
 8617W        W75048  11.662  28.261  12.897
 8618W        W75049   4.966   0.206  11.374
 8619W        W75050  28.745  11.065  11.960
 8620W        W75051  24.024  14.601  12.445
 8621W        W75052  35.018   7.727  11.662
 8622W        W75053  33.374  25.230  14.682
 8623W        W75054   8.329  27.525  11.765
 8624W        W75055  26.766  32.542  13.733
 8625W        W75056   5.298   1.408   4.444
 8626W        W75057  22.680   5.155   4.620
 8627W        W75058  41.379  28.909  13.770
 8628W        W75059  11.605  40.982  14.457
 8629W        W75060  10.782  19.701   0.791
 8630W        W75061  40.189  17.338   0.742
 8631W        W75062  20.213  37.867   0.502
 8632W        W75063  21.346  22.768  11.971
 8633W        W75064  27.552  36.304  14.799
 8634W        W75065  13.219  19.996  12.675
 8635W        W75066  19.461   7.396   3.189
 8636W        W75067  29.966  40.571   2.215
 8637W        W75068   2.382  20.620  12.841
 8638W        W75069  42.421  42.705   2.248
 8639W        W75070   2.337  29.481  13.731
 8640W        W75071   4.895  30.916   4.063
 8641W        W75072  33.022  37.508   1.722
 8642W        W75073   0.584   5.983  12.441
 8643W        W75074  15.885   2.292   2.291
 8644W        W75075  22.232  24.484  14.961
 8645W        W75076   2.669  24.589  13.009
 8646W        W75077  15.468  28.232  11.411
 8647W        W75078  30.191  27.461   1.777
 8648W        W75079   6.483  32.074  14.719
 8649W        W75080  28.037  38.877   4.651
 8650W        W75081  33.650  20.998  13.853
 8651W        W75082   6.813  43.045  14.919
 8652W        W75083  28.976  17.608  11.957
 8653W        W75084  25.074  31.468   4.246
 8654W        W75085  21.497   3.843   4.345
 8655W        W75086  23.461  19.766  12.978
 8656W        W75087   2.933  17.363   0.875
 8657W        W75088  33.195  21.975  12.861
 8658W        W75089   1.947  22.342  12.405
 8659W        W75090  27.428  17.326   2.923
 8660W        W75091  39.414  29.714  13.887
 8661W        W75092  27.453  43.325  14.026
 8662W        W75093  36.164  25.825  14.423
 8663W        W75094  34.483  36.360  13.403
 8664W        W75095  43.358  35.056  13.373
 8665W        W75096  23.038  11.201  13.966
 8666W        W75097  18.751  28.196  13.898
 8667W        W75098   3.357  19.702   3.688
 8668W        W75099   1.432  44.267   2.882
 8669W        W75100  42.774  25.995  12.061
 8670W        W75101  20.966  18.717  10.767
 8671W        W75102  40.249  30.618   3.290
 8672W        W75103  42.953  28.054   4.569
 8673W        W75104  20.116  23.796  11.953
 8674W        W75105  31.695  12.134  12.523
 8675W        W75106  43.648  11.704   2.414
 8676W        W75107   8.707  14.922   2.612
 8677W        W75108   9.205  34.023  13.838
 8678W        W75109  10.468  26.080   4.301
 8679W        W75110  32.153   7.775  11.982
 8680W        W75111  33.423  16.999   3.627
 8681W        W75112  14.279  19.074  14.055
 8682W        W75113   1.404   0.892  11.033
 8683W        W75114   2.524  32.493  12.849
 8684W        W75115  38.494   6.836  13.020
 8685W        W75116   7.308  15.083  13.723
 8686W        W75117   8.631  25.316  12.174
 8687W        W75118  24.221  40.077  11.609
 8688W        W75119  31.146  22.711   2.687
 8689W        W75120  19.123  44.246  10.924
 8690W        W75121  32.124  23.265  14.269
 8691W        W75122  32.764  12.397  14.311
 8692W        W75123  27.136  40.626  11.639
 8693W        W75124  41.266  30.754  11.510
 8694W        W75125  44.388  37.079  10.574
 8695W        W75126   7.430  44.693  13.587
 8696W        W75127  22.089   2.218  14.504
 8697W        W75128  35.899  27.461   3.748
 8698W        W75129   1.917  18.139   2.918
 8699W        W75130  28.559  21.241   1.822
 8700W        W75131   6.242   8.934   1.173
 8701W        W75132  35.404   5.852  13.376
 8702W        W75133  35.843   9.746   1.785
 8703W        W75134  14.356   7.253   2.148
 8704W        W75135  13.969  15.678  11.344
 8705W        W75136  43.310  43.438  10.770
 8706W        W75137   8.720   3.513   1.468
 8707W        W75138  36.440  36.516  14.406
 8708W        W75139  20.576   7.269  14.880
 8709W        W75140  43.561  14.417  14.125
 8710W        W75141  21.261  44.831   4.091
 8711W        W75142  11.636  12.819   3.793
 8712W        W75143  19.645  11.387  11.026
 8713W        W75144  42.582  39.977   1.692
 8714W        W75145  39.320  37.056  13.943
 8715W        W75146   7.690  26.518  10.586
 8716W        W75147  29.293  39.163   0.904
 8717W        W75148  27.992  25.542  11.641
 8718W        W75149  26.981  27.063  14.325
 8719W        W75150   0.679  36.991  14.685
 8720W        W75151   6.258  27.452  14.369
 8721W        W75152   6.741  30.498   3.970
 8722W        W75153  41.848  39.419  14.843
 8723W        W75154  35.855  44.995  13.837
 8724W        W75155  23.435  38.999  13.710
 8725W        W75156  30.856  30.990  14.421
 8726W        W75157   8.543   9.297  10.716
 8727W        W75158   7.329  26.582  10.202
 8728W        W75159  38.591  30.063  12.885
 8729W        W75160   0.220   6.376   1.276
 8730W        W75161  39.334   1.048  11.544
 8731W        W75162  44.593  38.518  12.328
 8732W        W75163  22.673  11.803   1.821
 8733W        W75164  10.384   9.365  14.200
 8734W        W75165  33.632   6.243  10.703
 8735W        W75166  15.745   8.099   1.932
 8736W        W75167   9.445  34.992  11.641
 8737W        W75168   9.156  29.969   1.331
 8738W        W75169   7.246  26.167  11.496
 8739W        W75170  25.450  27.957   3.734
 8740W        W75171  12.044  42.535  14.721
 8741W        W75172  38.310  38.350  11.700
 8742W        W75173  30.008  31.219   2.747
 8743W        W75174  37.867  33.492   9.739
 8744W        W75175   2.336  42.007   3.797
 8745W        W75176  44.817  17.081  12.974
 8746W        W75177  37.533  43.287   0.370
 8747W        W75178  19.536   7.013   4.452
 8748W        W75179  21.605   6.463   0.536
 8749W        W75180  29.936  10.229  10.936
 8750W        W75181  23.041  41.889   1.501
 8751W        W75182  27.867  16.057   3.555
 8752W        W75183   7.277  23.070   1.845
 8753W        W75184  24.568  31.361   5.413
 8754W        W75185  42.470   0.609   2.658
 8755W        W75186  40.941  34.937  12.523
 8756W        W75187  23.057  34.815  11.531
 8757W        W75188  20.696  10.239   3.611
 8758W        W75189   8.812   6.468   2.812
 8759W        W75190  14.748   2.914   2.991
 8760W        W75191  34.129  18.057  14.228
 8761W        W75192  30.276  38.342  12.136
 8762W        W75193  39.752  26.190  13.375
 8763W        W75194  15.059  11.280   3.780
 8764W        W75195   7.341  32.392   3.678
 8765W        W75196   4.253   8.167   4.120
 8766W        W75197  15.233  17.805   1.169
 8767W        W75198  14.902  20.134  12.029
 8768W        W75199  39.889  18.229  11.635
 8769W        W75200   2.285  40.625  14.842
 8770W        W75201  26.629  26.785   3.407
 8771W        W75202   8.699  34.179  11.991
 8772W        W75203   6.372  37.017  14.365
 8773W        W75204  26.120   7.966  11.598
 8774W        W75205  20.236  38.915  12.857
 8775W        W75206  27.524  24.188  12.623
 8776W        W75207  43.198  33.075  14.963
 8777W        W75208  13.336  22.232   2.854
 8778W        W75209   6.190  39.485   4.511
 8779W        W75210  33.292  41.722   2.756
 8780W        W75211  25.058   0.010  12.387
 8781W        W75212   9.369  29.415  10.330
 8782W        W75213  29.159  14.565   2.680
 8783W        W75214  36.411  40.548  10.742
 8784W        W75215  34.322  30.102   3.814
 8785W        W75216  19.449   5.270   1.080
 8786W        W75217  44.166  16.760  11.149
 8787W        W75218  24.525  32.885  11.199
 8788W        W75219  30.823   5.781  12.209
 8789W        W75220  13.386   3.711  11.520
 8790W        W75221  38.974   4.936   1.980
 8791W        W75222  42.246  19.978  12.079
 8792W        W75223   7.679  19.932   1.263
 8793W        W75224   0.044  21.048  13.443
 8794W        W75225  37.004   2.031   2.863
 8795W        W75226   6.079  25.304   2.308
 8796W        W75227  44.821  10.245   9.892
 8797W        W75228  40.991  20.082   0.221
 8798W        W75229   7.326  29.780   3.313
 8799W        W75230  42.479   8.152   2.028
 8800W        W75231  26.986   7.229  14.510
 8801W        W75232   0.483  13.382  13.107
 8802W        W75233  39.636  34.727  13.699
 8803W        W75234  33.630  20.506  14.022
 8804W        W75235  24.603  15.062   2.313
 8805W        W75236  32.398   9.301  13.852
 8806W        W75237   7.531  18.867   2.355
 8807W        W75238  44.996  19.706   4.963
 8808W        W75239  18.110  32.136   1.197
 8809W        W75240  27.011  16.756  10.709
 8810W        W75241   3.206  13.205  12.663
 8811W        W75242  36.503  20.416  13.957
 8812W        W75243  34.420  21.796  11.071
 8813W        W75244  11.351  42.709  10.974
 8814W        W75245  43.501  42.336   3.128
 8815W        W75246  41.009  27.406   0.157
 8816W        W75247  35.951  15.812   4.841
 8817W        W75248  36.553  28.853  10.662
 8818W        W75249   2.485  42.077  11.094
 8819W        W75250  14.622  37.763  10.178
 8820W        W75251  17.811  22.610  12.658
 8821W        W75252  43.890   7.863   3.870
 8822W        W75253  41.772  24.071  13.471
 8823W        W75254  26.091  11.671   4.609
 8824W        W75255  31.062   8.928  14.413
 8825W        W75256  42.764  18.620   1.881
 8826W        W75257  28.507   8.410  11.572
 8827W        W75258  42.736  26.962  13.962
 8828W        W75259  17.170  25.556   0.030
 8829W        W75260  28.103  21.638  10.957
 8830W        W75261  28.652   8.117   1.131
 8831W        W75262   1.817   9.822   2.597
 8832W        W75263  44.967  22.372   1.265
 8833W        W75264   1.424  27.914  11.134
 8834W        W75265  15.063  41.411   0.496
 8835W        W75266  31.697   7.261  10.438
 8836W        W75267   6.120   2.698  12.081
 8837W        W75268  13.682   8.372  14.341
 8838W        W75269  33.578  29.626   0.250
 8839W        W75270  27.720  21.217  14.932
 8840W        W75271  26.111  23.235  12.903
 8841W        W75272  42.787  21.304   1.440
 8842W        W75273  43.218  20.068   0.869
 8843W        W75274  43.519  19.712  11.075
 8844W        W75275  15.373  28.196   4.157
 8845W        W75276   4.853  31.913  12.552
 8846W        W75277  20.360  24.197   0.278
 8847W        W75278  40.341   8.641   3.229
 8848W        W75279  40.915   9.733   0.023
 8849W        W75280  19.200   0.000  14.342
 8850W        W75281  35.419  31.399   2.327
 8851W        W75282  41.083   3.057  12.459
 8852W        W75283  27.657   3.595  10.270
 8853W        W75284  31.340  14.650   3.559
 8854W        W75285  32.220  24.629   2.767
 8855W        W75286   6.895  40.421  13.373
 8856W        W75287  42.817  31.415   2.387
 8857W        W75288  38.096  14.621   1.950
 8858W        W75289  34.614  28.199  12.221
 8859W        W75290  26.746  31.698   0.024
 8860W        W75291  22.162  43.452   5.796
 8861W        W75292  30.117  22.201   0.256
 8862W        W75293  40.024  21.545   0.347
 8863W        W75294  22.750  10.946   1.654
 8864W        W75295  16.574  24.025  14.605
 8865W        W75296  30.593  12.800  12.044
 8866W        W75297   3.376  26.191   4.516
 8867W        W75298  30.667   3.936  14.943
 8868W        W75299  41.909  33.241   3.853
 8869W        W75300   8.822  27.616   4.821
 8870W        W75301  28.634  39.675   2.655
 8871W        W75302  28.253  21.730   1.931
 8872W        W75303  15.862  31.714   0.706
 8873W        W75304  30.199  39.973  10.799
 8874W        W75305  10.323  20.170  12.081
 8875W        W75306  35.440  18.385   4.539
 8876W        W75307   5.036  25.956  12.260
 8877W        W75308  24.433  38.280   5.381
 8878W        W75309  10.799  43.329  13.163
 8879W        W75310  23.249  22.769  12.837
 8880W        W75311   0.208  24.747  14.507
 8881W        W75312  39.497  42.357  11.476
 8882W        W75313  12.203  16.602  13.862
 8883W        W75314  13.473  24.709   2.744
 8884W        W75315  12.332  27.400  13.805
 8885W        W75316   3.813   6.284   2.886
 8886W        W75317  30.049  34.697  13.576
 8887W        W75318  27.208  12.167   3.654
 8888W        W75319  15.443  44.238  10.824
 8889W        W75320  23.955  22.290   4.458
 8890W        W75321  38.674  15.272   3.683
 8891W        W75322  27.074  38.871  10.616
 8892W        W75323   3.561   6.401  13.866
 8893W        W75324   1.622  29.276   4.131
 8894W        W75325   2.437  23.613   0.232
 8895W        W75326   0.283   9.208  10.635
 8896W        W75327   5.990   1.489  13.956
 8897W        W75328  28.380   9.406  11.001
 8898W        W75329  19.174   1.193  10.524
 8899W        W75330  42.976  19.852   2.710
 8900W        W75331   2.879  20.483  12.800
 8901W        W75332  37.928  28.679  13.299
 8902W        W75333  42.532  31.980  14.856
 8903W        W75334  37.321  22.715  13.799
 8904W        W75335  33.357   0.754   1.387
 8905W        W75336  24.620  37.837  12.128
 8906W        W75337  19.059  44.043   3.391
 8907W        W75338  41.442  36.574  13.009
 8908W        W75339  10.351  21.209  14.297
 8909W        W75340   3.835  26.685  13.874
 8910W        W75341  32.366   2.864  14.720
 8911W        W75342  44.809  26.467   2.401
 8912W        W75343  23.141  42.523  11.569
 8913W        W75344  41.482  29.698   4.088
 8914W        W75345  29.463  29.602   3.619
 8915W        W75346   8.850  38.815   3.600
 8916W        W75347  21.055   0.195   2.842
 8917W        W75348  43.812  36.351   3.751
 8918W        W75349  19.486  21.257  13.535
 8919W        W75350  36.311  36.015   2.810
 8920W        W75351  20.505  11.171  10.597
 8921W        W75352  14.300   0.054  10.970
 8922W        W75353  31.494  37.983   0.390
 8923W        W75354  17.638  10.448   1.922
 8924W        W75355  42.883  32.315   1.367
 8925W        W75356  38.809  14.488   4.978
 8926W        W75357   8.847   5.388  11.021
 8927W        W75358  16.829  32.674  13.770
 8928W        W75359  37.461  10.428   5.041
 8929W        W75360  11.154   4.419   2.322
 8930W        W75361  24.077  25.030   0.658
 8931W        W75362   8.276  16.783   2.651
 8932W        W75363  26.164  16.175  11.757
 8933W        W75364  37.334  18.998  11.001
 8934W        W75365  22.923  10.723  11.792
 8935W        W75366  16.239  11.853   2.285
 8936W        W75367  41.053   9.348   4.833
 8937W        W75368   0.296  30.991  12.458
 8938W        W75369  10.817  39.554  14.011
 8939W        W75370  30.072   2.695   1.453
 8940W        W75371  30.980  27.718  11.904
 8941W        W75372  30.683  16.527   4.866
 8942W        W75373  30.062  33.098   2.926
 8943W        W75374   7.318  32.725  11.648
 8944W        W75375  21.806  25.223   0.492
 8945W        W75376  43.086  28.535   4.464
 8946W        W75377   5.285  40.966   2.278
 8947W        W75378  10.096  18.832   1.435
 8948W        W75379  25.169  33.261   3.805
 8949W        W75380  39.501  35.254   0.679
 8950W        W75381  25.781  26.667  14.473
 8951W        W75382  32.334  31.978   2.604
 8952W        W75383  33.052  11.694   0.461
 8953W        W75384  32.137   7.380   5.198
 8954W        W75385   5.421   4.434   0.880
 8955W        W75386  30.407   3.943   0.411
 8956W        W75387   6.271  36.891   1.283
 8957W        W75388  13.024  27.535  14.320
 8958W        W75389  35.296  29.069   1.122
 8959W        W75390   7.981  10.681   1.354
 8960W        W75391  10.844  27.451   2.357
 8961W        W75392  20.681  29.754  12.660
 8962W        W75393  44.270  31.928   2.094
 8963W        W75394  20.023  28.684  14.309
 8964W        W75395   6.197  34.602   1.963
 8965W        W75396  19.819  18.533  14.956
 8966W        W75397  27.900  21.698   3.226
 8967W        W75398   8.150   8.229  12.452
 8968W        W75399  19.826  26.056   1.262
 8969W        W75400  32.836  30.515   3.761
 8970W        W75401  32.760  32.592   9.824
 8971W        W75402  16.243   1.929  13.086
 8972W        W75403  36.821  31.034   2.164
 8973W        W75404  14.871   1.282   0.424
 8974W        W75405  21.489  31.729  12.473
 8975W        W75406  12.486   9.643  12.410
 8976W        W75407  14.049  16.204  11.409
 8977W        W75408  12.584  33.464  12.795
 8978W        W75409   1.827  14.416  12.526
 8979W        W75410  43.093  21.552  11.853
 8980W        W75411  29.893   3.657  14.083
 8981W        W75412  37.996  42.507   0.314
 8982W        W75413   9.392  16.558   3.345
 8983W        W75414  23.495   8.061  11.071
 8984W        W75415  14.800  18.317  13.842
 8985W        W75416  44.759  10.766  13.074
 8986W        W75417  27.082  27.216   0.430
 8987W        W75418   9.699   2.492  14.971
 8988W        W75419  11.717  17.640   1.541
 8989W        W75420  17.735  27.016  13.791
 8990W        W75421  26.053  42.678  13.903
 8991W        W75422  18.610   5.211  11.512
 8992W        W75423  28.208   4.299   2.357
 8993W        W75424  15.086  15.528   5.073
 8994W        W75425  37.981  43.050   2.548
 8995W        W75426  43.998   5.422  12.931
 8996W        W75427   4.964  18.040  10.912
 8997W        W75428  35.491  14.280   0.048
 8998W        W75429  39.875   4.289  11.124
 8999W        W75430  42.938  43.876   0.382
 9000W        W75431  14.550  35.259   1.453
 9001W        W75432   4.789  26.939  14.850
 9002W        W75433  35.068  34.787  14.749
 9003W        W75434  32.547   5.830   3.823
 9004W        W75435   5.325   0.871   0.970
 9005W        W75436   1.405   0.016  11.453
 9006W        W75437  42.291  36.049  11.607
 9007W        W75438  43.279   6.747   3.133
 9008W        W75439  41.758   3.829  10.608
 9009W        W75440   7.844  32.392   0.569
 9010W        W75441  29.168  40.317  12.492
 9011W        W75442  18.150  42.003  11.569
 9012W        W75443  15.367  24.955   0.370
 9013W        W75444  42.450  40.856   1.926
 9014W        W75445  28.090  19.486  11.663
 9015W        W75446  27.143  38.367  10.437
 9016W        W75447  40.106  12.848  11.211
 9017W        W75448   8.600  26.500   1.835
 9018W        W75449  37.138  32.218   3.223
 9019W        W75450  21.365  42.939  10.530
 9020W        W75451  10.088  27.884  13.889
 9021W        W75452  27.619  41.794  11.568
 9022W        W75453  14.245  32.709  11.124
 9023W        W75454   0.709   1.985  14.398
 9024W        W75455  12.746  31.516   2.897
 9025W        W75456  43.560  42.249  12.100
 9026W        W75457  42.477  18.764  12.537
 9027W        W75458  43.227  29.503   1.186
 9028W        W75459   1.717   6.980   1.908
 9029W        W75460  38.621   9.721   1.018
 9030W        W75461  32.603  23.798   4.112
 9031W        W75462  40.798  27.482   2.853
 9032W        W75463  26.626  17.753   2.683
 9033W        W75464   7.964  37.420   3.182
 9034W        W75465  43.182  29.939  14.505
 9035W        W75466  42.221  15.210  12.556
 9036W        W75467   1.268  26.880   0.409
 9037W        W75468   5.711  22.157   4.626
 9038W        W75469   6.188  37.017   4.046
 9039W        W75470   0.191  43.214   3.523
 9040W        W75471  15.220  25.999   3.458
 9041W        W75472   5.146  39.932   2.612
 9042W        W75473  14.757   0.012   3.172
 9043W        W75474  22.844  10.363  12.136
 9044W        W75475  18.351  14.245   2.711
 9045W        W75476  15.466   8.335   5.114
 9046W        W75477  30.363  39.279   2.260
 9047W        W75478  29.717   4.643  13.580
 9048W        W75479  38.116   5.920   3.911
 9049W        W75480  40.627  27.760  10.111
 9050W        W75481  29.909  32.348  12.584
 9051W        W75482  31.100  37.822  12.058
 9052W        W75483  42.260   8.418  10.877
 9053W        W75484  37.406  31.422  11.658
 9054W        W75485   2.733  34.941  10.553
 9055W        W75486  33.075  16.407  10.577
 9056W        W75487  12.580  28.152   0.996
 9057W        W75488  25.615  44.800  14.844
 9058W        W75489   8.266  12.674   3.190
 9059W        W75490  20.400  30.466   5.488
 9060W        W75491  38.386  27.778  13.881
 9061W        W75492  25.059  17.476   1.510
 9062W        W75493  32.700  43.049  10.738
 9063W        W75494  27.175  27.484  14.542
 9064W        W75495  19.805  19.707  12.671
 9065W        W75496  43.427  37.131  10.655
 9066W        W75497   1.392  39.838   4.552
 9067W        W75498  35.452   8.098   0.012
 9068W        W75499   6.253  12.025  14.406
 9069W        W75500   3.289  21.226  14.474
 9070W        W75501  15.806  19.639  13.307
 9071W        W75502  28.773  41.294  13.746
 9072W        W75503  42.895  28.779   0.478
 9073W        W75504   8.707   2.162   2.373
 9074W        W75505  43.419  26.090   1.656
 9075W        W75506   6.635   1.815   0.860
 9076W        W75507  19.091   7.417  13.879
 9077W        W75508   2.281   4.371   3.774
 9078W        W75509   7.843  38.093   2.871
 9079W        W75510  26.052   6.669   2.452
 9080W        W75511  23.483  31.074   4.394
 9081W        W75512  18.160  37.500  12.206
 9082W        W75513  10.374  31.761   0.542
 9083W        W75514   7.832  20.494  14.513
 9084W        W75515  36.803  40.359   2.132
 9085W        W75516  29.057   2.388  12.538
 9086W        W75517   5.326  23.476  11.508
 9087W        W75518  23.590  33.463   0.109
 9088W        W75519   8.882  11.713   2.595
 9089W        W75520  24.789   5.391  11.042
 9090W        W75521  17.607  17.534   4.337
 9091W        W75522  44.515  37.062   0.768
 9092W        W75523  19.781   5.793   0.004
 9093W        W75524  26.088  18.031  12.871
 9094W        W75525  19.270   2.662   2.183
 9095W        W75526   2.934  11.325  14.945
 9096W        W75527  24.665  36.044   3.738
 9097W        W75528  18.730  39.367  12.212
 9098W        W75529  17.473  32.790   1.266
 9099W        W75530  36.140  26.537  14.789
 9100W        W75531   9.912  38.266   0.677
 9101W        W75532  31.586  44.023   2.250
 9102W        W75533  12.555   6.926   4.404
 9103W        W75534  32.839   4.776   4.486
 9104W        W75535  10.333  20.812   4.570
 9105W        W75536  17.256   3.438  10.315
 9106W        W75537  17.017  10.083  10.166
 9107W        W75538  18.868  12.771  11.634
 9108W        W75539  42.216  10.573   2.481
 9109W        W75540  11.815  14.330  14.548
 9110W        W75541  11.853  22.166   2.294
 9111W        W75542  24.065  27.381  12.699
 9112W        W75543  42.202  26.441   1.977
 9113W        W75544  25.527  11.160   0.236
 9114W        W75545  33.936  20.737   5.018
 9115W        W75546   9.762  15.400   4.727
 9116W        W75547  33.883  44.524   4.087
 9117W        W75548   8.714  40.323  10.564
 9118W        W75549  26.914   9.670   0.445
 9119W        W75550  39.500   2.994   3.217
 9120W        W75551  26.968  22.062  12.504
 9121W        W75552  28.195  11.766   3.726
 9122W        W75553  18.163   8.297   1.732
 9123W        W75554   2.386   5.392  14.072
 9124W        W75555  27.950  44.519  13.565
 9125W        W75556  31.193  24.615  14.805
 9126W        W75557  27.724  15.690   1.827
 9127W        W75558  31.638   8.742  12.975
 9128W        W75559  12.185  13.593   2.901
 9129W        W75560  33.657  23.634  13.054
 9130W        W75561   3.800  25.996   4.125
 9131W        W75562  32.480  32.592   0.891
 9132W        W75563  35.597  13.267   2.214
 9133W        W75564  24.495  10.362  12.444
 9134W        W75565  29.574  15.065   4.259
 9135W        W75566   6.656  42.784  13.583
 9136W        W75567  10.848   5.967  11.969
 9137W        W75568  38.109  28.704  11.299
 9138W        W75569  35.257   8.011   0.830
 9139W        W75570  35.594  33.939   1.847
 9140W        W75571   1.333   6.084  13.834
 9141W        W75572  12.423   3.921  11.581
 9142W        W75573  38.491  36.246  14.451
 9143W        W75574  20.261  35.303  12.044
 9144W        W75575   1.251   3.765   3.757
 9145W        W75576  40.351  40.848  11.562
 9146W        W75577  39.898  31.136   4.840
 9147W        W75578   4.936  42.858   3.624
 9148W        W75579  40.214  44.377   1.958
 9149W        W75580  26.636  26.599   0.056
 9150W        W75581  31.991  14.659  11.236
 9151W        W75582  14.166   7.362  10.470
 9152W        W75583  21.981  15.725  14.079
 9153W        W75584  15.849   6.523   3.768
 9154W        W75585  30.547  21.423  11.591
 9155W        W75586  29.001  12.852  12.415
 9156W        W75587  37.996  11.590   2.225
 9157W        W75588  23.702  16.349   3.220
 9158W        W75589  33.611   6.644  13.470
 9159W        W75590  15.059  16.379  14.579
 9160W        W75591   6.657  42.525  11.945
 9161W        W75592   9.777   8.969   1.205
 9162W        W75593  30.831  10.963  12.434
 9163W        W75594  32.574  17.761   2.402
 9164W        W75595   9.689   4.759  11.208
 9165W        W75596  15.030  27.537   0.454
 9166W        W75597  32.533  16.607  10.494
 9167W        W75598  37.888  33.726   4.547
 9168W        W75599  22.198  25.552   3.895
 9169W        W75600  34.151  12.179   2.801
 9170W        W75601  27.982  42.454  10.458
 9171W        W75602  25.475  33.866   2.244
 9172W        W75603  39.917   3.013   4.280
 9173W        W75604   5.444  36.321   3.276
 9174W        W75605   3.426  34.081   2.794
 9175W        W75606  17.125   0.939  10.681
 9176W        W75607  37.140  26.529  12.531
 9177W        W75608  14.094  16.611   0.880
 9178W        W75609   6.241  38.429  11.667
 9179W        W75610  44.373  30.474  10.049
 9180W        W75611   3.519  10.545   1.996
 9181W        W75612  41.617  27.945   4.082
 9182W        W75613   4.157  14.988   1.331
 9183W        W75614  22.163  24.638  10.713
 9184W        W75615  18.238  15.233   0.406
 9185W        W75616  33.683   0.931  12.853
 9186W        W75617  14.521   4.246  14.618
 9187W        W75618  42.600  18.059  10.654
 9188W        W75619   1.892  11.874  12.425
 9189W        W75620   2.227   5.724   1.905
 9190W        W75621  19.247  38.388   4.550
 9191W        W75622   1.780  20.083   3.111
 9192W        W75623   5.436  44.873  13.385
 9193W        W75624  10.905  32.100  14.904
 9194W        W75625  21.900  35.555  11.018
 9195W        W75626  34.598   2.745  13.354
 9196W        W75627  26.979  31.573  14.041
 9197W        W75628   5.909  37.369   4.335
 9198W        W75629  22.003  41.837   2.740
 9199W        W75630   8.069   4.215  11.130
 9200W        W75631  22.362  14.668   4.593
 9201W        W75632  37.396  19.783   3.299
 9202W        W75633  41.500  16.230  14.935
 9203W        W75634  24.750  12.083   0.614
 9204W        W75635  39.616   9.241   3.150
 9205W        W75636   0.059   1.835  10.977
 9206W        W75637  19.749  19.079  13.177
 9207W        W75638  14.140  44.662   3.382
 9208W        W75639   2.810  41.864   4.433
 9209W        W75640  13.916  28.062   4.430
 9210W        W75641   8.094   7.296   1.364
 9211W        W75642   6.773   8.897  13.833
 9212W        W75643  32.527  29.191  14.883
 9213W        W75644  27.212   7.149   2.424
 9214W        W75645  33.177  28.354   2.370
 9215W        W75646  27.014  18.588   3.271
 9216W        W75647  19.120   4.768  14.781
 9217W        W75648  26.963  34.794  13.612
 9218W        W75649  43.275  37.885   2.198
 9219W        W75650  25.098  26.139  14.828
 9220W        W75651  32.147  31.910  13.938
 9221W        W75652  33.822   0.348   3.101
 9222W        W75653  31.416   5.032   2.752
 9223W        W75654  40.780  22.258  14.842
 9224W        W75655  11.700  18.314  11.091
 9225W        W75656   3.050  15.506   2.726
 9226W        W75657   8.756  33.384  11.603
 9227W        W75658  11.623  12.683   1.676
 9228W        W75659  32.318  41.432   4.297
 9229W        W75660  40.100  28.577  12.098
 9230W        W75661  23.605  32.925  12.445
 9231W        W75662   4.167  35.642  14.384
 9232W        W75663   3.016  19.795  11.985
 9233W        W75664  17.806   4.471  13.155
 9234W        W75665  33.392  21.183  11.883
 9235W        W75666  33.841  33.608   1.920
 9236W        W75667  12.420  20.146  13.053
 9237W        W75668  40.347  12.642  12.495
 9238W        W75669  15.131  19.233  14.833
 9239W        W75670  34.002  30.425  13.419
 9240W        W75671   9.956  31.937   4.578
 9241W        W75672  27.488  44.440  10.343
 9242W        W75673  32.024  14.239  10.912
 9243W        W75674  38.720  23.541  14.912
 9244W        W75675  44.362  39.127   3.157
 9245W        W75676  15.383  33.208   0.881
 9246W        W75677  19.370  40.140   5.060
 9247W        W75678   5.387  20.759   3.614
 9248W        W75679  33.223  34.815   1.451
 9249W        W75680  18.166  24.997  14.667
 9250W        W75681  36.000  14.771   1.171
 9251W        W75682  22.788  32.221  13.477
 9252W        W75683  24.677  18.762  13.804
 9253W        W75684  29.921  21.183   1.821
 9254W        W75685  18.275  42.315  11.173
 9255W        W75686   2.763  44.556   0.211
 9256W        W75687  19.588  34.525   4.364
 9257W        W75688  37.065  18.133   3.268
 9258W        W75689  38.360  42.648   0.684
 9259W        W75690  34.590   1.196   4.547
 9260W        W75691  35.799  16.126  11.603
 9261W        W75692  43.877   7.740  10.670
 9262W        W75693  13.074  35.037  14.578
 9263W        W75694   0.525  26.830  11.646
 9264W        W75695   5.769   7.269   2.147
 9265W        W75696  38.840  35.057   3.234
 9266W        W75697  44.899  43.443  14.901
 9267W        W75698  13.306  44.239  11.622
 9268W        W75699  22.673   5.615   2.876
 9269W        W75700  12.152  12.050  11.698
 9270W        W75701  18.452   8.375  11.139
 9271W        W75702   1.893  25.302   4.799
 9272W        W75703  40.305  38.356   3.193
 9273W        W75704   3.421  29.196   4.318
 9274W        W75705  41.909  28.199  11.726
 9275W        W75706   4.241  25.007   0.940
 9276W        W75707  16.774  42.534  11.989
 9277W        W75708  18.469  12.553  14.884
 9278W        W75709  43.427  39.350   2.097
 9279W        W75710  37.309  21.856  13.062
 9280W        W75711  41.030  44.524  10.478
 9281W        W75712   5.285  34.586   3.550
 9282W        W75713  39.836  12.033  13.545
 9283W        W75714  10.661   9.743  11.977
 9284W        W75715  12.293   6.484   3.146
 9285W        W75716  36.028  14.227   2.026
 9286W        W75717  35.106  37.079  14.825
 9287W        W75718  27.321   1.459  12.008
 9288W        W75719  14.502  21.232   3.741
 9289W        W75720  34.937  44.081   2.885
 9290W        W75721   7.546  13.464  11.202
 9291W        W75722  25.925  40.310   1.376
 9292W        W75723  44.709  17.397   1.282
 9293W        W75724  31.990  37.303   1.848
 9294W        W75725   5.409   2.892   0.203
 9295W        W75726  36.868  38.045  13.737
 9296W        W75727  44.249  25.293   5.159
 9297W        W75728  11.152  20.847  11.270
 9298W        W75729  12.051  44.928  10.442
 9299W        W75730  40.760  11.679  10.696
 9300W        W75731  13.184  14.326   4.155
 9301W        W75732  18.524  16.351  10.977
 9302W        W75733   8.282   9.313   4.224
 9303W        W75734  17.730  32.932   4.568
 9304W        W75735  10.198  17.739  14.859
 9305W        W75736  37.916   1.738  10.925
 9306W        W75737  32.704  27.936   4.087
 9307W        W75738  32.167  17.268   4.044
 9308W        W75739  39.999  36.364  13.084
 9309W        W75740  31.552  18.777  12.615
 9310W        W75741  14.427  19.068   2.345
 9311W        W75742  29.417  16.023  12.523
 9312W        W75743  43.774   2.069  14.293
 9313W        W75744  26.401   7.962  12.025
 9314W        W75745  25.677  20.278   0.306
 9315W        W75746   2.658  19.165  11.271
 9316W        W75747  23.916  40.516   2.354
 9317W        W75748  28.815  15.055  14.906
 9318W        W75749  41.363  22.966   2.401
 9319W        W75750  11.864  11.657  11.997
 9320W        W75751  36.756  12.624   0.418
 9321W        W75752   8.798  38.580  12.385
 9322W        W75753  41.467  27.219   2.175
 9323W        W75754  21.984   4.464   3.227
 9324W        W75755  28.049  19.014  13.495
 9325W        W75756  25.736  12.184   4.410
 9326W        W75757  14.429   9.641   4.558
 9327W        W75758  33.934  25.040  12.026
 9328W        W75759  44.448  25.705   3.201
 9329W        W75760  11.956  20.670  13.455
 9330W        W75761  16.216   1.878   4.399
 9331W        W75762  35.757  30.180   0.915
 9332W        W75763   6.709  44.895  12.655
 9333W        W75764   5.117  17.959   1.874
 9334W        W75765   0.055  21.005   0.464
 9335W        W75766  32.169  12.262  11.850
 9336W        W75767  31.565  39.124   1.028
 9337W        W75768  13.688  12.974   2.051
 9338W        W75769  17.522  26.013   0.910
 9339W        W75770  25.925  40.418   0.498
 9340W        W75771  29.665  10.906  13.954
 9341W        W75772  17.250  41.480   0.228
 9342W        W75773  26.720   8.455   0.955
 9343W        W75774  34.366   7.438  12.452
 9344W        W75775  14.612  10.423  14.749
 9345W        W75776  20.711  16.551  14.402
 9346W        W75777   9.786  25.550  10.715
 9347W        W75778  23.905   4.135   3.731
 9348W        W75779  17.089  28.927   1.609
 9349W        W75780  19.310   4.835  12.044
 9350W        W75781   2.399  23.586   3.149
 9351W        W75782  21.479  10.210   0.888
 9352W        W75783  37.394   9.054   1.526
 9353W        W75784  17.159  26.967   1.933
 9354W        W75785  18.817  20.085  11.605
 9355W        W75786  37.941   4.383   4.079
 9356W        W75787   4.757  16.571   3.387
 9357W        W75788  17.063  11.713   0.841
 9358W        W75789   2.138  41.129  14.945
 9359W        W75790   5.207  19.514  13.403
 9360W        W75791  15.320   7.110   0.479
 9361W        W75792  33.369  36.198   2.144
 9362W        W75793  13.853  18.959   1.275
 9363W        W75794   1.809   4.417  10.643
 9364W        W75795  33.322  35.883   4.144
 9365W        W75796  10.321   1.641   3.635
 9366W        W75797  26.491  18.624   0.868
 9367W        W75798  36.637   0.698  11.206
 9368W        W75799  17.850  24.490   1.334
 9369W        W75800  30.073  27.220   3.713
 9370W        W75801  35.985  37.368   3.665
 9371W        W75802  19.078   4.763   0.300
 9372W        W75803   1.391   4.231   1.278
 9373W        W75804  33.971   0.097  13.226
 9374W        W75805  43.289   5.188  13.368
 9375W        W75806  27.998  30.620  11.985
 9376W        W75807  39.321  40.966  12.969
 9377W        W75808   0.338  11.186  10.516
 9378W        W75809  19.151  32.470   0.179
 9379W        W75810  13.221  11.622   2.741
 9380W        W75811   3.874  21.215   3.998
 9381W        W75812  17.879  41.681   2.787
 9382W        W75813  26.553  20.651   0.904
 9383W        W75814  16.309  12.809   3.199
 9384W        W75815  37.966  30.545  11.675
 9385W        W75816  37.218  28.386  12.585
 9386W        W75817   6.667  11.059   2.794
 9387W        W75818  36.744  28.648   2.380
 9388W        W75819  10.278  26.742   1.376
 9389W        W75820  22.006  25.481  11.084
 9390W        W75821  42.076  21.572   1.850
 9391W        W75822  44.107  16.706  14.687
 9392W        W75823  33.181  15.261   3.318
 9393W        W75824  22.007  12.493   2.764
 9394W        W75825  22.026  36.473  14.409
 9395W        W75826  15.067   1.814  13.063
 9396W        W75827   2.352  22.591   4.555
 9397W        W75828  14.325  14.340   4.164
 9398W        W75829  21.510   6.186   2.265
 9399W        W75830  26.530  32.569   1.171
 9400W        W75831   7.800   2.980  12.833
 9401W        W75832   2.519  31.939   2.219
 9402W        W75833  34.996  18.293  14.393
 9403W        W75834  40.890  16.079  10.649
 9404W        W75835   2.451  27.131  13.403
 9405W        W75836  39.017  20.286  10.598
 9406W        W75837   9.955   1.476  11.578
 9407W        W75838   5.263   0.187  13.007
 9408W        W75839   3.441  43.263  13.646
 9409W        W75840  37.781   0.953  12.777
 9410W        W75841  34.530  25.518   4.958
 9411W        W75842  19.222  10.347   3.670
 9412W        W75843  18.532  40.354   3.398
 9413W        W75844  36.471   3.417  10.769
 9414W        W75845  33.874  18.097  12.311
 9415W        W75846  20.631  39.144   0.326
 9416W        W75847  33.873  26.940   2.192
 9417W        W75848  10.082   9.487  12.700
 9418W        W75849  17.626  33.425   0.590
 9419W        W75850  19.119  38.663  13.919
 9420W        W75851   4.402  35.515   1.794
 9421W        W75852  42.293  22.775  14.362
 9422W        W75853  39.532  25.394   4.663
 9423W        W75854  27.236  36.375   1.666
 9424W        W75855  28.664  33.834   3.094
 9425W        W75856  17.501  32.360   1.695
 9426W        W75857  22.940  33.320   4.147
 9427W        W75858  12.826   2.873   4.768
 9428W        W75859  36.435  41.417   2.315
 9429W        W75860  19.170  44.433   2.429
 9430W        W75861  36.864  37.661   2.809
 9431W        W75862  23.492  35.106   4.612
 9432W        W75863  18.692   7.716  13.015
 9433W        W75864   8.621  15.209  14.358
 9434W        W75865   7.559  36.356   1.102
 9435W        W75866   3.382   8.018  13.924
 9436W        W75867  24.823  15.015   4.125
 9437W        W75868  17.877  12.541  13.011
 9438W        W75869   6.443  12.325   2.194
 9439W        W75870  42.808  39.003   5.011
 9440W        W75871   1.330  13.147  11.714
 9441W        W75872   5.022  28.779  12.070
 9442W        W75873  26.062   9.489   3.168
 9443W        W75874  36.564   2.861   3.134
 9444W        W75875   9.783  22.330  13.591
 9445W        W75876  25.996   5.938  13.001
 9446W        W75877  34.466  15.094  14.767
 9447W        W75878   0.422  42.018  14.047
 9448W        W75879   6.261  29.529  14.556
 9449W        W75880  33.659  24.625   4.709
 9450W        W75881   8.803  41.683   3.087
 9451W        W75882  30.023  11.164   0.863
 9452W        W75883  10.415   4.435  14.322
 9453W        W75884   9.847   2.364   1.659
 9454W        W75885   3.548  40.777  14.020
 9455W        W75886  20.791  38.559   2.750
 9456W        W75887  21.163   0.792  10.977
 9457W        W75888   6.766   6.941  13.934
 9458W        W75889   8.071  13.152   4.365
 9459W        W75890  39.087  44.233  12.163
 9460W        W75891  11.579   3.349   4.608
 9461W        W75892  35.460  11.124  11.491
 9462W        W75893  16.180  32.840  10.395
 9463W        W75894  14.110  35.547   2.079
 9464W        W75895  12.815  25.526   1.989
 9465W        W75896  34.535  23.741   0.287
 9466W        W75897  38.239   3.001   1.702
 9467W        W75898  29.053  37.987  11.681
 9468W        W75899   8.694  20.109  14.257
 9469W        W75900  14.638  15.189   4.876
 9470W        W75901   2.829   5.888   3.648
 9471W        W75902   7.808  31.467   4.392
 9472W        W75903  26.970  34.562   3.847
 9473W        W75904  14.775  13.263  14.271
 9474W        W75905  35.140  31.954   0.423
 9475W        W75906  44.724  18.318  14.848
 9476W        W75907  27.563  29.706   1.495
 9477W        W75908  44.977  31.393  12.519
 9478W        W75909   0.046  31.854   2.813
 9479W        W75910  35.478   6.341   3.228
 9480W        W75911  34.982  19.670   1.319
 9481W        W75912  17.122  14.794   1.335
 9482W        W75913  20.113  15.108   3.064
 9483W        W75914  20.949   1.810  14.322
 9484W        W75915   3.685  19.851  10.732
 9485W        W75916  18.269  25.442  14.385
 9486W        W75917  21.650  29.592   0.329
 9487W        W75918   5.001   0.631  12.169
 9488W        W75919  20.679  27.198   1.822
 9489W        W75920  37.903   7.791  11.157
 9490W        W75921  22.207  27.132  12.067
 9491W        W75922  28.219  16.098   3.168
 9492W        W75923  35.393  17.715  12.486
 9493W        W75924  33.846  20.656  13.496
 9494W        W75925  16.638  25.173  11.615
 9495W        W75926  34.405   4.211   4.545
 9496W        W75927  12.072   8.546  11.144
 9497W        W75928  17.163   2.915  13.409
 9498W        W75929  20.541  19.979  13.985
 9499W        W75930  33.085  40.256   3.800
 9500W        W75931  29.172   2.873   5.160
 9501W        W75932  22.909  34.442  10.745
 9502W        W75933  36.437   1.517   3.382
 9503W        W75934  29.626   4.899   2.189
 9504W        W75935  13.090  44.989   1.451
 9505W        W75936  21.069  32.899   4.045
 9506W        W75937  20.031  16.000   3.605
 9507W        W75938   1.915  27.116   3.049
 9508W        W75939  44.828  21.670  14.303
 9509W        W75940  22.108  39.349  13.346
 9510W        W75941  11.397  20.059   4.491
 9511W        W75942  18.345  19.186  13.452
 9512W        W75943   2.816  10.921  10.653
 9513W        W75944  10.170  28.845  13.848
 9514W        W75945   8.744  10.789  12.334
 9515W        W75946  40.269   9.035  11.934
 9516W        W75947  28.725  12.156  12.973
 9517W        W75948  23.668  37.969   3.251
 9518W        W75949  36.319  40.916   1.618
 9519W        W75950  12.786  42.955  14.189
 9520W        W75951  36.155   0.873   3.235
 9521W        W75952  30.056   4.140  14.220
 9522W        W75953  34.202  19.268  14.823
 9523W        W75954  26.758  20.129   0.815
 9524W        W75955  41.346  21.286  11.162
 9525W        W75956  13.275  36.599  13.612
 9526W        W75957  24.194  18.235  11.411
 9527W        W75958  26.575  24.622  14.076
 9528W        W75959  26.538  29.155  11.497
 9529W        W75960  44.681  26.696  14.411
 9530W        W75961   1.783   3.723   3.647
 9531W        W75962  17.599  35.309  12.900
 9532W        W75963   0.195   9.909   0.364
 9533W        W75964  33.097  12.205   4.367
 9534W        W75965  20.137  20.039  11.471
 9535W        W75966  27.413   7.275   3.361
 9536W        W75967  29.235  22.676   0.941
 9537W        W75968   6.304  44.559  10.561
 9538W        W75969  19.127  22.645  13.064
 9539W        W75970  15.809  18.491   3.684
 9540W        W75971  23.111  27.494  12.095
 9541W        W75972   5.211  30.297   0.448
 9542W        W75973  28.138   9.769  11.259
 9543W        W75974  32.817  41.029  12.605
 9544W        W75975  27.540  37.260   0.026
 9545W        W75976   7.955  29.561   3.734
 9546W        W75977  24.667  27.276  13.830
 9547W        W75978   9.324  22.071  13.547
 9548W        W75979  35.534   6.956   2.605
 9549W        W75980  14.268  41.322  10.889
 9550W        W75981  32.273   1.060  12.930
 9551W        W75982   8.649  14.366   2.819
 9552W        W75983   9.165   8.716   1.042
 9553W        W75984  44.382   9.340  12.090
 9554W        W75985  28.780  41.024  10.979
 9555W        W75986  18.135   2.349  13.287
 9556W        W75987   8.056  29.047   3.284
 9557W        W75988  21.781  29.082  14.106
 9558W        W75989   5.770  37.313  12.187
 9559W        W75990  38.456   7.014  14.313
 9560W        W75991  20.432  36.630  11.354
 9561W        W75992  44.962  25.547  13.950
 9562W        W75993  38.811  12.615  14.315
 9563W        W75994   5.146  18.876   2.320
 9564W        W75995  24.718   5.550  11.526
 9565W        W75996  15.199   3.151   3.161
 9566W        W75997  37.965  14.429  11.605
 9567W        W75998  36.177  21.570  10.785
 9568W        W75999   4.303   3.040  11.817
 9569W        W76000  38.488  28.300  12.880
 9570W        W76001   1.019   2.828  13.877
 9571W        W76002  11.784  27.098   1.455
 9572W        W76003  26.373  23.383  12.058
 9573W        W76004  23.177  27.934   2.318
 9574W        W76005  43.925  33.462   3.921
 9575W        W76006  22.151  36.840  11.945
 9576W        W76007   0.724  16.359   2.691
 9577W        W76008  39.233   0.836   1.251
 9578W        W76009  44.806   9.189  13.307
 9579W        W76010  10.646  27.888   3.028
 9580W        W76011  32.566  24.430  12.730
 9581W        W76012   4.293  15.312   3.584
 9582W        W76013  12.205   4.769   3.679
 9583W        W76014  27.162  11.185  14.305
 9584W        W76015  15.679  34.475  11.338
 9585W        W76016  21.613   0.323  14.745
 9586W        W76017   0.798   4.954   4.157
 9587W        W76018  39.873  28.904  13.926
 9588W        W76019  10.765  42.912  13.630
 9589W        W76020  11.587   2.821  13.984
 9590W        W76021   0.010  23.913   2.232
 9591W        W76022   3.295  40.003  14.340
 9592W        W76023   3.675  44.446   0.400
 9593W        W76024  12.215  11.334  12.946
 9594W        W76025  16.174  40.883   4.897
 9595W        W76026  22.092  34.367   2.863
 9596W        W76027  40.722  41.038   0.253
 9597W        W76028  19.207  14.528   1.831
 9598W        W76029  26.344  10.153  14.315
 9599W        W76030  23.630   5.174  10.945
 9600W        W76031  37.998  11.168   0.743
 9601W        W76032  35.594  24.555   2.788
 9602W        W76033  27.470  14.101  12.539
 9603W        W76034   3.300  13.828  11.014
 9604W        W76035  20.970  18.099  11.571
 9605W        W76036  41.772   4.435  13.975
 9606W        W76037  33.034  11.719   0.970
 9607W        W76038  42.748  17.725   0.236
 9608W        W76039  43.659  30.735   2.898
 9609W        W76040  38.649  35.524  12.058
 9610W        W76041   0.932   6.307   5.067
 9611W        W76042   4.155   1.620  11.659
 9612W        W76043  10.414  42.921  10.459
 9613W        W76044  32.833  35.913   4.893
 9614W        W76045   5.855  42.874   2.614
 9615W        W76046   3.243  36.077   0.685
 9616W        W76047  19.064  37.009  11.168
 9617W        W76048  32.940  10.926   1.802
 9618W        W76049  27.181  33.573  14.792
 9619W        W76050  38.386  22.496  10.684
 9620W        W76051   5.016  29.994   2.100
 9621W        W76052   5.946  24.440  12.009
 9622W        W76053  13.862  41.941  11.524
 9623W        W76054  23.755  39.725  11.567
 9624W        W76055  24.510  11.191   4.071
 9625W        W76056  26.429  21.180  13.522
 9626W        W76057  28.155  38.945   3.695
 9627W        W76058  41.855  41.460  13.494
 9628W        W76059   1.235  35.937   2.738
 9629W        W76060  17.941  13.750   1.742
 9630W        W76061  27.410  19.351   4.349
 9631W        W76062  28.570  12.051  13.873
 9632W        W76063  11.057  10.998  11.703
 9633W        W76064  20.633   3.375   2.413
 9634W        W76065  36.982   4.942  11.623
 9635W        W76066  20.569  44.546  11.207
 9636W        W76067  43.409  19.313   2.197
 9637W        W76068   7.374   7.077   0.108
 9638W        W76069  23.662  44.305   4.348
 9639W        W76070  16.091   3.760   1.190
 9640W        W76071   7.803  30.081   2.576
 9641W        W76072  38.291  35.241  14.474
 9642W        W76073  16.088  24.211  12.319
 9643W        W76074  37.042  33.480   1.466
 9644W        W76075  13.277   9.683   3.240
 9645W        W76076  27.248  25.042  14.734
 9646W        W76077  32.405  19.293  12.409
 9647W        W76078  43.489  35.007  11.823
 9648W        W76079  29.240  41.398   2.400
 9649W        W76080  29.081  11.711   3.608
 9650W        W76081  21.518   1.428   4.574
 9651W        W76082  44.218  24.886  12.452
 9652W        W76083  20.527   5.264   3.079
 9653W        W76084  43.768   1.810  11.920
 9654W        W76085  29.524  31.558   0.428
 9655W        W76086  10.275  18.972  12.792
 9656W        W76087  24.819  44.266  13.012
 9657W        W76088  21.308   6.501   0.967
 9658W        W76089  27.663  43.186   4.684
 9659W        W76090   9.140  26.635   0.414
 9660W        W76091  37.972  32.877   1.290
 9661W        W76092   2.740   6.370  11.650
 9662W        W76093  23.038  12.199   0.956
 9663W        W76094  32.351  14.260  12.169
 9664W        W76095  31.043  26.663  14.224
 9665W        W76096  24.952  41.838  10.881
 9666W        W76097  22.332  29.075  11.030
 9667W        W76098  31.855  14.317  13.072
 9668W        W76099  13.035   8.232  11.099
 9669W        W76100  23.519  15.743   0.986
 9670W        W76101  34.875  34.999   1.207
 9671W        W76102  20.678   6.271   4.834
 9672W        W76103  25.996  39.871  13.407
 9673W        W76104   7.653  20.711   2.080
 9674W        W76105  15.896  10.475  14.540
 9675W        W76106  10.265  42.566  11.930
 9676W        W76107  35.659  20.036   1.276
 9677W        W76108   1.651  16.130   3.583
 9678W        W76109  23.604  13.592  14.940
 9679W        W76110   5.176  28.214  11.173
 9680W        W76111  23.302  15.151  14.026
 9681W        W76112  43.702  15.277   4.126
 9682W        W76113  33.297  10.053   1.564
 9683W        W76114  12.224  11.460  14.718
 9684W        W76115  24.152  36.120   1.248
 9685W        W76116   3.468  39.521  14.398
 9686W        W76117  44.761  20.078   1.775
 9687W        W76118  38.627  12.698  11.959
 9688W        W76119  15.618  41.870   0.736
 9689W        W76120   5.263  13.790   3.506
 9690W        W76121   1.417  22.964  14.333
 9691W        W76122  33.612  25.017  13.775
 9692W        W76123   1.107   7.156  10.818
 9693W        W76124  20.970  10.767  11.370
 9694W        W76125  13.313  22.604   4.415
 9695W        W76126  11.789  15.172  11.573
 9696W        W76127  30.402  26.673  13.369
 9697W        W76128   1.399   6.596   1.858
 9698W        W76129  17.245  42.489  13.803
 9699W        W76130   3.051  44.891   0.507
 9700W        W76131  20.732   1.837   1.320
 9701W        W76132  21.537  16.001  13.453
 9702W        W76133  41.745  20.090   2.068
 9703W        W76134  24.953  40.678   0.265
 9704W        W76135  39.961   4.100   2.382
 9705W        W76136  13.216   1.462  13.319
 9706W        W76137  18.041  37.017   4.767
 9707W        W76138  26.150  30.847   4.577
 9708W        W76139  22.815  17.040  11.008
 9709W        W76140   3.710  32.322   0.773
 9710W        W76141   5.825  14.875  12.672
 9711W        W76142  36.612  27.742   2.509
 9712W        W76143   2.964  32.484   0.204
 9713W        W76144  27.559   7.369  12.775
 9714W        W76145   7.778  43.272   1.403
 9715W        W76146  20.277  23.596  14.759
 9716W        W76147  26.777  25.482   4.069
 9717W        W76148   8.240  13.171   3.395
 9718W        W76149   2.910  39.032  10.193
 9719W        W76150  34.384  35.290   0.847
 9720W        W76151  36.315  39.441  12.941
 9721W        W76152   7.970  19.101  12.078
 9722W        W76153  40.004  37.332   2.761
 9723W        W76154   5.083   5.353  14.113
 9724W        W76155  35.610  36.677  12.301
 9725W        W76156   1.821  16.795  12.079
 9726W        W76157  11.333  35.843  11.430
 9727W        W76158  34.608  32.934  14.277
 9728W        W76159  25.048  40.320  12.101
 9729W        W76160   3.361  25.162   0.439
 9730W        W76161  42.382  23.029   0.453
 9731W        W76162  37.411   8.164   1.497
 9732W        W76163  38.513   9.083   3.198
 9733W        W76164  20.811  39.961   1.356
 9734W        W76165  24.763  36.990   2.312
 9735W        W76166  11.655  25.083  11.581
 9736W        W76167  20.201  25.067  11.537
 9737W        W76168  19.991  34.390   1.707
 9738W        W76169  33.616  35.073   3.763
 9739W        W76170   8.353  42.856  10.705
 9740W        W76171  28.663  12.943   4.870
 9741W        W76172   2.154  18.771  13.868
 9742W        W76173  21.575   7.679  11.610
 9743W        W76174   9.448  33.974  10.672
 9744W        W76175  17.210  15.495   0.465
 9745W        W76176  24.711   1.758   1.717
 9746W        W76177   3.707  21.940  12.552
 9747W        W76178   7.222  20.682  12.092
 9748W        W76179  41.427  24.534   3.586
 9749W        W76180  41.059  36.103   0.764
 9750W        W76181   9.711  31.791   3.136
 9751W        W76182   0.322  36.589  12.143
 9752W        W76183  17.194  24.628  11.973
 9753W        W76184  36.652  15.784  11.740
 9754W        W76185  29.587  15.180   1.935
 9755W        W76186   3.803  18.000  10.669
 9756W        W76187  42.597  12.819  11.961
 9757W        W76188  16.652   5.981  14.709
 9758W        W76189  18.325  22.494   4.094
 9759W        W76190   0.913   7.319   0.531
 9760W        W76191  28.469  20.760  11.819
 9761W        W76192  13.569   6.269  11.952
 9762W        W76193   4.488  26.186  12.997
 9763W        W76194   5.719  27.580   1.745
 9764W        W76195   3.510  37.032   4.320
 9765W        W76196  17.808  33.922   0.713
 9766W        W76197  13.350  40.517   2.313
 9767W        W76198  12.650   3.986  12.064
 9768W        W76199   7.738  29.093   3.726
 9769W        W76200   0.911  30.659   0.668
 9770W        W76201  30.257  24.118  12.256
 9771W        W76202   1.020  30.571   2.653
 9772W        W76203   6.522   8.790  12.536
 9773W        W76204  41.993  18.797  13.015
 9774W        W76205   3.054  10.147   1.471
 9775W        W76206  32.928  16.355  13.529
 9776W        W76207  26.040  16.074   4.041
 9777W        W76208  15.578  26.302  12.548
 9778W        W76209   5.813  40.994  10.556
 9779W        W76210  20.350  43.202  10.810
 9780W        W76211   7.206  19.752  12.402
 9781W        W76212  23.784   2.731   0.161
 9782W        W76213  18.440  11.560   0.775
 9783W        W76214  33.440  11.390   3.114
 9784W        W76215  36.709  32.192   4.531
 9785W        W76216  38.907   3.515   1.462
 9786W        W76217  12.575  25.445   2.978
 9787W        W76218  30.921  10.418  11.168
 9788W        W76219   1.735  40.881   3.645
 9789W        W76220  41.942  27.062  14.145
 9790W        W76221  18.438   7.394   0.285
 9791W        W76222  36.857  27.117   2.856
 9792W        W76223  29.143  16.564   0.782
 9793W        W76224  20.243  18.798  10.225
 9794W        W76225  30.447  19.161   2.358
 9795W        W76226  34.641   3.138  12.970
 9796W        W76227  25.600  38.353  12.829
 9797W        W76228  11.584  28.452  11.990
 9798W        W76229  33.574   3.210   3.159
 9799W        W76230  43.931  28.036   0.302
 9800W        W76231  22.049  18.044  13.810
 9801W        W76232  26.528  14.739   3.527
 9802W        W76233  35.962   9.226   4.589
 9803W        W76234  31.297  43.942   1.371
 9804W        W76235  28.515  19.210  13.324
 9805W        W76236   6.752   4.690   4.549
 9806W        W76237  25.972  26.202  14.646
 9807W        W76238  18.320   6.242  10.192
 9808W        W76239  40.959  26.074   2.750
 9809W        W76240  41.899  20.086  13.875
 9810W        W76241  29.567   6.843  11.391
 9811W        W76242  34.470  15.007   0.956
 9812W        W76243  31.630  12.007   0.315
 9813W        W76244  26.274  18.243   4.851
 9814W        W76245  38.517  27.252  13.874
 9815W        W76246  30.439  25.913  12.543
 9816W        W76247  11.919   0.957  11.695
 9817W        W76248   3.154  38.530  13.525
 9818W        W76249  24.664  18.124   1.292
 9819W        W76250  10.939  10.165  14.380
 9820W        W76251  10.256  30.542  14.304
 9821W        W76252  25.044  20.690  13.118
 9822W        W76253  38.424   2.537  13.424
 9823W        W76254  12.819  42.760   0.796
 9824W        W76255   6.186   9.648   3.311
 9825W        W76256  35.130  11.946  10.644
 9826W        W76257  24.410   6.783   0.929
 9827W        W76258  17.244  12.147  11.865
 9828W        W76259  43.724   8.005  13.855
 9829W        W76260  39.041  35.090  12.060
 9830W        W76261  31.185   0.574   3.792
 9831W        W76262  41.343  42.049  11.876
 9832W        W76263  20.818  17.563  12.142
 9833W        W76264  28.631  29.146   3.701
 9834W        W76265  13.633  37.137   1.224
 9835W        W76266   9.391  19.219   3.656
 9836W        W76267  35.570   8.982   2.853
 9837W        W76268  38.115  26.441  12.820
 9838W        W76269  38.023  36.404  10.038
 9839W        W76270   1.904  25.729   0.395
 9840W        W76271  39.976  39.429  13.507
 9841W        W76272  37.860  22.120  12.057
 9842W        W76273  26.536  35.094   2.974
 9843W        W76274   9.455  20.554   4.609
 9844W        W76275  18.574  31.129  14.314
 9845W        W76276   5.609  18.771  11.974
 9846W        W76277  33.833  31.783  14.462
 9847W        W76278  32.571   1.277   2.819
 9848W        W76279   1.885   4.390  11.983
 9849W        W76280  16.163   9.761   2.705
 9850W        W76281  29.518   3.401  14.346
 9851W        W76282  41.560  31.272  10.702
 9852W        W76283  41.761  26.515   4.550
 9853W        W76284  35.424  28.860  11.936
 9854W        W76285   5.948  13.296  14.242
 9855W        W76286   4.415  34.061  11.202
 9856W        W76287  12.876  37.925  10.872
 9857W        W76288  11.330  42.501  13.333
 9858W        W76289   0.410  35.868  11.413
 9859W        W76290  30.602   7.814   0.769
 9860W        W76291   1.299  36.097   1.840
 9861W        W76292  37.890   9.905   3.792
 9862W        W76293  23.952  31.441   0.040
 9863W        W76294  30.166   3.750  12.122
 9864W        W76295   7.156  25.129   2.263
 9865W        W76296  39.475  39.127   0.312
 9866W        W76297  26.049  43.788   0.378
 9867W        W76298  37.944  34.418   0.858
 9868W        W76299  21.244   6.627   2.263
 9869W        W76300   2.679  35.371   3.563
 9870W        W76301  13.467   0.061  12.036
 9871W        W76302  43.172  17.562  11.527
 9872W        W76303  29.158  27.755   2.827
 9873W        W76304   6.707  36.415  11.886
 9874W        W76305  20.135  38.133   0.059
 9875W        W76306  21.930  44.521  14.633
 9876W        W76307  11.861   6.679  11.571
 9877W        W76308  32.564  29.047  12.925
 9878W        W76309  37.440  41.312  12.111
 9879W        W76310  25.053   1.807  12.202
 9880W        W76311  36.103  10.275  12.981
 9881W        W76312  18.755   4.504   1.716
 9882W        W76313  29.566  41.332  12.558
 9883W        W76314  13.826  21.704  12.860
 9884W        W76315   2.352  22.573  11.597
 9885W        W76316  35.868  16.184   1.245
 9886W        W76317  42.471  26.940   4.015
 9887W        W76318  11.633  42.030  13.414
 9888W        W76319  41.478   8.772  13.422
 9889W        W76320  17.475  43.532   4.667
 9890W        W76321   7.781  26.847  10.192
 9891W        W76322   2.022  12.127   0.174
 9892W        W76323  30.958  16.606  13.691
 9893W        W76324  11.583   7.811   0.699
 9894W        W76325  31.914  13.294  13.947
 9895W        W76326  27.069   4.918  14.731
 9896W        W76327  19.573  15.802   3.488
 9897W        W76328  26.660  31.605   4.143
 9898W        W76329   8.295  16.001   0.391
 9899W        W76330  42.594  34.535  12.554
 9900W        W76331  13.220  31.202   0.426
 9901W        W76332  10.061   6.228  12.021
 9902W        W76333  21.395  19.994   0.354
 9903W        W76334  33.415  38.861  11.229
 9904W        W76335  32.954  41.920  12.633
 9905W        W76336   1.670  37.721   2.276
 9906W        W76337  33.121  43.320  12.681
 9907W        W76338  19.803  12.370  13.645
 9908W        W76339  28.189   8.402  11.098
 9909W        W76340  17.673  44.387  12.838
 9910W        W76341   4.831  21.538   0.807
 9911W        W76342   5.893   7.671   1.770
 9912W        W76343   2.331   0.248   2.250
 9913W        W76344  37.331  37.353  10.822
 9914W        W76345  42.065  40.518   4.647
 9915W        W76346  16.857   2.740   3.845
 9916W        W76347  20.823  21.662  14.327
 9917W        W76348  29.554   4.658   1.310
 9918W        W76349  14.634   0.777   2.359
 9919W        W76350   9.758  34.990   1.508
 9920W        W76351   7.275  18.371  12.375
 9921W        W76352  26.139  39.419  11.002
 9922W        W76353   3.844  29.833   0.752
 9923W        W76354  13.250  21.443   3.320
 9924W        W76355  38.244  22.026  14.490
 9925W        W76356  17.681   2.439  11.560
 9926W        W76357  24.071  15.875   2.308
 9927W        W76358  14.480  12.227   3.405
 9928W        W76359  20.172  27.564  13.153
 9929W        W76360  34.090  44.980  13.722
 9930W        W76361  37.264  37.663   5.380
 9931W        W76362  39.771  28.423   4.035
 9932W        W76363   3.234  20.650  13.310
 9933W        W76364  14.538  26.498   1.315
 9934W        W76365  21.952  11.442  12.141
 9935W        W76366  43.813  29.871  12.613
 9936W        W76367  22.443  22.174   2.320
 9937W        W76368  21.508  23.475  14.074
 9938W        W76369  12.387  33.618  10.565
 9939W        W76370  23.426   1.234   4.523
 9940W        W76371  37.491   4.456  14.610
 9941W        W76372  25.170  24.578  13.546
 9942W        W76373  21.607   7.573   3.348
 9943W        W76374  36.961  33.340  11.006
 9944W        W76375  31.128  31.327   3.916
 9945W        W76376  26.586   6.258  11.702
 9946W        W76377   2.265   4.644  10.529
 9947W        W76378  14.159  37.416   2.210
 9948W        W76379   4.565   9.361  13.992
 9949W        W76380   7.818   6.367  10.326
 9950W        W76381  13.749  44.145  12.422
 9951W        W76382  30.412  11.245  14.463
 9952W        W76383  25.180  44.941   4.120
 9953W        W76384  26.026  27.171   3.900
 9954W        W76385   9.516  31.588   2.695
 9955W        W76386  23.989   7.273   1.660
 9956W        W76387  13.470  16.071   1.411
 9957W        W76388  35.622  26.425  14.835
 9958W        W76389  40.990   0.133   4.097
 9959W        W76390  22.577  10.927   0.747
 9960W        W76391  17.222  42.307   4.494
 9961W        W76392  29.460  16.077  14.464
 9962W        W76393  43.506  29.562  10.951
 9963W        W76394   6.197  38.468   0.348
 9964W        W76395  22.617  38.793   2.360
 9965W        W76396   0.285  10.181   3.367
 9966W        W76397   2.949  23.632   0.291
 9967W        W76398  35.016  12.191   3.732
 9968W        W76399  16.203  37.781   1.739
 9969W        W76400   9.216  30.645  10.748
 9970W        W76401  35.930   5.995   3.212
 9971W        W76402   2.944   4.499  13.031
 9972W        W76403  43.595  12.221   4.126
 9973W        W76404  33.586  12.073  10.843
 9974W        W76405  35.379  19.778  11.760
 9975W        W76406  10.183   7.773   4.522
 9976W        W76407   4.898  29.449   3.216
 9977W        W76408   7.148  17.659   1.346
 9978W        W76409   6.926  39.902   2.386
 9979W        W76410   7.788  28.119   3.691
 9980W        W76411  40.408  18.758   2.207
 9981W        W76412  42.373  25.172   1.372
 9982W        W76413  27.359  18.727  11.018
 9983W        W76414  34.113   6.043  10.767
 9984W        W76415  32.544  20.311   0.922
 9985W        W76416  34.339  40.356  12.172
 9986W        W76417  31.033  19.196  14.011
 9987W        W76418   5.727  19.574   0.878
 9988W        W76419  38.942   3.415  13.182
 9989W        W76420  40.770  41.202  13.787
 9990W        W76421  23.345   4.736   4.512
 9991W        W76422  30.914  13.210   3.728
 9992W        W76423  31.050  33.546   1.450
 9993W        W76424  43.918  18.116  14.534
 9994W        W76425  12.642   5.021   3.726
 9995W        W76426  24.034  42.204   0.316
 9996W        W76427  29.588   9.102  14.355
 9997W        W76428  23.874  21.665  14.073
 9998W        W76429  26.898   9.431  12.476
 9999W        W76430  10.908  38.541   2.612
10000W        W76431  21.635  21.209  12.856
10001W        W76432   1.399  17.481  11.640
10002W        W76433  10.310   6.239   1.932
10003W        W76434  11.792   8.937   4.144
10004W        W76435   1.380  11.399  11.962
10005W        W76436  37.602  31.364   1.837
10006W        W76437  40.706  27.292   0.569
10007W        W76438  18.300  40.748   1.771
10008W        W76439  35.299   3.755  12.040
10009W        W76440  20.247  24.206  11.043
10010W        W76441   7.252  16.023   0.249
10011W        W76442  18.764  31.717   3.229
10012W        W76443  22.578  20.151   0.952
10013W        W76444   2.133  19.785  12.840
10014W        W76445   6.440  40.357  11.062
10015W        W76446   3.388  18.278  13.793
10016W        W76447   7.309  37.222  12.567
10017W        W76448  27.192  37.561   4.288
10018W        W76449   1.873  26.162   4.586
10019W        W76450  38.534  38.937   0.223
10020W        W76451  19.680   1.534  12.159
10021W        W76452   8.734  33.215   2.115
10022W        W76453  35.113  31.743  14.558
10023W        W76454   2.396   1.218   1.336
10024W        W76455  42.375  10.640   0.848
10025W        W76456  34.295  32.768   0.922
10026W        W76457  41.891   6.438  12.447
10027W        W76458  23.977  35.121   4.780
10028W        W76459  39.873  25.175  13.354
10029W        W76460   4.325  32.112   0.820
10030W        W76461  41.492  27.537   0.303
10031W        W76462  32.021   4.405   2.206
10032W        W76463  20.080   3.695   3.636
10033W        W76464   5.982  27.655  11.833
10034W        W76465   3.070  44.418  10.691
10035W        W76466  41.040  41.953  10.866
10036W        W76467  42.215   9.106   3.630
10037W        W76468  23.125  17.691   9.715
10038W        W76469  24.007  43.554  12.546
10039W        W76470  44.214  18.461  14.809
10040W        W76471  19.948  42.714   4.206
10041W        W76472   8.128  30.115   1.214
10042W        W76473  39.720  18.421  13.806
10043W        W76474   6.210  24.807  12.857
10044W        W76475   0.994  15.003  10.782
10045W        W76476  24.601  23.183   2.294
10046W        W76477  39.020  21.484  11.721
10047W        W76478  31.333  10.036  11.162
10048W        W76479  12.856  22.725   4.637
10049W        W76480   3.692  12.311  14.447
10050W        W76481  36.817  21.754  12.960
10051W        W76482  13.293   5.411   0.988
10052W        W76483  24.393  11.479  13.254
10053W        W76484  25.076  37.364   0.054
10054W        W76485  25.452  24.767   1.319
10055W        W76486  24.733  25.512  12.094
10056W        W76487   5.829  19.224   2.728
10057W        W76488   9.601  44.071  10.600
10058W        W76489  11.658  23.235   1.035
10059W        W76490  24.433  25.576   3.884
10060W        W76491  31.472  24.404   1.970
10061W        W76492   1.173  28.158  10.745
10062W        W76493  26.817  33.955  14.828
10063W        W76494  41.630  33.647   4.588
10064W        W76495   2.183  35.386  11.678
10065W        W76496  10.251  13.275  11.186
10066W        W76497  39.935  19.297  13.304
10067W        W76498  18.448  39.870   1.226
10068W        W76499  17.523  11.812  10.078
10069W        W76500   0.535  25.434  12.507
10070W        W76501  41.098  32.189   3.813
10071W        W76502  42.621  14.234  13.949
10072W        W76503  33.576  35.443   2.750
10073W        W76504  36.879  39.450   2.187
10074W        W76505  26.209  25.803  14.909
10075W        W76506   4.504  18.307  13.887
10076W        W76507  22.760  28.659  11.637
10077W        W76508  21.538   2.266   3.567
10078W        W76509   6.888   6.016  13.753
10079W        W76510  41.289  30.833  12.401
10080W        W76511  43.036   9.402   3.269
10081W        W76512  41.311  13.183  14.013
10082W        W76513  44.311  17.510   4.461
10083W        W76514  41.148  17.773   1.618
10084W        W76515  24.461  36.031   1.684
10085W        W76516   6.285  37.888   1.442
10086W        W76517  32.617  25.677  13.450
10087W        W76518  24.083  22.257  12.889
10088W        W76519  36.867  19.222   4.059
10089W        W76520   5.440  28.055  10.764
10090W        W76521  32.981  15.735   3.223
10091W        W76522  10.222   7.843   0.540
10092W        W76523  42.539  10.361  14.366
10093W        W76524  19.028  33.608  12.001
10094W        W76525  11.247  12.820   1.304
10095W        W76526  29.880  35.379   0.147
10096W        W76527   1.201  12.651   0.966
10097W        W76528  38.500  22.255   3.654
10098W        W76529  21.762  43.443   0.626
10099W        W76530   4.390  37.513   4.168
10100W        W76531  27.788  43.395   3.196
10101W        W76532  39.485  38.273   4.969
10102W        W76533   0.901   9.938  12.972
10103W        W76534   2.597   2.603  11.091
10104W        W76535  31.999  22.797   1.234
10105W        W76536   7.413  25.529  11.072
10106W        W76537  26.409   1.816  12.378
10107W        W76538   7.703   0.342   4.003
10108W        W76539  11.361  27.238   1.216
10109W        W76540  12.608   7.869   0.762
10110W        W76541  14.865  33.072   4.351
10111W        W76542  36.723   9.485  11.050
10112W        W76543  30.544   9.915  12.403
10113W        W76544  35.973  29.672   0.968
10114W        W76545  15.122  15.281  12.242
10115W        W76546  32.115   2.161  14.266
10116W        W76547  24.435   7.690  11.314
10117W        W76548  39.958   3.682  11.198
10118W        W76549   0.024   6.695   2.346
10119W        W76550   8.964  28.092   5.057
10120W        W76551  36.214  28.711   5.077
10121W        W76552  27.147  12.179   1.819
10122W        W76553  20.795   6.201   2.661
10123W        W76554  14.544  18.159  14.387
10124W        W76555  18.076  16.160  12.380
10125W        W76556  33.041  17.306  10.906
10126W        W76557  20.024  30.061  14.682
10127W        W76558  11.692  24.896  12.905
10128W        W76559  40.083   8.194   0.974
10129W        W76560  21.325  14.140   4.271
10130W        W76561  31.180  18.485  11.841
10131W        W76562  10.330  44.751   1.012
10132W        W76563  38.998   0.784  10.046
10133W        W76564  29.842  24.380   5.002
10134W        W76565   1.786  11.232  10.751
10135W        W76566  43.383   4.407   3.445
10136W        W76567  19.110  13.760  14.235
10137W        W76568  42.310  21.490   9.853
10138W        W76569  13.351  28.885   5.060
10139W        W76570  36.076  16.582   1.525
10140W        W76571  22.043  43.087   4.613
10141W        W76572  27.216  37.327  12.673
10142W        W76573  39.559  43.931  10.777
10143W        W76574   0.969  14.189   0.938
10144W        W76575  44.398  25.419   4.396
10145W        W76576  12.398  23.638  13.986
10146W        W76577   0.441  42.236  14.518
10147W        W76578  12.830  10.936   1.255
10148W        W76579   1.397  18.173   1.478
10149W        W76580  24.171   6.777  11.683
10150W        W76581  39.019  37.825   4.125
10151W        W76582  33.115  43.256   1.307
10152W        W76583  19.502  34.122   0.328
10153W        W76584  37.486  11.013   4.149
10154W        W76585  19.792  30.642  11.975
10155W        W76586   2.820  25.638  10.390
10156W        W76587  29.873  28.548  14.422
10157W        W76588   5.338  17.689   0.345
10158W        W76589  15.194   2.692   9.800
10159W        W76590  33.089   0.560  11.101
10160W        W76591  19.098  29.309  12.159
10161W        W76592  19.021  30.102  14.797
10162W        W76593  37.755   5.806  11.146
10163W        W76594  41.068  31.005   3.165
10164W        W76595  36.582  23.907  13.544
10165W        W76596   6.808  42.508  11.138
10166W        W76597  42.595  25.611  14.920
10167W        W76598  38.404  12.068   3.553
10168W        W76599  21.532  15.518   0.049
10169W        W76600  40.309  30.966   1.192
10170W        W76601   0.086  35.585  10.503
10171W        W76602  44.217  10.450   4.195
10172W        W76603  31.068   0.023   4.789
10173W        W76604  30.116  11.126  14.050
10174W        W76605  42.370  33.222  11.475
10175W        W76606  32.138  23.741   3.864
10176W        W76607  29.384  14.658  11.108
10177W        W76608  40.515  22.129   4.702
10178W        W76609   9.430  24.261   2.827
10179W        W76610  14.043  24.670  13.030
10180W        W76611   7.966   3.335  11.062
10181W        W76612  26.287  26.710   3.802
10182W        W76613  32.034   5.801  12.885
10183W        W76614  14.832  33.942   2.857
10184W        W76615  12.282  21.441  11.641
10185W        W76616   2.839  26.531  12.545
10186W        W76617  38.437  41.371   0.472
10187W        W76618  29.215  31.996   0.440
10188W        W76619   1.063   9.683  13.457
10189W        W76620  30.573   2.205  10.991
10190W        W76621  11.718  24.389  10.277
10191W        W76622  41.298   4.624  11.045
10192W        W76623  31.735  11.319  13.982
10193W        W76624   5.338  34.387   4.306
10194W        W76625  26.226  28.724   0.442
10195W        W76626   1.981  15.533  13.431
10196W        W76627  20.889  24.060  13.511
10197W        W76628  17.775  12.041   4.019
10198W        W76629   1.417  33.399   0.317
10199W        W76630  14.138   1.375  13.990
10200W        W76631  10.819  16.061  11.104
10201W        W76632   1.282  40.908  14.858
10202W        W76633  34.770  29.138   2.795
10203W        W76634  21.759  44.470   1.238
10204W        W76635  39.490  41.406   4.795
10205W        W76636  40.638   9.376   3.909
10206W        W76637  22.629  38.849  14.985
10207W        W76638  31.741  29.003   3.343
10208W        W76639   2.277   9.119  12.150
10209W        W76640   2.006  31.764  12.832
10210W        W76641  27.691  44.295  14.892
10211W        W76642  19.078  14.736   0.011
10212W        W76643   6.921   2.654  12.518
10213W        W76644  12.770   7.451  12.229
10214W        W76645  32.408  27.143   2.837
10215W        W76646  12.999  22.219   4.589
10216W        W76647  33.641  35.456   4.122
10217W        W76648   2.313  27.096   0.087
10218W        W76649  24.648  34.405  11.663
10219W        W76650   7.248  11.932   3.387
10220W        W76651  36.796  11.682  12.040
10221W        W76652   2.894   3.357   1.780
10222W        W76653  16.366  28.099   4.415
10223W        W76654   5.509  31.946   4.875
10224W        W76655  23.524  28.733  13.413
10225W        W76656  13.159  11.096   2.774
10226W        W76657  12.134   4.392  13.833
10227W        W76658  33.926  31.181   4.094
10228W        W76659  13.565  32.259   2.817
10229W        W76660  21.314  34.375  14.418
10230W        W76661  42.943  27.484   0.010
10231W        W76662  15.980   8.605   2.796
10232W        W76663  32.367  18.245  13.107
10233W        W76664  10.248  16.565  12.896
10234W        W76665  15.668   7.906   1.062
10235W        W76666  40.020  12.740  13.088
10236W        W76667  13.347  15.589   3.841
10237W        W76668  44.369  37.979   4.025
10238W        W76669  21.087  40.253   3.322
10239W        W76670  43.521  44.887   3.185
10240W        W76671  15.327  25.630   5.330
10241W        W76672   5.974  34.289  11.919
10242W        W76673  27.389  29.078  13.411
10243W        W76674  31.394  21.809  14.565
10244W        W76675  15.885  33.694  14.768
10245W        W76676  32.681  26.202  11.008
10246W        W76677  42.004  32.040   3.597
10247W        W76678   3.957   6.437   4.198
10248W        W76679  13.880  24.365   3.175
10249W        W76680  13.950   0.885   3.804
10250W        W76681  18.146  21.615  12.209
10251W        W76682  16.890   1.394   4.234
10252W        W76683  11.281  22.944  12.980
10253W        W76684  11.342   1.775  14.937
10254W        W76685   3.359   6.774   4.733
10255W        W76686   2.621  33.012   4.834
10256W        W76687  16.769  43.848  14.636
10257W        W76688  38.222  20.425  10.517
10258W        W76689   7.763  15.148  10.615
10259W        W76690  42.033  41.959   2.238
10260W        W76691   5.166   1.739  14.913
10261W        W76692  42.606  27.997   0.740
10262W        W76693  44.788  13.907  12.434
10263W        W76694  17.253  28.974   2.753
10264W        W76695  22.770  14.816  12.681
10265W        W76696  35.862   9.372  13.492
10266W        W76697  16.079  41.836  11.824
10267W        W76698  39.130  12.110  13.389
10268W        W76699  38.049   1.205  11.054
10269W        W76700   3.058   5.364  11.599
10270W        W76701  30.464  29.331   5.046
10271W        W76702  22.669  25.789   3.839
10272W        W76703  34.057  29.625  14.003
10273W        W76704  41.304  31.978   0.142
10274W        W76705   9.346  14.605   2.190
10275W        W76706  18.246  44.494   4.666
10276W        W76707   3.938  23.083  13.028
10277W        W76708   3.663  36.326  11.742
10278W        W76709  17.638  42.057   4.651
10279W        W76710   1.491  43.417  12.319
10280W        W76711  34.545  18.178  14.596
10281W        W76712  39.044   7.109  10.614
10282W        W76713  44.171   0.796  11.556
10283W        W76714  31.394  39.812   4.098
10284W        W76715  13.664  42.219   4.962
10285W        W76716  42.999  37.391  11.460
10286W        W76717   4.729  22.102  11.986
10287W        W76718  11.143  23.927   0.936
10288W        W76719  28.421   3.244  10.666
10289W        W76720  32.057  39.251  12.736
10290W        W76721  19.569  35.457  12.469
10291W        W76722  16.864   6.417  13.773
10292W        W76723  12.626  32.366  12.511
10293W        W76724  10.708  41.221  11.650
10294W        W76725  32.064  22.984  13.844
10295W        W76726   7.572   4.649   1.484
10296W        W76727   3.400  22.088  11.584
10297W        W76728  42.940  26.593  10.479
10298W        W76729  36.597   7.743  11.639
10299W        W76730  16.221  24.369   0.696
10300W        W76731  10.608   7.588   0.260
10301W        W76732  32.855  34.305   1.981
10302W        W76733  14.881  37.459  13.899
10303W        W76734  37.232  25.464   3.390
10304W        W76735  19.546   5.500   2.151
10305W        W76736  35.182  27.885  13.858
10306W        W76737  43.961  40.442   4.416
10307W        W76738  15.545  18.207  12.053
10308W        W76739   2.176  31.093   4.087
10309W        W76740  11.197  11.642   2.549
10310W        W76741  25.189   1.997  11.237
10311W        W76742   0.258   7.479  13.467
10312W        W76743  30.085  34.164  13.469
10313W        W76744  42.407  43.528   2.790
10314W        W76745  43.696  15.898  10.134
10315W        W76746  25.066  17.430  13.332
10316W        W76747  15.899  24.202   1.729
10317W        W76748  10.902  38.586  13.001
10318W        W76749  19.283  16.661   0.228
10319W        W76750  37.561  32.746   4.504
10320W        W76751  24.583   0.592  12.925
10321W        W76752  14.246   5.949  12.533
10322W        W76753  41.543   6.600  11.086
10323W        W76754  40.887   1.740   0.685
10324W        W76755  13.876  35.124   3.803
10325W        W76756   0.856  38.523  12.115
10326W        W76757  43.503  19.747   1.817
10327W        W76758   3.811  15.679   3.171
10328W        W76759  11.189  22.759  14.784
10329W        W76760  43.317  16.264  14.833
10330W        W76761  40.054  14.145  14.184
10331W        W76762  25.124  37.697  10.877
10332W        W76763  30.386  16.322   0.244
10333W        W76764  42.795  12.669   2.794
10334W        W76765  24.054  10.798   3.609
10335W        W76766   7.522  41.946   2.269
10336W        W76767  29.980   7.911   4.474
10337W        W76768  30.552  41.364   2.887
10338W        W76769  10.661  15.811  12.846
10339W        W76770   5.872   0.402   2.721
10340W        W76771  40.675  16.999  10.862
10341W        W76772  40.628  23.542  14.174
10342W        W76773  28.609  11.472   3.609
10343W        W76774  32.402   3.964  11.588
10344W        W76775  26.260  31.565  11.214
10345W        W76776  38.077  26.764  12.401
10346W        W76777  21.274  31.252  13.843
10347W        W76778  44.300  35.379  13.417
10348W        W76779  12.038  12.192  13.850
10349W        W76780  20.502   4.311   2.085
10350W        W76781  37.941  28.756  12.161
10351W        W76782  40.294  36.563   3.723
10352W        W76783  22.697   6.397   4.799
10353W        W76784  36.553  19.433  10.702
10354W        W76785   7.663  22.739   4.228
10355W        W76786   8.697  22.399   5.014
10356W        W76787  15.324  41.597   2.215
10357W        W76788  11.668   8.217   4.492
10358W        W76789  24.576  40.307  12.432
10359W        W76790  17.780   4.469  10.245
10360W        W76791  35.368  11.712  11.139
10361W        W76792  13.121  25.598  13.536
10362W        W76793   5.412   3.934   2.274
10363W        W76794  34.090  19.728  14.025
10364W        W76795  32.891  19.451   0.853
10365W        W76796   6.386  34.055  14.502
10366W        W76797   8.118  13.984   4.510
10367W        W76798  35.748   9.586   4.223
10368W        W76799  29.575  36.032  13.413
10369W        W76800  19.258  38.475  12.068
10370W        W76801  28.860  36.116  13.879
10371W        W76802  16.960  20.775   4.101
10372W        W76803  17.404  31.592   3.154
10373W        W76804   6.416  16.072   2.007
10374W        W76805   5.673  15.103   0.462
10375W        W76806   4.386   8.759   1.678
10376W        W76807  17.867  22.656  11.243
10377W        W76808  44.912  26.953  13.428
10378W        W76809  35.506  42.953  13.750
10379W        W76810   6.909  32.084   2.298
10380W        W76811  22.188  29.522   2.848
10381W        W76812   0.328  40.218  12.392
10382W        W76813  31.039  37.577   1.305
10383W        W76814  36.689  37.454  10.148
10384W        W76815  22.249  33.908  14.075
10385W        W76816  42.154   1.431  11.211
10386W        W76817  33.586  27.177   1.749
10387W        W76818  29.931  22.546  14.420
10388W        W76819  30.863   8.798  13.496
10389W        W76820   6.242  38.860  11.975
10390W        W76821  23.932  33.532   4.932
10391W        W76822  25.723  10.879  11.060
10392W        W76823  26.736  19.615  12.541
10393W        W76824  35.933  44.279   0.187
10394W        W76825   8.118  36.144   1.441
10395W        W76826  30.012  32.417   4.525
10396W        W76827  40.030   0.881  11.663
10397W        W76828  37.459  34.811  12.168
10398W        W76829   6.334  13.207   0.363
10399W        W76830  32.280  24.027  12.992
10400W        W76831  11.770   3.638  10.234
10401W        W76832  36.027   9.843  13.595
10402W        W76833  21.286  20.275   3.947
10403W        W76834  21.015  26.983   4.303
10404W        W76835  16.146   2.820   3.076
10405W        W76836  11.103  36.311   3.732
10406W        W76837   7.859  33.808   3.129
10407W        W76838  43.830  41.418   4.930
10408W        W76839  14.766  30.959  10.495
10409W        W76840  36.737  28.674   4.859
10410W        W76841  34.576  31.842   1.901
10411W        W76842  33.892  23.273  11.542
10412W        W76843  42.000  36.168   3.643
10413W        W76844  40.931   3.298   4.243
10414W        W76845  22.421  40.917   2.778
10415W        W76846   7.058   9.633   4.541
10416W        W76847  32.923  23.385  14.834
10417W        W76848  27.412   8.849  11.553
10418W        W76849  20.106   5.437   3.336
10419W        W76850  31.130  41.425   0.424
10420W        W76851  37.565  17.005   0.837
10421W        W76852   5.423  17.962   1.436
10422W        W76853  44.808  27.425  11.645
10423W        W76854  17.661   9.144   3.272
10424W        W76855  11.918  30.732   2.104
10425W        W76856  44.835  25.721   0.667
10426W        W76857   3.866   4.977  11.717
10427W        W76858  27.146  15.199  10.705
10428W        W76859  30.422  14.687   3.418
10429W        W76860  30.276  29.544   1.894
10430W        W76861  11.165  43.401   3.899
10431W        W76862  28.688   5.456   0.731
10432W        W76863   1.697  36.823   1.390
10433W        W76864   7.837   7.193  11.560
10434W        W76865  41.413   0.987  12.884
10435W        W76866   7.663  20.182  13.801
10436W        W76867  12.944  26.936   0.942
10437W        W76868  16.383  28.452  14.952
10438W        W76869  42.930  36.128   0.484
10439W        W76870  29.439  18.699   0.489
10440W        W76871  33.675  29.962  13.428
10441W        W76872   8.661  18.069  13.608
10442W        W76873  37.090   1.816  11.556
10443W        W76874  11.765  40.691   2.761
10444W        W76875  15.276   5.297   5.118
10445W        W76876  44.345  43.932  10.947
10446W        W76877  30.557  41.257   1.244
10447W        W76878   0.223  18.784  12.989
10448W        W76879  15.484  27.255  13.648
10449W        W76880  39.956  18.571   2.366
10450W        W76881  11.066   2.926  11.361
10451W        W76882  12.782  30.088  11.591
10452W        W76883  34.525  24.709   4.517
10453W        W76884  26.183  10.651   1.101
10454W        W76885  22.489  14.610   3.171
10455W        W76886  25.641  17.396   2.151
10456W        W76887  22.996  17.954   1.204
10457W        W76888   3.761  41.368   0.808
10458W        W76889  20.717  32.962  13.884
10459W        W76890   4.507  20.337   4.581
10460W        W76891  23.190  27.459  14.758
10461W        W76892  30.656  29.027  14.344
10462W        W76893  24.195  23.790  11.512
10463W        W76894   7.683  17.821  14.416
10464W        W76895   4.955   3.706  13.876
10465W        W76896   4.826  15.585   1.369
10466W        W76897  30.835  14.654   3.713
10467W        W76898  32.112  13.100   0.477
10468W        W76899  18.756  15.844   1.820
10469W        W76900   7.713  32.007  11.290
10470W        W76901  12.313   7.456  12.512
10471W        W76902  43.926  41.896  11.084
10472W        W76903  44.314  41.792   1.677
10473W        W76904  24.175  12.887  14.410
10474W        W76905  35.852   8.150  13.021
10475W        W76906  19.546  44.744  13.811
10476W        W76907  44.489  37.349   3.605
10477W        W76908  21.176   1.825  12.431
10478W        W76909  41.834   3.985  13.344
10479W        W76910  37.668  27.427  14.305
10480W        W76911  25.204  33.012   2.228
10481W        W76912   3.465  38.554  12.151
10482W        W76913  40.891  36.535  13.095
10483W        W76914  31.076  16.571  12.001
10484W        W76915  23.453  24.615  10.587
10485W        W76916  23.609  33.366   1.075
10486W        W76917   6.235  23.710   4.427
10487W        W76918  37.406  26.975  14.330
10488W        W76919  33.261  30.040   0.374
10489W        W76920  27.668   4.879   3.550
10490W        W76921  21.183  14.010   2.240
10491W        W76922  17.048  16.467   2.805
10492W        W76923  38.586  19.708  12.044
10493W        W76924  21.133  18.041   4.648
10494W        W76925   9.067  31.266   3.726
10495W        W76926   6.369  34.109  13.328
10496W        W76927  39.479  30.513  14.372
10497W        W76928  14.204  39.055   0.419
10498W        W76929  34.182  44.437  12.504
10499W        W76930  37.042  33.946   4.351
10500W        W76931  44.307  22.160   1.960
10501W        W76932  28.201  30.023   2.232
10502W        W76933   6.909  15.000  11.533
10503W        W76934  40.578  29.184   1.270
10504W        W76935  25.695  18.971   0.718
10505W        W76936  13.431  40.128   3.948
10506W        W76937  27.642   0.343   1.001
10507W        W76938  16.760  10.667  14.151
10508W        W76939  39.015   5.093  10.596
10509W        W76940   5.874  29.561   0.699
10510W        W76941  21.621   9.333   4.471
10511W        W76942  19.536  41.553  13.741
10512W        W76943  38.080   2.863  14.461
10513W        W76944   7.258   8.845   0.728
10514W        W76945  34.558  20.611   3.588
10515W        W76946  32.066  37.942  13.796
10516W        W76947   1.865  36.829   2.852
10517W        W76948  24.093   7.845   2.318
10518W        W76949   3.872  42.243  11.284
10519W        W76950  40.593   4.553   5.002
10520W        W76951  14.686  37.232  13.356
10521W        W76952  24.937  22.128  14.130
10522W        W76953  22.507  11.254  13.080
10523W        W76954   2.417  30.098  11.351
10524W        W76955  29.910  33.894  13.904
10525W        W76956   2.788   8.441  12.573
10526W        W76957  32.370   2.290  13.818
10527W        W76958  16.640   9.560   2.678
10528W        W76959  33.588  10.989   3.418
10529W        W76960  31.717  34.930   1.225
10530W        W76961   3.181  30.945  13.992
10531W        W76962  16.269   6.908  13.399
10532W        W76963  32.629  34.455   4.187
10533W        W76964  24.123  30.663   1.878
10534W        W76965  19.712   5.938   3.726
10535W        W76966  42.072  14.696  13.162
10536W        W76967  28.939  18.542   0.824
10537W        W76968  12.675  20.590  12.910
10538W        W76969  29.969   4.972  13.944
10539W        W76970  28.732  19.129   4.726
10540W        W76971   0.316  26.618   1.668
10541W        W76972  15.297  20.724   1.854
10542W        W76973  37.533  20.637  11.246
10543W        W76974  11.405   0.056   3.715
10544W        W76975  14.793  28.827   2.194
10545W        W76976  14.700  16.176  14.269
10546W        W76977  36.007  37.049   0.846
10547W        W76978  26.153  24.703   0.880
10548W        W76979  43.864  23.928   2.320
10549W        W76980  21.679  16.295  12.143
10550W        W76981  27.417  34.668  13.358
10551W        W76982  41.953  16.840  14.699
10552W        W76983   4.256  23.457  14.871
10553W        W76984  37.078  19.338  10.675
10554W        W76985  25.487  10.894   2.339
10555W        W76986  12.884  19.744  11.093
10556W        W76987   2.275   3.554   3.083
10557W        W76988  40.394  20.872   3.102
10558W        W76989  18.507  12.422  12.497
10559W        W76990  19.725  29.376  12.496
10560W        W76991  12.288  26.397  10.233
10561W        W76992  13.385  22.044   2.381
10562W        W76993   9.791  42.070   2.725
10563W        W76994  18.072  44.805   4.275
10564W        W76995   6.313  33.698   1.940
10565W        W76996  28.937  25.005  10.726
10566W        W76997  19.984   8.197   1.371
10567W        W76998  37.535  32.858  11.529
10568W        W76999   5.763  33.941   4.617
10569W        W77000  17.084   5.617  10.787
10570W        W77001  15.884  35.546  14.799
10571W        W77002   2.512  26.141  10.363
10572W        W77003  21.693  40.940   4.641
10573W        W77004  30.722  19.145   1.501
10574W        W77005  35.895  17.585  13.662
10575W        W77006  43.256   8.924  13.273
10576W        W77007  28.953   9.653   0.226
10577W        W77008  34.837  24.272   3.335
10578W        W77009  42.340  44.171  11.063
10579W        W77010  14.911  29.597   3.319
10580W        W77011  36.392   4.168  11.501
10581W        W77012   4.721  25.161   3.138
10582W        W77013  21.260  12.122   4.932
10583W        W77014   1.755   4.640   2.551
10584W        W77015  17.641  20.247  11.443
10585W        W77016  12.390  37.257   1.131
10586W        W77017  22.458  13.903   3.931
10587W        W77018  19.453  38.870   5.402
10588W        W77019  31.735  25.723   3.938
10589W        W77020  12.773   1.497   3.227
10590W        W77021  17.393  23.583   3.701
10591W        W77022  27.623  20.771  11.350
10592W        W77023  27.965   4.005   1.229
10593W        W77024  39.602  31.502   4.643
10594W        W77025  24.613  17.033  11.993
10595W        W77026  11.138  36.656  12.824
10596W        W77027   8.303   3.800   4.555
10597W        W77028  21.566  37.821   1.687
10598W        W77029   4.193  36.118   1.157
10599W        W77030  27.286   6.471  13.837
10600W        W77031   4.626  17.745   2.011
10601W        W77032  12.229   4.267   3.626
10602W        W77033   7.219  17.609   3.128
10603W        W77034  17.017  19.801  11.528
10604W        W77035   7.619  23.614   0.760
10605W        W77036  28.041  16.658   2.737
10606W        W77037  23.047   5.351   1.345
10607W        W77038  19.883  35.364   4.248
10608W        W77039  38.553   7.460  12.198
10609W        W77040  32.703  38.068   1.749
10610W        W77041   4.372  42.572   3.375
10611W        W77042  15.932   1.037   3.405
10612W        W77043   0.423  32.462  13.090
10613W        W77044  38.930   5.959   4.152
10614W        W77045  36.628  35.106   1.723
10615W        W77046  44.267  21.602   3.368
10616W        W77047  39.818  35.300   1.806
10617W        W77048  10.723  22.497  13.439
10618W        W77049  39.304  44.700  13.464
10619W        W77050  10.695  38.524   3.847
10620W        W77051   2.903  21.498  13.027
10621W        W77052  36.291  32.086  11.815
10622W        W77053  23.220   6.494   0.375
10623W        W77054  39.021  38.234   2.672
10624W        W77055  11.545   9.170   1.312
10625W        W77056  21.264  12.184  13.700
10626W        W77057  18.604  17.563   3.756
10627W        W77058  19.538  32.442  13.377
10628W        W77059   1.389   6.814   2.905
10629W        W77060   4.937  42.599   0.377
10630W        W77061   3.445  25.431  14.417
10631W        W77062  13.334  17.834  10.708
10632W        W77063  30.627   2.325  11.929
10633W        W77064  43.267  13.886  10.792
10634W        W77065  20.210  19.118  13.458
10635W        W77066  17.698  12.293  10.147
10636W        W77067  22.652  18.801  12.824
10637W        W77068  25.694  31.989  11.093
10638W        W77069   4.475  30.965  14.260
10639W        W77070  33.843  33.661   2.446
10640W        W77071  40.714  34.604  13.752
10641W        W77072  44.065  44.338   4.809
10642W        W77073   7.360  12.694   1.162
10643W        W77074  31.604   9.424   4.534
10644W        W77075  37.223  36.099  12.032
10645W        W77076  38.232   9.479  12.007
10646W        W77077  25.126  15.656  11.228
10647W        W77078  24.701  15.337   4.513
10648W        W77079  39.683   9.628   1.650
10649W        W77080  29.864  24.573  13.004
10650W        W77081  17.212  42.970  14.227
10651W        W77082  25.243  39.625  12.860
10652W        W77083  33.651  44.645  14.515
10653W        W77084  28.341  15.154  13.586
10654W        W77085  18.221   3.433   4.998
10655W        W77086  32.104   3.442   4.709
10656W        W77087  26.569  29.965  12.456
10657W        W77088  11.412  17.749  13.393
10658W        W77089  31.988  42.042   5.285
10659W        W77090   2.003  28.346   2.073
10660W        W77091  42.009   4.921  11.576
10661W        W77092  25.952  31.473   2.273
10662W        W77093  34.512  18.959  13.858
10663W        W77094   1.417  26.514   4.662
10664W        W77095  13.678   3.834  14.033
10665W        W77096   6.687  32.987   9.976
10666W        W77097  42.525  37.603   3.085
10667W        W77098  13.091  40.513  11.719
10668W        W77099  11.331  35.109  10.252
10669W        W77100  21.603  40.590   4.988
10670W        W77101  32.400   2.959   4.691
10671W        W77102  27.102  38.321  13.528
10672W        W77103  28.396  18.089   4.120
10673W        W77104  21.839  39.565  11.656
10674W        W77105  34.383   4.130  12.081
10675W        W77106  37.307  23.129  13.276
10676W        W77107  22.617  44.206   4.719
10677W        W77108  14.346  41.026   4.545
10678W        W77109   9.336  26.016   2.404
10679W        W77110   4.670  24.958  13.324
10680W        W77111   2.410   1.743   1.246
10681W        W77112  25.241  14.288   4.112
10682W        W77113   4.368   0.097   3.152
10683W        W77114  42.805  10.748  11.638
10684W        W77115  28.039   3.825   0.285
10685W        W77116  36.162  40.823  14.326
10686W        W77117  18.112  31.724  12.569
10687W        W77118   8.325  38.695  11.252
10688W        W77119  18.706  42.025   2.856
10689W        W77120   5.987  35.888  12.926
10690W        W77121  24.453   6.405   4.213
10691W        W77122  38.514  42.441   1.153
10692W        W77123  32.211  31.312  11.636
10693W        W77124  20.247  36.316   0.461
10694W        W77125  20.184  33.383  14.799
10695W        W77126  22.430   8.720   4.906
10696W        W77127  38.468  18.511  14.543
10697W        W77128   3.191  18.563  14.182
10698W        W77129  21.604  34.152   2.771
10699W        W77130  24.525  44.693   0.326
10700W        W77131  34.664  44.828  12.093
10701W        W77132  10.731  39.589   1.351
10702W        W77133  41.288  28.708  12.049
10703W        W77134  40.214  28.518   0.491
10704W        W77135  35.996  33.992   2.172
10705W        W77136   4.647  30.488  11.071
10706W        W77137  40.974  32.879  12.475
10707W        W77138  14.255   7.104  14.200
10708W        W77139  42.115  38.748  12.152
10709W        W77140  15.002   4.300  13.422
10710W        W77141   7.470  16.699  11.623
10711W        W77142  20.904   9.096  13.449
10712W        W77143  39.832  32.752  13.373
10713W        W77144   9.419   2.358   3.186
10714W        W77145  21.111  28.081   1.881
10715W        W77146  15.215  23.777  14.828
10716W        W77147   2.716  35.418  13.148
10717W        W77148  31.995  35.176  12.594
10718W        W77149  35.506  23.315  10.748
10719W        W77150  41.905   9.661  12.278
10720W        W77151  21.818  28.084  13.032
10721W        W77152  35.211  33.948  14.731
10722W        W77153  41.165  32.923  14.055
10723W        W77154   1.562  41.810  14.891
10724W        W77155   7.839  28.241  13.543
10725W        W77156  18.216  24.358  11.581
10726W        W77157  11.058  23.972   3.548
10727W        W77158  31.845  21.720  14.305
10728W        W77159  16.988  29.723   3.598
10729W        W77160  15.091  40.303  11.501
10730W        W77161  10.164  41.261   4.478
10731W        W77162  11.118  14.658  12.412
10732W        W77163  28.068  28.481   0.870
10733W        W77164   0.316   6.364   2.643
10734W        W77165  38.005  21.419  12.610
10735W        W77166  33.737  24.689  10.820
10736W        W77167  18.538  19.177   2.853
10737W        W77168  11.365  38.577  14.990
10738W        W77169  32.638   8.481  14.720
10739W        W77170  10.647   6.819   1.806
10740W        W77171   3.900   5.265  14.950
10741W        W77172  13.391  44.915  12.835
10742W        W77173   2.652   0.490   0.078
10743W        W77174   9.595  19.345   1.396
10744W        W77175   7.390  35.918  11.980
10745W        W77176  12.783  32.203   4.702
10746W        W77177  30.617   5.173   9.483
10747W        W77178  11.472  34.468   4.650
10748W        W77179  43.459  41.705  12.812
10749W        W77180  12.406  28.636  12.408
10750W        W77181  31.479  26.128   0.780
10751W        W77182  21.855  33.221  10.071
10752W        W77183  41.558  38.954   2.811
10753W        W77184  36.538  26.680   0.827
10754W        W77185  13.224  36.592   3.386
10755W        W77186  26.114  19.148   2.286
10756W        W77187  14.871   1.867  10.001
10757W        W77188   7.451  19.973  11.976
10758W        W77189  18.699  40.468  12.497
10759W        W77190  42.324  42.420  13.721
10760W        W77191  20.694   9.483   4.148
10761W        W77192  19.818  44.779   4.487
10762W        W77193  15.181  33.644   0.245
10763W        W77194  10.398  11.210   4.130
10764W        W77195  12.284  27.769   4.828
10765W        W77196  12.901  15.692  12.036
10766W        W77197   2.692  13.211   0.877
10767W        W77198  27.355  28.310  14.361
10768W        W77199  43.699   3.897   0.274
10769W        W77200  22.438  18.785  11.568
10770W        W77201  36.931  15.821   5.154
10771W        W77202  18.591  40.580  11.539
10772W        W77203  18.860   5.691  13.608
10773W        W77204   0.695  34.950  10.559
10774W        W77205   0.337  34.029   4.173
10775W        W77206  37.737  43.906  14.249
10776W        W77207  14.807  36.749   0.867
10777W        W77208  16.606   8.832   3.238
10778W        W77209   4.470  40.375   4.076
10779W        W77210   7.383   1.140  14.602
10780W        W77211  23.031   2.196   4.635
10781W        W77212   5.329  40.225  10.751
10782W        W77213  12.039   0.839   2.362
10783W        W77214  27.190  42.414  14.950
10784W        W77215  33.651  13.240  12.359
10785W        W77216  28.238  38.937  13.457
10786W        W77217  41.859  33.658   4.129
10787W        W77218  25.532  44.523   4.184
10788W        W77219  18.590  33.700  10.677
10789W        W77220  29.432  22.749   5.069
10790W        W77221  15.466  35.231   4.167
10791W        W77222  13.152  29.250   2.796
10792W        W77223  11.081  41.540  10.729
10793W        W77224  21.389  24.915   0.406
10794W        W77225  10.923  44.834   3.626
10795W        W77226  14.204   0.506   2.279
10796W        W77227  42.545   5.447  10.764
10797W        W77228  22.587   4.384  10.466
10798W        W77229  21.729  23.903   4.271
10799W        W77230  23.800  37.691   0.319
10800W        W77231  11.879  25.089  14.855
10801W        W77232  16.349  27.276   3.989
10802W        W77233   9.353   9.883   1.960
10803W        W77234  42.937  31.667  13.048
10804W        W77235  11.654   5.696   5.581
10805W        W77236  31.144   8.409  11.553
10806W        W77237  10.305  42.998   4.352
10807W        W77238  37.563  29.913   0.177
10808W        W77239  18.066  11.628   4.944
10809W        W77240  25.088  39.014  11.538
10810W        W77241  12.866  22.923   2.667
10811W        W77242  15.207  41.005   4.395
10812W        W77243  23.666  27.839   4.216
10813W        W77244   2.064   5.109  14.780
10814W        W77245  29.720  40.476   3.287
10815W        W77246  41.055  42.287  14.362
10816W        W77247  20.027   9.986   1.862
10817W        W77248   4.721  14.117   1.407
10818W        W77249   8.694  17.098   2.453
10819W        W77250  31.723   6.486   9.845
10820W        W77251   6.521  16.556   4.014
10821W        W77252  20.223   8.334   0.943
10822W        W77253  24.013  16.805  10.800
10823W        W77254   6.151  15.078   5.003
10824W        W77255  34.012  26.451   3.148
10825W        W77256  34.560  39.121  13.807
10826W        W77257  22.576  35.424   0.926
10827W        W77258  14.245   4.763  12.587
10828W        W77259   3.870   6.876  10.354
10829W        W77260  32.643   0.329  11.139
10830W        W77261   7.701  43.047   5.325
10831W        W77262  18.725  26.642  10.427
10832W        W77263   0.906   4.989  11.085
10833W        W77264   4.409  30.061   3.891
10834W        W77265  41.457  20.350  13.833
10835W        W77266  26.002   1.887   4.661
10836W        W77267  22.689  29.538  11.673
10837W        W77268  17.559  16.918  11.870
10838W        W77269  18.495  27.619   3.710
10839W        W77270   8.741  34.965  14.870
10840W        W77271  16.250  22.978  10.663
10841W        W77272  23.782  16.316  11.987
10842W        W77273  34.880  36.016  13.401
10843W        W77274  16.560  39.139   3.400
10844W        W77275  29.650  25.546  11.090
10845W        W77276  14.724   4.826  12.018
10846W        W77277  13.508  12.621  10.627
10847W        W77278  44.499   8.217  11.158
10848W        W77279  25.171  28.148  13.466
10849W        W77280   3.331  38.157   0.221
10850W        W77281   9.891   0.089   2.755
10851W        W77282  28.917   2.723   1.697
10852W        W77283  22.526  25.265  14.756
10853W        W77284  12.802  19.035   3.655
10854W        W77285   8.718  31.192  12.014
10855W        W77286  15.582  10.807   1.095
10856W        W77287  37.566  20.148   2.186
10857W        W77288  40.329  34.280   3.533
10858W        W77289  38.509   2.359  12.564
10859W        W77290   6.898  25.025   4.882
10860W        W77291  15.499  13.659   1.198
10861W        W77292   3.049  43.819  11.958
10862W        W77293  32.891  31.857  14.492
10863W        W77294  42.046  44.250  11.883
10864W        W77295  15.063  10.896   2.278
10865W        W77296   5.401  12.138  12.537
10866W        W77297  34.507  21.469  12.544
10867W        W77298   6.468  25.641   1.635
10868W        W77299  30.603   4.382   1.458
10869W        W77300  42.571   4.968   3.375
10870W        W77301   6.907   6.111   4.752
10871W        W77302   5.822  12.028  13.112
10872W        W77303   7.555  11.300  10.623
10873W        W77304  12.351   5.666  12.076
10874W        W77305   1.491  14.170   0.877
10875W        W77306  14.019  32.507   0.173
10876W        W77307   0.103   2.298  10.510
10877W        W77308  23.006  28.822  10.635
10878W        W77309  22.157   8.660   2.850
10879W        W77310  20.104   3.307   2.409
10880W        W77311  42.976  19.512   1.805
10881W        W77312  27.351  35.679   2.798
10882W        W77313  15.945  19.581  11.489
10883W        W77314  40.820  43.719  12.897
10884W        W77315  38.608   0.025  11.109
10885W        W77316  38.349  10.618   3.871
10886W        W77317  32.499  31.594  14.277
10887W        W77318   8.663  38.648   4.601
10888W        W77319  24.441  17.631   0.752
10889W        W77320  10.321  27.442  14.975
10890W        W77321  10.262  10.868   3.334
10891W        W77322  32.604  28.661   0.970
10892W        W77323   8.391  26.590   0.000
10893W        W77324  38.860   6.779   4.647
10894W        W77325  23.653  17.364   2.869
10895W        W77326  39.369  24.461   1.229
10896W        W77327   4.811  30.168  13.500
10897W        W77328  21.801  19.635   3.322
10898W        W77329   4.291  21.960   2.841
10899W        W77330  37.997  22.158   2.345
10900W        W77331   7.815  44.513  12.051
10901W        W77332  26.050  25.012  11.193
10902W        W77333  43.793  15.590   0.971
10903W        W77334  41.979  37.520   5.170
10904W        W77335  28.186  44.053   3.635
10905W        W77336  39.563  25.737   1.290
10906W        W77337  31.498  15.311  13.391
10907W        W77338  20.227  28.633   4.348
10908W        W77339  25.054  11.348   1.010
10909W        W77340  17.628  18.027  12.654
10910W        W77341  40.532  36.084   0.702
10911W        W77342   6.153  25.845  11.040
10912W        W77343  41.456   6.293  10.668
10913W        W77344   9.322   2.882   3.189
10914W        W77345   2.689  39.145  12.077
10915W        W77346   0.785   3.161   0.258
10916W        W77347  11.211  43.249   3.416
10917W        W77348  27.583  33.826   3.534
10918W        W77349   1.276  38.236  11.999
10919W        W77350  16.744   3.438   2.744
10920W        W77351  11.858   3.193   5.021
10921W        W77352  41.407  44.427  12.992
10922W        W77353  11.280  19.034   4.626
10923W        W77354  13.660   3.883   1.602
10924W        W77355  26.609   6.946   0.312
10925W        W77356  41.707  14.595  14.109
10926W        W77357   4.431  16.111  13.302
10927W        W77358  30.400  42.884   1.913
10928W        W77359  26.537  37.357  12.018
10929W        W77360   1.016  43.776  12.055
10930W        W77361  24.465  10.200   0.409
10931W        W77362  25.266  40.187  14.744
10932W        W77363  14.555  17.663  11.372
10933W        W77364   3.621  42.873   2.312
10934W        W77365  13.156  15.375   4.283
10935W        W77366   4.644  43.536  14.874
10936W        W77367  23.623   4.498  13.050
10937W        W77368  11.189  32.174   4.196
10938W        W77369   5.478  11.200   2.196
10939W        W77370  24.516  21.616   2.633
10940W        W77371   8.641  36.941   3.471
10941W        W77372  29.172  30.614  14.343
10942W        W77373  13.259  35.833   1.301
10943W        W77374  38.395  35.737   1.385
10944W        W77375   0.838  41.222  13.003
10945W        W77376   5.152  43.387  11.646
10946W        W77377   5.229  26.937  13.908
10947W        W77378  14.697   6.083   0.178
10948W        W77379  39.773  24.697   0.304
10949W        W77380  35.891  26.706   1.199
10950W        W77381  39.540  14.325   0.067
10951W        W77382   4.310  18.830  10.488
10952W        W77383  29.459   6.290  11.449
10953W        W77384   6.854   4.172   0.917
10954W        W77385  30.873  21.643   2.353
10955W        W77386   7.637  22.063   1.867
10956W        W77387  41.261   9.839  14.209
10957W        W77388  15.234   9.783   4.131
10958W        W77389  17.342  37.944  14.295
10959W        W77390  10.220   2.917   1.765
10960W        W77391  33.719  32.800   2.754
10961W        W77392   7.901  36.545   3.025
10962W        W77393  24.508  14.096  11.190
10963W        W77394  21.773  25.001   4.943
10964W        W77395   7.825  34.022  13.426
10965W        W77396  10.358  42.406   4.536
10966W        W77397  30.053  43.684  12.465
10967W        W77398   9.950  12.574   3.339
10968W        W77399   8.878   8.412  10.598
10969W        W77400  16.327  11.806  11.611
10970W        W77401  29.296  43.125  10.219
10971W        W77402  13.522  12.630   1.055
10972W        W77403  42.858  16.323   0.450
10973W        W77404   3.953  17.222  11.168
10974W        W77405   7.907  16.986   3.589
10975W        W77406  20.033   6.865   4.511
10976W        W77407  25.347   7.905   4.640
10977W        W77408  13.385   3.829   0.394
10978W        W77409  10.673  39.313  11.252
10979W        W77410  16.685  26.050  11.978
10980W        W77411   1.388  21.471   3.712
10981W        W77412  17.872   2.333  14.286
10982W        W77413  11.329  18.027  10.568
10983W        W77414  27.043  24.017   3.349
10984W        W77415   9.342  15.581   2.625
10985W        W77416   7.600  10.641  14.948
10986W        W77417  12.119  32.977   1.729
10987W        W77418  39.048  19.682   3.984
10988W        W77419  32.531  20.228  12.596
10989W        W77420   4.879   7.239  12.892
10990W        W77421  41.988  17.201  12.144
10991W        W77422  44.704  44.759  12.037
10992W        W77423  20.468  28.922  10.668
10993W        W77424   8.847   5.761   3.251
10994W        W77425   8.766  41.302   3.430
10995W        W77426  43.298  29.776  10.514
10996W        W77427  32.117  38.510  14.475
10997W        W77428  18.744  18.324   2.781
10998W        W77429   0.463  11.865  14.341
10999W        W77430  36.428  20.796   0.869
11000W        W77431  37.808  10.296  11.627
11001W        W77432  38.346   2.738   0.444
11002W        W77433  38.238  33.416   3.649
11003W        W77434  37.966  27.520  11.637
11004W        W77435  44.227  28.399  11.162
11005W        W77436  27.024  14.612  13.756
11006W        W77437  10.210  13.262   4.603
11007W        W77438  15.561  40.763  11.247
11008W        W77439  14.587  15.535  10.203
11009W        W77440  12.031   3.712   2.423
11010W        W77441  10.724  18.506   0.470
11011W        W77442  43.306  29.464   0.659
11012W        W77443  24.576   6.694  12.995
11013W        W77444  12.095   3.999   5.318
11014W        W77445  27.736  39.921   4.523
11015W        W77446  22.693   1.273  10.534
11016W        W77447  19.647  43.794  14.841
11017W        W77448  16.546  25.383   4.104
11018W        W77449  25.296  19.247  14.414
11019W        W77450  16.836  29.964  14.355
11020W        W77451  19.388  18.977   2.579
11021W        W77452  23.509  35.331   1.454
11022W        W77453  30.179   9.343  11.471
11023W        W77454   1.733  24.241  11.235
11024W        W77455  39.344  33.681  14.912
11025W        W77456   0.989  30.231   3.281
11026W        W77457  41.740   7.440   0.037
11027W        W77458  20.681  40.484   3.105
11028W        W77459  22.426  27.610   2.221
11029W        W77460   7.745  42.022  14.469
11030W        W77461  10.785  23.568   1.053
11031W        W77462   8.592  23.732  10.785
11032W        W77463  40.801  42.769  12.913
11033W        W77464  33.569  22.639  13.496
11034W        W77465  23.496   0.133  14.362
11035W        W77466  35.449   0.817  11.514
11036W        W77467  24.135  26.581  11.240
11037W        W77468   0.988  36.254  10.636
11038W        W77469   4.434  13.249   3.566
11039W        W77470  14.137  19.204   0.924
11040W        W77471  41.575  34.852  13.980
11041W        W77472  11.915  41.403   5.001
11042W        W77473  30.327  21.050  12.981
11043W        W77474   0.915   9.816   4.429
11044W        W77475  41.572  28.462   2.767
11045W        W77476  12.485  29.595   1.215
11046W        W77477   9.316  40.811   3.969
11047W        W77478  17.598  22.156   1.906
11048W        W77479  12.098  43.481  14.502
11049W        W77480  21.721  29.822   9.741
11050W        W77481  32.161  38.321   0.341
11051W        W77482   1.490   2.953  11.594
11052W        W77483  30.269  20.366   2.756
11053W        W77484  35.959   9.386  11.624
11054W        W77485  17.248   5.156   4.101
11055W        W77486  20.346  34.150   4.716
11056W        W77487  10.961  15.605   0.593
11057W        W77488  39.975  26.533   3.498
11058W        W77489  24.044  42.388  13.023
11059W        W77490  41.701   2.716   1.894
11060W        W77491  18.310   3.347  13.495
11061W        W77492  42.338   9.300   1.880
11062W        W77493  34.374  37.381  12.150
11063W        W77494  22.249  38.369   1.165
11064W        W77495  33.473   9.164  14.721
11065W        W77496  37.909  40.890   5.168
11066W        W77497  34.096   2.012   0.236
11067W        W77498  24.055  10.743  14.400
11068W        W77499  25.949  28.830   2.677
11069W        W77500  41.942  15.883   2.674
11070W        W77501  32.972  28.860   0.646
11071W        W77502  37.258  41.067   1.791
11072W        W77503  12.289   4.714  13.325
11073W        W77504  28.347  42.245   1.764
11074W        W77505  19.972  37.889   3.723
11075W        W77506  34.350  31.487  11.130
11076W        W77507   7.971  39.528   1.371
11077W        W77508   1.397  39.835   2.267
11078W        W77509  38.444  27.460   1.279
11079W        W77510  28.854  41.319  11.534
11080W        W77511  37.525   9.777  11.109
11081W        W77512  11.104  32.538  10.526
11082W        W77513  14.193  39.320  11.081
11083W        W77514   2.021  36.009   2.416
11084W        W77515  22.052  32.641   3.395
11085W        W77516  23.224  42.888   4.109
11086W        W77517  34.340  23.352   4.106
11087W        W77518  12.320  22.768  11.888
11088W        W77519  18.696  22.192   2.443
11089W        W77520  13.595   8.491   2.922
11090W        W77521  44.438  34.044  10.669
11091W        W77522  14.119  43.387   3.181
11092W        W77523   9.294  36.837   0.805
11093W        W77524  36.565  41.471  13.145
11094W        W77525  29.829  26.662  13.336
11095W        W77526  29.089  32.459  14.180
11096W        W77527  39.129   2.035   3.657
11097W        W77528  38.246   9.087  11.128
11098W        W77529  34.262   1.430  10.835
11099W        W77530  13.090  37.904   1.352
11100W        W77531   6.065  18.567  12.867
11101W        W77532  24.188  15.248   4.521
11102W        W77533  14.686  19.541   2.696
11103W        W77534  22.072  41.841   5.212
11104W        W77535  30.440  35.591  11.989
11105W        W77536  34.940  25.782   1.796
11106W        W77537  21.702   7.105   1.451
11107W        W77538  17.126  29.092  10.293
11108W        W77539  12.434  16.791  10.952
11109W        W77540  16.970  12.248   3.685
11110W        W77541  17.264   7.983  13.040
11111W        W77542   1.024  22.048  14.014
11112W        W77543  15.652  24.238  12.623
11113W        W77544  18.829  26.032  13.694
11114W        W77545  16.569   2.707  12.003
11115W        W77546  43.774  12.263  11.812
11116W        W77547   4.226  33.290   4.206
11117W        W77548  24.123  37.905   0.631
11118W        W77549  26.759  44.340   3.726
11119W        W77550  22.648   8.327   4.101
11120W        W77551  22.183  13.294   4.703
11121W        W77552  28.731  20.227  11.162
11122W        W77553  19.222  22.507  14.502
11123W        W77554  15.290  24.011   2.664
11124W        W77555  38.543  30.216   3.138
11125W        W77556   9.124  33.366   2.449
11126W        W77557  28.099  32.172   4.126
11127W        W77558  30.768  23.074   4.103
11128W        W77559  27.189  38.564  11.827
11129W        W77560  22.699   7.162  10.380
11130W        W77561   5.442   6.340   2.294
11131W        W77562  32.845  34.151  13.958
11132W        W77563  33.624  29.475  13.755
11133W        W77564  11.775   0.568   0.889
11134W        W77565  18.923  39.746   4.227
11135W        W77566   5.945  25.965   0.392
11136W        W77567  25.600  18.165  12.061
11137W        W77568   2.722  26.271  11.638
11138W        W77569  44.093   9.862  11.034
11139W        W77570  26.649  30.074  14.846
11140W        W77571   0.012   3.793   3.090
11141W        W77572  14.312  21.283   0.847
11142W        W77573  20.132   6.910  12.317
11143W        W77574  43.080  33.677   4.179
11144W        W77575  17.448  38.939  14.676
11145W        W77576  38.253   4.615  14.874
11146W        W77577  14.018  29.436  12.031
11147W        W77578  20.219  30.946  13.102
11148W        W77579  14.223   0.189   0.861
11149W        W77580  11.287  29.084   2.625
11150W        W77581   6.768  40.077  12.223
11151W        W77582  32.346   9.158   4.094
11152W        W77583   7.343  28.180   1.985
11153W        W77584  39.072  22.253   4.818
11154W        W77585  39.407  12.902   0.703
11155W        W77586  41.820   1.710  13.985
11156W        W77587   6.190  26.488   3.228
11157W        W77588  43.327  34.184  11.393
11158W        W77589   7.286  33.151  11.353
11159W        W77590  12.262  31.485  13.049
11160W        W77591  26.454  34.456   2.795
11161W        W77592  43.390  41.173   2.189
11162W        W77593   7.849  40.522   2.851
11163W        W77594  18.356  30.523  12.990
11164W        W77595   2.241  40.847  11.076
11165W        W77596  32.215  39.774  11.573
11166W        W77597  26.954  11.221   0.731
11167W        W77598   4.873  32.414  10.748
11168W        W77599  43.839  10.140   3.305
11169W        W77600  42.961  36.845   3.682
11170W        W77601  31.449   2.749  11.567
11171W        W77602  13.233  44.229  12.450
11172W        W77603  13.932  16.365   2.835
11173W        W77604   1.798  33.536   0.956
11174W        W77605  14.377   5.823   0.484
11175W        W77606  10.670   6.697  11.738
11176W        W77607  22.131   0.900   4.997
11177W        W77608  40.227  33.924  14.739
11178W        W77609   9.871  43.592   1.836
11179W        W77610  24.069  37.283   4.148
11180W        W77611  41.608  43.325  12.151
11181W        W77612   8.299  27.910  13.475
11182W        W77613  19.182   7.098  14.849
11183W        W77614  25.245   9.770   3.626
11184W        W77615  38.267  43.182   3.672
11185W        W77616   1.652  31.667  11.548
11186W        W77617  13.574  17.671   3.613
11187W        W77618  38.422  35.340   3.131
11188W        W77619  22.518  22.561   3.831
11189W        W77620   6.414   5.466  12.559
11190W        W77621  29.546  36.921  10.447
11191W        W77622  39.646  42.991  14.899
11192W        W77623  37.750  27.511  10.661
11193W        W77624   9.556  33.512  10.289
11194W        W77625   1.888  27.135  10.727
11195W        W77626   3.948   1.819   0.854
11196W        W77627  38.016  10.084   1.970
11197W        W77628  26.107   3.863  12.034
11198W        W77629  12.844  33.687  11.453
11199W        W77630  38.172  26.960  12.953
11200W        W77631   6.480  32.789  12.054
11201W        W77632  21.228  33.193   3.631
11202W        W77633  10.593  31.061   0.869
11203W        W77634  39.621   2.453  14.357
11204W        W77635  26.033  16.073   1.618
11205W        W77636   0.876  44.338  13.081
11206W        W77637   7.001   4.924  12.931
11207W        W77638   1.075  31.166  14.988
11208W        W77639  44.460   6.098  14.745
11209W        W77640  20.595  36.487   1.281
11210W        W77641  11.555  10.309  12.385
11211W        W77642   8.635  14.889  12.166
11212W        W77643  44.109   1.828   1.501
11213W        W77644  17.844  21.242  11.514
11214W        W77645  18.025  21.999  14.039
11215W        W77646  37.809  36.462  11.694
11216W        W77647  17.297   7.882   4.564
11217W        W77648  13.265   1.937   4.135
11218W        W77649  15.820  11.498   3.375
11219W        W77650  11.880  40.320   1.166
11220W        W77651   9.303  36.570   2.337
11221W        W77652  43.363  28.970  13.411
11222W        W77653  16.746   9.943   4.031
11223W        W77654   9.497  15.931   5.160
11224W        W77655  31.711  44.428  13.460
11225W        W77656  44.906  14.290  11.124
11226W        W77657  43.695  29.160  13.934
11227W        W77658  37.323  17.930   0.810
11228W        W77659  30.579   7.647   4.082
11229W        W77660  37.772  21.622   0.883
11230W        W77661  15.899  41.460   0.886
11231W        W77662  22.201  13.169   1.437
11232W        W77663  20.141  16.195   2.197
11233W        W77664  36.572  33.400  10.141
11234W        W77665  13.401  12.853  12.027
11235W        W77666  23.234  23.931   3.295
11236W        W77667  39.673  26.190   3.243
11237W        W77668  30.036   4.284  12.244
11238W        W77669   7.832  41.489   2.285
11239W        W77670  41.361  28.993   0.241
11240W        W77671   1.588  36.416   2.692
11241W        W77672  13.843  11.131  13.858
11242W        W77673  35.257  22.098   4.140
11243W        W77674  28.895   0.899   2.231
11244W        W77675   8.070   2.934   3.148
11245W        W77676  43.355   6.947  10.780
11246W        W77677  35.797  38.668   9.734
11247W        W77678  32.797  12.102   0.672
11248W        W77679   1.421  14.716   4.743
11249W        W77680  32.637  15.648  13.038
11250W        W77681   0.929   4.339  13.745
11251W        W77682  42.565  12.138   0.785
11252W        W77683   8.384  26.415   3.780
11253W        W77684  13.610  30.718   2.786
11254W        W77685  37.449  12.733  10.735
11255W        W77686  35.840  15.053  14.844
11256W        W77687  37.521  11.796   2.310
11257W        W77688  37.923   5.736   0.402
11258W        W77689  26.391   1.868   4.327
11259W        W77690  10.361  11.398  12.890
11260W        W77691  21.069  12.404   4.315
11261W        W77692  16.098  20.057  11.635
11262W        W77693  18.634  33.856   1.347
11263W        W77694   4.724  43.397  12.185
11264W        W77695   9.888   3.859   2.514
11265W        W77696   8.835  28.052  13.947
11266W        W77697  36.478  27.529  11.172
11267W        W77698   6.980  22.230  11.615
11268W        W77699  11.603  39.377  13.039
11269W        W77700  41.871  41.400  10.932
11270W        W77701  19.290  39.849   3.876
11271W        W77702  27.663  11.777  10.674
11272W        W77703  36.558  27.945  12.830
11273W        W77704  36.231  14.796  12.506
11274W        W77705   0.884  26.021  11.989
11275W        W77706   8.852  30.037   2.696
11276W        W77707  36.855  34.695   2.664
11277W        W77708  20.038   4.489   4.172
11278W        W77709   9.753  36.681  13.690
11279W        W77710  29.860   9.985  12.828
11280W        W77711   1.577  19.079  14.688
11281W        W77712  18.072  22.783  10.785
11282W        W77713   2.894  40.315  11.591
11283W        W77714   6.789  34.805  12.376
11284W        W77715  21.103   9.499  13.787
11285W        W77716  37.836  37.212   4.141
11286W        W77717  18.234  44.878  12.199
11287W        W77718  21.464  44.306   0.810
11288W        W77719  20.559  13.743   2.626
11289W        W77720   2.324  18.684   4.175
11290W        W77721  25.472  42.681   3.770
11291W        W77722   9.980   9.998   0.233
11292W        W77723  30.557  18.533  10.758
11293W        W77724  14.950   8.869   1.826
11294W        W77725  18.537  30.459   4.691
11295W        W77726   6.926  13.671   1.934
11296W        W77727  21.866  29.658   5.284
11297W        W77728   9.106  40.995  14.061
11298W        W77729  39.022   6.400   1.748
11299W        W77730  33.420  32.403   3.007
11300W        W77731  41.878  36.812   5.128
11301W        W77732  13.606   2.866   1.599
11302W        W77733  10.718  19.148  10.777
11303W        W77734  35.091   7.178   2.803
11304W        W77735  23.538  22.239  14.098
11305W        W77736  42.257  41.926   1.761
11306W        W77737   4.388  19.822   0.315
11307W        W77738  36.939  21.610   3.165
11308W        W77739  17.805  39.549  13.138
11309W        W77740  11.169  44.207   2.893
11310W        W77741   8.387   8.181   2.383
11311W        W77742   5.804  39.319  13.772
11312W        W77743  40.486  40.923   0.879
11313W        W77744  40.543  38.390  13.001
11314W        W77745  22.624   2.455   2.515
11315W        W77746  18.368  40.818   3.587
11316W        W77747   1.956   2.609  13.561
11317W        W77748  31.972   3.991   3.674
11318W        W77749  32.851  17.114   1.665
11319W        W77750  26.079  18.659   0.554
11320W        W77751  22.095  25.099   3.631
11321W        W77752  39.305  40.528   0.572
11322W        W77753   9.191  34.319   0.208
11323W        W77754  16.678   5.965  10.646
11324W        W77755  11.239  42.039  10.723
11325W        W77756   4.421  30.153   4.402
11326W        W77757  14.177  37.897   2.437
11327W        W77758  15.498  26.809  12.411
11328W        W77759  32.735   0.091   1.349
11329W        W77760   6.727  21.481  12.046
11330W        W77761  35.644   9.567  12.318
11331W        W77762  21.469  12.697  12.961
11332W        W77763  44.281  31.631   4.190
11333W        W77764  17.498  22.726  10.869
11334W        W77765  25.480  11.356  10.223
11335W        W77766  40.205  35.288  14.919
11336W        W77767  39.791  40.913  14.310
11337W        W77768  44.460  35.830  10.059
11338W        W77769  27.678  32.900   4.416
11339W        W77770  20.474  43.392   1.731
11340W        W77771  40.378  24.337  14.597
11341W        W77772  21.597  17.367   0.469
11342W        W77773  21.519  36.777  12.822
11343W        W77774  35.594  28.921   4.096
11344W        W77775  33.946  20.619   2.364
11345W        W77776  32.153  41.891   4.760
11346W        W77777  32.611  34.433   3.279
11347W        W77778  40.637  33.000   3.761
11348W        W77779   6.768   6.973   3.620
11349W        W77780  19.274   7.684   3.829
11350W        W77781  27.610  38.738  11.456
11351W        W77782  12.723  21.487   0.282
11352W        W77783  42.303  43.991   0.252
11353W        W77784  18.949  39.369   3.859
11354W        W77785  28.236   4.148  11.963
11355W        W77786  28.927  19.146   4.233
11356W        W77787  14.499  10.867   0.905
11357W        W77788  30.517   3.245   9.939
11358W        W77789  19.640  23.945   2.267
11359W        W77790  18.126   0.642   3.542
11360W        W77791  15.768   9.392  10.904
11361W        W77792  16.649  30.132   4.292
11362W        W77793  42.406  40.052  13.824
11363W        W77794  37.572  28.790  14.400
11364W        W77795  38.284  12.328   3.972
11365W        W77796  42.891  36.361  12.103
11366W        W77797  21.040  31.074   3.567
11367W        W77798  14.982  24.539  13.442
11368W        W77799  10.187  42.882  12.965
11369W        W77800  36.720   6.268   3.650
11370W        W77801  44.367  18.136  13.750
11371W        W77802  42.851  40.866   4.162
11372W        W77803  36.047  37.962  11.915
11373W        W77804  31.022  39.797  10.330
11374W        W77805  36.525  15.074   0.267
11375W        W77806  40.455   2.715  14.281
11376W        W77807  42.816  40.451   5.425
11377W        W77808   0.962  14.905   3.798
11378W        W77809  17.168  35.365   1.253
11379W        W77810   4.665  15.922  10.282
11380W        W77811  44.846  28.608   4.259
11381W        W77812   9.233   1.214  13.150
11382W        W77813  38.455  31.835  12.923
11383W        W77814  10.213  32.159   5.023
11384W        W77815  41.902  31.814  11.980
11385W        W77816   6.323  13.245   3.797
11386W        W77817  37.556  40.372  12.603
11387W        W77818   4.955  12.130   2.335
11388W        W77819  14.516  33.109   4.733
11389W        W77820  22.637  36.448  13.772
11390W        W77821  36.865  15.564   4.710
11391W        W77822  11.268  24.726  11.625
11392W        W77823   7.426   9.198  14.343
11393W        W77824  44.476   7.400   4.346
11394W        W77825   9.425  40.446  12.595
11395W        W77826  34.250  25.148  14.695
11396W        W77827  20.791  10.484  12.109
11397W        W77828  22.080  11.548  11.016
11398W        W77829  39.032  34.295   2.358
11399W        W77830  40.649   1.396  14.378
11400W        W77831  34.048   3.843  12.364
11401W        W77832  22.608  13.598  14.753
11402W        W77833  13.073  29.093   1.037
11403W        W77834   4.878  26.203   1.244
11404W        W77835   7.176  10.342  14.799
11405W        W77836   6.730   7.407   1.317
11406W        W77837  40.557   1.961   4.697
11407W        W77838  28.082   0.899  10.942
11408W        W77839  20.057   7.749   3.348
11409W        W77840  42.718   5.992  13.671
11410W        W77841   6.581   2.012   2.019
11411W        W77842  33.092   4.611   0.854
11412W        W77843  23.763  20.649   5.209
11413W        W77844  36.679   0.028   3.249
11414W        W77845  32.411   6.407  12.012
11415W        W77846  36.106  39.958  12.236
11416W        W77847  24.977   5.751   1.941
11417W        W77848  36.128  31.196   3.599
11418W        W77849  16.559  37.561  10.784
11419W        W77850  18.049  31.483   2.891
11420W        W77851  35.563  38.345   1.874
11421W        W77852   3.452  43.907   1.948
11422W        W77853  14.758  29.210   1.798
11423W        W77854  40.450  13.269  11.216
11424W        W77855  35.708  13.855   1.857
11425W        W77856  16.152  41.900   1.004
11426W        W77857  32.886  33.639  12.984
11427W        W77858  13.685  35.346  14.868
11428W        W77859  19.214  26.386  13.610
11429W        W77860   8.160   8.245  14.002
11430W        W77861   9.782  36.326   2.820
11431W        W77862  32.008  21.583  12.603
11432W        W77863  19.398  42.332  12.099
11433W        W77864  34.813  13.840   1.346
11434W        W77865  16.417  23.318   5.043
11435W        W77866   5.453  37.124   3.656
11436W        W77867  44.886   4.394   5.016
11437W        W77868  11.902   0.512   2.888
11438W        W77869  33.051  14.052   0.287
11439W        W77870  34.986  31.024   3.095
11440W        W77871  34.545  30.980   3.942
11441W        W77872  41.272  23.114  14.108
11442W        W77873   7.030  11.279  10.883
11443W        W77874  38.067  29.078  12.580
11444W        W77875  22.973   2.421   3.284
11445W        W77876  34.491   3.426  14.198
11446W        W77877  14.076   9.212   4.580
11447W        W77878  31.244  11.322  12.367
11448W        W77879  44.773  27.524  10.657
11449W        W77880   1.547  28.526   0.289
11450W        W77881   6.048  14.798  11.705
11451W        W77882  35.325  10.053   5.087
11452W        W77883  29.987   1.807   4.258
11453W        W77884  11.946  28.101  13.646
11454W        W77885  28.871   1.031  11.614
11455W        W77886  19.071   3.173  13.587
11456W        W77887  32.166  11.876   2.913
11457W        W77888  32.451  13.452  11.745
11458W        W77889  14.108  40.709  12.428
11459W        W77890  28.519  26.082  13.992
11460W        W77891  23.521  30.178  13.448
11461W        W77892  26.383  18.127  11.605
11462W        W77893   4.576  43.000   0.392
11463W        W77894   9.983   7.637   2.741
11464W        W77895  11.787   6.747   3.299
11465W        W77896  37.006  28.164   2.352
11466W        W77897  40.301  42.369  14.753
11467W        W77898  27.680  10.291   1.783
11468W        W77899  30.582   4.450   2.783
11469W        W77900  26.697  31.843  12.876
11470W        W77901  10.761  28.849  10.771
11471W        W77902  14.346  29.153   3.678
11472W        W77903  24.533  32.023   4.575
11473W        W77904  10.130   1.353   4.071
11474W        W77905  34.646  41.522  14.854
11475W        W77906  11.754  25.415   4.625
11476W        W77907   7.232  18.747   4.272
11477W        W77908  44.632   6.261  11.708
11478W        W77909  15.906  44.275  11.012
11479W        W77910  11.289  15.140   3.026
11480W        W77911   3.607  23.535  11.185
11481W        W77912  19.345  32.470  11.543
11482W        W77913  23.088   5.888  11.460
11483W        W77914  20.495  28.604  11.075
11484W        W77915  14.729  30.207  13.303
11485W        W77916  27.060  12.943   3.290
11486W        W77917  36.379  28.021  10.218
11487W        W77918  15.228  11.368   0.296
11488W        W77919  20.470  31.275   3.641
11489W        W77920  41.537  34.567  13.526
11490W        W77921  28.469  26.708   1.186
11491W        W77922  32.467  38.430  13.616
11492W        W77923   3.783   0.804   2.646
11493W        W77924  38.224  10.820  11.574
11494W        W77925  36.647  33.152   2.199
11495W        W77926  24.628  22.127  11.684
11496W        W77927   9.878  44.263   1.405
11497W        W77928  23.094  10.192   0.805
11498W        W77929  43.574  11.830  12.076
11499W        W77930  27.778  23.568   2.193
11500W        W77931   6.265  13.865  11.512
11501W        W77932  11.250  24.025  13.044
11502W        W77933  41.824  19.426   1.196
11503W        W77934  37.536  13.882   1.284
11504W        W77935  13.238  17.306  10.698
11505W        W77936  18.390  16.226   1.767
11506W        W77937  27.091  23.961  12.480
11507W        W77938  14.559  11.738  11.002
11508W        W77939  44.711  15.211   0.543
11509W        W77940  43.035  20.818   5.024
11510W        W77941   2.937  41.412   1.167
11511W        W77942  33.356  16.607   1.228
11512W        W77943   6.305   7.467   0.981
11513W        W77944  22.419  32.282  14.706
11514W        W77945  20.616  41.214   4.496
11515W        W77946   1.492  34.726   0.908
11516W        W77947  42.919  43.346  10.433
11517W        W77948  37.031  42.491  10.446
11518W        W77949   5.814  39.175  14.756
11519W        W77950   8.520  33.244   4.237
11520W        W77951  36.299  38.412   1.703
11521W        W77952  37.563   1.579  12.177
11522W        W77953  16.868  10.852   1.812
11523W        W77954  18.867  22.460   3.360
11524W        W77955  27.026  25.757   0.140
11525W        W77956  32.847  42.832   4.093
11526W        W77957  13.755  23.546   5.411
11527W        W77958  25.251  20.119   0.668
11528W        W77959  34.995  43.272   3.532
11529W        W77960  28.559  20.384  12.528
11530W        W77961   0.824   9.890   4.940
11531W        W77962   6.164   9.144   1.676
11532W        W77963  44.390  16.236  14.903
11533W        W77964  21.228  36.345   4.147
11534W        W77965  21.534  17.688   4.825
11535W        W77966   5.666  22.214  13.056
11536W        W77967  28.415  14.716   4.252
11537W        W77968  44.837  28.601  14.323
11538W        W77969  26.000  27.414  12.109
11539W        W77970   7.054  18.285   4.570
11540W        W77971  16.302   6.839  11.538
11541W        W77972  30.664  13.288   1.378
11542W        W77973  29.225  15.786   0.352
11543W        W77974  40.976  43.342  14.313
11544W        W77975  38.363   8.802   0.120
11545W        W77976   4.473  11.992  14.232
11546W        W77977  23.024  24.793   2.556
11547W        W77978  42.102  23.027  10.888
11548W        W77979   6.732   1.528   4.177
11549W        W77980  11.180  37.008   0.640
11550W        W77981  17.008   2.498  13.891
11551W        W77982  16.271  37.874   4.495
11552W        W77983  24.465  34.086  14.322
11553W        W77984  19.682  13.186  10.925
11554W        W77985   3.432  14.613  11.573
11555W        W77986  21.730  41.344  11.967
11556W        W77987   7.420  37.033   0.910
11557W        W77988  28.485   4.336  11.087
11558W        W77989  37.910  28.063   2.356
11559W        W77990   0.661  37.188  12.871
11560W        W77991  16.176  30.622  11.526
11561W        W77992  12.577  28.361  14.420
11562W        W77993   0.975  19.559   2.930
11563W        W77994  19.268  36.171   3.363
11564W        W77995   3.416  33.114   0.503
11565W        W77996  10.999  15.190  12.049
11566W        W77997  10.241   4.143  10.969
11567W        W77998   7.467  27.434  12.052
11568W        W77999   8.120  19.819   0.439
11569W        W78000  21.732  34.486  13.332
11570W        W78001  12.583  40.784  13.632
11571W        W78002   6.689  14.186  11.482
11572W        W78003  16.620   9.907  14.847
11573W        W78004   5.228  43.395  12.168
11574W        W78005  32.230  22.633   1.912
11575W        W78006  21.075  34.964  14.788
11576W        W78007  39.638  44.772  14.647
11577W        W78008  35.684  25.039  14.838
11578W        W78009  13.719  32.657   3.596
11579W        W78010  10.777  11.536   4.267
11580W        W78011   2.949  15.376  11.535
11581W        W78012  32.010  40.949   1.983
11582W        W78013  31.917  34.417   1.011
11583W        W78014  10.673   7.658   0.763
11584W        W78015  25.559  24.788  13.286
11585W        W78016  11.369  13.840  11.704
11586W        W78017  33.458  22.768   2.766
11587W        W78018  28.300  32.306   2.302
11588W        W78019  15.642  25.079   2.629
11589W        W78020  11.261  35.543  13.847
11590W        W78021  36.978  30.975   4.093
11591W        W78022  23.523  16.060   0.125
11592W        W78023   4.479  39.862  10.605
11593W        W78024   8.276  37.833  12.531
11594W        W78025  30.205   0.484  11.105
11595W        W78026  34.897  27.648   3.563
11596W        W78027  15.371  10.651   1.929
11597W        W78028  44.935  33.362   3.806
11598W        W78029   6.846   6.667   4.552
11599W        W78030  43.176  26.231  10.184
11600W        W78031  33.641  41.370   2.537
11601W        W78032   5.851  31.176   2.329
11602W        W78033  10.285  26.652  12.856
11603W        W78034  40.148  24.679  14.945
11604W        W78035   1.412   7.668   4.087
11605W        W78036  17.906  43.936   2.170
11606W        W78037  31.148  22.540  14.296
11607W        W78038   9.852  34.309  13.583
11608W        W78039  29.081  22.739  12.044
11609W        W78040  23.421  25.480  14.729
11610W        W78041   7.400  24.515   3.949
11611W        W78042   7.831  10.363  13.720
11612W        W78043  18.593  14.917  13.583
11613W        W78044  13.351  21.047  10.452
11614W        W78045   8.229  31.417  10.660
11615W        W78046   0.904  16.088  12.572
11616W        W78047   1.838  10.165   4.437
11617W        W78048  36.988  37.157  13.791
11618W        W78049  40.189  23.965  11.833
11619W        W78050   8.869  31.897  11.161
11620W        W78051  31.963  30.665  12.984
11621W        W78052   4.102  30.155  13.127
11622W        W78053   3.130  28.485   4.195
11623W        W78054   6.958  22.976  13.249
11624W        W78055  37.793  33.249  11.330
11625W        W78056  44.861  29.160   2.798
11626W        W78057  35.861  27.706  13.877
11627W        W78058  19.315   9.579   4.203
11628W        W78059   5.712  34.547  10.904
11629W        W78060   0.419  32.492   2.256
11630W        W78061  40.829  33.430  11.044
11631W        W78062  18.256  38.448   4.594
11632W        W78063  43.065  38.041   0.407
11633W        W78064   9.249  31.073  13.796
11634W        W78065  32.638  44.389   0.302
11635W        W78066  33.539  26.315  10.724
11636W        W78067   2.278  11.041  10.682
11637W        W78068  32.190  25.979  13.412
11638W        W78069  41.845  23.841  11.006
11639W        W78070  30.443   8.991  11.134
11640W        W78071  39.531  18.649   2.685
11641W        W78072  21.022  20.576   3.043
11642W        W78073  23.284  27.021  10.743
11643W        W78074  20.754  27.805  14.874
11644W        W78075   3.757  11.357   0.383
11645W        W78076  28.452  22.566   1.361
11646W        W78077   1.369   8.629   4.223
11647W        W78078  31.064  23.033  11.853
11648W        W78079   4.899  30.687  11.988
11649W        W78080  11.681   5.500   0.018
11650W        W78081  14.216  42.096   3.050
11651W        W78082  37.639   4.799   1.618
11652W        W78083  33.524  41.744  14.418
11653W        W78084  35.124  43.752   4.202
11654W        W78085  38.057  19.631   0.961
11655W        W78086  11.760  34.029   1.629
11656W        W78087  31.065  41.777  12.687
11657W        W78088   9.812  12.201   4.797
11658W        W78089  32.513  14.844   3.636
11659W        W78090  29.642   9.772  10.248
11660W        W78091  29.104   1.363  12.959
11661W        W78092  31.773  19.099   1.260
11662W        W78093   5.736  35.623   2.317
11663W        W78094  13.229  38.764  11.974
11664W        W78095  29.044  41.514   3.314
11665W        W78096  27.407  10.907  13.895
11666W        W78097  34.871   9.801  12.522
11667W        W78098  44.012  25.045  10.568
11668W        W78099  38.936  14.361   3.209
11669W        W78100  16.055  36.325  12.919
11670W        W78101   8.710  21.347  13.552
11671W        W78102  40.917  16.911   3.389
11672W        W78103   0.307  31.297  14.544
11673W        W78104  16.738  36.041   0.619
11674W        W78105  42.331  25.318   3.297
11675W        W78106  35.303   0.328  12.693
11676W        W78107  32.390  28.846  13.382
11677W        W78108  22.691  44.755   1.143
11678W        W78109  27.562  35.971   1.741
11679W        W78110  31.736   0.794   2.742
11680W        W78111   2.397   7.164   1.453
11681W        W78112  44.826  31.028  13.486
11682W        W78113  43.376  28.497   4.038
11683W        W78114  16.082   1.433  14.768
11684W        W78115  26.923  22.066  13.434
11685W        W78116  24.236  43.482  14.501
11686W        W78117  18.930  19.277   2.512
11687W        W78118   2.077  24.581  13.888
11688W        W78119  10.378  17.624  14.376
11689W        W78120  32.412  13.664  13.455
11690W        W78121  35.897  38.578   3.078
11691W        W78122  42.725   2.936  11.561
11692W        W78123  15.301  26.748   0.895
11693W        W78124  32.070  31.984   4.118
11694W        W78125  20.710  23.141   0.191
11695W        W78126   0.036  41.526  10.746
11696W        W78127  29.454  23.053  12.921
11697W        W78128  40.696  34.623   3.254
11698W        W78129   4.377  34.584  10.406
11699W        W78130  43.917  14.144   4.014
11700W        W78131  22.463  41.724  13.907
11701W        W78132  28.176  17.288   3.544
11702W        W78133  17.300  39.633  13.020
11703W        W78134  15.767  38.344   0.286
11704W        W78135  28.242  23.099  11.136
11705W        W78136  10.605  15.764  11.462
11706W        W78137  13.202  35.519  13.926
11707W        W78138  31.001  36.127   0.341
11708W        W78139  15.679  36.475   4.820
11709W        W78140  15.826  38.760   3.757
11710W        W78141  43.599  43.567  12.039
11711W        W78142   9.209   6.590   2.473
11712W        W78143   9.685  18.313   3.231
11713W        W78144  31.625  21.445   1.339
11714W        W78145  37.282  37.658   4.506
11715W        W78146  26.410   7.116  12.486
11716W        W78147  11.109   5.715  10.815
11717W        W78148  44.467  12.699   0.389
11718W        W78149  12.567  24.430  12.987
11719W        W78150   1.678  14.183  14.494
11720W        W78151  30.915  16.540   4.091
11721W        W78152  25.200  10.358   4.470
11722W        W78153  18.984  38.560  10.496
11723W        W78154  43.209   9.266   3.799
11724W        W78155  42.307  42.011   0.157
11725W        W78156  10.354  39.490   0.839
11726W        W78157  13.927  23.239   1.698
11727W        W78158  23.502  34.652   0.755
11728W        W78159  36.698  34.659  12.086
11729W        W78160  32.356  31.447   2.239
11730W        W78161  10.800  24.745  10.988
11731W        W78162  25.510  40.939  10.927
11732W        W78163   8.785  33.859  12.786
11733W        W78164  20.274  41.739  14.249
11734W        W78165  26.028  24.361   1.820
11735W        W78166  38.304  31.995  10.595
11736W        W78167   6.767  28.510   1.888
11737W        W78168  31.580  28.055   1.737
11738W        W78169  32.053  12.347  10.982
11739W        W78170  12.530  33.090   3.431
11740W        W78171  36.454  15.632  14.525
11741W        W78172  20.535   0.584  12.571
11742W        W78173  33.550  40.982   4.082
11743W        W78174   3.274  14.849  12.039
11744W        W78175  28.391  36.566  11.539
11745W        W78176  35.836  23.964   4.166
11746W        W78177  44.838  41.541   2.326
11747W        W78178   1.237  19.067  13.370
11748W        W78179  23.337  17.753   5.235
11749W        W78180  40.427  19.421  13.984
11750W        W78181  24.696   9.260   1.472
11751W        W78182   9.779  19.506  12.337
11752W        W78183   0.168  29.632  12.030
11753W        W78184  27.896  31.395   2.219
11754W        W78185  26.271  22.959   4.089
11755W        W78186   1.639   8.358  13.770
11756W        W78187  28.790  16.162  13.977
11757W        W78188  35.284  24.417   0.531
11758W        W78189   7.235  41.782   1.317
11759W        W78190  18.521  20.392   2.267
11760W        W78191  26.132  42.069   0.640
11761W        W78192  13.878  11.798  11.509
11762W        W78193  26.082  44.842  10.890
11763W        W78194  34.673  38.686  12.356
11764W        W78195  42.426   0.793   2.159
11765W        W78196  43.336   8.801   0.746
11766W        W78197   1.344  28.495   0.763
11767W        W78198  31.833  13.834  12.526
11768W        W78199  10.869  36.422   3.148
11769W        W78200  13.409  13.110  14.385
11770W        W78201  11.166  12.602   4.689
11771W        W78202  13.335   1.361  12.315
11772W        W78203  19.795  40.520  14.402
11773W        W78204  28.988  24.323  12.189
11774W        W78205  36.470  43.339   2.427
11775W        W78206  25.007  36.464  12.024
11776W        W78207  18.026  11.823   3.591
11777W        W78208  16.249   9.881   4.181
11778W        W78209  21.943  26.624  14.511
11779W        W78210   2.220  26.196  11.814
11780W        W78211   5.364  34.704  13.240
11781W        W78212  13.381  39.067   5.042
11782W        W78213  33.372  30.226  10.995
11783W        W78214  44.721  32.164  11.184
11784W        W78215  38.544  16.978  10.907
11785W        W78216   0.872  18.276   3.069
11786W        W78217   3.789  16.773  13.396
11787W        W78218  15.719  35.120   3.297
11788W        W78219  32.472  19.190  10.606
11789W        W78220  33.128  31.440   3.774
11790W        W78221  37.455  30.807   2.815
11791W        W78222  23.631  44.683  13.486
11792W        W78223   4.978  15.525  10.239
11793W        W78224  22.944  28.904   3.667
11794W        W78225   7.399  13.787   2.842
11795W        W78226  26.812  43.712   0.680
11796W        W78227  41.192  11.178   3.210
11797W        W78228  43.057  41.765  11.668
11798W        W78229  15.795   5.461  14.985
11799W        W78230   9.327  20.148  11.652
11800W        W78231  37.833   7.687  13.368
11801W        W78232   6.152   0.467   0.528
11802W        W78233  10.371  14.477   2.787
11803W        W78234   5.735   1.691  10.849
11804W        W78235  16.180  22.266  13.063
11805W        W78236  31.407  24.944   2.867
11806W        W78237   9.975   3.358   4.231
11807W        W78238   1.670  22.587   1.633
11808W        W78239   9.090  17.750  14.290
11809W        W78240  40.311   5.141   4.090
11810W        W78241  38.927  24.621  12.302
11811W        W78242  21.286  38.357   0.965
11812W        W78243  33.194  40.851   4.463
11813W        W78244  26.676  13.187   0.204
11814W        W78245   8.230  13.829   1.168
11815W        W78246   2.541  21.661   1.740
11816W        W78247  34.846  39.531  14.254
11817W        W78248  27.737  34.968  13.630
11818W        W78249  28.037  12.370   0.269
11819W        W78250  40.751  34.603  10.761
11820W        W78251   9.257  26.281   3.755
11821W        W78252  42.017  18.471  12.628
11822W        W78253   4.220   9.638   4.044
11823W        W78254  18.517   7.249  12.863
11824W        W78255  14.676   1.085  12.830
11825W        W78256   9.647  37.588  13.258
11826W        W78257   7.762  26.691   4.563
11827W        W78258   3.714   3.603   1.336
11828W        W78259  41.522   0.858  11.857
11829W        W78260  17.674  29.670  11.639
11830W        W78261  12.727  36.220   4.153
11831W        W78262  36.923  10.768  11.944
11832W        W78263  42.819   0.081  13.879
11833W        W78264  30.948  11.223  11.516
11834W        W78265   5.480  38.391   1.458
11835W        W78266   0.820  30.156   0.513
11836W        W78267  31.681  36.438  13.484
11837W        W78268  24.980  29.303  14.489
11838W        W78269  17.516  14.639  12.125
11839W        W78270  12.252  35.934   4.300
11840W        W78271  30.582   7.406  13.387
11841W        W78272  23.102  18.169   1.695
11842W        W78273  44.375  17.684   3.952
11843W        W78274  18.541  36.487   2.318
11844W        W78275  25.784  29.216  11.085
11845W        W78276   1.038  34.011  11.358
11846W        W78277  15.786   7.126  13.312
11847W        W78278  30.610  38.446   0.504
11848W        W78279   3.334  14.827  13.000
11849W        W78280  43.887  27.902   3.621
11850W        W78281  36.912   6.730   2.362
11851W        W78282  29.639  23.729   3.608
11852W        W78283  13.333  17.232   0.871
11853W        W78284  11.875  17.412  11.938
11854W        W78285  34.883  25.209   3.159
11855W        W78286  44.448  11.252   4.144
11856W        W78287  17.804  16.844   2.436
11857W        W78288  35.128   6.027   1.794
11858W        W78289   5.619  41.813  11.525
11859W        W78290  15.533  15.552   2.701
11860W        W78291  18.760  39.120   4.861
11861W        W78292  39.634  34.889  12.437
11862W        W78293   9.872  16.775   1.956
11863W        W78294  13.125  42.210   1.953
11864W        W78295  29.235  31.975  14.027
11865W        W78296  39.768  27.265  13.460
11866W        W78297   7.744  26.489  13.001
11867W        W78298  44.848  37.976  12.899
11868W        W78299  33.492  32.887  14.049
11869W        W78300  44.421  35.699   0.486
11870W        W78301   4.468  24.626   3.749
11871W        W78302  42.949  29.464  14.493
11872W        W78303  40.453  20.786   0.676
11873W        W78304  25.127  39.560  11.549
11874W        W78305  37.127  16.063  12.527
11875W        W78306  29.860  31.972   4.259
11876W        W78307  16.329   6.384   2.156
11877W        W78308  14.082  31.936   4.094
11878W        W78309  19.072  42.855  10.937
11879W        W78310  18.530  38.854  12.109
11880W        W78311  16.277  14.117  14.274
11881W        W78312  13.674  10.388   1.273
11882W        W78313   9.800  10.343   4.601
11883W        W78314  26.183  23.766  13.899
11884W        W78315   1.632  35.070  14.851
11885W        W78316  33.995  42.729  10.634
11886W        W78317  43.876   3.178   3.694
11887W        W78318  22.488  31.314  11.097
11888W        W78319  25.171  22.737   2.798
11889W        W78320  33.920   1.404   1.444
11890W        W78321  38.609  18.929   0.032
11891W        W78322  25.517  18.744  14.340
11892W        W78323  28.020   0.469  14.911
11893W        W78324  25.559  31.440  12.701
11894W        W78325  32.299  44.856  14.563
11895W        W78326  16.568  44.696   4.635
11896W        W78327  11.825   1.881  14.828
11897W        W78328   0.977  13.414  13.989
11898W        W78329   1.032  12.686  13.019
11899W        W78330  14.240  14.279   0.863
11900W        W78331  22.098  35.125  14.809
11901W        W78332  18.562   1.201  14.800
11902W        W78333  20.056  44.700   0.754
11903W        W78334   3.923  27.251   1.270
11904W        W78335  36.914   3.228   1.960
11905W        W78336  18.735  14.105   1.282
11906W        W78337  43.965  28.345  13.431
11907W        W78338  41.900   7.778  13.975
11908W        W78339   2.779  37.272   2.848
11909W        W78340   1.829  43.178   4.109
11910W        W78341  10.777  43.713  12.809
11911W        W78342  43.341  10.409  13.301
11912W        W78343  41.354   2.986   2.140
11913W        W78344  19.633  15.126  14.378
11914W        W78345   0.252  44.231   2.322
11915W        W78346  22.066   6.443  11.556
11916W        W78347  13.187  24.935  14.732
11917W        W78348  16.634  44.420  13.861
11918W        W78349  12.651  16.313  13.861
11919W        W78350  43.935  40.528   3.323
11920W        W78351  11.813  12.809   2.701
11921W        W78352  31.362  14.223  13.886
11922W        W78353   4.650   1.974  11.588
11923W        W78354  16.535  35.816   2.892
11924W        W78355  11.190  21.146  13.315
11925W        W78356  24.275  10.207  11.439
11926W        W78357  39.801  10.908   2.175
11927W        W78358  13.050   2.672   0.235
11928W        W78359  35.052  27.533  12.097
11929W        W78360  16.833  35.108  10.919
11930W        W78361  43.840  38.985  11.031
11931W        W78362  10.687  36.440  12.477
11932W        W78363  39.541  27.253   3.233
11933W        W78364  44.941  26.550  14.842
11934W        W78365   3.173  32.894   0.901
11935W        W78366  42.359   6.816   2.289
11936W        W78367  42.840  39.273   1.296
11937W        W78368   8.666  25.407   2.248
11938W        W78369  18.799  34.823  14.095
11939W        W78370  12.518  44.245   4.858
11940W        W78371   0.452  39.117  14.005
11941W        W78372   8.904  36.506  11.731
11942W        W78373  35.411  21.623   4.314
11943W        W78374  33.287  24.818  14.973
11944W        W78375  43.224  24.863   3.748
11945W        W78376   5.290  23.630  11.998
11946W        W78377  25.490   2.032   4.720
11947W        W78378  20.152  14.380  12.580
11948W        W78379   4.249  23.610   3.194
11949W        W78380   0.131  38.691   3.605
11950W        W78381  33.994   4.190   4.884
11951W        W78382  17.544  25.297  10.629
11952W        W78383   3.802  15.665  11.191
11953W        W78384   5.444  36.948   2.740
11954W        W78385  32.032   6.917   9.820
11955W        W78386   4.397  42.709  13.814
11956W        W78387  40.469   5.925   2.768
11957W        W78388   0.779  17.768   4.402
11958W        W78389   0.012  34.127  11.119
11959W        W78390  41.044   7.105   2.551
11960W        W78391  32.603   7.496   4.950
11961W        W78392  12.573   7.420   3.883
11962W        W78393   7.786  33.527  12.498
11963W        W78394  20.490   4.283  10.695
11964W        W78395   6.448  27.127   2.673
11965W        W78396   0.515   8.299  11.556
11966W        W78397  26.888  34.973  11.707
11967W        W78398  26.183   3.888   4.153
11968W        W78399  32.174   7.044  10.294
11969W        W78400  42.871  40.340   2.887
11970W        W78401   6.012   8.493   1.346
11971W        W78402  16.292   5.450  14.076
11972W        W78403  18.875  12.235  14.809
11973W        W78404  43.040  31.531   2.845
11974W        W78405  38.358  14.168   4.941
11975W        W78406  19.266   6.819  11.960
11976W        W78407  39.384   1.202   0.914
11977W        W78408  34.914  30.871   2.606
11978W        W78409   5.911  21.625   1.833
11979W        W78410  29.176  41.827   4.982
11980W        W78411  41.448  17.814  11.666
11981W        W78412  23.297  33.850  11.460
11982W        W78413  38.884  22.066   4.396
11983W        W78414  44.459  39.285  13.898
11984W        W78415  43.491   1.748  14.586
11985W        W78416   5.974  39.483  11.846
11986W        W78417   5.924   5.466   4.053
11987W        W78418  18.809  14.678   2.168
11988W        W78419  24.450   4.921  13.556
11989W        W78420   3.416  29.121   3.651
11990W        W78421  29.689  29.015  13.979
11991W        W78422  15.258   1.029  14.722
11992W        W78423  13.610  17.080  12.639
11993W        W78424   5.819  21.703   2.847
11994W        W78425  28.117  27.550  10.560
11995W        W78426  35.050  15.339   4.874
11996W        W78427  35.333  26.698   2.140
11997W        W78428  12.349  41.377   1.160
11998W        W78429  25.184  42.289   0.935
11999W        W78430  12.339   3.174   4.220
12000W        W78431   1.230   9.177  13.018
12001W        W78432   1.682   5.836   0.460
12002W        W78433   6.130  32.861   0.885
12003W        W78434  37.228  22.453   3.644
12004W        W78435  39.395  24.458   4.714
12005W        W78436  36.375   9.404  13.594
12006W        W78437  37.972  37.599  11.994
12007W        W78438  15.765  32.361   2.463
12008W        W78439   7.287   7.323  12.536
12009W        W78440  33.425  36.453  14.938
12010W        W78441  27.885   8.847   4.558
12011W        W78442  36.963  23.762   4.765
12012W        W78443  22.451  26.752   0.287
12013W        W78444  28.699  15.110  13.150
12014W        W78445  14.119  20.294   0.973
12015W        W78446  24.112  23.137   1.403
12016W        W78447  35.796   3.117   1.382
12017W        W78448  25.881  13.848  14.797
12018W        W78449  13.885  18.183   1.746
12019W        W78450   2.885  13.658  10.719
12020W        W78451  27.675  14.177  11.219
12021W        W78452  26.580  35.724  12.341
12022W        W78453  36.497  43.899  14.010
12023W        W78454  20.497   8.604   1.812
12024W        W78455  43.969   0.526  14.335
12025W        W78456  28.718  23.583   0.849
12026W        W78457  35.668  40.872  11.046
12027W        W78458  36.420  30.329   3.658
12028W        W78459   8.799  33.535  10.790
12029W        W78460  21.274  21.967  12.866
12030W        W78461  26.131   8.769   5.122
12031W        W78462  25.605  16.007  14.466
12032W        W78463   4.135   7.008   0.667
12033W        W78464   4.318  19.315   0.441
12034W        W78465   3.535  31.062   0.883
12035W        W78466  29.203  17.583   0.943
12036W        W78467  41.063  10.883  13.481
12037W        W78468  35.873   2.533   3.831
12038W        W78469   4.898  39.208  14.592
12039W        W78470  17.620   8.300   1.756
12040W        W78471  33.656  20.109  11.474
12041W        W78472   0.951  18.081  14.311
12042W        W78473  39.412  36.273   2.214
12043W        W78474   2.010  31.893   1.988
12044W        W78475  33.882  33.221  11.013
12045W        W78476  35.554  34.387   4.328
12046W        W78477  43.994  43.107  14.512
12047W        W78478  24.157  28.695   1.301
12048W        W78479  37.350   6.379   2.382
12049W        W78480  42.957  18.121  12.611
12050W        W78481  10.155  15.637  12.742
12051W        W78482  44.542  27.486  12.535
12052W        W78483  39.673  23.263  13.346
12053W        W78484  23.004   8.633  10.746
12054W        W78485  36.610   8.338  12.850
12055W        W78486  12.560  25.032  12.460
12056W        W78487  36.998  25.901   2.693
12057W        W78488   4.709  34.511   2.705
12058W        W78489  26.699  44.824  13.812
12059W        W78490   3.948   4.366   0.710
12060W        W78491  32.885  20.414  13.588
12061W        W78492  26.347  40.877   3.253
12062W        W78493  25.595  35.482   3.063
12063W        W78494  33.663  14.903   2.809
12064W        W78495  25.358  40.978   3.238
12065W        W78496  32.105  14.294   3.793
12066W        W78497  12.844   9.747   4.828
12067W        W78498  21.581  10.929  10.438
12068W        W78499  31.038  15.555   3.281
12069W        W78500  30.701   1.518  11.578
12070W        W78501  38.064  24.730  14.431
12071W        W78502  14.179  20.622  13.409
12072W        W78503  35.832  28.919   3.659
12073W        W78504   3.310  11.053  10.825
12074W        W78505  20.209  21.020   4.760
12075W        W78506  15.549  43.017   3.970
12076W        W78507   3.272   7.887   0.255
12077W        W78508  24.551  26.401   1.117
12078W        W78509   1.541  25.205  10.897
12079W        W78510  19.298  26.176  10.477
12080W        W78511  11.099   2.536  14.510
12081W        W78512  26.011   9.708  13.427
12082W        W78513  31.205  19.602   2.321
12083W        W78514  20.052  20.069  13.846
12084W        W78515  28.225  27.865  11.482
12085W        W78516  41.102  19.176   4.712
12086W        W78517   3.772   1.403   4.627
12087W        W78518  33.457  35.903  12.137
12088W        W78519  10.077  28.075   2.614
12089W        W78520  29.029  30.645   4.604
12090W        W78521   6.208  34.518  10.791
12091W        W78522  30.072  44.895  11.972
12092W        W78523   3.204  12.805   2.333
12093W        W78524  30.217  20.503   4.042
12094W        W78525   7.828  34.666  10.583
12095W        W78526   9.254   5.710  13.320
12096W        W78527  22.223  23.477   1.750
12097W        W78528  23.837  15.029   1.480
12098W        W78529  21.311  24.608  14.085
12099W        W78530  20.158  19.064   3.688
12100W        W78531  19.829  36.501  10.952
12101W        W78532  39.475  21.497  12.946
12102W        W78533  31.450  37.266  12.469
12103W        W78534  25.457  35.942  11.772
12104W        W78535  25.098  44.472   3.867
12105W        W78536  39.772  18.767   1.242
12106W        W78537  31.973   4.688   4.019
12107W        W78538  21.553  23.238  11.919
12108W        W78539  35.196  33.634  12.051
12109W        W78540   5.939  44.856   2.825
12110W        W78541  26.855  11.409  13.917
12111W        W78542  29.387  34.019  13.978
12112W        W78543  16.277  15.957  11.565
12113W        W78544  17.026  35.587   9.995
12114W        W78545   3.682  21.316   4.897
12115W        W78546  41.001  20.757   1.018
12116W        W78547  38.792  16.383   3.516
12117W        W78548  28.441  33.960  10.649
12118W        W78549  11.761  23.577   4.832
12119W        W78550  18.839   3.254   0.504
12120W        W78551  16.166  34.640  13.000
12121W        W78552  40.362  22.549  14.826
12122W        W78553  41.055  40.082   0.965
12123W        W78554  43.434   8.322   1.007
12124W        W78555  18.201   1.967  14.087
12125W        W78556  17.532  20.480  11.880
12126W        W78557   9.230   7.720  14.313
12127W        W78558  29.138   8.716   5.015
12128W        W78559  24.141  28.933  13.367
12129W        W78560   7.666  43.696  12.761
12130W        W78561   8.056  26.511   1.885
12131W        W78562  19.493  17.648  14.973
12132W        W78563  10.315  39.243   2.217
12133W        W78564   3.702  36.167   2.769
12134W        W78565  43.550  20.735   2.804
12135W        W78566  43.920  30.010   0.274
12136W        W78567   2.053  23.270   2.351
12137W        W78568   7.871  10.116  10.866
12138W        W78569  14.746   8.819   2.673
12139W        W78570   8.054   3.220   3.711
12140W        W78571  28.565   6.214  10.913
12141W        W78572  42.016  44.449  13.439
12142W        W78573   6.201  14.609   0.180
12143W        W78574   8.398  35.577  13.888
12144W        W78575  18.179  21.550   4.369
12145W        W78576  39.243   1.432  11.909
12146W        W78577  12.625  19.675  14.050
12147W        W78578  15.246  19.177  13.870
12148W        W78579  34.498  17.630  14.964
12149W        W78580  33.944   3.883  13.792
12150W        W78581   3.183  22.720  13.976
12151W        W78582  43.783  43.362   0.367
12152W        W78583   8.122  32.074   3.728
12153W        W78584   1.880  33.306  13.666
12154W        W78585  44.261   2.155   3.121
12155W        W78586  12.381  30.080   0.384
12156W        W78587   8.767   4.415   0.283
12157W        W78588  34.916  33.521   3.710
12158W        W78589  38.854  26.165   4.578
12159W        W78590  31.621  44.397   4.216
12160W        W78591  24.999  33.460   2.878
12161W        W78592  14.892  16.955   4.542
12162W        W78593   1.710   2.352   0.489
12163W        W78594  24.760  20.916   0.619
12164W        W78595  23.394  21.309  11.133
12165W        W78596  37.130  37.791  10.608
12166W        W78597  20.954  22.732   1.346
12167W        W78598   3.314  20.699   3.335
12168W        W78599   5.579  40.924   1.412
12169W        W78600  43.482  17.884  10.605
12170W        W78601   4.427  17.447   1.629
12171W        W78602   2.304  36.786   4.852
12172W        W78603  43.766  16.671   0.455
12173W        W78604  29.589  31.745  12.025
12174W        W78605  36.732  10.402   2.707
12175W        W78606  18.344  44.388   4.168
12176W        W78607  44.258  43.523   3.670
12177W        W78608  32.495   2.427  12.498
12178W        W78609  29.525  28.042   2.236
12179W        W78610  34.549  28.138  11.717
12180W        W78611  37.290  37.005   3.263
12181W        W78612  32.833  27.989   0.245
12182W        W78613   5.943   4.622   3.865
12183W        W78614  20.243  39.101   1.639
12184W        W78615  30.815  33.888   3.964
12185W        W78616  15.047  25.729  14.216
12186W        W78617  32.096  24.146   2.579
12187W        W78618  13.553   5.430   3.542
12188W        W78619   5.013  42.774  12.879
12189W        W78620  26.048  25.916   1.690
12190W        W78621  17.520  29.556  11.148
12191W        W78622  31.311  18.818  11.043
12192W        W78623   2.258   7.967  11.222
12193W        W78624  18.178  14.872  10.241
12194W        W78625   3.257  13.123  13.999
12195W        W78626  35.577  38.710   1.336
12196W        W78627  15.923  10.383  12.000
12197W        W78628  18.005   2.525   1.842
12198W        W78629   2.539  34.137  11.956
12199W        W78630   1.842  26.488   4.993
12200W        W78631  36.874  40.029  14.166
12201W        W78632  30.216  23.052  12.492
12202W        W78633   2.432  24.663   4.553
12203W        W78634   0.025   0.250  12.992
12204W        W78635  33.541  43.251   4.569
12205W        W78636   7.249   8.214  13.011
12206W        W78637  37.905   6.442   3.259
12207W        W78638  14.529  17.250   4.745
12208W        W78639  32.715  42.910  13.828
12209W        W78640   2.967   5.243   3.147
12210W        W78641   4.400   5.780  13.029
12211W        W78642   5.786  35.503  12.455
12212W        W78643  43.848  23.270   0.524
12213W        W78644  10.270  21.106   0.252
12214W        W78645  31.366  33.047   2.656
12215W        W78646  38.801   0.896  11.544
12216W        W78647  26.457  35.771   0.192
12217W        W78648  13.794   6.114  12.701
12218W        W78649  10.773  22.523   3.937
12219W        W78650   7.614  16.187  11.687
12220W        W78651  22.031  18.782  13.348
12221W        W78652  16.247   0.297  12.667
12222W        W78653  17.807  18.144  14.105
12223W        W78654  33.197  44.622  10.590
12224W        W78655  32.681  21.183  12.473
12225W        W78656  42.267  29.597   1.200
12226W        W78657  38.116  17.659   3.783
12227W        W78658   4.930  20.423   0.464
12228W        W78659  17.645   6.718  12.916
12229W        W78660  20.184  34.826  10.669
12230W        W78661  35.697  25.130   3.711
12231W        W78662   6.672  11.292  11.282
12232W        W78663  40.480  28.894   3.018
12233W        W78664  43.578  44.502   3.817
12234W        W78665  43.794  27.209   2.801
12235W        W78666  43.710  13.880   3.584
12236W        W78667  25.964  27.890  11.389
12237W        W78668  37.236   0.722   2.389
12238W        W78669  35.122  13.178   4.444
12239W        W78670  30.036  21.628  12.893
12240W        W78671  10.698  35.357  11.912
12241W        W78672   6.111  30.128   2.933
12242W        W78673  11.789  36.304   1.863
12243W        W78674   3.193  37.572   3.072
12244W        W78675  20.477  26.208  10.943
12245W        W78676  14.549  31.542   0.357
12246W        W78677  11.952  42.024   2.352
12247W        W78678  33.908   7.153   2.891
12248W        W78679  20.701   8.775  11.046
12249W        W78680  38.997  19.979   5.347
12250W        W78681  29.601   6.167   1.235
12251W        W78682   1.706   1.937  12.673
12252W        W78683   9.204   1.934  13.370
12253W        W78684   2.177   3.539   0.748
12254W        W78685  40.325  14.373  12.083
12255W        W78686  32.518  16.195   3.806
12256W        W78687  38.076  34.911   0.766
12257W        W78688  32.953  10.795  12.195
12258W        W78689  14.345  14.504  12.444
12259W        W78690  40.864  25.484  13.927
12260W        W78691  40.338  28.017  14.965
12261W        W78692  24.583  29.999  13.587
12262W        W78693  34.876  35.815  11.549
12263W        W78694   4.061  28.976   0.692
12264W        W78695  16.899  39.241   2.184
12265W        W78696   6.641  25.553  12.477
12266W        W78697  11.800  23.968  13.165
12267W        W78698  16.731  33.884   2.782
12268W        W78699  39.290  43.913  14.400
12269W        W78700  28.482  18.249  13.346
12270W        W78701  26.863  42.038  13.888
12271W        W78702   6.161  38.898  14.457
12272W        W78703  18.326  29.702  13.373
12273W        W78704   4.699   5.277   4.435
12274W        W78705   5.636  25.617   2.218
12275W        W78706  18.072  36.310  14.277
12276W        W78707  35.451  14.915   1.746
12277W        W78708  27.408  27.822  12.010
12278W        W78709  35.422  38.873  13.935
12279W        W78710   1.718  25.261   4.094
12280W        W78711  11.821  18.346  14.539
12281W        W78712   4.238   3.233  13.055
12282W        W78713  40.584  16.438  13.454
12283W        W78714   6.688  44.388  13.574
12284W        W78715  31.182  15.539   0.886
12285W        W78716  36.573  10.796   4.854
12286W        W78717  40.234  10.332   1.837
12287W        W78718  43.510  36.242   0.429
12288W        W78719   3.359   7.428  11.932
12289W        W78720  33.657  23.983  11.127
12290W        W78721  35.899  15.707  12.918
12291W        W78722  39.489   5.017  10.931
12292W        W78723   1.846   5.989  13.801
12293W        W78724  19.101  15.508   1.614
12294W        W78725  16.619   8.477   0.998
12295W        W78726  37.353  16.173  10.638
12296W        W78727  23.596  41.380   1.939
12297W        W78728  24.247  11.921  10.802
12298W        W78729  26.236   1.842  10.146
12299W        W78730   9.121  21.520   1.275
12300W        W78731  31.130  35.791   4.782
12301W        W78732   8.684   5.601  12.871
12302W        W78733  34.844   2.856   4.751
12303W        W78734  13.755   4.486  11.265
12304W        W78735  16.622  43.331   0.846
12305W        W78736  34.996  21.979  12.017
12306W        W78737  37.499  34.487   9.785
12307W        W78738  25.582  11.188  13.342
12308W        W78739  20.238  31.948  12.147
12309W        W78740  13.868  37.866   0.325
12310W        W78741  14.379  20.038   3.307
12311W        W78742  43.779   2.419   3.148
12312W        W78743   4.908  17.590  14.383
12313W        W78744  31.906   6.716   0.032
12314W        W78745  17.138   7.905   0.460
12315W        W78746  26.550  10.043   0.388
12316W        W78747  26.372   6.709  10.210
12317W        W78748   7.737  29.682   4.187
12318W        W78749  26.110  19.526   2.660
12319W        W78750  44.919   5.861  14.808
12320W        W78751  25.088  34.554   0.811
12321W        W78752  22.007  38.166  11.895
12322W        W78753  13.285  11.311  14.528
12323W        W78754  17.187  38.352   3.702
12324W        W78755  33.184   1.726   3.355
12325W        W78756  19.171  37.511  13.114
12326W        W78757  34.592  10.434  14.086
12327W        W78758  19.573  29.093   3.704
12328W        W78759  28.828  18.983  11.201
12329W        W78760  18.635  25.430  11.003
12330W        W78761  10.389  33.534  11.602
12331W        W78762  23.763  21.800  14.895
12332W        W78763  13.477  34.243  11.086
12333W        W78764   9.647  23.353   2.786
12334W        W78765  30.387  19.927   1.943
12335W        W78766  18.990  17.644  14.028
12336W        W78767  41.759  43.222   0.689
12337W        W78768  38.972  15.359   3.289
12338W        W78769   7.205  33.928  14.869
12339W        W78770  38.245  42.360   3.250
12340W        W78771  12.919   5.033   2.371
12341W        W78772  40.346  28.989  12.956
12342W        W78773  16.126   9.211   0.122
12343W        W78774  22.815   3.343  12.869
12344W        W78775  44.966   8.741  13.961
12345W        W78776   4.358  14.221  13.764
12346W        W78777  19.944  10.910   0.697
12347W        W78778  44.105   1.957  12.294
12348W        W78779  29.986  41.389   3.720
12349W        W78780   3.895  43.870   3.275
12350W        W78781  16.859  29.339   0.006
12351W        W78782   2.173  44.238  11.932
12352W        W78783   8.304  28.018   0.296
12353W        W78784  31.208  27.927  10.824
12354W        W78785   1.494  16.672   1.967
12355W        W78786  39.584  24.152   2.238
12356W        W78787  26.725  32.575  14.248
12357W        W78788  13.962  27.203  12.393
12358W        W78789  39.234  32.898   4.425
12359W        W78790  15.338  11.556   1.993
12360W        W78791  20.313   6.998  13.102
12361W        W78792   1.782   2.633   0.940
12362W        W78793   9.808  26.188   1.625
12363W        W78794  34.913  23.509   2.583
12364W        W78795   3.304  10.588  12.477
12365W        W78796  30.685  29.473  11.437
12366W        W78797  42.020  22.028  11.956
12367W        W78798  29.010  30.398  12.103
12368W        W78799  43.316   3.212   1.488
12369W        W78800  22.085  12.448   0.797
12370W        W78801   7.327  12.813  10.594
12371W        W78802  40.585  41.314  11.560
12372W        W78803  27.588  39.586  13.737
12373W        W78804  10.718  29.597  14.857
12374W        W78805   2.297   6.294  14.458
12375W        W78806  37.357  43.382   3.082
12376W        W78807   5.480   3.771  12.555
12377W        W78808  20.591   8.615  11.973
12378W        W78809  38.372  29.743   3.250
12379W        W78810   1.573  35.800   0.471
12380W        W78811  22.713  38.376  14.736
12381W        W78812  15.767  30.104   0.415
12382W        W78813   1.980  29.094  11.219
12383W        W78814  20.882   2.593   4.394
12384W        W78815  38.248  32.186   4.192
12385W        W78816  39.357  31.098   0.325
12386W        W78817  39.795  21.780   1.915
12387W        W78818  13.541   0.912   0.694
12388W        W78819  15.859  41.871   0.287
12389W        W78820  16.622  16.660   3.088
12390W        W78821  23.057  16.481  11.548
12391W        W78822  24.634  12.951  14.648
12392W        W78823  32.948   5.369  10.432
12393W        W78824  14.192   9.772   4.124
12394W        W78825  31.283  35.291   0.291
12395W        W78826  15.427  29.592  12.993
12396W        W78827  21.036   0.120  13.836
12397W        W78828  19.951   7.302   1.193
12398W        W78829   1.078  17.367   2.042
12399W        W78830  14.236  39.765   3.806
12400W        W78831  23.901   0.991  12.494
12401W        W78832  19.517  24.999   4.144
12402W        W78833  21.719   8.895  12.013
12403W        W78834   0.490  15.601   3.250
12404W        W78835  34.475  28.026   4.541
12405W        W78836  31.866  41.389  13.485
12406W        W78837   5.417   1.330   4.950
12407W        W78838  29.199  40.416  13.453
12408W        W78839  39.860  36.792   4.138
12409W        W78840   6.487  37.853  10.421
12410W        W78841  20.867  24.505   4.074
12411W        W78842  24.254  32.414  11.465
12412W        W78843  27.135   4.718  14.252
12413W        W78844  30.671  15.504   0.827
12414W        W78845   7.199  16.871  14.713
12415W        W78846  36.974  11.402  14.939
12416W        W78847   7.350   9.310   0.503
12417W        W78848  18.168  36.349   1.955
12418W        W78849   0.244  44.289  12.264
12419W        W78850  35.889   2.031   1.679
12420W        W78851  43.244  41.410  12.002
12421W        W78852  41.486  16.664   4.532
12422W        W78853  34.537  16.190   3.664
12423W        W78854   0.811  20.806  11.530
12424W        W78855  11.814   4.258  13.142
12425W        W78856  36.700  40.708  10.279
12426W        W78857  32.174   4.802   1.338
12427W        W78858  38.029   6.194   4.695
12428W        W78859  35.003   1.047   0.688
12429W        W78860   5.871   4.424  12.084
12430W        W78861  33.756  22.578  10.340
12431W        W78862  36.918   5.796  14.417
12432W        W78863   1.019  38.962  12.830
12433W        W78864  24.094  32.889  11.568
12434W        W78865  30.213  41.282  10.939
12435W        W78866  24.688  26.830  12.918
12436W        W78867  28.115   8.789   1.415
12437W        W78868  19.139  28.803  12.075
12438W        W78869  24.666  24.841   3.731
12439W        W78870  37.987  34.942   1.670
12440W        W78871  35.027   5.365  10.479
12441W        W78872  12.693   4.018  11.110
12442W        W78873  24.617  36.359   2.625
12443W        W78874  18.492   3.478  12.485
12444W        W78875  27.331  10.233   1.401
12445W        W78876  14.444  18.486   1.063
12446W        W78877  25.959  11.221  10.406
12447W        W78878  43.574  17.141  13.294
12448W        W78879  40.376  39.108  12.467
12449W        W78880  31.249  34.714  11.284
12450W        W78881  25.176   0.370   3.834
12451W        W78882  33.053  42.735   1.338
12452W        W78883  27.120  23.269  14.021
12453W        W78884  25.338  35.202  12.658
12454W        W78885  17.847   8.454  14.508
12455W        W78886  23.125   4.414   3.091
12456W        W78887  35.245  32.929   2.584
12457W        W78888  42.125   4.519   1.821
12458W        W78889  42.299  12.381   0.416
12459W        W78890   9.834  41.983  10.557
12460W        W78891  29.999   8.883  11.333
12461W        W78892  23.246  25.953   0.037
12462W        W78893   7.113  41.358  10.720
12463W        W78894   3.373   3.395  13.357
12464W        W78895   5.860  39.132   2.341
12465W        W78896  22.435   3.960   1.123
12466W        W78897  17.241  24.976   4.536
12467W        W78898   4.331   5.191   3.673
12468W        W78899  44.529  19.226  11.608
12469W        W78900   7.248  28.515  12.903
12470W        W78901  30.194  19.615   2.331
12471W        W78902  34.803  36.589  10.676
12472W        W78903   1.141   8.605  10.367
12473W        W78904   5.494  28.685  14.921
12474W        W78905  16.569  19.526   3.735
12475W        W78906  19.261  16.773  14.338
12476W        W78907  18.338  16.340   4.087
12477W        W78908   2.177  18.030  13.473
12478W        W78909  28.087  32.102  12.900
12479W        W78910  32.999  21.562  14.077
12480W        W78911   3.289  38.094   1.886
12481W        W78912  26.226   5.885   4.178
12482W        W78913  38.125  31.365  13.858
12483W        W78914   0.750  20.057   0.857
12484W        W78915  13.227  40.583   3.868
12485W        W78916   6.328  42.823  12.632
12486W        W78917  23.055  44.461   3.123
12487W        W78918   3.185  43.523  10.674
12488W        W78919   8.439   4.529  10.573
12489W        W78920  37.910  42.520   9.966
12490W        W78921  19.519  14.879  12.401
12491W        W78922  26.191  32.160   1.296
12492W        W78923  34.210  20.770  12.110
12493W        W78924  33.610   5.226  12.645
12494W        W78925   1.988  39.933  12.723
12495W        W78926  42.332   8.268   0.043
12496W        W78927  23.271  34.998  12.922
12497W        W78928   2.821  22.661  11.853
12498W        W78929  41.182  35.611   2.044
12499W        W78930  19.853  25.459   2.823
12500W        W78931  41.388  19.631   0.920
12501W        W78932   7.467  29.173   1.786
12502W        W78933  39.035  27.903  10.309
12503W        W78934   5.581  33.640   2.668
12504W        W78935  34.589  11.954  10.662
12505W        W78936  19.704  10.610   2.897
12506W        W78937  17.006  26.982  14.906
12507W        W78938  38.443  17.584   4.665
12508W        W78939  11.737  21.649   0.174
12509W        W78940  38.439  12.691  12.785
12510W        W78941  36.488  18.574   3.606
12511W        W78942  10.743  37.927   0.453
12512W        W78943  24.031   3.350  14.097
12513W        W78944  25.014  12.061   1.621
12514W        W78945  39.234  35.597   3.783
12515W        W78946   7.140  22.485   0.990
12516W        W78947   4.383  31.669  10.915
12517W        W78948  10.021  22.264   4.154
12518W        W78949   4.009  14.246  13.366
12519W        W78950  26.499  11.573   4.141
12520W        W78951  26.406  38.125   3.229
12521W        W78952  28.696  21.747   4.868
12522W        W78953  44.970  23.737  11.142
12523W        W78954  34.473  23.843  10.949
12524W        W78955  23.681  17.030  12.380
12525W        W78956  22.902  23.610  12.803
12526W        W78957  13.562  11.886  11.044
12527W        W78958  21.195  43.864  10.679
12528W        W78959  38.306  23.122   2.418
12529W        W78960   6.004  25.559   1.852
12530W        W78961  25.288  38.005   3.847
12531W        W78962  36.798  36.013   3.718
12532W        W78963   5.987  16.357   0.917
12533W        W78964  35.952  44.487   4.681
12534W        W78965  30.438   8.632   3.875
12535W        W78966  22.152   9.834   2.192
12536W        W78967  30.160  10.857   1.262
12537W        W78968   9.940  35.538  14.963
12538W        W78969  13.592  32.480  11.631
12539W        W78970  29.574  17.721   0.592
12540W        W78971  39.140   7.837   0.257
12541W        W78972  28.998  36.611   3.646
12542W        W78973  28.576  28.395  10.454
12543W        W78974  38.260   4.726   4.549
12544W        W78975  41.431  21.690  13.788
12545W        W78976  26.334  23.535   4.963
12546W        W78977  37.518  30.404   0.300
12547W        W78978  23.291  23.275  14.002
12548W        W78979  21.637   7.265  12.978
12549W        W78980  35.018  34.132   3.093
12550W        W78981   4.870  39.677  14.952
12551W        W78982  34.038  36.118   2.963
12552W        W78983   8.952  38.102   1.208
12553W        W78984  34.594  38.895  13.329
12554W        W78985  14.265   6.483  12.484
12555W        W78986  22.249  40.974  11.195
12556W        W78987  21.649  44.432  12.432
12557W        W78988   3.548  35.667   3.571
12558W        W78989   0.337  41.585   2.777
12559W        W78990  17.701  33.563  13.430
12560W        W78991   2.234  38.373   0.932
12561W        W78992  44.268  44.036   4.399
12562W        W78993  43.533  37.332   4.485
12563W        W78994  24.819  22.638   0.323
12564W        W78995  25.042   4.311   3.226
12565W        W78996  11.407   1.235  12.444
12566W        W78997  12.588  33.185   0.905
12567W        W78998  25.245   6.418   3.162
12568W        W78999  32.493  24.551   0.543
12569W        W79000  34.657   7.233  13.779
12570W        W79001  38.360  22.417   1.635
12571W        W79002   0.707  33.906  10.351
12572W        W79003  22.729  37.297  13.742
12573W        W79004  16.535  18.193  10.607
12574W        W79005   8.171  42.947   0.333
12575W        W79006   5.001  18.164   1.196
12576W        W79007  37.061  44.327  12.957
12577W        W79008   9.012  26.267  12.655
12578W        W79009  20.471  17.795   0.941
12579W        W79010   0.058  17.622  13.990
12580W        W79011   6.769   8.441  12.919
12581W        W79012  39.230   8.111  10.692
12582W        W79013   7.758  43.062   4.176
12583W        W79014   9.982  22.142   0.044
12584W        W79015  27.659  16.780   1.355
12585W        W79016  34.611   9.457  11.136
12586W        W79017  21.318  32.089  14.574
12587W        W79018   1.064  38.068   1.278
12588W        W79019   2.374  35.543   2.603
12589W        W79020   4.798   8.933   2.236
12590W        W79021  15.782   7.530  14.747
12591W        W79022  22.612   0.452  14.968
12592W        W79023  14.569  19.030  11.716
12593W        W79024  21.761  12.680  12.550
12594W        W79025  24.955  39.908  13.386
12595W        W79026  33.608  19.249   2.796
12596W        W79027  12.122  38.133   3.161
12597W        W79028  40.006   1.535   4.044
12598W        W79029  34.005  34.945   1.215
12599W        W79030   9.099   7.284  11.188
12600W        W79031  27.921  10.708  11.462
12601W        W79032   1.882  19.228   0.828
12602W        W79033  21.211  28.727  14.922
12603W        W79034  22.015  16.026  12.478
12604W        W79035  37.840   6.703  13.583
12605W        W79036  10.712  37.570   2.658
12606W        W79037  22.939  14.762  13.287
12607W        W79038  10.133  41.831   4.599
12608W        W79039  12.323  33.383   4.285
12609W        W79040  36.419  28.113  12.353
12610W        W79041   3.399   1.862   0.740
12611W        W79042  42.767  35.315   2.328
12612W        W79043  38.579   3.383   1.879
12613W        W79044  14.081  25.624  14.271
12614W        W79045   8.239  16.501   3.555
12615W        W79046   9.709   5.257  11.148
12616W        W79047   0.018  33.450  14.885
12617W        W79048   9.581  32.566   0.875
12618W        W79049   1.148  26.004  13.054
12619W        W79050  18.289   7.499  12.453
12620W        W79051  24.997  34.917  12.933
12621W        W79052  14.561   3.622   2.511
12622W        W79053  39.792   9.130  14.904
12623W        W79054  11.451  26.410  11.203
12624W        W79055  28.955  28.077  14.446
12625W        W79056  40.047   4.794  14.946
12626W        W79057  31.545  41.030   2.168
12627W        W79058  13.141  36.565  10.718
12628W        W79059  26.891  13.540   4.055
12629W        W79060   3.749   1.842  14.948
12630W        W79061  44.802  14.514  14.610
12631W        W79062  15.503  41.011  13.837
12632W        W79063  38.588   7.345   3.590
12633W        W79064   9.939  12.773  12.421
12634W        W79065  12.925  22.242   3.652
12635W        W79066  19.738  30.701   2.745
12636W        W79067  20.181  10.733  10.707
12637W        W79068  18.604  20.800  13.568
12638W        W79069  10.174  28.059   4.495
12639W        W79070  18.704  44.972   4.118
12640W        W79071  29.605   6.909   0.584
12641W        W79072  11.839  21.616  10.424
12642W        W79073  37.852  35.002  13.078
12643W        W79074   2.017   8.747  12.451
12644W        W79075  31.221   2.005   3.758
12645W        W79076   2.316  11.261  13.046
12646W        W79077   1.047  29.034   2.606
12647W        W79078   0.018  42.945  14.787
12648W        W79079  12.182  29.192   1.332
12649W        W79080  44.021  22.512  14.363
12650W        W79081  25.995   7.693   2.411
12651W        W79082  32.536  39.611  11.086
12652W        W79083  22.178  28.241   2.236
12653W        W79084  21.522   1.955   0.623
12654W        W79085  36.265   4.859  10.285
12655W        W79086  37.952  27.391   1.085
12656W        W79087  18.307  23.562   9.783
12657W        W79088  11.239   3.288  11.731
12658W        W79089  22.567  12.690   1.746
12659W        W79090  38.105  19.131   0.731
12660W        W79091  39.501  36.285  12.491
12661W        W79092  23.897  18.633  14.807
12662W        W79093  34.160  10.667  14.435
12663W        W79094  44.821  25.523  11.721
12664W        W79095   8.767  17.415   0.265
12665W        W79096  11.201   1.853   4.787
12666W        W79097  19.739   0.040   0.450
12667W        W79098  42.889  38.517  14.926
12668W        W79099  30.970  34.440   1.155
12669W        W79100  24.708  10.372   3.160
12670W        W79101  43.322  21.069   4.688
12671W        W79102  22.859  32.844   0.686
12672W        W79103  38.740  26.563   0.781
12673W        W79104  13.374  29.593  10.546
12674W        W79105  27.410  21.699   3.056
12675W        W79106   0.361  13.925  13.004
12676W        W79107  33.576  14.605   1.432
12677W        W79108  12.091   1.428  14.815
12678W        W79109  23.228  11.770   4.058
12679W        W79110  24.508  21.714   4.635
12680W        W79111  20.640  11.775   0.268
12681W        W79112  26.631   1.225   2.607
12682W        W79113  18.331  10.057  12.980
12683W        W79114  35.844  18.101   2.448
12684W        W79115  37.942  30.106   0.503
12685W        W79116  14.664   0.525   4.562
12686W        W79117   2.353  42.811   3.253
12687W        W79118  15.083  23.163   1.207
12688W        W79119  44.382  42.735  10.111
12689W        W79120  29.870  23.438   3.229
12690W        W79121  12.177  26.576   0.254
12691W        W79122  19.478  38.859  14.952
12692W        W79123  19.962  40.577  14.886
12693W        W79124   8.206  25.598  14.909
12694W        W79125  44.919   5.638  10.401
12695W        W79126  34.471  19.046   1.175
12696W        W79127  15.317  32.157   4.076
12697W        W79128   4.844  38.495  11.800
12698W        W79129  17.186  30.057   2.240
12699W        W79130  10.858  21.796   0.029
12700W        W79131  18.237  36.046   2.371
12701W        W79132  21.116  25.605  12.529
12702W        W79133  19.522  10.668  14.503
12703W        W79134  17.634  16.154  13.103
12704W        W79135  35.766  42.301  12.569
12705W        W79136  32.405  11.345   1.303
12706W        W79137  43.189  36.678   2.704
12707W        W79138  13.218  11.291   4.207
12708W        W79139  30.405  17.049   1.701
12709W        W79140  17.715  44.399   0.261
12710W        W79141   7.103  30.700   1.795
12711W        W79142   5.891  10.428  14.042
12712W        W79143  44.467  13.377  12.030
12713W        W79144  11.417  18.158  13.824
12714W        W79145  39.794  37.075  13.764
12715W        W79146   1.786  19.089   1.900
12716W        W79147  38.545   1.996  13.438
12717W        W79148  34.514  35.962   0.740
12718W        W79149  20.640  30.426  11.659
12719W        W79150  26.054   7.510   3.321
12720W        W79151  39.763  32.179   4.052
12721W        W79152  22.496  35.341  12.071
12722W        W79153  36.338  24.680   1.314
12723W        W79154   3.325  29.323   1.121
12724W        W79155  13.221  12.201  14.487
12725W        W79156  33.194  17.264  12.252
12726W        W79157  23.619  17.527   4.166
12727W        W79158  10.162   9.876   1.248
12728W        W79159  15.197   0.336  11.442
12729W        W79160  18.589  35.847  11.749
12730W        W79161  28.686   3.155  14.047
12731W        W79162  29.993   5.329  13.562
12732W        W79163   9.241   9.603   4.466
12733W        W79164  22.651  41.890   0.570
12734W        W79165  33.004  13.554   0.418
12735W        W79166  22.137  29.695   3.329
12736W        W79167  32.158  43.456  12.287
12737W        W79168  16.692  23.092   3.889
12738W        W79169   8.170  34.685  12.704
12739W        W79170  35.828  15.973   4.082
12740W        W79171  20.381   8.789  13.131
12741W        W79172  34.481  26.098  10.782
12742W        W79173  38.547  33.463  12.830
12743W        W79174  24.032  26.232  13.837
12744W        W79175  37.286  12.001   4.128
12745W        W79176  30.407  13.038  12.455
12746W        W79177   0.900  42.600   1.726
12747W        W79178  20.328   1.818  12.900
12748W        W79179  37.062  40.981   3.370
12749W        W79180   7.852  19.517  14.925
12750W        W79181   7.730  16.807   1.373
12751W        W79182   6.952  44.883  13.559
12752W        W79183  25.895   5.355   0.974
12753W        W79184  28.622  42.062   2.645
12754W        W79185  43.022   4.010   3.359
12755W        W79186  13.753  12.231  14.334
12756W        W79187   2.438  24.721  10.681
12757W        W79188  21.535  20.748   1.080
12758W        W79189  44.351  28.498   2.545
12759W        W79190  10.801   3.544  13.459
12760W        W79191  41.259  39.268  13.953
12761W        W79192   6.277  42.907   3.238
12762W        W79193  14.495  39.594  14.878
12763W        W79194  17.704  27.918  14.064
12764W        W79195  41.571  30.508  12.086
12765W        W79196  15.446  44.102   5.079
12766W        W79197  27.683  24.757   1.930
12767W        W79198  38.430   2.518   1.791
12768W        W79199   7.840   5.185  11.688
12769W        W79200  26.501   9.685   3.279
12770W        W79201  35.615  43.832   4.132
12771W        W79202  27.499   8.921  13.100
12772W        W79203  12.739  35.215  11.619
12773W        W79204  21.801  11.999   2.737
12774W        W79205  14.291  37.807   1.247
12775W        W79206  12.419  13.102  12.957
12776W        W79207  19.013   7.188   2.145
12777W        W79208  33.781  36.732  12.967
12778W        W79209  29.127  22.170   0.971
12779W        W79210   5.251  22.694  14.282
12780W        W79211  14.239  11.649   4.538
12781W        W79212  40.411  22.838  11.124
12782W        W79213   0.874   8.431   4.519
12783W        W79214  18.173  31.694  14.978
12784W        W79215  34.774   7.892   2.382
12785W        W79216  11.087  35.983   3.268
12786W        W79217  27.864   3.073   4.622
12787W        W79218  39.522  32.411  10.866
12788W        W79219  10.742  15.999   0.837
12789W        W79220  10.669  13.641  11.523
12790W        W79221  42.755   8.955   3.279
12791W        W79222  21.372  28.191  12.813
12792W        W79223  40.422   5.889   1.890
12793W        W79224  19.143  41.945   1.167
12794W        W79225  12.652  24.845   3.653
12795W        W79226  39.053  29.659   2.345
12796W        W79227  41.456   5.670  11.433
12797W        W79228  13.376  31.084   1.343
12798W        W79229   6.084  26.483   0.383
12799W        W79230  20.555   6.123  13.141
12800W        W79231  43.325  20.772   3.728
12801W        W79232  18.019  14.621  14.874
12802W        W79233  26.034   1.526   2.093
12803W        W79234  11.273  28.503   3.845
12804W        W79235   9.932  14.567  14.330
12805W        W79236  10.753  26.936  12.517
12806W        W79237  42.784   6.784   3.984
12807W        W79238  26.478  10.371   0.771
12808W        W79239  29.985  33.583   4.339
12809W        W79240  26.741  25.328  12.928
12810W        W79241   5.256  34.876   4.048
12811W        W79242  43.696   7.371   3.717
12812W        W79243  21.251  22.938  13.117
12813W        W79244   2.440   3.526   1.988
12814W        W79245  38.283  21.674   4.834
12815W        W79246   1.872  40.657  12.122
12816W        W79247  31.068  21.436   4.442
12817W        W79248  32.215  31.755  13.365
12818W        W79249  36.283  23.188  13.024
12819W        W79250  15.944   2.393   4.096
12820W        W79251   4.300  33.008  10.647
12821W        W79252  14.292  13.423   1.719
12822W        W79253  10.110   9.549  11.338
12823W        W79254  37.072  43.699   4.996
12824W        W79255  34.538  21.043   3.889
12825W        W79256  32.141  30.073   4.731
12826W        W79257  44.027  19.676  11.130
12827W        W79258   2.496   9.248   0.268
12828W        W79259  34.932  15.390  13.839
12829W        W79260  26.488  34.097   3.153
12830W        W79261  25.279   8.109   2.910
12831W        W79262  28.680  40.721   2.335
12832W        W79263   2.493  42.000   2.946
12833W        W79264  24.160  44.903  13.562
12834W        W79265  21.996  26.740   3.243
12835W        W79266   4.897  17.084  13.387
12836W        W79267  37.942  28.771  14.786
12837W        W79268  34.905  37.286   0.271
12838W        W79269  31.750  28.160   2.465
12839W        W79270  24.477   2.649  13.771
12840W        W79271  15.779  26.074   1.379
12841W        W79272  40.792  19.591   0.200
12842W        W79273  27.623  25.430  12.410
12843W        W79274  28.510  41.970  14.834
12844W        W79275  35.340   4.390  13.038
12845W        W79276  11.175  41.496   1.853
12846W        W79277  11.217  13.320   1.495
12847W        W79278   1.696  34.003  13.427
12848W        W79279   8.576   6.771  13.883
12849W        W79280  29.947   6.664  12.127
12850W        W79281   7.616  24.644   4.385
12851W        W79282  39.118  20.766   4.040
12852W        W79283  24.684  10.186   1.408
12853W        W79284  40.061  15.907   1.251
12854W        W79285  44.017  32.408  13.391
12855W        W79286  12.578  19.184   3.199
12856W        W79287  20.135  15.783   4.295
12857W        W79288   0.706  36.807  10.679
12858W        W79289  31.386  36.861   1.108
12859W        W79290   9.145  24.236   3.719
12860W        W79291  16.104  16.171   4.119
12861W        W79292   8.343   0.161  11.331
12862W        W79293   1.161  40.291   0.964
12863W        W79294  16.876  30.943  11.255
12864W        W79295  11.166  39.462   3.918
12865W        W79296   1.699  33.934  12.790
12866W        W79297  29.809  34.875   0.075
12867W        W79298  19.748  31.218  12.972
12868W        W79299  10.029  37.544   0.062
12869W        W79300  28.043  43.290  13.266
12870W        W79301  26.639  22.005  13.889
12871W        W79302   7.992  37.842   1.014
12872W        W79303  27.643  33.501   2.223
12873W        W79304  26.659  40.596  11.011
12874W        W79305   1.550  29.053  13.900
12875W        W79306  27.695  31.791  13.049
12876W        W79307  24.030  10.681  13.536
12877W        W79308  26.270  29.511  12.603
12878W        W79309  31.424   4.435  13.316
12879W        W79310  27.951  32.926  14.973
12880W        W79311   8.442  36.575   2.825
12881W        W79312   7.272  25.138  11.408
12882W        W79313  19.478   7.777  13.485
12883W        W79314   3.408  32.155   0.204
12884W        W79315  24.300  40.035   4.946
12885W        W79316  35.104  44.195  12.547
12886W        W79317   1.864   9.732  13.010
12887W        W79318  35.386  43.371  14.095
12888W        W79319   6.168   0.238   4.158
12889W        W79320  32.535   5.460   2.929
12890W        W79321  34.075  10.136  14.199
12891W        W79322  27.263  23.744   3.734
12892W        W79323  12.848  43.738  13.536
12893W        W79324  13.999  12.661  14.517
12894W        W79325  33.616   8.569  10.889
12895W        W79326  13.071   6.760   2.651
12896W        W79327  23.010   0.723  12.973
12897W        W79328  22.478   7.181  11.921
12898W        W79329  15.132  29.848  13.343
12899W        W79330   6.628   5.811   3.751
12900W        W79331   9.708  17.265   3.251
12901W        W79332   7.410  30.449  12.172
12902W        W79333  44.881  15.565   3.618
12903W        W79334  14.014  36.447   2.422
12904W        W79335  35.830  20.304   0.864
12905W        W79336  34.460  21.628  13.473
12906W        W79337  38.296  29.536  12.484
12907W        W79338  30.025  23.233  11.161
12908W        W79339  41.881   8.861  11.190
12909W        W79340  32.502  16.587  14.829
12910W        W79341   2.763  35.878   2.775
12911W        W79342  37.661  42.880  13.335
12912W        W79343   8.460  18.885   3.774
12913W        W79344  38.986  23.632  10.822
12914W        W79345  24.715  22.512   1.660
12915W        W79346   1.385  29.252   3.399
12916W        W79347  44.964  14.647  13.609
12917W        W79348  39.682  41.975   1.901
12918W        W79349  39.565  21.647  10.785
12919W        W79350  33.086   6.149   0.620
12920W        W79351  18.567  32.898  10.997
12921W        W79352  12.212   7.295   3.550
12922W        W79353  41.211  14.362  11.641
12923W        W79354   1.321   4.840   1.432
12924W        W79355   4.383   5.674   4.583
12925W        W79356   0.002   0.389  14.302
12926W        W79357  21.270  12.365   1.637
12927W        W79358   9.073  17.204  14.397
12928W        W79359  27.954  41.851   3.535
12929W        W79360   7.817   4.890  13.605
12930W        W79361  13.628  37.320   0.711
12931W        W79362  38.524  37.377  13.716
12932W        W79363  35.541  34.500   0.189
12933W        W79364   8.203  18.187  12.877
12934W        W79365  21.563  10.542  14.556
12935W        W79366  16.010   6.231  10.766
12936W        W79367  34.022  16.304   3.693
12937W        W79368  10.779  26.127   0.671
12938W        W79369   9.697  31.326  13.384
12939W        W79370  30.637  16.102   1.732
12940W        W79371  41.927   9.732   4.219
12941W        W79372  29.646   4.285  13.942
12942W        W79373   9.310  20.978  14.432
12943W        W79374  19.333  38.911  10.627
12944W        W79375   7.607  44.961   1.602
12945W        W79376  23.926  38.857  12.869
12946W        W79377  30.647  30.079   2.260
12947W        W79378   0.261  23.298  13.491
12948W        W79379   5.861  37.600   3.257
12949W        W79380  22.176   3.238   4.660
12950W        W79381  16.618   8.744   2.292
12951W        W79382   8.471  13.944  11.202
12952W        W79383  13.113  42.077   1.427
12953W        W79384   9.922   9.481   0.309
12954W        W79385  20.965  17.694   0.863
12955W        W79386  31.689  33.678   3.832
12956W        W79387  29.057  38.368   1.331
12957W        W79388  10.792  17.203   1.366
12958W        W79389  36.249   9.128  14.800
12959W        W79390  14.137  38.793   2.952
12960W        W79391  37.038  12.984  10.488
12961W        W79392  22.694   7.649   0.300
12962W        W79393  17.229  31.429   4.137
12963W        W79394  34.172  37.234   1.966
12964W        W79395  22.974  39.776  14.891
12965W        W79396  25.460  14.151  13.884
12966W        W79397  17.964  24.703   0.378
12967W        W79398  20.163  27.141   0.405
12968W        W79399  31.598  33.525  12.753
12969W        W79400   3.913  11.674   4.261
12970W        W79401   3.686  40.337  14.247
12971W        W79402   4.395   1.521   3.055
12972W        W79403  42.739  43.269   3.770
12973W        W79404  18.675  25.383   9.337
12974W        W79405   7.778  44.274   3.729
12975W        W79406  33.635  18.901   4.091
12976W        W79407  15.790  28.410  11.065
12977W        W79408  16.869   8.163   4.306
12978W        W79409  43.337  39.929   3.363
12979W        W79410  30.157  28.632   3.667
12980W        W79411  15.867  22.759   2.832
12981W        W79412  41.777   5.509  12.370
12982W        W79413  22.012  29.061  10.633
12983W        W79414  35.445   2.379  14.299
12984W        W79415  34.707  38.911   1.025
12985W        W79416   9.031  16.044   2.715
12986W        W79417   9.876  42.760  11.628
12987W        W79418  36.966  16.829  10.640
12988W        W79419  32.689  39.842   0.979
12989W        W79420  33.829  29.954  12.407
12990W        W79421  28.214  44.436  14.900
12991W        W79422  12.825  24.907  10.826
12992W        W79423  18.123  19.603  12.420
12993W        W79424  44.767  26.513   0.990
12994W        W79425  37.099  17.188  11.182
12995W        W79426   2.935  32.129  12.918
12996W        W79427  32.186  36.253  11.173
12997W        W79428  36.944  15.505   3.425
12998W        W79429  30.520  26.058  11.646
12999W        W79430  29.945   9.333   2.301
13000W        W79431   0.956  35.112   2.961
13001W        W79432  29.082  19.579   0.679
13002W        W79433  20.635  24.543  11.153
13003W        W79434  15.059  15.340   0.868
13004W        W79435  23.602   2.222  12.147
13005W        W79436  40.605  27.203   4.178
13006W        W79437  24.396  14.423  10.343
13007W        W79438  40.522  12.079   2.176
13008W        W79439  43.036  41.336  12.862
13009W        W79440  19.505  32.980  12.485
13010W        W79441   9.792   7.698   4.182
13011W        W79442   8.054  24.777   2.270
13012W        W79443  12.358  44.491   3.216
13013W        W79444  44.351  21.052   2.367
13014W        W79445   2.218   7.653  13.382
13015W        W79446   0.825  28.486   4.968
13016W        W79447  18.324   4.821   3.724
13017W        W79448  10.989  20.433  13.487
13018W        W79449  42.326  44.845  13.804
13019W        W79450  20.784   8.322   3.265
13020W        W79451  28.693   2.124   2.596
13021W        W79452   7.706   3.005  13.820
13022W        W79453   9.250  30.728   0.547
13023W        W79454  40.374  30.194   0.937
13024W        W79455  35.873   6.547   3.534
13025W        W79456   4.453  10.219   2.388
13026W        W79457  44.375   3.542  13.036
13027W        W79458  18.152  19.810   5.081
13028W        W79459   3.657  23.614   0.813
13029W        W79460  12.777   1.591   0.782
13030W        W79461   9.372   9.233   3.279
13031W        W79462  15.672  39.079  12.593
13032W        W79463  20.133  28.016   4.459
13033W        W79464  20.529  30.240  12.695
13034W        W79465  16.612  29.505  14.468
13035W        W79466   2.935   3.724   4.716
13036W        W79467  38.679   0.546  11.904
13037W        W79468  19.167  38.012   2.711
13038W        W79469  29.673   3.088   2.423
13039W        W79470   0.407  16.242   1.881
13040W        W79471  44.990  26.222  14.410
13041W        W79472   5.145   0.466   1.902
13042W        W79473  22.284  30.849  11.530
13043W        W79474  18.074   5.170  12.611
13044W        W79475  41.744  44.983   3.561
13045W        W79476  43.601  37.047  14.436
13046W        W79477  36.579  16.689   1.608
13047W        W79478  38.005   6.032  10.742
13048W        W79479  37.893  27.723  12.121
13049W        W79480  26.952  41.266   0.135
13050W        W79481   8.212   9.608   3.232
13051W        W79482  17.540  25.082   3.053
13052W        W79483   9.061  26.477   3.305
13053W        W79484  30.558   2.341  13.843
13054W        W79485  23.707   6.184  11.996
13055W        W79486  12.650   8.953   3.148
13056W        W79487   2.041  44.484   1.666
13057W        W79488  34.580   1.498   2.272
13058W        W79489  24.589   1.138  13.130
13059W        W79490  16.622  15.915  12.453
13060W        W79491  12.842  43.816  14.901
13061W        W79492  35.711  37.567  11.775
13062W        W79493   5.814  11.935  14.015
13063W        W79494  23.244  30.371   2.584
13064W        W79495   1.876  37.049   4.711
13065W        W79496  16.536   8.938   0.754
13066W        W79497   2.323  16.612   1.399
13067W        W79498  31.484  41.820  13.500
13068W        W79499  35.930  24.048   2.405
13069W        W79500  41.409  15.916  10.703
13070W        W79501  20.874  24.030  12.062
13071W        W79502  35.594  21.830   3.851
13072W        W79503   9.805  22.581   1.268
13073W        W79504  21.334   0.199   0.891
13074W        W79505  31.175  23.541  14.578
13075W        W79506  32.394   9.850  13.807
13076W        W79507  26.606  44.498   0.547
13077W        W79508  11.450  35.316  12.984
13078W        W79509  44.268  38.341  14.866
13079W        W79510  27.408   2.764  14.720
13080W        W79511  35.035   5.457  13.354
13081W        W79512  34.152  12.273  13.787
13082W        W79513  24.165  37.822   3.254
13083W        W79514  25.684  26.483  12.027
13084W        W79515  44.303   3.407   2.232
13085W        W79516   4.262  26.970   0.512
13086W        W79517  33.124  25.991  12.139
13087W        W79518   1.043  35.909  14.361
13088W        W79519  28.457  22.464  13.828
13089W        W79520  41.284  33.300   4.389
13090W        W79521   3.362  40.108   1.686
13091W        W79522  16.689   4.295  14.221
13092W        W79523  23.650  43.053  11.082
13093W        W79524  25.618  29.601   1.040
13094W        W79525   2.457  23.785   4.559
13095W        W79526  27.352   6.807  12.188
13096W        W79527  20.190  42.859  13.333
13097W        W79528  28.447  38.296   3.205
13098W        W79529  33.178  20.008  14.863
13099W        W79530  12.170   5.975  11.495
13100W        W79531  31.780  28.343   0.635
13101W        W79532  30.842   6.616   4.094
13102W        W79533   7.680  41.898   4.152
13103W        W79534  13.584  38.382   0.828
13104W        W79535   3.850  20.542  14.843
13105W        W79536  16.581  17.980  14.884
13106W        W79537  38.027  16.069  12.364
13107W        W79538  31.055  18.378  10.832
13108W        W79539  40.065   8.679  14.854
13109W        W79540  21.552  11.333  14.926
13110W        W79541  38.958   6.762  14.909
13111W        W79542   1.357  26.758   1.246
13112W        W79543   3.284  33.380  14.322
13113W        W79544  35.162  42.823   2.203
13114W        W79545  27.086  44.620  13.535
13115W        W79546   5.872  26.713  12.170
13116W        W79547   0.043   8.336   2.860
13117W        W79548   8.708   2.760   3.254
13118W        W79549  27.146  16.642   3.963
13119W        W79550  31.489  13.131   4.566
13120W        W79551  28.833  29.161   1.365
13121W        W79552  20.004  18.187  13.395
13122W        W79553   3.431  36.394  14.456
13123W        W79554   2.438  26.436  12.186
13124W        W79555  38.662  28.206  13.917
13125W        W79556  31.924  26.878  14.939
13126W        W79557  27.484   6.398   0.275
13127W        W79558  33.499  43.757  11.407
13128W        W79559  38.927   7.243   1.604
13129W        W79560   3.864  18.776   3.302
13130W        W79561  28.105  27.442   1.050
13131W        W79562  13.714  37.850   3.586
13132W        W79563  27.297   7.861   1.687
13133W        W79564  16.545   8.208   3.849
13134W        W79565  23.979  33.308   3.894
13135W        W79566  24.759  18.330  12.596
13136W        W79567  41.206  37.017   1.837
13137W        W79568  18.176  40.166  14.781
13138W        W79569  39.478  41.295  12.563
13139W        W79570  12.267  17.692   0.140
13140W        W79571  33.994  41.423   0.876
13141W        W79572   6.150  35.109  13.540
13142W        W79573  27.659  34.279   3.818
13143W        W79574  26.558  34.385   1.522
13144W        W79575  37.526  23.440   3.612
13145W        W79576  28.058  14.070  12.594
13146W        W79577  32.637  17.645  10.789
13147W        W79578   3.281  41.100   1.898
13148W        W79579  36.337  43.099   0.111
13149W        W79580  37.407  25.208   4.245
13150W        W79581  38.652   8.242  12.093
13151W        W79582  14.614   3.755  14.783
13152W        W79583  43.879  13.813   0.258
13153W        W79584   5.648   6.805  11.985
13154W        W79585  41.051  17.743   0.313
13155W        W79586   5.258   2.168  11.607
13156W        W79587  33.894  23.431   2.729
13157W        W79588  22.845   5.915   3.263
13158W        W79589  26.944  40.905  13.878
13159W        W79590  27.777  12.174   1.159
13160W        W79591  28.076  19.015   1.927
13161W        W79592  39.506  14.834  13.659
13162W        W79593  38.365  34.080  11.971
13163W        W79594  21.615  18.249   0.517
13164W        W79595   2.700   0.465  11.541
13165W        W79596   9.531  32.074   0.677
13166W        W79597  25.238   6.271  12.373
13167W        W79598   1.997  25.063  10.675
13168W        W79599   3.370  41.522   5.021
13169W        W79600  39.957  17.597   2.243
13170W        W79601  36.750   3.363   4.771
13171W        W79602  39.626  30.262   1.408
13172W        W79603  12.863  34.150   0.456
13173W        W79604   2.614  29.835  14.469
13174W        W79605  27.972  31.192  11.265
13175W        W79606   2.979  29.109  14.018
13176W        W79607   3.013   5.486  14.722
13177W        W79608  33.184  17.352   0.722
13178W        W79609  14.876  25.535  12.021
13179W        W79610   5.846  11.762  14.574
13180W        W79611  15.136  17.079   3.139
13181W        W79612  43.447  26.568   1.861
13182W        W79613  11.169  29.024  12.900
13183W        W79614   1.832  28.446  13.703
13184W        W79615   3.840   9.867   1.389
13185W        W79616  24.771   4.468   2.340
13186W        W79617   6.381  28.516   1.241
13187W        W79618  20.639   0.253  10.779
13188W        W79619  24.241  39.566  11.620
13189W        W79620  18.325  25.591   2.897
13190W        W79621   3.896  24.092   3.323
13191W        W79622   9.357  23.404   3.242
13192W        W79623  27.834   9.337  13.816
13193W        W79624  36.886  43.803   3.586
13194W        W79625  40.922  22.686   3.754
13195W        W79626  29.756  19.629  11.572
13196W        W79627  23.732  39.922  10.552
13197W        W79628  24.611  28.170  11.853
13198W        W79629  42.816  11.852   1.337
13199W        W79630  22.065   5.918  13.860
13200W        W79631  34.577  26.014   1.438
13201W        W79632  43.846  32.183  12.838
13202W        W79633  20.822  38.345   0.709
13203W        W79634  26.368  36.777   0.437
13204W        W79635  15.592  34.134   0.852
13205W        W79636  12.259  16.574  11.969
13206W        W79637  22.300  24.107   2.975
13207W        W79638  43.018  12.438  12.571
13208W        W79639   4.171  14.703  13.178
13209W        W79640  37.419  10.133  12.554
13210W        W79641   7.037  44.486   4.469
13211W        W79642  41.403   1.331  12.058
13212W        W79643  25.850  44.336   1.319
13213W        W79644  17.051  23.245  12.469
13214W        W79645   9.266  10.836  14.258
13215W        W79646  38.353  10.805  13.376
13216W        W79647   6.298  10.711   0.802
13217W        W79648  33.413  34.373   2.828
13218W        W79649  20.784  24.434  14.986
13219W        W79650  35.308   2.630   4.548
13220W        W79651  42.054  42.684   4.259
13221W        W79652  42.202  11.725   2.503
13222W        W79653  36.376   6.737   2.264
13223W        W79654  24.249  29.432  13.398
13224W        W79655  13.930   1.376   3.907
13225W        W79656  39.605   6.321  11.050
13226W        W79657  19.530  14.734  14.738
13227W        W79658  16.755  37.280  13.510
13228W        W79659  42.951  30.190  11.368
13229W        W79660  42.122  24.475  14.093
13230W        W79661  32.363  14.556  13.485
13231W        W79662  32.194   7.769  14.490
13232W        W79663   1.918  34.845  13.101
13233W        W79664  10.687  17.346   2.284
13234W        W79665  25.953  16.246  13.559
13235W        W79666  20.071  22.547  13.255
13236W        W79667  20.310  17.294  14.780
13237W        W79668  30.137  26.960   2.733
13238W        W79669  13.281  41.973   0.413
13239W        W79670  20.712   8.035  13.415
13240W        W79671   7.634  27.711  10.784
13241W        W79672   1.362   1.433  14.550
13242W        W79673   9.968   1.260   3.586
13243W        W79674  13.095  18.620  14.367
13244W        W79675  16.458  18.407  10.118
13245W        W79676   8.566  40.518   3.592
13246W        W79677  37.930  41.267   0.444
13247W        W79678   8.922   1.459   4.514
13248W        W79679  31.223   1.191  14.895
13249W        W79680  44.908  28.688  12.030
13250W        W79681  15.876  23.539   2.358
13251W        W79682  42.299   3.515  12.967
13252W        W79683   9.668  18.149  13.511
13253W        W79684  18.972  12.053  11.056
13254W        W79685  16.089  23.999  13.764
13255W        W79686  39.940  18.296   3.608
13256W        W79687  26.772  24.451   4.547
13257W        W79688  25.128  29.576  12.954
13258W        W79689   0.976  15.263   4.193
13259W        W79690  38.791   5.834  10.896
13260W        W79691  15.228  28.600   4.514
13261W        W79692  42.942   2.429   2.641
13262W        W79693   6.166  11.703   0.969
13263W        W79694  25.731  33.218   2.222
13264W        W79695  19.530  41.523   0.774
13265W        W79696  29.054   8.285  12.440
13266W        W79697  39.902   9.217  10.619
13267W        W79698  28.950  26.431   0.270
13268W        W79699  17.579  22.502  12.213
13269W        W79700  18.263  13.520  11.621
13270W        W79701  36.552   4.843  10.732
13271W        W79702  21.492  41.412   5.526
13272W        W79703  40.927  18.780  13.368
13273W        W79704  31.578  32.101   0.856
13274W        W79705  39.460  26.490   5.219
13275W        W79706  35.382  19.170  14.312
13276W        W79707   7.156  18.767  14.880
13277W        W79708   9.374   6.768  13.456
13278W        W79709   7.386  25.302  10.440
13279W        W79710   2.685  11.733  11.082
13280W        W79711  25.963  44.731   3.824
13281W        W79712  12.363  31.159  11.908
13282W        W79713  39.272  23.756  12.508
13283W        W79714  19.381  36.158   2.859
13284W        W79715  29.594  18.227   2.806
13285W        W79716  18.077  25.548   0.497
13286W        W79717  31.567  34.525  10.483
13287W        W79718  34.955  34.497   3.463
13288W        W79719  20.052  26.495  14.498
13289W        W79720  25.099  16.253   0.348
13290W        W79721  28.188  25.680  13.478
13291W        W79722  27.425   5.238  13.029
13292W        W79723  26.573  23.216  12.504
13293W        W79724  10.872   9.379   0.062
13294W        W79725  13.370  15.758   4.715
13295W        W79726  29.005  31.498   1.883
13296W        W79727  30.532  29.818  12.343
13297W        W79728   9.710   3.366  14.328
13298W        W79729   0.287  13.042  12.440
13299W        W79730  37.469  37.887  10.236
13300W        W79731   7.097   6.122  11.394
13301W        W79732  39.119  34.746  12.414
13302W        W79733   2.994  29.450   4.182
13303W        W79734  36.982   0.955   1.457
13304W        W79735  14.329   0.889   1.915
13305W        W79736   6.949  24.566  12.022
13306W        W79737   6.228  41.792  13.430
13307W        W79738   8.411  14.691   1.898
13308W        W79739  32.879  34.270   2.850
13309W        W79740  19.260  34.565  13.457
13310W        W79741  38.999  16.186  11.232
13311W        W79742   9.526  29.971  11.678
13312W        W79743   1.369  11.266   1.106
13313W        W79744  31.100  22.993   3.142
13314W        W79745  32.653  22.670  14.345
13315W        W79746  34.343  25.151   3.341
13316W        W79747  30.142  11.404   4.081
13317W        W79748  21.588  23.421  14.585
13318W        W79749   3.217  21.316  11.137
13319W        W79750  16.621  23.558   0.821
13320W        W79751  12.320  44.927   0.850
13321W        W79752  40.127   2.373  14.534
13322W        W79753   7.216  38.593  13.976
13323W        W79754  42.571   2.815   4.592
13324W        W79755   2.747  19.177   2.842
13325W        W79756   6.254  20.924  13.712
13326W        W79757  10.327  25.181   2.108
13327W        W79758  41.230  43.455  11.265
13328W        W79759  36.046  32.217  10.543
13329W        W79760  16.345  35.123  12.234
13330W        W79761   4.984  41.143   4.051
13331W        W79762  29.712  32.489   2.775
13332W        W79763  17.875   6.954  10.178
13333W        W79764   1.138  23.583  11.676
13334W        W79765  27.213  31.821   9.773
13335W        W79766  21.149  32.643   0.452
13336W        W79767  44.350  41.283  12.568
13337W        W79768  44.390  31.312   3.393
13338W        W79769  18.994  11.331  12.593
13339W        W79770   6.370  44.239   3.289
13340W        W79771   3.312  31.114   1.874
13341W        W79772  43.246  34.566  11.710
13342W        W79773  24.725  12.282  14.297
13343W        W79774  26.957  28.666  14.325
13344W        W79775  29.480  18.121  13.324
13345W        W79776   3.236  23.975  12.018
13346W        W79777  18.248   9.667  14.984
13347W        W79778  13.809  38.384   4.523
13348W        W79779   4.888  26.139   3.201
13349W        W79780  16.640   1.303   1.435
13350W        W79781  15.176  33.126  11.707
13351W        W79782  28.715   3.604  10.462
13352W        W79783  27.207  16.034  13.070
13353W        W79784  29.079  14.829  14.038
13354W        W79785  35.370  27.943  12.952
13355W        W79786  25.576  20.015  14.820
13356W        W79787  18.155  22.808  11.645
13357W        W79788  39.112  13.407  13.924
13358W        W79789  22.437  25.086   3.206
13359W        W79790  19.662  29.069  11.015
13360W        W79791  44.940  33.847  10.675
13361W        W79792   1.795  41.984  14.457
13362W        W79793  35.515  41.305   3.390
13363W        W79794  20.684   4.314   2.563
13364W        W79795  13.879  41.028   4.335
13365W        W79796   3.215  43.614   0.429
13366W        W79797   0.799  31.063  12.349
13367W        W79798  37.533   4.977  10.909
13368W        W79799  15.059  26.440   1.248
13369W        W79800   6.269  39.042  13.963
13370W        W79801  13.534   2.006  12.049
13371W        W79802  12.067  25.317   2.843
13372W        W79803  42.845  37.164   1.755
13373W        W79804  44.010  14.341   4.495
13374W        W79805  39.765  35.499   2.291
13375W        W79806   0.808  10.188  13.473
13376W        W79807  27.500   4.643   3.149
13377W        W79808  10.360   3.854  14.861
13378W        W79809  17.253  28.480   1.857
13379W        W79810  39.692   3.655   0.820
13380W        W79811   2.862  14.304   1.635
13381W        W79812  20.892   6.663  11.221
13382W        W79813  43.809   5.960  11.186
13383W        W79814   0.698  31.637  13.395
13384W        W79815   6.427   3.781  13.978
13385W        W79816   2.994  36.838   1.514
13386W        W79817  30.466  23.085   0.576
13387W        W79818   3.814  25.163   0.197
13388W        W79819   0.797   5.531  12.493
13389W        W79820   8.314   1.353   0.959
13390W        W79821  44.319   6.425  13.789
13391W        W79822  17.679  25.392   5.046
13392W        W79823  36.261  14.175   0.702
13393W        W79824  11.632  38.574  14.295
13394W        W79825   7.996  44.433   0.783
13395W        W79826  43.090  13.042   2.529
13396W        W79827  23.181   7.631  13.363
13397W        W79828   9.780  39.387   3.324
13398W        W79829  26.497  37.509   2.091
13399W        W79830  16.605   2.240   2.736
13400W        W79831  10.512   6.106  13.817
13401W        W79832  17.345   5.338   0.042
13402W        W79833   3.119  33.371   3.353
13403W        W79834   8.305  40.859   3.890
13404W        W79835   2.981  17.610   1.364
13405W        W79836  33.815  19.533  10.345
13406W        W79837   6.441  34.111   0.355
13407W        W79838  30.965   9.607  10.547
13408W        W79839  17.683  10.274  11.533
13409W        W79840  38.525   7.139  13.441
13410W        W79841   0.976  17.877   1.310
13411W        W79842  10.420  20.682  11.645
13412W        W79843  40.652  37.600  11.317
13413W        W79844  12.339  44.240  11.095
13414W        W79845  35.087  31.263  12.582
13415W        W79846  25.572  35.881   2.744
13416W        W79847  13.918  41.685   2.235
13417W        W79848   5.860  26.945   4.921
13418W        W79849  13.589  10.634  12.555
13419W        W79850  43.719  44.048   3.609
13420W        W79851  10.470  38.991   0.990
13421W        W79852  28.749  43.495   2.297
13422W        W79853  33.904  13.326  10.624
13423W        W79854   5.097  34.101   3.504
13424W        W79855   7.737  12.987  11.885
13425W        W79856  30.628  13.010   0.469
13426W        W79857  30.643  40.544   0.412
13427W        W79858  26.584  28.968   2.240
13428W        W79859  29.568  35.492   4.176
13429W        W79860   8.311  33.684  14.061
13430W        W79861   7.037  40.446  12.451
13431W        W79862  10.100  18.801  11.207
13432W        W79863  33.462  33.157  13.560
13433W        W79864  10.266  31.046   2.785
13434W        W79865  40.281   7.196  14.977
13435W        W79866  15.489  32.144  10.287
13436W        W79867   4.750  23.529  12.079
13437W        W79868  22.253   8.733   3.869
13438W        W79869  23.755  17.997   4.979
13439W        W79870  26.544  40.919   0.065
13440W        W79871  23.416  26.286  12.525
13441W        W79872   2.921  30.477   1.930
13442W        W79873  27.521  24.107   2.853
13443W        W79874   8.115  34.292   0.750
13444W        W79875  40.464  26.351  11.700
13445W        W79876   6.208  28.993  14.506
13446W        W79877  25.598   5.260   3.891
13447W        W79878  41.375   3.430   1.333
13448W        W79879  23.928  44.832   4.636
13449W        W79880  33.592   8.365  14.904
13450W        W79881   1.354  34.133   3.192
13451W        W79882   8.816  24.196   3.318
13452W        W79883  39.771  16.408   1.874
13453W        W79884  33.350   8.334  14.009
13454W        W79885  24.278  41.300  10.706
13455W        W79886  38.103  21.369  13.117
13456W        W79887  21.015  10.663   1.244
13457W        W79888  23.298   9.184   0.840
13458W        W79889   2.927   6.532  13.405
13459W        W79890  19.740  21.701  13.598
13460W        W79891  22.344  14.744  12.302
13461W        W79892  16.280  34.294  11.080
13462W        W79893  28.709  27.984  12.191
13463W        W79894  23.678  35.638   0.487
13464W        W79895  40.244   6.195   3.241
13465W        W79896  40.832  19.375  14.463
13466W        W79897   5.879  38.660  11.253
13467W        W79898  31.695  20.209  11.669
13468W        W79899  44.820  40.492  14.803
13469W        W79900  26.040  43.431   3.144
13470W        W79901  37.189  29.017  13.045
13471W        W79902  20.811   7.689   0.330
13472W        W79903  26.633  17.195   1.213
13473W        W79904   2.326  26.454  12.664
13474W        W79905   7.838  17.011  13.997
13475W        W79906  36.746   2.445   4.231
13476W        W79907  14.594  32.010   5.050
13477W        W79908  33.204  18.153  14.394
13478W        W79909  40.312  42.549   4.248
13479W        W79910  29.880   1.395   0.280
13480W        W79911  42.435   5.519   4.192
13481W        W79912  12.703  39.527  12.803
13482W        W79913  43.021  17.824  10.838
13483W        W79914  10.589  36.000   3.318
13484W        W79915  27.106  27.618   4.615
13485W        W79916  13.666   5.341  13.015
13486W        W79917  12.450  41.833   2.366
13487W        W79918  31.070  13.350   0.347
13488W        W79919  31.677   3.802  12.067
13489W        W79920  27.764  37.041   0.483
13490W        W79921  37.805  40.201   1.254
13491W        W79922  39.657   6.785  13.946
13492W        W79923   3.950  12.186   4.075
13493W        W79924   8.138  16.238  12.493
13494W        W79925  26.755  23.697   3.642
13495W        W79926   4.671  40.528  12.555
13496W        W79927   6.862   0.099   0.758
13497W        W79928  44.218  24.692   2.962
13498W        W79929  44.776  35.474  14.520
13499W        W79930  34.861  43.235   1.195
13500W        W79931  20.589   2.453  12.628
13501W        W79932  40.321  30.851  11.635
13502W        W79933  39.531  34.531  15.000
13503W        W79934  22.223  18.066   0.753
13504W        W79935  10.176  35.509  12.637
13505W        W79936  10.811  25.920   2.272
13506W        W79937  35.853  44.850   1.221
13507W        W79938  38.527  38.391   3.639
13508W        W79939  44.338  32.618  12.534
13509W        W79940  41.020  10.141   2.292
13510W        W79941   8.704  21.436   0.951
13511W        W79942  26.571  29.032  11.989
13512W        W79943  32.493  41.235  13.903
13513W        W79944  23.511  28.258  12.538
13514W        W79945   3.854  14.841   0.450
13515W        W79946  35.196  43.440  11.605
13516W        W79947  30.902  36.507  10.872
13517W        W79948   3.236   3.235  12.858
13518W        W79949  19.654  23.484  10.731
13519W        W79950  41.887  42.540  12.548
13520W        W79951  10.624  11.849   3.056
13521W        W79952  40.777  21.106  14.618
13522W        W79953   5.984  25.583  11.496
13523W        W79954   3.555  10.312   0.776
13524W        W79955  28.017  29.554  13.825
13525W        W79956  19.555  42.848  10.758
13526W        W79957   5.085   4.939   2.403
13527W        W79958   5.334  34.008  13.473
13528W        W79959   8.632   9.717  13.969
13529W        W79960  26.548   4.249  14.789
13530W        W79961  23.371  16.135   5.008
13531W        W79962  16.994  43.829  12.309
13532W        W79963  37.860  19.273  12.432
13533W        W79964  17.456  24.737   0.431
13534W        W79965  35.976  31.494   1.730
13535W        W79966  32.655  26.649   5.176
13536W        W79967  36.451  39.608   3.781
13537W        W79968  14.446   7.801  12.615
13538W        W79969  11.177  25.026  14.057
13539W        W79970  29.392  32.533   0.366
13540W        W79971  11.142  34.840   4.874
13541W        W79972  25.770  29.921   3.690
13542W        W79973   8.404  43.321  11.575
13543W        W79974   8.943  12.653  10.122
13544W        W79975  15.045  15.302  10.186
13545W        W79976  11.785  44.177  13.497
13546W        W79977  10.893  28.267  10.728
13547W        W79978   3.249  32.971   1.408
13548W        W79979  26.401  26.090   1.323
13549W        W79980  35.218   5.943  12.915
13550W        W79981  23.554   5.442   1.436
13551W        W79982  32.632  39.341  12.917
13552W        W79983   1.527  17.086  11.282
13553W        W79984  39.017  26.501   4.956
13554W        W79985  18.219  20.873  11.525
13555W        W79986  22.348  37.921   0.414
13556W        W79987  30.612  26.200   0.144
13557W        W79988  27.987  41.955  14.763
13558W        W79989   1.427  10.030   2.309
13559W        W79990   2.398  38.533   2.331
13560W        W79991   6.438  28.920   0.908
13561W        W79992  30.186  36.900   3.148
13562W        W79993  28.641  22.187  14.214
13563W        W79994   5.157   6.700   4.114
13564W        W79995  21.766  36.089   3.580
13565W        W79996  21.222   8.513  13.131
13566W        W79997   1.181  16.082   4.466
13567W        W79998   9.375  25.577  14.408
13568W        W79999  34.055  14.633  10.799
13569W        W80000  34.496  41.849  13.965
13570W        W80001  10.635   9.666   1.376
13571W        W80002  44.862  28.275  13.904
13572W        W80003  13.817  14.127  12.905
13573W        W80004   1.393  43.989   2.452
13574W        W80005   2.786  36.430   2.520
13575W        W80006  26.714  34.373  11.341
13576W        W80007   4.787   6.914   1.235
13577W        W80008  34.549  23.715   1.251
13578W        W80009  39.053   1.426  10.849
13579W        W80010  12.348  42.568  12.998
13580W        W80011  16.529  40.726   4.157
13581W        W80012  32.953   1.240   2.304
13582W        W80013  41.532  44.032   2.880
13583W        W80014  13.654   0.462  14.808
13584W        W80015   6.674  27.087  13.855
13585W        W80016  36.490  11.899  13.163
13586W        W80017  43.431  13.005  14.168
13587W        W80018  25.924  13.630   1.161
13588W        W80019  16.508   8.151   1.415
13589W        W80020  43.884   1.436   4.611
13590W        W80021   2.307  43.018   4.139
13591W        W80022  14.719   9.926   4.162
13592W        W80023  19.251  36.269   3.876
13593W        W80024   8.735   7.862  14.343
13594W        W80025  10.236  19.598   2.852
13595W        W80026   5.642   9.783   1.292
13596W        W80027  36.935   4.652   2.679
13597W        W80028  40.084   6.300  13.309
13598W        W80029  15.164   6.125  13.109
13599W        W80030  39.918  20.189  14.838
13600W        W80031  30.948  16.008  14.545
13601W        W80032   9.762  16.216  14.817
13602W        W80033   4.434  40.094   4.505
13603W        W80034  27.746   5.879   3.597
13604W        W80035  37.671  41.327   5.059
13605W        W80036   9.725  11.921  13.572
13606W        W80037  37.559  36.820  12.066
13607W        W80038  33.805  18.306   0.859
13608W        W80039   0.481  35.393  10.775
13609W        W80040  30.165   5.754  14.460
13610W        W80041  42.579  38.400  12.871
13611W        W80042  11.248  27.386   0.242
13612W        W80043  37.224  39.122  10.903
13613W        W80044  13.149  11.879   2.265
13614W        W80045  37.675  20.622   1.601
13615W        W80046  13.701  24.046   3.563
13616W        W80047   0.960  24.131   3.295
13617W        W80048  31.478  25.502  13.860
13618W        W80049  16.077   8.754  14.220
13619W        W80050  34.462  18.437   4.424
13620W        W80051  25.561  34.259  12.507
13621W        W80052  24.373   9.800  14.344
13622W        W80053  24.100   9.871   2.266
13623W        W80054  20.407  38.748  12.400
13624W        W80055  26.401  23.528   0.363
13625W        W80056   5.980   1.440  14.496
13626W        W80057   8.273   2.210   3.577
13627W        W80058   1.615  38.938   2.267
13628W        W80059  36.542  36.538  11.182
13629W        W80060  28.098   2.505   1.011
13630W        W80061  16.743  19.805  13.078
13631W        W80062   4.772  28.950   1.492
13632W        W80063   0.281  24.305  14.797
13633W        W80064  24.034  37.650  13.234
13634W        W80065  13.154   2.274   2.636
13635W        W80066  33.003  24.207  12.526
13636W        W80067  32.992  43.759  11.605
13637W        W80068  22.682   8.676   0.328
13638W        W80069  24.411  22.006   4.195
13639W        W80070  27.941  24.615   4.173
13640W        W80071   2.245  43.188   2.898
13641W        W80072  23.463  26.810  12.575
13642W        W80073   4.828  26.636  14.013
13643W        W80074  19.272   3.065  12.713
13644W        W80075  21.641  39.313   0.822
13645W        W80076  13.766   7.672   3.706
13646W        W80077   7.630   3.706  14.348
13647W        W80078  41.832  16.417  13.872
13648W        W80079   6.843  14.259  14.770
13649W        W80080  30.915  16.363   2.645
13650W        W80081  24.015  29.760   3.563
13651W        W80082  13.990  27.173   4.498
13652W        W80083   9.729  11.147  11.705
13653W        W80084  23.133  25.953  12.181
13654W        W80085  40.248  40.860   0.141
13655W        W80086   6.386  33.181   4.675
13656W        W80087  17.516   8.143  14.829
13657W        W80088   9.697  41.606   2.052
13658W        W80089  35.011  20.786  13.466
13659W        W80090  26.457  27.169  11.411
13660W        W80091  34.398   1.048   0.373
13661W        W80092  36.368  34.640   4.800
13662W        W80093  21.724  32.789   1.610
13663W        W80094  39.778   6.789  11.606
13664W        W80095  24.163  22.021   2.112
13665W        W80096   7.026   1.341  12.404
13666W        W80097  22.826   7.992   2.779
13667W        W80098  35.881  33.359   0.850
13668W        W80099  44.258  36.792   2.738
13669W        W80100   0.147   9.047   1.924
13670W        W80101  16.124  24.189  12.833
13671W        W80102   4.216  23.701  12.128
13672W        W80103  28.416  32.519  12.066
13673W        W80104   2.706  33.526   3.079
13674W        W80105  18.082  19.450   0.372
13675W        W80106  38.637  23.943   3.513
13676W        W80107  38.477  25.816   2.252
13677W        W80108  20.660   6.239   0.494
13678W        W80109  43.318  29.009  11.043
13679W        W80110   6.750  16.157   0.273
13680W        W80111  18.071  15.802   4.847
13681W        W80112   2.119  34.940   4.166
13682W        W80113  41.868  27.337   3.332
13683W        W80114  43.885  28.146  12.524
13684W        W80115  37.808  12.646  11.378
13685W        W80116  36.042  36.829  14.481
13686W        W80117  33.338   9.914   4.084
13687W        W80118  36.785  18.480   2.306
13688W        W80119  33.515   0.070  12.940
13689W        W80120  14.910  35.562  11.310
13690W        W80121  31.483  17.267  13.423
13691W        W80122   0.080  41.859  11.137
13692W        W80123  36.421  40.434   1.746
13693W        W80124  34.941  29.314  12.575
13694W        W80125  43.045  41.690  12.497
13695W        W80126  27.946   4.232   3.844
13696W        W80127   3.731  34.111   1.817
13697W        W80128  26.002  14.023  11.022
13698W        W80129   8.382  28.912  14.154
13699W        W80130  14.654  36.525  14.134
13700W        W80131   2.070  35.952   0.406
13701W        W80132   7.875  38.865  11.056
13702W        W80133  33.775  11.047   0.334
13703W        W80134  30.949  14.429   2.267
13704W        W80135  11.281   5.360   4.611
13705W        W80136  31.156  35.019  12.445
13706W        W80137  21.018  20.600  10.548
13707W        W80138  19.302  44.752   4.511
13708W        W80139   0.666  26.185  12.988
13709W        W80140  36.420  23.300   3.170
13710W        W80141  36.378   7.336  10.877
13711W        W80142   0.569  21.289  10.659
13712W        W80143   4.632  22.562  12.890
13713W        W80144  27.119  27.712   0.495
13714W        W80145  18.173   5.606   0.892
13715W        W80146  15.693  40.033  13.005
13716W        W80147  29.050   7.665   2.587
13717W        W80148  29.490  31.037  14.367
13718W        W80149  39.325   3.976  12.929
13719W        W80150  27.592  23.679  13.919
13720W        W80151   1.385  36.615   0.794
13721W        W80152   5.323  18.568  12.417
13722W        W80153   2.351  44.071   2.486
13723W        W80154  13.683  36.564   1.217
13724W        W80155  12.818  21.274  13.914
13725W        W80156   6.766  20.313  14.377
13726W        W80157  21.250  37.338  10.180
13727W        W80158   5.353   1.876   4.190
13728W        W80159   7.710  24.639  12.571
13729W        W80160  30.516  10.256   0.303
13730W        W80161  17.280  11.748  14.437
13731W        W80162   5.983  41.892  12.964
13732W        W80163  41.466  40.690  13.268
13733W        W80164  16.437   1.635  10.732
13734W        W80165   3.502  31.569  14.521
13735W        W80166  15.787   8.346   3.252
13736W        W80167  38.534  21.066   1.644
13737W        W80168  14.267  23.124   3.094
13738W        W80169  18.384  34.576  12.900
13739W        W80170   9.018  25.976   4.133
13740W        W80171   2.885   1.996  14.965
13741W        W80172  44.183  13.819  12.026
13742W        W80173  43.273  13.889   2.155
13743W        W80174   3.327  19.185  14.947
13744W        W80175  31.593  11.668  12.798
13745W        W80176   0.421   2.560  13.060
13746W        W80177  28.111  33.295   2.377
13747W        W80178   1.925  35.606   4.607
13748W        W80179   1.770  25.448   1.379
13749W        W80180  25.257  30.543  11.611
13750W        W80181   0.016  25.292  14.466
13751W        W80182  28.657   0.651  12.518
13752W        W80183  13.755  15.437   2.721
13753W        W80184  35.540  22.301   3.598
13754W        W80185  31.996  21.970   0.327
13755W        W80186  40.294  44.763   0.229
13756W        W80187  30.610  36.467   4.610
13757W        W80188  18.034  34.229   2.975
13758W        W80189  40.409  23.074   0.657
13759W        W80190   0.049  32.962   0.802
13760W        W80191  25.483  30.721   3.231
13761W        W80192  35.507  21.590   0.342
13762W        W80193  19.258  11.553   2.822
13763W        W80194  32.973  42.317  12.985
13764W        W80195  43.104  15.165  11.648
13765W        W80196   3.791  24.909  10.521
13766W        W80197  25.666  31.921   2.388
13767W        W80198  17.711  12.513  10.639
13768W        W80199  35.837  11.323   1.282
13769W        W80200  18.316  14.570   2.308
13770W        W80201  30.240  30.010  14.087
13771W        W80202   3.911  23.064  11.080
13772W        W80203   0.415  43.965   0.933
13773W        W80204   5.821   4.945  11.956
13774W        W80205   4.903  15.114  12.375
13775W        W80206  26.259  36.104   0.880
13776W        W80207  41.841  25.207  10.530
13777W        W80208  33.344  34.214  14.729
13778W        W80209  15.193   6.459   0.935
13779W        W80210  13.585  31.949  10.576
13780W        W80211  35.920  21.035   3.810
13781W        W80212  36.907  20.331   1.892
13782W        W80213  11.729  19.996   1.502
13783W        W80214   1.627  40.959   4.165
13784W        W80215   6.317   8.999   2.163
13785W        W80216  14.132  25.261   0.886
13786W        W80217  31.673  18.500   2.395
13787W        W80218   5.364  20.575  11.626
13788W        W80219  44.352  21.643   2.004
13789W        W80220  18.179  20.504  13.444
13790W        W80221  33.981  20.876  10.044
13791W        W80222  18.393  17.495  14.936
13792W        W80223  24.232  29.345   2.121
13793W        W80224  32.845  35.783  14.455
13794W        W80225  37.432  36.952  10.238
13795W        W80226  29.440  36.634  11.623
13796W        W80227  40.305  15.512   3.113
13797W        W80228  11.141  14.129   1.791
13798W        W80229  31.659  12.248   4.231
13799W        W80230  15.769  44.826   1.617
13800W        W80231   3.142   6.995  13.077
13801W        W80232  11.071  34.178  14.539
13802W        W80233  34.957  33.948   1.223
13803W        W80234  14.581  14.272   1.250
13804W        W80235  32.066  20.292   2.362
13805W        W80236  29.875   8.944  10.314
13806W        W80237  25.631  41.348  10.657
13807W        W80238  35.398  12.267   3.384
13808W        W80239  24.266   0.727  11.646
13809W        W80240   4.740  36.712   4.982
13810W        W80241  22.032   6.849   1.802
13811W        W80242   9.751  28.249  14.054
13812W        W80243  36.906  19.851  12.594
13813W        W80244  14.781  32.175   4.112
13814W        W80245  37.243  38.023  14.073
13815W        W80246   9.310   4.504   0.281
13816W        W80247  23.006  22.159  13.403
13817W        W80248  38.540  22.625   0.193
13818W        W80249  18.147  42.787  10.970
13819W        W80250   9.857  33.519  10.700
13820W        W80251  34.098   9.532   2.381
13821W        W80252  37.894  30.184  12.029
13822W        W80253  42.960   2.253  12.953
13823W        W80254  43.432  22.472  11.639
13824W        W80255  34.466   5.748   0.208
13825W        W80256  15.190  14.235  12.112
13826W        W80257   2.962  12.200  11.844
13827W        W80258  38.843  14.553   0.457
13828W        W80259  26.496  34.576   0.274
13829W        W80260  35.915  14.692   2.253
13830W        W80261  36.382  22.102  12.625
13831W        W80262  16.602  22.595  10.664
13832W        W80263   1.569   3.066  12.086
13833W        W80264  29.923  13.384  12.684
13834W        W80265  43.210  44.054  14.101
13835W        W80266   5.196  22.646   2.074
13836W        W80267  42.577  38.540  11.968
13837W        W80268  21.272  37.801  10.717
13838W        W80269   5.162  14.173  12.455
13839W        W80270  33.912  28.455   2.162
13840W        W80271  36.319  22.107   4.322
13841W        W80272  29.059  29.359   3.329
13842W        W80273  22.720  23.676  11.033
13843W        W80274  11.295   6.832   3.028
13844W        W80275  13.650  28.982   4.608
13845W        W80276   7.137  19.227   1.622
13846W        W80277  24.960  22.637  14.339
13847W        W80278   8.813  42.549   0.664
13848W        W80279  28.968  25.732  12.440
13849W        W80280  37.309  13.581   4.147
13850W        W80281   9.771   6.924  13.139
13851W        W80282   2.877  14.123  12.023
13852W        W80283  11.265  24.970  11.162
13853W        W80284  33.820  21.980  13.482
13854W        W80285  16.308  30.445  12.910
13855W        W80286  44.809   5.810  11.348
13856W        W80287  12.637  17.789  12.912
13857W        W80288  35.264   6.328  11.767
13858W        W80289  11.155  41.246  11.154
13859W        W80290  39.609  12.131  12.547
13860W        W80291  39.914  33.214  12.650
13861W        W80292   7.773  42.257  12.778
13862W        W80293  38.434   0.049   1.757
13863W        W80294  14.097  40.502  11.514
13864W        W80295  17.950  13.051   4.063
13865W        W80296   9.048  39.231   5.089
13866W        W80297   9.669  24.970   0.773
13867W        W80298  19.202  35.056   3.256
13868W        W80299  43.304   7.356  14.290
13869W        W80300  13.991  23.895  14.080
13870W        W80301  20.727  40.505  13.456
13871W        W80302  42.535   6.233   0.938
13872W        W80303  43.278  34.147  12.762
13873W        W80304  37.897  14.313  10.715
13874W        W80305  15.253  27.195   1.817
13875W        W80306  15.132  18.544  12.475
13876W        W80307  34.869  15.155   3.745
13877W        W80308   8.333  15.326   1.120
13878W        W80309  39.781  14.046  13.749
13879W        W80310  15.637  18.449  10.695
13880W        W80311   5.315  35.900  11.288
13881W        W80312   0.853   0.343   0.933
13882W        W80313  21.079   0.953  14.766
13883W        W80314  30.600   2.510  10.573
13884W        W80315  12.417  14.125  11.548
13885W        W80316  34.649  33.904  11.170
13886W        W80317  25.442  15.550  11.625
13887W        W80318  43.837  43.183  11.765
13888W        W80319  40.287  32.768  11.938
13889W        W80320   1.386  12.201   1.176
13890W        W80321  39.345  24.076  14.876
13891W        W80322  35.464   5.474  13.012
13892W        W80323   5.997  15.383   3.606
13893W        W80324  35.023  23.478  13.978
13894W        W80325  13.363  43.566  10.864
13895W        W80326  19.227  36.272  13.860
13896W        W80327  11.289  33.983   4.610
13897W        W80328  18.047   8.990  14.505
13898W        W80329   5.728  19.805   4.949
13899W        W80330   5.454  29.140  10.806
13900W        W80331  25.994   5.870  10.269
13901W        W80332  41.505   3.710  11.036
13902W        W80333  36.400  20.286   0.764
13903W        W80334  28.967  32.698   1.310
13904W        W80335   7.101  31.565  12.786
13905W        W80336  11.782   4.740  11.537
13906W        W80337  16.472  17.459  14.991
13907W        W80338   6.231  43.310  14.507
13908W        W80339  14.610  20.068   2.644
13909W        W80340  22.021  32.363   1.530
13910W        W80341  14.395  34.754  11.999
13911W        W80342  27.540   2.690   2.289
13912W        W80343  34.471  21.426   1.814
13913W        W80344  30.015  42.336   1.228
13914W        W80345  31.080  19.475   3.253
13915W        W80346   2.446  18.068  14.399
13916W        W80347  28.961  36.620  13.891
13917W        W80348  15.282  23.932  11.499
13918W        W80349  15.224   0.261   3.287
13919W        W80350  39.439   0.200   2.321
13920W        W80351  16.856  36.641   3.215
13921W        W80352  35.955   3.000  12.038
13922W        W80353  19.208  22.099  13.598
13923W        W80354  10.203  30.038   4.159
13924W        W80355   5.317  31.980  14.264
13925W        W80356  19.813  42.327  14.819
13926W        W80357   6.863  31.728   5.005
13927W        W80358  35.817   0.326  12.846
13928W        W80359  20.978  21.072   0.930
13929W        W80360   3.562  31.588   1.333
13930W        W80361  31.858  14.352   2.218
13931W        W80362  18.806  41.724  11.787
13932W        W80363   2.637  21.160  12.228
13933W        W80364   4.167  24.413  12.761
13934W        W80365   0.335  30.307  14.274
13935W        W80366   8.388  20.203   3.918
13936W        W80367  13.914  42.338   1.444
13937W        W80368  28.101  43.795  13.233
13938W        W80369  30.480  35.968   0.210
13939W        W80370  12.701  14.272  11.142
13940W        W80371  11.203  19.300  12.543
13941W        W80372   4.479   3.195   1.060
13942W        W80373  19.798  32.246   2.650
13943W        W80374   2.359  37.487  12.461
13944W        W80375  11.408   1.705  13.438
13945W        W80376  13.158  16.271   1.835
13946W        W80377  41.596  28.987   2.791
13947W        W80378  41.035   6.799  12.527
13948W        W80379  39.106  35.911  14.363
13949W        W80380  20.032  18.640   9.766
13950W        W80381  16.642  44.662  13.386
13951W        W80382  21.759  15.697  14.590
13952W        W80383  37.083  42.379   3.778
13953W        W80384  42.945  23.624   5.053
13954W        W80385  40.290   2.328   3.290
13955W        W80386  25.226  40.344  13.519
13956W        W80387   9.058  15.240  12.866
13957W        W80388  20.950  38.565  14.285
13958W        W80389   7.745  22.192  12.990
13959W        W80390  33.059  38.379   1.287
13960W        W80391  24.749  21.165   2.407
13961W        W80392  17.786  30.165  12.641
13962W        W80393  15.485  32.128  11.622
13963W        W80394   0.822  22.611   1.234
13964W        W80395  41.785   1.712  14.941
13965W        W80396  15.197  21.718  13.847
13966W        W80397  29.874  44.386  12.939
13967W        W80398  34.593  12.519   0.996
13968W        W80399   5.243  24.690  14.428
13969W        W80400  11.905  33.796  11.441
13970W        W80401  26.563  40.692  13.572
13971W        W80402  11.949   8.121  12.022
13972W        W80403  10.360  16.386  14.016
13973W        W80404  16.469  34.031   1.957
13974W        W80405  22.756   7.346   5.072
13975W        W80406  29.130  34.113   3.006
13976W        W80407  39.421   5.049   2.216
13977W        W80408   5.327  25.611  14.417
13978W        W80409  34.650  41.939  14.433
13979W        W80410  27.195  18.365   0.230
13980W        W80411   5.409  34.840   4.547
13981W        W80412  38.044   9.125   2.351
13982W        W80413  27.395  23.086   4.906
13983W        W80414  15.025  25.633  10.611
13984W        W80415  25.934  34.114  10.873
13985W        W80416  15.502  22.962  14.618
13986W        W80417  31.954   0.845   3.332
13987W        W80418  32.603   7.291   4.162
13988W        W80419  43.409  35.288   0.249
13989W        W80420   7.241  43.959  12.605
13990W        W80421  28.087  33.847   1.501
13991W        W80422  28.658  43.307   3.476
13992W        W80423   8.691  28.071   2.775
13993W        W80424  25.089  42.968  12.550
13994W        W80425  18.178  36.618   4.465
13995W        W80426  23.482  32.790  11.936
13996W        W80427   7.878  42.365   2.178
13997W        W80428  17.764  32.484  14.844
13998W        W80429  39.904  26.765   4.495
13999W        W80430   0.766  24.488  14.887
14000W        W80431  21.568  40.627   4.030
14001W        W80432  18.971  13.230   2.418
14002W        W80433  31.713   9.154  13.479
14003W        W80434  36.104  35.437   4.419
14004W        W80435  14.141  28.910   0.473
14005W        W80436  27.350  30.394  10.564
14006W        W80437   7.333  27.589   1.239
14007W        W80438  15.235  16.556  13.870
14008W        W80439   3.735  24.516  12.460
14009W        W80440  34.021  26.759  14.043
14010W        W80441  14.585  33.829  11.756
14011W        W80442  23.202  23.535   0.284
14012W        W80443  41.559  42.032   2.761
14013W        W80444  25.748  10.718   2.781
14014W        W80445  23.934   1.307   0.729
14015W        W80446   5.398  16.097   2.816
14016W        W80447  42.867   2.746  12.041
14017W        W80448  25.746  43.498   4.089
14018W        W80449   8.670  12.688  12.038
14019W        W80450  37.596   0.225   3.250
14020W        W80451  36.149   8.945  13.372
14021W        W80452  29.166  32.597  11.561
14022W        W80453  25.023  13.537  12.534
14023W        W80454  24.470  17.203  14.030
14024W        W80455  19.005  40.474   4.628
14025W        W80456  29.862  40.914  12.426
14026W        W80457  11.555  13.706  12.432
14027W        W80458  29.910  39.497   2.309
14028W        W80459  10.508  24.334   4.969
14029W        W80460  16.482  36.648  11.998
14030W        W80461  42.157  19.791   9.998
14031W        W80462   8.220  31.944  10.661
14032W        W80463  25.565   9.245  13.149
14033W        W80464  29.651   4.533  13.057
14034W        W80465   4.950  30.688   1.315
14035W        W80466  34.471  26.988  11.007
14036W        W80467   6.004  36.004  13.612
14037W        W80468  17.757  35.485   3.358
14038W        W80469   6.418  25.113   5.041
14039W        W80470  38.488  14.677  12.620
14040W        W80471  16.206   0.024   0.913
14041W        W80472  17.730   6.245   0.969
14042W        W80473  15.877  22.822  14.939
14043W        W80474   5.208  27.589   1.713
14044W        W80475   8.750   6.847   1.011
14045W        W80476  36.571  40.018  14.993
14046W        W80477  38.227  21.102   3.307
14047W        W80478  11.733  25.930  10.644
14048W        W80479  17.444   4.882  11.919
14049W        W80480  13.254  40.214  10.413
14050W        W80481   8.706   6.690   3.299
14051W        W80482  13.196  39.001  13.567
14052W        W80483  37.501   6.814  11.174
14053W        W80484  36.394   4.492   4.690
14054W        W80485   1.406   8.418  12.672
14055W        W80486  20.751   9.998   4.202
14056W        W80487  10.436  27.371  12.883
14057W        W80488  37.021  30.576  13.929
14058W        W80489  29.606   3.730   4.128
14059W        W80490  39.263   4.429   4.670
14060W        W80491  41.345  19.730   1.947
14061W        W80492  36.028  18.075  10.686
14062W        W80493   7.356  20.007  11.068
14063W        W80494  29.163  18.624  14.877
14064W        W80495   3.697  20.443   4.475
14065W        W80496  29.163  34.918   4.236
14066W        W80497  21.137  14.638  13.806
14067W        W80498  42.664  21.578   0.350
14068W        W80499   4.755  21.776   0.228
14069W        W80500  11.390  17.101  12.107
14070W        W80501  14.395  34.241  11.986
14071W        W80502  43.458  30.915   3.363
14072W        W80503   5.699  27.976  12.999
14073W        W80504  25.424  41.519  13.867
14074W        W80505  24.069  23.362  11.059
14075W        W80506  21.330   0.428   1.932
14076W        W80507  36.541  28.131   2.153
14077W        W80508  11.233  35.551  14.353
14078W        W80509  31.541   6.132  13.853
14079W        W80510   1.707  29.416   1.421
14080W        W80511  28.091   7.783   0.550
14081W        W80512  13.050   9.821  14.898
14082W        W80513  13.824  37.177  11.990
14083W        W80514  28.089  26.058  12.854
14084W        W80515  12.622  44.731  13.009
14085W        W80516  13.736  29.181  14.335
14086W        W80517   6.361  17.536   0.397
14087W        W80518  16.592  27.260  10.701
14088W        W80519  10.778  43.133  14.572
14089W        W80520  41.919   1.760   1.785
14090W        W80521  22.511  21.943   1.389
14091W        W80522  40.496  35.432  11.258
14092W        W80523   2.914  36.755   2.966
14093W        W80524  23.395  15.048   4.143
14094W        W80525   0.463  30.513   2.778
14095W        W80526  32.998   0.924   0.879
14096W        W80527  24.413   7.339  13.762
14097W        W80528  19.974  28.579  11.039
14098W        W80529  11.095  37.136  12.049
14099W        W80530   8.143  37.295   1.393
14100W        W80531  25.136  28.893   2.293
14101W        W80532   4.880  20.464  12.492
14102W        W80533  32.054   6.315   4.846
14103W        W80534  27.173   4.315  13.890
14104W        W80535  23.539  41.167  14.103
14105W        W80536   2.789   6.925   2.810
14106W        W80537   8.647   7.886  13.510
14107W        W80538   9.676  32.113   1.194
14108W        W80539   8.236   7.674   2.324
14109W        W80540  36.061   5.698   2.768
14110W        W80541  33.444  16.698  11.450
14111W        W80542  19.096  25.605   4.513
14112W        W80543  21.472  15.021   2.807
14113W        W80544  40.812  26.906   0.255
14114W        W80545  40.338  31.148  13.602
14115W        W80546  13.092  15.760   2.718
14116W        W80547  11.257  14.865   1.424
14117W        W80548  38.574  32.913  12.453
14118W        W80549  36.932  38.059   9.643
14119W        W80550   3.756  17.305  12.704
14120W        W80551  19.750  21.052  13.965
14121W        W80552  28.478  19.660  13.853
14122W        W80553  31.116  22.088   2.168
14123W        W80554  10.090  13.749  10.377
14124W        W80555  11.587  36.995  12.023
14125W        W80556  23.990  25.167  11.987
14126W        W80557  31.186  32.460   0.068
14127W        W80558   2.763  29.838  12.135
14128W        W80559  20.435  36.570   3.791
14129W        W80560  16.646  30.431   0.050
14130W        W80561  22.563  19.220  13.893
14131W        W80562   0.645  30.763   1.818
14132W        W80563  19.756   1.968   2.119
14133W        W80564  16.083  32.102   3.328
14134W        W80565   0.999  17.290   4.588
14135W        W80566  34.006   9.300  14.833
14136W        W80567  18.776  25.924   1.559
14137W        W80568  32.602  42.394   2.277
14138W        W80569  41.207  30.652  13.994
14139W        W80570  14.566  39.288  14.458
14140W        W80571  17.784  27.453  10.450
14141W        W80572  26.424  27.861   0.107
14142W        W80573  43.928  26.939  11.202
14143W        W80574   2.504   6.877   4.576
14144W        W80575   5.224  11.664  14.761
14145W        W80576  29.555  42.736  14.759
14146W        W80577  33.011   6.330   1.105
14147W        W80578  39.256  10.130  13.509
14148W        W80579  14.674  11.804   4.815
14149W        W80580  24.390  13.839   4.654
14150W        W80581  34.005   9.496   0.349
14151W        W80582  28.100  44.666   0.377
14152W        W80583  39.505   8.594  14.147
14153W        W80584  17.182  29.961  11.201
14154W        W80585  39.525   6.332  11.575
14155W        W80586  20.224  28.100   3.472
14156W        W80587  16.536  32.468  11.012
14157W        W80588  29.995   5.280   2.852
14158W        W80589   8.295  44.182  10.262
14159W        W80590  14.785  15.751   0.586
14160W        W80591  35.045  29.740   3.537
14161W        W80592  37.387  25.664  11.527
14162W        W80593  24.275  38.921  14.081
14163W        W80594  15.395   0.377   0.399
14164W        W80595  14.340  17.884   0.339
14165W        W80596   5.089  35.316   4.320
14166W        W80597   1.268   4.459   3.089
14167W        W80598  24.214  30.306  13.015
14168W        W80599  20.752   3.740   0.935
14169W        W80600   0.941  22.287  14.466
14170W        W80601   8.277  16.801  14.191
14171W        W80602  40.532  24.449   2.233
14172W        W80603   8.300  12.527   1.255
14173W        W80604  10.548  31.808   1.290
14174W        W80605   7.822  35.881  14.216
14175W        W80606  23.561  44.307  12.528
14176W        W80607  19.053  25.656   3.692
14177W        W80608  36.469  31.467   0.945
14178W        W80609  15.144   2.599   4.919
14179W        W80610  32.042  16.181  13.590
14180W        W80611  37.578  27.810  14.787
14181W        W80612  12.875  25.370  11.108
14182W        W80613  23.270  36.824   3.681
14183W        W80614   5.190  29.708   2.771
14184W        W80615  12.679  35.431   3.663
14185W        W80616  12.611  23.843   1.356
14186W        W80617  40.900  33.808  13.949
14187W        W80618  29.659  37.496   2.292
14188W        W80619  19.640   0.211   3.423
14189W        W80620   6.227  10.296   2.575
14190W        W80621  34.055  15.846   0.920
14191W        W80622   4.322  16.068   2.775
14192W        W80623  27.396  24.609   2.888
14193W        W80624   2.304   5.215   1.419
14194W        W80625  33.004  11.090  11.632
14195W        W80626  12.099  35.118   0.466
14196W        W80627  40.446  15.029  10.573
14197W        W80628  32.087  25.322  12.545
14198W        W80629  30.514   0.808   4.181
14199W        W80630  39.063  37.318   0.484
14200W        W80631  23.646   7.555  11.194
14201W        W80632  32.055  28.557   3.277
14202W        W80633   3.415  18.698  14.636
14203W        W80634  17.171   1.016   0.431
14204W        W80635  17.281   7.292  11.290
14205W        W80636  43.977  15.634   3.320
14206W        W80637   1.471  23.193   0.927
14207W        W80638  26.627   5.578   5.329
14208W        W80639   7.904  11.758   4.981
14209W        W80640  29.918  12.612   3.203
14210W        W80641  44.989  36.943   1.697
14211W        W80642  43.719  18.147  11.982
14212W        W80643  25.213  27.872  10.972
14213W        W80644   9.712   2.571  12.054
14214W        W80645   8.194   7.272   3.456
14215W        W80646  44.213  15.690   1.274
14216W        W80647  22.262   1.335   1.917
14217W        W80648  16.717   9.067   1.907
14218W        W80649  36.332  26.255  14.209
14219W        W80650  11.821  28.060  10.734
14220W        W80651  41.357  22.142   0.396
14221W        W80652  22.151   9.161   2.716
14222W        W80653  18.115  14.253   1.964
14223W        W80654   3.656   1.653  11.554
14224W        W80655   3.380  35.411   3.139
14225W        W80656  11.683  10.234  10.675
14226W        W80657  28.952   0.417   3.214
14227W        W80658  18.579  22.546  13.861
14228W        W80659  25.351  31.086   4.043
14229W        W80660  14.208  37.937   3.425
14230W        W80661   2.015  44.875   2.336
14231W        W80662   0.054  35.847  11.773
14232W        W80663  26.136  24.658  14.924
14233W        W80664  11.311  25.592  12.607
14234W        W80665  18.326  27.115   2.276
14235W        W80666   7.274  28.431  13.404
14236W        W80667  20.356  29.811  10.652
14237W        W80668  40.112  33.047   3.820
14238W        W80669  34.242   4.987  12.926
14239W        W80670  37.335  22.514  14.311
14240W        W80671  20.008  24.264   4.264
14241W        W80672  21.679  10.514  11.731
14242W        W80673  10.228  34.152  13.890
14243W        W80674  31.070   1.678  12.619
14244W        W80675  40.509  44.129  11.164
14245W        W80676   2.430  28.629   4.155
14246W        W80677  26.238  15.323   2.206
14247W        W80678  28.939  11.857  10.755
14248W        W80679  22.479   4.913  10.728
14249W        W80680  10.572   0.310   4.699
14250W        W80681  24.102  36.329   3.929
14251W        W80682  35.705   6.944   0.846
14252W        W80683  32.079  30.619   4.260
14253W        W80684   0.476  16.854  10.707
14254W        W80685  19.788  44.974  13.373
14255W        W80686  15.821  20.164  11.194
14256W        W80687  17.756   4.188  13.577
14257W        W80688   4.364  31.677   2.807
14258W        W80689  30.172  30.585  12.493
14259W        W80690  22.798  17.306   3.152
14260W        W80691  15.768  43.911   2.387
14261W        W80692  30.422   0.780  14.226
14262W        W80693  33.337  40.570  13.095
14263W        W80694  14.060  41.305   1.938
14264W        W80695  21.230   5.197   0.781
14265W        W80696  24.485  40.464   0.514
14266W        W80697  39.323  12.429   4.529
14267W        W80698   6.245  34.386   3.902
14268W        W80699   6.042   7.714   2.279
14269W        W80700  14.223  13.349   0.700
14270W        W80701  42.424  21.641   0.897
14271W        W80702  41.962  19.977  12.521
14272W        W80703   6.355  29.410  13.586
14273W        W80704  18.306  25.080   1.192
14274W        W80705  22.434  40.650   0.211
14275W        W80706  12.562  41.606   3.395
14276W        W80707  10.066  15.071  13.096
14277W        W80708  39.035   8.531  11.867
14278W        W80709  41.935   4.684   1.189
14279W        W80710  35.319   3.792  14.458
14280W        W80711   7.559   9.675   4.605
14281W        W80712  28.518  17.315  12.167
14282W        W80713  10.820   7.688  14.025
14283W        W80714  43.775  21.272   1.392
14284W        W80715  36.894   8.804  12.652
14285W        W80716  21.475   1.800  14.186
14286W        W80717   5.227  14.775   2.689
14287W        W80718  18.223  24.346  10.710
14288W        W80719  24.467  23.321   2.777
14289W        W80720  17.493  25.683  11.051
14290W        W80721  23.067  10.709   0.827
14291W        W80722  10.384  12.176   2.677
14292W        W80723  10.432  39.994   4.251
14293W        W80724  29.326  41.363  14.706
14294W        W80725  29.498  16.731   2.463
14295W        W80726  32.870  34.434  13.510
14296W        W80727  32.796  22.165   0.252
14297W        W80728  31.933  18.121   4.151
14298W        W80729  44.508  22.015  13.377
14299W        W80730  25.921  18.328  11.641
14300W        W80731  44.372  15.550   4.191
14301W        W80732  24.114   1.854  11.998
14302W        W80733  40.547  35.165   0.317
14303W        W80734  42.891  34.460  12.998
14304W        W80735   6.745  33.560  13.060
14305W        W80736  44.810  12.865  12.518
14306W        W80737  39.840  43.478  14.870
14307W        W80738  23.249  16.073   1.323
14308W        W80739  32.579   2.260   1.452
14309W        W80740  42.030  13.839   2.713
14310W        W80741  38.501  40.486  12.189
14311W        W80742  34.610  33.063  13.452
14312W        W80743  43.164  14.818  12.426
14313W        W80744   8.888  15.537   2.329
14314W        W80745  44.259  16.076  11.771
14315W        W80746  35.277  20.716   2.686
14316W        W80747  19.466   7.948   0.678
14317W        W80748   9.470  36.692  14.317
14318W        W80749  42.407  25.899   0.308
14319W        W80750  21.666  20.541   3.677
14320W        W80751  31.586   0.987   0.365
14321W        W80752  28.855  25.886  11.981
14322W        W80753  17.253  15.287  14.961
14323W        W80754  17.320   9.794  14.405
14324W        W80755  38.578  40.294  14.118
14325W        W80756  38.340   1.237  11.544
14326W        W80757  30.218  13.879   2.585
14327W        W80758  25.910  23.923  12.096
14328W        W80759   0.125  19.700  13.604
14329W        W80760  20.203  14.797   1.758
14330W        W80761  13.226   5.225   4.786
14331W        W80762   8.676  38.321  11.943
14332W        W80763  11.282  16.807   1.828
14333W        W80764  43.153   3.465  12.377
14334W        W80765  28.083  23.907  11.981
14335W        W80766  16.356  39.018  11.342
14336W        W80767  35.804  32.469   4.172
14337W        W80768   3.837   4.070   1.136
14338W        W80769  18.990  20.523   2.734
14339W        W80770  24.158  40.812  10.925
14340W        W80771  27.840  18.584   0.283
14341W        W80772  43.258  11.444   3.021
14342W        W80773  16.740  16.634  12.046
14343W        W80774   3.281  37.372   9.971
14344W        W80775  40.732  23.652  11.166
14345W        W80776  38.309  34.587  10.479
14346W        W80777  14.290   9.102   0.782
14347W        W80778  31.000  30.527   0.260
14348W        W80779   4.261  17.130   1.228
14349W        W80780  25.100   5.078   4.927
14350W        W80781  24.800  21.698  13.869
14351W        W80782  24.920  17.813  12.435
14352W        W80783   6.769  26.013  10.682
14353W        W80784  11.770  39.295  10.485
14354W        W80785  31.163  41.269   3.673
14355W        W80786   1.393   2.595  11.959
14356W        W80787  26.553   8.418  10.728
14357W        W80788  35.310  41.015  11.622
14358W        W80789  11.990  18.681  14.948
14359W        W80790  20.739  29.914   3.318
14360W        W80791  15.592   1.242   0.981
14361W        W80792  28.349  29.644   0.735
14362W        W80793  42.762  12.879  14.044
14363W        W80794  44.282   4.921   0.409
14364W        W80795   8.147  19.755   2.228
14365W        W80796  35.337  37.367  14.010
14366W        W80797  37.834  27.625   0.226
14367W        W80798  44.535  33.504  10.679
14368W        W80799  10.507  27.743   4.738
14369W        W80800  39.970  25.534  14.924
14370W        W80801  43.473  28.597  12.883
14371W        W80802  14.847  32.297   1.899
14372W        W80803  17.488  12.285   3.667
14373W        W80804  41.256   9.323  14.919
14374W        W80805  38.542  39.629  10.676
14375W        W80806  32.765  35.009   1.248
14376W        W80807  43.937   3.310  14.988
14377W        W80808   4.791  22.514  10.751
14378W        W80809  29.417  14.535  12.865
14379W        W80810  30.604  12.235   1.555
14380W        W80811   1.198  14.838  14.741
14381W        W80812  14.511  27.339   1.760
14382W        W80813   7.377   3.933  14.766
14383W        W80814  28.972   1.458  13.512
14384W        W80815  11.807  20.114   4.144
14385W        W80816  12.287  12.599   2.871
14386W        W80817  38.250  22.956  14.496
14387W        W80818  28.701  38.814  12.598
14388W        W80819  29.098  44.886  14.756
14389W        W80820  23.407   4.172  13.808
14390W        W80821  16.647   2.307  11.204
14391W        W80822  14.377  15.241  14.892
14392W        W80823  19.863  26.393  14.965
14393W        W80824  11.696  28.939  11.960
14394W        W80825  26.682  31.538  11.505
14395W        W80826  32.183   9.253   0.511
14396W        W80827  11.814  35.169   0.018
14397W        W80828  12.074  21.798  14.297
14398W        W80829  12.255  15.874  11.074
14399W        W80830  27.673   4.165  13.919
14400W        W80831  39.917  43.962  14.631
14401W        W80832   3.448  28.838  13.273
14402W        W80833  40.868  40.204   5.149
14403W        W80834  40.803  29.132  10.605
14404W        W80835   4.757  19.037  10.666
14405W        W80836   7.473  35.974  11.138
14406W        W80837   5.776  24.270   2.106
14407W        W80838  13.272   2.836   4.413
14408W        W80839  13.195  42.860  10.370
14409W        W80840  39.232  15.739  14.901
14410W        W80841   2.474  36.917   4.144
14411W        W80842  19.240  20.301  11.420
14412W        W80843  35.235  33.511   1.379
14413W        W80844  10.246   7.163   3.242
14414W        W80845  21.608  41.587  14.242
14415W        W80846  10.802   7.197   0.542
14416W        W80847  26.570  16.868   4.500
14417W        W80848   9.641  41.255   3.132
14418W        W80849   9.356  23.818   4.046
14419W        W80850  32.151   2.031   1.728
14420W        W80851   1.682  27.480   3.655
14421W        W80852  18.331  40.500   0.280
14422W        W80853  43.483  31.557   1.235
14423W        W80854  15.651  25.108   3.685
14424W        W80855  18.849  30.013  12.546
14425W        W80856  25.061  26.505   4.507
14426W        W80857  44.907   4.912   0.745
14427W        W80858  28.969  24.460   2.615
14428W        W80859  14.648  13.148   4.596
14429W        W80860  15.934  15.286  14.094
14430W        W80861  24.699   6.366  10.761
14431W        W80862  27.182  31.180  10.206
14432W        W80863  39.112  12.659  11.156
14433W        W80864  37.034   6.537  14.906
14434W        W80865  42.598  22.154   2.717
14435W        W80866   5.296  11.843   1.722
14436W        W80867  25.005  37.035  11.625
14437W        W80868  44.973  34.434   1.645
14438W        W80869  16.630  12.326  11.155
14439W        W80870  17.278  14.565  11.664
14440W        W80871  35.892  40.593   2.615
14441W        W80872   4.095  17.528   5.207
14442W        W80873  31.924   4.815   5.000
14443W        W80874  33.637  14.133   4.684
14444W        W80875  20.825  32.977  12.953
14445W        W80876  26.629   4.194   1.495
14446W        W80877  33.367  42.277   3.641
14447W        W80878  14.654   9.071   3.121
14448W        W80879  22.519  30.412  11.725
14449W        W80880   2.946  40.582   4.156
14450W        W80881  41.592  44.039  11.691
14451W        W80882  43.192  29.009   0.886
14452W        W80883  27.681  12.132   1.662
14453W        W80884  30.965  41.095   4.451
14454W        W80885  16.165  25.281  14.225
14455W        W80886  44.987  30.555   3.413
14456W        W80887  22.026  15.778   2.817
14457W        W80888  20.524  15.849   1.055
14458W        W80889  11.818  39.666   2.823
14459W        W80890   5.203  24.545   0.841
14460W        W80891  24.254  38.529  12.614
14461W        W80892  25.087  22.448  11.672
14462W        W80893  29.578   3.359   9.946
14463W        W80894  22.342  18.702  12.445
14464W        W80895  26.879   1.942  13.366
14465W        W80896   6.490   7.987   2.363
14466W        W80897   4.423  12.779   3.372
14467W        W80898  17.164  42.535  13.241
14468W        W80899  11.719  10.752  12.941
14469W        W80900  26.684  10.805   0.984
14470W        W80901  19.138  14.063   1.583
14471W        W80902  39.605   9.123   1.739
14472W        W80903  26.712  37.554   0.277
14473W        W80904  42.036  41.941  14.167
14474W        W80905  26.479   1.462   3.037
14475W        W80906   0.938  27.613   0.809
14476W        W80907   3.007  19.250  12.059
14477W        W80908   0.933  33.159   2.910
14478W        W80909  39.050  26.510  12.845
14479W        W80910  31.908   8.866  11.594
14480W        W80911   8.250  35.935   0.980
14481W        W80912  10.904   9.276  14.544
14482W        W80913  30.776  12.410  11.796
14483W        W80914  44.382   2.022   2.391
14484W        W80915  37.419  34.313  10.776
14485W        W80916  31.535  34.055   0.465
14486W        W80917   2.530  15.357  12.919
14487W        W80918  22.334  43.370  11.544
14488W        W80919   1.233  15.538   5.171
14489W        W80920  41.174  20.059   0.703
14490W        W80921   2.980  20.174  13.309
14491W        W80922  29.956  12.550  12.788
14492W        W80923  15.790  36.847  12.735
14493W        W80924  33.678  34.060   4.865
14494W        W80925  24.577  15.339  12.607
14495W        W80926  26.627   7.742  13.353
14496W        W80927  15.067   8.081   2.893
14497W        W80928  20.564  42.863  11.161
14498W        W80929  41.792  17.762   2.444
14499W        W80930  31.537  22.491   4.659
14500W        W80931   1.310  18.855  13.823
14501W        W80932  20.655  26.605  13.403
14502W        W80933  40.088   5.356  12.828
14503W        W80934  15.488  20.585  11.178
14504W        W80935  28.877  11.260  10.771
14505W        W80936  19.170  22.544   0.916
14506W        W80937  22.346  10.329  11.199
14507W        W80938   8.394  38.830   2.398
14508W        W80939   2.961  32.224   2.337
14509W        W80940  39.910  29.132  12.125
14510W        W80941  36.431  35.043   4.470
14511W        W80942  32.977  34.945  12.591
14512W        W80943  29.295  20.231   2.964
14513W        W80944  42.743  40.506  14.774
14514W        W80945  28.680  40.525  14.332
14515W        W80946  38.544  11.304   2.824
14516W        W80947  11.191  33.004   3.770
14517W        W80948  33.108  41.994   4.449
14518W        W80949  36.054  13.290  14.288
14519W        W80950   7.888   1.391   1.845
14520W        W80951  20.562  22.493   3.093
14521W        W80952   0.284  36.793   1.284
14522W        W80953   9.393  19.689   4.170
14523W        W80954   4.169  20.583  10.689
14524W        W80955  19.754   3.038  11.984
14525W        W80956  16.031  32.806   1.226
14526W        W80957  14.241  41.999  13.950
14527W        W80958  30.753  39.723  11.634
14528W        W80959  39.779   7.941  11.161
14529W        W80960  11.915  41.488   0.703
14530W        W80961  22.575   0.026   4.046
14531W        W80962  10.469   1.157   3.720
14532W        W80963  18.589   6.319   4.179
14533W        W80964  33.653  29.627   4.226
14534W        W80965  30.474   6.510  13.511
14535W        W80966  18.796  12.725  13.512
14536W        W80967  22.778  18.002   0.692
14537W        W80968  11.156  29.405   1.931
14538W        W80969   5.489  29.025   1.204
14539W        W80970  38.507  33.593  11.980
14540W        W80971  31.283  30.429   4.786
14541W        W80972  29.416   2.003  11.125
14542W        W80973  20.597   4.576   0.724
14543W        W80974   0.437  25.966   0.899
14544W        W80975  21.762  37.664  10.709
14545W        W80976  34.490  32.416  11.529
14546W        W80977  35.860  11.817  13.985
14547W        W80978  32.126  25.028   4.312
14548W        W80979  25.145  24.213  12.739
14549W        W80980  22.226  10.774  10.971
14550W        W80981  24.385  28.143  10.705
14551W        W80982   3.877  37.373  14.094
14552W        W80983  22.822  16.167   0.696
14553W        W80984   2.694   9.295  14.008
14554W        W80985  39.620  11.222  11.586
14555W        W80986  12.096   8.991  13.727
14556W        W80987  15.256   4.415   3.583
14557W        W80988  14.682   5.044  11.545
14558W        W80989  14.699  30.050   0.768
14559W        W80990  17.114  35.402  13.541
14560W        W80991  21.753  35.564  14.786
14561W        W80992  34.798  23.889   2.934
14562W        W80993  30.745  44.878   1.425
14563W        W80994  36.513  39.758  11.967
14564W        W80995  12.911  37.283  10.290
14565W        W80996   5.895  21.658   4.677
14566W        W80997   8.311  32.021   4.666
14567W        W80998  10.002   5.154   4.006
14568W        W80999  18.708   1.457  10.592
14569W        W81000   7.383  44.781  10.615
14570W        W81001  12.202  31.124  14.392
14571W        W81002  28.148  14.764   1.435
14572W        W81003  30.544  36.303  14.299
14573W        W81004  29.544   9.868  14.136
14574W        W81005  32.401  33.484  12.070
14575W        W81006  13.562  38.406  12.470
14576W        W81007  35.898   0.974   2.794
14577W        W81008  30.982  15.991  10.314
14578W        W81009  36.646  26.267   1.232
14579W        W81010  40.843  25.888   2.252
14580W        W81011  23.802  38.420   5.091
14581W        W81012   4.506  40.534  13.051
14582W        W81013   5.021  10.465  10.342
14583W        W81014  26.482  25.236  13.376
14584W        W81015  43.023  40.978  14.738
14585W        W81016  13.381  18.893   0.067
14586W        W81017  31.878  15.325   4.289
14587W        W81018   3.262   2.834   1.281
14588W        W81019  20.991  10.336   0.809
14589W        W81020  31.992  14.530   3.063
14590W        W81021   6.697  24.882   3.853
14591W        W81022  19.767  15.089  13.864
14592W        W81023  23.624   1.703  12.159
14593W        W81024  17.332   1.869  10.726
14594W        W81025  40.688  23.079   1.490
14595W        W81026  14.520   0.471   3.180
14596W        W81027  22.703  33.049   2.587
14597W        W81028   4.844  18.860   2.761
14598W        W81029  11.671  21.693  13.328
14599W        W81030  14.768  19.692   4.092
14600W        W81031  35.025  44.443   1.618
14601W        W81032  27.650  12.728  12.531
14602W        W81033  33.630  23.167   0.403
14603W        W81034   4.710  35.459  14.173
14604W        W81035  38.597  30.965  12.494
14605W        W81036  44.608  28.074   4.715
14606W        W81037  10.790  14.644  14.532
14607W        W81038   8.608  24.202  13.525
14608W        W81039  42.331  19.461  10.529
14609W        W81040   3.489  20.561  11.375
14610W        W81041   1.027  12.381   2.146
14611W        W81042  42.241  23.855  13.497
14612W        W81043  30.520  14.323   2.567
14613W        W81044  43.539  35.647   2.180
14614W        W81045  39.987  41.408   1.444
14615W        W81046  43.321  18.360   1.350
14616W        W81047  36.578  22.770   0.820
14617W        W81048  17.156  41.866   2.854
14618W        W81049  34.674  33.665   4.390
14619W        W81050  15.721  22.981   2.372
14620W        W81051   8.854  14.283  11.096
14621W        W81052  29.860  32.079   3.069
14622W        W81053  11.811  12.120  14.766
14623W        W81054  26.004  19.252   4.467
14624W        W81055  16.261  20.000  13.005
14625W        W81056  31.723  39.007  12.418
14626W        W81057  15.845  41.857  14.375
14627W        W81058  40.481  17.656  12.787
14628W        W81059  10.193   1.242   0.926
14629W        W81060   1.897   2.286   3.180
14630W        W81061   4.419  35.996   3.804
14631W        W81062  39.306  13.853   4.133
14632W        W81063  21.101  30.526  10.552
14633W        W81064  17.609   9.891  13.059
14634W        W81065  20.728   4.395  13.375
14635W        W81066   9.557  15.124  11.972
14636W        W81067   1.217  11.092   3.699
14637W        W81068  24.438   1.995   3.966
14638W        W81069   7.333  39.829  10.602
14639W        W81070  19.665   6.026   0.455
14640W        W81071  34.546  32.445   3.079
14641W        W81072  32.661   9.151   1.254
14642W        W81073   4.694  40.779   4.333
14643W        W81074  30.018   7.064   4.838
14644W        W81075  17.563  26.688   3.728
14645W        W81076   9.560  15.217   3.726
14646W        W81077  28.979  10.103  12.329
14647W        W81078   0.686  39.974  11.190
14648W        W81079  18.599  25.687   4.646
14649W        W81080  27.526  26.437   0.316
14650W        W81081   1.838  33.984   0.730
14651W        W81082  37.553  25.296  13.916
14652W        W81083  36.778   4.175   2.742
14653W        W81084   0.772  12.262  11.203
14654W        W81085  15.697  33.852   0.262
14655W        W81086  25.202  16.025  12.423
14656W        W81087  19.184  28.592   1.020
14657W        W81088  27.574  25.651   4.421
14658W        W81089  42.797  44.831  10.729
14659W        W81090  23.704  33.138  12.896
14660W        W81091   0.138  29.099   1.870
14661W        W81092  33.589  39.121  14.712
14662W        W81093  31.540  18.176  11.602
14663W        W81094  36.543  33.829   0.389
14664W        W81095  13.250   8.478  13.061
14665W        W81096  32.936  29.017  10.740
14666W        W81097  33.551  22.521  12.117
14667W        W81098  41.531  13.351   3.217
14668W        W81099  31.971  31.290   2.583
14669W        W81100   5.048  25.113  11.907
14670W        W81101  26.095  43.374   2.629
14671W        W81102   8.201  29.981  10.571
14672W        W81103  44.385  39.761  12.397
14673W        W81104   8.213  26.915  11.124
14674W        W81105  10.177  31.674   4.152
14675W        W81106  38.532   4.260   1.407
14676W        W81107  18.614  27.191   1.847
14677W        W81108   6.208  21.106   1.258
14678W        W81109  24.944  20.644   3.789
14679W        W81110  44.924  31.393  14.876
14680W        W81111  37.868  32.633  13.796
14681W        W81112  13.493   2.927   1.042
14682W        W81113  35.521  10.341   3.421
14683W        W81114  35.721  40.361   0.494
14684W        W81115  34.271   0.357  14.619
14685W        W81116  35.929  15.787  11.992
14686W        W81117  27.700   6.903  12.545
14687W        W81118  39.369   9.320   2.705
14688W        W81119   4.898  12.782   1.851
14689W        W81120  43.219  10.641   2.735
14690W        W81121   9.959   0.567  12.065
14691W        W81122  39.543  19.549   3.834
14692W        W81123  39.792   6.899  14.485
14693W        W81124  24.046  16.122   1.785
14694W        W81125  19.573   0.257   1.407
14695W        W81126  31.144  42.042   4.593
14696W        W81127  33.432  42.025   0.840
14697W        W81128  23.962  43.476   2.803
14698W        W81129  37.826  12.205   2.148
14699W        W81130  43.989  23.294  11.398
14700W        W81131   6.199   0.889   5.005
14701W        W81132  15.306  10.565  13.873
14702W        W81133  29.020  26.935   0.346
14703W        W81134  27.955  10.370   4.778
14704W        W81135  26.177  42.765  12.602
14705W        W81136  26.674  21.258   2.633
14706W        W81137   0.257  24.359   3.345
14707W        W81138  41.915  35.396   0.355
14708W        W81139  39.337  42.428  10.976
14709W        W81140  43.270  14.227  13.371
14710W        W81141  23.657  22.640  13.764
14711W        W81142  33.646  37.647  12.603
14712W        W81143  41.081   0.653   3.212
14713W        W81144  10.257  14.894  12.146
14714W        W81145   3.850   1.540   2.192
14715W        W81146  36.430  19.299  11.182
14716W        W81147  31.155  37.547   2.182
14717W        W81148  42.478  20.294   2.274
14718W        W81149   0.709  38.004   3.545
14719W        W81150  23.712  18.284  11.623
14720W        W81151  17.727  33.471  12.511
14721W        W81152  10.820   0.788   3.546
14722W        W81153  29.586  39.815   2.531
14723W        W81154  40.052  41.233   2.310
14724W        W81155  12.648  25.864   3.411
14725W        W81156   8.473  24.263  12.976
14726W        W81157  18.349  17.952  12.894
14727W        W81158  30.675  10.778   1.186
14728W        W81159   3.853   5.469   4.467
14729W        W81160  18.079  42.049   0.498
14730W        W81161  31.883  36.732  12.977
14731W        W81162  44.479  23.483  14.390
14732W        W81163  43.848  13.500   2.123
14733W        W81164  41.361  27.255  12.517
14734W        W81165   5.664  42.755  11.123
14735W        W81166  36.397  10.727   3.369
14736W        W81167   6.383  20.066  11.134
14737W        W81168  27.138  14.262   1.397
14738W        W81169  28.224   0.439   0.763
14739W        W81170   1.221   0.952  12.410
14740W        W81171  13.053  30.410   0.616
14741W        W81172   1.379  37.038   0.391
14742W        W81173   5.889  28.825  14.020
14743W        W81174  23.804  20.072   5.132
14744W        W81175  18.782  12.295  12.951
14745W        W81176  19.078   3.492  14.211
14746W        W81177  39.563  21.188  11.628
14747W        W81178  13.775  21.087  11.270
14748W        W81179  26.635   5.453  13.781
14749W        W81180  28.658  29.597  11.122
14750W        W81181  31.878  16.337   4.206
14751W        W81182  40.346  29.869  10.249
14752W        W81183  13.252   5.406   2.296
14753W        W81184  36.240  34.137   3.078
14754W        W81185  21.598  32.699  11.092
14755W        W81186  14.648   8.259  12.518
14756W        W81187  29.651  44.067   2.324
14757W        W81188  22.169  20.778   2.721
14758W        W81189  15.314   7.711   3.685
14759W        W81190  38.752  20.787   2.760
14760W        W81191   9.679  25.147  14.282
14761W        W81192  29.552  29.102   3.483
14762W        W81193  42.995  43.568   3.423
14763W        W81194  17.073  27.388  14.566
14764W        W81195  15.162  10.503  11.607
14765W        W81196  29.561   2.478  10.370
14766W        W81197  28.654  18.222   3.413
14767W        W81198  35.135  22.540   3.840
14768W        W81199  27.080  32.306   3.315
14769W        W81200  41.822   8.275  12.132
14770W        W81201   1.029   8.493   3.226
14771W        W81202  20.273   4.385  13.140
14772W        W81203  36.141  31.563  14.576
14773W        W81204  41.082  23.464   1.702
14774W        W81205  10.784   1.182   0.496
14775W        W81206  32.646  39.118  13.930
14776W        W81207   8.380  29.497  11.356
14777W        W81208  32.369  33.975   4.173
14778W        W81209  20.353  44.264   0.837
14779W        W81210  38.802   5.562   3.226
14780W        W81211   8.285  10.785  11.151
14781W        W81212  40.925  19.165   3.511
14782W        W81213  24.057   8.177  12.565
14783W        W81214  10.100   2.000  11.543
14784W        W81215  13.149  42.934  12.941
14785W        W81216  24.179  16.633   0.326
14786W        W81217  44.459  28.097   0.336
14787W        W81218  13.323   9.116   2.852
14788W        W81219  36.162  13.289   0.528
14789W        W81220   0.491  38.827  10.641
14790W        W81221   4.956   9.024  14.107
14791W        W81222   4.203  14.269  12.371
14792W        W81223  33.649  18.709  11.653
14793W        W81224  34.597   8.772   2.591
14794W        W81225   7.775  12.652   1.946
14795W        W81226  19.291  18.180   0.714
14796W        W81227  36.614  12.884  14.995
14797W        W81228   9.877   5.645   4.107
14798W        W81229   5.351   5.654   1.487
14799W        W81230  33.601  28.437   0.797
14800W        W81231   4.883  15.621  11.245
14801W        W81232  29.128  36.329   3.180
14802W        W81233   4.525  27.964   3.315
14803W        W81234   8.044  18.752   2.359
14804W        W81235   0.892  23.899  13.005
14805W        W81236  34.696  15.277  11.609
14806W        W81237  11.179  39.335  11.341
14807W        W81238  12.701  35.707  11.485
14808W        W81239   3.983  14.473  10.681
14809W        W81240  13.239   0.310  12.434
14810W        W81241   2.934  41.853  14.753
14811W        W81242  44.592  29.821  12.653
14812W        W81243  17.840  30.936   4.521
14813W        W81244   3.195  23.258  11.031
14814W        W81245  10.593  25.613   1.908
14815W        W81246  37.089  17.150   1.876
14816W        W81247  24.072  34.646  11.479
14817W        W81248  24.732  11.116  13.108
14818W        W81249  36.255  18.272  11.090
14819W        W81250  44.147  42.966  11.009
14820W        W81251  42.370  25.726  11.905
14821W        W81252   7.718  29.144   4.249
14822W        W81253  33.576  32.384  14.880
14823W        W81254  26.052  25.299  10.763
14824W        W81255  26.720  20.759   2.854
14825W        W81256  40.407   1.819   0.874
14826W        W81257  34.789  21.952  13.870
14827W        W81258  10.615   8.914  14.335
14828W        W81259   4.179  19.166   3.244
14829W        W81260  11.746  42.035  12.906
14830W        W81261  24.343  10.376   4.088
14831W        W81262   3.406  29.834  13.466
14832W        W81263   7.088  32.167  11.025
14833W        W81264  38.918  20.100   3.748
14834W        W81265  25.173  10.206   1.636
14835W        W81266   7.639   8.887   3.238
14836W        W81267   3.917   7.374  10.590
14837W        W81268  10.702   3.854  13.900
14838W        W81269  21.692  11.913  12.177
14839W        W81270  33.441  11.034  10.653
14840W        W81271   3.807  44.768  14.290
14841W        W81272  42.628  19.098  11.683
14842W        W81273  40.336  12.896   2.600
14843W        W81274  10.347  35.992  12.990
14844W        W81275  31.720   8.684   2.106
14845W        W81276  44.773   1.530   3.683
14846W        W81277  13.407  38.672   0.421
14847W        W81278   6.652  25.936   3.571
14848W        W81279  10.220  44.042  11.130
14849W        W81280  26.071  38.501  14.934
14850W        W81281  38.001   6.248  10.015
14851W        W81282  22.141  18.022  12.908
14852W        W81283   6.416  23.610  10.853
14853W        W81284   8.258  35.003   0.023
14854W        W81285  34.431  11.780   2.625
14855W        W81286  38.707  31.768   4.666
14856W        W81287  43.638  33.800  13.333
14857W        W81288  11.826  31.562   2.141
14858W        W81289  37.432   7.258  11.867
14859W        W81290   9.920  31.458  11.509
14860W        W81291  27.552  15.906   0.867
14861W        W81292  38.739  43.290  11.561
14862W        W81293  25.669  27.560  14.580
14863W        W81294   2.471   4.167  10.547
14864W        W81295  21.483  41.025  12.400
14865W        W81296  23.970   9.799  13.540
14866W        W81297  28.453   0.611   2.836
14867W        W81298   3.740  34.779   4.167
14868W        W81299  43.867  11.206   3.307
14869W        W81300  25.550  23.543   1.864
14870W        W81301  32.660  33.615  12.518
14871W        W81302  29.687   0.959   4.494
14872W        W81303   7.762  31.894   2.535
14873W        W81304   8.119  26.929  14.437
14874W        W81305  41.064  39.385   2.983
14875W        W81306  33.105  21.076   2.484
14876W        W81307  30.667  27.953  12.215
14877W        W81308   1.416  15.200   3.082
14878W        W81309  11.664  43.884   1.326
14879W        W81310  38.474  34.484   1.930
14880W        W81311  37.400  41.362   1.369
14881W        W81312  31.355  32.320   1.836
14882W        W81313  26.100  21.192   3.846
14883W        W81314  19.758  27.483  10.607
14884W        W81315  20.444  26.957   2.251
14885W        W81316   8.681  14.331   4.327
14886W        W81317  15.651  22.040   2.334
14887W        W81318  30.090   1.537  14.402
14888W        W81319   1.230   2.789  12.453
14889W        W81320   8.974  16.075  13.044
14890W        W81321  41.484   1.441   2.242
14891W        W81322  39.986  23.749   2.021
14892W        W81323  21.886  41.891  10.683
14893W        W81324  24.956  30.562   1.700
14894W        W81325   9.384  44.302   1.234
14895W        W81326  31.049  40.967  10.469
14896W        W81327  42.311  15.683  13.283
14897W        W81328  10.133  17.231  10.909
14898W        W81329  20.951  35.406   4.183
14899W        W81330  37.038  16.259   4.618
14900W        W81331   0.556  40.786  12.978
14901W        W81332   6.328  40.032   0.691
14902W        W81333  26.529  14.353   1.852
14903W        W81334  32.370  25.626   3.728
14904W        W81335   4.812  22.272   1.727
14905W        W81336   6.399  16.503   2.803
14906W        W81337  35.031   3.962   3.251
14907W        W81338   2.677  22.182  14.627
14908W        W81339  27.765  36.567   0.222
14909W        W81340   0.848  12.573   5.136
14910W        W81341   6.277   7.135  13.667
14911W        W81342   2.430  15.367  11.998
14912W        W81343  41.452  17.180  11.436
14913W        W81344  25.031  43.424  13.118
14914W        W81345  39.488   2.921  10.980
14915W        W81346  18.190  34.412  11.546
14916W        W81347  14.426  38.639   0.217
14917W        W81348  25.185  31.483  13.954
14918W        W81349  16.921  17.171   0.134
14919W        W81350  16.065   0.412   2.213
14920W        W81351  18.273  34.625   4.175
14921W        W81352  12.679  18.490   4.232
14922W        W81353  35.611  11.878   2.258
14923W        W81354  13.758  34.246   4.873
14924W        W81355  21.722  25.073   2.333
14925W        W81356  42.512  36.037   2.296
14926W        W81357  33.369  19.682  14.419
14927W        W81358   2.669  33.808  10.772
14928W        W81359   6.765   7.331  12.425
14929W        W81360   5.100   3.513   4.953
14930W        W81361  39.304  11.324   9.868
14931W        W81362   1.482  40.017  11.673
14932W        W81363   0.972  20.045   3.091
14933W        W81364  30.873  41.247  14.977
14934W        W81365  23.637  13.317   2.424
14935W        W81366   2.382   2.851  13.732
14936W        W81367  28.651  39.894   1.630
14937W        W81368   6.819  18.813  10.394
14938W        W81369   2.472  22.165   4.290
14939W        W81370   1.192   1.801   0.856
14940W        W81371  10.080  29.581   5.047
14941W        W81372  35.089  37.038   1.825
14942W        W81373  24.234  40.309  14.980
14943W        W81374  38.100  33.845  14.473
14944W        W81375  23.111  31.130  14.344
14945W        W81376  15.097  11.597   2.826
14946W        W81377   0.241  15.717  14.821
14947W        W81378  29.369  37.405  13.573
14948W        W81379   0.926  16.761   3.837
14949W        W81380  16.100  29.270  13.428
14950W        W81381  10.193  24.856  10.372
14951W        W81382  41.808  42.802   0.980
14952W        W81383   4.734  17.049   2.787
14953W        W81384  23.273  21.012  14.773
14954W        W81385   5.204  28.213  12.464
14955W        W81386  15.298  36.782  12.610
14956W        W81387  20.025   0.698  14.337
14957W        W81388  23.385  11.375  12.094
14958W        W81389  11.337  40.990   2.826
14959W        W81390  26.598   5.164  10.287
14960W        W81391   9.855  38.990  13.310
14961W        W81392  33.539   4.897   0.780
14962W        W81393  41.194  11.743  11.976
14963W        W81394   2.693  40.580  11.181
14964W        W81395  28.648   4.479  11.965
14965W        W81396   1.273   1.284   2.690
14966W        W81397   2.642   0.285   4.838
14967W        W81398  37.965  32.919   3.271
14968W        W81399  40.329  31.732  10.739
14969W        W81400  39.247  21.618   4.427
14970W        W81401  44.817   9.729   3.192
14971W        W81402   5.727  38.605  14.404
14972W        W81403   0.131  13.513  14.907
14973W        W81404  16.592  10.827   4.067
14974W        W81405  20.661  22.724   0.896
14975W        W81406  20.415  25.261  10.309
14976W        W81407   4.110  40.329  14.548
14977W        W81408  29.880  37.438  13.651
14978W        W81409  39.913  20.225  11.989
14979W        W81410  34.459  10.748   2.717
14980W        W81411  17.709  38.091  12.295
14981W        W81412  37.954  35.092   4.872
14982W        W81413  42.296   3.762  13.450
14983W        W81414  24.892  43.286   3.740
14984W        W81415  22.785  31.126   3.759
14985W        W81416  36.857  13.337   4.230
14986W        W81417   8.259   3.684   3.590
14987W        W81418  40.349   9.769   2.103
14988W        W81419  35.263  21.678  13.869
14989W        W81420  13.852   4.153   2.569
14990W        W81421  16.703  13.300  12.915
14991W        W81422   5.572   5.191  13.744
14992W        W81423  32.661  33.898   0.503
14993W        W81424  24.620   6.176  13.014
14994W        W81425   8.026  12.330   0.269
14995W        W81426  44.984  25.867  13.522
14996W        W81427  39.759  10.249   3.504
14997W        W81428  26.821  13.686   0.301
14998W        W81429  15.173  38.353  12.962
14999W        W81430  35.022  44.482  12.138
15000W        W81431   9.208  17.948   3.469
15001W        W81432  25.673   7.558   5.051
15002W        W81433  36.205  32.792   2.896
15003W        W81434  23.772  12.398   4.549
15004W        W81435  27.445  16.221  14.995
15005W        W81436  43.289  35.467  12.022
15006W        W81437  10.746  27.649   3.880
15007W        W81438  20.027   0.379   2.767
15008W        W81439   8.596   0.892  13.983
15009W        W81440   5.886  12.153   3.166
15010W        W81441  26.064  28.172   4.923
15011W        W81442  37.815  38.408   1.347
15012W        W81443   3.488  10.902   2.420
15013W        W81444  22.616  27.963  14.097
15014W        W81445  28.371   5.414  11.930
15015W        W81446  23.002  14.587  14.787
15016W        W81447   1.929  31.394   3.711
15017W        W81448  30.669  39.974   2.683
15018W        W81449  15.467   5.081   3.192
15019W        W81450   0.561  31.916   3.620
15020W        W81451  27.644  22.648   1.791
15021W        W81452  15.839   8.663   5.275
15022W        W81453   7.784   9.317   2.940
15023W        W81454  38.588  17.215  12.473
15024W        W81455   0.771  24.762   1.350
15025W        W81456  14.266  29.756  11.612
15026W        W81457  42.220   9.864   3.250
15027W        W81458   9.110   1.902  11.529
15028W        W81459  39.370  27.985   1.781
15029W        W81460   2.248   6.896  12.914
15030W        W81461   6.962  36.435   4.445
15031W        W81462  12.250  30.639  10.650
15032W        W81463  21.077  34.331   2.390
15033W        W81464  27.535  18.256   5.206
15034W        W81465  42.368  30.487   2.399
15035W        W81466  39.230  40.194   2.996
15036W        W81467  24.553  33.970   1.321
15037W        W81468  32.566  37.563  14.400
15038W        W81469  24.008  32.451  11.012
15039W        W81470  41.402  26.643  13.905
15040W        W81471  25.695  13.698   2.954
15041W        W81472   7.278  39.360  11.837
15042W        W81473   5.735  39.161  14.252
15043W        W81474  22.162  29.465  11.655
15044W        W81475  42.345   1.334   3.417
15045W        W81476   0.459  32.709   4.502
15046W        W81477  21.230  19.103   3.927
15047W        W81478   1.552   2.545   1.804
15048W        W81479  16.417   5.738   2.725
15049W        W81480  11.193   3.662  12.096
15050W        W81481  22.491  19.298   0.356
15051W        W81482  16.319  27.297  11.171
15052W        W81483   4.407  11.739   1.681
15053W        W81484  14.297   1.210   3.580
15054W        W81485  26.170  28.921   0.923
15055W        W81486   9.885  28.961   4.799
15056W        W81487  20.991  33.113  14.443
15057W        W81488  44.479  23.083   2.456
15058W        W81489   0.238  12.020   1.853
15059W        W81490   5.212  16.292  11.984
15060W        W81491  38.901  31.771   3.813
15061W        W81492  18.028  29.857   0.848
15062W        W81493  36.292  13.845   0.063
15063W        W81494  22.691   8.206  12.458
15064W        W81495  31.288  41.100  11.242
15065W        W81496  19.677  44.283   4.564
15066W        W81497  43.490  27.684   3.349
15067W        W81498  38.746  17.172   2.418
15068W        W81499  34.543   3.845   4.877
15069W        W81500  28.566   3.413   0.581
15070W        W81501  25.678  36.546   4.413
15071W        W81502   2.775  17.625  10.774
15072W        W81503  40.247  32.803  14.551
15073W        W81504  34.019   9.381  13.405
15074W        W81505  44.392  17.512  11.478
15075W        W81506  39.556  10.387   1.250
15076W        W81507  36.132   2.008  13.781
15077W        W81508  35.293   3.325   3.611
15078W        W81509  14.795   8.190   0.613
15079W        W81510  33.429   0.427  10.732
15080W        W81511  35.557  10.166  12.975
15081W        W81512  14.288  34.481  14.310
15082W        W81513   9.748  28.925  10.891
15083W        W81514  16.156   9.645  10.389
15084W        W81515  17.312  42.894  11.443
15085W        W81516  33.002  10.664  13.985
15086W        W81517   4.601  29.427   1.381
15087W        W81518  15.843  10.724   3.339
15088W        W81519  35.008   7.814  14.915
15089W        W81520  44.187  37.213  12.050
15090W        W81521  16.204  16.967  14.357
15091W        W81522  40.612  41.037  13.308
15092W        W81523  21.471  35.386   0.987
15093W        W81524  16.359   9.851   2.235
15094W        W81525  31.397  14.712  14.107
15095W        W81526  13.782  11.814   4.753
15096W        W81527  17.697   3.942   2.940
15097W        W81528  37.802   0.899   0.319
15098W        W81529  18.183  10.127  11.473
15099W        W81530  34.479  40.110   3.817
15100W        W81531   2.697  41.072  11.018
15101W        W81532  21.672  13.666  14.411
15102W        W81533  28.199   0.526   1.659
15103W        W81534  34.160  12.125  12.988
15104W        W81535  18.062  20.737  12.489
15105W        W81536   2.357  39.073  11.491
15106W        W81537  14.608   4.821  12.966
15107W        W81538  33.054  17.042  11.380
15108W        W81539  14.278  40.530   1.052
15109W        W81540   5.292  30.026   0.885
15110W        W81541   2.825  35.579  14.517
15111W        W81542  43.479  21.519  12.782
15112W        W81543  32.026  38.388  11.173
15113W        W81544  27.136  15.439  12.663
15114W        W81545   2.678  36.455  11.600
15115W        W81546  13.837   4.497  12.719
15116W        W81547  24.223  39.061   1.164
15117W        W81548  28.068   8.158  11.549
15118W        W81549  44.382  42.197  12.331
15119W        W81550   0.339  23.039   0.259
15120W        W81551  35.417  31.351  13.864
15121W        W81552   2.361  21.610   2.695
15122W        W81553   4.465   7.550   1.912
15123W        W81554   9.247  43.301   3.730
15124W        W81555   7.033  35.021  11.981
15125W        W81556  15.824   0.573   4.607
15126W        W81557  33.550  13.290   1.424
15127W        W81558  25.107   6.821   1.094
15128W        W81559  41.046  19.780  10.720
15129W        W81560  33.590  24.826   9.910
15130W        W81561   8.762  42.354   2.326
15131W        W81562   1.397  22.656  12.724
15132W        W81563  31.268   5.418  11.156
15133W        W81564  10.779  15.315  11.610
15134W        W81565  25.061  22.591  13.338
15135W        W81566   4.331  29.366  13.321
15136W        W81567   9.579  23.069   1.859
15137W        W81568  23.386  25.054  10.870
15138W        W81569  28.411   5.669   1.752
15139W        W81570   2.954  40.000  13.259
15140W        W81571   4.421  22.958  14.820
15141W        W81572  19.469  20.083   2.143
15142W        W81573  31.908  39.482  12.270
15143W        W81574  28.189  32.127   3.629
15144W        W81575   9.802  31.131  14.640
15145W        W81576   0.925   9.750   3.819
15146W        W81577  20.223  31.945  10.702
15147W        W81578   5.969  22.248   1.230
15148W        W81579  25.051  38.265   4.210
15149W        W81580  42.507  34.938   0.649
15150W        W81581  22.062   1.001  10.536
15151W        W81582  12.623  32.369   4.081
15152W        W81583  26.393  10.840  13.922
15153W        W81584  19.260  32.173  11.980
15154W        W81585  20.236  32.391   2.935
15155W        W81586  35.064   7.734   2.780
15156W        W81587   0.996  28.197  13.859
15157W        W81588  44.060   1.466   0.182
15158W        W81589  15.420   8.465   4.093
15159W        W81590  19.563  33.395   1.910
15160W        W81591   9.441  34.396   4.544
15161W        W81592  37.864  15.422   0.693
15162W        W81593  12.928  17.090  14.711
15163W        W81594  36.332  17.517   0.963
15164W        W81595  11.231   0.376  14.300
15165W        W81596   6.597   2.536   2.031
15166W        W81597  25.256  32.131   2.607
15167W        W81598  16.738   5.638   0.753
15168W        W81599  35.065   6.378   0.906
15169W        W81600   9.080   4.467   0.733
15170W        W81601   0.644  22.054   3.703
15171W        W81602   6.639  16.504  11.421
15172W        W81603  28.342   8.217   0.719
15173W        W81604   2.923   1.169  11.107
15174W        W81605  31.556   6.216   1.281
15175W        W81606  26.927   7.732   2.068
15176W        W81607  30.052  22.812  12.943
15177W        W81608   0.189  22.397  11.236
15178W        W81609  20.288  21.477   9.610
15179W        W81610  43.623   3.152   1.936
15180W        W81611  35.978  41.292  14.583
15181W        W81612  32.046   7.132  12.021
15182W        W81613   5.546  27.530  12.092
15183W        W81614  39.195   0.840  12.643
15184W        W81615  27.419  26.254   3.784
15185W        W81616  16.123   2.377  13.425
15186W        W81617  11.657  34.868   3.058
15187W        W81618  40.769  34.520   1.427
15188W        W81619  44.238  13.885  13.491
15189W        W81620  13.814  22.461  12.592
15190W        W81621  41.128  29.450  10.920
15191W        W81622  35.404   0.037  13.089
15192W        W81623  17.314  14.391   4.032
15193W        W81624  34.921  30.985  11.721
15194W        W81625   2.398  42.973  10.439
15195W        W81626  15.711  33.838  10.999
15196W        W81627  10.957  16.710  13.356
15197W        W81628   6.148  17.819  13.775
15198W        W81629  32.967  34.406  11.115
15199W        W81630  40.347   3.681  13.393
15200W        W81631  11.131  33.006  12.921
15201W        W81632  24.424   4.454  11.696
15202W        W81633  14.278   3.022  13.167
15203W        W81634  37.289  12.270  13.011
15204W        W81635  28.532  35.235   1.956
15205W        W81636  38.698  31.908  12.443
15206W        W81637  26.651  28.768   1.759
15207W        W81638   3.901   9.660  13.368
15208W        W81639  31.607   5.838   3.752
15209W        W81640   7.372  28.657  12.429
15210W        W81641   2.407  35.789  12.455
15211W        W81642  18.285  37.693   1.293
15212W        W81643  35.343   7.887   4.126
15213W        W81644  21.504  25.430  11.765
15214W        W81645  14.915  24.082  11.170
15215W        W81646  31.105   7.761  12.090
15216W        W81647   0.433  31.422   1.036
15217W        W81648  39.416   7.728  11.632
15218W        W81649  13.346  19.666  10.881
15219W        W81650  19.015  36.061   0.326
15220W        W81651  26.149  19.743  14.465
15221W        W81652  12.829   6.830  10.720
15222W        W81653   8.816  18.978  11.033
15223W        W81654  34.335  17.943   3.420
15224W        W81655  33.604  42.702   2.773
15225W        W81656  11.318   9.837  14.574
15226W        W81657  14.585  34.020  13.532
15227W        W81658   3.283  12.693   4.549
15228W        W81659  39.858  44.755  12.169
15229W        W81660   2.448  31.640  13.472
15230W        W81661  14.648  13.757  14.092
15231W        W81662  36.042  18.942  11.170
15232W        W81663  31.582  20.783  13.481
15233W        W81664  25.934  40.300  14.103
15234W        W81665   8.697  32.104   2.267
15235W        W81666  39.202   3.219  12.472
15236W        W81667  38.088   7.864  12.952
15237W        W81668  42.964  24.552  12.036
15238W        W81669  18.177  13.919   3.516
15239W        W81670  32.782  21.487  14.533
15240W        W81671  32.926   3.518   3.625
15241W        W81672   7.961  44.464  14.929
15242W        W81673  21.070  26.089   4.594
15243W        W81674  11.299  24.004  10.022
15244W        W81675  16.007  36.926   4.689
15245W        W81676  29.159  21.192   3.043
15246W        W81677  26.972  20.817  12.970
15247W        W81678  40.051   3.892   0.035
15248W        W81679  10.212  23.478  10.431
15249W        W81680  21.111  27.632  11.948
15250W        W81681  14.570  17.191   0.348
15251W        W81682  35.002   8.673  14.444
15252W        W81683  42.087   4.343  11.628
15253W        W81684  11.788  13.332   2.709
15254W        W81685  24.755  32.822   2.063
15255W        W81686  35.528  37.897   0.639
15256W        W81687   4.324  10.165  14.348
15257W        W81688  16.745  41.414  10.911
15258W        W81689  43.413   5.421   1.769
15259W        W81690  13.351  24.436  13.466
15260W        W81691  14.193  16.045   4.500
15261W        W81692  31.363   9.709  12.991
15262W        W81693  41.454  33.423   0.441
15263W        W81694  23.678   1.397   3.027
15264W        W81695  19.776  21.725  14.524
15265W        W81696  30.157  38.504   0.739
15266W        W81697  12.110   0.252  12.884
15267W        W81698  13.130  38.671  14.410
15268W        W81699  29.509  41.420   3.943
15269W        W81700  44.916  25.291  11.044
15270W        W81701  18.883  43.745   2.520
15271W        W81702  44.489   4.242   4.654
15272W        W81703   7.647  42.735   1.330
15273W        W81704  15.656  17.044  13.593
15274W        W81705  14.602  27.503  11.738
15275W        W81706   0.527  10.255  11.148
15276W        W81707  36.884   5.627  13.928
15277W        W81708  11.629  15.010   3.677
15278W        W81709  41.380  13.047  11.009
15279W        W81710   7.288  37.612   1.693
15280W        W81711  15.727  40.267   1.286
15281W        W81712  29.439  13.885  14.742
15282W        W81713  25.281  33.875   1.703
15283W        W81714  28.547  31.373   1.662
15284W        W81715  31.893  37.752   1.603
15285W        W81716  24.616   0.418   4.553
15286W        W81717  24.131  22.999   2.979
15287W        W81718  18.176   8.532  11.996
15288W        W81719  40.934   4.155   4.852
15289W        W81720  12.193  14.860  10.723
15290W        W81721  38.825  35.269  11.658
15291W        W81722  41.386  41.731  10.538
15292W        W81723  10.665  13.772   0.483
15293W        W81724  41.947  17.136  14.272
15294W        W81725  14.882  37.080  11.149
15295W        W81726  19.094   2.310   4.124
15296W        W81727  29.449  26.279   1.366
15297W        W81728  27.812   2.250  14.463
15298W        W81729   2.112  29.129   4.051
15299W        W81730  15.648  26.924  11.156
15300W        W81731  37.505  41.228  14.086
15301W        W81732  18.051  40.396   3.616
15302W        W81733   9.669  39.830   3.701
15303W        W81734  22.265  27.211   0.499
15304W        W81735  35.099  11.719  14.890
15305W        W81736  28.245   7.445  13.250
15306W        W81737  22.360  13.812  12.131
15307W        W81738  10.184  36.922   2.662
15308W        W81739  43.031   5.232  11.621
15309W        W81740  10.376  12.742  10.545
15310W        W81741  17.706   9.055  11.199
15311W        W81742  14.680  14.178  11.398
15312W        W81743  27.595  29.444   2.391
15313W        W81744  19.594  11.669   4.939
15314W        W81745   3.273  21.651   4.130
15315W        W81746  25.360  42.406   1.740
15316W        W81747   1.727  23.229  11.137
15317W        W81748  26.071  33.529   0.972
15318W        W81749  38.340  22.988   3.208
15319W        W81750  42.728   3.802  13.140
15320W        W81751  34.700   4.929   1.423
15321W        W81752   5.829  28.100  11.115
15322W        W81753  33.084  17.139  13.775
15323W        W81754  26.627   3.467  13.458
15324W        W81755   0.740  38.057   9.962
15325W        W81756   5.429  16.350  13.301
15326W        W81757  23.361  34.163   2.059
15327W        W81758  18.697   3.490   0.077
15328W        W81759  35.079  26.983  12.972
15329W        W81760  16.959  26.960  14.267
15330W        W81761  40.888  14.378  13.430
15331W        W81762  13.858   5.795  14.937
15332W        W81763   6.588   9.991   3.315
15333W        W81764  28.494  34.159  14.812
15334W        W81765   0.088  38.648  13.800
15335W        W81766  32.002  29.452  12.618
15336W        W81767  35.139  40.499   3.697
15337W        W81768  22.640  10.757  12.357
15338W        W81769  36.063  41.532   3.690
15339W        W81770  22.208  15.704   3.724
15340W        W81771  34.065  34.109   3.894
15341W        W81772  33.607   6.395   4.008
15342W        W81773  23.742  12.290   0.490
15343W        W81774  41.607  27.388  11.629
15344W        W81775  19.619  22.702  13.489
15345W        W81776   9.817  16.289  13.272
15346W        W81777   5.400   8.214   4.168
15347W        W81778  20.532  32.458   1.831
15348W        W81779  11.686  32.548   0.724
15349W        W81780  34.013  22.739   4.355
15350W        W81781   7.212  33.578  14.393
15351W        W81782  20.734  39.893  14.322
15352W        W81783  44.375  43.521  13.055
15353W        W81784  25.600  14.794  13.369
15354W        W81785  10.242  20.798  13.460
15355W        W81786   7.115  12.082   0.883
15356W        W81787  40.945  42.250   3.864
15357W        W81788  17.008  23.189  14.356
15358W        W81789  39.162  35.654  13.889
15359W        W81790  33.385   0.271   0.041
15360W        W81791  11.173  40.948   0.920
15361W        W81792   4.960  21.197   1.808
15362W        W81793  33.458   9.774   4.583
15363W        W81794   4.309   9.732   2.156
15364W        W81795  41.536  29.441   4.530
15365W        W81796  10.432  30.490   4.245
15366W        W81797  32.259  18.687  11.869
15367W        W81798  17.052  27.515   1.840
15368W        W81799  30.182   8.352   1.279
15369W        W81800   1.256  28.473  14.369
15370W        W81801  42.792   3.079  12.431
15371W        W81802  16.232   6.186   3.699
15372W        W81803  33.165  41.239   2.692
15373W        W81804  38.949  26.790  11.852
15374W        W81805  23.965  29.979   0.950
15375W        W81806  39.082  27.869   3.959
15376W        W81807   6.853   0.781   3.940
15377W        W81808  20.029  26.259  11.227
15378W        W81809  37.306   2.363   2.254
15379W        W81810  13.425  13.577  13.463
15380W        W81811  15.234  37.360   3.154
15381W        W81812  30.864  17.909   3.350
15382W        W81813  22.308  30.493  12.575
15383W        W81814  24.440   1.834   1.262
15384W        W81815  14.750  41.960   4.094
15385W        W81816  40.608  37.995   4.108
15386W        W81817  20.943  44.005   0.658
15387W        W81818  12.123  22.491   2.647
15388W        W81819  16.980  18.545  11.934
15389W        W81820  32.540  12.179  10.865
15390W        W81821  12.713  14.182   1.408
15391W        W81822  31.872  30.180  10.938
15392W        W81823  41.538  39.124  11.606
15393W        W81824  43.103  42.735  14.341
15394W        W81825  11.666  42.422  13.748
15395W        W81826  44.657  21.019  12.001
15396W        W81827  28.919  21.261  12.066
15397W        W81828  14.851   8.447  12.060
15398W        W81829   1.006   8.316  11.722
15399W        W81830  16.656  16.582   0.133
15400W        W81831  28.348  37.368   1.846
15401W        W81832  29.054  14.564   3.710
15402W        W81833  32.454  29.591  11.925
15403W        W81834  30.683  14.671   0.843
15404W        W81835  27.066  10.365   4.732
15405W        W81836  13.148  26.121   1.198
15406W        W81837  15.425  15.759  11.512
15407W        W81838  40.492   4.162  13.345
15408W        W81839  27.061  39.032   0.726
15409W        W81840  26.450   2.388   1.774
15410W        W81841  27.276   2.508  12.701
15411W        W81842  12.397  44.278  12.852
15412W        W81843  13.163   0.784  10.625
15413W        W81844  23.012  41.386   3.674
15414W        W81845  11.175   1.819   3.402
15415W        W81846  35.833  37.830   3.876
15416W        W81847  29.879  24.763  14.332
15417W        W81848   7.727   2.803  14.276
15418W        W81849  21.489  34.618  10.601
15419W        W81850   7.964   5.909   0.847
15420W        W81851  27.049  43.801   1.352
15421W        W81852   9.849   5.907   3.251
15422W        W81853  34.850  29.018   1.477
15423W        W81854  20.792  30.864  12.111
15424W        W81855   7.433  14.971  10.214
15425W        W81856  26.002  18.806   3.248
15426W        W81857  25.620  30.138   3.239
15427W        W81858  29.166  33.087   3.877
15428W        W81859  13.918   8.381   4.406
15429W        W81860  16.700   7.296  12.525
15430W        W81861  10.349  24.870  11.229
15431W        W81862  38.354  21.903  12.012
15432W        W81863  36.059  33.350  12.325
15433W        W81864  25.525  32.231   4.694
15434W        W81865  44.286   0.822  12.818
15435W        W81866  33.675  27.991   1.265
15436W        W81867  19.666  40.528  10.936
15437W        W81868  19.230  41.837  12.135
15438W        W81869  19.117  39.431  14.461
15439W        W81870   3.397  29.614  11.576
15440W        W81871  31.579  24.266   3.371
15441W        W81872  41.981  21.774  11.475
15442W        W81873  18.773   6.970   3.363
15443W        W81874  18.482   3.017   0.828
15444W        W81875   7.911   1.924  11.225
15445W        W81876  33.966  36.814  13.737
15446W        W81877   5.124  23.505   4.487
15447W        W81878  15.287  39.246   1.000
15448W        W81879  41.856  41.014  11.586
15449W        W81880  15.661  28.639   4.177
15450W        W81881  38.833  15.754   2.392
15451W        W81882  25.302  31.044  12.449
15452W        W81883  21.776  10.120  14.287
15453W        W81884  33.360  32.067   1.645
15454W        W81885  32.509  18.239  12.103
15455W        W81886  24.797  12.519  12.032
15456W        W81887  19.813   5.023   3.501
15457W        W81888  43.981   2.380  14.686
15458W        W81889  11.828   6.443   2.887
15459W        W81890   0.370   0.900   4.629
15460W        W81891  20.618  28.744  13.561
15461W        W81892   4.133  33.955   1.008
15462W        W81893  29.838  43.695   2.799
15463W        W81894  14.753  38.217   0.517
15464W        W81895  33.916  22.752  14.039
15465W        W81896  39.865  42.956  10.713
15466W        W81897  38.393  22.448   2.158
15467W        W81898   5.737   0.702  10.682
15468W        W81899  31.502  40.346   3.741
15469W        W81900  16.536   8.538   2.772
15470W        W81901  27.391  37.542   0.876
15471W        W81902  15.859  11.347   4.134
15472W        W81903  24.174  21.573  12.847
15473W        W81904  20.151  37.673  12.369
15474W        W81905  32.629  17.302  11.637
15475W        W81906  27.041   5.934  14.829
15476W        W81907  29.879  11.242  14.494
15477W        W81908  25.574  19.782   2.341
15478W        W81909  18.054  19.126   3.578
15479W        W81910  26.409  42.340   1.908
15480W        W81911  44.528  20.804   1.894
15481W        W81912  16.415   6.519   1.657
15482W        W81913   2.872  26.521   1.924
15483W        W81914  30.073  14.305   2.290
15484W        W81915   0.416  37.731  10.236
15485W        W81916  16.572   9.359   1.051
15486W        W81917  17.085  26.040  13.535
15487W        W81918  10.731  25.352   4.709
15488W        W81919  36.580  42.932   2.154
15489W        W81920   3.471   3.384  14.393
15490W        W81921  30.184   9.615   4.578
15491W        W81922  25.781   7.706  13.982
15492W        W81923  21.063  35.852  11.254
15493W        W81924  33.815  12.302  14.224
15494W        W81925   3.934  20.476   2.706
15495W        W81926   5.106  43.063   0.492
15496W        W81927   3.998  30.001  14.384
15497W        W81928  26.004  36.274  10.487
15498W        W81929  13.633  35.690  11.491
15499W        W81930  22.384  16.844   2.294
15500W        W81931  41.569   0.457   2.417
15501W        W81932  37.571   4.803   3.784
15502W        W81933   0.270  15.615  11.989
15503W        W81934  38.732  38.270  13.113
15504W        W81935  17.664  15.572  10.713
15505W        W81936  15.901  35.562  13.727
15506W        W81937  15.153   4.804  12.632
15507W        W81938  42.763   8.822  11.446
15508W        W81939  28.523  15.852  14.517
15509W        W81940  27.092  41.943   4.686
15510W        W81941   4.699   3.493   3.496
15511W        W81942   0.439  29.624  12.865
15512W        W81943  37.035  24.582   3.145
15513W        W81944  14.552  42.068   5.180
15514W        W81945  22.177  21.566   1.229
15515W        W81946  34.012  25.479  13.545
15516W        W81947  20.106  38.631   0.940
15517W        W81948   1.726   4.919   0.163
15518W        W81949  22.215   0.710   1.004
15519W        W81950  30.441  26.593   0.455
15520W        W81951  21.034  14.667   1.644
15521W        W81952   0.484   0.398   1.908
15522W        W81953  43.241  33.912   1.972
15523W        W81954  26.178  36.287   3.647
15524W        W81955  24.542  37.572  13.864
15525W        W81956  37.880   6.551   2.301
15526W        W81957  41.069  15.552   3.629
15527W        W81958  30.168  44.692  12.441
15528W        W81959  23.837   5.632   3.361
15529W        W81960  11.293  27.648   2.136
15530W        W81961  44.396  13.725   0.454
15531W        W81962  34.682  26.497   1.622
15532W        W81963  38.835  34.000  14.487
15533W        W81964  24.775  10.705   1.757
15534W        W81965   9.463  12.357   1.886
15535W        W81966  10.220  13.143  10.156
15536W        W81967  38.308  22.084   0.020
15537W        W81968   9.358   2.678  12.657
15538W        W81969  17.805  41.827  10.780
15539W        W81970   1.407  37.381  13.605
15540W        W81971  29.155  40.163   1.736
15541W        W81972   3.909  19.580   4.545
15542W        W81973  13.544  40.176   4.839
15543W        W81974  30.640  10.730  10.863
15544W        W81975  40.143   8.218   2.932
15545W        W81976   1.445  41.493   1.588
15546W        W81977   9.667  43.295  12.110
15547W        W81978  12.149  21.931  11.466
15548W        W81979  16.075  24.844  14.908
15549W        W81980  37.589  34.212   2.306
15550W        W81981  37.608  21.445  12.972
15551W        W81982  30.971   5.643   0.286
15552W        W81983  15.214  21.175   0.485
15553W        W81984  24.512   3.238  10.634
15554W        W81985  44.525   4.719  12.494
15555W        W81986  40.587   8.718   0.892
15556W        W81987  30.953   3.026  13.749
15557W        W81988  23.941  27.915  11.256
15558W        W81989  44.246  20.729  14.097
15559W        W81990  14.804   5.292  10.690
15560W        W81991  37.502  12.917   2.365
15561W        W81992   6.334  17.899  10.350
15562W        W81993  15.596  15.193   5.497
15563W        W81994  42.713  40.864  13.275
15564W        W81995  13.607  25.551  13.342
15565W        W81996  18.800  28.930  13.436
15566W        W81997   9.697  18.838  10.318
15567W        W81998  28.727  40.528  11.078
15568W        W81999  35.598  40.471  12.847
15569W        W82000  26.893  43.714   0.173
15570W        W82001  31.655   0.231   1.631
15571W        W82002   3.698  24.135   0.206
15572W        W82003   2.732  32.786  11.894
15573W        W82004  17.265  14.291  11.182
15574W        W82005   2.315  34.475   4.157
15575W        W82006  19.178  14.158  12.869
15576W        W82007  16.076  31.071  11.727
15577W        W82008  34.547  28.886  12.440
15578W        W82009  24.890   4.199  11.249
15579W        W82010   1.709  25.662  11.140
15580W        W82011  14.857  13.224  10.236
15581W        W82012  24.828  40.901  14.803
15582W        W82013  36.535  16.474  11.186
15583W        W82014   6.437  38.449  14.505
15584W        W82015  14.135  41.467   0.512
15585W        W82016  35.507  19.716  14.829
15586W        W82017   2.334  16.782  10.828
15587W        W82018  28.197  40.893   3.855
15588W        W82019  33.511  37.600   1.550
15589W        W82020  41.387  27.997   0.021
15590W        W82021  35.877  11.159  10.555
15591W        W82022   1.605  22.447   3.688
15592W        W82023  24.227   2.866   4.516
15593W        W82024  34.002  23.747  12.696
15594W        W82025  20.289  21.733  12.999
15595W        W82026  16.788  11.586  13.582
15596W        W82027  38.129  34.078  11.196
15597W        W82028  31.570  41.563   3.772
15598W        W82029  25.590  28.535   2.914
15599W        W82030  20.684  36.390   9.845
15600W        W82031  21.218   5.406   1.656
15601W        W82032  11.997   2.842  13.265
15602W        W82033  14.579  25.688   3.168
15603W        W82034   7.819  35.115   0.812
15604W        W82035  19.519  23.001   4.273
15605W        W82036   0.922  25.434  14.944
15606W        W82037   3.515   0.886   0.330
15607W        W82038   5.974   5.738   4.495
15608W        W82039  30.072  13.528  12.197
15609W        W82040  26.694  11.407  12.060
15610W        W82041   2.579  41.934  10.603
15611W        W82042  39.435   7.851  12.155
15612W        W82043  22.681  27.975  10.359
15613W        W82044  34.055   2.819  14.609
15614W        W82045   2.325  19.317  14.920
15615W        W82046  36.473   2.328  13.217
15616W        W82047  44.311  43.896  11.460
15617W        W82048  43.430  22.486   1.709
15618W        W82049  33.768  34.086   1.159
15619W        W82050  11.413  26.891  12.048
15620W        W82051  32.853   4.068   2.919
15621W        W82052  13.216   3.370  14.095
15622W        W82053  30.067  28.673   2.116
15623W        W82054  17.137  33.500   1.941
15624W        W82055  27.590  19.208  14.696
15625W        W82056  39.002  36.035   3.612
15626W        W82057   8.305   7.149  12.485
15627W        W82058  28.991   1.205  11.142
15628W        W82059  12.844  35.955   3.708
15629W        W82060  37.469  31.943  12.926
15630W        W82061  39.474  24.791  14.383
15631W        W82062  15.819  28.792   2.569
15632W        W82063  40.958  13.457   3.756
15633W        W82064  28.728  21.156  10.708
15634W        W82065   2.321  43.905  12.789
15635W        W82066  25.939  19.304   3.100
15636W        W82067  41.878   2.702   3.370
15637W        W82068  42.965  42.264  13.366
15638W        W82069  13.154  21.980  10.589
15639W        W82070  42.388   8.777  12.370
15640W        W82071   4.664  29.609   3.732
15641W        W82072   9.146  24.277   0.877
15642W        W82073   2.670  41.396  13.563
15643W        W82074  19.315   1.247   0.363
15644W        W82075  35.576  12.229  13.826
15645W        W82076  18.271  11.520  11.452
15646W        W82077  15.512  25.638  13.096
15647W        W82078  11.851  20.799   2.300
15648W        W82079  16.206  29.136  11.539
15649W        W82080   0.821  43.697   0.765
15650W        W82081   1.712  12.769   2.577
15651W        W82082  35.941  19.143   2.233
15652W        W82083  35.523  27.146   3.946
15653W        W82084  12.709   2.414   1.978
15654W        W82085   7.319  23.638  11.844
15655W        W82086  18.280  30.556  10.868
15656W        W82087   3.300   6.801   1.740
15657W        W82088  20.844  40.092   0.396
15658W        W82089  21.281  41.449   1.467
15659W        W82090  21.135  39.243   0.744
15660W        W82091  18.350  11.705   4.429
15661W        W82092  33.094   9.351   0.015
15662W        W82093  23.308   7.658  10.802
15663W        W82094  12.133  15.831   2.437
15664W        W82095   0.918  20.042  13.087
15665W        W82096  16.492  44.482  11.928
15666W        W82097  32.471  16.657   4.074
15667W        W82098  17.515  27.483  13.761
15668W        W82099  23.718  11.305   2.184
15669W        W82100  38.343  37.609   1.841
15670W        W82101   8.082  15.214  14.363
15671W        W82102  24.264  18.540  13.298
15672W        W82103   9.303  34.922  14.483
15673W        W82104   0.324  15.223  13.439
15674W        W82105  37.418  42.934   3.341
15675W        W82106  41.483  28.346   4.427
15676W        W82107   1.712  31.680  10.570
15677W        W82108  20.545  16.191  14.833
15678W        W82109  15.643   7.089   1.609
15679W        W82110  33.582  15.409   2.823
15680W        W82111  36.576  40.890   0.268
15681W        W82112  43.389  36.136  12.115
15682W        W82113  31.414  13.219   0.921
15683W        W82114  15.343  37.401   2.323
15684W        W82115   3.510  38.399   3.717
15685W        W82116  10.888  14.407  14.068
15686W        W82117  26.226  22.050   3.197
15687W        W82118  33.839  29.027  13.503
15688W        W82119   6.221   5.054   3.908
15689W        W82120  24.020  29.503   2.563
15690W        W82121   2.194  13.181  11.692
15691W        W82122  21.669  19.297  14.072
15692W        W82123  35.609  13.338  13.806
15693W        W82124  12.624   4.794  14.302
15694W        W82125  34.715  31.830  10.605
15695W        W82126  12.906  10.842   0.393
15696W        W82127  36.453  14.713   0.906
15697W        W82128  12.129  21.347   4.525
15698W        W82129  30.585  15.124  13.930
15699W        W82130  24.404  41.476  11.556
15700W        W82131  44.522  43.370   4.772
15701W        W82132  13.772  23.456  14.196
15702W        W82133   2.294   7.666   3.642
15703W        W82134  27.054   9.271   9.761
15704W        W82135  11.559  18.705   4.153
15705W        W82136  26.891  28.544   2.363
15706W        W82137  28.224  15.505   1.870
15707W        W82138  17.299   4.294   1.783
15708W        W82139  23.764   5.937   1.411
15709W        W82140  28.559  28.492   0.198
15710W        W82141  21.492  44.390  14.857
15711W        W82142  32.600   1.435   0.928
15712W        W82143  29.584  16.398   3.290
15713W        W82144  18.767  29.679   2.208
15714W        W82145  20.136  42.304  12.489
15715W        W82146   9.801   7.349  14.940
15716W        W82147  32.598  12.404   3.681
15717W        W82148   2.205  14.593  13.375
15718W        W82149  41.340  35.984   0.346
15719W        W82150  14.656  14.628  11.644
15720W        W82151  27.646  35.309   4.582
15721W        W82152  43.709  30.959   4.281
15722W        W82153  15.102  36.571   2.709
15723W        W82154   0.500   7.953  14.019
15724W        W82155  19.061  22.593  13.587
15725W        W82156   3.462  11.577  13.514
15726W        W82157  19.283  40.762  13.511
15727W        W82158   2.309  20.296   4.494
15728W        W82159  11.309   1.304  11.880
15729W        W82160  42.828   6.992   0.297
15730W        W82161  23.169  40.579  13.302
15731W        W82162  40.396  25.782  12.608
15732W        W82163   2.757  17.638  11.750
15733W        W82164   6.748  30.032  14.757
15734W        W82165  17.148   2.953   0.358
15735W        W82166  14.058   8.025  14.494
15736W        W82167  40.122  22.619  10.170
15737W        W82168   2.242  33.491  12.468
15738W        W82169   5.241  14.776   1.740
15739W        W82170   5.930  36.922   3.615
15740W        W82171  35.126  32.867  13.393
15741W        W82172  22.157  10.633   3.652
15742W        W82173  22.655  23.893  12.450
15743W        W82174  10.791  16.521   0.586
15744W        W82175   9.970  42.737  14.944
15745W        W82176  11.338  33.870   1.378
15746W        W82177  12.708  28.696  12.829
15747W        W82178  18.085  42.370   3.769
15748W        W82179  43.540  10.405  14.243
15749W        W82180  16.225   3.673  12.569
15750W        W82181  42.461  40.535   4.114
15751W        W82182  18.644  28.691   1.222
15752W        W82183  11.676  44.992  13.883
15753W        W82184  17.985  13.683   0.311
15754W        W82185   4.861  27.335  11.672
15755W        W82186  38.839  32.535  11.999
15756W        W82187  21.627  16.187  11.630
15757W        W82188  24.455  12.760   1.799
15758W        W82189   8.737  41.501  11.539
15759W        W82190  42.345   1.238  11.647
15760W        W82191  21.680  38.384  14.838
15761W        W82192  16.070  34.745   1.743
15762W        W82193  24.767  27.569   4.786
15763W        W82194   0.292   0.846  13.263
15764W        W82195   3.744  20.526  13.131
15765W        W82196  24.056  31.619  12.083
15766W        W82197   6.249  22.104  11.097
15767W        W82198  25.208   8.135  12.799
15768W        W82199   6.223  21.981   1.612
15769W        W82200  17.282   4.781   0.232
15770W        W82201  17.232  13.778  13.970
15771W        W82202   2.946  30.142  11.209
15772W        W82203  22.542  10.666  13.851
15773W        W82204   0.787  44.372  14.108
15774W        W82205  24.632  19.734   3.431
15775W        W82206  25.587   3.286  10.708
15776W        W82207  17.992  33.007   2.136
15777W        W82208  25.562  19.585  11.416
15778W        W82209  12.452   5.189   1.859
15779W        W82210  34.484   4.455   2.177
15780W        W82211  30.685  39.511  12.982
15781W        W82212  44.029  17.186   0.472
15782W        W82213  26.700  19.107  10.665
15783W        W82214   3.810  21.292   1.272
15784W        W82215  13.208   9.437  14.393
15785W        W82216  18.732  21.701   3.688
15786W        W82217  22.251  35.642   2.186
15787W        W82218  24.109  44.339   1.341
15788W        W82219  27.085  40.933   0.903
15789W        W82220  10.228   6.963   4.132
15790W        W82221  15.289  25.976   1.169
15791W        W82222  31.937   3.811   5.051
15792W        W82223  16.122  31.786   1.424
15793W        W82224  42.567  42.805  11.179
15794W        W82225  18.359  10.748  13.267
15795W        W82226  26.551  43.510   2.374
15796W        W82227   0.758  18.043  12.836
15797W        W82228  39.309  38.581  11.864
15798W        W82229  31.993  23.102  11.552
15799W        W82230   7.214   2.304   0.371
15800W        W82231  37.767  16.183  10.303
15801W        W82232  37.345  35.905   3.695
15802W        W82233   4.437  28.243   1.790
15803W        W82234  39.118  37.801   0.794
15804W        W82235  39.982   0.071   1.714
15805W        W82236  44.291  27.306   2.191
15806W        W82237  29.886  32.414   3.498
15807W        W82238  29.005  23.136   0.207
15808W        W82239  19.784  28.714  14.779
15809W        W82240   4.287  28.865  12.384
15810W        W82241   8.772  15.167   3.291
15811W        W82242  22.696  26.107  13.475
15812W        W82243  44.486  34.455   2.135
15813W        W82244  27.285   2.705  11.901
15814W        W82245  32.107  38.824   0.356
15815W        W82246  30.669  28.168  14.134
15816W        W82247   8.165  30.939  13.873
15817W        W82248  43.355  15.607  12.034
15818W        W82249  14.171  25.125  14.107
15819W        W82250  24.155   4.477   4.659
15820W        W82251  11.101  31.122   4.123
15821W        W82252  14.125  43.155   0.953
15822W        W82253  34.581  27.219   1.194
15823W        W82254   7.643  12.354  11.123
15824W        W82255  20.635  16.629   4.603
15825W        W82256  20.484  36.277  13.954
15826W        W82257  14.824  14.794   4.548
15827W        W82258   3.874  24.456  11.229
15828W        W82259  33.590  35.352  13.030
15829W        W82260  14.299  26.113   0.226
15830W        W82261   0.515  35.371   3.053
15831W        W82262  18.702  21.587   4.182
15832W        W82263   0.537  34.604  13.924
15833W        W82264  30.400  20.050   4.374
15834W        W82265  32.117   1.568   3.949
15835W        W82266  44.325  12.274   3.555
15836W        W82267  20.978   5.230   1.234
15837W        W82268  17.072  24.409  13.408
15838W        W82269  28.603  37.645   0.521
15839W        W82270  20.215  29.449  12.054
15840W        W82271   9.388  19.841   1.432
15841W        W82272  15.307  20.082  11.167
15842W        W82273   8.306   8.898  10.438
15843W        W82274  12.879   0.396   3.419
15844W        W82275   5.725  19.798  14.476
15845W        W82276   9.744  16.748  12.964
15846W        W82277  12.415  35.815   3.423
15847W        W82278  33.618  30.162  11.975
15848W        W82279  23.745  39.205  12.406
15849W        W82280   7.258  31.578   0.404
15850W        W82281   0.007   0.647  14.800
15851W        W82282  42.598  29.300   1.824
15852W        W82283  17.930  15.957   1.722
15853W        W82284  22.949  36.414   3.569
15854W        W82285  35.312   2.853   2.721
15855W        W82286  33.359   2.413  11.154
15856W        W82287  13.946  25.374  12.910
15857W        W82288  15.811  41.848  11.114
15858W        W82289  26.004  37.602   4.041
15859W        W82290   2.738  39.479   0.464
15860W        W82291  21.954  40.406   2.234
15861W        W82292  35.081  37.536   5.044
15862W        W82293  36.504  24.697   4.159
15863W        W82294  29.145  23.566  12.458
15864W        W82295   9.146  22.209  10.710
15865W        W82296  13.808  11.355  14.339
15866W        W82297  19.883  11.675   1.695
15867W        W82298   3.664  33.013   1.116
15868W        W82299  34.078   2.082  13.457
15869W        W82300  25.432  38.367  11.094
15870W        W82301  21.716  34.464   1.276
15871W        W82302   9.998  24.053  13.116
15872W        W82303  12.142  19.897  12.287
15873W        W82304  40.997   6.440  12.904
15874W        W82305  20.525  43.817  12.942
15875W        W82306  36.317  38.941  14.687
15876W        W82307   1.456  16.150   1.902
15877W        W82308  25.489  17.588   1.209
15878W        W82309  19.736   9.854   1.400
15879W        W82310  35.289  31.965  11.693
15880W        W82311  14.030  29.145  10.360
15881W        W82312  32.682  28.062   2.781
15882W        W82313   7.707  25.203  11.674
15883W        W82314   2.198   4.305  10.983
15884W        W82315  14.083  31.630  13.516
15885W        W82316  17.881  27.701   3.164
15886W        W82317  13.669  11.044  12.046
15887W        W82318  38.340  28.199   4.212
15888W        W82319   8.955   9.664   4.907
15889W        W82320   9.385  36.554  11.564
15890W        W82321  17.336   7.685   1.787
15891W        W82322  11.186  18.545   1.327
15892W        W82323  40.219  14.729   0.299
15893W        W82324  11.391  31.966  12.084
15894W        W82325  10.613  36.999  11.133
15895W        W82326  29.618   8.012  11.167
15896W        W82327  21.379  12.235  13.208
15897W        W82328  43.521  23.144  11.210
15898W        W82329  43.335  20.765  13.957
15899W        W82330  31.881  38.970   4.522
15900W        W82331   1.995  13.649   0.801
15901W        W82332  11.160  27.066  14.038
15902W        W82333  33.884  25.054   4.567
15903W        W82334  17.360  35.859   1.786
15904W        W82335  29.096  32.973  14.330
15905W        W82336  31.120  41.575  11.285
15906W        W82337  20.174   1.324   0.554
15907W        W82338   2.400  28.068   1.846
15908W        W82339   6.173  20.779  13.110
15909W        W82340  25.055  20.671   2.411
15910W        W82341  15.426   2.721  11.484
15911W        W82342  30.461  29.535   1.051
15912W        W82343  18.175  13.759  13.578
15913W        W82344   2.844   7.726   0.919
15914W        W82345  21.201  22.179  13.682
15915W        W82346  30.456  29.031  12.857
15916W        W82347   5.222  26.993   1.222
15917W        W82348  11.705  10.882  13.927
15918W        W82349  40.273  31.513   2.307
15919W        W82350  16.141  13.246  14.548
15920W        W82351   5.922  41.262   4.177
15921W        W82352  24.987  18.121   2.124
15922W        W82353  14.240  31.604   1.750
15923W        W82354   9.097   9.666   3.199
15924W        W82355   9.286  14.986   3.353
15925W        W82356  43.477  30.016   3.963
15926W        W82357  23.125  44.360  10.717
15927W        W82358   2.287  18.993   1.110
15928W        W82359  32.605  27.511   0.337
15929W        W82360  31.024  26.989   2.152
15930W        W82361  39.092   4.329   3.311
15931W        W82362  42.111   0.447  14.299
15932W        W82363  10.787  23.753  13.922
15933W        W82364  37.918  27.149   2.849
15934W        W82365  42.974  19.772   4.816
15935W        W82366  43.484   8.347  11.137
15936W        W82367  10.929  31.102  13.976
15937W        W82368  12.784  26.571  11.874
15938W        W82369  11.378  10.907   4.286
15939W        W82370  42.386   2.908   3.126
15940W        W82371  12.315  28.509   2.449
15941W        W82372  24.759   1.336  10.667
15942W        W82373   1.769  31.724  14.855
15943W        W82374  28.427  18.024   0.890
15944W        W82375  13.114   9.785   2.278
15945W        W82376  36.881  33.446   0.493
15946W        W82377  26.581   5.085   3.701
15947W        W82378  15.757  12.153  11.123
15948W        W82379   8.307  42.066   1.651
15949W        W82380  25.475  37.136   0.272
15950W        W82381  39.614   9.335   2.228
15951W        W82382  39.789   4.247  14.063
15952W        W82383  34.441  20.104   4.137
15953W        W82384  32.443  41.073  14.403
15954W        W82385  30.353   6.762  11.236
15955W        W82386  24.810  28.663  13.816
15956W        W82387  31.170  29.044  14.438
15957W        W82388  35.030  22.031   3.691
15958W        W82389  23.923  28.563  13.100
15959W        W82390   0.258  43.430   2.752
15960W        W82391  36.934  31.156  14.835
15961W        W82392  16.161  40.331  14.364
15962W        W82393  16.633  29.063   1.939
15963W        W82394  36.943  15.397  11.566
15964W        W82395  25.952  14.762  10.405
15965W        W82396  18.378   0.393  13.402
15966W        W82397   6.232  10.445   2.090
15967W        W82398  21.668  27.954   3.612
15968W        W82399   8.173  42.731  14.499
15969W        W82400  23.723  22.282  14.576
15970W        W82401  42.054  40.529   2.124
15971W        W82402   2.210  29.448  12.889
15972W        W82403   2.203  34.469  11.777
15973W        W82404  11.850   5.947  11.092
15974W        W82405  39.742  20.713   2.855
15975W        W82406  11.767  11.826   3.668
15976W        W82407  12.066  12.800   0.394
15977W        W82408   0.736  24.716  14.407
15978W        W82409  10.133  21.660  11.889
15979W        W82410  43.565  22.253  14.398
15980W        W82411  40.429  15.079   4.048
15981W        W82412  39.934  41.748  11.337
15982W        W82413   6.697  43.609   4.468
15983W        W82414  44.306  44.830   4.576
15984W        W82415  21.706   2.733   3.645
15985W        W82416   1.690  42.670   0.823
15986W        W82417  16.262  18.999   2.095
15987W        W82418   8.778  25.814  11.960
15988W        W82419  21.122  15.838  10.644
15989W        W82420  15.138  15.413  13.093
15990W        W82421  14.402  30.361   2.374
15991W        W82422  36.758   3.764   3.051
15992W        W82423   4.903   2.706  11.111
15993W        W82424  11.858  41.982   2.969
15994W        W82425   2.100  31.036   3.269
15995W        W82426   3.206  38.923   2.223
15996W        W82427  39.279  23.448   2.787
15997W        W82428  22.128  15.182  13.413
15998W        W82429  37.674  10.920   1.732
15999W        W82430  13.353   6.882  10.749
16000W        W82431  17.892   5.002   1.661
16001W        W82432   4.445  39.589   4.467
16002W        W82433  40.392  15.057   1.486
16003W        W82434  35.842  44.509  14.718
16004W        W82435  38.981  34.239  12.361
16005W        W82436  12.070  38.304  14.309
16006W        W82437   7.448  27.151   1.926
16007W        W82438   9.229  21.450   0.782
16008W        W82439   1.381  17.108   1.706
16009W        W82440  12.744  39.104   2.196
16010W        W82441  10.714   7.460   2.412
16011W        W82442   9.389  39.385   0.152
16012W        W82443  29.824  37.460  12.100
16013W        W82444  21.991  22.818  13.503
16014W        W82445   7.027  16.573   0.436
16015W        W82446  33.104  32.259  11.596
16016W        W82447  31.669   9.050  14.369
16017W        W82448  15.576  42.119  12.557
16018W        W82449  18.522  36.947  11.146
16019W        W82450   6.942  32.879   1.261
16020W        W82451  11.667   7.392   1.399
16021W        W82452   7.403   7.963   2.065
16022W        W82453  14.472  37.848   2.848
16023W        W82454  28.112  29.220   3.721
16024W        W82455  16.683  41.844   3.751
16025W        W82456  14.715   0.472  11.534
16026W        W82457  23.185  20.558   0.054
16027W        W82458  17.422  19.958   3.289
16028W        W82459  21.941  20.717  10.746
16029W        W82460  23.227  29.478   2.261
16030W        W82461  27.661  43.107  13.610
16031W        W82462  13.160  20.266   2.790
16032W        W82463   7.126  33.461   3.745
16033W        W82464  14.107  22.535   9.772
16034W        W82465  20.725  42.324  12.938
16035W        W82466  16.614   2.190   3.591
16036W        W82467   1.849  16.823   4.092
16037W        W82468  33.858  15.229   4.500
16038W        W82469  37.900  31.636   4.965
16039W        W82470  30.800  32.976   4.764
16040W        W82471  33.951   1.583  13.442
16041W        W82472  43.395  23.164   0.235
16042W        W82473  28.940  17.167   0.349
16043W        W82474  36.938   2.879   2.798
16044W        W82475  40.844  27.446   3.747
16045W        W82476  20.984   6.784   2.661
16046W        W82477   1.704   5.371  11.962
16047W        W82478  22.722  27.897   3.167
16048W        W82479   5.360  41.233   4.402
16049W        W82480  10.619  21.535  14.641
16050W        W82481  15.194  26.088   9.801
16051W        W82482   8.874  20.799  10.724
16052W        W82483   6.727  18.019   1.198
16053W        W82484  37.358   5.467  10.906
16054W        W82485  28.057   8.174  14.389
16055W        W82486  13.251  36.525  12.075
16056W        W82487  36.090  26.062  12.930
16057W        W82488  26.706  13.625  13.402
16058W        W82489   0.280   2.051  14.709
16059W        W82490   6.739  32.880   1.736
16060W        W82491  14.931  13.671  14.536
16061W        W82492   8.194  40.554   0.584
16062W        W82493  44.387  32.615   4.179
16063W        W82494  36.390  42.506   4.122
16064W        W82495  20.542  29.086   9.810
16065W        W82496  11.262  24.635  10.718
16066W        W82497   8.792   2.456   1.933
16067W        W82498   8.934  11.187   3.245
16068W        W82499  23.198  17.605  10.220
16069W        W82500  34.324  22.337   4.190
16070W        W82501  37.973   8.549   5.015
16071W        W82502  40.575  14.762   0.690
16072W        W82503  18.473  43.992   0.815
16073W        W82504   9.343  37.543  11.970
16074W        W82505  23.734  16.681   3.740
16075W        W82506  41.952   2.209  12.696
16076W        W82507  28.065   2.753   2.326
16077W        W82508  25.509  11.765   1.493
16078W        W82509   6.269  34.016   0.914
16079W        W82510  14.733  28.931   3.080
16080W        W82511  10.307  26.707   2.350
16081W        W82512  21.472  27.653   2.826
16082W        W82513  29.496  20.125   0.875
16083W        W82514  21.136  26.037   3.162
16084W        W82515   7.381  41.449  11.174
16085W        W82516  19.180  33.612  12.868
16086W        W82517  18.256  11.593  13.907
16087W        W82518  17.240  28.657   2.353
16088W        W82519  17.954  12.455   4.713
16089W        W82520   2.871  25.927  13.027
16090W        W82521  12.612  13.726   2.546
16091W        W82522  19.106   9.450  14.240
16092W        W82523  17.178  16.363  10.701
16093W        W82524  25.595   5.346   0.427
16094W        W82525   2.899  33.258   2.676
16095W        W82526  41.128  38.217   5.451
16096W        W82527  37.288  29.502  11.897
16097W        W82528  36.081  34.498   2.315
16098W        W82529  41.273   9.595   1.673
16099W        W82530  20.156  31.978   3.243
16100W        W82531  19.790   3.054   1.348
16101W        W82532  36.210  24.641  13.486
16102W        W82533  26.753  12.243   2.329
16103W        W82534  10.412   2.416   1.749
16104W        W82535  13.868  22.499   3.651
16105W        W82536   0.913   4.416   2.180
16106W        W82537  40.154  19.197   2.315
16107W        W82538  33.545  16.619   0.748
16108W        W82539   3.262  12.403   4.117
16109W        W82540  10.392  10.191   2.597
16110W        W82541  36.425  10.590  12.661
16111W        W82542  22.202  21.700  10.991
16112W        W82543   0.369  22.593   4.291
16113W        W82544   1.278  13.668   2.920
16114W        W82545  26.566   0.465  12.043
16115W        W82546   4.922  10.080   0.813
16116W        W82547  29.207   0.734  12.064
16117W        W82548  20.025  29.136  11.657
16118W        W82549  43.047  18.724   3.737
16119W        W82550  25.519  25.011  11.205
16120W        W82551   7.399  30.550  13.007
16121W        W82552  21.982  43.377  13.886
16122W        W82553   9.291   0.065  13.803
16123W        W82554  36.424   9.444   2.874
16124W        W82555  13.539  43.242   1.432
16125W        W82556   4.679  29.370   4.648
16126W        W82557   4.669   4.925  12.352
16127W        W82558  20.769   9.387   2.356
16128W        W82559  44.899  32.331  10.733
16129W        W82560   5.974  15.744   3.963
16130W        W82561  16.122  19.987   3.121
16131W        W82562  10.702  10.453   1.014
16132W        W82563  43.425  11.638  14.894
16133W        W82564  33.894   8.681   2.903
16134W        W82565  23.733   7.377  12.524
16135W        W82566  27.997  38.841   0.331
16136W        W82567  26.121  14.739  13.442
16137W        W82568  25.476  33.457   4.207
16138W        W82569  35.689   3.890   4.346
16139W        W82570  42.772  38.948   4.071
16140W        W82571  24.418  37.084   0.956
16141W        W82572  29.436  44.002  11.629
16142W        W82573  40.030  32.866   0.414
16143W        W82574  16.637  14.779   0.320
16144W        W82575   2.252  24.573   3.121
16145W        W82576  44.303  17.199  12.902
16146W        W82577  10.252  17.096   3.199
16147W        W82578   4.231   4.703  13.605
16148W        W82579  26.408  13.184  12.505
16149W        W82580  15.281  42.448   3.709
16150W        W82581  39.427  17.725   3.291
16151W        W82582  25.207   6.386   0.665
16152W        W82583  10.898  35.341  14.990
16153W        W82584  15.856  28.102   2.409
16154W        W82585  31.006  25.870  13.973
16155W        W82586   8.878   0.226  10.669
16156W        W82587  17.591  16.018   3.165
16157W        W82588  25.444  25.350   3.318
16158W        W82589  40.127   1.423  14.363
16159W        W82590  35.395  33.309  14.006
16160W        W82591  35.907   8.399  11.160
16161W        W82592  29.235  11.829  11.600
16162W        W82593  21.097  23.969   0.297
16163W        W82594  30.994   9.926   4.274
16164W        W82595  37.089  39.035  11.394
16165W        W82596  37.102  38.957   0.384
16166W        W82597  12.364  22.159   2.214
16167W        W82598  43.086  37.871   1.318
16168W        W82599  27.685  19.711  14.324
16169W        W82600  18.050  24.742  13.646
16170W        W82601  42.288  40.779  13.008
16171W        W82602  23.776  10.300  11.558
16172W        W82603   9.637   9.623   3.876
16173W        W82604  40.723  39.840   5.501
16174W        W82605  44.851   7.525   0.945
16175W        W82606  33.396  19.523   0.890
16176W        W82607   1.721   7.895   4.444
16177W        W82608   5.261  26.994   4.208
16178W        W82609  44.298  17.653   2.496
16179W        W82610  41.502  15.029   0.152
16180W        W82611   4.288   6.760   1.308
16181W        W82612  14.766  11.201  13.498
16182W        W82613  24.553   1.481  14.518
16183W        W82614   9.354  39.392   3.686
16184W        W82615  32.616  37.061  12.019
16185W        W82616  32.906  18.365   3.398
16186W        W82617  33.452  26.304   0.825
16187W        W82618   0.297  41.428   3.276
16188W        W82619  28.165   7.459   2.290
16189W        W82620  35.076   2.287   0.636
16190W        W82621  39.650  39.274  11.418
16191W        W82622   4.235   9.802   3.189
16192W        W82623  44.007  42.230   0.947
16193W        W82624   7.924  41.896   1.950
16194W        W82625  31.057  32.594  12.606
16195W        W82626  31.948   3.760  14.223
16196W        W82627   0.291   1.675  13.101
16197W        W82628  42.745  13.218  10.504
16198W        W82629  43.601   6.817   2.745
16199W        W82630   4.567   2.729   2.776
16200W        W82631  41.088  13.379  12.559
16201W        W82632  11.872  11.679   2.669
16202W        W82633  15.873  34.347   4.042
16203W        W82634  15.150  28.500   1.280
16204W        W82635  28.940  38.696  12.092
16205W        W82636  42.968   1.770  14.548
16206W        W82637  36.503  25.226   4.060
16207W        W82638  27.067  25.404  11.595
16208W        W82639  13.696   8.419  10.541
16209W        W82640  32.417  17.358  14.351
16210W        W82641  33.349  29.972  13.852
16211W        W82642  36.097  23.704   3.434
16212W        W82643   9.457  31.707  13.117
16213W        W82644   2.470   9.358  14.457
16214W        W82645  12.257  21.708   0.211
16215W        W82646  12.094  21.431  13.409
16216W        W82647  25.811   1.607   0.277
16217W        W82648  21.773  20.544   2.141
16218W        W82649  16.795  17.812   4.335
16219W        W82650  15.663  13.390  14.298
16220W        W82651   0.938   6.736   3.676
16221W        W82652  28.863  13.792   3.125
16222W        W82653  42.385  33.880   3.200
16223W        W82654  11.650   5.949   3.776
16224W        W82655  11.934  13.301   0.426
16225W        W82656  41.816  21.257  13.178
16226W        W82657  31.361  26.169   4.720
16227W        W82658  12.754  26.041   1.931
16228W        W82659  25.199  42.033  12.705
16229W        W82660  37.549  43.814   4.362
16230W        W82661  17.335  19.726  14.985
16231W        W82662  42.327   3.511   4.813
16232W        W82663  29.113  35.523   1.738
16233W        W82664  19.070  14.533  11.998
16234W        W82665  26.486  44.056   4.119
16235W        W82666  29.874  17.717   3.256
16236W        W82667  41.354  38.874   2.332
16237W        W82668  40.281  30.096  11.132
16238W        W82669   3.127   4.312  13.555
16239W        W82670  42.983  23.532   2.115
16240W        W82671  33.859  26.805  13.133
16241W        W82672  12.726   0.367   2.418
16242W        W82673   0.777  31.874  11.651
16243W        W82674  12.749  43.664   0.930
16244W        W82675  32.581  33.873   1.933
16245W        W82676  26.096  24.189   0.870
16246W        W82677   4.665  38.389   4.584
16247W        W82678  30.044  14.004   1.868
16248W        W82679  13.674   4.562   0.294
16249W        W82680   8.207  21.614   1.300
16250W        W82681  15.254  19.633   3.898
16251W        W82682  36.665  33.826  11.146
16252W        W82683  28.618  21.287   4.658
16253W        W82684   1.307   6.342   4.731
16254W        W82685  22.096  42.803  14.461
16255W        W82686  28.012  27.702  11.029
16256W        W82687  26.193   9.129  14.301
16257W        W82688  15.773  14.202   1.057
16258W        W82689  35.512   8.198  12.209
16259W        W82690   3.318   3.856   3.350
16260W        W82691  39.041   3.800   3.661
16261W        W82692   0.763  15.928   3.602
16262W        W82693   6.297   4.935   4.408
16263W        W82694  10.265  40.768  11.066
16264W        W82695  13.617   5.352   4.459
16265W        W82696  32.360   5.194  12.086
16266W        W82697  17.974  37.231   2.368
16267W        W82698  17.962  21.097   4.158
16268W        W82699  16.070   5.900  13.912
16269W        W82700  27.367   9.333   0.749
16270W        W82701   9.656   4.130   2.906
16271W        W82702   5.355   1.686  13.154
16272W        W82703  40.984  36.586   2.145
16273W        W82704  33.500  14.553  14.552
16274W        W82705  19.045  33.372  10.699
16275W        W82706   5.610   6.493   4.071
16276W        W82707   0.138  41.117   2.845
16277W        W82708  14.638  33.462   2.992
16278W        W82709  44.776   3.748  14.767
16279W        W82710  25.432  26.626  10.445
16280W        W82711   3.437  28.742   4.546
16281W        W82712  35.086   7.400  14.079
16282W        W82713   3.897  23.954  10.598
16283W        W82714  35.009  17.612   2.172
16284W        W82715  30.415  22.521  12.081
16285W        W82716  43.285  40.617   0.392
16286W        W82717   5.705  41.351   0.738
16287W        W82718  27.674  22.624   2.758
16288W        W82719  28.942   1.995   1.432
16289W        W82720  38.104  14.672  11.118
16290W        W82721  30.050  40.777  13.314
16291W        W82722   6.840  39.578   1.527
16292W        W82723  11.171  42.123  13.637
16293W        W82724  31.411  30.509   2.293
16294W        W82725  24.614  25.068   3.182
16295W        W82726  34.981  19.192   0.257
16296W        W82727  22.242  16.060  12.938
16297W        W82728  28.771  11.922   0.829
16298W        W82729   1.290  32.431   3.772
16299W        W82730  18.146  19.209   4.451
16300W        W82731  12.054   1.879   4.500
16301W        W82732   3.911  21.809   0.422
16302W        W82733  19.574   1.317   3.656
16303W        W82734  35.810  10.269  13.401
16304W        W82735  35.868  31.015  14.799
16305W        W82736  31.042  37.333   2.684
16306W        W82737  37.175  12.708   1.630
16307W        W82738  27.153  21.468  11.395
16308W        W82739  43.936  21.345  10.018
16309W        W82740  23.016   6.071   2.690
16310W        W82741   9.128   3.009  11.737
16311W        W82742  37.981  10.056  11.192
16312W        W82743  37.335  19.823   3.814
16313W        W82744  38.388   1.488  12.127
16314W        W82745  30.952  36.942   4.187
16315W        W82746  14.953  22.399  11.537
16316W        W82747  42.054  14.940   3.601
16317W        W82748   7.735  43.778  11.575
16318W        W82749  21.606  18.532  11.946
16319W        W82750  37.405  26.484  12.071
16320W        W82751  14.892   3.768   3.823
16321W        W82752  27.110   8.428  13.857
16322W        W82753  17.368  44.678  14.001
16323W        W82754  15.262  10.302   2.288
16324W        W82755  22.974  14.588  11.054
16325W        W82756  10.899  29.396   3.300
16326W        W82757  27.078   5.316  13.477
16327W        W82758  38.543   0.057  11.983
16328W        W82759  25.267  20.663   4.198
16329W        W82760   6.383   9.268   4.004
16330W        W82761  27.835   8.053   4.104
16331W        W82762  12.712  32.110   3.645
16332W        W82763  40.578   5.287  13.017
16333W        W82764  11.486  11.985   2.820
16334W        W82765  43.223   2.026   2.817
16335W        W82766  40.058  43.294  13.548
16336W        W82767   6.168   0.033   2.371
16337W        W82768   2.602  34.254   0.010
16338W        W82769  20.128  14.727  13.988
16339W        W82770  13.424  29.659   4.117
16340W        W82771   7.728   0.165   3.508
16341W        W82772  22.904  23.042  12.465
16342W        W82773  29.071  38.673  13.116
16343W        W82774  31.451  25.739  14.362
16344W        W82775   2.031   2.414   4.044
16345W        W82776  14.270  42.762  11.850
16346W        W82777   4.966  17.586  11.228
16347W        W82778   7.513   4.422  12.324
16348W        W82779  37.606  27.123  13.866
16349W        W82780  31.437  34.103  12.679
16350W        W82781  28.547   9.653  12.551
16351W        W82782   5.198  10.905   4.503
16352W        W82783  44.379  41.527   3.675
16353W        W82784   1.374  11.589   3.717
16354W        W82785   5.293  31.630  11.460
16355W        W82786  16.815  29.324   3.900
16356W        W82787  18.344   8.622   3.881
16357W        W82788  28.302  15.804   3.662
16358W        W82789   3.262   1.111  10.702
16359W        W82790  43.025  29.628   1.681
16360W        W82791  40.966  29.463   3.710
16361W        W82792  44.719  40.119  13.594
16362W        W82793  11.390  33.098  11.344
16363W        W82794  43.293  31.094   2.875
16364W        W82795  14.562  28.838  13.690
16365W        W82796   0.002  24.162   0.232
16366W        W82797  29.020  42.131  11.972
16367W        W82798  25.193  38.575  13.636
16368W        W82799  31.984  19.017  12.486
16369W        W82800  10.091  43.911  14.026
16370W        W82801  17.066  44.720   0.798
16371W        W82802   5.165  33.918  12.637
16372W        W82803  26.455  44.304   2.351
16373W        W82804  33.888   1.251   4.227
16374W        W82805  33.520  28.514   2.751
16375W        W82806  40.560  13.869  12.937
16376W        W82807  15.341   9.598  10.695
16377W        W82808  44.360  30.363   0.370
16378W        W82809  27.437  16.666  11.036
16379W        W82810   4.270   4.775  13.054
16380W        W82811  36.842  36.407  10.755
16381W        W82812  27.908   9.157   0.891
16382W        W82813  17.372  19.304  13.343
16383W        W82814  33.951   4.415   2.219
16384W        W82815  30.677  32.881   3.361
16385W        W82816  44.358  14.407   2.347
16386W        W82817   4.952   2.404   1.835
16387W        W82818  23.958   1.775   4.018
16388W        W82819   1.713  21.522  13.794
16389W        W82820  15.261  40.712  14.347
16390W        W82821  24.274  31.320  13.912
16391W        W82822   3.815  33.907   3.668
16392W        W82823   3.014  27.474  14.434
16393W        W82824  43.883  39.103  12.470
16394W        W82825  23.445  24.783  12.450
16395W        W82826  42.775  38.388  10.706
16396W        W82827  14.635  27.549   4.274
16397W        W82828  13.854  13.368   2.363
16398W        W82829  43.438   4.217   4.369
16399W        W82830  16.318  16.548  14.031
16400W        W82831  19.897  24.263   2.584
16401W        W82832   4.281  41.934   4.822
16402W        W82833  18.281  10.571  12.781
16403W        W82834  33.448  20.066   1.199
16404W        W82835  30.138   8.310   4.198
16405W        W82836  21.184  29.394  13.528
16406W        W82837  33.949   8.142   3.277
16407W        W82838   0.515  30.139  12.798
16408W        W82839  42.926  13.105   1.726
16409W        W82840  19.849  43.261  10.720
16410W        W82841  19.763  24.995  13.117
16411W        W82842   9.107  16.726  11.113
16412W        W82843   0.769   2.268   4.728
16413W        W82844  43.948  23.327   4.151
16414W        W82845   5.742   5.723  11.099
16415W        W82846   4.460  19.227   2.810
16416W        W82847  31.448  40.289   2.357
16417W        W82848  36.974  43.253  13.977
16418W        W82849  20.678  36.476   4.218
16419W        W82850  20.014   0.828   4.059
16420W        W82851  14.256  21.088  12.462
16421W        W82852   6.804  21.142  14.021
16422W        W82853  40.363   0.003  13.341
16423W        W82854  28.012   0.725   0.360
16424W        W82855   5.815  16.865   0.834
16425W        W82856  33.133  37.822  12.576
16426W        W82857  37.795  44.684  13.473
16427W        W82858  23.633   4.719  11.889
16428W        W82859  36.515   9.169  12.510
16429W        W82860  14.635   7.306  12.025
16430W        W82861  18.955   3.683   2.734
16431W        W82862  20.274   7.164   4.162
16432W        W82863  36.491   5.950   2.590
16433W        W82864  20.218  21.176  12.030
16434W        W82865  10.711  26.181   1.707
16435W        W82866  27.245  26.522  14.311
16436W        W82867  27.142  36.740  11.153
16437W        W82868   6.252  33.344   4.162
16438W        W82869  28.726  30.511   1.518
16439W        W82870  20.741  31.532  12.882
16440W        W82871  38.858   1.730  12.127
16441W        W82872  43.728  17.022   1.421
16442W        W82873  42.300   8.647  11.344
16443W        W82874  16.400   5.981   1.769
16444W        W82875  25.644  16.759   1.521
16445W        W82876   4.241  34.682   3.662
16446W        W82877  13.100  11.891   1.473
16447W        W82878  32.853  15.776   3.732
16448W        W82879   3.764   5.714   0.868
16449W        W82880  25.933   7.011   3.304
16450W        W82881  33.455  15.578  10.445
16451W        W82882  33.018  41.768   0.947
16452W        W82883  21.164  16.393   3.140
16453W        W82884  24.421  15.204   2.813
16454W        W82885   5.630  15.748   3.573
16455W        W82886  37.005  20.257  10.952
16456W        W82887  29.920  37.889  11.186
16457W        W82888  32.036  16.129   4.664
16458W        W82889  33.491  32.531  12.351
16459W        W82890  25.166  17.318   2.363
16460W        W82891  27.368  19.520   3.866
16461W        W82892   5.128  25.434   0.390
16462W        W82893  15.772  30.337  11.445
16463W        W82894  40.010  23.177   0.245
16464W        W82895   4.819  29.634  11.153
16465W        W82896  22.967  39.019   4.027
16466W        W82897  39.007  36.151  12.525
16467W        W82898  26.033  42.458  11.124
16468W        W82899  14.185  10.178   2.863
16469W        W82900  23.932   7.585   0.850
16470W        W82901  33.595  40.222  11.265
16471W        W82902  38.919   6.870  11.057
16472W        W82903   6.786   9.170   2.326
16473W        W82904  28.905  29.653   2.370
16474W        W82905  22.829  20.355   3.573
16475W        W82906  16.805  40.361   2.776
16476W        W82907  16.730  26.649  13.734
16477W        W82908  28.273  37.063  14.716
16478W        W82909   2.472  26.128   1.473
16479W        W82910  14.321  35.040   4.719
16480W        W82911  41.237  39.383   0.719
16481W        W82912  30.426  29.225  10.994
16482W        W82913   2.876  21.861   3.652
16483W        W82914  30.873   1.728   1.483
16484W        W82915   6.768  34.416  11.461
16485W        W82916  31.420  26.594  10.927
16486W        W82917  19.378  34.458   3.373
16487W        W82918  23.193  42.466   3.102
16488W        W82919  30.219  35.641   2.656
16489W        W82920  16.126  33.167   3.122
16490W        W82921  44.126  21.612  10.872
16491W        W82922  10.413  10.886   1.130
16492W        W82923  42.469  19.016   2.682
16493W        W82924   7.908   1.708  12.088
16494W        W82925  20.220  15.184  11.171
16495W        W82926  44.517  26.288   4.036
16496W        W82927   2.835  39.611  12.934
16497W        W82928  15.383  12.643   5.033
16498W        W82929  30.419   7.439  14.517
16499W        W82930   3.356  12.840  13.399
16500W        W82931  10.075  24.858  12.629
16501W        W82932   0.864  15.505  10.766
16502W        W82933  23.677  42.364   4.255
16503W        W82934  20.341  32.962   1.804
16504W        W82935  35.495  36.154  14.381
16505W        W82936   9.285   8.893  10.286
16506W        W82937  27.064  11.774   2.388
16507W        W82938   0.663   4.811  12.970
16508W        W82939  36.433  38.506  13.129
16509W        W82940  34.010  38.065  12.478
16510W        W82941  23.666  20.980  13.924
16511W        W82942  30.597  30.259   4.005
16512W        W82943  36.984  44.193   3.246
16513W        W82944  23.817  32.444  11.710
16514W        W82945  22.135  39.580  14.758
16515W        W82946   6.719   8.141   0.676
16516W        W82947  40.914  33.088  13.506
16517W        W82948   9.125  40.158  14.918
16518W        W82949   4.341  33.187  13.092
16519W        W82950  33.041  40.098  12.831
16520W        W82951  33.477  39.566   4.534
16521W        W82952  32.139   9.194   1.340
16522W        W82953  33.692  10.423  11.463
16523W        W82954  35.831   2.109  12.935
16524W        W82955   8.264  16.391  12.038
16525W        W82956  22.480  21.052  13.345
16526W        W82957  26.477   2.851   3.101
16527W        W82958  10.530  22.084   4.113
16528W        W82959  17.020  26.578  11.169
16529W        W82960  38.369   6.715   2.305
16530W        W82961  29.668  15.868   0.816
16531W        W82962   0.239  31.613  12.919
16532W        W82963  25.778  25.195  11.606
16533W        W82964  31.998  10.050  13.370
16534W        W82965  18.999   3.972  13.315
16535W        W82966  41.562  14.054   1.362
16536W        W82967  13.510   0.383  13.935
16537W        W82968  30.358  13.812  11.230
16538W        W82969  20.662   1.814  11.490
16539W        W82970  30.408  44.530  10.729
16540W        W82971  40.526  13.076   2.046
16541W        W82972  44.460  26.216  14.387
16542W        W82973   1.431   3.767   0.434
16543W        W82974  17.540  10.474  10.665
16544W        W82975  24.384  16.780   4.594
16545W        W82976  12.381  34.126   1.376
16546W        W82977  32.168  10.193  11.539
16547W        W82978  40.721  14.664   0.208
16548W        W82979  14.814  16.972  14.968
16549W        W82980  38.211   2.753  13.973
16550W        W82981  32.177   1.524   1.621
16551W        W82982   8.095  12.206  10.915
16552W        W82983  39.517  34.036  10.735
16553W        W82984   9.436  32.031  12.433
16554W        W82985  36.013  26.190   4.282
16555W        W82986  34.082   4.760  12.154
16556W        W82987   0.304   4.168  10.500
16557W        W82988  20.141  10.759  13.434
16558W        W82989  29.094  42.752   1.279
16559W        W82990  13.394   9.057  11.236
16560W        W82991  39.471  13.614  12.785
16561W        W82992  20.396  22.834   0.445
16562W        W82993  21.023  29.620   1.911
16563W        W82994  33.318   4.176   4.220
16564W        W82995   3.447  18.542   1.121
16565W        W82996   0.397  25.100   4.575
16566W        W82997  28.680  22.833  11.244
16567W        W82998   9.110   4.360   4.546
16568W        W82999  21.048  38.413   3.179
16569W        W83000  20.312  21.980   1.685
16570W        W83001   6.925  34.076  14.465
16571W        W83002  20.523   6.250   3.832
16572W        W83003   2.374  35.868  14.551
16573W        W83004  23.712  22.554  12.095
16574W        W83005   6.771  21.625   1.295
16575W        W83006  34.426  43.952   3.764
16576W        W83007  19.722   9.905   2.301
16577W        W83008  26.275   8.883   1.752
16578W        W83009  21.683   5.037   2.752
16579W        W83010  17.045  10.307  14.394
16580W        W83011   3.339  23.485  12.132
16581W        W83012  15.057  11.096   2.869
16582W        W83013   1.573   0.795   2.283
16583W        W83014  42.497  20.605   0.892
16584W        W83015  38.769  27.327   1.665
16585W        W83016   3.972   8.923  14.856
16586W        W83017  38.821  23.406  11.667
16587W        W83018  17.037  26.170  14.569
16588W        W83019   3.100   7.199  10.148
16589W        W83020   1.473  20.159  11.978
16590W        W83021  34.633  31.969  14.876
16591W        W83022  29.018  22.681  14.942
16592W        W83023  30.941  38.065   4.157
16593W        W83024  37.510   3.839   4.088
16594W        W83025  27.634  39.460  11.957
16595W        W83026  29.331   2.950   2.810
16596W        W83027   2.956  26.428  10.382
16597W        W83028  41.747  13.719  14.065
16598W        W83029  36.899  11.418   3.370
16599W        W83030  12.328  43.056   4.125
16600W        W83031  32.408   8.219  12.132
16601W        W83032   4.474  24.539   3.214
16602W        W83033  44.193   6.202   3.283
16603W        W83034  18.024   6.276  13.758
16604W        W83035   1.537  32.030   2.648
16605W        W83036   7.400  33.191   0.468
16606W        W83037  22.348   7.176  13.530
16607W        W83038   0.989  30.334  12.867
16608W        W83039   5.521  35.040   0.934
16609W        W83040   4.445  14.118   4.550
16610W        W83041   2.175  23.923  12.626
16611W        W83042  16.227  31.951   2.318
16612W        W83043   6.105   6.282  14.337
16613W        W83044  21.722  37.449   9.925
16614W        W83045  15.324  39.447  13.977
16615W        W83046  33.117  39.888   4.736
16616W        W83047  27.613  18.486  12.811
16617W        W83048  24.101   3.980   0.436
16618W        W83049  10.288   8.770  10.153
16619W        W83050  23.437   3.487   3.648
16620W        W83051  32.831  31.265   4.181
16621W        W83052   6.403  37.565  11.456
16622W        W83053  43.365  22.432   0.800
16623W        W83054   7.840  36.313  11.136
16624W        W83055  33.640  38.991  14.227
16625W        W83056   7.023  10.775   1.222
16626W        W83057  36.588  27.138  13.880
16627W        W83058  24.405  16.594  14.850
16628W        W83059  27.573  37.551  13.620
16629W        W83060  16.617  11.136  13.859
16630W        W83061  42.503  19.183   3.182
16631W        W83062   2.825  20.322  10.706
16632W        W83063  28.722  26.874  13.074
16633W        W83064  35.443   5.807  10.982
16634W        W83065  44.031   0.497  13.108
16635W        W83066   6.327  10.416  13.291
16636W        W83067   6.884   4.832   1.892
16637W        W83068   5.576  27.854   1.272
16638W        W83069  19.733  24.030  12.968
16639W        W83070   1.814  14.707  12.088
16640W        W83071  32.790  11.589   3.703
16641W        W83072   6.311  25.994   3.184
16642W        W83073  37.550  27.398  11.919
16643W        W83074  38.402  43.610  13.075
16644W        W83075  37.034   6.320   3.246
16645W        W83076  22.617  10.745   3.901
16646W        W83077  17.276  42.945  12.919
16647W        W83078  40.374  12.376  12.928
16648W        W83079  16.574  11.241  10.843
16649W        W83080  34.831  17.248   9.989
16650W        W83081  17.571   8.850   1.857
16651W        W83082  22.954   4.250  12.490
16652W        W83083   9.939  17.783   0.866
16653W        W83084  39.718  34.037  14.812
16654W        W83085   2.792  12.976  13.870
16655W        W83086   1.099  38.365   3.453
16656W        W83087   9.777   8.306  13.077
16657W        W83088   0.040  35.229   2.826
16658W        W83089  16.882  32.213   1.767
16659W        W83090   5.418  12.173   2.102
16660W        W83091  31.022  26.962   0.266
16661W        W83092  17.172   0.090   1.164
16662W        W83093  14.995  35.817  12.528
16663W        W83094  10.664  21.480   3.305
16664W        W83095   7.896  42.360  13.253
16665W        W83096  25.966   3.801  14.398
16666W        W83097  15.336  17.945   0.297
16667W        W83098  32.971  30.985  13.048
16668W        W83099  10.084  34.128   3.358
16669W        W83100  37.370  29.693   4.037
16670W        W83101  25.504  31.487  14.344
16671W        W83102  15.218  13.571  14.974
16672W        W83103  21.628  14.664  10.653
16673W        W83104  24.517  12.428  13.005
16674W        W83105  13.077  25.310   1.265
16675W        W83106  17.660  26.481   4.197
16676W        W83107   7.829  30.309  10.383
16677W        W83108  25.128   9.060   0.891
16678W        W83109   3.749  31.503  13.054
16679W        W83110  27.682  17.156   1.714
16680W        W83111  35.319  25.994  12.422
16681W        W83112  18.363  39.618   3.066
16682W        W83113   2.950  10.742  13.458
16683W        W83114  42.964  42.354   3.363
16684W        W83115  18.265  28.698  13.421
16685W        W83116  21.853  30.056  12.211
16686W        W83117  18.270  39.929   0.760
16687W        W83118  16.242   9.313  13.629
16688W        W83119  30.440   1.010  11.640
16689W        W83120  40.507  40.832   1.822
16690W        W83121   2.743  27.891  14.526
16691W        W83122  13.586   5.000  12.134
16692W        W83123   4.546   3.136  14.678
16693W        W83124  29.480  32.770  14.893
16694W        W83125  18.786   9.312   1.773
16695W        W83126  27.404  28.848  12.926
16696W        W83127   2.311  21.799  11.081
16697W        W83128  36.748   0.915   2.322
16698W        W83129  40.647  27.602  14.172
16699W        W83130  15.717  36.952   0.511
16700W        W83131  43.427  34.122   4.362
16701W        W83132  43.382  36.996   4.102
16702W        W83133  37.820  26.049  14.417
16703W        W83134  36.104   5.214   0.345
16704W        W83135  41.925   8.914  12.577
16705W        W83136   6.644  26.676   2.137
16706W        W83137   4.672   8.665   4.742
16707W        W83138  41.928  23.346  11.866
16708W        W83139   3.835  36.494   3.169
16709W        W83140  31.311  40.913   4.805
16710W        W83141   0.415  38.909  14.911
16711W        W83142  38.186  41.089  10.677
16712W        W83143  35.884  32.468  12.823
16713W        W83144  21.917  18.458   1.956
16714W        W83145  29.868  20.170  13.037
16715W        W83146  13.369   7.237   1.844
16716W        W83147   6.609  39.994   1.301
16717W        W83148  27.997  37.320  13.467
16718W        W83149  35.607  30.328  14.033
16719W        W83150   3.991  38.048  12.926
16720W        W83151   0.224   0.840   1.894
16721W        W83152  12.072  40.306  10.946
16722W        W83153  27.639  32.087  13.484
16723W        W83154  33.038  25.353   0.881
16724W        W83155   6.255   3.142   2.823
16725W        W83156  20.311  19.708   3.333
16726W        W83157  34.318   5.662  14.552
16727W        W83158  18.784  21.113   1.284
16728W        W83159  23.063  33.636   3.749
16729W        W83160   7.652  20.116  11.514
16730W        W83161   5.940  44.029   1.180
16731W        W83162  18.116   4.265  11.940
16732W        W83163   8.018  31.084   1.472
16733W        W83164  36.863   5.610   3.942
16734W        W83165  10.344  38.009   1.828
16735W        W83166  27.546  29.090  14.315
16736W        W83167   5.211  30.670   1.830
16737W        W83168  24.722  27.153   0.421
16738W        W83169   0.898  36.140  12.525
16739W        W83170  27.637   0.044   1.422
16740W        W83171   0.187  33.704  11.580
16741W        W83172   9.039  43.321   0.482
16742W        W83173  12.326   6.744   0.085
16743W        W83174  39.026  34.612  13.660
16744W        W83175   9.408  30.424   2.202
16745W        W83176  24.851   6.828   0.611
16746W        W83177  32.612  10.607   4.208
16747W        W83178  28.142  20.413   2.909
16748W        W83179  21.916  20.574   4.458
16749W        W83180  28.896  29.429   0.824
16750W        W83181  30.115  39.701  12.161
16751W        W83182  42.499  27.974   4.847
16752W        W83183  29.241  37.033  11.305
16753W        W83184  25.394   5.824   2.298
16754W        W83185  31.481   7.345   2.159
16755W        W83186  25.649  20.676   2.178
16756W        W83187  23.167  27.834  11.719
16757W        W83188  14.636  44.168   3.606
16758W        W83189  16.151  25.759   3.181
16759W        W83190  26.033  17.363  14.264
16760W        W83191  27.421  36.050  14.340
16761W        W83192  13.610  15.776  14.850
16762W        W83193  19.691  30.985   4.100
16763W        W83194  36.983   9.846  13.906
16764W        W83195   6.461  28.196  10.141
16765W        W83196   9.317  19.362  12.812
16766W        W83197  36.706  15.330   5.169
16767W        W83198  22.052  16.882   2.737
16768W        W83199  39.859   2.033   4.055
16769W        W83200  22.602  21.898   2.722
16770W        W83201  31.928  26.194   0.511
16771W        W83202  19.250  36.889   5.208
16772W        W83203  11.055   0.439   3.922
16773W        W83204  37.092  13.225  11.463
16774W        W83205   0.783  10.272   1.715
16775W        W83206  28.552  26.945   3.249
16776W        W83207  21.937  19.502  12.871
16777W        W83208  13.693  26.187   1.884
16778W        W83209  35.276  28.112   0.195
16779W        W83210   7.992  24.686  11.157
16780W        W83211  25.871  14.528  13.005
16781W        W83212  13.015  16.349  12.965
16782W        W83213  20.389  11.363   4.338
16783W        W83214  34.981  15.686  14.311
16784W        W83215  26.401  10.198  11.116
16785W        W83216  39.771  43.841  14.155
16786W        W83217  33.406  16.271  12.194
16787W        W83218  41.660  23.272  14.486
16788W        W83219  41.057  26.757  12.000
16789W        W83220   0.736  21.994  12.949
16790W        W83221  24.095   3.381   4.682
16791W        W83222  32.372  21.732   2.097
16792W        W83223   7.933   7.242   0.773
16793W        W83224  20.039  40.468  10.043
16794W        W83225  20.068  19.231  11.130
16795W        W83226  38.064  39.237   2.773
16796W        W83227  37.585  36.145   2.249
16797W        W83228  44.660  33.377   0.756
16798W        W83229   7.804  37.335  11.211
16799W        W83230  21.845  43.057   0.275
16800W        W83231  15.138  38.555   4.597
16801W        W83232  17.659  14.000  12.500
16802W        W83233  40.958   5.451  12.553
16803W        W83234  25.966   3.275  13.877
16804W        W83235  40.598  21.041   4.263
16805W        W83236  22.171  24.563   2.775
16806W        W83237  43.331  32.941  14.490
16807W        W83238  15.604  40.306   5.001
16808W        W83239  11.776  18.246   4.116
16809W        W83240  24.070  41.814  13.295
16810W        W83241   7.118   1.671   0.974
16811W        W83242  10.796  26.589   1.266
16812W        W83243  12.164  26.950  11.217
16813W        W83244   2.815  39.877   2.438
16814W        W83245  39.715  42.744  11.158
16815W        W83246  16.873   4.399   2.709
16816W        W83247   4.733  42.833   4.629
16817W        W83248   8.895  17.248   4.145
16818W        W83249  35.200  41.905   2.331
16819W        W83250  18.609  11.890  11.559
16820W        W83251   8.402  36.051   2.764
16821W        W83252  24.185  24.885  12.945
16822W        W83253  33.544  22.918  12.437
16823W        W83254  19.629  18.979  14.208
16824W        W83255  44.865  38.365   1.152
16825W        W83256  27.563  23.589   2.796
16826W        W83257  29.603  10.598  13.537
16827W        W83258   5.363  40.738  10.614
16828W        W83259  37.611  15.820  12.530
16829W        W83260  20.545  44.379   1.529
16830W        W83261  18.727  16.757  14.302
16831W        W83262  36.103  42.048   2.636
16832W        W83263  24.145  19.342  10.328
16833W        W83264   7.448  39.789   3.281
16834W        W83265  21.610  25.049   1.459
16835W        W83266  34.568  40.048   1.877
16836W        W83267  15.629  12.107   0.579
16837W        W83268  17.651  13.255   3.670
16838W        W83269   1.727  34.386  12.525
16839W        W83270  42.773  44.888   0.415
16840W        W83271  44.452  12.804   2.648
16841W        W83272  42.341   3.740   4.107
16842W        W83273  30.025  41.322   1.281
16843W        W83274  26.614  15.492   3.234
16844W        W83275  38.615  29.467  14.496
16845W        W83276   2.444  28.173  14.221
16846W        W83277   1.300   4.932   4.600
16847W        W83278   7.916  13.275   0.867
16848W        W83279  31.048  26.902  14.682
16849W        W83280  10.236  17.207   4.506
16850W        W83281  25.542  22.674   4.247
16851W        W83282  32.390  26.965   4.370
16852W        W83283  41.027   2.793  11.000
16853W        W83284  10.556  24.199   3.224
16854W        W83285   4.583  15.281  11.976
16855W        W83286  16.865  29.933  13.569
16856W        W83287  42.503   1.205  13.481
16857W        W83288  26.978   3.076  14.879
16858W        W83289   9.208  43.422   2.718
16859W        W83290   0.718  10.777   2.875
16860W        W83291  22.583  20.584   3.969
16861W        W83292  42.190  24.895  11.642
16862W        W83293  43.402  43.411  11.598
16863W        W83294  10.078  17.186   5.004
16864W        W83295  34.414  10.301  11.332
16865W        W83296  23.787  27.703   1.152
16866W        W83297  33.258  22.511   0.725
16867W        W83298  22.528  21.046   2.479
16868W        W83299  28.484   3.969   1.273
16869W        W83300   8.179  26.107   4.586
16870W        W83301   2.315  32.604   3.706
16871W        W83302  15.159  18.198  14.874
16872W        W83303  40.005  13.284   4.527
16873W        W83304  41.849  30.078   1.885
16874W        W83305  13.740  13.624  13.003
16875W        W83306  24.058  16.037  13.272
16876W        W83307  39.844  43.343  14.013
16877W        W83308   9.407  34.038   0.744
16878W        W83309  28.886  26.101   4.990
16879W        W83310  22.728   4.406  11.983
16880W        W83311  42.127  32.443   2.719
16881W        W83312  29.490  37.510   3.250
16882W        W83313  10.979  29.895   2.020
16883W        W83314   7.732  32.660  12.058
16884W        W83315  15.989   5.170   3.856
16885W        W83316  19.505   3.969  10.603
16886W        W83317   3.059   6.551  13.913
16887W        W83318   3.806  32.371   1.715
16888W        W83319  22.207   4.324   1.419
16889W        W83320  37.464  13.271   3.539
16890W        W83321  31.440  26.654  14.947
16891W        W83322  43.008  31.998   9.876
16892W        W83323  37.735  31.763  11.390
16893W        W83324  30.656   0.015   0.919
16894W        W83325  37.587  10.622   3.261
16895W        W83326   9.416  10.450  13.171
16896W        W83327  42.697  11.349  11.851
16897W        W83328  16.765  13.784  12.521
16898W        W83329  12.066   1.467  13.957
16899W        W83330  38.483  10.129  12.666
16900W        W83331  15.547  36.003  10.288
16901W        W83332  41.570  11.840   5.170
16902W        W83333  28.650   3.002  12.993
16903W        W83334  29.453   3.520  11.933
16904W        W83335  37.605  24.592  12.915
16905W        W83336   7.942  42.767  11.770
16906W        W83337  19.460  11.589   3.691
16907W        W83338  36.878  23.502  13.390
16908W        W83339  14.183  12.805   4.546
16909W        W83340  31.108  40.843   1.983
16910W        W83341  22.250  42.392   4.679
16911W        W83342  39.917  16.771   3.818
16912W        W83343  37.482  33.716  13.428
16913W        W83344  25.097  31.928  12.110
16914W        W83345   4.689   5.397  13.254
16915W        W83346   4.170   5.982  11.137
16916W        W83347  21.049   3.473  11.279
16917W        W83348  14.833  42.728  13.979
16918W        W83349  31.240  38.045  11.618
16919W        W83350   8.930  14.866   0.056
16920W        W83351  20.762   5.709   2.344
16921W        W83352  26.686  15.313   1.259
16922W        W83353  31.418  34.099   4.567
16923W        W83354  22.236  26.468  11.987
16924W        W83355  20.754  37.018   2.157
16925W        W83356  23.051  39.350   2.502
16926W        W83357  24.569   4.733  13.008
16927W        W83358  22.753  43.451  10.269
16928W        W83359  16.646   4.652  13.341
16929W        W83360  20.631   5.159  14.937
16930W        W83361  43.571  26.131  13.059
16931W        W83362  28.274  26.689  14.775
16932W        W83363  23.539  41.803  10.748
16933W        W83364  15.107  39.371   1.465
16934W        W83365  32.120  20.239   3.273
16935W        W83366  35.921  37.576   0.795
16936W        W83367  28.180  10.407   1.626
16937W        W83368  26.991   5.116  12.047
16938W        W83369  28.929  10.714   0.794
16939W        W83370  44.520  21.130  13.415
16940W        W83371  41.474   0.038   0.382
16941W        W83372   0.474  10.156  13.951
16942W        W83373  19.440  17.771   3.222
16943W        W83374  19.744  29.555  11.650
16944W        W83375  23.902  11.440  12.074
16945W        W83376   2.671  36.528  10.744
16946W        W83377  33.553   2.877  14.781
16947W        W83378  36.184  43.190  10.821
16948W        W83379   7.838  40.473  10.871
16949W        W83380   6.952  23.642  14.404
16950W        W83381  18.038  31.008   3.152
16951W        W83382  29.173  13.533   4.721
16952W        W83383  14.080  21.749  11.592
16953W        W83384  29.536  20.548  12.954
16954W        W83385  21.575  33.651   2.865
16955W        W83386  36.680  24.272   3.359
16956W        W83387   9.190  13.573  12.033
16957W        W83388   8.683  41.502   0.410
16958W        W83389  11.289  30.428  12.920
16959W        W83390  18.859   8.746   2.920
16960W        W83391  23.624  33.525  14.593
16961W        W83392  15.141  38.805   2.137
16962W        W83393  25.659   0.002  11.159
16963W        W83394  20.985  26.656   3.902
16964W        W83395   2.461   7.439   0.432
16965W        W83396  23.690  16.986   5.017
16966W        W83397  38.349  25.180  10.541
16967W        W83398  11.315  26.657  13.127
16968W        W83399  27.730  11.007  11.844
16969W        W83400   9.143  17.037  10.640
16970W        W83401  27.033  39.550  13.587
16971W        W83402   5.318   1.039  12.228
16972W        W83403  10.761  16.734   4.514
16973W        W83404   2.323  25.623   2.095
16974W        W83405  27.105  32.140   2.233
16975W        W83406  12.765  39.023   3.162
16976W        W83407  15.432   2.939  14.787
16977W        W83408  17.080  10.836   4.594
16978W        W83409  38.316   7.898   0.452
16979W        W83410  32.071   8.173  13.447
16980W        W83411  15.995  29.415   1.263
16981W        W83412  42.952  38.870  12.111
16982W        W83413  41.847   3.728   0.792
16983W        W83414  17.133   0.569  13.762
16984W        W83415  15.819  26.040  12.941
16985W        W83416  43.755  26.386  14.453
16986W        W83417  29.208  15.249  11.845
16987W        W83418  41.406  42.559   1.222
16988W        W83419  44.533  17.773   0.935
16989W        W83420  19.529  12.229  10.600
16990W        W83421  17.362  28.003   4.686
16991W        W83422  44.671   8.919   1.729
16992W        W83423   0.179   7.578  14.276
16993W        W83424   3.271   5.193  14.367
16994W        W83425  22.187   0.242   1.945
16995W        W83426  38.514  17.551   0.444
16996W        W83427   3.670  35.057   1.808
16997W        W83428  41.091   4.703  14.877
16998W        W83429  38.035  25.109  11.726
16999W        W83430  31.081  43.539   1.779
17000W        W83431  29.934  40.447   2.762
17001W        W83432  27.562  16.573   3.664
17002W        W83433  14.277  29.421   0.753
17003W        W83434   6.757   5.421   1.152
17004W        W83435  43.997  12.918   0.447
17005W        W83436   0.996   7.729   3.779
17006W        W83437  43.116  30.727   1.896
17007W        W83438  19.745  24.144   3.107
17008W        W83439  44.802  41.525   2.853
17009W        W83440  15.194  26.948  11.425
17010W        W83441  10.880   3.828  14.758
17011W        W83442   1.929  44.810   4.699
17012W        W83443  41.882  28.365   1.740
17013W        W83444  26.471  16.094  12.632
17014W        W83445  22.016  38.325   0.373
17015W        W83446  21.916  24.202  13.595
17016W        W83447   2.169  24.229   4.629
17017W        W83448  33.271  24.957   2.675
17018W        W83449  17.721   4.905   4.107
17019W        W83450   0.435  18.522   4.767
17020W        W83451  30.590   8.475   2.515
17021W        W83452  40.312  25.151  11.387
17022W        W83453   4.275   1.679   4.908
17023W        W83454  43.396   9.463  10.678
17024W        W83455  41.520  21.291   4.818
17025W        W83456  29.449  24.046   0.911
17026W        W83457  23.220  43.420   0.656
17027W        W83458  27.311   5.958  13.630
17028W        W83459  30.444  44.211  12.091
17029W        W83460  22.207  35.836   3.673
17030W        W83461  43.902  24.372  14.508
17031W        W83462   2.875  29.519  10.690
17032W        W83463  23.958  19.088  14.511
17033W        W83464  18.287   1.813  12.075
17034W        W83465  30.164  24.628  13.420
17035W        W83466   2.803   2.234   3.219
17036W        W83467  26.641  24.243  13.642
17037W        W83468  34.436  22.592   2.753
17038W        W83469  37.880  17.569  10.796
17039W        W83470  34.386  37.888  12.919
17040W        W83471  28.041  35.392   3.269
17041W        W83472  33.030  11.762   2.984
17042W        W83473  29.793  27.896  13.703
17043W        W83474   2.968   3.679  13.609
17044W        W83475   0.482   1.781   4.750
17045W        W83476   6.124  14.297   5.461
17046W        W83477  19.768  12.646   1.163
17047W        W83478  17.467  14.233  13.864
17048W        W83479   0.037  20.181   1.302
17049W        W83480  43.517   2.288   1.750
17050W        W83481   1.162  35.527   0.627
17051W        W83482  15.333  26.472   3.277
17052W        W83483  41.236  42.944   4.040
17053W        W83484  39.455  39.476  14.319
17054W        W83485  38.364  18.041  14.290
17055W        W83486  44.363  36.403  14.398
17056W        W83487  12.724  39.905  14.865
17057W        W83488  10.183  17.186  13.502
17058W        W83489  25.075   8.260  10.913
17059W        W83490  22.043  26.212  11.561
17060W        W83491  25.889   8.955  11.696
17061W        W83492  15.406  10.390  11.127
17062W        W83493  35.439  34.047   1.374
17063W        W83494   6.439  30.425   2.675
17064W        W83495  40.711   1.583  12.467
17065W        W83496  20.391  43.096   2.970
17066W        W83497  43.029  27.271   1.433
17067W        W83498  18.611  36.197  10.759
17068W        W83499  12.894  12.627  11.401
17069W        W83500  15.636  35.120   0.934
17070W        W83501  35.024  10.340   3.286
17071W        W83502  33.513  31.186  11.090
17072W        W83503  20.288   5.817  11.059
17073W        W83504  18.868   3.781   0.488
17074W        W83505  20.885  18.337  14.304
17075W        W83506  31.101  39.524  14.952
17076W        W83507  38.186  25.647   0.293
17077W        W83508  28.149  40.074  13.454
17078W        W83509  19.642   7.347  14.794
17079W        W83510   6.171  12.671   1.251
17080W        W83511  38.145   9.443   3.166
17081W        W83512  30.918  16.554   3.146
17082W        W83513  14.131  14.300   2.853
17083W        W83514   8.968   0.929   0.373
17084W        W83515   4.770  42.796   0.834
17085W        W83516  43.390  21.789   2.897
17086W        W83517  25.440  12.674   1.991
17087W        W83518  16.157  29.641   4.743
17088W        W83519   0.120  40.923  12.061
17089W        W83520  33.012  13.397  12.841
17090W        W83521   4.906   2.657   3.675
17091W        W83522  20.957  32.691   9.796
17092W        W83523   6.012  44.536   2.371
17093W        W83524  18.587   6.338  12.583
17094W        W83525  41.046  27.421   1.450
17095W        W83526   6.235  44.918   4.569
17096W        W83527  31.415   5.276  13.882
17097W        W83528  18.528  29.957  14.838
17098W        W83529  38.196  24.403  13.439
17099W        W83530  27.876   3.465  13.021
17100W        W83531  22.478  16.134   3.678
17101W        W83532  31.584   1.910   4.649
17102W        W83533  27.904  23.660  14.348
17103W        W83534  34.942  15.082  10.711
17104W        W83535  17.653  16.083  10.633
17105W        W83536  36.779  22.793   4.834
17106W        W83537  34.324  29.617   1.791
17107W        W83538  22.026  34.074  13.268
17108W        W83539   1.196  15.718  14.937
17109W        W83540  12.721   4.458  13.463
17110W        W83541  22.610   7.195   1.221
17111W        W83542  22.026  25.495   4.908
17112W        W83543  18.134  20.359  11.554
17113W        W83544  17.056   8.492  12.111
17114W        W83545   5.292   6.822   4.600
17115W        W83546  31.430   4.129   2.989
17116W        W83547  14.183  11.591   5.055
17117W        W83548   6.243  10.169  14.374
17118W        W83549  16.100  37.220   0.773
17119W        W83550   6.398  29.556   2.289
17120W        W83551  36.886  33.732   3.906
17121W        W83552   3.829   4.661  12.157
17122W        W83553  16.090  23.719   3.038
17123W        W83554  27.159  12.571  10.779
17124W        W83555   5.893   5.361   0.841
17125W        W83556   8.417  31.140   3.327
17126W        W83557  10.751  30.112   1.529
17127W        W83558  25.915  34.636  11.038
17128W        W83559   0.826   6.194  11.662
17129W        W83560  17.364  33.659   5.066
17130W        W83561   7.243  40.320   0.302
17131W        W83562  15.403  36.250   4.100
17132W        W83563  26.189  44.033   4.822
17133W        W83564  25.694  44.293   3.704
17134W        W83565  10.185   4.648  11.114
17135W        W83566  14.152  41.745  12.327
17136W        W83567  31.966  31.869   3.621
17137W        W83568  16.398  42.189  11.998
17138W        W83569  36.102  26.321   5.171
17139W        W83570  17.978   4.192   0.365
17140W        W83571  30.091  17.580   0.681
17141W        W83572  35.503  12.166   4.626
17142W        W83573  39.344  43.454  11.560
17143W        W83574  20.599  41.561  13.837
17144W        W83575  23.790  41.347   1.384
17145W        W83576   7.201  14.112   4.570
17146W        W83577   3.812  29.029   1.617
17147W        W83578  16.183  13.600  14.933
17148W        W83579  15.844  34.413  10.328
17149W        W83580  19.715  39.861   3.530
17150W        W83581  40.532  25.486   3.628
17151W        W83582  33.932  44.517   2.185
17152W        W83583  43.933  39.541  13.529
17153W        W83584  43.090  17.593  10.373
17154W        W83585  33.041  34.651   0.998
17155W        W83586  32.358  16.579  13.967
17156W        W83587   4.409  23.627   1.263
17157W        W83588  34.306  12.145   2.266
17158W        W83589   3.253   1.951   1.774
17159W        W83590   8.694  43.371   2.639
17160W        W83591   9.821  40.316   1.923
17161W        W83592  17.031  43.278  11.654
17162W        W83593  42.532   6.461  13.868
17163W        W83594  12.159  24.923  13.833
17164W        W83595   3.959  38.001   3.512
17165W        W83596  35.018  35.554   2.386
17166W        W83597  17.060  11.722   2.652
17167W        W83598  35.971  43.949  11.666
17168W        W83599  32.390  33.506   4.918
17169W        W83600  10.266  35.381   2.335
17170W        W83601  44.506  42.040  14.366
17171W        W83602  34.517  31.500   4.665
17172W        W83603  31.481  30.968  11.401
17173W        W83604  39.107  10.151  12.623
17174W        W83605  37.292  36.281   4.358
17175W        W83606  22.229  12.662   1.341
17176W        W83607   8.970  33.220   1.420
17177W        W83608  10.320  22.631  12.913
17178W        W83609  39.636  22.169  10.778
17179W        W83610  18.598  12.109   1.322
17180W        W83611   7.234   6.080   4.272
17181W        W83612  18.237  23.536  10.317
17182W        W83613  42.961  13.634   4.242
17183W        W83614  43.305  42.457   0.505
17184W        W83615  36.681  29.401   0.255
17185W        W83616  12.193   4.468  12.857
17186W        W83617   0.749  43.295   2.834
17187W        W83618  32.040   1.580   0.856
17188W        W83619   9.727  11.387  10.730
17189W        W83620  25.298  25.815   3.045
17190W        W83621  35.135  26.250   1.755
17191W        W83622  20.178  15.718  14.223
17192W        W83623  34.126  39.834  13.476
17193W        W83624  44.805  42.989  12.390
17194W        W83625  19.127  41.985  11.136
17195W        W83626  26.031  11.860   4.125
17196W        W83627  26.931  11.764  13.061
17197W        W83628  23.735  41.952   4.644
17198W        W83629  13.205  44.316  14.300
17199W        W83630  43.850   1.879   4.260
17200W        W83631  14.086   1.890   2.314
17201W        W83632  11.126   3.724  13.076
17202W        W83633  29.443  35.410  12.936
17203W        W83634  19.659  16.027  11.984
17204W        W83635  39.790  19.382   2.651
17205W        W83636  39.877   4.648   2.249
17206W        W83637  34.387  13.567  14.955
17207W        W83638  22.996  19.807   0.898
17208W        W83639  19.428   7.668  10.763
17209W        W83640   6.169  31.629   4.049
17210W        W83641  43.821   9.193  10.455
17211W        W83642   5.885  38.357   3.895
17212W        W83643  26.166  41.787  12.557
17213W        W83644  14.799  37.307   0.388
17214W        W83645  11.723   3.386   2.664
17215W        W83646  28.132  35.477  12.190
17216W        W83647  10.597  18.144  10.875
17217W        W83648  39.090  17.593   0.408
17218W        W83649  18.398  44.304  11.507
17219W        W83650  26.168   6.554  12.470
17220W        W83651   3.467  43.998   0.192
17221W        W83652  18.453  11.359  14.863
17222W        W83653  43.943   5.217  10.718
17223W        W83654  39.466   8.838   2.212
17224W        W83655  42.963  41.800   4.521
17225W        W83656  13.588   4.959  10.841
17226W        W83657  33.504  16.205  14.683
17227W        W83658  13.225  10.743  12.936
17228W        W83659  32.525  39.721  12.011
17229W        W83660  27.074  38.951   3.807
17230W        W83661  38.584   0.628   4.668
17231W        W83662  17.679  40.015   3.582
17232W        W83663  37.573  10.575  12.904
17233W        W83664  17.227  18.111   1.209
17234W        W83665  28.634  27.077  11.459
17235W        W83666  11.582  11.838  11.040
17236W        W83667  17.545   7.196   0.062
17237W        W83668  23.584   7.938   4.119
17238W        W83669  29.920  20.977   4.651
17239W        W83670  33.783   9.858   1.706
17240W        W83671   3.349  38.759  13.053
17241W        W83672  36.003  15.357  14.450
17242W        W83673   0.330  38.394  10.882
17243W        W83674   3.147  33.520   1.337
17244W        W83675  36.684  27.162   3.342
17245W        W83676  14.303  18.106  11.520
17246W        W83677  11.123  35.202   0.449
17247W        W83678  14.053  23.380  13.083
17248W        W83679  42.739   2.247  12.049
17249W        W83680  38.800  44.878  13.421
17250W        W83681   8.212  26.856  13.544
17251W        W83682  12.076  14.379  12.065
17252W        W83683  19.550  25.450   3.839
17253W        W83684  36.500  44.335   0.799
17254W        W83685  21.085  40.871   0.441
17255W        W83686  37.764  39.007  12.424
17256W        W83687   3.404  34.354   0.547
17257W        W83688  19.007  36.515  14.275
17258W        W83689   4.056  43.361   0.591
17259W        W83690  40.130   8.336  12.557
17260W        W83691  17.708   8.712  13.047
17261W        W83692   1.357  25.607   0.177
17262W        W83693  33.888   2.917  13.650
17263W        W83694  13.895  21.195  11.749
17264W        W83695  44.288  18.674   2.729
17265W        W83696  16.379  32.177  12.354
17266W        W83697  25.713  12.238   2.241
17267W        W83698   1.090  30.543   4.031
17268W        W83699  44.760   6.656   1.336
17269W        W83700  11.330   9.746  13.493
17270W        W83701   6.417  32.728   0.338
17271W        W83702   1.368  10.506  10.118
17272W        W83703  25.673  18.634   4.942
17273W        W83704  21.202  11.798  11.085
17274W        W83705  26.782  26.233  14.293
17275W        W83706  42.441   9.028   4.905
17276W        W83707  13.713  35.567   1.279
17277W        W83708  33.910  44.847   3.058
17278W        W83709  39.731  30.657   3.241
17279W        W83710  25.529  41.346   0.807
17280W        W83711  44.023   8.430  12.000
17281W        W83712  12.054  13.626  11.017
17282W        W83713  31.719  38.104  11.486
17283W        W83714  37.980   3.837   4.814
17284W        W83715  11.342  28.981   4.564
17285W        W83716   4.494  24.851  12.797
17286W        W83717  20.042  38.552   9.916
17287W        W83718  40.823  18.487  11.302
17288W        W83719  30.111   4.747  12.971
17289W        W83720  10.285   6.925  11.474
17290W        W83721  32.355   1.320   0.495
17291W        W83722  20.691  30.407   0.063
17292W        W83723  20.599   5.902  13.603
17293W        W83724   1.226  24.548   3.822
17294W        W83725  19.341  19.685  13.901
17295W        W83726   9.260   3.530  11.117
17296W        W83727  15.105  14.654  11.063
17297W        W83728   9.250  33.426  14.475
17298W        W83729  44.999  27.554  12.775
17299W        W83730   7.670  10.343   4.659
17300W        W83731   4.481  43.332  10.985
17301W        W83732  17.508  10.073  12.580
17302W        W83733   7.456   8.259   2.495
17303W        W83734  13.821  29.541  12.938
17304W        W83735  37.472  19.568  13.358
17305W        W83736  27.314  14.283  11.592
17306W        W83737  35.625  27.904   1.166
17307W        W83738  10.920  24.092  14.660
17308W        W83739   2.528  44.777   2.280
17309W        W83740  37.981  15.357   4.183
17310W        W83741  14.619   0.973  11.551
17311W        W83742  40.177  41.825   1.801
17312W        W83743  41.706  37.803  10.201
17313W        W83744  25.774   0.710  14.324
17314W        W83745   9.691  39.922   2.631
17315W        W83746   7.308  43.306   2.765
17316W        W83747  36.348   2.677   1.291
17317W        W83748  18.140  16.956  12.953
17318W        W83749  22.029  25.976  12.900
17319W        W83750  42.980  23.281   4.571
17320W        W83751  28.901  44.147   1.427
17321W        W83752  12.987  37.026  11.380
17322W        W83753  21.882  36.557   3.666
17323W        W83754   2.329   7.196  14.597
17324W        W83755  12.238  42.302   0.967
17325W        W83756  39.977  41.005   0.670
17326W        W83757  20.454  31.387  13.278
17327W        W83758  11.390  33.378   3.318
17328W        W83759  37.411  16.733   3.706
17329W        W83760   3.723  36.982  12.168
17330W        W83761  12.774  28.865  14.514
17331W        W83762  14.066  40.476  10.810
17332W        W83763  30.697   7.618   3.142
17333W        W83764  11.302  31.732  11.346
17334W        W83765  37.477  33.375   5.064
17335W        W83766   3.033  44.806   2.284
17336W        W83767   2.392  14.365  11.066
17337W        W83768   8.375  37.829  13.401
17338W        W83769  21.436   0.431  13.693
17339W        W83770  21.097  40.770  13.183
17340W        W83771   1.081  11.234  13.186
17341W        W83772   9.740  22.178  12.326
17342W        W83773  28.111  34.070   0.155
17343W        W83774  22.494  44.559  13.344
17344W        W83775  35.511  15.878   2.544
17345W        W83776  14.923  23.643  13.795
17346W        W83777  20.135  32.457   0.867
17347W        W83778   4.632  41.079   1.213
17348W        W83779   1.009   2.787  11.517
17349W        W83780   9.363  22.107  11.975
17350W        W83781   8.017  43.260  10.718
17351W        W83782  31.441   8.420   0.748
17352W        W83783  19.151   5.328  11.995
17353W        W83784  35.017  37.612  14.861
17354W        W83785  14.258   5.960  13.371
17355W        W83786  18.692  33.587  11.565
17356W        W83787  18.179   6.751  13.612
17357W        W83788  21.724  39.015   0.390
17358W        W83789  26.627  41.344   2.546
17359W        W83790   5.805  13.526   2.286
17360W        W83791  11.703  41.075   0.996
17361W        W83792  26.730  26.600   4.381
17362W        W83793  32.066   9.597   2.415
17363W        W83794  22.036  20.087   2.223
17364W        W83795  28.967  19.534   1.807
17365W        W83796  19.574  25.999   1.875
17366W        W83797   6.459   6.014   2.356
17367W        W83798  42.448  10.214   1.146
17368W        W83799   1.270  40.642  12.457
17369W        W83800  11.737  22.233  13.327
17370W        W83801  15.094  41.317  13.933
17371W        W83802   9.100  19.267  14.226
17372W        W83803   1.423  43.561  11.814
17373W        W83804  35.202   6.080   4.053
17374W        W83805  44.706  34.954   2.271
17375W        W83806  23.952   9.903  14.069
17376W        W83807  31.354  23.590  11.144
17377W        W83808  43.356  18.608   0.478
17378W        W83809   4.150  12.190  11.174
17379W        W83810  32.578  17.078  13.889
17380W        W83811  27.822  17.295  11.424
17381W        W83812  13.874  21.013   2.836
17382W        W83813  18.390  43.349  10.570
17383W        W83814  33.030  16.527  11.692
17384W        W83815  35.405  24.708  12.871
17385W        W83816  35.095  24.002   4.631
17386W        W83817  33.599   0.326   4.071
17387W        W83818  38.956  30.981   3.659
17388W        W83819   5.976   6.906  14.075
17389W        W83820   9.765  13.053   2.207
17390W        W83821  39.316   9.419  12.015
17391W        W83822  14.759  30.710  13.178
17392W        W83823  32.382  24.477  13.218
17393W        W83824  10.369  42.089   0.272
17394W        W83825  35.378  42.770   0.942
17395W        W83826   7.754  23.111   2.588
17396W        W83827   9.595  17.774  13.904
17397W        W83828  43.090   1.658  11.234
17398W        W83829  27.407  34.578   1.813
17399W        W83830  28.912   6.408  12.946
17400W        W83831  11.684  19.791  12.633
17401W        W83832   5.198  13.853   0.172
17402W        W83833  27.098  44.351  11.170
17403W        W83834   8.896  16.172  13.701
17404W        W83835  22.055   1.396  14.231
17405W        W83836  43.987  21.681  12.548
17406W        W83837  25.480  12.176  11.271
17407W        W83838  44.827  39.058  10.826
17408W        W83839  37.862  34.861   3.627
17409W        W83840  21.508  40.260   2.026
17410W        W83841  12.251  35.751   4.784
17411W        W83842  40.292  39.312  13.912
17412W        W83843  31.020   1.167  12.586
17413W        W83844  32.338  15.317   1.172
17414W        W83845  35.604  32.247   0.021
17415W        W83846  17.049  36.567   0.535
17416W        W83847   8.873  11.367   5.026
17417W        W83848   2.395  10.032  10.706
17418W        W83849  11.431   7.335  11.010
17419W        W83850  40.374  41.799  11.609
17420W        W83851  25.457  29.943  11.516
17421W        W83852  30.928  12.996  10.389
17422W        W83853  21.764  11.601  11.703
17423W        W83854  12.865  14.673   1.283
17424W        W83855  36.272  42.985  13.624
17425W        W83856  29.567  17.829   3.704
17426W        W83857  12.800  17.595  11.559
17427W        W83858  31.131  12.897   0.595
17428W        W83859  29.805  42.752  13.404
17429W        W83860  39.703  14.587  12.866
17430W        W83861  15.348  17.192  11.602
17431W        W83862  14.152  18.570   1.484
17432W        W83863   1.766  31.211   2.393
17433W        W83864  35.605   0.512   1.942
17434W        W83865  39.521  32.968  11.585
17435W        W83866   2.556   8.363   4.892
17436W        W83867  41.561  18.041   4.620
17437W        W83868  23.147  38.831   2.590
17438W        W83869   9.687  36.127   2.323
17439W        W83870   2.474  38.357   3.635
17440W        W83871  28.730  26.736   0.739
17441W        W83872  17.425  31.410   1.858
17442W        W83873  31.980  40.297  12.855
17443W        W83874  34.619  42.294  12.189
17444W        W83875  28.670  16.131   2.392
17445W        W83876  23.705  36.955   4.925
17446W        W83877   4.344   0.342  13.880
17447W        W83878  21.777  30.970   1.663
17448W        W83879   3.317  43.037  14.392
17449W        W83880  33.647  12.231   2.726
17450W        W83881  37.500  28.340  10.973
17451W        W83882  32.419  29.601   2.311
17452W        W83883  19.744  36.865   3.161
17453W        W83884   7.359  17.831   0.869
17454W        W83885  44.390   9.412   3.127
17455W        W83886  14.659  18.813   4.070
17456W        W83887   1.319  22.966   3.588
17457W        W83888  28.499  37.963  12.168
17458W        W83889  42.112  25.000   5.123
17459W        W83890  22.403   0.955  14.934
17460W        W83891   8.595   6.515  11.515
17461W        W83892  32.895   7.025  11.548
17462W        W83893  21.132   4.887  13.992
17463W        W83894  36.367  26.952  13.441
17464W        W83895  32.580  21.397   1.771
17465W        W83896  42.047  26.714  14.538
17466W        W83897  12.283   3.941   1.209
17467W        W83898  12.348  18.599   0.938
17468W        W83899  25.735  37.578  11.569
17469W        W83900  44.937  21.204  10.712
17470W        W83901  37.216  44.089   0.517
17471W        W83902  38.453  10.528   1.357
17472W        W83903  30.323  17.568   1.661
17473W        W83904  31.064  23.585  12.448
17474W        W83905  24.544   9.742   4.567
17475W        W83906  38.510  13.444   2.422
17476W        W83907  15.770  32.873   2.863
17477W        W83908  24.477  39.352  14.439
17478W        W83909  14.292   6.929  12.105
17479W        W83910  23.523  22.628   4.591
17480W        W83911  10.848  23.298   2.860
17481W        W83912  44.795  41.512   3.362
17482W        W83913   6.188   1.531   2.192
17483W        W83914  26.116  12.179   4.762
17484W        W83915   5.124  23.381   3.889
17485W        W83916  29.036   6.921  10.660
17486W        W83917  34.972   7.363  10.828
17487W        W83918  34.827  41.398  13.373
17488W        W83919  34.926  40.883   1.702
17489W        W83920  34.140  24.165   3.563
17490W        W83921  18.868  34.487   3.198
17491W        W83922   1.372   2.824  14.738
17492W        W83923   5.707  30.992   4.664
17493W        W83924  12.707  27.583   0.247
17494W        W83925   3.839   9.231   0.279
17495W        W83926   3.258   0.698   3.707
17496W        W83927  21.221   1.719   1.477
17497W        W83928  40.124   9.105   3.176
17498W        W83929   7.353   7.840   0.324
17499W        W83930   0.295  23.802  11.527
17500W        W83931  36.713  29.376  14.347
17501W        W83932   8.204  34.195  14.005
17502W        W83933  11.346   6.025  12.076
17503W        W83934  27.653  41.791   0.464
17504W        W83935  38.605   2.238  10.623
17505W        W83936  16.280  16.831  10.958
17506W        W83937  31.888   9.303  13.940
17507W        W83938  44.272   8.722   2.576
17508W        W83939  15.353  27.280  12.180
17509W        W83940  40.293   4.286  14.226
17510W        W83941   9.394   0.345  10.633
17511W        W83942  31.886   7.238  14.482
17512W        W83943   5.617  10.271  11.494
17513W        W83944  22.049  35.998   0.647
17514W        W83945  42.977  26.216   1.409
17515W        W83946  23.701  12.851  12.885
17516W        W83947  22.135  43.334   5.049
17517W        W83948  31.913  41.447   2.173
17518W        W83949  35.833   7.769   2.406
17519W        W83950  42.554  33.606  11.744
17520W        W83951  10.951  27.989   3.439
17521W        W83952  16.171  18.288   2.241
17522W        W83953   1.916  13.566   0.276
17523W        W83954  29.870  24.856   1.152
17524W        W83955  41.347   6.469   3.726
17525W        W83956  10.784  38.842  10.686
17526W        W83957  42.806  20.474  11.128
17527W        W83958  19.091  16.355   4.352
17528W        W83959  26.140  14.101   1.484
17529W        W83960  16.837  29.655   4.338
17530W        W83961  34.520   9.450  13.490
17531W        W83962  14.306  20.767   3.733
17532W        W83963  24.849  41.016   3.191
17533W        W83964  10.694  40.293  12.368
17534W        W83965  29.384  24.679   3.566
17535W        W83966  28.013   7.139   4.033
17536W        W83967  27.435  39.919   1.587
17537W        W83968  20.143  41.268  12.484
17538W        W83969  37.571  40.066  11.736
17539W        W83970   2.079  15.458   1.798
17540W        W83971  31.475  15.108   1.768
17541W        W83972  10.625  29.653   1.734
17542W        W83973  26.952   3.283   3.737
17543W        W83974  43.560  39.400  14.333
17544W        W83975  22.390  20.802   4.391
17545W        W83976  24.760  31.121   1.151
17546W        W83977  19.284   5.424  11.478
17547W        W83978  34.827  27.983  10.472
17548W        W83979  32.442  25.748  11.080
17549W        W83980  19.883  27.464  14.195
17550W        W83981  19.766   0.428  10.476
17551W        W83982   9.481  16.651  12.514
17552W        W83983  23.248   1.952  14.728
17553W        W83984  28.252  32.564   2.751
17554W        W83985  29.040  39.212  13.305
17555W        W83986  39.011   6.324   0.674
17556W        W83987  16.011   4.277  13.579
17557W        W83988  39.067  16.621  12.001
17558W        W83989  26.992  10.319   1.002
17559W        W83990  34.683   0.400   4.126
17560W        W83991  11.173  27.738   1.243
17561W        W83992  29.359  23.929   3.221
17562W        W83993  10.780   3.501   3.681
17563W        W83994  38.092   3.184   0.661
17564W        W83995   1.698  18.513  13.914
17565W        W83996  27.089   8.958  12.316
17566W        W83997  12.219  23.928   2.788
17567W        W83998  30.578  36.737  11.203
17568W        W83999  31.053   3.223   1.638
17569W        W84000  19.806  23.675   0.563
17570W        W84001   2.259  37.580  11.971
17571W        W84002  15.752  25.537   3.412
17572W        W84003   6.457  42.874   0.297
17573W        W84004  16.196  40.716  12.213
17574W        W84005   9.386   2.680   4.036
17575W        W84006  11.901   6.892  14.339
17576W        W84007  21.811  24.437  14.140
17577W        W84008  37.088   8.320  12.675
17578W        W84009   1.112  33.137   0.717
17579W        W84010  35.159  39.843  14.998
17580W        W84011  19.611  22.501  13.007
17581W        W84012  39.326   9.628  13.358
17582W        W84013  38.164  37.586  10.654
17583W        W84014  29.391  42.261  10.722
17584W        W84015   3.688  17.172  13.711
17585W        W84016  30.391  18.636  14.535
17586W        W84017  30.207  24.705  10.489
17587W        W84018  40.838  43.359  14.806
17588W        W84019  10.125  25.496   1.731
17589W        W84020  31.832  32.084   1.858
17590W        W84021  16.807  32.383  12.027
17591W        W84022  19.827  24.208   5.068
17592W        W84023  25.409  13.715  14.895
17593W        W84024  17.542  35.479   2.346
17594W        W84025  37.742   9.739  14.320
17595W        W84026  37.488  17.810  11.467
17596W        W84027  14.648  16.275  12.443
17597W        W84028  30.741  22.881   4.925
17598W        W84029  27.659  37.021   4.645
17599W        W84030   7.600  37.802  13.842
17600W        W84031  23.757  13.991   1.451
17601W        W84032  16.601  26.132  13.822
17602W        W84033  10.152   0.750   5.214
17603W        W84034   4.854  38.355  13.344
17604W        W84035  41.041  36.350   1.232
17605W        W84036   2.844   6.996  10.584
17606W        W84037  40.731  27.978  13.461
17607W        W84038   1.285   8.798  11.039
17608W        W84039   5.634  11.792   2.887
17609W        W84040  16.396  40.064   0.498
17610W        W84041  26.766  37.448  11.591
17611W        W84042  26.057   2.276  10.973
17612W        W84043  34.117  21.292   3.224
17613W        W84044  39.022  39.394   0.377
17614W        W84045  23.419  42.091   1.200
17615W        W84046  43.860  14.218  10.695
17616W        W84047   4.098  29.277  10.287
17617W        W84048  15.140  20.981  12.552
17618W        W84049   2.168  43.431  12.900
17619W        W84050  24.009  35.454   2.082
17620W        W84051  32.087   6.426   3.278
17621W        W84052  27.705  12.314  10.568
17622W        W84053  12.273  44.514  10.671
17623W        W84054  32.548  29.022   0.388
17624W        W84055  28.594  18.435  11.122
17625W        W84056  39.844  36.017   2.345
17626W        W84057   6.628  24.574   4.859
17627W        W84058  35.966   9.959  14.082
17628W        W84059  12.541  11.301   4.893
17629W        W84060  34.352  32.840  12.927
17630W        W84061   2.329  33.886  14.095
17631W        W84062  29.987   3.623   0.422
17632W        W84063  17.255   8.934  11.906
17633W        W84064  14.654  43.522  14.428
17634W        W84065  15.306  19.208  12.025
17635W        W84066  28.043  14.307   0.184
17636W        W84067  20.970  18.770   5.473
17637W        W84068  20.221   4.979   0.881
17638W        W84069  39.956  41.623  11.846
17639W        W84070  19.579  30.730   3.662
17640W        W84071  10.509  10.791  14.730
17641W        W84072  21.708   5.801  11.870
17642W        W84073  11.625  36.508  13.974
17643W        W84074  20.369   3.994   3.329
17644W        W84075  20.568  14.603  13.413
17645W        W84076   8.440   8.798   3.604
17646W        W84077  10.638  27.572  11.912
17647W        W84078   2.691  14.727   3.113
17648W        W84079   3.313   4.249   4.731
17649W        W84080  29.457  24.884   9.963
17650W        W84081  12.365  12.544   3.376
17651W        W84082  27.413  31.955   4.579
17652W        W84083  19.323  12.589  13.403
17653W        W84084  15.678  30.320   2.608
17654W        W84085  31.317   7.911  11.595
17655W        W84086  28.300  39.451   3.704
17656W        W84087  40.959   7.879  13.518
17657W        W84088  41.902   8.491   1.711
17658W        W84089  11.261  43.458  12.930
17659W        W84090   0.233  42.830  12.670
17660W        W84091  19.223  35.174  14.304
17661W        W84092   6.110  40.915   1.498
17662W        W84093  10.807  30.617  14.846
17663W        W84094  41.590  26.591  14.387
17664W        W84095  15.357  39.522  14.898
17665W        W84096   9.860  23.907  10.556
17666W        W84097  26.576  33.435   3.744
17667W        W84098  44.402  35.116   3.591
17668W        W84099  22.248  43.448   1.219
17669W        W84100   9.239   5.843   1.267
17670W        W84101  15.684  23.200  12.679
17671W        W84102   6.412  24.768   0.496
17672W        W84103  39.066  40.564   4.386
17673W        W84104  21.619  29.664   1.247
17674W        W84105  15.845   4.196  14.455
17675W        W84106   5.656   2.994   4.274
17676W        W84107  15.703  13.432  14.796
17677W        W84108  16.207  22.272   4.211
17678W        W84109  29.041  32.600   4.338
17679W        W84110   3.824  24.049  12.286
17680W        W84111   7.377  12.852   1.681
17681W        W84112  13.864   7.240  12.946
17682W        W84113  23.185  20.565  11.338
17683W        W84114  22.640   3.480   1.183
17684W        W84115   3.596  37.481  14.514
17685W        W84116  44.244  41.864  10.329
17686W        W84117  22.338   2.907  13.357
17687W        W84118   9.717  44.794  11.154
17688W        W84119  43.518  37.625   3.868
17689W        W84120  42.959  20.657   4.531
17690W        W84121  26.963  19.679   3.611
17691W        W84122  22.006  28.672  13.889
17692W        W84123  38.418   0.225   1.188
17693W        W84124   8.738  16.965  12.793
17694W        W84125  10.393  19.759   1.437
17695W        W84126  40.121  12.005   4.188
17696W        W84127  30.936   5.327   3.697
17697W        W84128  43.802  38.803  11.498
17698W        W84129  13.772  44.392   2.603
17699W        W84130  18.649   9.359  13.417
17700W        W84131  43.011  27.201  13.583
17701W        W84132  13.578  19.230   4.114
17702W        W84133  36.656   9.859   4.876
17703W        W84134  32.281  30.111  11.254
17704W        W84135  21.175   7.492  13.046
17705W        W84136  20.699  28.882  14.930
17706W        W84137  42.266  33.069  12.840
17707W        W84138  29.046  29.609  14.868
17708W        W84139  13.152  19.938  11.780
17709W        W84140  10.542  18.928   4.083
17710W        W84141  22.944  22.095   2.208
17711W        W84142  38.824  35.426   2.261
17712W        W84143  33.375  11.427  10.324
17713W        W84144   7.668  40.353   4.394
17714W        W84145  27.430  34.311  10.765
17715W        W84146  24.189  37.059   2.848
17716W        W84147  40.844  31.761  14.371
17717W        W84148  23.065  25.648   4.151
17718W        W84149  16.821  44.513  12.332
17719W        W84150  20.161  34.606  11.135
17720W        W84151  33.542  25.520   3.017
17721W        W84152  15.042   8.131  13.805
17722W        W84153  25.518  23.174   0.470
17723W        W84154  32.975   2.592  14.076
17724W        W84155  31.842  28.554   1.643
17725W        W84156   3.128  20.529  14.264
17726W        W84157   7.799  22.163   5.088
17727W        W84158  10.136  40.299   1.455
17728W        W84159  13.600  44.829  14.009
17729W        W84160   1.453   7.108   4.707
17730W        W84161  23.692   5.151  13.865
17731W        W84162  19.366  33.100  13.021
17732W        W84163  11.302  36.516   1.869
17733W        W84164   6.878  20.710  10.884
17734W        W84165  23.003  35.059   1.852
17735W        W84166  22.544  35.686   5.025
17736W        W84167  36.982  19.510   1.290
17737W        W84168  16.091  28.990  12.977
17738W        W84169   5.757  15.564  11.783
17739W        W84170  10.038   3.526   5.245
17740W        W84171  37.967   3.501  11.638
17741W        W84172   0.731   1.449   3.583
17742W        W84173  35.493  21.457   4.855
17743W        W84174  26.004  25.357   1.642
17744W        W84175   2.882   9.762   1.179
17745W        W84176   9.682  13.704  10.729
17746W        W84177   9.442  28.183   3.662
17747W        W84178   2.717  40.839   1.729
17748W        W84179  19.548   1.814   0.702
17749W        W84180  25.041   7.864  13.281
17750W        W84181  44.905  18.154   2.695
17751W        W84182  13.845  23.761   2.345
17752W        W84183  38.944  27.004   4.831
17753W        W84184  31.513  29.169   0.531
17754W        W84185  33.571  42.282   1.655
17755W        W84186  16.409   2.836  11.159
17756W        W84187  17.070  15.771   3.036
17757W        W84188  14.190  31.426  13.965
17758W        W84189   8.442   9.829  11.638
17759W        W84190  38.467   4.227  11.547
17760W        W84191  28.043   0.045   1.730
17761W        W84192  21.241  41.729   3.079
17762W        W84193  28.221  25.443   2.394
17763W        W84194  12.212   9.707   2.573
17764W        W84195  19.060  32.672  14.718
17765W        W84196   3.805  29.104   1.119
17766W        W84197  19.149  44.046   1.247
17767W        W84198   2.328  14.274  10.228
17768W        W84199   9.400  41.335  12.687
17769W        W84200  25.133  42.337   4.324
17770W        W84201  16.274  19.596   2.826
17771W        W84202  24.728  37.955   1.730
17772W        W84203  33.030  28.827  13.013
17773W        W84204   9.549  32.991   4.435
17774W        W84205  40.507  40.778   2.674
17775W        W84206  42.147   6.744   1.801
17776W        W84207  32.798  11.272   0.290
17777W        W84208  15.794   0.805   1.756
17778W        W84209  17.177  33.375   2.439
17779W        W84210  43.821  40.015   4.142
17780W        W84211  20.908  16.807   0.793
17781W        W84212  11.213  15.840  14.703
17782W        W84213  28.737  36.982  11.444
17783W        W84214  15.247  28.273  10.348
17784W        W84215  19.286  30.996   2.886
17785W        W84216  38.852  35.657  12.510
17786W        W84217  31.439  10.290   3.302
17787W        W84218  12.182  34.937   3.029
17788W        W84219  38.174   1.288   0.361
17789W        W84220  34.347  30.609   2.700
17790W        W84221  27.260  11.634   2.862
17791W        W84222  19.551  34.764   1.559
17792W        W84223  33.687  44.294  12.555
17793W        W84224  28.900  36.508  10.704
17794W        W84225  22.945  10.962   0.308
17795W        W84226  13.552  17.230  12.092
17796W        W84227  23.592   1.327  13.122
17797W        W84228  28.976   8.779   3.784
17798W        W84229   3.050  33.998   4.142
17799W        W84230  10.316  44.337   4.266
17800W        W84231  26.246   4.398   3.325
17801W        W84232  21.328  10.389  14.124
17802W        W84233  22.413  34.813  11.059
17803W        W84234  33.596  43.350   1.157
17804W        W84235  23.955  17.740  10.686
17805W        W84236  40.774  14.198  14.939
17806W        W84237  31.135  32.647   3.217
17807W        W84238  30.047  32.993   0.012
17808W        W84239  32.505  38.997  10.121
17809W        W84240  14.200  35.798  14.648
17810W        W84241   3.543  35.868   2.305
17811W        W84242  17.927  29.320   3.312
17812W        W84243  32.045  12.567   1.099
17813W        W84244  23.661  34.091  13.841
17814W        W84245  10.232  29.973  12.901
17815W        W84246  15.162  10.234   3.694
17816W        W84247   4.266  39.825  12.952
17817W        W84248  19.584  18.577  10.974
17818W        W84249  15.129   5.312  11.572
17819W        W84250   9.908  34.034  10.919
17820W        W84251  42.579  10.573  14.866
17821W        W84252  20.843   8.061   2.388
17822W        W84253  18.865   1.257  11.914
17823W        W84254  35.116   9.938  13.898
17824W        W84255  16.190   8.234  11.506
17825W        W84256   4.947  21.845  14.349
17826W        W84257   6.846  20.381   3.470
17827W        W84258  32.568  20.265   4.143
17828W        W84259  11.009  39.288  10.853
17829W        W84260  37.925   9.997  12.544
17830W        W84261  42.426   4.337   2.237
17831W        W84262   5.907  27.257   0.510
17832W        W84263   8.135  43.825  12.449
17833W        W84264  18.218  35.934   3.896
17834W        W84265  20.687   7.469   4.054
17835W        W84266  32.531  19.310   2.439
17836W        W84267  44.593  15.072   3.336
17837W        W84268  24.071  38.926   4.086
17838W        W84269   9.908   7.821   0.125
17839W        W84270  17.837   5.432  14.921
17840W        W84271   1.424  11.698  13.393
17841W        W84272   9.382   1.895   0.945
17842W        W84273  21.532  26.238  13.571
17843W        W84274   5.963  29.530   3.755
17844W        W84275  26.166  20.107   0.260
17845W        W84276  41.541   7.599  10.813
17846W        W84277  14.804  10.780   4.569
17847W        W84278  17.824  26.536  10.012
17848W        W84279  26.875  10.376  12.551
17849W        W84280   0.646  40.284   0.869
17850W        W84281  30.553   6.420   1.334
17851W        W84282  43.076  44.276   4.677
17852W        W84283   9.095  35.000   3.656
17853W        W84284  11.646  36.535  10.687
17854W        W84285  37.486  19.033  12.159
17855W        W84286  28.580  42.130  13.591
17856W        W84287  16.599  43.089  12.555
17857W        W84288  35.328  41.772   4.126
17858W        W84289  37.855   3.519   2.369
17859W        W84290  23.241  18.243   0.815
17860W        W84291  10.906  16.731  11.469
17861W        W84292  24.283   5.246   2.488
17862W        W84293  28.189   9.876   3.888
17863W        W84294   8.940  15.771  10.751
17864W        W84295  20.089  40.800  10.645
17865W        W84296  15.489   6.834   3.573
17866W        W84297  27.157   8.751  11.025
17867W        W84298  28.531   4.152   5.746
17868W        W84299  16.212  11.084  14.857
17869W        W84300  36.270  25.500   1.425
17870W        W84301   2.281  38.244   2.749
17871W        W84302  15.493  30.573  11.074
17872W        W84303   6.937   7.103   4.254
17873W        W84304  27.534  27.836  14.420
17874W        W84305  15.782  39.153  14.885
17875W        W84306  36.028  41.337   4.184
17876W        W84307   7.284   0.194   0.027
17877W        W84308  30.467  10.179   4.474
17878W        W84309  12.226  12.784   3.811
17879W        W84310  40.132   4.243   4.221
17880W        W84311  43.546   5.417  14.781
17881W        W84312  12.623  11.059  12.816
17882W        W84313  22.973  43.290  12.912
17883W        W84314   9.813  23.337   1.300
17884W        W84315  33.031   8.185   3.920
17885W        W84316  38.427   9.929  12.181
17886W        W84317  16.168  10.321  12.546
17887W        W84318  16.770  11.247   3.799
17888W        W84319   7.907  30.454  14.867
17889W        W84320  16.379  35.642  12.357
17890W        W84321   1.260   2.384   2.639
17891W        W84322  33.173  32.907   9.768
17892W        W84323  16.586  41.932   2.240
17893W        W84324  36.298  33.637  11.969
17894W        W84325  13.333  35.656  12.926
17895W        W84326   5.237  10.462  13.351
17896W        W84327  14.740  30.615  14.897
17897W        W84328  21.587   1.704  12.093
17898W        W84329  24.902  29.548   1.818
17899W        W84330   5.304  36.820   3.258
17900W        W84331  41.269   6.187  13.815
17901W        W84332  35.444  20.255   4.194
17902W        W84333   5.145  12.597   2.261
17903W        W84334  27.079  36.838  12.628
17904W        W84335  23.239  11.697  11.543
17905W        W84336  38.689   8.278  12.601
17906W        W84337  25.082   4.932   3.106
17907W        W84338  11.970  38.872   5.014
17908W        W84339  29.490  27.769   3.626
17909W        W84340  39.426  33.144   4.945
17910W        W84341  37.364  39.845   3.966
17911W        W84342  28.575   5.355  10.971
17912W        W84343  26.084   5.161   3.787
17913W        W84344   6.142  11.232   1.172
17914W        W84345  39.882  17.880   1.369
17915W        W84346  40.077  21.654   2.357
17916W        W84347  15.989  21.537   1.276
17917W        W84348   2.708  28.216   2.328
17918W        W84349   0.351  31.673   1.483
17919W        W84350  40.430   0.504  13.169
17920W        W84351  39.712  35.211  14.306
17921W        W84352  18.327  24.092   2.663
17922W        W84353  41.534  41.095   4.179
17923W        W84354  14.209  23.712   0.426
17924W        W84355  26.567  44.559   4.202
17925W        W84356   8.709  33.581   1.181
17926W        W84357  37.605  42.838   2.252
17927W        W84358  20.542   4.792   3.305
17928W        W84359  35.501  20.309  13.933
17929W        W84360  24.092  26.741   1.006
17930W        W84361  31.302   5.592   2.199
17931W        W84362  19.133  31.127  13.429
17932W        W84363  10.264   5.926  10.813
17933W        W84364  20.627  20.315  13.458
17934W        W84365  20.444  33.325  13.008
17935W        W84366  42.986  27.421   3.728
17936W        W84367  26.184   8.393   1.850
17937W        W84368  33.579  29.102   4.775
17938W        W84369  33.933   6.659   2.753
17939W        W84370  31.501  22.054  10.968
17940W        W84371   9.210   6.359   0.589
17941W        W84372  13.569  10.894  14.343
17942W        W84373   5.365  12.690  10.675
17943W        W84374  44.737   3.150  11.098
17944W        W84375  38.426   5.287   3.743
17945W        W84376   0.496  28.013  13.888
17946W        W84377  12.658  38.092  13.421
17947W        W84378  34.858   7.342  14.530
17948W        W84379   9.784  22.876  13.659
17949W        W84380  32.283  21.306   4.980
17950W        W84381  40.836  37.497   4.826
17951W        W84382  38.912  34.837   3.704
17952W        W84383  17.584  39.924  12.273
17953W        W84384  38.659   6.936   4.190
17954W        W84385  23.640  16.090  12.413
17955W        W84386   5.705  31.480   3.684
17956W        W84387  13.146  14.531  11.217
17957W        W84388  29.983  25.178   4.543
17958W        W84389  25.231  12.977  11.167
17959W        W84390  42.832  11.165  12.885
17960W        W84391  30.080  43.706  13.452
17961W        W84392  39.777  10.502   0.314
17962W        W84393   9.251  22.034   3.303
17963W        W84394  40.163   9.388   3.619
17964W        W84395  40.298  11.195  10.988
17965W        W84396  15.225   3.330   1.532
17966W        W84397  34.555  23.385  12.823
17967W        W84398  20.355   5.249   0.430
17968W        W84399  43.293  29.614  12.040
17969W        W84400  15.154   4.616   1.469
17970W        W84401  26.470  19.727  12.028
17971W        W84402  13.037  25.065  12.679
17972W        W84403  16.805  26.219   2.165
17973W        W84404  38.202  35.663  11.178
17974W        W84405   0.936  12.136  12.497
17975W        W84406  44.394   7.155  12.718
17976W        W84407  38.153  27.052  11.591
17977W        W84408   3.288  35.090   2.753
17978W        W84409  37.576  38.271   4.050
17979W        W84410  11.986   7.590  14.069
17980W        W84411  15.323  10.686  12.970
17981W        W84412  26.818  29.894  11.981
17982W        W84413  32.564  33.098  12.420
17983W        W84414  16.686  37.545   1.769
17984W        W84415  23.469  26.523   3.195
17985W        W84416  33.455   7.489   0.823
17986W        W84417   4.551  30.455   5.298
17987W        W84418  20.972  41.961   3.999
17988W        W84419  35.066  17.507   2.722
17989W        W84420  11.386   9.424   1.792
17990W        W84421  30.373  14.302  14.728
17991W        W84422  39.330  12.620   3.622
17992W        W84423  40.427   7.227   3.341
17993W        W84424   3.893  20.673   4.030
17994W        W84425  29.908  40.496   4.594
17995W        W84426  15.047  13.149  12.148
17996W        W84427   4.429  14.169  14.996
17997W        W84428  22.063  37.045   4.140
17998W        W84429  41.356  19.206  11.188
17999W        W84430   2.788   4.226  10.955
18000W        W84431  18.810  21.698  14.965
18001W        W84432   6.284  35.466  12.002
18002W        W84433  42.555   7.394  13.072
18003W        W84434  36.807  34.056  12.623
18004W        W84435  36.337   6.422  12.408
18005W        W84436  34.376   4.308   1.208
18006W        W84437   2.841  31.980   3.222
18007W        W84438  22.159  43.752  13.554
18008W        W84439  14.599  11.704  13.564
18009W        W84440   4.889   0.995  14.361
18010W        W84441  31.413  10.356   1.328
18011W        W84442  24.216  28.590   4.965
18012W        W84443  11.226  33.064  10.513
18013W        W84444  33.599  41.523  13.074
18014W        W84445  10.668  15.197   2.341
18015W        W84446  41.009  22.218   4.537
18016W        W84447  36.360  19.669  11.519
18017W        W84448  26.590  24.576  10.734
18018W        W84449  10.009  38.004   2.263
18019W        W84450   4.803  25.664  14.986
18020W        W84451   4.888  23.074  13.605
18021W        W84452  37.338   0.898  14.389
18022W        W84453  31.632  32.698  10.662
18023W        W84454   7.844  15.099  14.892
18024W        W84455  41.628  11.968  13.302
18025W        W84456  12.777  42.911  14.702
18026W        W84457  32.802  30.982   4.697
18027W        W84458  38.957  44.674  12.628
18028W        W84459  43.900  10.167   0.439
18029W        W84460  10.020  15.649   4.362
18030W        W84461  19.975  19.340   4.081
18031W        W84462  10.570  13.338   4.185
18032W        W84463  10.804  29.820  14.393
18033W        W84464   3.107   9.145   2.946
18034W        W84465  31.688   5.312   2.379
18035W        W84466  26.710  13.217  11.157
18036W        W84467  21.054  17.222  12.432
18037W        W84468   3.159  40.479  14.200
18038W        W84469  34.431  30.653  10.205
18039W        W84470  22.683  17.508   1.371
18040W        W84471   9.856   9.883  14.742
18041W        W84472  30.528   7.062   4.669
18042W        W84473  32.511  43.025  14.307
18043W        W84474   7.449  18.084   3.222
18044W        W84475   6.871  23.168   2.160
18045W        W84476  11.272   3.162   2.806
18046W        W84477   6.188  30.787   0.288
18047W        W84478  10.329   1.723  14.494
18048W        W84479  16.784  17.277   4.539
18049W        W84480   2.271  12.593   1.885
18050W        W84481  42.006  29.520  13.278
18051W        W84482  42.761  30.099  14.793
18052W        W84483   0.627  12.275   3.579
18053W        W84484  35.816  25.239   4.758
18054W        W84485  40.229  27.969  11.381
18055W        W84486  16.175  12.391   2.238
18056W        W84487   1.363  40.579   2.891
18057W        W84488  39.465  40.118   0.848
18058W        W84489  13.657  20.068   1.677
18059W        W84490  16.317  36.201  13.866
18060W        W84491  30.452  38.575   2.890
18061W        W84492   1.917  42.817   2.117
18062W        W84493   7.864  41.314  12.019
18063W        W84494  23.434  13.193  11.619
18064W        W84495  12.256  16.000   3.116
18065W        W84496   0.995   3.310  10.787
18066W        W84497   4.915  15.225   2.813
18067W        W84498  43.115  39.352   0.494
18068W        W84499  12.099  38.799  14.947
18069W        W84500   7.228   5.984   0.351
18070W        W84501  20.420  31.550   3.146
18071W        W84502  13.470  30.184   4.144
18072W        W84503  38.275  17.602  12.352
18073W        W84504   2.502   4.369   2.456
18074W        W84505  37.537  13.807   0.766
18075W        W84506  41.906  10.897  11.105
18076W        W84507  39.188  26.128   3.625
18077W        W84508  21.175  23.800  14.296
18078W        W84509  33.018   7.461   3.343
18079W        W84510   1.542  16.216  10.974
18080W        W84511  12.346  41.823   0.360
18081W        W84512  16.964  19.521   2.330
18082W        W84513  14.146   3.544  14.002
18083W        W84514  24.203  28.605  12.561
18084W        W84515   9.273  38.740   1.766
18085W        W84516  14.288  30.288   4.595
18086W        W84517  24.830  22.351   2.808
18087W        W84518  14.571   2.187   1.742
18088W        W84519   3.741  16.898   1.249
18089W        W84520   3.505  15.773   4.502
18090W        W84521  42.179  32.884   4.102
18091W        W84522  37.345  35.850   0.036
18092W        W84523  39.808  26.897  13.985
18093W        W84524  32.000  29.851   1.813
18094W        W84525  37.703  40.076   5.136
18095W        W84526  34.872  24.028   2.437
18096W        W84527   5.283  26.197  11.487
18097W        W84528  40.842  27.226   4.732
18098W        W84529   5.160  44.955  12.558
18099W        W84530  15.610  24.066   1.326
18100W        W84531   2.439  17.690  10.368
18101W        W84532   1.460  29.043   2.922
18102W        W84533  17.034  18.600  13.806
18103W        W84534  13.588  19.910   0.187
18104W        W84535   3.167   9.999   2.225
18105W        W84536  12.730  17.268  12.873
18106W        W84537  35.284  23.040  12.986
18107W        W84538  31.084   8.708   2.717
18108W        W84539  18.189  30.174  13.518
18109W        W84540  19.952  37.526  13.938
18110W        W84541  38.952  30.436   2.895
18111W        W84542  18.078  37.067   2.871
18112W        W84543  12.842  33.061  13.994
18113W        W84544  34.916  23.205   2.129
18114W        W84545  16.715  26.599  14.634
18115W        W84546  18.535   2.530  14.900
18116W        W84547  30.232  33.039  12.026
18117W        W84548  40.848  29.074  13.129
18118W        W84549  12.922  42.301   2.416
18119W        W84550  32.682  18.471  13.871
18120W        W84551  31.520  11.096   3.899
18121W        W84552  26.181   7.225   2.290
18122W        W84553   6.627   3.451  12.968
18123W        W84554  31.229  28.165   1.380
18124W        W84555  15.195   4.789   0.021
18125W        W84556  23.976  36.500   1.561
18126W        W84557   1.160  16.220  14.768
18127W        W84558  20.223  14.341  13.073
18128W        W84559  30.080  25.507  12.792
18129W        W84560  42.798  33.230   4.055
18130W        W84561  37.499  25.071   0.265
18131W        W84562  11.525  42.194  12.463
18132W        W84563  33.520  13.121   0.475
18133W        W84564  29.365  40.543   4.560
18134W        W84565   9.806  35.805   0.955
18135W        W84566  40.930   5.671   3.609
18136W        W84567   3.423  43.464  14.135
18137W        W84568  12.177   9.454   4.349
18138W        W84569   7.634  13.944   3.771
18139W        W84570  12.212   3.466  11.434
18140W        W84571  15.646  38.486   2.365
18141W        W84572  27.917   4.986  10.129
18142W        W84573  21.857  36.974  12.443
18143W        W84574  29.443  28.001  12.629
18144W        W84575  37.741  16.332  14.015
18145W        W84576   5.572   5.154  13.228
18146W        W84577  29.647  24.124  12.903
18147W        W84578  18.423  13.024  11.681
18148W        W84579   1.687  13.444  14.813
18149W        W84580  43.062  23.326   2.580
18150W        W84581  31.138  26.526   0.700
18151W        W84582  10.852  22.589   4.452
18152W        W84583  20.803  22.286  12.685
18153W        W84584  16.831  11.293  12.216
18154W        W84585  19.308  35.094  11.631
18155W        W84586  30.583  31.267  12.936
18156W        W84587   1.730  29.723  10.759
18157W        W84588  40.833  31.352  13.528
18158W        W84589   4.757  13.845   2.762
18159W        W84590  26.201  25.612   1.242
18160W        W84591  36.038  20.978  13.470
18161W        W84592  12.668  18.740  14.103
18162W        W84593  13.823  13.154   3.337
18163W        W84594  27.917  19.770  11.263
18164W        W84595  31.625   4.385   4.477
18165W        W84596  17.571  10.215   3.666
18166W        W84597  10.167  17.323   0.758
18167W        W84598  19.913  13.532   3.080
18168W        W84599  33.014  42.564  13.434
18169W        W84600  21.580  27.479   2.340
18170W        W84601  22.461  43.897   1.051
18171W        W84602   2.447  34.796  12.577
18172W        W84603   3.262  37.723  11.916
18173W        W84604   2.908  35.092  11.823
18174W        W84605  30.513   2.763  11.015
18175W        W84606   8.942  24.417  14.809
18176W        W84607  18.442   7.890   1.922
18177W        W84608  27.424   7.874   2.178
18178W        W84609   7.162  22.065   3.561
18179W        W84610  31.992  19.602  11.170
18180W        W84611  43.494   5.480  12.959
18181W        W84612  18.486  36.954  12.520
18182W        W84613  13.040  40.055  11.069
18183W        W84614   9.060   9.556   1.340
18184W        W84615  10.802  35.530  10.874
18185W        W84616  42.367   0.125  10.697
18186W        W84617  20.698  13.196   3.269
18187W        W84618  12.872  23.388   0.416
18188W        W84619  26.953   6.686  11.880
18189W        W84620  40.087   5.854  13.563
18190W        W84621  43.975  24.915   2.232
18191W        W84622  15.921  32.433  14.894
18192W        W84623   2.937  20.975  13.003
18193W        W84624  12.604  27.560  10.506
18194W        W84625  27.189  39.949   5.205
18195W        W84626  15.461  42.464  11.940
18196W        W84627  21.027   2.316  13.437
18197W        W84628  32.437  41.838   3.997
18198W        W84629   0.214   6.384   3.152
18199W        W84630  42.596  37.113  13.534
18200W        W84631  30.169  34.136   0.721
18201W        W84632   6.255  42.390   4.346
18202W        W84633  35.401  39.719   1.202
18203W        W84634   2.187  35.037  13.520
18204W        W84635  21.131  31.628   2.780
18205W        W84636  14.541  33.844  14.019
18206W        W84637  24.511  17.858  14.752
18207W        W84638  25.756  33.853   3.556
18208W        W84639  28.471  28.901  10.490
18209W        W84640  11.283  11.208   0.020
18210W        W84641  10.612  28.693  12.115
18211W        W84642   5.636   6.306  11.814
18212W        W84643   1.416  38.082   0.486
18213W        W84644   5.669   8.323  11.660
18214W        W84645  41.835   9.488  11.800
18215W        W84646   5.769  11.775   1.872
18216W        W84647  37.462  15.907   9.712
18217W        W84648  19.297  16.309  14.662
18218W        W84649   2.010  36.099  14.229
18219W        W84650   6.228   0.011  13.969
18220W        W84651  11.379  35.426  14.832
18221W        W84652  17.078  43.356   3.672
18222W        W84653   3.774   8.851   1.055
18223W        W84654  31.701  26.055  12.144
18224W        W84655  14.293  36.047   2.235
18225W        W84656  41.028  27.052  14.778
18226W        W84657  39.467  42.150  10.131
18227W        W84658  30.501  38.150  13.387
18228W        W84659  42.344  40.043   4.812
18229W        W84660  36.513  10.826  14.606
18230W        W84661  15.706  19.587   4.251
18231W        W84662   5.413  15.489   0.251
18232W        W84663   6.083  11.502  12.162
18233W        W84664  11.157  39.390  12.729
18234W        W84665  10.232   2.209  14.356
18235W        W84666  27.127   2.874   0.342
18236W        W84667  24.095  17.642   1.813
18237W        W84668   6.294  25.178  12.430
18238W        W84669  21.575  16.186   4.632
18239W        W84670  25.935   8.242   1.450
18240W        W84671  23.552  30.291  14.316
18241W        W84672  37.668   2.969  11.175
18242W        W84673  32.620  26.204  14.726
18243W        W84674  41.893  44.698   3.133
18244W        W84675  32.622  12.805   2.401
18245W        W84676  23.106  37.070  14.422
18246W        W84677  22.100  35.408   3.382
18247W        W84678  40.833  43.456   1.503
18248W        W84679  41.931  34.425  14.474
18249W        W84680  25.857  19.434   1.267
18250W        W84681  41.267   8.850   4.212
18251W        W84682  21.302  23.659   3.557
18252W        W84683  13.327  36.423   4.356
18253W        W84684  28.999  27.596   4.496
18254W        W84685  41.324  12.418  13.441
18255W        W84686  28.068  12.187  13.905
18256W        W84687   8.292  27.211  13.094
18257W        W84688  38.120  30.872  13.345
18258W        W84689  34.553  25.093  14.209
18259W        W84690   3.803  11.209  14.886
18260W        W84691   7.432  44.456  14.932
18261W        W84692   4.482  35.628  13.629
18262W        W84693  16.858   4.852  10.261
18263W        W84694  42.754  10.766   1.177
18264W        W84695  25.137  21.888   0.567
18265W        W84696  40.144  44.172  13.370
18266W        W84697  43.991  26.470   3.188
18267W        W84698   1.657  19.285  11.089
18268W        W84699  33.150  26.620   2.861
18269W        W84700  33.501  10.859   3.895
18270W        W84701   4.959  21.529   2.291
18271W        W84702  30.189  26.197   2.211
18272W        W84703  10.902  25.456   1.018
18273W        W84704  35.145  35.466  10.750
18274W        W84705   7.696   8.752  14.457
18275W        W84706  23.492   9.954  10.751
18276W        W84707  10.684  21.187   4.610
18277W        W84708   8.120  32.689   3.163
18278W        W84709  16.614  17.168   3.195
18279W        W84710  17.252  21.622  12.010
18280W        W84711  14.678  40.080   2.084
18281W        W84712  17.506  26.046  14.418
18282W        W84713  12.090   3.433   4.602
18283W        W84714  21.656  27.285  11.135
18284W        W84715   2.904  17.679  13.269
18285W        W84716  29.221  18.515   2.624
18286W        W84717  17.049  40.534  13.789
18287W        W84718  25.019   3.567   2.078
18288W        W84719  15.320   5.666  12.150
18289W        W84720  31.182  14.070  11.091
18290W        W84721  21.236  14.531  14.323
18291W        W84722  36.138  17.163  13.789
18292W        W84723  30.959  40.930  13.762
18293W        W84724  24.548  39.798  12.420
18294W        W84725   1.200  42.410  10.660
18295W        W84726  23.463  18.176   2.068
18296W        W84727  37.841  29.851   1.859
18297W        W84728  24.247  34.510  13.338
18298W        W84729  40.334  27.946   1.837
18299W        W84730  39.038  27.232  10.406
18300W        W84731  24.581   4.732   3.226
18301W        W84732   5.432  26.082   4.351
18302W        W84733  39.287  12.263  14.295
18303W        W84734  24.890   8.783  11.620
18304W        W84735  19.178  16.498  12.083
18305W        W84736  20.708   3.873  12.640
18306W        W84737  29.974  30.418  13.051
18307W        W84738  42.823  21.021   0.992
18308W        W84739   6.883  41.537  11.996
18309W        W84740  36.010  19.590  13.916
18310W        W84741  26.265  11.200   4.781
18311W        W84742  39.939  40.403  14.299
18312W        W84743  43.502  43.088  14.303
18313W        W84744  38.246  42.897   1.111
18314W        W84745  29.177  43.980  14.844
18315W        W84746  20.326  14.855   0.995
18316W        W84747  23.340  10.292  13.977
18317W        W84748  29.947  20.512   3.172
18318W        W84749   3.345  17.691  10.570
18319W        W84750  39.272  30.246   9.795
18320W        W84751  29.145  28.422   2.226
18321W        W84752  18.170  26.752  12.636
18322W        W84753   7.253  16.335  12.154
18323W        W84754  15.534  13.106  11.995
18324W        W84755  11.077  21.616   3.599
18325W        W84756  30.423  28.218  13.679
18326W        W84757  28.664   0.376   1.836
18327W        W84758  12.234  23.771   0.308
18328W        W84759   3.153  44.313  14.919
18329W        W84760  13.663   2.264  13.793
18330W        W84761  44.194  15.865   2.898
18331W        W84762  33.183  13.834  13.864
18332W        W84763  24.546  20.016  12.876
18333W        W84764  40.514  38.347  11.991
18334W        W84765  17.759  27.910   0.860
18335W        W84766  19.091   4.610   2.318
18336W        W84767   2.509  14.090  11.509
18337W        W84768   7.390  36.536   3.840
18338W        W84769   6.490  18.244   0.790
18339W        W84770  43.310  43.092  11.187
18340W        W84771   4.525  20.485   4.094
18341W        W84772  34.308  16.612  13.611
18342W        W84773  30.691  32.584   0.982
18343W        W84774  38.402  16.080   2.293
18344W        W84775  16.729  15.714   0.250
18345W        W84776  21.892   7.516   0.003
18346W        W84777   8.201   2.657  14.040
18347W        W84778  41.551  24.123   4.856
18348W        W84779  11.160  40.526  10.664
18349W        W84780  27.000   2.899  12.980
18350W        W84781   7.846  29.730   1.370
18351W        W84782  19.609  15.872   2.208
18352W        W84783  37.064   6.758   0.392
18353W        W84784  30.386  24.072  14.638
18354W        W84785  31.392  39.732  13.867
18355W        W84786  21.272  43.594  10.134
18356W        W84787  35.480  22.111   3.077
18357W        W84788  40.880  39.006  14.211
18358W        W84789  41.967  40.333   3.245
18359W        W84790  41.556  29.937  14.434
18360W        W84791  14.731  18.515   2.769
18361W        W84792   9.459  19.127  14.594
18362W        W84793  43.096   5.735  14.834
18363W        W84794  27.501   0.965  11.955
18364W        W84795  42.843   4.675   1.324
18365W        W84796  16.894  29.815  12.300
18366W        W84797  15.160  25.966  11.684
18367W        W84798  21.445  14.790  12.002
18368W        W84799   7.290   3.260  12.111
18369W        W84800  40.791  29.491  12.372
18370W        W84801  22.086  21.844   3.535
18371W        W84802  44.850  26.711  11.151
18372W        W84803  33.031  17.942   2.036
18373W        W84804  19.609  15.694   5.000
18374W        W84805  13.807  43.487   2.743
18375W        W84806   8.821  24.959  11.700
18376W        W84807  24.724  42.285  10.568
18377W        W84808  17.378  38.361   1.860
18378W        W84809  16.642  32.669   2.475
18379W        W84810  22.012   5.876   2.652
18380W        W84811   7.645  36.034   3.127
18381W        W84812  34.993  28.857  14.766
18382W        W84813  17.314  36.852   3.074
18383W        W84814  32.867  16.750   1.303
18384W        W84815  10.085  36.056   0.200
18385W        W84816   2.370   2.741  13.225
18386W        W84817  41.451  25.601  13.900
18387W        W84818   5.511  25.636  14.922
18388W        W84819  25.195  33.562   0.682
18389W        W84820  27.097  10.175   0.509
18390W        W84821  41.295  43.492   1.203
18391W        W84822  14.689  10.712   1.350
18392W        W84823  44.380   3.979   2.251
18393W        W84824  32.861  10.416   1.230
18394W        W84825   1.203  25.205   3.225
18395W        W84826  19.256  27.756  12.098
18396W        W84827  12.573  14.740   3.251
18397W        W84828  22.053  33.844   2.789
18398W        W84829  26.030  11.291  10.912
18399W        W84830   3.852  26.093  14.703
18400W        W84831  24.485  41.029  12.214
18401W        W84832  18.442  23.004  10.436
18402W        W84833  28.588   8.290   0.240
18403W        W84834  25.672   4.814   1.762
18404W        W84835  14.048   4.726  13.128
18405W        W84836  28.456  19.571   1.303
18406W        W84837  17.765  20.200  13.523
18407W        W84838   9.617  43.822  12.128
18408W        W84839  35.471  18.874   2.343
18409W        W84840  16.039  18.244  10.417
18410W        W84841   3.748  24.449  11.759
18411W        W84842  13.384  20.880   3.598
18412W        W84843  26.116  44.390   3.116
18413W        W84844   7.685  28.183  14.506
18414W        W84845   2.605   8.866   5.130
18415W        W84846   6.763  37.402   0.961
18416W        W84847  37.471  27.783  10.977
18417W        W84848  20.460  42.829   4.180
18418W        W84849   8.283   4.539   2.502
18419W        W84850  27.974  13.638   0.700
18420W        W84851  41.286  15.223  14.250
18421W        W84852   9.892  13.402   0.337
18422W        W84853  17.326  14.144   0.732
18423W        W84854  40.104  22.213   3.720
18424W        W84855  44.531   8.330   0.959
18425W        W84856  31.146  35.653   4.258
18426W        W84857   6.223  27.894  13.084
18427W        W84858  26.986   5.567   1.977
18428W        W84859  19.588  44.558   0.490
18429W        W84860   8.493  18.352  14.407
18430W        W84861   6.200  23.210   2.276
18431W        W84862  33.625   9.616  14.944
18432W        W84863  20.079  18.457   1.372
18433W        W84864  18.729   6.788  13.041
18434W        W84865  13.144  43.567   2.736
18435W        W84866   5.198   3.551   3.587
18436W        W84867   1.865  19.346   2.995
18437W        W84868  11.328  17.058   4.567
18438W        W84869  26.854  19.063   3.030
18439W        W84870  40.246  16.103   1.899
18440W        W84871  12.419  16.791   4.297
18441W        W84872   4.474  22.119   3.303
18442W        W84873  11.437  23.534  10.226
18443W        W84874  14.666   7.731   2.846
18444W        W84875   9.676  37.919  12.846
18445W        W84876  18.871  13.884  11.668
18446W        W84877  37.020  25.278   3.873
18447W        W84878  17.575  20.105  10.559
18448W        W84879  10.137  33.661   4.089
18449W        W84880  44.700  15.790  12.030
18450W        W84881  11.410  23.071  13.465
18451W        W84882  24.278  36.537   0.931
18452W        W84883  39.258  32.558  14.252
18453W        W84884  34.004  28.197  11.671
18454W        W84885   5.363  34.099  14.441
18455W        W84886   6.780   9.722  13.476
18456W        W84887   1.467  22.542  13.218
18457W        W84888  22.326  27.702   4.257
18458W        W84889  40.904  44.766   0.907
18459W        W84890  33.943  13.519   4.132
18460W        W84891  29.777  34.578   4.658
18461W        W84892  24.592  25.190  10.835
18462W        W84893  26.019  24.532  13.419
18463W        W84894  41.169   5.149   0.746
18464W        W84895  25.178  15.358   0.467
18465W        W84896  38.033   6.893   1.921
18466W        W84897  12.322  24.130  13.337
18467W        W84898   3.352   3.554  10.464
18468W        W84899  12.635  41.446   2.903
18469W        W84900  29.602  44.304  14.885
18470W        W84901  27.644   3.197   3.061
18471W        W84902  32.681  10.161  10.621
18472W        W84903  20.323  17.743  12.125
18473W        W84904  36.813  17.718   0.858
18474W        W84905  13.838  16.432  14.285
18475W        W84906  12.175  14.685  13.369
18476W        W84907  41.658  29.242  14.045
18477W        W84908  32.434  33.935   2.843
18478W        W84909  32.516  20.568  11.868
18479W        W84910  27.548  10.843   0.475
18480W        W84911  34.649  20.576   4.130
18481W        W84912  22.785   9.214  11.523
18482W        W84913  15.244   8.069   0.255
18483W        W84914  12.597   4.893   1.443
18484W        W84915   2.844  22.033  13.040
18485W        W84916  33.929  24.599  13.821
18486W        W84917  33.879  33.131   4.369
18487W        W84918  31.406  32.519  13.735
18488W        W84919  18.306  29.466   2.319
18489W        W84920  23.493  33.559  13.569
18490W        W84921  27.628  21.523   4.686
18491W        W84922  36.028  10.739  13.420
18492W        W84923   3.542   4.651   9.849
18493W        W84924   1.261  11.364   4.151
18494W        W84925  31.808  36.816  14.476
18495W        W84926  33.848   1.270  12.496
18496W        W84927  31.483   0.898  10.824
18497W        W84928  43.510  31.177   4.722
18498W        W84929  43.703  25.108   0.180
18499W        W84930  33.631  23.562   3.140
18500W        W84931  10.275  40.632  12.571
18501W        W84932  23.184  19.327  13.031
18502W        W84933  11.541  33.896   4.175
18503W        W84934  19.083  41.509  10.346
18504W        W84935  34.707  19.249   2.732
18505W        W84936  43.228  12.660   1.905
18506W        W84937  31.613  40.128   1.876
18507W        W84938  28.259  35.850  14.614
18508W        W84939  40.636   6.619  14.336
18509W        W84940  16.890  25.977   0.137
18510W        W84941  36.604  31.358   0.452
18511W        W84942  44.965  11.203   1.308
18512W        W84943   3.635  10.667  10.371
18513W        W84944  44.316  15.782   4.625
18514W        W84945  25.487  11.134   4.085
18515W        W84946  16.244   9.072  11.741
18516W        W84947   5.160   6.985  12.110
18517W        W84948  31.434  13.294   3.671
18518W        W84949  24.671   2.655  13.186
18519W        W84950  30.646   1.876   5.071
18520W        W84951  14.548  18.586  10.783
18521W        W84952  23.587  15.867   3.122
18522W        W84953   8.499  17.297   1.427
18523W        W84954   7.848   4.618   4.574
18524W        W84955   1.338  14.549   3.870
18525W        W84956   1.484  19.584   4.687
18526W        W84957  21.490   3.985   2.695
18527W        W84958   9.903  22.133  11.829
18528W        W84959  23.849  43.201   2.274
18529W        W84960   4.790   9.808   0.413
18530W        W84961  12.280   1.213   4.586
18531W        W84962  27.482  11.752  11.694
18532W        W84963  31.037   2.391  11.129
18533W        W84964  18.499   3.950  14.954
18534W        W84965  16.565   5.963  13.773
18535W        W84966  42.878  42.752   0.495
18536W        W84967  36.589  24.490   2.872
18537W        W84968  42.579  11.554  11.105
18538W        W84969  35.727   4.196  12.711
18539W        W84970   6.935   9.758  12.575
18540W        W84971  27.524  17.510   3.644
18541W        W84972  29.201  27.674  11.583
18542W        W84973  29.331  15.654  13.513
18543W        W84974  40.536  23.353  12.428
18544W        W84975  44.485  30.474   3.180
18545W        W84976  25.435  38.301   0.751
18546W        W84977  41.708  17.168   1.288
18547W        W84978  12.792  42.859   0.276
18548W        W84979  25.780  38.662   0.899
18549W        W84980  26.925  28.835  12.638
18550W        W84981  29.655  30.200   3.777
18551W        W84982  18.572  21.589  10.895
18552W        W84983  25.437  14.544   1.253
18553W        W84984  38.526  20.988   3.744
18554W        W84985  11.782  31.069  11.499
18555W        W84986  25.965  29.506   5.290
18556W        W84987  16.569  36.365  12.950
18557W        W84988  17.188  37.924  12.868
18558W        W84989  14.062  26.213  12.502
18559W        W84990  38.340  35.365  11.586
18560W        W84991  37.851   5.831   4.363
18561W        W84992  29.591  18.342  14.913
18562W        W84993  14.239  27.168  11.543
18563W        W84994   4.737  41.573   0.353
18564W        W84995   3.408  15.136  11.601
18565W        W84996  36.517  24.569   0.842
18566W        W84997  42.446  22.216  11.171
18567W        W84998  40.392  29.614   2.615
18568W        W84999  17.660  42.488   3.064
18569W        W85000  32.033   7.996  12.546
18570W        W85001  29.466  39.417  13.504
18571W        W85002  18.079  16.777   2.875
18572W        W85003   7.901   7.394  10.722
18573W        W85004  37.606  25.023  14.363
18574W        W85005  15.258  15.809  11.999
18575W        W85006  35.111  10.070   4.400
18576W        W85007  44.862  30.994   4.544
18577W        W85008  42.515   4.906  10.770
18578W        W85009   3.021  36.236   0.250
18579W        W85010   6.553  26.165   2.177
18580W        W85011  26.620  41.198  13.479
18581W        W85012  39.066  35.870   4.986
18582W        W85013  19.697  33.947  14.041
18583W        W85014  15.338  21.728   3.817
18584W        W85015  21.248  28.499  11.539
18585W        W85016  20.871  11.905  14.350
18586W        W85017  42.299  13.301  11.961
18587W        W85018  40.071  38.457   3.641
18588W        W85019  16.055  13.787   2.363
18589W        W85020   7.480  44.412   0.816
18590W        W85021  29.930  26.202   4.638
18591W        W85022   4.203  20.937   1.310
18592W        W85023  19.955   8.360  13.785
18593W        W85024  29.956  43.785  10.362
18594W        W85025  12.901  15.852   4.914
18595W        W85026  21.725   4.896  12.364
18596W        W85027  34.193  37.900  13.416
18597W        W85028  23.186  20.965  13.729
18598W        W85029  14.188  20.280   3.731
18599W        W85030  33.886  13.155  11.118
18600W        W85031  36.427  14.979   4.688
18601W        W85032  40.502  27.165   1.638
18602W        W85033  14.698  36.376  10.665
18603W        W85034  29.872  13.169  11.599
18604W        W85035  26.965  37.865   1.738
18605W        W85036  19.309   6.399   2.979
18606W        W85037  23.038  36.130   1.657
18607W        W85038  43.314   3.763  14.467
18608W        W85039   4.592   0.839  14.765
18609W        W85040  30.043  41.600   0.258
18610W        W85041  37.896   5.137  10.230
18611W        W85042   7.130  24.618   4.704
18612W        W85043  32.649  16.287   1.257
18613W        W85044  31.119  34.357  14.858
18614W        W85045  23.882  25.794   1.634
18615W        W85046   8.311  25.611   1.468
18616W        W85047   8.659  14.835   4.553
18617W        W85048  31.191  25.401  11.655
18618W        W85049   7.721   0.254   1.200
18619W        W85050   7.034  41.967   2.068
18620W        W85051  21.101  42.509   4.871
18621W        W85052  24.701   9.010  12.052
18622W        W85053  36.224  43.209   4.650
18623W        W85054  36.172  25.326  14.307
18624W        W85055  21.250  39.223   0.251
18625W        W85056  14.362  18.286   1.906
18626W        W85057  35.050  21.237  14.571
18627W        W85058  26.261  16.583   3.565
18628W        W85059   7.292  41.767  12.214
18629W        W85060  21.522  36.377  14.482
18630W        W85061  23.478   7.719  13.799
18631W        W85062  23.910  28.881   4.624
18632W        W85063  32.068  27.872  11.585
18633W        W85064  11.005  34.163  12.462
18634W        W85065  15.729  41.662  10.226
18635W        W85066  40.554  42.030  12.531
18636W        W85067   7.306  38.318   4.702
18637W        W85068  29.925  23.874  14.498
18638W        W85069  28.907   4.626  12.567
18639W        W85070  43.931  22.894   2.251
18640W        W85071  31.013   1.909  10.863
18641W        W85072  25.508  15.332   0.866
18642W        W85073  21.171  32.149   1.405
18643W        W85074  42.771  13.251  11.020
18644W        W85075   9.345  41.703   2.903
18645W        W85076  36.220  24.992   3.582
18646W        W85077  24.203   9.524  11.228
18647W        W85078  38.913  41.988   3.265
18648W        W85079   9.280  21.846  13.007
18649W        W85080  27.717  11.930   2.866
18650W        W85081  41.285   3.431  14.063
18651W        W85082   2.365  13.259   0.393
18652W        W85083   6.895   4.996  13.885
18653W        W85084  22.220  18.120  11.985
18654W        W85085  41.843  28.246  14.992
18655W        W85086  32.007  39.328   0.837
18656W        W85087  27.718  28.477   3.331
18657W        W85088  28.725   7.151   1.972
18658W        W85089  34.704   8.295   2.817
18659W        W85090  36.994  39.772   0.755
18660W        W85091  21.698   2.841   0.370
18661W        W85092  41.739   4.611  11.963
18662W        W85093  21.044  28.054   4.505
18663W        W85094  16.703  26.290  12.809
18664W        W85095  37.670  33.917   4.980
18665W        W85096  36.533  22.775  11.681
18666W        W85097  12.302   1.407  13.499
18667W        W85098  31.670  20.673  11.450
18668W        W85099  37.391  31.790   0.383
18669W        W85100  26.716  33.887  11.145
18670W        W85101  41.794  17.317  14.910
18671W        W85102   8.999  23.412  12.690
18672W        W85103   9.679  23.895   2.572
18673W        W85104  38.348  30.879  13.803
18674W        W85105   1.257  32.411  11.993
18675W        W85106  32.548   8.416  11.249
18676W        W85107  33.435   5.853  11.040
18677W        W85108  27.956   4.759   0.688
18678W        W85109  13.788  12.639   0.045
18679W        W85110  42.470  26.257   1.282
18680W        W85111  41.580  15.558   0.587
18681W        W85112  42.005  31.920  14.858
18682W        W85113  38.322  29.636  14.888
18683W        W85114  12.574   6.359   4.051
18684W        W85115   0.537  38.912  13.037
18685W        W85116  15.752   0.830   0.265
18686W        W85117  28.874  28.624   1.253
18687W        W85118   1.796  10.717  13.724
18688W        W85119  41.792  19.097  12.054
18689W        W85120  10.368  40.962   2.871
18690W        W85121  38.214  39.886   0.265
18691W        W85122  25.046  11.546   1.499
18692W        W85123  15.850  11.157   2.537
18693W        W85124  33.599  38.371  12.615
18694W        W85125   9.265  23.050   4.642
18695W        W85126  11.897  15.269  10.619
18696W        W85127  24.158   1.741  11.487
18697W        W85128  34.576  39.379   1.199
18698W        W85129  16.176  18.678  13.258
18699W        W85130  12.923  39.580  10.841
18700W        W85131  11.800  38.093  11.505
18701W        W85132  36.183  19.746   4.201
18702W        W85133  28.389  34.437  13.957
18703W        W85134   7.871  13.351  13.016
18704W        W85135  40.076  40.396   0.311
18705W        W85136  21.154  39.902   0.017
18706W        W85137  40.274  38.872   3.108
18707W        W85138  29.973   5.180  12.235
18708W        W85139  29.301  31.283  12.052
18709W        W85140  11.142  39.054   4.635
18710W        W85141  14.887  19.131  13.497
18711W        W85142  26.180  32.149  13.339
18712W        W85143   3.271  26.530   0.815
18713W        W85144  29.870  43.900   4.149
18714W        W85145  17.056   9.155  10.579
18715W        W85146  24.083  22.560   3.859
18716W        W85147  21.016  18.568   2.060
18717W        W85148  12.715   2.304  13.528
18718W        W85149  24.962  33.393   0.245
18719W        W85150  17.819  34.584  12.375
18720W        W85151  35.298   9.848   2.644
18721W        W85152  24.568  18.899   2.799
18722W        W85153  18.707  43.657  12.201
18723W        W85154  28.621  23.780  14.087
18724W        W85155  19.777  29.649  14.300
18725W        W85156  17.317   6.867   1.364
18726W        W85157  13.729  38.926   3.656
18727W        W85158   9.053  35.517  10.841
18728W        W85159  24.694  36.044   1.230
18729W        W85160  39.219  17.662   2.806
18730W        W85161  32.990  30.594   3.262
18731W        W85162  25.299  12.634   1.488
18732W        W85163  10.898  12.983   0.883
18733W        W85164   0.407  20.729   0.107
18734W        W85165   1.027  42.314  12.493
18735W        W85166  24.679  28.044  12.362
18736W        W85167   3.536  33.380  10.396
18737W        W85168  27.041   2.006  10.615
18738W        W85169  12.511   4.782   2.201
18739W        W85170  31.208  20.554  12.321
18740W        W85171  13.350  29.278  12.881
18741W        W85172   9.971   0.771  11.213
18742W        W85173   9.941  13.292   3.579
18743W        W85174  22.662  25.437  11.530
18744W        W85175  33.884  33.382  13.366
18745W        W85176  18.693  20.771  14.521
18746W        W85177  26.403  20.715   3.279
18747W        W85178  33.923  10.531   0.413
18748W        W85179  41.152   7.403  13.470
18749W        W85180  43.563   5.953  14.583
18750W        W85181  14.731  25.308  10.276
18751W        W85182  30.034  10.395   4.218
18752W        W85183  23.196  28.472   4.914
18753W        W85184   0.473  43.099   1.433
18754W        W85185   3.462  31.637   4.160
18755W        W85186  38.790   7.962  10.981
18756W        W85187  10.627  42.497   1.024
18757W        W85188   0.292  29.497  11.553
18758W        W85189  41.315  42.517  11.623
18759W        W85190  41.696  11.125   3.198
18760W        W85191  42.922  39.960   4.129
18761W        W85192  20.727  38.319  12.379
18762W        W85193  32.859  29.956  10.213
18763W        W85194  43.464  17.577   1.765
18764W        W85195  35.955  22.168   3.280
18765W        W85196  35.089  27.082  10.662
18766W        W85197   5.130   6.780   0.837
18767W        W85198  21.797  44.882  14.993
18768W        W85199  33.552  20.940   1.639
18769W        W85200  23.696  24.456   3.743
18770W        W85201  39.443   0.120  13.736
18771W        W85202  44.572   2.243   1.814
18772W        W85203  11.154  42.333   0.310
18773W        W85204  42.468  18.237  12.512
18774W        W85205   9.239  38.545   3.753
18775W        W85206  10.368  23.773  13.582
18776W        W85207  25.168  31.954   0.558
18777W        W85208  34.541   4.602  12.035
18778W        W85209  17.160  27.074  11.016
18779W        W85210  29.469  32.035   2.747
18780W        W85211  40.437  22.496  10.713
18781W        W85212   2.004  13.894   1.247
18782W        W85213  44.899   9.818   1.228
18783W        W85214  30.092  23.644  12.461
18784W        W85215  18.462   4.003  12.531
18785W        W85216   7.417   8.381   0.361
18786W        W85217  32.418  44.297   1.757
18787W        W85218  23.005  31.507  14.742
18788W        W85219  43.986  23.633   1.876
18789W        W85220  35.324  41.308  13.556
18790W        W85221  25.755  11.407  11.739
18791W        W85222  44.041   5.365   0.771
18792W        W85223  35.697  19.215  14.729
18793W        W85224  16.312  28.698  11.754
18794W        W85225  39.799  26.440  14.842
18795W        W85226  19.768   6.896  13.966
18796W        W85227  36.777  18.422   4.091
18797W        W85228   1.282  15.217   4.613
18798W        W85229   1.945  11.120   1.606
18799W        W85230  16.151  20.203  12.522
18800W        W85231  40.861  29.206  11.949
18801W        W85232  28.193  40.527   2.382
18802W        W85233   8.860  38.606  11.510
18803W        W85234  40.938  16.634   0.932
18804W        W85235  13.125   4.721   4.972
18805W        W85236   4.846   3.504   2.523
18806W        W85237  35.072  40.238   4.545
18807W        W85238  13.345  25.032   0.263
18808W        W85239  40.939   3.831   3.081
18809W        W85240  12.830  21.635  13.007
18810W        W85241  33.403  36.053   3.650
18811W        W85242  37.934   3.009   2.410
18812W        W85243  17.849  30.230  10.754
18813W        W85244  17.892  44.349  11.402
18814W        W85245  25.888   5.781   2.130
18815W        W85246  25.582  26.711   1.917
18816W        W85247  21.498  10.459   1.368
18817W        W85248   8.123   7.166  13.483
18818W        W85249  19.685  11.935   0.409
18819W        W85250  20.530  26.691  14.476
18820W        W85251  32.419  34.057   0.937
18821W        W85252  28.007  11.094   0.896
18822W        W85253   8.217  38.559  10.780
18823W        W85254  19.728  39.636  14.869
18824W        W85255  19.678  41.836   3.758
18825W        W85256  21.131  26.209  11.450
18826W        W85257  36.649  10.695   0.084
18827W        W85258  22.002   3.789   1.354
18828W        W85259  32.328   6.663  13.322
18829W        W85260  32.420  26.415   1.608
18830W        W85261  36.065   5.248   4.575
18831W        W85262   8.274  20.648  12.468
18832W        W85263  34.755  21.969   4.123
18833W        W85264   1.346  20.082   4.866
18834W        W85265  35.085  16.563  12.509
18835W        W85266  12.586  33.576   4.695
18836W        W85267  15.770  16.857  13.095
18837W        W85268  36.599  14.398  12.497
18838W        W85269   2.759  13.744  13.547
18839W        W85270  30.067  30.110   1.339
18840W        W85271  10.684  30.057  12.619
18841W        W85272  28.613  13.153   1.250
18842W        W85273  14.227  13.718  10.783
18843W        W85274  43.962  18.652   2.289
18844W        W85275  25.813  24.991   2.446
18845W        W85276   3.761   5.449  13.631
18846W        W85277  20.304  10.554   3.782
18847W        W85278  20.564  28.384  12.842
18848W        W85279  25.179  16.309  13.876
18849W        W85280   3.727  39.179  11.608
18850W        W85281   3.097  44.249  13.768
18851W        W85282  15.578  27.607   4.028
18852W        W85283  21.153  36.733  14.624
18853W        W85284  24.480   8.156  12.197
18854W        W85285  35.504   4.684   3.899
18855W        W85286  39.178  41.931  14.473
18856W        W85287  18.612  36.870  11.641
18857W        W85288  15.300  15.166   1.897
18858W        W85289   9.906   5.105   2.626
18859W        W85290  15.615  22.192  10.751
18860W        W85291  18.283   4.655  14.379
18861W        W85292  17.435  12.838  14.858
18862W        W85293  10.344  32.585   3.350
18863W        W85294  21.469   8.845  14.892
18864W        W85295   9.867  29.810  12.525
18865W        W85296   3.733  14.883   4.691
18866W        W85297   9.758  27.212   4.589
18867W        W85298  13.491  23.900  14.237
18868W        W85299  32.590  41.805  13.773
18869W        W85300  12.105  39.467   3.842
18870W        W85301   1.044  40.927   2.680
18871W        W85302  25.706  29.492  11.566
18872W        W85303  32.984  28.470   2.881
18873W        W85304  17.751  28.112  12.002
18874W        W85305  38.941  21.251   2.659
18875W        W85306  16.137  32.634   3.217
18876W        W85307  14.180  32.739   4.535
18877W        W85308  16.897  44.476   1.933
18878W        W85309  20.899  29.068   1.282
18879W        W85310  39.627  40.156   0.368
18880W        W85311  14.599  41.185  13.830
18881W        W85312  14.823  31.077   1.106
18882W        W85313   4.680  20.559   2.192
18883W        W85314  27.508   7.385  10.749
18884W        W85315  21.116   7.202  11.505
18885W        W85316  34.825   2.849  12.086
18886W        W85317  36.342  20.805   3.584
18887W        W85318  27.519  35.297  11.881
18888W        W85319  22.973  19.120  14.193
18889W        W85320  15.986  36.939  14.494
18890W        W85321   5.810  12.235  13.572
18891W        W85322  11.446  38.969  11.089
18892W        W85323  16.891  24.108   1.914
18893W        W85324  25.545  23.852   0.133
18894W        W85325  19.247   2.824   0.795
18895W        W85326  27.448  39.478   0.370
18896W        W85327   8.755  32.419  13.473
18897W        W85328  12.319  29.144  14.471
18898W        W85329  38.028  14.485  12.468
18899W        W85330  10.329  43.129  13.408
18900W        W85331  40.527  39.620   1.187
18901W        W85332  36.915  12.125   0.663
18902W        W85333  43.321  16.834   3.647
18903W        W85334  18.145  20.681   3.913
18904W        W85335   4.671  12.948  13.958
18905W        W85336  39.712  27.331   0.078
18906W        W85337  17.280  13.959  13.463
18907W        W85338  29.560  41.336   3.417
18908W        W85339   0.265  20.672   2.325
18909W        W85340  39.906  16.148   4.525
18910W        W85341  20.114  29.619   3.190
18911W        W85342  38.448  40.553   2.701
18912W        W85343  38.393  28.735   3.249
18913W        W85344   9.806  31.198   1.188
18914W        W85345  18.444  32.610  11.411
18915W        W85346  35.863  15.128  10.828
18916W        W85347  41.731  11.144   0.008
18917W        W85348  27.178  26.053   1.986
18918W        W85349   1.906  12.743   0.724
18919W        W85350   9.937  30.937  14.114
18920W        W85351   6.155   0.740  12.492
18921W        W85352  44.233  29.682  11.850
18922W        W85353  13.208  25.004   1.687
18923W        W85354  17.311  23.319   4.964
18924W        W85355  12.954  40.874  14.978
18925W        W85356  37.332  21.516  13.441
18926W        W85357  39.055   6.303  14.627
18927W        W85358   4.458  15.490  10.112
18928W        W85359   9.834   4.266  11.260
18929W        W85360  36.972  43.321  12.973
18930W        W85361   8.465  28.514   0.186
18931W        W85362  18.642  18.018   1.321
18932W        W85363   2.996  30.473  13.910
18933W        W85364   3.576  28.900  14.772
18934W        W85365   7.309  38.935  10.825
18935W        W85366  37.763   7.353   1.362
18936W        W85367  38.144  40.807   0.231
18937W        W85368   3.501  42.900   1.259
18938W        W85369  18.271   0.365  12.477
18939W        W85370  39.877  29.538   1.379
18940W        W85371   6.933  43.035   3.699
18941W        W85372   6.881  18.735  12.455
18942W        W85373   3.350  32.519  11.799
18943W        W85374  37.991  35.388   3.443
18944W        W85375  32.455  24.437  14.034
18945W        W85376   7.958  38.109  10.755
18946W        W85377  14.576  36.344   0.644
18947W        W85378  37.082  42.782   2.221
18948W        W85379   4.935  41.531  10.836
18949W        W85380  24.696   4.343  14.412
18950W        W85381  28.174  22.150   1.284
18951W        W85382  41.817  41.281  14.027
18952W        W85383  28.722  17.700   4.029
18953W        W85384  36.139   6.891  14.028
18954W        W85385  19.776  20.020  13.093
18955W        W85386  13.265  16.991   0.390
18956W        W85387  21.602  39.830   0.788
18957W        W85388  42.896  30.099   1.955
18958W        W85389  14.396   9.254  13.392
18959W        W85390  22.490  42.267  12.152
18960W        W85391   3.882  15.122   2.638
18961W        W85392  20.030  33.112  12.526
18962W        W85393  16.950  33.440  12.079
18963W        W85394  26.548  29.116   0.242
18964W        W85395  44.996  17.118   0.445
18965W        W85396  33.301  32.672   3.435
18966W        W85397  42.004  32.118  11.033
18967W        W85398  14.737   2.405  11.214
18968W        W85399  31.440  40.384   4.656
18969W        W85400  39.118   4.002   2.577
18970W        W85401  23.325   7.450  14.666
18971W        W85402  16.315  34.536   3.110
18972W        W85403  37.431   6.629   3.188
18973W        W85404  35.115  22.497  12.974
18974W        W85405  17.030  37.342  12.248
18975W        W85406  42.002  27.622   0.407
18976W        W85407  27.236  43.902  13.358
18977W        W85408  22.256  10.332   2.073
18978W        W85409  27.994  20.993   4.626
18979W        W85410  32.607   6.223   0.399
18980W        W85411  42.419  10.070  11.442
18981W        W85412  22.380   4.144  13.898
18982W        W85413  28.728   8.972   1.941
18983W        W85414  32.224  28.307   0.903
18984W        W85415  19.777  19.202   0.746
18985W        W85416   2.227  27.689  13.554
18986W        W85417  21.980   5.065  11.502
18987W        W85418  16.260  21.840   1.589
18988W        W85419  35.437  40.820   2.842
18989W        W85420  33.571  14.267   2.363
18990W        W85421  23.269  34.829   3.279
18991W        W85422   1.396  32.878   0.378
18992W        W85423  12.823  20.114   0.346
18993W        W85424  24.313  37.288   1.424
18994W        W85425  42.277  24.116  14.422
18995W        W85426   3.252  10.097  13.543
18996W        W85427  40.020  24.239  10.481
18997W        W85428  39.298  21.962  11.141
18998W        W85429  41.558   9.899   4.544
18999W        W85430  42.360  22.062   3.223
19000W        W85431  42.006   3.838  11.586
19001W        W85432   9.711  11.888  10.564
19002W        W85433  27.577  39.865   2.080
19003W        W85434   6.429  28.821  12.345
19004W        W85435  15.063  12.825   4.633
19005W        W85436  32.747   8.592   4.113
19006W        W85437  19.221  24.096   2.601
19007W        W85438  20.282  43.781  13.440
19008W        W85439  29.623  16.101  13.420
19009W        W85440  25.247  15.795   1.689
19010W        W85441   6.154  39.751  14.735
19011W        W85442   8.787   3.047  14.761
19012W        W85443  43.404  18.118  14.357
19013W        W85444   8.773  34.639  10.729
19014W        W85445  14.902  28.439   2.526
19015W        W85446   2.858  25.634   2.638
19016W        W85447   1.378  25.526   3.591
19017W        W85448   5.701  33.931   0.792
19018W        W85449  42.133  27.762  13.430
19019W        W85450  35.285   5.427  11.311
19020W        W85451   6.339  13.770  12.445
19021W        W85452   9.430  15.606   1.101
19022W        W85453  43.390  26.959   1.146
19023W        W85454  40.019  13.807   2.144
19024W        W85455  15.223  30.863  10.743
19025W        W85456  36.873  24.636   3.719
19026W        W85457  23.216   4.169   2.624
19027W        W85458  44.166   7.847   4.848
19028W        W85459  24.082  23.996   4.620
19029W        W85460  14.534  38.652  10.146
19030W        W85461  13.187  18.421  14.836
19031W        W85462  44.711  34.027  11.538
19032W        W85463  39.840  31.117  13.843
19033W        W85464   0.723  14.226   0.009
19034W        W85465  10.441  13.219  12.166
19035W        W85466  14.946  30.859   2.846
19036W        W85467  38.667  32.383   2.285
19037W        W85468  21.191  20.700  12.117
19038W        W85469  16.393  32.539  14.078
19039W        W85470  14.828   2.162   2.731
19040W        W85471   4.235  37.408  11.582
19041W        W85472  23.859  25.087  10.622
19042W        W85473  17.292  31.164  11.955
19043W        W85474  44.380  38.554   1.167
19044W        W85475  43.753  29.707   0.791
19045W        W85476   4.526  10.207   3.915
19046W        W85477  32.528  12.841   0.234
19047W        W85478  36.085   5.988  11.685
19048W        W85479  21.244   1.919  14.733
19049W        W85480  33.501   5.943  14.769
19050W        W85481   4.712   7.874   1.291
19051W        W85482  11.995  37.922  13.862
19052W        W85483  33.563   0.753   0.031
19053W        W85484   6.201   2.687  13.432
19054W        W85485  29.660  39.882   3.843
19055W        W85486  36.495  35.107   1.198
19056W        W85487  26.957  39.031  11.958
19057W        W85488  44.940  26.401   3.768
19058W        W85489  10.670  20.497  11.195
19059W        W85490  29.552  16.777   3.642
19060W        W85491  32.819   2.322  12.896
19061W        W85492  13.568  38.072   1.234
19062W        W85493  33.598  27.188   0.176
19063W        W85494   5.129  17.660   4.428
19064W        W85495  35.834  43.494   4.849
19065W        W85496  31.882  26.370   0.028
19066W        W85497  30.445   8.746  10.676
19067W        W85498  38.123   1.683  13.445
19068W        W85499  27.538  19.654   2.866
19069W        W85500  15.017  42.474   4.743
19070W        W85501  17.367  39.706  14.806
19071W        W85502  15.557  26.510   0.426
19072W        W85503  22.109  35.369   3.885
19073W        W85504   4.523  23.840  14.597
19074W        W85505  12.262  26.356   1.249
19075W        W85506  25.619  26.105   4.653
19076W        W85507  16.675  26.949  11.095
19077W        W85508  26.485   8.747  13.087
19078W        W85509  37.292   6.806  11.658
19079W        W85510  40.565  16.777  12.935
19080W        W85511  13.179   7.168  10.349
19081W        W85512   2.345  21.488  14.113
19082W        W85513   1.967   7.734  12.530
19083W        W85514  32.272  17.491  13.886
19084W        W85515   0.616   7.264  10.763
19085W        W85516  13.918  44.502   0.125
19086W        W85517  12.212  13.740   0.381
19087W        W85518  34.439  36.531   3.948
19088W        W85519  43.701  12.202  14.908
19089W        W85520  28.186  29.222   0.490
19090W        W85521  19.704  13.304  13.883
19091W        W85522  12.701  36.662  13.333
19092W        W85523   9.534  27.839  13.767
19093W        W85524  22.785  27.949   4.183
19094W        W85525  28.133   0.710  10.475
19095W        W85526  29.067  11.883   2.734
19096W        W85527  17.604   7.326   4.774
19097W        W85528  24.479  22.118   1.405
19098W        W85529   6.413  18.799   4.523
19099W        W85530  44.415  38.984   0.872
19100W        W85531  20.666  19.791  11.519
19101W        W85532   0.939   6.331  10.933
19102W        W85533  14.813   2.274   3.236
19103W        W85534  24.582  42.846   1.612
19104W        W85535  17.342  29.474   2.654
19105W        W85536   8.295  33.577   4.553
19106W        W85537  32.337  17.271   0.234
19107W        W85538  33.045  27.017   4.635
19108W        W85539   3.469  41.221   3.717
19109W        W85540  23.206  27.711  12.543
19110W        W85541  35.887   8.950  11.876
19111W        W85542   7.162  36.332   2.382
19112W        W85543   4.446  29.063  14.277
19113W        W85544  17.108  33.107  14.495
19114W        W85545   6.462  30.465  13.009
19115W        W85546  33.012  18.573   2.893
19116W        W85547  30.510  33.079   2.600
19117W        W85548  16.915   2.733  11.106
19118W        W85549  30.213   1.316   1.074
19119W        W85550  37.055   6.980  12.106
19120W        W85551  10.209  26.567  10.704
19121W        W85552  42.670   8.182   2.526
19122W        W85553  22.916   4.706   0.868
19123W        W85554  27.712   9.628   0.007
19124W        W85555  32.000  36.090  10.575
19125W        W85556  20.572  10.593  11.619
19126W        W85557  12.781  34.424   2.206
19127W        W85558  19.562  10.839   4.605
19128W        W85559  40.733   8.739  10.684
19129W        W85560  35.157  14.879  13.855
19130W        W85561  28.202  29.067  12.869
19131W        W85562  21.973  10.245   4.562
19132W        W85563  37.784  40.796  12.434
19133W        W85564  18.441  35.606   4.207
19134W        W85565  21.890  37.688   0.428
19135W        W85566  20.110   0.179  14.327
19136W        W85567  43.345  14.898  14.385
19137W        W85568  32.902   9.117   4.882
19138W        W85569  23.972  36.915  10.569
19139W        W85570   4.905  37.815   2.764
19140W        W85571  15.654  37.262   4.246
19141W        W85572  39.029  19.357   0.708
19142W        W85573  17.641  22.929   1.242
19143W        W85574   2.046   9.151   2.733
19144W        W85575  22.036  17.394   2.701
19145W        W85576  24.212  12.822  10.439
19146W        W85577  10.078  44.877   0.025
19147W        W85578  31.932  13.221   0.007
19148W        W85579   2.821  30.435   3.314
19149W        W85580  37.256  18.110  11.095
19150W        W85581  12.351  40.509  11.921
19151W        W85582  24.914   8.748  13.084
19152W        W85583  21.968  24.476  11.703
19153W        W85584  23.291  38.386   0.594
19154W        W85585  41.435  16.711  13.548
19155W        W85586  24.176   3.161   2.314
19156W        W85587  24.159  38.723  10.669
19157W        W85588  13.693  30.966  11.528
19158W        W85589  44.200  15.296   0.697
19159W        W85590  29.021  17.189  13.451
19160W        W85591  12.081  21.161   2.787
19161W        W85592  25.929   6.163  13.933
19162W        W85593  44.448  17.235   2.835
19163W        W85594  42.002  14.751  11.265
19164W        W85595  12.836   1.338   2.353
19165W        W85596  17.036  18.308  10.733
19166W        W85597   8.144  40.149  11.653
19167W        W85598  20.021  30.029   2.736
19168W        W85599  10.816  19.222  13.975
19169W        W85600  12.153  36.639  10.777
19170W        W85601  42.944  16.619   0.048
19171W        W85602   7.831  29.928   3.338
19172W        W85603  19.763  23.649   3.659
19173W        W85604   4.473  25.688  12.591
19174W        W85605   3.036  37.956   0.728
19175W        W85606  20.718  36.225  11.104
19176W        W85607  27.671  18.804  12.387
19177W        W85608  44.781  39.600  10.775
19178W        W85609  36.569  42.896  11.029
19179W        W85610  43.807  23.517   4.633
19180W        W85611  32.472   7.048  14.961
19181W        W85612  30.687  37.330   2.276
19182W        W85613   5.899   6.394   1.248
19183W        W85614  14.644  43.295   3.140
19184W        W85615  10.754  32.441   4.108
19185W        W85616  32.460  44.501   4.043
19186W        W85617   1.385   7.334   3.702
19187W        W85618   4.874  10.903   2.010
19188W        W85619  14.211   8.799   4.271
19189W        W85620  39.529  35.042   2.154
19190W        W85621  15.029  35.420  10.837
19191W        W85622   3.645  38.642  13.469
19192W        W85623   3.535  43.959  11.884
19193W        W85624  32.868  29.386   0.602
19194W        W85625  22.326  23.712  12.807
19195W        W85626   0.437  25.662  13.675
19196W        W85627  28.563   2.944  11.604
19197W        W85628   3.675  34.544   2.519
19198W        W85629  39.665  31.601  12.474
19199W        W85630  17.985   6.578   0.663
19200W        W85631   9.200  29.262  13.079
19201W        W85632   2.016  18.465   1.366
19202W        W85633  14.183  15.048   0.866
19203W        W85634  19.018  29.176  13.925
19204W        W85635  14.946   9.642   4.533
19205W        W85636  21.616  39.311  13.876
19206W        W85637  13.374  23.146   3.212
19207W        W85638   1.980  21.100  14.881
19208W        W85639   1.403  39.577   4.078
19209W        W85640   2.420   9.345   4.554
19210W        W85641   1.689  18.580   1.753
19211W        W85642  10.297  11.166   0.671
19212W        W85643  16.648   2.149   4.515
19213W        W85644  18.700  41.929  12.797
19214W        W85645  33.777  33.601   1.397
19215W        W85646   9.840  12.315  10.837
19216W        W85647  40.452  43.986   0.960
19217W        W85648  22.469  34.365   0.060
19218W        W85649  43.366  37.122   2.898
19219W        W85650  11.901  21.794   4.701
19220W        W85651   5.204  32.446  11.148
19221W        W85652  14.734  39.919   1.592
19222W        W85653  31.319   1.769   2.861
19223W        W85654   6.076  43.270   2.925
19224W        W85655  27.675  42.386  14.752
19225W        W85656  14.565  38.400  12.554
19226W        W85657  30.011  32.451  11.778
19227W        W85658  25.255   3.842   0.792
19228W        W85659   2.338  18.705  11.251
19229W        W85660  32.873  34.430  14.435
19230W        W85661  15.682  42.039  13.931
19231W        W85662  24.462  44.625  13.215
19232W        W85663  17.471  30.716  13.961
19233W        W85664   8.601   3.391   4.533
19234W        W85665  28.626   1.170  12.538
19235W        W85666  40.841  20.526   4.669
19236W        W85667  20.588   9.739   4.621
19237W        W85668  40.463  19.552  12.081
19238W        W85669   5.741  14.235  13.440
19239W        W85670   1.413  24.043   2.389
19240W        W85671  35.891  24.240  13.501
19241W        W85672  11.743  30.049  11.219
19242W        W85673  33.587  38.045   1.911
19243W        W85674  38.106  15.468   1.298
19244W        W85675  36.810  12.406  12.909
19245W        W85676  19.658  15.316  10.749
19246W        W85677  28.583  13.925  14.408
19247W        W85678  12.325  37.442   1.930
19248W        W85679  17.813  30.078   0.363
19249W        W85680  36.611  13.957   4.578
19250W        W85681  15.765  19.763  14.168
19251W        W85682  30.885   7.360   1.397
19252W        W85683  20.445  14.729  12.008
19253W        W85684  25.621  18.167  13.139
19254W        W85685   0.484  40.462  13.404
19255W        W85686  29.853  36.182  12.366
19256W        W85687   4.034  21.681  11.241
19257W        W85688  13.196  12.644   2.743
19258W        W85689  11.010  10.856  12.466
19259W        W85690  22.134  39.338   0.236
19260W        W85691  43.479  17.547   2.654
19261W        W85692  26.065   9.811   0.706
19262W        W85693   6.192   5.960  11.168
19263W        W85694  21.789  26.970   2.612
19264W        W85695  22.521   9.250  14.296
19265W        W85696  30.466  31.726   0.063
19266W        W85697  31.191   0.449   1.764
19267W        W85698  19.149  14.238   2.252
19268W        W85699  26.252  35.932  13.154
19269W        W85700  12.505  39.582  11.145
19270W        W85701  41.663  22.187   0.820
19271W        W85702  30.147  41.324   2.572
19272W        W85703  11.221  24.717  13.568
19273W        W85704   8.280  21.490  11.318
19274W        W85705  10.759  28.683   3.786
19275W        W85706   2.835  38.893   0.451
19276W        W85707  13.026  44.195   4.266
19277W        W85708  43.018  24.555  10.676
19278W        W85709   4.274  32.965   0.023
19279W        W85710  13.737  42.851   0.224
19280W        W85711  33.840  28.522  14.904
19281W        W85712  32.664   2.333  12.032
19282W        W85713  32.673   9.146   0.695
19283W        W85714   5.952  30.464  14.979
19284W        W85715  22.391  43.456   2.725
19285W        W85716   7.000  21.090   0.385
19286W        W85717  22.936  32.265   1.385
19287W        W85718  28.464  42.312   0.834
19288W        W85719  39.266  22.647   4.528
19289W        W85720  42.061  34.298  10.154
19290W        W85721  13.222  10.678   9.934
19291W        W85722  30.635  28.096   1.302
19292W        W85723  12.097  34.617   3.428
19293W        W85724  36.075  29.158   0.890
19294W        W85725  28.324  17.774  13.407
19295W        W85726  20.023  38.519  11.170
19296W        W85727  40.886  17.152  12.134
19297W        W85728  27.696  10.857  14.947
19298W        W85729   5.453  38.485  13.566
19299W        W85730  22.125   0.219   4.155
19300W        W85731  37.514  41.826   3.229
19301W        W85732  13.831   9.331   1.218
19302W        W85733  11.393   6.282   2.355
19303W        W85734  17.875   2.363   3.307
19304W        W85735   0.275  13.057   4.627
19305W        W85736  19.994   3.501  12.057
19306W        W85737  42.826  34.471   4.575
19307W        W85738  30.522  19.585   4.570
19308W        W85739  14.118  28.402   0.350
19309W        W85740  10.616   4.968  11.915
19310W        W85741   3.417   2.388   4.582
19311W        W85742   9.387   4.193   1.658
19312W        W85743  31.991   8.011   3.095
19313W        W85744  14.359  25.049   1.311
19314W        W85745  29.113  20.042   0.457
19315W        W85746   9.697  31.036  12.935
19316W        W85747  17.377  10.874   1.825
19317W        W85748  14.584  28.701   3.781
19318W        W85749  26.909  20.974  14.424
19319W        W85750  37.636  20.055  14.292
19320W        W85751   6.098   0.555   3.714
19321W        W85752  39.890  29.623  13.314
19322W        W85753  23.955  25.724  13.197
19323W        W85754   7.629  40.020  10.981
19324W        W85755  29.471   7.889   2.789
19325W        W85756  43.539   7.798  11.073
19326W        W85757  30.120  29.152   4.645
19327W        W85758   8.235  36.149   3.848
19328W        W85759  18.321  10.297  10.879
19329W        W85760  20.463  30.395   4.669
19330W        W85761  20.929  13.229  10.446
19331W        W85762  13.921  10.261   3.311
19332W        W85763  41.519   9.734  11.477
19333W        W85764  40.623  22.261   3.592
19334W        W85765   4.629  18.054  13.484
19335W        W85766  38.387  31.958   2.095
19336W        W85767   9.582  33.710  11.096
19337W        W85768  15.191  17.848   2.538
19338W        W85769  15.137  35.513  12.969
19339W        W85770  44.446   9.417   0.818
19340W        W85771  18.685   8.593   4.648
19341W        W85772  42.469  30.086  11.580
19342W        W85773  29.012  16.570   2.627
19343W        W85774   7.411  29.510   3.759
19344W        W85775  21.576  44.574   1.736
19345W        W85776  11.907  14.095  11.635
19346W        W85777  40.546  33.869  13.291
19347W        W85778  35.250   7.282  13.117
19348W        W85779  38.570  40.516   1.735
19349W        W85780   9.371   8.166  10.633
19350W        W85781   5.697  35.425   0.222
19351W        W85782  21.016   5.615  13.451
19352W        W85783   4.710  11.372   2.839
19353W        W85784  24.534  37.231  14.296
19354W        W85785  23.281  27.510   4.911
19355W        W85786  39.402  41.857   2.343
19356W        W85787  31.578  40.108  13.558
19357W        W85788  20.977  29.592   3.752
19358W        W85789  26.127  44.722  10.376
19359W        W85790  34.009   2.497  11.545
19360W        W85791  16.635   8.692  12.339
19361W        W85792   0.934  11.311  12.192
19362W        W85793   9.079  42.697   4.401
19363W        W85794  29.322  37.370  12.105
19364W        W85795  43.956   6.101   1.846
19365W        W85796  38.167  15.095   0.258
19366W        W85797  33.879  28.959  11.206
19367W        W85798  29.648  19.812   1.888
19368W        W85799  26.641  19.069   2.317
19369W        W85800  31.517  35.882  10.654
19370W        W85801  22.592  20.393   3.130
19371W        W85802   9.449   4.287   4.925
19372W        W85803  37.146  29.439   5.381
19373W        W85804  31.076  39.437   0.975
19374W        W85805  32.864   4.700  12.619
19375W        W85806  20.836   3.352   3.767
19376W        W85807  16.835  27.079   4.056
19377W        W85808  18.726  17.615   0.364
19378W        W85809   1.785  20.570   4.381
19379W        W85810  26.078  39.528   2.274
19380W        W85811  24.611  14.723   2.707
19381W        W85812  34.044  34.015   1.630
19382W        W85813  22.100  19.659   0.271
19383W        W85814  11.242   0.209   1.229
19384W        W85815  10.837   2.172  10.744
19385W        W85816   8.509  18.949   0.685
19386W        W85817  26.086  32.420   0.864
19387W        W85818  25.478  22.672  14.211
19388W        W85819  26.076   7.694  13.424
19389W        W85820  39.978  18.201   4.537
19390W        W85821  30.946  23.208  13.294
19391W        W85822  11.718  22.195   2.823
19392W        W85823  26.235  35.927   4.581
19393W        W85824  25.565  25.808  10.864
19394W        W85825  19.325  25.462  14.620
19395W        W85826   0.633  34.414   4.601
19396W        W85827  20.232  13.095   3.746
19397W        W85828  36.405  36.695   0.325
19398W        W85829  21.197  12.002   3.050
19399W        W85830  11.928   4.653   0.836
19400W        W85831   3.923  15.813  12.456
19401W        W85832  16.397  18.965  11.046
19402W        W85833   9.495   5.395   2.706
19403W        W85834  23.012  36.658   4.813
19404W        W85835   0.598   0.256   2.752
19405W        W85836  28.980  32.836  13.837
19406W        W85837  42.684  26.624   4.816
19407W        W85838  35.067  42.579  14.413
19408W        W85839  29.923  35.451   1.387
19409W        W85840  30.678  14.844   4.738
19410W        W85841  26.981  35.962   4.142
19411W        W85842  42.237  12.776   2.775
19412W        W85843  37.507  14.740  13.847
19413W        W85844   9.740  18.334  12.998
19414W        W85845  28.743  32.950  12.057
19415W        W85846   7.438  18.960   4.697
19416W        W85847  44.784  18.751  13.592
19417W        W85848  28.640   8.329   2.548
19418W        W85849   0.206  34.893   1.852
19419W        W85850   7.705  41.050  12.447
19420W        W85851   6.580   2.891   3.315
19421W        W85852  40.470  30.199  12.442
19422W        W85853  43.917  26.786   1.834
19423W        W85854  34.065  41.548  13.984
19424W        W85855  19.647  18.089  14.750
19425W        W85856  31.881   9.197  12.137
19426W        W85857  41.055   9.118  11.512
19427W        W85858  31.059   5.300  11.606
19428W        W85859  28.806   4.800   2.649
19429W        W85860  37.121  44.072  10.220
19430W        W85861  32.054   5.198   1.716
19431W        W85862  39.979  37.854   2.747
19432W        W85863  42.532  43.046   1.387
19433W        W85864  10.799   5.520   4.779
19434W        W85865  36.419  11.102  12.580
19435W        W85866   9.962  12.710  13.349
19436W        W85867  31.029  44.273   2.339
19437W        W85868   3.368  33.466   2.865
19438W        W85869   0.668  28.255  12.447
19439W        W85870  37.132  12.472  10.350
19440W        W85871   4.884  16.566   2.525
19441W        W85872  38.526  11.565   3.674
19442W        W85873  35.313  39.027   9.691
19443W        W85874  41.085  44.799  13.147
19444W        W85875  22.893  13.714  10.753
19445W        W85876  36.311  41.364  13.577
19446W        W85877   0.944  38.077   2.575
19447W        W85878  17.240  34.160  12.010
19448W        W85879  43.738  27.793   1.709
19449W        W85880  28.968  42.290   0.959
19450W        W85881  32.612  22.659  11.973
19451W        W85882  29.678  28.602  11.495
19452W        W85883  15.480  11.305  11.558
19453W        W85884   1.444  37.515   3.915
19454W        W85885  12.824  12.565   4.493
19455W        W85886   5.631  37.452   2.810
19456W        W85887  22.927   0.540   4.400
19457W        W85888  26.883  42.273   0.416
19458W        W85889  37.565  21.755   0.391
19459W        W85890  26.067  43.046   1.474
19460W        W85891  36.811  27.937   0.214
19461W        W85892  14.392  17.099  14.236
19462W        W85893  27.473  34.813   4.512
19463W        W85894  33.880  25.166   4.057
19464W        W85895   1.870   7.553   4.825
19465W        W85896  29.646  43.402   1.803
19466W        W85897  11.126  15.846   1.188
19467W        W85898  22.115  25.983   2.803
19468W        W85899  40.974  29.796   4.119
19469W        W85900  14.401   2.431  12.111
19470W        W85901  38.694  19.671   3.583
19471W        W85902  28.829   8.244  14.774
19472W        W85903  27.706  39.654  10.598
19473W        W85904  30.675  16.032  12.873
19474W        W85905  25.664  22.896   0.891
19475W        W85906  33.891  21.182  10.446
19476W        W85907  38.499  33.920   2.214
19477W        W85908  12.684   2.451  10.321
19478W        W85909  15.072  34.972   2.778
19479W        W85910  34.381  41.971   1.898
19480W        W85911   9.155   3.739  11.588
19481W        W85912   6.561  31.373   4.250
19482W        W85913  25.247   6.325  10.526
19483W        W85914  30.844  41.598   4.567
19484W        W85915  30.561  31.563  12.513
19485W        W85916   5.165  35.823   1.235
19486W        W85917  22.795  20.684   2.158
19487W        W85918  15.117  10.673  12.116
19488W        W85919  31.098   8.329   1.227
19489W        W85920   3.814   1.399  11.164
19490W        W85921  42.448  18.117  13.869
19491W        W85922  38.473  32.512   1.802
19492W        W85923   1.332  42.786  14.405
19493W        W85924  38.321  41.933  11.601
19494W        W85925  27.703  43.203   0.148
19495W        W85926  28.668  31.389   0.790
19496W        W85927   8.165  22.116   4.655
19497W        W85928  15.131   1.492   0.848
19498W        W85929   4.734  18.504  10.716
19499W        W85930   0.024  34.902   4.648
19500W        W85931  43.739  28.441   3.199
19501W        W85932  41.758   8.600  10.769
19502W        W85933  31.168  34.896  14.413
19503W        W85934  41.224  11.174   0.015
19504W        W85935  15.930  34.829   3.810
19505W        W85936  13.598   7.346  11.852
19506W        W85937  23.869   8.998  13.120
19507W        W85938   8.240  35.364  11.789
19508W        W85939   3.047  15.921  13.911
19509W        W85940  15.290   6.707   1.395
19510W        W85941  14.195  20.848   4.577
19511W        W85942  41.846  25.417  13.174
19512W        W85943  31.012  28.574   3.138
19513W        W85944  15.589  14.730   2.446
19514W        W85945  25.215  44.366  11.963
19515W        W85946  32.570  15.328  10.910
19516W        W85947  12.069  36.981   4.312
19517W        W85948  39.792  39.898  14.444
19518W        W85949   8.612  20.778  12.039
19519W        W85950  23.702   6.860  12.569
19520W        W85951   3.930   8.940   1.550
19521W        W85952  36.371  17.998   0.751
19522W        W85953  26.495   8.661   3.121
19523W        W85954   0.611  37.380  13.992
19524W        W85955  10.434  38.411  11.726
19525W        W85956   5.177   6.807   2.265
19526W        W85957  29.700  17.675   1.083
19527W        W85958  40.590  17.492   2.790
19528W        W85959  16.069  36.111  10.539
19529W        W85960   0.989   4.393  14.778
19530W        W85961  22.469  29.207   3.651
19531W        W85962  28.025   7.181  14.285
19532W        W85963  26.536  27.906  12.542
19533W        W85964  21.015  36.284  14.404
19534W        W85965  34.988  28.542  12.121
19535W        W85966  22.636  17.048   4.457
19536W        W85967  12.066  13.694   1.856
19537W        W85968  24.992  42.244  11.211
19538W        W85969  40.771  28.465  14.731
19539W        W85970  40.768  33.895  14.721
19540W        W85971  43.009  35.753   2.225
19541W        W85972  22.745  31.922  14.452
19542W        W85973  14.300  41.493  14.112
19543W        W85974  30.013  16.379   9.990
19544W        W85975  43.718  24.681  12.570
19545W        W85976   3.716  20.730  10.421
19546W        W85977  23.105  22.529   0.067
19547W        W85978   1.874   1.316   1.282
19548W        W85979  11.338  44.229   2.407
19549W        W85980  26.922  24.456  12.910
19550W        W85981  25.130  41.452   1.132
19551W        W85982  28.542  30.569  11.218
19552W        W85983   1.501  27.499  11.478
19553W        W85984  24.381  34.001  13.314
19554W        W85985  38.923  17.812   4.548
19555W        W85986  16.435  21.372  13.595
19556W        W85987  28.387   8.004  10.762
19557W        W85988  31.821  27.036  14.312
19558W        W85989  38.860   6.431  13.586
19559W        W85990  15.977  27.912   4.723
19560W        W85991   6.634   2.527  12.101
19561W        W85992   9.817  10.157  13.360
19562W        W85993  33.566  34.614  14.407
19563W        W85994   5.890  37.764  14.884
19564W        W85995  39.887  38.097   2.258
19565W        W85996   0.813  11.810   3.335
19566W        W85997  40.074  24.239   2.214
19567W        W85998  30.004  34.927   3.988
19568W        W85999  44.883  37.272   2.881
19569W        W86000  18.691  24.440   4.236
19570W        W86001  36.507  10.153  11.977
19571W        W86002   7.346  36.533  11.172
19572W        W86003  43.573   2.383  11.630
19573W        W86004  20.595  26.182   2.847
19574W        W86005  41.766   1.793   2.904
19575W        W86006  42.614  12.416  13.813
19576W        W86007  18.086  20.649   2.431
19577W        W86008  42.297  37.440   1.190
19578W        W86009   7.249  38.994   4.329
19579W        W86010  36.705  15.201  13.013
19580W        W86011  25.907  34.985  11.408
19581W        W86012  30.630  13.633  11.654
19582W        W86013  20.427  23.731  11.132
19583W        W86014  41.887   9.142   1.141
19584W        W86015  10.965   6.702   3.598
19585W        W86016   2.494  12.383  11.905
19586W        W86017  33.279  18.207   0.814
19587W        W86018  39.341   8.715   4.108
19588W        W86019  31.962   6.848  10.706
19589W        W86020  41.087  34.477  11.164
19590W        W86021  28.094   6.169   0.385
19591W        W86022  36.596  12.993   2.259
19592W        W86023   1.349  17.237  14.343
19593W        W86024  10.217   6.463  14.669
19594W        W86025   9.765  35.777   2.793
19595W        W86026  38.540  23.150  12.518
19596W        W86027  43.503  13.731  12.978
19597W        W86028  33.897  16.233   1.895
19598W        W86029  28.088  25.345   3.787
19599W        W86030   7.208   2.779  13.502
19600W        W86031  40.722  19.762   3.254
19601W        W86032  28.497  39.385  13.536
19602W        W86033  22.212  21.198   0.861
19603W        W86034  28.085  38.374   4.538
19604W        W86035   2.476  19.009  10.820
19605W        W86036  24.454  15.614  11.866
19606W        W86037  42.592  15.554  12.409
19607W        W86038  11.235  33.213   0.283
19608W        W86039  19.618   5.639   4.565
19609W        W86040  16.014  20.286   4.864
19610W        W86041   0.264  13.296   0.889
19611W        W86042  38.526   4.777   2.716
19612W        W86043  30.410  31.951   4.974
19613W        W86044  15.245  28.991  10.394
19614W        W86045  12.334  40.474   2.124
19615W        W86046   9.548  18.028   5.130
19616W        W86047  10.812  28.951  11.670
19617W        W86048   4.315  25.656   4.625
19618W        W86049  21.165  15.660   3.805
19619W        W86050  20.467  28.996  12.014
19620W        W86051  16.212   4.646  12.956
19621W        W86052   6.231  32.053   3.737
19622W        W86053  22.011  40.112   1.818
19623W        W86054  34.964   5.890   4.465
19624W        W86055  20.819  43.925   4.944
19625W        W86056   0.268   8.211   3.546
19626W        W86057  33.367  29.737  10.197
19627W        W86058  22.012  17.969  11.507
19628W        W86059  20.786  42.397  10.370
19629W        W86060  36.607  33.222  13.572
19630W        W86061  10.403  25.726  13.043
19631W        W86062  39.029  38.487  13.519
19632W        W86063  22.856  13.107  14.318
19633W        W86064  35.618  37.608  13.601
19634W        W86065  42.405  28.181  12.653
19635W        W86066  32.356   3.343   1.906
19636W        W86067   3.709   6.196  14.974
19637W        W86068  42.112  27.805   4.080
19638W        W86069  37.569  33.693   2.313
19639W        W86070   7.339   9.974   4.255
19640W        W86071  38.525   2.712   1.313
19641W        W86072  22.607  11.893   3.200
19642W        W86073  22.196  36.089  12.539
19643W        W86074  33.868   9.619  12.666
19644W        W86075   4.226  17.715   3.204
19645W        W86076  31.191   7.119  11.126
19646W        W86077   6.740  38.046   3.761
19647W        W86078  34.477  32.936   3.217
19648W        W86079  30.982  34.400  13.533
19649W        W86080  22.999  22.734   4.651
19650W        W86081   1.138  30.692  12.469
19651W        W86082  21.247  42.784   2.054
19652W        W86083  40.354  10.181  11.193
19653W        W86084  27.856  10.061  14.355
19654W        W86085  21.175   1.725  11.434
19655W        W86086  42.192  20.176   0.851
19656W        W86087  39.888  14.237   3.048
19657W        W86088  30.666   0.426   2.687
19658W        W86089  23.603  22.072   2.228
19659W        W86090  32.163  38.347   3.909
19660W        W86091   1.425   7.724  14.920
19661W        W86092  11.355  39.409  11.805
19662W        W86093  16.603  34.374  11.931
19663W        W86094   2.703  14.400   2.129
19664W        W86095  16.666  21.413   2.281
19665W        W86096  32.404  39.523  12.478
19666W        W86097  29.150  30.418   4.066
19667W        W86098  14.339   4.956   0.001
19668W        W86099  13.098  27.992   2.340
19669W        W86100  20.079  26.584   4.082
19670W        W86101  36.849  26.657  13.845
19671W        W86102   4.756  39.467  11.279
19672W        W86103  36.817  34.342   4.108
19673W        W86104   4.166  37.131   2.347
19674W        W86105   9.965  30.510  11.074
19675W        W86106  25.755   6.520   3.184
19676W        W86107  34.967  10.208  12.070
19677W        W86108  19.570   4.882  11.585
19678W        W86109  13.215  23.059  11.910
19679W        W86110  41.532  19.805  14.937
19680W        W86111  14.675  20.458  13.469
19681W        W86112  38.483  38.203  11.220
19682W        W86113  31.687  29.734   2.848
19683W        W86114  12.254  23.364   1.981
19684W        W86115  18.967   9.464  12.654
19685W        W86116  32.446  25.236   0.772
19686W        W86117   6.616  42.539  10.659
19687W        W86118  34.799  40.083   4.959
19688W        W86119  19.702   1.309   0.743
19689W        W86120  43.113  23.572   4.167
19690W        W86121  15.583  19.005  14.980
19691W        W86122  37.148   1.382   4.093
19692W        W86123   8.671  30.483   3.633
19693W        W86124   3.204   9.195   1.887
19694W        W86125  13.832  34.865  10.699
19695W        W86126   4.010  12.602   0.871
19696W        W86127   5.445  41.412   1.334
19697W        W86128  15.685  29.349  14.394
19698W        W86129   0.394  10.478   3.799
19699W        W86130  29.733  11.624   3.289
19700W        W86131  27.196  19.259  11.156
19701W        W86132   2.927  43.339  11.447
19702W        W86133   6.961  16.351  10.769
19703W        W86134  40.497   1.812   0.054
19704W        W86135  28.896   3.385   4.124
19705W        W86136  28.995  35.594  13.962
19706W        W86137  28.451  12.944   3.380
19707W        W86138  25.753  21.046   0.786
19708W        W86139   1.871   2.742   4.420
19709W        W86140  21.531  24.108   0.050
19710W        W86141  27.841  44.745  11.581
19711W        W86142   1.800  11.554  14.398
19712W        W86143  42.176  10.455  11.716
19713W        W86144  27.952  29.581  10.650
19714W        W86145  27.597   8.219  11.193
19715W        W86146  33.187  26.654   3.383
19716W        W86147   9.673  19.451  14.950
19717W        W86148  38.353  10.285  14.797
19718W        W86149  23.603  21.531   4.119
19719W        W86150  41.144   8.089  11.457
19720W        W86151  34.126  20.071  12.382
19721W        W86152   9.576  36.940   3.938
19722W        W86153  20.145  26.517  10.250
19723W        W86154  16.187  42.329   1.298
19724W        W86155   7.171  36.883   3.126
19725W        W86156  35.027  40.803   4.092
19726W        W86157  19.749   6.742   3.317
19727W        W86158  41.076  44.746  14.588
19728W        W86159  29.896  39.575   2.889
19729W        W86160   2.992  43.832  14.992
19730W        W86161  43.325  40.103   0.350
19731W        W86162  16.134  42.200  10.490
19732W        W86163  24.695  17.619  11.990
19733W        W86164   9.957   5.535  14.882
19734W        W86165   1.668  18.697   4.954
19735W        W86166  19.549   8.826  11.942
19736W        W86167  11.847  11.799   1.787
19737W        W86168  19.293  17.160   4.487
19738W        W86169  35.738  14.738   0.256
19739W        W86170  44.558   8.612   3.419
19740W        W86171  32.439  32.244   4.795
19741W        W86172  40.810   3.486   3.593
19742W        W86173  13.437   5.811  12.925
19743W        W86174   3.274   6.487  12.114
19744W        W86175  23.607   8.178  12.848
19745W        W86176   3.456  29.224  11.241
19746W        W86177   1.155   8.399   1.513
19747W        W86178   6.937  31.684   4.112
19748W        W86179  18.544   9.143  14.402
19749W        W86180  36.399  25.582   2.344
19750W        W86181  19.778  43.746   2.449
19751W        W86182  40.556  33.068  11.248
19752W        W86183   0.402   6.064   4.276
19753W        W86184  33.849   4.382   3.841
19754W        W86185  44.451  42.936  13.935
19755W        W86186  25.596  13.053  13.078
19756W        W86187  23.412   1.951  12.576
19757W        W86188  11.589  33.525  11.025
19758W        W86189  38.364  40.722  14.304
19759W        W86190   8.678  10.723   3.235
19760W        W86191  20.098   5.293  12.926
19761W        W86192  15.997  14.544  11.657
19762W        W86193  13.639  20.707  10.891
19763W        W86194   8.698  16.068   1.260
19764W        W86195  38.290   5.382   0.473
19765W        W86196  31.498   9.131   1.866
19766W        W86197  20.390   0.752   2.038
19767W        W86198  42.069   0.608   4.081
19768W        W86199  14.426  12.692  11.635
19769W        W86200  13.804  22.562   4.563
19770W        W86201  13.130  13.407   1.214
19771W        W86202   5.916  27.437  10.474
19772W        W86203   6.018   6.529  14.786
19773W        W86204  32.055  26.034   3.684
19774W        W86205   9.156  42.499  13.904
19775W        W86206   3.834   9.358   4.570
19776W        W86207  43.063  18.018  13.096
19777W        W86208   2.467  42.999   1.256
19778W        W86209  34.363  35.103   3.270
19779W        W86210   5.370   7.740  10.606
19780W        W86211  16.932   4.914   9.745
19781W        W86212  23.776  44.338  12.021
19782W        W86213  10.588   4.210  11.656
19783W        W86214   8.214   9.464   2.714
19784W        W86215  37.057  36.105   2.287
19785W        W86216  21.057  18.235   0.262
19786W        W86217   8.370   6.411  14.978
19787W        W86218  30.396   8.282  14.902
19788W        W86219  35.517  42.743  11.129
19789W        W86220  43.924   8.241   0.775
19790W        W86221  29.892  44.312   4.730
19791W        W86222   7.719   1.401   0.289
19792W        W86223   6.113  13.853   3.149
19793W        W86224  34.625   1.242  13.806
19794W        W86225  30.252   5.213   4.274
19795W        W86226  29.976  34.934  11.185
19796W        W86227  22.878  18.760  14.975
19797W        W86228   0.882   4.787  13.993
19798W        W86229  26.115  15.258  14.377
19799W        W86230  20.849   4.826  13.088
19800W        W86231   8.369  35.495   2.417
19801W        W86232  29.489  33.886   4.081
19802W        W86233  34.456   4.006  13.922
19803W        W86234  16.335  17.582   4.502
19804W        W86235  30.635  28.766  11.102
19805W        W86236  16.281  19.473   0.315
19806W        W86237  36.062  33.881   3.788
19807W        W86238  34.783  37.077  11.240
19808W        W86239  20.402  23.957  13.419
19809W        W86240  35.646  15.708   1.328
19810W        W86241   3.257   7.784  11.048
19811W        W86242  33.988  12.093   3.778
19812W        W86243  34.646  21.559  14.723
19813W        W86244  41.439   2.280  12.551
19814W        W86245   0.252  34.439   1.223
19815W        W86246   6.591  44.918   4.069
19816W        W86247  32.170  32.078  12.029
19817W        W86248   7.280  37.869  13.005
19818W        W86249   7.720   8.907   4.135
19819W        W86250  39.329  16.867  11.157
19820W        W86251  42.979  27.736   0.509
19821W        W86252  43.038  22.482  13.594
19822W        W86253  32.904  40.253   0.726
19823W        W86254  34.524  34.284  10.344
19824W        W86255  18.973  26.693   3.559
19825W        W86256  30.719   9.319   3.627
19826W        W86257  18.347  42.778  14.988
19827W        W86258  26.918  43.883  11.312
19828W        W86259  34.022  41.442   4.737
19829W        W86260  26.802  30.253  13.022
19830W        W86261  14.776  41.840   1.262
19831W        W86262  38.096  35.881   0.839
19832W        W86263  31.915  29.702   5.054
19833W        W86264   0.972  29.090   3.124
19834W        W86265  44.513  23.603  12.078
19835W        W86266   8.434  14.159  12.167
19836W        W86267  39.861   6.363  14.536
19837W        W86268  33.426   7.014  11.581
19838W        W86269  38.176  42.776   2.944
19839W        W86270   9.899  44.463  13.533
19840W        W86271  22.422  33.941  13.576
19841W        W86272  30.606  16.115   4.308
19842W        W86273  36.476   7.937   5.170
19843W        W86274  14.339  30.930  13.844
19844W        W86275  17.260  29.475   4.612
19845W        W86276  31.437  13.769   3.890
19846W        W86277  24.499  24.663  11.649
19847W        W86278  29.918  25.285  14.988
19848W        W86279  34.559  18.085  10.720
19849W        W86280   5.557   1.731  14.539
19850W        W86281  15.542  31.149  13.680
19851W        W86282  38.938   4.425   2.813
19852W        W86283  27.566  16.977   2.193
19853W        W86284  18.691   3.491   5.237
19854W        W86285   4.016   0.630  10.747
19855W        W86286  36.642   9.853   0.919
19856W        W86287  15.398  18.684  11.110
19857W        W86288  19.146   2.292  11.477
19858W        W86289  21.296  28.233   2.727
19859W        W86290  12.163   0.643   3.774
19860W        W86291   8.958  42.147   3.210
19861W        W86292   7.701  28.522  13.147
19862W        W86293  25.432  24.028   3.993
19863W        W86294   4.692   2.755  10.649
19864W        W86295   9.863  25.233   2.995
19865W        W86296  16.265  34.545  11.554
19866W        W86297   5.715  44.760   3.793
19867W        W86298   2.377   3.855  14.777
19868W        W86299  25.236   9.657  12.991
19869W        W86300  35.502   5.181  12.573
19870W        W86301  29.954   3.424   2.734
19871W        W86302   7.732  36.628   2.523
19872W        W86303  38.076   4.489   1.468
19873W        W86304   3.201  14.481   1.956
19874W        W86305   0.930   9.559   2.336
19875W        W86306  13.281  16.550  11.125
19876W        W86307  12.865   3.547   2.177
19877W        W86308  43.961  26.425  11.980
19878W        W86309  36.577  15.720   0.048
19879W        W86310  33.931  44.367  14.850
19880W        W86311  43.376  13.723   0.443
19881W        W86312   0.539  26.118   0.394
19882W        W86313   8.300   5.004  11.974
19883W        W86314   0.440   6.858   0.649
19884W        W86315  23.121  30.777   0.357
19885W        W86316  25.530   5.133   9.807
19886W        W86317  14.289  33.538  11.474
19887W        W86318  42.435  36.540   2.393
19888W        W86319  13.119  41.479   1.330
19889W        W86320  10.451   3.789   3.411
19890W        W86321  22.622  34.799   4.499
19891W        W86322  33.990  31.557  14.014
19892W        W86323  21.683  24.954  14.117
19893W        W86324  14.742  17.152   1.347
19894W        W86325  10.804   1.918  11.199
19895W        W86326  19.374  25.134  12.139
19896W        W86327  24.459  42.249  11.680
19897W        W86328  21.958   4.441   1.861
19898W        W86329  39.838  24.671  12.599
19899W        W86330  11.800   8.614  11.870
19900W        W86331   5.194  40.741   4.266
19901W        W86332  41.735  31.983   4.052
19902W        W86333   3.206  21.754   0.897
19903W        W86334  35.505  25.186  13.779
19904W        W86335  36.667   0.919  10.722
19905W        W86336  44.418  24.591   1.924
19906W        W86337  28.490  27.465  14.314
19907W        W86338  30.574   0.998  13.253
19908W        W86339   1.362  31.645  13.929
19909W        W86340  19.847   3.256   1.845
19910W        W86341  31.760  12.214  11.552
19911W        W86342  17.718  24.350   4.142
19912W        W86343  25.340   7.079   2.044
19913W        W86344  13.607  12.690   3.352
19914W        W86345   6.180  21.687  12.944
19915W        W86346  39.943  19.689  12.969
19916W        W86347  32.640  16.124  13.899
19917W        W86348  28.608  43.326   0.228
19918W        W86349  44.521  15.253   2.084
19919W        W86350  12.882   0.684  11.855
19920W        W86351  19.329  44.915   1.795
19921W        W86352  17.979  19.735   2.276
19922W        W86353  21.075  33.520  11.741
19923W        W86354  23.370  33.370  12.579
19924W        W86355  30.170  18.078   1.641
19925W        W86356  34.503   4.293   0.711
19926W        W86357   0.845  29.707  10.669
19927W        W86358  44.419  10.101  12.493
19928W        W86359  26.087  18.230   3.150
19929W        W86360   8.723  29.111  14.742
19930W        W86361  10.419  16.626  11.647
19931W        W86362  30.571  34.795   1.225
19932W        W86363   2.218  34.607  11.153
19933W        W86364  27.879   4.177  14.421
19934W        W86365  31.743  21.492  14.789
19935W        W86366   4.217   5.695  13.516
19936W        W86367  15.559   3.904   2.795
19937W        W86368   4.661  19.442   4.082
19938W        W86369  32.625   5.681  10.697
19939W        W86370   8.134   1.825   2.777
19940W        W86371  23.496   1.977   4.137
19941W        W86372  42.415  31.444   2.005
19942W        W86373  22.705   7.309  13.924
19943W        W86374  28.418  31.051  12.045
19944W        W86375  26.161  44.691  13.836
19945W        W86376   2.658  32.456  14.744
19946W        W86377   6.881  42.446  14.281
19947W        W86378  43.736  35.744  12.008
19948W        W86379  11.104  29.481  13.135
19949W        W86380  32.816   4.296   4.243
19950W        W86381  23.997  24.660   1.037
19951W        W86382  40.795  15.703   0.941
19952W        W86383  13.487   4.691   2.855
19953W        W86384  14.813  20.825   2.125
19954W        W86385   6.738  35.677  12.526
19955W        W86386   2.674  26.162   2.487
19956W        W86387   1.017  11.854   0.977
19957W        W86388   7.788  30.928   3.516
19958W        W86389   8.275  19.206  12.905
19959W        W86390  24.642  43.373  10.882
19960W        W86391   7.464  38.466  14.786
19961W        W86392  39.366  36.401  14.778
19962W        W86393  22.761  42.658   4.186
19963W        W86394  18.811  12.677  14.453
19964W        W86395  17.213  41.768   4.519
19965W        W86396  21.298  27.907   2.336
19966W        W86397  41.771  40.863  12.873
19967W        W86398   1.707   5.614   2.703
19968W        W86399   7.345  17.503  12.727
19969W        W86400  41.812  39.905  13.621
19970W        W86401  29.970  42.896  11.292
19971W        W86402   8.151   2.906  13.580
19972W        W86403  19.045  31.113   2.159
19973W        W86404  44.193  16.273   3.749
19974W        W86405  14.301  38.173  14.266
19975W        W86406  38.795   1.092  13.369
19976W        W86407  31.545   9.486  14.989
19977W        W86408  24.483  42.095  13.160
19978W        W86409  10.924  20.787  10.815
19979W        W86410  27.439   4.985  11.345
19980W        W86411  36.692   6.399  12.020
19981W        W86412  36.818   9.875  11.384
19982W        W86413  12.453  28.102  13.550
19983W        W86414  34.966  32.700  10.799
19984W        W86415  31.891  26.190   3.210
19985W        W86416   2.410  21.829   1.228
19986W        W86417  13.671  35.029   0.791
19987W        W86418  38.263  19.285  11.111
19988W        W86419  41.964  35.561  11.998
19989W        W86420  26.605   1.249  11.480
19990W        W86421   9.272  13.606   2.891
19991W        W86422   0.077  32.117  12.907
19992W        W86423  42.571  41.631  11.515
19993W        W86424  22.300  38.797  14.358
19994W        W86425   8.681  23.795  12.917
19995W        W86426  18.153   6.734   1.922
19996W        W86427  12.590   7.016  13.403
19997W        W86428  42.961   5.784  12.631
19998W        W86429  13.999  27.197   1.885
19999W        W86430  18.280   6.705   4.356
20000W        W86431  31.083  35.906   1.630
20001W        W86432   4.714  24.201  13.341
20002W        W86433  12.510  29.582   1.737
20003W        W86434   2.518  30.033   3.202
20004W        W86435  30.695   6.973  10.223
20005W        W86436  34.605  13.550  12.654
20006W        W86437   4.720  11.151  14.647
20007W        W86438   0.456  30.932  10.946
20008W        W86439  44.011  30.071  11.025
20009W        W86440   0.942  29.673  12.584
20010W        W86441   9.392  16.406  10.262
20011W        W86442  41.530  38.655   3.598
20012W        W86443  29.462   2.308  14.308
20013W        W86444  16.143  39.294   0.821
20014W        W86445  22.632   5.822  11.652
20015W        W86446   1.909  19.159   3.477
20016W        W86447  28.030  30.880  13.357
20017W        W86448  20.666   4.878  10.551
20018W        W86449  33.452  21.078   4.926
20019W        W86450   4.468  37.874   3.549
20020W        W86451  11.180  29.608  11.713
20021W        W86452  40.520  33.521  12.691
20022W        W86453  42.655  20.225   4.603
20023W        W86454  29.070  39.865   1.311
20024W        W86455   5.440   6.368   0.971
20025W        W86456  43.917  11.589  10.607
20026W        W86457  28.919  27.487  11.158
20027W        W86458   7.461  10.594  11.521
20028W        W86459  26.116  13.185  14.316
20029W        W86460   3.378  30.497   2.151
20030W        W86461  10.713   2.375   1.300
20031W        W86462  36.596  33.297   1.280
20032W        W86463  14.218  34.625  11.503
20033W        W86464  14.025  20.640  11.233
20034W        W86465   9.639  32.379  14.778
20035W        W86466   7.769  37.677  12.911
20036W        W86467   5.219  27.412   3.085
20037W        W86468  12.278   1.246  13.018
20038W        W86469  44.295  35.460  14.757
20039W        W86470  31.638   6.767  13.048
20040W        W86471  31.459  41.032   2.837
20041W        W86472  12.077   1.926   2.337
20042W        W86473  42.405  17.701   0.630
20043W        W86474  19.488  27.245  13.390
20044W        W86475  14.887  18.215   1.196
20045W        W86476  24.331  19.040  14.125
20046W        W86477  23.548  41.242  11.602
20047W        W86478  42.803  34.036  12.612
20048W        W86479   4.665  42.541  13.381
20049W        W86480  44.481  15.580   3.285
20050W        W86481  31.705   1.919   3.207
20051W        W86482  29.974  22.603  14.948
20052W        W86483   2.296  36.878  11.603
20053W        W86484  43.624  28.459   0.279
20054W        W86485  31.759  16.355   3.384
20055W        W86486  39.609  38.144  14.634
20056W        W86487  40.330   9.798  12.574
20057W        W86488  28.151  11.054   2.219
20058W        W86489  25.767  24.036  13.751
20059W        W86490  23.789   4.841  14.300
20060W        W86491  38.816  44.433  10.719
20061W        W86492  21.559  16.482   0.231
20062W        W86493   5.415  27.387   2.148
20063W        W86494  32.443   9.739  11.655
20064W        W86495  19.525   0.706   3.681
20065W        W86496  33.238  22.917  12.021
20066W        W86497  15.382   5.610   3.037
20067W        W86498   4.044  17.729  11.049
20068W        W86499  11.703   5.709   4.625
20069W        W86500  13.204  42.221  12.453
20070W        W86501  20.264  36.902  14.518
20071W        W86502  31.371  42.392  11.472
20072W        W86503  12.732   2.093   2.393
20073W        W86504  24.114  32.513   4.217
20074W        W86505  16.214  36.653  12.493
20075W        W86506  21.944  40.574  11.086
20076W        W86507  38.731  42.472   3.327
20077W        W86508  39.469  26.414  12.491
20078W        W86509  14.793  41.482  14.317
20079W        W86510  16.733  40.884  14.026
20080W        W86511  29.968   1.850  11.732
20081W        W86512  26.215  26.681  14.757
20082W        W86513  30.161  36.123   0.803
20083W        W86514   0.906  12.886  14.838
20084W        W86515  34.313  18.231   0.978
20085W        W86516  21.540  12.643   5.036
20086W        W86517  43.789  30.517   0.859
20087W        W86518  29.143  42.281   4.203
20088W        W86519  10.398  22.238  14.171
20089W        W86520  26.958  12.359  11.212
20090W        W86521   1.273  19.253   2.240
20091W        W86522  17.970  38.595   0.052
20092W        W86523  16.215  28.471   2.348
20093W        W86524  40.453   1.360   2.720
20094W        W86525   2.523  35.994   2.336
20095W        W86526  19.982  44.441   1.844
20096W        W86527  42.827  38.434   4.198
20097W        W86528  32.878  24.608  13.120
20098W        W86529  11.658  28.271   0.363
20099W        W86530  14.782  33.125  14.444
20100W        W86531   1.558  32.971   1.600
20101W        W86532  12.714  34.854  12.896
20102W        W86533  11.216   1.351   3.199
20103W        W86534   4.247  27.161  13.084
20104W        W86535   8.085   0.473  11.019
20105W        W86536  16.217  38.332   3.579
20106W        W86537  22.345  17.635  12.118
20107W        W86538  20.269  41.530   3.641
20108W        W86539  15.367  21.065  14.503
20109W        W86540  12.223  27.492   2.281
20110W        W86541  26.533  23.039   2.502
20111W        W86542  25.711   3.548   3.121
20112W        W86543  12.115  35.877  12.564
20113W        W86544   6.799   9.692  10.694
20114W        W86545  39.501  19.157  12.627
20115W        W86546  43.681  35.740   1.422
20116W        W86547  42.012  11.940  12.676
20117W        W86548  36.748   1.421  10.726
20118W        W86549  21.904  15.624  13.573
20119W        W86550  32.167  32.574  11.893
20120W        W86551   9.855  16.699  14.342
20121W        W86552  16.614  14.840   1.260
20122W        W86553   6.651  39.918  11.223
20123W        W86554  11.656  30.558   2.916
20124W        W86555  35.057  33.042   1.196
20125W        W86556  30.439  18.011   2.241
20126W        W86557  25.772  44.793   4.589
20127W        W86558  43.818   5.162   1.547
20128W        W86559  34.509  13.485   2.880
20129W        W86560   2.686  24.299  11.222
20130W        W86561  18.494  12.010   2.819
20131W        W86562  33.538  41.868   2.304
20132W        W86563  30.980  37.586  14.454
20133W        W86564  16.604  33.669   4.092
20134W        W86565  19.568  19.241   1.235
20135W        W86566  33.852   7.870   4.161
20136W        W86567  22.650  35.706  14.311
20137W        W86568   7.982  38.491   0.296
20138W        W86569  37.360   6.718  12.483
20139W        W86570  44.385  24.659   2.435
20140W        W86571  27.242  26.111  11.868
20141W        W86572  37.726  28.718   0.818
20142W        W86573  29.612  36.504   3.185
20143W        W86574  39.414   1.357   2.710
20144W        W86575  40.249   6.741   4.966
20145W        W86576  25.711  17.870  11.112
20146W        W86577  11.994  44.225   0.378
20147W        W86578  42.742  25.234  11.016
20148W        W86579   9.853  13.108  14.397
20149W        W86580  20.393  35.464   4.165
20150W        W86581  17.036   2.268   0.870
20151W        W86582  30.686  17.896  10.951
20152W        W86583  28.039  30.171   2.711
20153W        W86584   7.851  26.402   0.940
20154W        W86585  10.812  42.126   1.372
20155W        W86586   0.202   8.883  12.447
20156W        W86587  15.468  33.630   3.342
20157W        W86588  11.243  38.489  11.314
20158W        W86589  10.656  18.233   2.833
20159W        W86590  21.234  14.557   5.056
20160W        W86591   3.416  20.466  12.402
20161W        W86592  44.596  20.800   2.786
20162W        W86593  15.622  32.057  13.498
20163W        W86594  33.948  32.212   4.308
20164W        W86595  31.933   2.867  11.355
20165W        W86596   9.361  12.423   3.755
20166W        W86597  30.639  14.214   3.152
20167W        W86598   5.928   2.752   0.247
20168W        W86599  36.194  27.287   5.023
20169W        W86600   9.139   8.655  12.630
20170W        W86601  44.499  40.731  10.905
20171W        W86602  32.710  29.373  11.521
20172W        W86603   4.751   0.158  13.064
20173W        W86604  42.340  13.810  14.539
20174W        W86605   2.798  43.277  10.936
20175W        W86606   7.154   6.611   2.390
20176W        W86607  38.460  29.424  10.659
20177W        W86608  35.144  14.792  12.418
20178W        W86609  19.765  25.977  11.586
20179W        W86610  42.516   5.456   2.148
20180W        W86611  30.184  38.966  14.927
20181W        W86612  44.247  11.716   0.390
20182W        W86613  22.373  36.338   3.669
20183W        W86614   4.710  28.162   9.744
20184W        W86615  17.655  22.899  11.882
20185W        W86616  19.292  12.687   0.885
20186W        W86617  34.595  33.497  14.852
20187W        W86618   9.289  24.186  10.736
20188W        W86619   9.867  22.113   0.985
20189W        W86620  39.275   5.804   3.170
20190W        W86621  16.800  23.060  10.752
20191W        W86622   8.226   6.690  10.257
20192W        W86623  29.737  32.538  14.031
20193W        W86624  26.006  16.034   1.104
20194W        W86625  11.837  12.136   4.997
20195W        W86626  40.883  32.506  13.453
20196W        W86627  40.617  31.980   1.303
20197W        W86628  23.655   2.289  13.951
20198W        W86629  19.809  41.327   1.165
20199W        W86630  33.847   1.251   3.341
20200W        W86631  12.218  27.494   0.011
20201W        W86632  43.112  13.098  11.771
20202W        W86633  20.716   0.701   0.018
20203W        W86634  11.843  20.326   4.647
20204W        W86635  43.486  41.422   3.153
20205W        W86636  28.989  33.436  11.066
20206W        W86637   3.862  20.921   0.907
20207W        W86638  31.421  20.482   2.177
20208W        W86639  21.291   1.127   4.232
20209W        W86640  11.617  25.606  13.484
20210W        W86641  43.357  13.948  14.330
20211W        W86642   1.970   5.956   2.310
20212W        W86643   5.867  17.330   1.841
20213W        W86644   0.834  18.518   2.240
20214W        W86645  22.614  28.026  12.457
20215W        W86646  18.014  38.917   1.712
20216W        W86647  28.817  34.503   2.925
20217W        W86648   5.821  43.965   4.610
20218W        W86649  30.964  36.046  14.511
20219W        W86650   8.876  27.874   4.167
20220W        W86651  32.785  37.739   2.592
20221W        W86652  26.259  10.445  11.562
20222W        W86653  11.796  35.168  12.109
20223W        W86654   4.318  20.146  11.951
20224W        W86655   3.685  28.310  11.906
20225W        W86656  22.508  25.644  12.935
20226W        W86657   4.633   3.529   1.550
20227W        W86658   8.766  10.222  10.641
20228W        W86659  10.358  18.736   0.855
20229W        W86660  23.348   5.775   3.216
20230W        W86661   4.044  12.296  11.980
20231W        W86662  24.621  15.118  11.029
20232W        W86663  11.277  40.821   4.903
20233W        W86664  40.355  44.483   4.544
20234W        W86665  34.489  27.718  12.043
20235W        W86666  29.429  19.032  13.099
20236W        W86667  25.812   2.236   2.793
20237W        W86668  24.206  14.670   1.568
20238W        W86669  29.311   1.295   0.874
20239W        W86670   2.569  16.118   2.258
20240W        W86671  11.205  28.950   3.622
20241W        W86672  36.632   3.503  12.066
20242W        W86673  12.143  40.751  10.664
20243W        W86674  19.750  42.703  13.019
20244W        W86675  34.660  14.167   4.937
20245W        W86676  39.593  30.599   0.416
20246W        W86677  10.597  21.923  12.577
20247W        W86678  28.022  34.404  12.987
20248W        W86679  25.913  12.170   2.739
20249W        W86680  18.254  43.993  12.323
20250W        W86681  10.877  31.530   4.622
20251W        W86682  23.102  44.421   0.397
20252W        W86683  32.488  42.132  13.365
20253W        W86684  16.400  11.246  13.372
20254W        W86685  10.423  19.122   4.543
20255W        W86686  29.559  15.383  13.064
20256W        W86687  19.268  20.562   2.272
20257W        W86688  24.270  10.088  12.809
20258W        W86689   3.193  31.145   4.129
20259W        W86690  23.669  39.982  12.014
20260W        W86691   2.867  25.225   3.985
20261W        W86692  23.459  42.635   3.682
20262W        W86693  14.011  15.526  10.855
20263W        W86694  17.451  22.042  10.653
20264W        W86695  29.588  37.463  12.560
20265W        W86696  40.585  25.798  14.300
20266W        W86697   4.345  30.142   2.915
20267W        W86698   8.236  16.088  11.627
20268W        W86699  13.115  19.047   3.238
20269W        W86700   6.891  41.618   2.396
20270W        W86701  43.091  17.681  14.370
20271W        W86702  42.441  37.073  12.619
20272W        W86703  31.043   3.410  10.983
20273W        W86704  11.562  25.405   5.123
20274W        W86705  37.297   7.372   1.634
20275W        W86706  27.665  43.918   2.571
20276W        W86707  20.734  17.236   9.696
20277W        W86708  40.966  38.311  11.710
20278W        W86709  10.309  41.821  11.201
20279W        W86710  37.595  15.098  12.126
20280W        W86711  34.517  10.804  11.274
20281W        W86712  23.646   4.234  12.089
20282W        W86713  27.390  32.977  12.374
20283W        W86714  24.930  36.884  14.976
20284W        W86715   2.976   7.676   3.287
20285W        W86716  26.974  39.808  10.777
20286W        W86717  27.756  39.299   2.726
20287W        W86718  40.819   4.795  10.380
20288W        W86719  42.803  29.514   0.845
20289W        W86720  13.694  38.397   1.856
20290W        W86721   2.255  36.062  12.887
20291W        W86722  19.287  13.108   0.506
20292W        W86723   3.310  12.057   2.547
20293W        W86724  36.411  44.943  13.990
20294W        W86725   1.209  28.090   5.021
20295W        W86726  32.111  34.424   4.189
20296W        W86727  43.304   6.612   0.363
20297W        W86728  27.091  22.774   0.041
20298W        W86729   4.213  25.370   2.222
20299W        W86730  11.754  37.356   1.822
20300W        W86731   2.355  15.633   3.203
20301W        W86732   2.010  15.212  12.214
20302W        W86733  36.548  11.642   2.349
20303W        W86734  12.653  31.616   0.177
20304W        W86735  14.127  16.519   4.354
20305W        W86736  25.530  17.729  14.003
20306W        W86737   3.975  42.493   4.703
20307W        W86738  17.185  13.278  14.138
20308W        W86739  31.890  10.300   3.567
20309W        W86740   0.260  10.231  13.476
20310W        W86741  26.334   1.890  14.533
20311W        W86742   5.284   6.908  13.425
20312W        W86743   3.970  18.273   3.261
20313W        W86744  40.249  39.605   0.744
20314W        W86745  33.775  29.595   3.383
20315W        W86746  41.833   8.081  10.781
20316W        W86747  20.380  19.985  14.847
20317W        W86748   0.207  13.579   2.208
20318W        W86749  19.640  12.196   0.967
20319W        W86750  23.247  20.777  12.282
20320W        W86751  20.757   9.195   4.569
20321W        W86752  15.850  15.351   4.078
20322W        W86753  41.019  33.212  10.613
20323W        W86754  27.549  30.543  11.039
20324W        W86755  21.710  40.428   4.502
20325W        W86756  33.965  21.265   1.805
20326W        W86757   6.702  24.605  11.563
20327W        W86758  40.779   0.170  12.980
20328W        W86759   7.524   6.002  13.055
20329W        W86760   6.766  39.553   2.036
20330W        W86761  27.417  37.912  12.946
20331W        W86762  21.620  24.589  12.102
20332W        W86763  40.106  21.669  14.265
20333W        W86764   2.168  39.276   2.745
20334W        W86765  23.963  35.423  11.873
20335W        W86766  21.565  23.000  14.244
20336W        W86767  44.523  24.360   5.130
20337W        W86768   0.521  10.405   1.284
20338W        W86769  35.545   0.917  13.509
20339W        W86770   4.021  38.761  11.519
20340W        W86771  33.455  24.964  12.348
20341W        W86772  44.233  13.015   5.189
20342W        W86773  44.460  40.079  14.477
20343W        W86774  42.059  44.956  11.618
20344W        W86775  32.272   6.485   2.400
20345W        W86776  42.041  10.207   0.235
20346W        W86777  23.266   3.726   2.887
20347W        W86778  23.291  23.139   4.588
20348W        W86779  39.461  32.641   1.168
20349W        W86780   2.300  21.634   4.102
20350W        W86781  11.776  29.413  13.467
20351W        W86782  26.664  13.099   2.079
20352W        W86783  31.615  44.714   1.726
20353W        W86784  11.132  29.741   1.552
20354W        W86785  40.805  17.381   3.245
20355W        W86786   8.981  15.772   0.177
20356W        W86787   0.382  40.905  14.274
20357W        W86788   2.830  38.315  12.549
20358W        W86789  29.162  34.268  14.921
20359W        W86790  44.665  19.459  12.540
20360W        W86791  10.752  28.609  13.846
20361W        W86792  34.948  12.865  13.389
20362W        W86793  30.568   1.784   0.443
20363W        W86794  35.390  14.763   2.237
20364W        W86795  44.673   7.417   3.772
20365W        W86796  30.204  44.301   3.938
20366W        W86797  16.335   6.458  13.737
20367W        W86798  40.407  31.074   3.605
20368W        W86799  27.896   0.356  10.784
20369W        W86800  33.628  17.836   2.637
20370W        W86801  14.185  43.324  14.257
20371W        W86802  29.748  26.613  14.785
20372W        W86803  43.997  25.676   2.683
20373W        W86804  15.326   4.855   5.384
20374W        W86805   8.618  25.497  13.525
20375W        W86806   9.608   4.399  13.463
20376W        W86807  37.351  24.587  14.662
20377W        W86808  32.283   1.446  10.911
20378W        W86809  42.242   7.727  12.829
20379W        W86810  25.636  35.094   3.403
20380W        W86811  24.105   8.206  14.482
20381W        W86812  31.410  25.127  14.812
20382W        W86813  43.495  43.586  12.902
20383W        W86814  23.789  23.741  14.606
20384W        W86815   0.654  39.469   2.655
20385W        W86816  23.571  23.435  12.276
20386W        W86817  17.548  28.448  12.493
20387W        W86818  18.625   4.067   0.853
20388W        W86819  17.627  42.027  11.598
20389W        W86820   2.907  18.727  11.170
20390W        W86821  34.893  17.221   3.348
20391W        W86822   0.955  11.178  14.133
20392W        W86823  30.713   2.434   1.917
20393W        W86824  27.320   0.908   1.337
20394W        W86825  13.856  26.873  13.825
20395W        W86826   8.307  31.276  11.135
20396W        W86827  33.237  11.142   2.247
20397W        W86828   8.864  44.461  11.960
20398W        W86829   2.249   9.219   0.719
20399W        W86830  25.116  27.068  10.515
20400W        W86831   3.265  37.944  13.523
20401W        W86832  25.171   0.028   3.201
20402W        W86833  30.688   7.320  11.330
20403W        W86834   9.147  40.347  13.428
20404W        W86835  17.529  21.918   1.449
20405W        W86836  25.211  27.492   4.529
20406W        W86837  23.538  36.809   1.911
20407W        W86838  32.637  21.197   2.259
20408W        W86839  12.188  39.738   1.919
20409W        W86840  12.707   9.217  12.627
20410W        W86841  34.389  11.724   0.770
20411W        W86842  20.778  26.512   2.231
20412W        W86843   8.013   2.228  13.463
20413W        W86844  21.471  29.657  12.149
20414W        W86845  13.344  35.686   3.264
20415W        W86846  43.958  44.230   1.909
20416W        W86847  39.909  12.747   4.528
20417W        W86848   1.594   1.846   2.263
20418W        W86849   9.778  32.479   0.389
20419W        W86850   7.750  17.804  11.694
20420W        W86851  25.466   2.416  11.128
20421W        W86852  15.556  19.828  12.900
20422W        W86853  43.751  34.479  11.595
20423W        W86854  33.353  19.795  10.542
20424W        W86855  15.149  10.393  12.552
20425W        W86856  40.827  21.784  13.011
20426W        W86857  12.722  14.719   3.746
20427W        W86858  36.473  25.843   3.662
20428W        W86859  30.049  42.843   3.612
20429W        W86860  44.938   3.948  11.615
20430W        W86861  36.815  32.868  12.110
20431W        W86862  20.018  19.547  13.192
20432W        W86863  39.558  23.722   1.011
20433W        W86864   4.722  31.857   3.604
20434W        W86865  15.838  34.425  11.805
20435W        W86866  41.961   5.905   4.211
20436W        W86867  27.895  11.992  13.437
20437W        W86868  37.328  12.064  14.547
20438W        W86869  10.707  32.398   2.617
20439W        W86870   4.365  35.170   3.851
20440W        W86871   0.089  21.874   1.315
20441W        W86872  44.917  22.042  10.986
20442W        W86873  28.668  25.659  11.209
20443W        W86874  12.446  21.168  12.111
20444W        W86875  23.067  34.515   1.766
20445W        W86876  32.219  26.665   3.070
20446W        W86877  31.434  23.871   2.027
20447W        W86878  22.513  28.619   4.512
20448W        W86879  11.358  14.243   0.733
20449W        W86880  39.402   9.250   4.102
20450W        W86881  35.417  21.929  12.351
20451W        W86882  25.579  34.123   3.146
20452W        W86883   1.953   2.081  13.643
20453W        W86884   8.837  11.752   3.118
20454W        W86885  30.761  38.906  11.727
20455W        W86886   2.244  36.698   3.206
20456W        W86887  39.593  31.076  12.267
20457W        W86888   0.746  22.677  11.956
20458W        W86889  17.027  13.156   0.955
20459W        W86890  44.642  21.646  10.743
20460W        W86891  42.326  13.212   2.213
20461W        W86892  10.025   9.398  11.843
20462W        W86893  23.166  19.218   2.917
20463W        W86894  15.444  19.466  11.587
20464W        W86895   4.397  44.939   0.096
20465W        W86896   3.249   8.935  11.695
20466W        W86897  33.637   6.443   1.878
20467W        W86898  41.356  42.488  12.537
20468W        W86899  12.373   9.298  11.389
20469W        W86900  13.239  11.811  11.999
20470W        W86901  25.683  24.054   2.046
20471W        W86902   2.194   2.401   2.677
20472W        W86903  19.916  16.667   4.817
20473W        W86904   9.657  23.679  11.749
20474W        W86905  33.141   9.853  14.874
20475W        W86906  23.993  24.612   1.573
20476W        W86907  37.879   2.813  13.010
20477W        W86908  32.188   1.739   3.082
20478W        W86909  15.849  44.664  13.774
20479W        W86910  15.673  39.924  12.206
20480W        W86911  41.746  34.174   0.845
20481W        W86912  19.870  42.999   0.548
20482W        W86913  21.593  41.957   1.840
20483W        W86914  40.324  29.027   4.362
20484W        W86915  39.925  29.944  12.811
20485W        W86916   7.915   9.806  11.633
20486W        W86917  26.064   8.470   4.686
20487W        W86918   5.219  38.593   4.584
20488W        W86919  44.435  41.476  11.624
20489W        W86920  32.986  41.426  11.844
20490W        W86921  25.571  41.000  11.922
20491W        W86922  18.652   4.878   5.149
20492W        W86923  20.200   5.803   1.286
20493W        W86924  14.855   7.139   0.266
20494W        W86925   3.742  33.193  11.945
20495W        W86926   4.165  24.310   4.673
20496W        W86927  36.420  26.729   1.334
20497W        W86928  40.474  10.551  11.534
20498W        W86929  19.805   6.966  13.028
20499W        W86930  27.149  32.955  12.906
20500W        W86931  18.478  19.258  14.305
20501W        W86932  40.491  13.587   1.987
20502W        W86933  10.697  35.480  12.450
20503W        W86934  12.875  26.201   0.009
20504W        W86935  41.951   5.025  12.246
20505W        W86936   3.665  24.205   4.809
20506W        W86937  29.643  30.902   1.202
20507W        W86938  29.993   6.925  12.948
20508W        W86939   5.317  42.432  10.363
20509W        W86940  27.137  30.670  12.367
20510W        W86941  34.215  17.198  11.148
20511W        W86942  24.498  16.285  13.079
20512W        W86943   0.386  15.502   0.284
20513W        W86944  41.953   4.517   3.553
20514W        W86945  20.677  22.862  12.546
20515W        W86946  12.801  36.006   1.060
20516W        W86947  38.399   8.326   1.898
20517W        W86948   7.193   7.802  14.431
20518W        W86949  15.080  10.991  11.694
20519W        W86950   3.253  21.180   4.645
20520W        W86951  36.568   6.588  11.205
20521W        W86952  31.629  44.085   3.815
20522W        W86953  35.072  38.845   4.977
20523W        W86954  24.087  14.295   4.638
20524W        W86955  40.876  14.899  14.333
20525W        W86956  23.510  41.980  14.452
20526W        W86957  41.247  25.659   4.264
20527W        W86958   6.348  28.129  11.175
20528W        W86959  24.565  15.340  14.389
20529W        W86960  12.652  15.181   2.130
20530W        W86961  30.527  43.230   1.148
20531W        W86962  15.275  23.642  11.951
20532W        W86963   5.616  24.489   1.179
20533W        W86964  27.224  27.698   1.299
20534W        W86965  11.744   9.740   4.381
20535W        W86966  42.595  34.493   0.917
20536W        W86967  40.850  15.600  13.749
20537W        W86968  26.837  38.483   3.976
20538W        W86969  26.077  19.640  11.246
20539W        W86970  43.054  34.971   4.549
20540W        W86971  42.227  41.538  13.874
20541W        W86972  43.874  19.883   0.150
20542W        W86973  27.514  42.651  12.992
20543W        W86974   8.264  36.678   3.798
20544W        W86975  38.234  36.855  12.525
20545W        W86976  16.996  43.346   4.561
20546W        W86977  22.075  32.630  14.938
20547W        W86978   6.289   8.609  12.998
20548W        W86979  10.226  19.213  10.948
20549W        W86980  35.664  40.766  11.898
20550W        W86981  37.213  15.840   1.270
20551W        W86982  29.713  44.581  11.042
20552W        W86983  17.115  12.312  12.978
20553W        W86984  23.758  18.648   3.337
20554W        W86985  29.456  41.189   2.903
20555W        W86986  23.049  25.164  13.572
20556W        W86987  22.413  30.910  14.709
20557W        W86988  31.092  10.903  11.124
20558W        W86989   2.733   0.887   2.950
20559W        W86990  33.518  18.045  13.526
20560W        W86991  25.772   6.865   4.164
20561W        W86992  33.900  29.814   3.835
20562W        W86993  10.672  25.750  11.941
20563W        W86994  33.503   7.883   2.366
20564W        W86995   2.292  27.987  12.441
20565W        W86996  44.436  27.278   3.112
20566W        W86997  43.497   3.103   0.948
20567W        W86998  19.901  29.894   4.794
20568W        W86999  31.048  24.046   3.273
20569W        W87000  40.929  19.139  14.932
20570W        W87001  11.803  39.988  13.663
20571W        W87002   0.081  28.566  12.792
20572W        W87003   9.617  42.344   1.254
20573W        W87004  11.327  17.643   2.490
20574W        W87005  38.361  17.870   2.915
20575W        W87006  34.991  41.610  12.800
20576W        W87007   6.374  43.307   0.007
20577W        W87008  10.834  39.471   4.794
20578W        W87009  14.432   4.888  13.982
20579W        W87010  16.072  44.233  12.060
20580W        W87011   1.020  40.326  14.496
20581W        W87012  31.475  41.058   0.236
20582W        W87013  26.629  32.097  14.464
20583W        W87014  44.100  10.674  11.009
20584W        W87015   3.811  30.503   3.868
20585W        W87016  35.308  11.725  12.119
20586W        W87017  41.455  13.624   3.746
20587W        W87018  42.310  23.642  12.073
20588W        W87019   0.298   3.499   0.799
20589W        W87020   7.772  41.917   3.648
20590W        W87021  11.484  31.453  14.842
20591W        W87022  38.627  24.574   4.098
20592W        W87023  39.081  14.512   4.553
20593W        W87024  20.174   7.811  12.656
20594W        W87025  30.758   4.727  11.604
20595W        W87026   8.751   3.566   5.004
20596W        W87027  28.750  12.978  13.273
20597W        W87028  23.652  37.997   3.778
20598W        W87029  32.311  42.513   4.561
20599W        W87030  20.134  12.531  11.962
20600W        W87031  17.367  37.951   2.574
20601W        W87032  27.166  29.867   3.108
20602W        W87033  40.951  31.307  11.207
20603W        W87034  34.322   2.148  11.259
20604W        W87035  39.783  22.290   1.837
20605W        W87036  22.110  10.348   0.261
20606W        W87037  13.674   6.393   1.023
20607W        W87038  43.666  25.141   1.884
20608W        W87039   3.290  24.937  11.750
20609W        W87040  43.534  14.616   0.876
20610W        W87041  16.120  11.045  13.779
20611W        W87042   2.155  44.324  14.762
20612W        W87043  11.734  25.232   1.919
20613W        W87044  15.241  40.567   4.721
20614W        W87045  16.741  11.219   4.811
20615W        W87046  17.152  18.815  11.475
20616W        W87047  44.203   6.265  11.439
20617W        W87048  13.910  30.537   2.424
20618W        W87049  11.099   7.204  10.614
20619W        W87050   7.894   1.025  13.592
20620W        W87051   5.792  22.763  14.930
20621W        W87052  20.140  44.857  11.410
20622W        W87053  27.074  19.763  10.302
20623W        W87054  26.510  25.963  11.158
20624W        W87055   3.131   2.217   4.979
20625W        W87056  33.129  28.566   4.658
20626W        W87057   0.496   3.142   2.898
20627W        W87058  15.877  26.619   0.025
20628W        W87059  38.843  37.174  14.064
20629W        W87060   3.405  26.993   1.061
20630W        W87061   0.326  39.800   2.886
20631W        W87062  23.912  27.072   4.294
20632W        W87063   3.498  18.077  12.413
20633W        W87064  13.651  35.291  11.802
20634W        W87065   3.307  43.085  10.418
20635W        W87066  41.510  11.821   3.334
20636W        W87067  18.754  12.580   0.782
20637W        W87068  15.335  43.896  14.744
20638W        W87069   2.902  13.775  11.668
20639W        W87070   8.340  35.020  14.526
20640W        W87071  39.474  41.893   5.027
20641W        W87072   0.052  19.658  14.943
20642W        W87073  30.032   0.882  13.907
20643W        W87074  26.020  35.580   4.237
20644W        W87075  13.651   7.258  11.208
20645W        W87076   6.632   2.789   1.242
20646W        W87077  28.566  29.976   4.570
20647W        W87078  24.240   6.861   1.448
20648W        W87079  41.183  21.041   2.733
20649W        W87080  24.274   0.099   4.294
20650W        W87081  35.458  18.346   3.727
20651W        W87082  14.634   6.085  11.647
20652W        W87083  18.247   1.510   0.182
20653W        W87084   9.451   5.397   3.218
20654W        W87085  31.382   8.243  11.990
20655W        W87086   4.951  12.939  14.395
20656W        W87087  39.260  29.523   0.308
20657W        W87088  39.835  17.108   2.355
20658W        W87089   8.478   5.683   4.889
20659W        W87090   6.879  15.646  10.333
20660W        W87091  37.074  37.328   1.479
20661W        W87092  20.713  23.210   3.824
20662W        W87093  17.299  30.804   0.576
20663W        W87094  11.258  13.105  10.596
20664W        W87095  37.377  20.612  12.596
20665W        W87096  15.404  40.549   0.940
20666W        W87097   1.937  21.173  10.654
20667W        W87098  35.623  15.681  13.350
20668W        W87099  13.868   7.939   4.141
20669W        W87100  15.575   5.750  13.985
20670W        W87101  14.257  22.566   2.104
20671W        W87102  16.930  21.432  11.122
20672W        W87103  20.568  38.804   0.738
20673W        W87104  32.699   0.711  12.945
20674W        W87105   3.734  32.884   1.625
20675W        W87106   4.166  15.200  10.427
20676W        W87107   9.663   7.770   4.680
20677W        W87108   8.957  25.256   0.237
20678W        W87109  43.771  42.762   3.250
20679W        W87110  10.573   9.401  12.589
20680W        W87111  23.195   0.703   3.583
20681W        W87112   8.945  42.998   0.875
20682W        W87113  27.449   5.195  10.183
20683W        W87114  43.566  18.803   1.460
20684W        W87115  16.330  27.432   2.150
20685W        W87116  25.568  13.049   1.287
20686W        W87117  23.456  35.096   2.867
20687W        W87118  41.500  22.627   0.541
20688W        W87119   7.746  36.029  13.323
20689W        W87120   9.233  43.073  11.923
20690W        W87121  36.139  32.996  11.006
20691W        W87122  43.454  35.356   2.930
20692W        W87123  20.015  39.955  11.255
20693W        W87124  14.615  18.198  11.136
20694W        W87125   2.935  42.802   2.332
20695W        W87126   2.527  17.932   3.526
20696W        W87127  16.222  26.380  12.968
20697W        W87128   0.029  26.924   3.789
20698W        W87129  33.399  16.540  10.972
20699W        W87130  27.527  24.390  11.326
20700W        W87131   3.490  27.161  12.604
20701W        W87132  37.895   8.698  11.736
20702W        W87133   0.019   5.563  14.325
20703W        W87134  28.450  15.313   2.842
20704W        W87135  13.678   3.429   1.864
20705W        W87136  42.009  17.362   0.452
20706W        W87137  34.876   8.026   1.169
20707W        W87138  33.398  43.806   3.755
20708W        W87139  14.569  20.029  13.114
20709W        W87140   5.801  24.279  11.199
20710W        W87141  33.510  13.932   3.666
20711W        W87142  20.765   4.664  14.308
20712W        W87143  34.408  28.198   3.022
20713W        W87144  33.358  23.007   3.313
20714W        W87145  22.509   0.360  14.465
20715W        W87146  42.768   7.898  11.442
20716W        W87147  17.068   1.918   4.340
20717W        W87148  20.041  34.358  13.967
20718W        W87149  20.850  31.471  14.287
20719W        W87150  23.278  32.979   0.958
20720W        W87151  39.620  10.166  12.531
20721W        W87152  31.651  30.098   1.462
20722W        W87153  35.934  25.948   3.795
20723W        W87154  16.418  14.334  12.973
20724W        W87155  12.990   2.763  13.416
20725W        W87156  29.951   8.532   1.732
20726W        W87157  15.205  16.086   3.513
20727W        W87158  30.056  36.827   2.652
20728W        W87159  25.397  38.821  10.233
20729W        W87160  34.726  22.273  14.905
20730W        W87161  15.082  31.031  14.495
20731W        W87162  18.067  19.075   2.621
20732W        W87163  25.140  35.895  14.944
20733W        W87164  30.067  42.380   3.147
20734W        W87165   6.902  18.823   4.635
20735W        W87166  42.332   9.332  13.464
20736W        W87167  39.741   9.022  12.913
20737W        W87168   4.024  27.396   0.788
20738W        W87169  22.651  16.630  14.452
20739W        W87170  25.577  16.112  12.055
20740W        W87171   3.117  16.249   2.316
20741W        W87172   4.367   3.341   0.574
20742W        W87173  40.043  19.141   0.496
20743W        W87174  43.333  40.752   1.871
20744W        W87175  26.448  22.308   1.185
20745W        W87176   8.303  17.334   0.934
20746W        W87177   3.407  24.736   2.336
20747W        W87178   4.732   2.420   1.363
20748W        W87179  43.765  14.330  13.066
20749W        W87180  23.233  21.194   4.024
20750W        W87181   1.315  15.156  14.308
20751W        W87182  28.490  29.122   0.915
20752W        W87183   3.156  23.166   0.451
20753W        W87184   5.418  39.424  13.396
20754W        W87185   9.775  20.516  12.519
20755W        W87186  26.408  37.435  14.260
20756W        W87187  28.970  23.994  14.919
20757W        W87188  39.825   1.968  14.467
20758W        W87189  31.062  44.727   3.805
20759W        W87190  11.908  28.406  14.920
20760W        W87191  18.881  13.065  12.067
20761W        W87192  18.304  32.379  13.212
20762W        W87193   0.901  11.550  10.671
20763W        W87194  18.599  19.891   4.001
20764W        W87195  41.149   7.661   0.883
20765W        W87196  17.882  34.797   1.233
20766W        W87197   7.378  32.385  14.307
20767W        W87198  42.443  31.647  13.278
20768W        W87199   4.266  41.135   1.625
20769W        W87200  34.392  43.714   4.671
20770W        W87201  34.060   1.713  11.227
20771W        W87202  42.707  15.216   3.373
20772W        W87203  37.387   5.690   4.104
20773W        W87204  18.056  22.958   2.255
20774W        W87205  24.607  20.841   3.169
20775W        W87206  12.359  16.806   0.393
20776W        W87207  16.828   2.901  12.431
20777W        W87208  36.066  23.991   0.300
20778W        W87209  17.371  24.208   4.573
20779W        W87210  14.967  39.721   0.213
20780W        W87211  24.571  41.304   3.512
20781W        W87212  31.369  17.191  11.282
20782W        W87213  33.444  29.437   1.478
20783W        W87214  42.269  34.936  12.632
20784W        W87215  26.183  13.118   2.274
20785W        W87216   2.344  22.438  13.512
20786W        W87217  10.313  24.748   2.490
20787W        W87218   6.858  44.928   3.607
20788W        W87219  10.259  38.785   4.326
20789W        W87220  18.247  26.131  11.424
20790W        W87221  29.667  20.057   3.295
20791W        W87222  26.048  38.104   1.719
20792W        W87223  37.227  42.984   3.827
20793W        W87224  35.558   3.199   3.181
20794W        W87225  25.161   0.628   2.455
20795W        W87226  28.740  44.894  10.880
20796W        W87227  44.927  20.935   4.156
20797W        W87228   5.805   4.973   4.207
20798W        W87229  27.588  15.472   2.900
20799W        W87230  25.355  19.889   5.400
20800W        W87231  23.644   8.100   2.319
20801W        W87232   1.009  22.497  12.392
20802W        W87233  43.821   4.730  14.678
20803W        W87234   9.142  26.725   2.841
20804W        W87235  28.283  34.985  12.291
20805W        W87236  36.956  29.630   2.347
20806W        W87237  41.901  11.713  10.697
20807W        W87238  14.313  41.091   3.170
20808W        W87239  26.175  11.020   3.659
20809W        W87240  11.583   6.713   2.075
20810W        W87241  29.112  29.006   3.698
20811W        W87242   4.912  28.166   0.542
20812W        W87243  14.714  33.512  13.576
20813W        W87244  30.763  29.050   3.198
20814W        W87245  19.554  15.574   0.010
20815W        W87246  34.032  11.565  12.451
20816W        W87247  14.619  43.869   0.798
20817W        W87248   7.707  37.113   2.348
20818W        W87249  16.080  13.083   2.708
20819W        W87250  26.998  10.169   3.689
20820W        W87251   8.281   0.310  11.822
20821W        W87252  36.913  43.342   2.162
20822W        W87253  37.587  19.267  11.718
20823W        W87254  14.385  39.534   3.364
20824W        W87255  21.191  44.915   1.824
20825W        W87256  43.757  42.803  13.138
20826W        W87257  30.595  18.085  11.898
20827W        W87258   2.249  39.538   2.238
20828W        W87259  39.986  44.246  13.867
20829W        W87260  39.045  13.259   1.306
20830W        W87261  39.348   0.447  11.176
20831W        W87262  29.157  26.746  10.777
20832W        W87263  40.222  37.983  12.940
20833W        W87264  22.397  26.532  13.294
20834W        W87265  22.089  12.172  11.422
20835W        W87266  10.288   6.861   4.652
20836W        W87267   2.770  41.948   0.262
20837W        W87268  43.777  37.741  13.490
20838W        W87269  38.915  15.724   1.859
20839W        W87270  27.491  21.951  12.068
20840W        W87271  37.221  42.013  13.064
20841W        W87272  33.001  25.009   3.626
20842W        W87273  29.499  19.913  13.342
20843W        W87274  33.828  35.403  12.548
20844W        W87275  12.910  32.379   3.209
20845W        W87276  25.658  14.334  10.247
20846W        W87277  25.996  22.989  10.523
20847W        W87278  34.089  19.572  12.505
20848W        W87279  41.529  39.623  11.512
20849W        W87280  26.561  17.118  13.520
20850W        W87281   7.126  19.750   0.409
20851W        W87282  37.447  23.805  11.573
20852W        W87283  33.417  33.750  10.163
20853W        W87284  18.955  37.803   0.403
20854W        W87285   5.774  27.459  10.964
20855W        W87286  17.751   9.312   4.629
20856W        W87287  43.506  17.266  11.279
20857W        W87288  17.385  13.359  13.666
20858W        W87289  25.949  15.521   1.049
20859W        W87290   1.191   0.966  11.513
20860W        W87291  33.953  22.068  10.991
20861W        W87292  28.977  39.616  11.906
20862W        W87293  44.380  34.989  12.201
20863W        W87294   6.568  34.925  13.849
20864W        W87295  10.746  20.923  13.414
20865W        W87296   0.103  12.154  12.928
20866W        W87297  23.319  31.928   1.296
20867W        W87298   2.656  11.301   4.677
20868W        W87299   0.051  20.122   2.235
20869W        W87300  23.758  12.294   2.230
20870W        W87301   3.407  36.020   3.996
20871W        W87302  36.719  10.237  10.644
20872W        W87303  21.230  28.685   1.355
20873W        W87304  29.752  17.018   1.637
20874W        W87305  30.094  27.133   1.343
20875W        W87306  17.328  18.103   1.728
20876W        W87307  33.568  30.266   9.754
20877W        W87308  19.645   1.980  13.356
20878W        W87309  13.400  36.797  11.109
20879W        W87310  20.651  20.943  14.998
20880W        W87311  35.958  43.321   3.350
20881W        W87312  27.609   6.016  12.709
20882W        W87313  34.178   0.948  12.709
20883W        W87314  22.988   2.167  11.434
20884W        W87315   8.827  18.871   0.251
20885W        W87316  28.192  31.482   4.549
20886W        W87317   1.378  33.362   4.678
20887W        W87318   7.510   5.448   0.990
20888W        W87319   8.134  42.351  10.690
20889W        W87320   4.829   5.437  11.497
20890W        W87321  44.324  10.748  11.964
20891W        W87322  43.376  16.292   0.353
20892W        W87323  36.499  30.522   2.902
20893W        W87324  36.103  42.665  12.683
20894W        W87325  10.414  25.220   0.321
20895W        W87326  35.334  25.592  14.042
20896W        W87327  11.755   6.337   0.592
20897W        W87328  36.178   3.781  13.946
20898W        W87329  18.098  44.748   2.364
20899W        W87330  38.164  28.914   2.835
20900W        W87331  31.616  37.484   4.408
20901W        W87332  37.117  14.790  12.071
20902W        W87333   0.482  23.791   2.094
20903W        W87334  38.597  14.564  11.247
20904W        W87335  23.669  26.441   0.870
20905W        W87336  18.703  36.040   4.093
20906W        W87337   6.307  35.295   3.662
20907W        W87338  16.630  14.865  12.503
20908W        W87339  28.897  10.646  11.595
20909W        W87340  12.815   7.134   0.939
20910W        W87341  14.076   8.182  14.999
20911W        W87342  25.859  43.825  13.518
20912W        W87343   6.825   2.660   0.781
20913W        W87344  17.827  29.822  13.576
20914W        W87345   8.632  32.290   4.944
20915W        W87346  31.680  13.086  13.514
20916W        W87347   7.177  14.204   1.575
20917W        W87348  10.271  38.518   0.945
20918W        W87349  40.423  37.614  10.277
20919W        W87350  40.649   0.347   0.859
20920W        W87351  11.052  25.126  10.715
20921W        W87352  34.471  41.882  11.900
20922W        W87353  24.130   2.330   4.688
20923W        W87354  24.597  16.259   1.718
20924W        W87355  40.679  40.451   3.955
20925W        W87356  34.597  37.415   0.677
20926W        W87357  23.507   5.445  14.615
20927W        W87358  21.182  11.038  10.097
20928W        W87359   4.914  19.740  11.896
20929W        W87360  12.302  20.255  11.938
20930W        W87361  23.507  25.035  13.813
20931W        W87362   7.624  14.350   0.224
20932W        W87363   4.227  35.821   0.729
20933W        W87364  27.522  43.425  11.644
20934W        W87365  14.206  37.828   3.942
20935W        W87366  14.472  32.561  10.685
20936W        W87367  31.240  13.745  10.658
20937W        W87368  27.549  11.397   4.769
20938W        W87369  37.396  22.810   2.223
20939W        W87370   2.978  25.683   3.168
20940W        W87371  39.401  17.362  14.506
20941W        W87372   6.752  29.352  10.635
20942W        W87373  23.542   2.317  14.964
20943W        W87374  42.316  33.393   4.106
20944W        W87375  29.551  15.102  14.079
20945W        W87376  30.969  40.763  12.876
20946W        W87377  30.563   1.471  13.496
20947W        W87378  32.786  11.894   4.626
20948W        W87379  16.906  15.463  13.316
20949W        W87380  12.199  13.150  14.999
20950W        W87381  17.071   0.474  13.145
20951W        W87382   0.933  13.558  10.784
20952W        W87383  34.964  43.120   2.585
20953W        W87384  24.203   0.493  13.290
20954W        W87385  22.032   1.164   3.363
20955W        W87386  26.693  39.116  13.663
20956W        W87387  44.972  16.675  12.589
20957W        W87388  40.394  41.393   0.034
20958W        W87389  17.276  11.106  11.981
20959W        W87390  11.357   7.632   4.134
20960W        W87391  25.486   0.446   3.262
20961W        W87392  34.356   2.591  12.136
20962W        W87393   8.921   3.240   4.143
20963W        W87394  42.361  16.632   2.344
20964W        W87395  30.021  41.924   4.846
20965W        W87396  28.084  18.226  10.725
20966W        W87397  17.737  23.787   0.378
20967W        W87398  23.202  32.294   4.122
20968W        W87399  13.985  24.616   2.741
20969W        W87400  28.164  42.284   2.583
20970W        W87401  31.485  28.556  10.781
20971W        W87402   2.364  32.155  13.762
20972W        W87403  12.185  22.313  14.343
20973W        W87404  26.583  21.029   2.190
20974W        W87405   0.082  23.835  13.427
20975W        W87406  44.270  33.746  11.555
20976W        W87407  23.810  39.390   1.398
20977W        W87408  13.797  39.800   4.120
20978W        W87409   5.221  23.220  12.320
20979W        W87410  43.470  10.901  13.363
20980W        W87411  39.433  16.039   3.723
20981W        W87412  13.766  23.710   1.778
20982W        W87413  36.942  43.766  13.839
20983W        W87414  44.359  17.673   1.968
20984W        W87415   2.792  22.719  13.362
20985W        W87416  14.812  16.269   3.149
20986W        W87417  15.232   3.851   5.163
20987W        W87418  27.642  13.630  11.187
20988W        W87419   9.534   3.854  14.514
20989W        W87420  32.615  37.982  13.871
20990W        W87421  16.168  24.722  10.985
20991W        W87422  10.397  30.535  13.324
20992W        W87423  37.279  36.110  13.453
20993W        W87424   4.156  42.562  14.701
20994W        W87425  44.489  26.644  13.361
20995W        W87426  23.702   5.660  13.843
20996W        W87427  41.302  14.303   2.375
20997W        W87428  44.179   0.281  11.666
20998W        W87429   6.134  14.357  11.414
20999W        W87430  34.919  10.606   4.294
21000W        W87431   2.243  43.776   0.419
21001W        W87432  21.751  41.877   3.686
21002W        W87433   9.253  41.182   3.603
21003W        W87434  37.794  24.643   0.320
21004W        W87435  24.129  16.047  10.498
21005W        W87436  34.535   4.745  14.932
21006W        W87437   6.780   3.561   2.779
21007W        W87438   2.059  41.288   3.359
21008W        W87439  19.613   8.253   0.282
21009W        W87440  40.301  25.791   1.772
21010W        W87441  31.009   7.664  14.850
21011W        W87442  35.424  30.102   0.062
21012W        W87443  19.781  11.267  12.349
21013W        W87444   3.761  35.795   4.292
21014W        W87445  25.885  31.511  10.878
21015W        W87446  28.562  15.443  10.749
21016W        W87447   8.110  11.161  14.076
21017W        W87448  23.697   6.394  14.449
21018W        W87449  24.069  35.893  13.762
21019W        W87450  44.944  44.322   0.934
21020W        W87451  44.216  26.463  12.448
21021W        W87452  13.380  26.226  11.972
21022W        W87453  36.960  22.103   4.906
21023W        W87454  15.020  23.607   3.955
21024W        W87455  44.750  31.615   1.672
21025W        W87456   5.397  34.883  10.569
21026W        W87457   1.628  18.815  13.021
21027W        W87458  35.966   7.888   1.484
21028W        W87459  15.063  24.675  12.901
21029W        W87460  34.454  11.793  14.253
21030W        W87461  12.758  29.911  13.331
21031W        W87462  35.070  41.381   2.237
21032W        W87463  34.370   9.693  12.515
21033W        W87464  44.724  39.560  14.826
21034W        W87465  16.454  19.710  11.398
21035W        W87466  44.619  11.151  12.106
21036W        W87467   9.396  28.072  10.635
21037W        W87468   1.247  38.048  10.234
21038W        W87469  19.815  23.533   0.061
21039W        W87470   8.626   3.685   0.962
21040W        W87471  35.565  25.165   1.310
21041W        W87472  25.754  42.381   3.101
21042W        W87473  44.922  32.467  11.552
21043W        W87474  20.754  16.126   2.904
21044W        W87475   2.248  20.643   4.113
21045W        W87476  43.833  37.859   2.145
21046W        W87477   1.222  28.405  11.196
21047W        W87478  32.467  14.902   2.216
21048W        W87479  29.592  25.750   2.743
21049W        W87480  15.695  29.730  10.729
21050W        W87481  16.726  36.542  14.775
21051W        W87482  22.792   2.141   2.889
21052W        W87483  40.044  10.250   1.295
21053W        W87484  30.171  20.798  14.596
21054W        W87485  21.979  15.224   3.696
21055W        W87486  22.547  39.432  14.150
21056W        W87487   4.419  42.519   0.514
21057W        W87488  29.496  16.641   1.953
21058W        W87489   0.818  36.315   1.892
21059W        W87490  25.665  14.364  11.156
21060W        W87491   2.130  16.348   2.173
21061W        W87492  26.218  33.791  11.172
21062W        W87493  22.961  44.205  13.024
21063W        W87494   6.430  12.747   3.886
21064W        W87495  37.206  10.972   3.289
21065W        W87496  32.603  32.320  13.129
21066W        W87497   8.925  40.460  12.370
21067W        W87498  12.858  40.973   2.788
21068W        W87499  33.101   7.740  12.903
21069W        W87500   5.231  19.532   1.227
21070W        W87501   6.287  39.299  12.224
21071W        W87502  35.133  22.421  10.746
21072W        W87503  21.267  28.063  13.967
21073W        W87504   8.908  44.279   2.176
21074W        W87505  34.549  18.330   0.542
21075W        W87506  14.419  23.494  13.935
21076W        W87507  44.160  43.327   2.180
21077W        W87508  38.138  17.290   1.653
21078W        W87509  38.066  44.704   4.086
21079W        W87510  11.750  13.236  10.646
21080W        W87511   7.382  12.609  11.943
21081W        W87512  26.258  39.856  13.891
21082W        W87513  11.156   6.471  13.354
21083W        W87514  39.969  38.016   1.329
21084W        W87515   6.212  39.629   2.670
21085W        W87516  37.250  18.748   3.168
21086W        W87517  11.074   4.183  11.582
21087W        W87518   8.188  26.465  11.519
21088W        W87519  40.936  29.125  11.460
21089W        W87520  44.195  29.234   4.066
21090W        W87521   7.634  21.192   4.491
21091W        W87522  41.476  10.923  11.396
21092W        W87523  38.018  42.249   0.779
21093W        W87524  34.152  11.604   3.643
21094W        W87525  35.060  44.233  13.060
21095W        W87526  17.280  19.162   0.334
21096W        W87527  44.522   3.291   2.706
21097W        W87528  10.704  40.802  11.370
21098W        W87529   1.699   4.893   3.840
21099W        W87530   7.881  39.069   1.722
21100W        W87531  38.090  16.273   0.972
21101W        W87532  42.260  19.379   3.618
21102W        W87533  17.564  34.057   4.340
21103W        W87534   8.720  31.385   2.712
21104W        W87535   1.821  24.211  11.753
21105W        W87536  35.961   4.700   0.013
21106W        W87537  15.945  18.044   0.225
21107W        W87538   0.822  41.375   0.987
21108W        W87539  11.200  22.294  11.716
21109W        W87540  23.773  23.688   0.144
21110W        W87541  14.853  44.954  13.116
21111W        W87542  29.075  12.617   4.633
21112W        W87543  43.067  44.864  12.600
21113W        W87544   5.663  26.019   4.826
21114W        W87545  22.532  11.355  10.823
21115W        W87546  29.239  17.091   0.760
21116W        W87547  20.298  14.009   4.199
21117W        W87548  10.672  40.282   3.619
21118W        W87549  12.595   9.640   0.840
21119W        W87550  10.748   3.161  11.690
21120W        W87551  12.795  17.702   3.090
21121W        W87552  15.504  31.000   0.380
21122W        W87553  39.054  31.863   1.478
21123W        W87554  25.494   1.289   0.765
21124W        W87555  44.288  30.717  13.474
21125W        W87556  23.551  34.685  11.586
21126W        W87557  34.471   8.263   3.278
21127W        W87558  33.853  21.177  10.958
21128W        W87559   4.751  40.932   2.201
21129W        W87560  36.715   6.654  13.922
21130W        W87561   3.986  43.957  12.125
21131W        W87562  37.605  37.342  14.382
21132W        W87563   5.011  16.273   1.843
21133W        W87564  40.329  17.564   3.388
21134W        W87565   9.959   6.315   2.923
21135W        W87566   6.808  10.225   3.713
21136W        W87567  24.557   6.966  14.425
21137W        W87568  11.615  38.379   3.300
21138W        W87569   8.222  16.290   1.367
21139W        W87570   5.220   1.396  10.873
21140W        W87571  44.546  40.502   3.139
21141W        W87572  23.518  42.808   2.293
21142W        W87573  20.739   1.053  11.152
21143W        W87574  31.633  41.901   2.135
21144W        W87575  41.543  36.846  12.571
21145W        W87576  36.800   4.002  11.968
21146W        W87577  42.431  41.613  14.853
21147W        W87578  32.732  36.359   1.311
21148W        W87579  11.354  36.598   0.939
21149W        W87580  26.341  29.619  14.377
21150W        W87581  25.656   8.322   1.937
21151W        W87582  34.230   9.651  13.016
21152W        W87583  22.789  36.857  14.042
21153W        W87584  39.488  16.357  11.127
21154W        W87585  24.914  12.429  13.336
21155W        W87586  10.245  18.722  12.122
21156W        W87587  36.262   0.288   1.187
21157W        W87588  23.032  38.802   5.435
21158W        W87589  35.031  25.109  13.922
21159W        W87590  21.520  21.019   2.202
21160W        W87591  16.265  25.183  12.784
21161W        W87592  42.084  30.554   1.984
21162W        W87593  43.729  18.949   1.927
21163W        W87594  12.448  35.926  14.947
21164W        W87595  18.268  42.846   3.636
21165W        W87596  35.555  38.807   5.412
21166W        W87597   1.951  13.187   3.828
21167W        W87598  22.619   9.649   2.374
21168W        W87599  10.788  38.324  12.574
21169W        W87600  39.108  22.570   0.217
21170W        W87601  30.067  30.007  14.584
21171W        W87602  32.151  28.123  12.394
21172W        W87603  40.937  23.625   2.170
21173W        W87604  36.732  17.041   3.305
21174W        W87605  43.929  13.675  14.744
21175W        W87606  14.929  38.924  14.296
21176W        W87607  44.967  29.754  12.992
21177W        W87608   6.347  18.910  13.140
21178W        W87609  26.138  36.950   4.930
21179W        W87610  43.035  17.648   3.166
21180W        W87611   2.016  20.089   1.386
21181W        W87612  28.892  14.379  14.256
21182W        W87613   3.820   4.523  12.919
21183W        W87614  19.298  44.592  11.292
21184W        W87615  15.114  37.041  10.644
21185W        W87616   5.556  18.250   1.861
21186W        W87617  16.096  40.509   3.264
21187W        W87618  26.257  20.786  10.609
21188W        W87619  28.106  41.536   2.146
21189W        W87620  43.796   2.671   1.946
21190W        W87621  15.036  37.396  14.447
21191W        W87622  21.638  35.303  11.560
21192W        W87623  23.087  26.767  10.340
21193W        W87624  17.765  11.277   3.649
21194W        W87625  10.136  20.651  12.133
21195W        W87626  29.943  41.514   4.241
21196W        W87627  20.659  25.078  12.049
21197W        W87628  41.731  44.679  11.916
21198W        W87629  15.294  18.574   3.707
21199W        W87630  12.529   1.295   2.802
21200W        W87631   8.828   5.349   2.821
21201W        W87632  44.317  13.617  11.559
21202W        W87633  22.565  29.175   1.303
21203W        W87634  26.458  32.136  14.966
21204W        W87635  42.798  14.472  12.290
21205W        W87636  18.057   1.880   3.274
21206W        W87637   2.282  15.357  13.833
21207W        W87638  20.408  26.381  14.916
21208W        W87639   0.759  15.885  12.084
21209W        W87640  20.742   8.659  12.476
21210W        W87641  15.126   0.279  14.929
21211W        W87642  23.545  25.643   3.394
21212W        W87643  24.281   1.239  11.546
21213W        W87644  20.536  17.531  14.094
21214W        W87645   4.336  24.075   0.953
21215W        W87646   0.552  20.224   2.231
21216W        W87647  22.982  39.298   0.777
21217W        W87648   7.504  29.406  11.159
21218W        W87649   2.078  17.785   2.005
21219W        W87650  23.426   6.859   2.363
21220W        W87651  35.327   7.824   2.301
21221W        W87652   1.820  41.327  12.927
21222W        W87653  36.489  43.814   1.302
21223W        W87654  21.077   0.844  11.503
21224W        W87655  29.270  42.650   2.025
21225W        W87656   7.322   0.661  14.818
21226W        W87657   6.420  21.776  13.423
21227W        W87658  30.481  11.938   3.581
21228W        W87659  42.951  37.600  14.717
21229W        W87660  22.948  40.040   2.666
21230W        W87661  27.935  43.482  11.289
21231W        W87662   7.849  37.859  13.382
21232W        W87663  16.510  39.946   0.002
21233W        W87664  42.468  41.809  12.886
21234W        W87665   2.208  23.207  12.737
21235W        W87666   9.959  16.733  13.455
21236W        W87667  39.784   6.954   3.181
21237W        W87668  11.190  10.231  11.190
21238W        W87669  15.717  39.043   0.802
21239W        W87670  23.468  20.113   3.034
21240W        W87671  44.851   6.860   1.859
21241W        W87672   1.302  16.707  14.403
21242W        W87673  20.300  35.887   2.655
21243W        W87674  10.166  21.327   4.573
21244W        W87675  16.694  21.795   1.314
21245W        W87676  21.932  24.197  12.152
21246W        W87677  38.882  32.246  14.521
21247W        W87678   9.126   5.428   1.976
21248W        W87679  37.239  27.487  10.639
21249W        W87680  27.892  33.485  12.613
21250W        W87681  20.028  44.279   0.423
21251W        W87682  12.882   3.651  14.409
21252W        W87683  13.228  23.720  12.466
21253W        W87684  32.997  21.604   0.924
21254W        W87685   0.430  33.128   1.165
21255W        W87686  12.714   9.602   2.604
21256W        W87687  25.095  11.138  10.548
21257W        W87688  13.695  24.830   1.609
21258W        W87689  34.354  26.428  12.096
21259W        W87690  41.350  14.839   3.176
21260W        W87691  22.075  26.758  12.392
21261W        W87692   5.208  38.365  14.475
21262W        W87693  22.696   0.379   3.229
21263W        W87694  15.248  35.509   4.582
21264W        W87695   0.961  32.168  10.360
21265W        W87696  34.539  25.354  12.753
21266W        W87697  37.855  24.715  10.455
21267W        W87698   8.723   7.832   1.648
21268W        W87699  15.931   9.353   2.519
21269W        W87700  13.348   4.270   2.606
21270W        W87701  15.653  40.787   3.264
21271W        W87702  39.307  25.937  12.584
21272W        W87703  32.599  15.402  11.925
21273W        W87704  12.889  26.045  13.358
21274W        W87705  36.501  19.674   1.206
21275W        W87706   8.398  19.638   1.797
21276W        W87707  37.303   3.395   3.910
21277W        W87708  11.789   9.116   1.805
21278W        W87709  42.368  34.395   3.204
21279W        W87710  26.521   4.933   2.694
21280W        W87711  22.200   6.287  13.076
21281W        W87712  43.500  21.623   2.397
21282W        W87713  33.081   9.887  13.385
21283W        W87714  44.005  24.409   2.228
21284W        W87715  34.349  28.966  13.377
21285W        W87716  25.146  12.501  11.015
21286W        W87717  37.953  42.779   3.422
21287W        W87718   8.079   6.922  13.965
21288W        W87719  36.965   1.887  10.700
21289W        W87720  41.809   6.402  11.913
21290W        W87721  17.759  23.374   2.370
21291W        W87722  33.032   4.466  13.051
21292W        W87723  40.566  29.854   0.297
21293W        W87724   2.947   0.951  11.578
21294W        W87725  15.945  25.925  11.333
21295W        W87726  30.554  10.258  13.264
21296W        W87727  22.164  25.519   4.407
21297W        W87728  34.561  28.583   1.459
21298W        W87729   4.886  39.792  14.363
21299W        W87730  17.081  19.738  14.551
21300W        W87731   0.401  39.720   4.671
21301W        W87732  12.170  13.017   4.854
21302W        W87733  42.972  17.817   2.682
21303W        W87734  26.879  14.679   1.201
21304W        W87735  27.153  27.191   1.360
21305W        W87736  25.142  35.396   4.874
21306W        W87737  32.135  36.904  12.094
21307W        W87738  19.289  39.783   1.084
21308W        W87739  34.483   9.011   0.322
21309W        W87740  12.306  44.462  13.350
21310W        W87741  11.306  44.486  10.790
21311W        W87742   2.301   7.805  10.728
21312W        W87743  11.135  42.424  11.552
21313W        W87744  19.806   6.766  11.134
21314W        W87745  41.026  39.483  14.362
21315W        W87746  24.462  35.895  14.371
21316W        W87747  40.416  37.600   5.244
21317W        W87748  17.079  44.589   1.351
21318W        W87749  10.917  43.881   0.835
21319W        W87750  30.721  27.485   0.302
21320W        W87751  10.079  19.604   4.979
21321W        W87752   8.904  10.837   4.446
21322W        W87753  11.992  22.275  13.803
21323W        W87754   1.034  27.769   1.851
21324W        W87755  17.533  37.969  11.476
21325W        W87756  28.488  18.635  14.480
21326W        W87757  34.054  39.552  13.012
21327W        W87758  27.243  24.775  10.277
21328W        W87759  18.076   5.930   3.733
21329W        W87760   8.845  38.506   0.828
21330W        W87761   1.676  17.227   0.515
21331W        W87762  24.259  12.339  12.076
21332W        W87763  14.683  21.014   4.203
21333W        W87764  26.020  18.766   1.076
21334W        W87765   1.058   2.686   1.766
21335W        W87766  15.267   5.122  12.035
21336W        W87767  42.195  29.039  10.660
21337W        W87768  26.035  30.108   2.348
21338W        W87769  38.913  31.272   2.176
21339W        W87770  23.489   0.693  11.882
21340W        W87771  14.172  15.178   3.936
21341W        W87772  32.963   0.786  14.514
21342W        W87773  16.280  15.370   0.368
21343W        W87774  39.835  25.222   4.080
21344W        W87775  40.442  32.526   0.476
21345W        W87776   4.879  34.938   5.122
21346W        W87777  44.556  10.338  12.915
21347W        W87778  15.183  19.474  12.558
21348W        W87779  15.730  28.033   3.790
21349W        W87780  23.517  14.597  12.235
21350W        W87781  34.429  37.845  10.263
21351W        W87782   2.813  31.710   4.575
21352W        W87783  28.574  40.966  14.078
21353W        W87784   7.112   0.038  10.962
21354W        W87785  17.609  42.797   0.452
21355W        W87786   8.542  39.065   2.838
21356W        W87787  23.199  39.784  12.155
21357W        W87788  39.898   8.526  13.005
21358W        W87789  22.666  24.180   1.649
21359W        W87790  13.778   1.472   1.195
21360W        W87791  14.145   5.147   2.764
21361W        W87792   1.247   7.757   0.445
21362W        W87793  35.392  31.050   2.760
21363W        W87794  39.728   0.925  13.547
21364W        W87795  18.050  44.186  14.893
21365W        W87796  44.308  30.197   2.410
21366W        W87797  38.988  41.957   0.853
21367W        W87798   1.656  43.729   4.721
21368W        W87799   3.653  42.122   0.272
21369W        W87800   4.491  32.666   1.484
21370W        W87801   1.187   2.571  11.002
21371W        W87802   7.713  20.916  12.078
21372W        W87803   6.744   7.414   3.312
21373W        W87804  22.958  10.704  13.540
21374W        W87805  18.371  22.762   3.638
21375W        W87806  34.029  34.568  11.126
21376W        W87807  39.405  28.216   0.088
21377W        W87808  13.309  41.278   4.963
21378W        W87809   7.215   9.982  13.606
21379W        W87810  42.556  38.826   1.404
21380W        W87811  19.522  26.725   0.780
21381W        W87812   1.250   0.900  10.514
21382W        W87813  18.666  39.958  13.092
21383W        W87814   9.958  26.397  11.101
21384W        W87815  40.317  34.412   0.457
21385W        W87816  18.516  33.580  12.050
21386W        W87817  42.683   3.765   2.587
21387W        W87818  18.779  11.417  11.432
21388W        W87819   8.658  18.005  12.640
21389W        W87820   6.880  17.278  12.890
21390W        W87821  40.566  37.115  11.590
21391W        W87822  40.477  15.926   2.869
21392W        W87823  31.303  15.622  12.572
21393W        W87824  23.183  39.774   0.778
21394W        W87825  27.940   5.489   1.113
21395W        W87826  43.737  44.735  10.738
21396W        W87827  25.327   5.196   1.656
21397W        W87828  12.203   5.175  12.089
21398W        W87829  27.603   7.735   0.823
21399W        W87830  44.025  30.055  11.575
21400W        W87831  31.890  38.591  10.630
21401W        W87832   0.640  33.365  12.471
21402W        W87833  22.133  19.834  12.034
21403W        W87834  25.851  42.980   0.963
21404W        W87835  22.737  25.473  13.903
21405W        W87836   7.148  24.036  12.123
21406W        W87837  34.293  32.872  11.184
21407W        W87838  10.604  40.453   4.090
21408W        W87839  38.731   2.472   2.235
21409W        W87840   2.857  26.791   4.321
21410W        W87841  14.181  32.005  12.842
21411W        W87842  14.455  10.730   0.149
21412W        W87843  26.110   2.893   0.233
21413W        W87844   4.826  19.734   1.512
21414W        W87845  36.408  43.502  11.681
21415W        W87846   3.143   4.315   3.202
21416W        W87847  19.946   5.345   1.230
21417W        W87848  40.271  27.917  11.898
21418W        W87849  37.602   3.892   0.230
21419W        W87850  23.940  39.982  14.576
21420W        W87851  19.795  33.060  14.855
21421W        W87852  28.624  24.462  13.603
21422W        W87853  41.566  16.343   3.294
21423W        W87854  10.137   7.803  13.206
21424W        W87855  13.648  28.940  12.512
21425W        W87856   0.403  39.889   1.114
21426W        W87857  39.181  11.771  14.481
21427W        W87858  23.353  30.556   3.418
21428W        W87859  37.631  36.846   4.540
21429W        W87860  36.897  37.622   1.901
21430W        W87861  16.184   8.447  13.320
21431W        W87862  22.628   6.126   3.789
21432W        W87863  15.173  30.106  14.911
21433W        W87864  36.474   9.944   2.763
21434W        W87865  43.546   7.700   2.183
21435W        W87866  19.970  42.376  13.407
21436W        W87867  12.538  12.197  13.890
21437W        W87868   8.815   2.633   0.830
21438W        W87869  12.338  24.833  14.831
21439W        W87870   9.393  15.583  10.572
21440W        W87871  29.894  23.285  12.802
21441W        W87872   9.859  34.107   1.015
21442W        W87873  23.450  10.740  13.697
21443W        W87874  38.600   2.996  14.518
21444W        W87875  35.079  26.990  13.876
21445W        W87876  38.277  37.719  11.133
21446W        W87877   7.874  31.542  11.104
21447W        W87878  29.452  25.589  12.577
21448W        W87879   4.452   0.252  12.648
21449W        W87880   6.783  21.834   3.293
21450W        W87881  19.811  25.442  12.871
21451W        W87882  29.066  27.177  11.727
21452W        W87883  21.494  29.471   5.597
21453W        W87884  37.291   0.338   0.945
21454W        W87885  24.530  20.237   3.203
21455W        W87886  23.318  16.652   3.413
21456W        W87887  14.128  18.825   0.562
21457W        W87888   2.725   2.970  14.946
21458W        W87889  20.589  30.607  10.714
21459W        W87890  36.951  37.003   5.003
21460W        W87891   8.425  34.050  14.537
21461W        W87892   9.113  36.927   0.308
21462W        W87893   5.466   5.679  13.921
21463W        W87894  16.156  21.470  14.028
21464W        W87895  43.340  27.177  12.918
21465W        W87896  40.979  16.000  10.125
21466W        W87897  21.257   3.659  10.424
21467W        W87898  31.133  19.564  12.296
21468W        W87899  30.077  33.456   1.739
21469W        W87900  35.808  16.149  14.839
21470W        W87901   8.166  24.099   2.712
21471W        W87902  27.079   2.073   0.919
21472W        W87903  23.749  26.969   4.774
21473W        W87904  30.350  35.555   3.490
21474W        W87905   6.678  21.475  13.103
21475W        W87906   7.763  35.064  14.858
21476W        W87907  41.242  23.592  11.148
21477W        W87908  13.764  16.618  12.455
21478W        W87909   4.281  13.224  12.979
21479W        W87910   7.703  19.026  14.928
21480W        W87911  32.191   0.265  14.030
21481W        W87912  26.243  18.522   1.487
21482W        W87913  44.970  40.007  14.597
21483W        W87914  34.168  11.713  13.266
21484W        W87915  32.916   6.875   4.163
21485W        W87916  34.135  20.228  14.860
21486W        W87917  36.929  25.728  11.305
21487W        W87918   4.268  33.418  14.216
21488W        W87919  43.976  41.579  10.662
21489W        W87920  36.650   1.786   2.159
21490W        W87921  13.911   7.730  14.006
21491W        W87922  10.369  29.708  12.443
21492W        W87923  41.813   0.537  11.215
21493W        W87924  29.936  34.382  14.415
21494W        W87925  16.547   0.794  14.255
21495W        W87926  41.751  28.835  10.807
21496W        W87927  10.012   8.194  13.522
21497W        W87928  24.176  34.153   0.017
21498W        W87929  38.797  29.442  13.239
21499W        W87930  36.035  31.967   0.096
21500W        W87931   0.647  27.525  11.934
21501W        W87932  33.031  15.712  13.927
21502W        W87933  27.527  10.813  12.822
21503W        W87934  28.024  38.062  11.276
21504W        W87935  34.704  15.159  13.385
21505W        W87936  10.097  28.823   4.196
21506W        W87937  29.681  28.698   3.818
21507W        W87938  18.928  40.819   4.220
21508W        W87939   4.862  39.493  12.558
21509W        W87940  13.731  42.720  11.190
21510W        W87941  43.936   1.406  12.945
21511W        W87942  32.399   9.757   0.537
21512W        W87943  29.576  21.142   2.680
21513W        W87944  37.432   8.997  13.937
21514W        W87945  19.858  11.838  10.660
21515W        W87946  42.421  32.192  13.118
21516W        W87947  22.627  14.874  14.000
21517W        W87948  26.633   0.369   0.521
21518W        W87949  37.718   1.223  10.662
21519W        W87950  39.042  25.178   0.336
21520W        W87951  38.919  14.340  12.538
21521W        W87952   9.919  16.204   2.641
21522W        W87953  33.978   3.359  11.705
21523W        W87954  14.279  39.234   3.780
21524W        W87955  19.789   8.760   0.380
21525W        W87956   4.763  27.218   1.193
21526W        W87957  40.957   9.129   1.833
21527W        W87958  44.474  11.118  11.616
21528W        W87959  28.200  14.313  12.161
21529W        W87960   9.333  42.657   0.757
21530W        W87961  19.035   3.881  14.998
21531W        W87962  24.109   4.228  13.089
21532W        W87963  34.020  39.473  10.624
21533W        W87964  22.613  42.495  11.713
21534W        W87965   0.251  19.838   3.606
21535W        W87966  24.656  11.832  11.081
21536W        W87967  23.093   8.295  12.127
21537W        W87968  33.172  13.871  12.120
21538W        W87969  14.613  40.231  13.872
21539W        W87970  12.327  29.917  11.367
21540W        W87971  33.080  17.762   1.101
21541W        W87972  14.582  27.912  14.075
21542W        W87973  42.889   8.632  11.894
21543W        W87974  39.139   7.024   2.813
21544W        W87975  25.677  25.565  14.893
21545W        W87976  21.264   3.794  10.926
21546W        W87977  16.781   9.423   1.537
21547W        W87978  37.952   8.643   2.515
21548W        W87979  39.116  24.738  13.088
21549W        W87980   7.858   9.348   0.266
21550W        W87981  11.869  44.272  12.510
21551W        W87982  26.641  10.641  13.510
21552W        W87983  14.761   3.706  11.608
21553W        W87984  17.576  33.981  13.102
21554W        W87985   6.739   1.793   1.366
21555W        W87986   1.260   8.660   0.214
21556W        W87987  25.948  37.326   0.419
21557W        W87988   3.067  15.748   1.647
21558W        W87989  34.440  14.370  14.007
21559W        W87990  42.550   0.127  13.434
21560W        W87991  23.263   5.303  12.949
21561W        W87992  19.153  37.893  14.403
21562W        W87993  27.875   1.677   5.090
21563W        W87994  10.878  35.859   3.733
21564W        W87995  34.865  14.607  12.002
21565W        W87996   1.840   2.746  14.469
21566W        W87997  28.489  36.674   3.688
21567W        W87998  23.064  23.149  11.009
21568W        W87999  19.278   5.676  12.843
21569W        W88000  26.649  22.793   1.232
21570W        W88001   5.229  32.550   3.615
21571W        W88002  32.803  42.561   1.788
21572W        W88003  24.463  29.707  11.711
21573W        W88004   8.422   7.242   0.984
21574W        W88005   4.833   3.910  11.459
21575W        W88006  17.078  21.199   2.862
21576W        W88007  15.145   8.614  13.929
21577W        W88008  23.696  23.074   3.241
21578W        W88009   4.913  12.608   3.225
21579W        W88010   0.590  41.371  14.082
21580W        W88011  39.537  35.283  12.092
21581W        W88012   4.855   5.423   2.438
21582W        W88013   6.436  40.662   2.761
21583W        W88014  33.566  10.776  13.247
21584W        W88015  20.133  22.050  14.865
21585W        W88016  23.439  36.622   3.231
21586W        W88017  15.753  21.623  10.139
21587W        W88018  17.178  27.879  14.316
21588W        W88019  28.742  20.800  12.242
21589W        W88020  31.982  13.105   1.525
21590W        W88021   6.899   9.657   2.520
21591W        W88022  32.990  42.974   3.573
21592W        W88023  31.673  19.199  11.163
21593W        W88024   8.775   1.122   0.825
21594W        W88025  28.037   2.689   0.517
21595W        W88026  25.761  19.086  13.531
21596W        W88027  24.786  42.884  12.092
21597W        W88028   0.032   4.081  13.450
21598W        W88029  41.345  18.838  14.810
21599W        W88030  38.527  38.837  12.011
21600W        W88031  44.428   4.551   2.296
21601W        W88032   9.175  33.505  12.683
21602W        W88033  42.819  13.909   4.726
21603W        W88034  17.517  44.257  14.272
21604W        W88035  11.771  34.072   2.165
21605W        W88036  35.913  23.316   2.528
21606W        W88037  24.588  29.147   3.053
21607W        W88038  39.906  44.676   2.285
21608W        W88039  14.735   6.142  12.496
21609W        W88040  19.182  36.037  14.805
21610W        W88041  25.131  23.757  12.502
21611W        W88042   1.269  19.788  14.580
21612W        W88043  11.107  26.606   0.017
21613W        W88044   0.170  38.413   0.750
21614W        W88045  11.375  37.375   5.006
21615W        W88046  40.948  31.487  11.696
21616W        W88047   5.221  28.677   4.414
21617W        W88048  37.437  42.504  10.822
21618W        W88049  33.079  36.999   0.452
21619W        W88050  34.730  19.800  14.275
21620W        W88051  15.684  30.133   3.566
21621W        W88052  38.951   9.396  10.653
21622W        W88053  21.100  14.798   1.118
21623W        W88054  18.186  29.939   1.465
21624W        W88055  11.947  36.325  14.366
21625W        W88056  22.470  10.002   4.278
21626W        W88057  43.987   7.146  13.954
21627W        W88058   7.952   0.519  13.445
21628W        W88059  40.813  29.934  12.966
21629W        W88060  32.239  43.423   3.023
21630W        W88061  10.513  27.235   4.805
21631W        W88062   6.828  24.690  14.308
21632W        W88063  16.546  21.325   0.543
21633W        W88064  36.573  32.899   3.251
21634W        W88065  13.768  19.507   4.598
21635W        W88066  16.351   0.309  14.385
21636W        W88067  39.889  13.629   0.947
21637W        W88068  35.556   4.712   4.993
21638W        W88069  30.412   6.996  14.247
21639W        W88070  12.646  25.553   4.339
21640W        W88071  40.653  23.334  10.698
21641W        W88072   0.786  28.668   2.878
21642W        W88073   8.060   2.155  13.977
21643W        W88074  39.967   7.137   0.894
21644W        W88075  14.539  14.801   3.260
21645W        W88076   7.469  15.570  12.379
21646W        W88077  18.719  24.034  12.814
21647W        W88078  34.854  42.018  12.546
21648W        W88079  33.408   2.813   3.698
21649W        W88080  15.158  16.217   0.086
21650W        W88081   4.301   7.796   0.438
21651W        W88082  16.191   8.934  12.239
21652W        W88083  16.068   0.970   4.864
21653W        W88084  13.923  44.013   1.351
21654W        W88085   6.765  10.258   4.886
21655W        W88086  21.496  24.610  13.144
21656W        W88087  13.670   9.415   2.621
21657W        W88088  32.599  30.147  14.506
21658W        W88089  10.750   2.674   0.882
21659W        W88090  17.296  15.123  12.819
21660W        W88091   4.830  11.385   4.554
21661W        W88092  14.113  29.496   1.259
21662W        W88093  24.622  19.482   0.451
21663W        W88094  42.292   8.081  11.290
21664W        W88095  33.092  18.308  13.423
21665W        W88096  26.709  21.269  13.081
21666W        W88097  28.677  17.538   0.815
21667W        W88098  25.501   5.034  10.738
21668W        W88099  16.814  23.786  12.895
21669W        W88100  30.909  18.130  13.530
21670W        W88101  13.815  37.857   2.092
21671W        W88102  37.781  11.639  12.404
21672W        W88103  30.726  39.842   0.678
21673W        W88104   6.385  27.996   1.050
21674W        W88105  32.630   2.448  14.855
21675W        W88106  27.168   6.844   5.031
21676W        W88107  39.523   0.660   0.848
21677W        W88108  21.696  20.331  11.263
21678W        W88109  34.795  22.476  13.816
21679W        W88110  17.020  34.802  14.909
21680W        W88111   9.323  15.707  11.076
21681W        W88112   9.320  17.294  13.889
21682W        W88113  41.088   0.311   2.277
21683W        W88114   0.095  19.075   0.498
21684W        W88115   1.769   8.865  10.909
21685W        W88116  18.388  20.777   1.378
21686W        W88117  37.530  32.170   1.233
21687W        W88118  21.014  28.660  11.112
21688W        W88119  35.845  18.034  13.424
21689W        W88120  32.410  27.024   3.867
21690W        W88121  25.817   6.892  13.152
21691W        W88122  33.325   2.222  13.871
21692W        W88123  31.016  24.663  10.664
21693W        W88124   7.230  20.553   3.831
21694W        W88125  30.961   1.930  13.050
21695W        W88126  23.790  38.487   3.655
21696W        W88127   6.403   6.763  12.869
21697W        W88128  32.647  28.366   3.742
21698W        W88129  39.108  30.286   1.447
21699W        W88130  38.903  31.599  13.063
21700W        W88131  22.494  24.608   2.292
21701W        W88132  39.695  10.141   1.671
21702W        W88133  30.748   9.777   2.428
21703W        W88134  16.768   3.230  11.085
21704W        W88135  30.394  40.324   2.364
21705W        W88136  41.302   5.150   4.067
21706W        W88137  12.366  25.954  11.941
21707W        W88138  11.741  32.220   9.965
21708W        W88139  17.960  40.778   3.951
21709W        W88140   1.338   7.687  14.394
21710W        W88141  44.438  41.678  12.211
21711W        W88142  11.572  30.457   0.490
21712W        W88143  28.127  20.038   3.820
21713W        W88144  36.258  32.995   3.713
21714W        W88145  10.607  30.639   2.757
21715W        W88146  20.676  41.224   3.651
21716W        W88147  29.630   5.318  11.386
21717W        W88148  13.269   9.565  11.211
21718W        W88149   6.218  18.205   3.662
21719W        W88150  35.029  26.189  12.012
21720W        W88151  12.801   8.777  12.038
21721W        W88152  35.393  31.744  15.000
21722W        W88153  39.980  17.478  11.093
21723W        W88154   9.883  29.220   3.923
21724W        W88155  44.394  21.544  13.096
21725W        W88156  27.045   8.299   1.452
21726W        W88157  21.636   3.138  11.540
21727W        W88158  13.762  26.244  12.958
21728W        W88159   1.581  20.983   4.609
21729W        W88160  34.949   5.314   1.179
21730W        W88161   6.758  41.803  13.352
21731W        W88162  35.098  36.133   1.876
21732W        W88163  35.468  42.527   3.618
21733W        W88164  33.336   5.099   3.311
21734W        W88165  38.245  24.036  13.989
21735W        W88166  15.790  19.067  11.537
21736W        W88167  28.397  44.173  13.418
21737W        W88168  15.883  43.774   4.992
21738W        W88169   2.794   2.967  13.002
21739W        W88170  30.537  32.533  10.957
21740W        W88171  12.895  15.223  13.109
21741W        W88172  40.744  32.107   4.203
21742W        W88173  20.976  43.169   1.795
21743W        W88174  14.843  13.836  13.628
21744W        W88175  13.059  11.540  12.493
21745W        W88176   9.762  24.572   3.618
21746W        W88177  33.219  11.748   3.465
21747W        W88178   7.214  23.350  11.047
21748W        W88179  11.680  21.142  13.454
21749W        W88180  27.544  30.858  14.005
21750W        W88181   7.302   8.457  12.024
21751W        W88182  11.861  21.203  10.745
21752W        W88183  39.034  27.313  13.869
21753W        W88184  38.245  11.667   0.880
21754W        W88185   3.719  40.014  12.013
21755W        W88186  16.769  25.483   1.427
21756W        W88187   3.949   9.145  13.323
21757W        W88188  33.670  35.081   2.371
21758W        W88189   0.801  17.235   0.554
21759W        W88190  44.636   2.603   0.009
21760W        W88191  18.527  25.804   0.704
21761W        W88192  42.897  25.593  13.620
21762W        W88193  14.470  25.530  12.875
21763W        W88194  38.657  44.103   3.908
21764W        W88195  11.778  14.607  12.871
21765W        W88196   9.910  19.744  13.140
21766W        W88197  19.025  12.432  10.678
21767W        W88198  42.589   7.824  10.966
21768W        W88199  18.014  14.216  13.789
21769W        W88200  12.662   4.625  12.972
21770W        W88201  31.258  18.855  14.732
21771W        W88202  17.299  38.463   2.764
21772W        W88203  24.420  35.068   1.869
21773W        W88204  39.857   6.962  13.196
21774W        W88205  19.065  40.260   3.611
21775W        W88206  15.924  34.038   1.216
21776W        W88207   0.360  20.458  11.550
21777W        W88208  43.263   6.230  12.502
21778W        W88209  32.403  26.644  14.906
21779W        W88210  19.075   1.848   3.214
21780W        W88211   8.150  36.302  11.551
21781W        W88212  16.824  21.260   4.251
21782W        W88213  31.426  35.594   1.889
21783W        W88214   2.864  18.999   5.121
21784W        W88215  30.122  26.868  10.982
21785W        W88216  10.390  44.436  13.340
21786W        W88217  44.581  28.514  12.985
21787W        W88218   9.593  34.470  11.611
21788W        W88219  26.889  33.468  10.332
21789W        W88220  38.770   2.513   3.108
21790W        W88221  20.610  35.035  14.572
21791W        W88222  16.400   7.872  12.946
21792W        W88223  18.739  39.850  13.598
21793W        W88224  39.975  36.036  14.573
21794W        W88225  13.380  22.659   3.424
21795W        W88226   0.888  16.851   2.721
21796W        W88227   3.856  44.793  13.376
21797W        W88228  10.660  22.074   1.421
21798W        W88229   2.902  37.605  10.744
21799W        W88230  25.522  41.941  14.465
21800W        W88231   7.471  15.991   0.943
21801W        W88232  39.851  34.970  13.017
21802W        W88233  18.818  43.179   1.155
21803W        W88234  23.866   7.991   3.682
21804W        W88235   3.690  29.707   0.278
21805W        W88236   9.738  21.179   2.480
21806W        W88237   1.023  18.109  12.382
21807W        W88238   8.331   6.811   2.740
21808W        W88239  10.617  17.951  11.339
21809W        W88240  11.605  36.934  12.919
21810W        W88241  32.511  17.139  10.641
21811W        W88242  25.406   7.281   2.828
21812W        W88243  40.058  15.841  12.359
21813W        W88244   8.328  41.029   3.395
21814W        W88245   3.487  30.013  14.484
21815W        W88246  27.203  24.569   0.021
21816W        W88247  25.932   0.009   2.876
21817W        W88248   5.479  44.328   3.606
21818W        W88249  31.293   5.823  10.846
21819W        W88250  23.816  12.733   4.153
21820W        W88251   4.319  36.142  14.272
21821W        W88252  30.136   5.740   1.642
21822W        W88253  33.623  41.302  10.656
21823W        W88254   1.407  27.199   1.758
21824W        W88255  43.347   6.376   1.345
21825W        W88256  26.001  41.905   3.237
21826W        W88257   4.995   0.894   0.101
21827W        W88258  11.524   2.105   5.157
21828W        W88259  41.930  15.394   4.027
21829W        W88260  33.392  39.958   2.361
21830W        W88261  23.932  10.278   3.590
21831W        W88262  32.476   0.391  14.482
21832W        W88263   3.350  40.378  14.703
21833W        W88264  15.640  34.636  12.246
21834W        W88265   7.897  40.941   1.610
21835W        W88266  31.922  10.474   5.112
21836W        W88267   1.917  36.034  12.478
21837W        W88268  44.357  41.330   3.149
21838W        W88269  17.832  20.335   3.275
21839W        W88270  23.793  42.197  12.529
21840W        W88271  43.546  28.589  11.919
21841W        W88272  44.057  32.809  12.128
21842W        W88273  28.442  44.800   3.166
21843W        W88274  44.902  33.294  13.881
21844W        W88275  30.865   3.729   1.697
21845W        W88276   8.729  29.264  12.459
21846W        W88277  20.056  17.998  11.744
21847W        W88278   8.206  40.969  12.141
21848W        W88279  43.283  10.504  10.644
21849W        W88280  18.770   4.355   3.192
21850W        W88281  40.059  38.268   4.990
21851W        W88282  44.032  11.123  11.360
21852W        W88283  39.165  16.254   3.162
21853W        W88284  17.585  42.434   1.163
21854W        W88285  35.587   1.395   2.743
21855W        W88286  23.231  14.949  12.474
21856W        W88287  22.512   1.906  13.639
21857W        W88288   0.997  39.837  13.035
21858W        W88289  13.505  17.710   0.950
21859W        W88290  38.616  34.964   0.783
21860W        W88291   8.460  39.702   1.313
21861W        W88292  28.858  39.278   4.519
21862W        W88293  18.506  37.481  11.060
21863W        W88294  21.656   4.059  11.198
21864W        W88295  37.112  21.915   2.288
21865W        W88296  29.175   1.853  14.433
21866W        W88297   9.406  15.584  14.819
21867W        W88298  14.803  44.032  14.457
21868W        W88299  32.886  22.125   0.760
21869W        W88300   0.907   5.933   4.142
21870W        W88301  43.748  43.563  14.436
21871W        W88302  32.668  18.222  10.750
21872W        W88303   5.694  26.013  13.785
21873W        W88304  28.129  13.571  14.302
21874W        W88305  29.214  23.652   2.671
21875W        W88306  33.996  15.350   1.798
21876W        W88307  33.520  41.997  13.938
21877W        W88308  16.875  17.287  11.597
21878W        W88309  42.412   4.843   1.024
21879W        W88310  32.617  28.977  14.206
21880W        W88311  21.307  16.518  12.708
21881W        W88312  26.998  34.675  14.561
21882W        W88313   5.152  33.054   0.973
21883W        W88314  27.711  37.070  10.613
21884W        W88315  24.858  19.651   0.016
21885W        W88316  25.781   5.715  12.544
21886W        W88317  42.295  23.049  13.905
21887W        W88318  28.145  16.473  11.627
21888W        W88319  20.594  28.230  13.592
21889W        W88320  14.244  14.778   0.082
21890W        W88321  15.640  41.948  12.059
21891W        W88322   8.408  44.561   4.395
21892W        W88323  44.393  24.805   3.437
21893W        W88324  33.223  19.979   1.696
21894W        W88325  16.582   8.288  12.668
21895W        W88326  42.131  11.111   4.229
21896W        W88327  16.171  18.803  12.349
21897W        W88328   5.317  27.937  14.356
21898W        W88329  35.945  18.603  12.963
21899W        W88330   2.082  33.018   1.695
21900W        W88331   2.756  11.912  12.992
21901W        W88332  12.272  19.016  11.497
21902W        W88333  19.576  25.460   4.384
21903W        W88334  14.997   3.916   2.743
21904W        W88335  32.328  21.230   4.126
21905W        W88336  30.919  40.917  11.587
21906W        W88337  28.642  21.210  11.602
21907W        W88338  21.266   9.721  14.923
21908W        W88339  15.601  43.752  14.051
21909W        W88340   3.642   7.701  14.246
21910W        W88341  38.443   4.244   2.821
21911W        W88342  15.509  13.415  10.965
21912W        W88343  26.191  20.153  11.190
21913W        W88344  30.764  20.206   2.884
21914W        W88345  36.606   6.535   4.069
21915W        W88346  25.957  40.350  11.486
21916W        W88347  20.767  44.313  10.774
21917W        W88348  11.363  41.974   2.641
21918W        W88349  15.166  20.010  12.462
21919W        W88350  15.754  11.086   3.698
21920W        W88351  38.968  12.292   1.677
21921W        W88352  34.364  24.696   0.944
21922W        W88353  23.952  24.585  10.748
21923W        W88354  23.429  44.482  13.017
21924W        W88355   0.783  14.751  11.169
21925W        W88356  36.408   3.409  14.671
21926W        W88357  30.440   6.977  10.745
21927W        W88358   4.869  36.534   3.278
21928W        W88359  16.739  27.116   2.176
21929W        W88360  35.987  26.439  12.011
21930W        W88361  16.938  17.305  14.429
21931W        W88362   8.194  37.884   3.239
21932W        W88363  11.800   5.008  14.904
21933W        W88364  18.982  12.762  13.012
21934W        W88365  43.251  26.522   4.077
21935W        W88366  36.947   3.295   2.473
21936W        W88367  12.111   2.724   0.242
21937W        W88368  23.897  14.080  13.386
21938W        W88369  22.707  13.808  11.681
21939W        W88370   3.650  28.777  11.429
21940W        W88371  30.464  11.739   1.360
21941W        W88372   9.424  17.563  14.618
21942W        W88373  38.934  17.661   2.328
21943W        W88374  41.313   2.302  13.471
21944W        W88375  13.412  10.856   0.280
21945W        W88376  41.542  18.419   2.093
21946W        W88377  44.791  14.306   1.424
21947W        W88378   3.682  29.342   0.683
21948W        W88379  39.994   1.863   3.147
21949W        W88380  32.703  19.159   4.862
21950W        W88381  30.822  43.875   0.420
21951W        W88382  35.824   8.539  13.394
21952W        W88383  15.763  17.737  12.067
21953W        W88384  29.249  29.278  12.132
21954W        W88385   5.974   0.407   3.230
21955W        W88386  33.500  44.922  10.872
21956W        W88387  18.736  43.441  10.942
21957W        W88388  44.742   3.424  13.869
21958W        W88389   8.787   6.371   1.736
21959W        W88390  19.022  38.960  12.018
21960W        W88391  31.912  21.682   3.230
21961W        W88392  16.756  21.031   0.971
21962W        W88393  22.134   1.421   4.934
21963W        W88394  29.723  15.607  12.435
21964W        W88395  32.615  40.565  14.413
21965W        W88396  44.845  14.076  12.987
21966W        W88397  18.240  18.663  11.029
21967W        W88398  22.682  16.798  12.778
21968W        W88399  15.883   5.812  12.119
21969W        W88400   9.652  12.842   1.666
21970W        W88401   2.024  10.278  14.777
21971W        W88402   2.847   5.360   3.621
21972W        W88403  20.669  12.822   1.079
21973W        W88404  31.309  27.087  14.232
21974W        W88405   3.483  29.146  11.756
21975W        W88406  10.078  27.684  11.050
21976W        W88407  30.254  18.075  14.469
21977W        W88408  15.683  13.777   0.737
21978W        W88409  33.412  29.474  10.624
21979W        W88410  36.197  42.259   0.877
21980W        W88411  16.608  26.107  13.298
21981W        W88412  28.570  42.695  13.529
21982W        W88413  41.960  32.030   1.923
21983W        W88414  33.144  27.879   2.592
21984W        W88415  14.232  34.406   4.535
21985W        W88416  36.101  16.787  11.141
21986W        W88417  37.176  28.214  14.930
21987W        W88418   6.728  37.528   1.447
21988W        W88419  23.922  24.446  12.939
21989W        W88420  17.218  39.515   0.315
21990W        W88421  17.558   7.968  12.452
21991W        W88422  41.084  42.268  12.951
21992W        W88423  43.850  16.385  14.992
21993W        W88424  27.742  28.457   3.862
21994W        W88425  23.983  23.075  12.851
21995W        W88426  25.053  40.543   3.296
21996W        W88427  24.808  16.498   3.838
21997W        W88428  11.864  27.216   9.844
21998W        W88429  41.080  18.071  10.601
21999W        W88430  38.474  39.069   1.673
22000W        W88431  12.215  34.016   1.850
22001W        W88432  22.229  11.196  14.430
22002W        W88433  28.425  42.435  13.067
22003W        W88434  25.181  38.926  12.339
22004W        W88435   3.675  17.254  13.203
22005W        W88436  31.576  24.714  14.477
22006W        W88437  21.232  19.617   4.540
22007W        W88438   5.487  27.790  12.549
22008W        W88439   7.616   5.687   0.504
22009W        W88440  28.660  41.813  10.718
22010W        W88441   4.475  33.508  11.427
22011W        W88442  13.371   0.211   3.582
22012W        W88443  24.928  21.254  11.566
22013W        W88444  10.027  31.524   2.764
22014W        W88445   6.231   1.508   0.741
22015W        W88446  39.581  32.019  11.164
22016W        W88447  12.519  30.099  12.891
22017W        W88448  13.582  21.414  14.989
22018W        W88449  17.792  28.938  13.352
22019W        W88450  27.150   8.403  11.409
22020W        W88451  11.606  29.568   0.364
22021W        W88452  15.547   1.389   3.275
22022W        W88453  20.493   6.773  12.651
22023W        W88454  26.434  26.450   3.076
22024W        W88455   3.017  31.936   4.122
22025W        W88456  35.443  37.080  12.596
22026W        W88457  37.033  26.463  14.280
22027W        W88458  42.330  21.961   0.181
22028W        W88459  44.098  39.436   1.450
22029W        W88460  29.331   5.456  14.999
22030W        W88461  36.084  39.691   0.728
22031W        W88462   1.213  10.605  11.507
22032W        W88463   7.869   5.839   2.193
22033W        W88464  27.186  26.981  10.848
22034W        W88465   9.822  43.305   2.291
22035W        W88466   3.627  23.150   3.427
22036W        W88467  28.007  13.843   2.690
22037W        W88468  38.474  25.200  12.542
22038W        W88469  20.380  38.131  11.105
22039W        W88470  16.377  23.707   2.589
22040W        W88471  17.352   5.716   1.775
22041W        W88472  41.886   8.698   3.635
22042W        W88473  17.750  30.892  12.207
22043W        W88474  14.653  10.229  12.564
22044W        W88475  16.922  13.482   0.268
22045W        W88476  34.141  39.062  10.960
22046W        W88477   5.412   5.743  12.569
22047W        W88478  42.220  24.617   0.034
22048W        W88479  34.833  18.540   5.060
22049W        W88480  41.390  26.119  10.681
22050W        W88481  29.879   0.665  14.772
22051W        W88482  44.418  14.030   4.122
22052W        W88483  37.750  44.879  12.989
22053W        W88484  12.428  14.103  12.551
22054W        W88485  20.697  15.795  10.168
22055W        W88486  27.847  37.542   3.335
22056W        W88487   9.591  10.273   0.013
22057W        W88488  15.071  29.432   0.400
22058W        W88489  42.285  35.547  11.485
22059W        W88490  25.892  10.901  13.883
22060W        W88491  26.431  37.752  10.716
22061W        W88492  32.111  13.357   3.194
22062W        W88493  40.680   8.359   2.214
22063W        W88494  35.311  32.300  13.957
22064W        W88495  13.492  16.201  12.998
22065W        W88496  35.812  42.076  13.467
22066W        W88497  13.904  44.805  12.066
22067W        W88498  39.678  11.900  14.276
22068W        W88499  26.651   1.436   1.305
22069W        W88500  18.526  33.013  14.344
22070W        W88501   1.612  10.265   4.882
22071W        W88502  17.508  31.077   3.178
22072W        W88503   8.929  19.863   0.948
22073W        W88504  41.708  24.769  14.204
22074W        W88505  23.617   9.265   3.638
22075W        W88506  38.581  16.179   0.859
22076W        W88507   0.912   2.035  10.316
22077W        W88508  36.148  18.570  11.500
22078W        W88509  33.940  15.861   0.071
22079W        W88510   1.340  38.811   3.166
22080W        W88511  21.720   4.924   0.308
22081W        W88512  28.129   3.753   1.662
22082W        W88513  43.924  13.502  11.250
22083W        W88514  24.999  10.309   0.193
22084W        W88515  10.772   1.924   2.593
22085W        W88516  22.076  40.983  12.157
22086W        W88517  34.162  42.287   4.080
22087W        W88518  24.812  22.977  12.253
22088W        W88519  28.898  17.233   4.577
22089W        W88520   6.582  14.700  10.307
22090W        W88521  41.455  11.470   2.869
22091W        W88522  30.833  17.433   1.656
22092W        W88523  13.577   4.552   3.338
22093W        W88524  23.488  29.578  12.966
22094W        W88525  41.936  21.810   1.036
22095W        W88526  17.750  15.849   2.212
22096W        W88527  40.877  16.822   1.480
22097W        W88528   5.169  18.715  13.807
22098W        W88529  26.431  13.812  13.926
22099W        W88530  15.841  39.858  13.506
22100W        W88531   8.308  42.021  13.779
22101W        W88532  42.148   5.489  10.426
22102W        W88533   3.772  43.103  12.499
22103W        W88534  19.678   6.541   2.609
22104W        W88535   0.427   4.252   4.549
22105W        W88536   7.772  33.398  11.633
22106W        W88537  30.593  38.155  12.886
22107W        W88538  22.600  25.533   1.404
22108W        W88539   0.547   2.719  12.219
22109W        W88540  12.410  34.044  12.322
22110W        W88541   6.401  41.769  11.237
22111W        W88542  37.383  22.827   0.477
22112W        W88543  20.624  18.714   2.416
22113W        W88544  37.372  10.135   0.007
22114W        W88545  10.331  26.549   3.661
22115W        W88546  26.497  29.081  14.333
22116W        W88547  13.600  43.796   0.431
22117W        W88548  25.559  15.849   0.858
22118W        W88549  15.328  26.095  14.474
22119W        W88550  25.690   1.916  10.384
22120W        W88551  30.118  32.830  12.741
22121W        W88552  10.924   1.687   3.927
22122W        W88553  23.721  19.045  10.279
22123W        W88554  13.200  13.117  12.417
22124W        W88555  15.669  21.101  12.601
22125W        W88556   7.281  42.963  13.055
22126W        W88557  19.483   4.444   0.485
22127W        W88558  39.025   2.933  14.830
22128W        W88559   0.709   0.732  11.529
22129W        W88560   5.961   6.724   1.687
22130W        W88561  35.022  44.454   2.137
22131W        W88562  33.875  42.452  11.641
22132W        W88563   1.461   6.287   0.697
22133W        W88564   0.925  41.915  11.522
22134W        W88565  15.341   6.645   4.951
22135W        W88566  43.898  38.006  13.066
22136W        W88567  38.491  43.970   2.708
22137W        W88568  22.560  23.096  14.389
22138W        W88569  39.004  18.559   1.885
22139W        W88570  19.045  40.302  13.551
22140W        W88571   9.002  22.448  13.019
22141W        W88572   1.553  41.361   3.515
22142W        W88573   2.887  17.579   3.209
22143W        W88574  40.491  34.597   4.449
22144W        W88575  20.110  15.691   4.808
22145W        W88576  13.113  31.993   2.903
22146W        W88577  41.810  37.651   2.041
22147W        W88578  23.714  26.070   3.120
22148W        W88579  39.493  18.564   3.589
22149W        W88580  23.577   1.349  11.278
22150W        W88581  25.842  35.259   1.216
22151W        W88582  44.392  43.104   4.342
22152W        W88583  32.972  14.289   0.741
22153W        W88584  15.209  18.703  14.756
22154W        W88585   9.140   5.872   0.361
22155W        W88586   2.893  23.091  13.742
22156W        W88587   3.401  35.733  12.419
22157W        W88588   2.842  32.206   3.716
22158W        W88589   4.361  18.306   0.704
22159W        W88590  39.368   9.097   0.859
22160W        W88591  25.643  22.925  12.149
22161W        W88592   3.882   9.414  14.622
22162W        W88593  40.806  44.199  14.398
22163W        W88594  30.405  42.202   4.124
22164W        W88595  31.463  31.504  12.089
22165W        W88596  21.269  29.465   2.338
22166W        W88597  27.954  34.009  11.588
22167W        W88598  20.986  26.495   2.938
22168W        W88599  30.899  35.837  12.110
22169W        W88600  20.044  32.003  14.392
22170W        W88601  44.756  38.931  13.526
22171W        W88602  21.305  14.789   4.607
22172W        W88603  28.081   7.376   1.341
22173W        W88604  26.907  34.203   2.770
22174W        W88605  11.228  10.629   2.206
22175W        W88606  31.120  31.648   1.521
22176W        W88607  35.003  16.168   1.960
22177W        W88608  42.981  12.063  13.811
22178W        W88609  28.695  34.423  11.140
22179W        W88610   3.945   6.874  12.616
22180W        W88611  10.348  23.497  14.005
22181W        W88612  13.943   8.878   5.195
22182W        W88613  34.847   2.541   2.588
22183W        W88614   4.640  39.817  12.018
22184W        W88615  42.072   6.271  13.476
22185W        W88616  33.393  38.427   0.881
22186W        W88617  33.587  28.575   4.913
22187W        W88618  34.614  31.805   0.383
22188W        W88619  38.918  19.833  14.295
22189W        W88620  32.598  19.686  12.784
22190W        W88621  28.127   3.883   5.541
22191W        W88622  34.766  24.129  14.914
22192W        W88623  18.926  17.887   2.987
22193W        W88624  35.388   6.925   1.664
22194W        W88625  11.693  17.000   3.777
22195W        W88626  43.014  42.257   2.861
22196W        W88627   5.250  32.115   0.737
22197W        W88628  43.324  27.520   1.790
22198W        W88629  14.520  12.351   4.269
22199W        W88630  35.488   2.974  12.877
22200W        W88631  31.116  13.910   1.626
22201W        W88632  19.530  19.865   2.996
22202W        W88633  15.167  31.475   1.181
22203W        W88634  36.191  24.041   3.807
22204W        W88635  17.170  42.488   0.264
22205W        W88636  17.708  23.082   4.658
22206W        W88637   5.927  19.656   3.003
22207W        W88638  18.391  38.922  14.961
22208W        W88639  36.910  23.095   1.161
22209W        W88640  30.651  22.548  11.191
22210W        W88641   2.684  44.074   3.670
22211W        W88642  35.573   1.419   0.866
22212W        W88643  23.936  17.525   0.441
22213W        W88644  14.111  12.081   1.298
22214W        W88645  22.204  18.024   1.902
22215W        W88646  17.877  19.777   4.648
22216W        W88647  38.090  27.960  14.945
22217W        W88648   5.959  36.590  13.577
22218W        W88649  25.132  44.724   1.964
22219W        W88650  11.833   8.752   2.782
22220W        W88651  23.053   3.988  11.204
22221W        W88652   9.836  24.330   1.192
22222W        W88653  33.532  42.997  12.729
22223W        W88654  43.869   5.104   3.947
22224W        W88655  29.418  20.657  11.635
22225W        W88656  40.155  44.358   4.040
22226W        W88657  29.880  31.916   4.789
22227W        W88658   0.143  12.181  13.824
22228W        W88659  18.929  36.606   0.305
22229W        W88660  22.398   7.389  14.926
22230W        W88661   7.855  35.014  14.342
22231W        W88662  19.637  28.622  12.006
22232W        W88663  36.392  13.349   0.070
22233W        W88664   6.365  28.511   4.600
22234W        W88665  19.871  44.772   3.186
22235W        W88666  34.363  42.775  12.856
22236W        W88667  33.985  22.480  11.306
22237W        W88668  10.440   7.224  11.870
22238W        W88669   6.159  20.194  13.805
22239W        W88670  21.137   2.094  10.354
22240W        W88671  30.346  38.812  11.408
22241W        W88672   1.185  13.647  11.586
22242W        W88673  27.436   1.112  10.930
22243W        W88674  36.511  36.931  14.864
22244W        W88675  17.353  28.221   0.824
22245W        W88676  38.078  32.129   5.004
22246W        W88677  28.936   6.436  14.845
22247W        W88678  34.476  27.493   4.603
22248W        W88679  15.513   8.277   1.445
22249W        W88680   1.660  21.676  12.928
22250W        W88681  42.919   5.636   2.815
22251W        W88682   4.026  26.878   5.007
22252W        W88683  29.963   1.338   1.690
22253W        W88684  14.991  11.361  11.343
22254W        W88685   1.676  28.075  10.709
22255W        W88686  12.349   1.148   3.684
22256W        W88687  31.252  21.230  10.883
22257W        W88688   7.443  24.457  12.136
22258W        W88689  28.902  34.901  12.858
22259W        W88690  37.863  27.138   3.749
22260W        W88691  26.566  42.968   0.244
22261W        W88692  21.564   5.538   2.707
22262W        W88693   5.794   2.782  11.662
22263W        W88694  40.074  29.885   2.345
22264W        W88695  28.886  22.030  10.734
22265W        W88696  27.149  11.784   4.795
22266W        W88697   0.961  28.658  10.823
22267W        W88698  21.648  39.254   5.090
22268W        W88699  38.165  18.477   2.254
22269W        W88700   7.125  32.139   0.396
22270W        W88701  43.825  12.805   2.884
22271W        W88702  18.030   7.355   3.133
22272W        W88703  39.104   5.558  14.276
22273W        W88704  10.360  16.538   1.929
22274W        W88705  19.491  32.584   1.703
22275W        W88706  37.574  33.995   2.786
22276W        W88707   1.664   9.190  14.042
22277W        W88708  44.754   0.388   1.168
22278W        W88709  11.711  20.287   3.171
22279W        W88710   9.950  14.177  13.551
22280W        W88711  36.320  20.544  12.033
22281W        W88712   3.421  26.213   1.707
22282W        W88713  16.885  24.550   5.253
22283W        W88714  44.960  10.875  11.161
22284W        W88715  39.439  31.430  10.622
22285W        W88716   6.314  11.353  13.498
22286W        W88717  32.030  17.310   3.264
22287W        W88718   6.445  23.093  10.832
22288W        W88719   8.843  40.057   0.932
22289W        W88720  21.149  28.434   4.872
22290W        W88721   4.344  36.551   4.065
22291W        W88722  32.379  20.013  13.447
22292W        W88723  20.817  10.351  11.136
22293W        W88724   4.452  34.972   2.854
22294W        W88725  43.884  40.025  13.742
22295W        W88726  17.319  40.236   4.541
22296W        W88727  27.951  31.664   3.562
22297W        W88728   1.994  37.950   0.774
22298W        W88729   8.334  35.386   1.907
22299W        W88730  34.059   4.617  14.820
22300W        W88731   4.287  27.271  10.549
22301W        W88732  28.234  33.100   3.739
22302W        W88733  21.692  38.825   1.735
22303W        W88734  26.430  26.122  13.911
22304W        W88735  15.277  12.046  11.291
22305W        W88736  26.170  16.630   2.227
22306W        W88737   9.336  37.566   2.632
22307W        W88738   5.702  17.140   2.832
22308W        W88739  23.515   0.219   0.975
22309W        W88740   8.498  17.120   9.960
22310W        W88741  26.225  39.060  14.316
22311W        W88742  37.001  33.679  10.143
22312W        W88743  37.055  25.514   1.737
22313W        W88744  21.979  14.782  11.939
22314W        W88745  24.137  21.693  11.529
22315W        W88746  28.578  36.241   2.253
22316W        W88747   1.348  30.539  14.193
22317W        W88748   5.695  14.876   3.746
22318W        W88749  26.476   4.918   0.321
22319W        W88750  30.774   6.190  13.128
22320W        W88751  15.958  26.519   4.503
22321W        W88752  35.332   8.352   0.459
22322W        W88753  30.385  17.203  14.424
22323W        W88754   0.316   8.159  12.010
22324W        W88755   0.684  28.445  11.212
22325W        W88756  23.441   1.855  13.824
22326W        W88757  43.596   6.648  12.531
22327W        W88758   8.347   5.387  11.595
22328W        W88759  33.374   0.973   4.193
22329W        W88760   9.861   8.945   0.291
22330W        W88761  14.319   9.048  14.801
22331W        W88762  35.890   4.379   0.487
22332W        W88763  19.534  33.100   4.013
22333W        W88764  37.155  37.082  14.314
22334W        W88765   8.213  34.543  14.380
22335W        W88766  40.298  19.478   1.914
22336W        W88767   4.759  13.084  13.472
22337W        W88768   5.166  34.558  14.297
22338W        W88769   0.920  22.311  10.728
22339W        W88770   0.965  20.529  12.816
22340W        W88771  43.238  30.007   3.442
22341W        W88772  26.151   2.105   0.893
22342W        W88773  35.234  10.811   1.271
22343W        W88774   6.719  20.674   0.319
22344W        W88775  26.898   8.848  11.507
22345W        W88776  24.130  34.167   2.511
22346W        W88777  29.074  31.694  10.489
22347W        W88778  41.048  20.338   4.224
22348W        W88779  37.167   8.689   4.623
22349W        W88780   7.290  17.229  13.199
22350W        W88781  26.622  31.915   0.491
22351W        W88782  29.077  34.553  12.024
22352W        W88783   5.715  20.176  11.597
22353W        W88784  39.210   8.452  14.601
22354W        W88785  36.003   6.948  12.070
22355W        W88786  10.436  33.332  14.356
22356W        W88787  15.231  28.951   0.415
22357W        W88788   0.472  39.861  12.946
22358W        W88789  23.677  34.683   4.366
22359W        W88790  27.366   9.145  13.897
22360W        W88791   6.260  36.094  14.588
22361W        W88792  18.260  23.745  13.267
22362W        W88793  32.374   0.865   1.927
22363W        W88794   2.496  20.125  13.065
22364W        W88795  31.247  12.808   3.719
22365W        W88796   2.180  11.455   4.820
22366W        W88797  38.577  39.894  10.225
22367W        W88798  42.925   2.309   3.580
22368W        W88799  36.024   4.540  13.656
22369W        W88800  40.189  10.220  13.424
22370W        W88801  40.535   1.844   3.116
22371W        W88802  28.882  14.708  11.127
22372W        W88803   6.455  38.171   4.487
22373W        W88804  24.816  31.218   4.954
22374W        W88805  15.617  11.620  12.015
22375W        W88806  13.658  36.493  13.262
22376W        W88807  37.577  28.463  10.470
22377W        W88808  15.684  33.565  14.252
22378W        W88809  13.649  31.448  10.769
22379W        W88810   6.635  10.639   3.102
22380W        W88811   3.119  26.100   2.120
22381W        W88812  12.856  24.643   2.771
22382W        W88813  15.383   1.270  14.231
22383W        W88814  29.951   8.402   2.278
22384W        W88815  12.287  40.326  13.811
22385W        W88816   3.694  10.156  12.536
22386W        W88817   8.474  27.693  13.026
22387W        W88818  22.040  11.181  14.919
22388W        W88819  10.206  31.522  14.625
22389W        W88820  14.524   9.764   3.713
22390W        W88821   3.667  38.055  11.038
22391W        W88822   1.337  43.710  14.137
22392W        W88823  36.610  44.497  11.675
22393W        W88824  31.248  42.885   0.729
22394W        W88825  43.513  24.562   0.293
22395W        W88826   6.761  16.821  14.979
22396W        W88827   1.827   6.333   5.183
22397W        W88828  20.715  42.382  11.421
22398W        W88829   2.731  27.385   0.307
22399W        W88830  20.047  20.255  11.006
22400W        W88831  14.875  36.757   3.614
22401W        W88832   7.829  19.736  13.516
22402W        W88833  15.036  13.110   2.760
22403W        W88834  41.945   4.144  12.118
22404W        W88835  44.086  31.071  13.922
22405W        W88836  41.298  38.677  11.532
22406W        W88837  24.204  13.213  11.898
22407W        W88838  20.575  38.587   2.288
22408W        W88839  28.412  38.084  10.515
22409W        W88840   8.897  40.561  10.986
22410W        W88841  42.358  11.716  14.504
22411W        W88842  30.283  18.795   3.263
22412W        W88843   2.438  22.826  11.132
22413W        W88844  43.419  34.574  13.073
22414W        W88845  36.626   0.549  13.380
22415W        W88846   3.830  17.112  11.714
22416W        W88847  10.710  18.222   2.295
22417W        W88848  12.623  11.162   1.663
22418W        W88849  37.872  30.978   3.093
22419W        W88850  11.867  27.904  14.815
22420W        W88851  32.414   9.721  12.970
22421W        W88852  31.482  27.196   3.408
22422W        W88853   7.858  20.239   2.250
22423W        W88854  33.071  42.446  14.745
22424W        W88855  18.546  44.883   3.274
22425W        W88856   8.113  30.416  13.906
22426W        W88857  25.474  12.520  13.108
22427W        W88858   1.305  29.441  10.688
22428W        W88859  26.239   4.664   3.761
22429W        W88860  28.231   3.163  14.278
22430W        W88861  20.870  30.480  14.104
22431W        W88862   1.786   2.544   4.903
22432W        W88863  43.446  24.282  10.639
22433W        W88864  43.316  43.449   1.518
22434W        W88865  19.051  22.234   0.501
22435W        W88866  11.844  25.117  13.440
22436W        W88867  32.941  11.929  13.474
22437W        W88868  42.347   7.376  13.544
22438W        W88869  25.725   4.742   3.666
22439W        W88870  18.587  30.728   0.914
22440W        W88871  40.911  20.998  12.570
22441W        W88872  32.077  27.903  10.717
22442W        W88873  26.179   5.429  14.649
22443W        W88874  42.782  31.680   3.281
22444W        W88875  32.572  37.402   3.979
22445W        W88876   2.647  18.133   4.846
22446W        W88877   7.797  37.581   1.629
22447W        W88878  27.248   5.384  11.631
22448W        W88879  30.713  40.381   4.109
22449W        W88880  25.323  12.444   4.179
22450W        W88881  21.682   8.661  13.337
22451W        W88882   7.398   7.215  10.708
22452W        W88883  18.592   1.195  11.204
22453W        W88884  28.615  21.867   3.848
22454W        W88885  28.511  26.152   0.442
22455W        W88886   6.202  34.779   2.858
22456W        W88887  21.283  35.089  12.959
22457W        W88888   1.447   1.353   0.991
22458W        W88889  34.134  26.019   1.172
22459W        W88890  25.640  43.905  12.202
22460W        W88891  18.250  21.603   0.913
22461W        W88892  43.033  32.619   0.235
22462W        W88893   4.870  33.498  12.375
22463W        W88894  17.125  17.659  10.255
22464W        W88895   6.091  18.682  14.053
22465W        W88896  36.205  19.938  11.926
22466W        W88897   1.482  20.127   4.354
22467W        W88898  43.950  31.490   3.169
22468W        W88899   7.900  21.441   0.458
22469W        W88900   2.005  17.950  12.755
22470W        W88901   4.470   4.384   2.791
22471W        W88902   2.133  44.411   4.967
22472W        W88903  37.154  23.544   1.317
22473W        W88904   3.380  18.735   3.447
22474W        W88905  21.952  41.090  10.045
22475W        W88906   3.835  19.686  12.621
22476W        W88907  17.078  37.324  14.874
22477W        W88908   8.721  34.231  13.509
22478W        W88909  24.266  18.209   0.967
22479W        W88910   0.086  32.534   4.161
22480W        W88911   9.961  28.070   3.580
22481W        W88912  40.154  27.414  14.815
22482W        W88913   6.766  40.026  11.718
22483W        W88914  42.598  32.704   0.489
22484W        W88915  37.266  42.284  11.260
22485W        W88916  14.698   2.468  11.720
22486W        W88917  40.454  36.680  11.316
22487W        W88918  43.964  39.382   3.372
22488W        W88919   7.592  14.718  14.008
22489W        W88920   3.301  14.958   1.796
22490W        W88921   9.230   5.359  12.015
22491W        W88922   7.551  40.936  11.164
22492W        W88923   6.264   1.011   2.180
22493W        W88924   1.502  25.595  11.584
22494W        W88925  36.918  21.267  12.459
22495W        W88926  36.622  28.742   2.872
22496W        W88927  21.086  25.583   4.750
22497W        W88928  23.023   6.247   1.209
22498W        W88929  31.385  31.433  13.599
22499W        W88930   6.655  19.962  14.788
22500W        W88931   9.310   9.089  11.059
22501W        W88932  42.903   6.050   1.357
22502W        W88933  15.667  36.000   1.024
22503W        W88934  31.216  25.257   2.521
22504W        W88935   6.770   5.212   4.475
22505W        W88936   6.869   6.162  12.123
22506W        W88937  15.641  18.592  13.309
22507W        W88938  41.351  38.458  12.033
22508W        W88939  21.669  34.449   0.755
22509W        W88940  19.957  13.876  12.944
22510W        W88941  40.899  24.495  12.702
22511W        W88942  35.952  36.378  12.020
22512W        W88943  11.139  21.355   2.109
22513W        W88944  28.038  20.504   4.797
22514W        W88945  31.750  22.465   1.886
22515W        W88946  13.622  37.518  14.229
22516W        W88947  43.906  23.700   2.788
22517W        W88948  43.729  19.638   1.358
22518W        W88949  11.792   0.781  11.228
22519W        W88950   5.559  30.997  11.204
22520W        W88951  28.283  41.484  14.899
22521W        W88952  34.594  21.037  12.294
22522W        W88953  28.029  38.209  12.199
22523W        W88954  37.281   5.349   2.305
22524W        W88955  33.702  16.003  14.233
22525W        W88956   6.211  17.735  10.868
22526W        W88957  37.020  40.333   1.638
22527W        W88958  24.953   7.042  13.003
22528W        W88959  13.647  12.172   3.391
22529W        W88960  16.544  17.416   1.518
22530W        W88961  15.723  17.751   0.567
22531W        W88962  21.563   0.399  12.981
22532W        W88963  17.522  20.239   3.698
22533W        W88964   6.313  29.686   5.028
22534W        W88965  31.650  43.747  14.056
22535W        W88966   6.737   6.963  13.411
22536W        W88967  13.805  29.035  13.011
22537W        W88968  30.502  33.039   3.816
22538W        W88969  38.758   3.922   1.778
22539W        W88970  36.961  23.956   4.272
22540W        W88971  28.114  33.082  13.059
22541W        W88972  39.248  26.462  11.043
22542W        W88973  21.097  40.655   5.109
22543W        W88974  24.299  42.280  14.880
22544W        W88975  19.871  15.151   4.051
22545W        W88976  10.346  18.579   4.415
22546W        W88977  40.083   7.738   2.087
22547W        W88978  40.215   1.844   2.669
22548W        W88979   8.053  43.561   3.355
22549W        W88980  10.788  43.319  12.021
22550W        W88981  43.484  14.328   2.738
22551W        W88982  30.978   9.589  14.918
22552W        W88983  25.688  29.559   9.993
22553W        W88984  33.392  24.539  13.921
22554W        W88985  41.505  24.048  13.032
22555W        W88986  13.590  20.325  12.579
22556W        W88987  15.838  13.564   2.790
22557W        W88988  12.031  17.771   1.922
22558W        W88989  25.650  25.220   2.011
22559W        W88990  42.930   7.885   0.050
22560W        W88991  11.421  20.157  12.926
22561W        W88992  39.574  12.614   2.367
22562W        W88993  40.502  22.824  12.481
22563W        W88994  13.630  14.400  12.009
22564W        W88995   2.148  42.958   0.856
22565W        W88996  42.881  33.371  12.582
22566W        W88997  26.777  15.099  13.561
22567W        W88998   1.876  36.520  14.630
22568W        W88999   6.287  39.092   4.892
22569W        W89000  24.768  31.872  12.569
22570W        W89001  23.100   5.993   0.349
22571W        W89002   1.249  16.959   0.308
22572W        W89003  17.782  18.464   3.229
22573W        W89004  11.621  40.469  11.161
22574W        W89005   1.806   1.171  13.789
22575W        W89006  40.509  42.546   3.740
22576W        W89007  36.862  23.644   0.319
22577W        W89008  31.470  33.376   1.703
22578W        W89009  38.929  10.126   4.092
22579W        W89010  20.774  21.174  12.653
22580W        W89011  10.830  24.249  12.844
22581W        W89012  42.954  11.082   3.861
22582W        W89013  35.535  12.583  14.794
22583W        W89014   5.388  42.821   4.205
22584W        W89015  20.593  21.447   0.218
22585W        W89016  22.427  42.031  13.507
22586W        W89017  33.764   7.078   4.618
22587W        W89018  37.865   1.342  14.493
22588W        W89019   2.281  38.079   0.311
22589W        W89020  30.513  30.375   1.332
22590W        W89021   5.352  19.240  12.987
22591W        W89022  25.203  43.302   4.630
22592W        W89023   1.160  39.354   0.860
22593W        W89024  24.008  43.813  13.888
22594W        W89025  13.065   1.566  11.900
22595W        W89026   6.712   1.514   1.952
22596W        W89027  33.531   3.803   3.128
22597W        W89028  41.383  27.562  12.955
22598W        W89029  32.044  19.728   3.250
22599W        W89030  36.368  20.821   1.378
22600W        W89031   2.626  41.591  11.007
22601W        W89032  11.705  32.381   2.391
22602W        W89033  44.799  42.835   4.109
22603W        W89034  22.079   8.148   2.909
22604W        W89035  32.912  19.234  12.817
22605W        W89036  31.672  19.444   2.207
22606W        W89037   9.877  40.482  12.879
22607W        W89038  11.319   2.418   0.422
22608W        W89039  16.264   0.853  11.598
22609W        W89040  39.972  33.834  11.149
22610W        W89041  38.409  41.254   3.311
22611W        W89042   3.907  30.879   4.750
22612W        W89043  13.140  32.848  10.773
22613W        W89044  22.271  39.769   3.123
22614W        W89045  34.033   9.710   3.307
22615W        W89046  40.062  43.060   4.973
22616W        W89047  21.025  12.449  12.912
22617W        W89048  33.077  44.830  14.046
22618W        W89049  30.135   1.192  12.365
22619W        W89050  31.628  30.943   3.186
22620W        W89051   9.556  19.794  12.699
22621W        W89052  43.825  23.952   1.004
22622W        W89053  18.608  25.753  10.169
22623W        W89054  20.081   9.918  12.226
22624W        W89055  39.807  11.713  13.145
22625W        W89056  30.093  31.653   1.116
22626W        W89057   4.731  35.403   2.640
22627W        W89058   5.855   7.358  11.264
22628W        W89059  34.323   7.596  11.147
22629W        W89060  38.364  15.583   4.512
22630W        W89061  22.239  26.497   4.118
22631W        W89062  29.701  11.948  13.821
22632W        W89063  22.614  35.576   1.436
22633W        W89064  21.691  40.003  12.622
22634W        W89065  33.615  22.054   1.445
22635W        W89066  32.353  29.586   4.717
22636W        W89067   0.996  30.889  14.027
22637W        W89068  33.842  31.457   2.385
22638W        W89069  29.021  13.607   0.474
22639W        W89070  35.007   7.436   2.332
22640W        W89071  17.764  19.954   2.914
22641W        W89072  13.669  43.239  12.035
22642W        W89073  31.420  12.879   1.716
22643W        W89074  24.546  42.889  12.556
22644W        W89075  43.855  17.585   3.632
22645W        W89076  31.114  42.794  11.653
22646W        W89077   8.745  23.909   3.726
22647W        W89078  25.436   2.317   3.909
22648W        W89079  36.307  40.439   2.283
22649W        W89080   7.677  31.046   4.030
22650W        W89081  29.233  36.602   4.132
22651W        W89082  16.507  37.099  13.928
22652W        W89083  14.629   1.983  11.505
22653W        W89084  44.676  27.156  12.944
22654W        W89085  24.242  13.418  14.384
22655W        W89086  13.570  28.073  11.131
22656W        W89087  28.594  40.055  10.218
22657W        W89088  21.477  21.217  14.718
22658W        W89089  22.767  35.112   2.331
22659W        W89090  41.782   7.757   3.479
22660W        W89091   0.810  38.934   4.037
22661W        W89092  30.859  39.442   1.445
22662W        W89093  19.824  32.010  13.495
22663W        W89094   7.887   9.167  12.191
22664W        W89095  29.528  44.991  11.347
22665W        W89096   8.055  15.330   5.318
22666W        W89097  26.648  25.897  12.449
22667W        W89098  40.571   3.987   1.323
22668W        W89099  34.463  23.250  11.533
22669W        W89100  17.165  34.670  10.234
22670W        W89101   9.176   4.835   1.234
22671W        W89102  22.783  24.946   3.977
22672W        W89103  23.550  31.041  12.848
22673W        W89104  27.955  32.062   2.647
22674W        W89105   2.938  41.920   1.279
22675W        W89106  10.761   6.810  10.730
22676W        W89107  15.837  13.496   3.709
22677W        W89108  24.183  31.832  13.844
22678W        W89109  25.412  21.752   4.226
22679W        W89110   3.959  27.310  12.712
22680W        W89111  36.015  38.325  13.369
22681W        W89112   4.421  25.895   3.303
22682W        W89113  15.369  41.221  12.073
22683W        W89114   0.009  36.707  14.481
22684W        W89115  17.783  21.716   3.530
22685W        W89116  12.961  42.461  11.967
22686W        W89117  40.901  16.835  13.385
22687W        W89118  20.073  20.526   0.940
22688W        W89119  25.555  21.243  11.520
22689W        W89120  15.266  24.957   3.387
22690W        W89121  31.037   3.903   3.519
22691W        W89122  38.818  36.944   4.090
22692W        W89123  36.855  21.145   2.929
22693W        W89124   4.643  22.189   4.546
22694W        W89125  32.408   3.892   4.797
22695W        W89126  33.836   3.401  13.484
22696W        W89127  11.194  25.849   5.216
22697W        W89128   0.870  36.467  12.906
22698W        W89129  24.253  15.831   1.423
22699W        W89130  35.051  14.869   4.620
22700W        W89131   2.274  41.371  11.745
22701W        W89132  25.546   9.096   1.989
22702W        W89133   1.041  13.048  10.567
22703W        W89134  23.831  32.081  14.823
22704W        W89135  41.308  37.414   0.661
22705W        W89136  21.674  41.976  13.099
22706W        W89137   7.834  17.587   0.857
22707W        W89138   4.795  14.289  14.019
22708W        W89139  25.584  19.276   2.214
22709W        W89140   6.616  39.470   4.810
22710W        W89141  38.100  28.405   1.136
22711W        W89142  15.529  38.523   4.258
22712W        W89143  26.163  31.464  12.189
22713W        W89144  40.219   8.353   4.622
22714W        W89145  18.711   8.277  14.827
22715W        W89146  19.743  42.030   3.308
22716W        W89147  29.484  28.108  10.707
22717W        W89148   9.237  14.066  12.323
22718W        W89149  15.784   6.686  12.103
22719W        W89150  43.877  20.499   4.591
22720W        W89151  11.048  12.416   3.327
22721W        W89152  19.052  29.691  14.072
22722W        W89153  19.215   3.938  14.499
22723W        W89154  28.447  17.315   0.363
22724W        W89155  14.156  26.455  13.812
22725W        W89156  17.652  14.259  14.725
22726W        W89157  41.345  20.269  11.197
22727W        W89158  40.345   7.326   0.587
22728W        W89159  43.946   5.754  11.625
22729W        W89160   1.407  17.306  13.044
22730W        W89161  38.039  25.130   0.309
22731W        W89162  11.093  24.180  13.860
22732W        W89163  41.927  38.906   0.566
22733W        W89164  11.147  20.081  10.621
22734W        W89165   7.805   2.957   0.713
22735W        W89166  26.397  40.616   1.364
22736W        W89167  28.433  42.425  13.991
22737W        W89168  12.851  37.804  10.373
22738W        W89169  41.907  29.694   0.779
22739W        W89170   3.827   6.436  12.891
22740W        W89171  35.960  11.283  12.683
22741W        W89172  18.345  28.231   0.247
22742W        W89173  17.079   5.942  13.854
22743W        W89174  16.934  18.206   0.427
22744W        W89175  23.063   4.204   0.867
22745W        W89176  16.784  20.370  12.369
22746W        W89177  13.499   1.363   4.224
22747W        W89178  33.604  32.753  11.872
22748W        W89179  13.773   4.632   0.807
22749W        W89180  18.548  17.198   2.019
22750W        W89181  14.698  14.541   3.676
22751W        W89182  17.224  10.050  10.643
22752W        W89183  29.465   4.425   0.863
22753W        W89184  38.362  42.954  11.481
22754W        W89185  27.693  31.578  11.085
22755W        W89186  12.709  22.141  12.491
22756W        W89187  36.407  19.989   1.625
22757W        W89188   2.199  23.431  11.192
22758W        W89189  39.756   5.980   3.303
22759W        W89190  13.916   6.729   0.462
22760W        W89191  24.761   9.157   2.720
22761W        W89192  33.898  30.166   2.607
22762W        W89193  33.989   0.954  11.661
22763W        W89194  43.933  18.877  13.338
22764W        W89195  33.049  24.130  10.686
22765W        W89196  15.821   1.997  13.878
22766W        W89197   3.765  32.513   2.758
22767W        W89198  10.668  17.301   0.848
22768W        W89199  19.579  44.643  12.448
22769W        W89200  22.067  12.172   2.304
22770W        W89201  22.951  33.650  11.771
22771W        W89202  36.437   8.078  14.972
22772W        W89203  24.891  38.986  10.189
22773W        W89204  44.926  23.042   3.178
22774W        W89205  24.341  27.445   4.513
22775W        W89206  40.385  11.114   4.100
22776W        W89207   0.604   3.520  14.919
22777W        W89208  18.458   0.635  10.563
22778W        W89209  29.710   2.173   2.221
22779W        W89210  40.489  15.204   0.402
22780W        W89211   8.149   4.470   0.748
22781W        W89212   0.156   2.326   0.295
22782W        W89213  20.628  37.303   2.810
22783W        W89214  38.961  23.767   2.283
22784W        W89215  32.834  29.845   2.852
22785W        W89216   5.913   2.256  13.514
22786W        W89217  17.052  27.140   1.482
22787W        W89218  33.659   6.812  11.120
22788W        W89219  18.093  15.635  12.246
22789W        W89220   8.192   1.990  10.788
22790W        W89221   2.168  26.106   2.279
22791W        W89222  37.771  13.374   3.155
22792W        W89223   7.557  42.337  10.644
22793W        W89224  18.264  17.103   1.594
22794W        W89225  34.992   9.978   2.240
22795W        W89226  23.458  23.198   3.695
22796W        W89227   5.444  24.663   2.122
22797W        W89228  38.970  20.185  14.802
22798W        W89229  42.254  15.281   3.131
22799W        W89230  20.653   9.806  11.086
22800W        W89231   4.175  10.629  14.169
22801W        W89232  44.976  26.173   4.276
22802W        W89233  37.085  21.713  13.860
22803W        W89234   6.734  31.196  12.910
22804W        W89235  24.603  27.897   4.391
22805W        W89236  41.022  15.671  10.971
22806W        W89237  43.213  34.007  14.641
22807W        W89238  30.818  31.131  10.635
22808W        W89239  43.540   9.668  12.446
22809W        W89240  13.134   5.437  11.634
22810W        W89241  34.297  38.408  13.344
22811W        W89242   5.715  21.871  12.157
22812W        W89243  16.020  16.036  14.768
22813W        W89244   4.805  29.135  13.340
22814W        W89245  19.748  32.722   3.748
22815W        W89246  39.595  36.467   3.110
22816W        W89247  22.570  19.913   2.974
22817W        W89248  30.504   8.851   4.912
22818W        W89249  34.372  35.295   0.048
22819W        W89250  20.873  15.589   1.325
22820W        W89251  16.451   2.663  10.295
22821W        W89252  22.103  40.587   0.660
22822W        W89253  40.371  32.061   4.567
22823W        W89254   8.948  12.723  13.428
22824W        W89255  27.408  27.042   2.568
22825W        W89256  42.086  34.616   0.897
22826W        W89257  16.637   1.946   2.334
22827W        W89258  11.975  16.369   1.208
22828W        W89259  14.467  40.519  11.127
22829W        W89260  17.093  17.238   4.973
22830W        W89261  35.846  26.237   3.323
22831W        W89262  42.746   8.235  10.660
22832W        W89263   6.335   7.205  13.157
22833W        W89264  34.549  31.039   1.945
22834W        W89265  20.137  35.596   3.046
22835W        W89266  12.953   0.145   4.410
22836W        W89267  43.292  17.327   1.357
22837W        W89268   8.361  23.361  13.551
22838W        W89269  35.468  29.004   2.096
22839W        W89270   4.076  32.014  14.822
22840W        W89271   4.535  43.512   0.425
22841W        W89272  37.494  11.937  12.026
22842W        W89273  10.286  40.253  11.106
22843W        W89274  15.614  17.627  13.518
22844W        W89275  40.148  39.866   5.451
22845W        W89276  37.971  36.081  10.461
22846W        W89277   4.535  20.539   1.387
22847W        W89278  25.902   7.862   1.110
22848W        W89279  22.458  33.485  14.346
22849W        W89280  39.815  42.498   1.879
22850W        W89281  12.927  27.456   1.823
22851W        W89282  35.156  30.190   3.308
22852W        W89283   7.922  16.220  12.963
22853W        W89284  35.079   9.989   1.424
22854W        W89285  40.424  31.475   1.302
22855W        W89286  42.566  35.085   3.781
22856W        W89287   2.971  28.972  12.485
22857W        W89288  25.179  38.597   0.297
22858W        W89289   9.453  17.708  10.715
22859W        W89290  44.483   5.927  13.873
22860W        W89291   4.208   4.920   1.238
22861W        W89292  38.920  21.970   3.648
22862W        W89293   8.702  25.952  14.768
22863W        W89294  43.073   5.306   0.947
22864W        W89295  38.498  34.568   3.793
22865W        W89296  15.739  27.542  13.991
22866W        W89297   7.411   0.751  11.993
22867W        W89298   1.748  30.049   0.887
22868W        W89299  25.664  21.106   3.461
22869W        W89300  31.368  31.386   3.219
22870W        W89301  27.454   9.143   4.568
22871W        W89302  37.786   4.765   3.225
22872W        W89303  22.023  32.969   0.363
22873W        W89304  13.714   0.571  11.605
22874W        W89305  32.059  44.973   4.706
22875W        W89306  31.053   0.802   0.507
22876W        W89307  42.787   7.176  14.312
22877W        W89308  30.140  39.104   4.098
22878W        W89309  28.926  27.858   3.269
22879W        W89310  27.220  19.586   0.752
22880W        W89311  15.742  42.033  13.063
22881W        W89312  20.317  16.781  12.509
22882W        W89313  20.167   4.228   3.736
22883W        W89314   2.693  17.172   0.404
22884W        W89315  32.332  16.719   1.265
22885W        W89316  43.328  29.366   2.299
22886W        W89317   1.360  32.531  13.512
22887W        W89318  31.482   3.442   1.392
22888W        W89319  28.917  24.959   0.719
22889W        W89320   5.254  20.331  10.728
22890W        W89321  22.163  35.843  10.031
22891W        W89322   2.879  38.798  12.752
22892W        W89323  22.275  18.297  13.383
22893W        W89324   1.054  41.725   0.678
22894W        W89325  44.223  44.854  12.944
22895W        W89326  20.510  39.224  13.538
22896W        W89327  22.192  33.426  13.903
22897W        W89328  33.128   2.475   1.646
22898W        W89329  30.071  43.387   2.448
22899W        W89330  29.225  10.439  12.609
22900W        W89331  36.690  15.846   1.386
22901W        W89332  29.116  13.111   3.934
22902W        W89333  22.727  43.515  11.203
22903W        W89334   8.191  13.863  13.807
22904W        W89335  27.087   8.951  13.462
22905W        W89336  32.406  15.784   2.093
22906W        W89337  43.205   0.244   1.357
22907W        W89338  44.513  18.604  11.926
22908W        W89339  28.185  37.351   0.473
22909W        W89340  21.228  15.028   4.142
22910W        W89341   7.044  42.798  10.781
22911W        W89342  24.743   9.661   3.656
22912W        W89343  16.423  30.007  12.258
22913W        W89344  11.433   2.925  14.513
22914W        W89345  24.657   2.957   2.200
22915W        W89346  18.105  41.310  13.339
22916W        W89347   7.226  15.127  12.651
22917W        W89348  32.867  33.532   1.659
22918W        W89349  39.005  31.001  11.544
22919W        W89350  32.382  21.712  10.930
22920W        W89351  12.107  23.641  14.428
22921W        W89352  36.505  14.748   4.208
22922W        W89353   8.522  28.147   0.752
22923W        W89354  25.650  35.175  14.455
22924W        W89355  21.045  43.459   0.481
22925W        W89356  38.488  15.583  10.723
22926W        W89357  42.001  40.517  11.124
22927W        W89358  31.222  13.552  11.132
22928W        W89359  31.188  16.060   0.857
22929W        W89360   9.445  33.744   2.319
22930W        W89361  19.246  22.498  12.569
22931W        W89362   6.197  30.647   3.673
22932W        W89363  16.072  42.836   1.276
22933W        W89364   9.161   7.736   1.927
22934W        W89365  24.795  38.925  11.968
22935W        W89366  16.175   3.724  11.673
22936W        W89367  14.083   5.764  13.931
22937W        W89368  27.561  34.568   2.306
22938W        W89369  34.512  34.108  13.525
22939W        W89370  42.949  22.527   2.423
22940W        W89371  28.658  43.990  11.169
22941W        W89372  31.135  31.183  13.982
22942W        W89373  12.050  40.062  12.018
22943W        W89374   4.987   6.725  12.992
22944W        W89375  18.290  34.051  12.037
22945W        W89376  17.348   4.307   2.847
22946W        W89377  10.897   1.395  13.133
22947W        W89378  11.115  18.176  13.393
22948W        W89379   8.403  25.572  11.238
22949W        W89380  42.403  20.161   1.348
22950W        W89381  19.828   0.715  14.873
22951W        W89382  19.434  26.598   0.260
22952W        W89383  21.611   5.803  10.328
22953W        W89384  38.878  44.295   1.836
22954W        W89385   0.920  10.057   2.167
22955W        W89386   0.758   0.869   1.860
22956W        W89387  13.257  17.337  11.569
22957W        W89388   8.942  25.171   4.417
22958W        W89389  41.721  37.113   1.373
22959W        W89390   8.679  35.845   3.708
22960W        W89391  39.276  26.615  10.152
22961W        W89392  15.318  16.303  11.661
22962W        W89393  26.920  26.106  13.777
22963W        W89394  15.307   1.933  13.542
22964W        W89395  41.424  18.339  13.938
22965W        W89396  37.257  11.701  14.175
22966W        W89397  24.624  13.475  11.826
22967W        W89398  20.555  32.627  10.134
22968W        W89399  10.416  41.463   0.821
22969W        W89400  13.203  36.336  11.198
22970W        W89401  29.197   1.715   1.850
22971W        W89402   9.447  29.667  14.419
22972W        W89403  21.031   7.112  11.999
22973W        W89404  27.115  17.319  11.961
22974W        W89405  18.600   9.188  11.640
22975W        W89406  25.278  27.331  10.918
22976W        W89407  15.665  39.790   4.626
22977W        W89408  15.736  36.931   1.525
22978W        W89409  13.670  31.419   2.441
22979W        W89410  16.968  25.774   2.367
22980W        W89411   8.239  16.853   1.298
22981W        W89412  20.655  27.720   1.826
22982W        W89413  15.064  42.334  12.240
22983W        W89414  38.179  18.356   5.083
22984W        W89415   9.852  43.245   0.068
22985W        W89416  39.801  31.491   2.869
22986W        W89417  39.775  20.718   4.536
22987W        W89418  15.570  17.312   3.268
22988W        W89419   6.378  27.729   4.291
22989W        W89420  10.885  33.888   1.626
22990W        W89421   8.830  37.771  11.975
22991W        W89422  43.680  23.079  14.224
22992W        W89423  19.401  18.514  10.494
22993W        W89424  39.786   5.824  10.733
22994W        W89425  41.415  35.121   2.720
22995W        W89426  11.456  16.610  13.424
22996W        W89427  24.546  28.100   0.665
22997W        W89428  21.128  19.556  11.499
22998W        W89429  18.661  27.892  13.406
22999W        W89430  29.815  30.915  14.899
23000W        W89431  40.492  30.153   3.261
23001W        W89432  25.211  21.118   2.145
23002W        W89433   4.124   7.414  11.090
23003W        W89434  26.939  15.608  11.551
23004W        W89435  35.385  37.979   5.144
23005W        W89436  17.995  30.500  13.939
23006W        W89437  42.857  34.197   3.277
23007W        W89438  21.797  14.258  13.075
23008W        W89439  12.159  11.188   0.692
23009W        W89440   3.226  40.819  11.089
23010W        W89441  19.049  15.120   2.558
23011W        W89442   0.925   2.937   2.637
23012W        W89443   9.206  19.079   1.648
23013W        W89444   4.261   0.961   3.762
23014W        W89445  35.904  31.133   2.795
23015W        W89446  24.949  35.996   3.316
23016W        W89447  33.324  13.408  11.969
23017W        W89448   6.738  13.561   2.423
23018W        W89449   0.435  15.181   3.557
23019W        W89450  21.521   1.244  14.947
23020W        W89451  12.564  18.659  10.706
23021W        W89452  23.796  18.202  14.512
23022W        W89453  35.896  20.985  14.286
23023W        W89454   4.636  10.885  10.734
23024W        W89455  38.436   4.981  11.720
23025W        W89456  18.321  28.598  12.045
23026W        W89457   9.830   6.487   2.013
23027W        W89458   1.726   7.333   2.287
23028W        W89459   5.062  27.458   0.665
23029W        W89460  33.338  38.504  13.021
23030W        W89461   1.677  36.075  12.015
23031W        W89462  43.244   6.600  12.137
23032W        W89463  36.632   1.987  13.613
23033W        W89464  12.122  42.352  11.632
23034W        W89465  14.733  43.784  13.919
23035W        W89466  34.071  26.327  11.512
23036W        W89467  17.689  18.396   4.784
23037W        W89468  43.997  28.437   3.644
23038W        W89469   7.995   9.935   4.659
23039W        W89470  11.388  29.111   0.291
23040W        W89471  43.899  27.493  13.649
23041W        W89472  44.515   6.873  13.119
23042W        W89473  12.427  27.341   5.080
23043W        W89474  27.265  25.627  12.094
23044W        W89475  43.862  11.546  11.131
23045W        W89476   4.353  23.492  13.951
23046W        W89477  38.193  34.750  14.372
23047W        W89478  24.020  22.701  12.489
23048W        W89479  37.369  31.136   2.428
23049W        W89480   4.344  16.237   1.208
23050W        W89481  37.046   9.794  12.382
23051W        W89482  35.513  15.258  13.893
23052W        W89483  24.091  40.085  12.512
23053W        W89484  35.033  41.285  12.399
23054W        W89485   1.416   4.237  13.882
23055W        W89486  43.636   8.991   3.702
23056W        W89487  33.568  29.935  14.373
23057W        W89488  37.925  28.189   4.782
23058W        W89489  15.130   2.241  13.919
23059W        W89490   3.795  25.188   3.637
23060W        W89491  20.747  13.664   1.685
23061W        W89492  20.146  17.083  12.900
23062W        W89493  43.381  26.960   2.645
23063W        W89494  23.448  23.014   0.307
23064W        W89495  31.934  38.326   2.787
23065W        W89496  44.941  36.563  10.547
23066W        W89497  18.718  24.960   3.303
23067W        W89498  13.099   8.687   2.992
23068W        W89499  14.089   7.693   1.873
23069W        W89500   2.849  33.393  14.041
23070W        W89501  44.329  34.096   3.855
23071W        W89502   5.778  41.091   2.352
23072W        W89503  25.002  13.245   0.221
23073W        W89504  19.044  25.115   2.769
23074W        W89505  12.916  25.880  11.256
23075W        W89506  34.851  34.095  10.707
23076W        W89507  11.361  24.314  14.494
23077W        W89508  13.677   8.814   1.254
23078W        W89509   4.389  39.271  10.991
23079W        W89510  12.956  34.604  14.288
23080W        W89511  38.300   9.289  13.913
23081W        W89512  29.672  15.588   4.191
23082W        W89513  23.547   8.238  10.593
23083W        W89514  14.424  28.950   0.896
23084W        W89515  28.754   8.766   4.248
23085W        W89516   4.644  18.049  10.507
23086W        W89517   6.446  20.020  11.994
23087W        W89518   5.094  20.842  10.781
23088W        W89519   6.394  19.218  11.610
23089W        W89520  39.429  33.169   0.999
23090W        W89521  14.903  41.735   2.572
23091W        W89522  40.848   2.039  13.849
23092W        W89523  11.030   9.816   1.803
23093W        W89524  43.067  36.308  10.799
23094W        W89525   0.898  35.296   4.699
23095W        W89526   1.764  33.539   2.354
23096W        W89527  15.401  31.891  12.531
23097W        W89528  17.306  21.933   4.278
23098W        W89529  32.006  42.131  12.637
23099W        W89530  33.614  15.962   3.717
23100W        W89531   4.007  35.344  10.750
23101W        W89532  34.365  44.788   2.795
23102W        W89533  21.582   8.194  14.256
23103W        W89534  43.066  16.756   1.866
23104W        W89535  41.271   3.361   3.855
23105W        W89536  18.576   1.912   0.345
23106W        W89537  38.322  35.440   4.398
23107W        W89538  20.509  19.204  12.432
23108W        W89539  15.021  28.594  10.686
23109W        W89540   8.996  13.141   4.127
23110W        W89541  23.272  21.910  12.538
23111W        W89542  41.878  19.985   3.033
23112W        W89543  22.124  41.976   0.649
23113W        W89544   8.195  23.827   4.566
23114W        W89545  14.406  29.264  11.566
23115W        W89546  18.209   7.859   1.445
23116W        W89547  17.295  20.162   2.791
23117W        W89548  29.278  16.259   4.721
23118W        W89549   2.789   0.341   0.544
23119W        W89550  25.084  23.356   2.167
23120W        W89551  11.406  18.502  10.717
23121W        W89552  41.455  34.501   4.108
23122W        W89553  18.158  21.126   4.673
23123W        W89554  19.517  29.895  13.909
23124W        W89555  29.724  42.442  12.463
23125W        W89556  11.703  17.248   3.337
23126W        W89557  37.795  20.966   1.136
23127W        W89558   0.983  25.206  10.820
23128W        W89559   7.850   4.689  11.113
23129W        W89560   9.934   2.212  11.084
23130W        W89561  11.879  13.725   4.175
23131W        W89562  28.476  42.916  14.898
23132W        W89563  32.372  41.119   2.789
23133W        W89564  44.733   9.795  13.923
23134W        W89565   7.918  26.055   1.339
23135W        W89566  15.648  28.775   4.988
23136W        W89567  10.694   7.215   4.078
23137W        W89568  44.633  35.350  10.545
23138W        W89569   2.358  21.572  14.616
23139W        W89570   2.945  33.556   0.097
23140W        W89571  15.303  35.411  12.477
23141W        W89572  12.218  43.240   4.604
23142W        W89573   7.150  38.869  10.309
23143W        W89574   0.733   1.291   4.605
23144W        W89575  29.160  28.865   3.205
23145W        W89576  34.904  17.586   4.018
23146W        W89577  36.033   5.659  12.070
23147W        W89578   2.300  21.097   2.711
23148W        W89579  19.812  27.898   3.182
23149W        W89580  25.967  41.406   4.576
23150W        W89581  27.472  20.226   4.119
23151W        W89582  12.917  44.183   0.810
23152W        W89583  16.840  23.895   9.876
23153W        W89584  28.219  15.148  11.719
23154W        W89585   1.721   9.251  13.075
23155W        W89586  22.489  44.963  13.004
23156W        W89587  39.287  18.754   3.128
23157W        W89588  35.917   4.578   2.782
23158W        W89589  25.512  31.245   4.537
23159W        W89590   2.154   1.959  12.408
23160W        W89591  37.979  22.539   4.071
23161W        W89592   5.954  25.995   1.294
23162W        W89593   2.309  17.279  10.655
23163W        W89594   3.837  28.954   2.125
23164W        W89595   5.730  38.095   3.137
23165W        W89596  10.930  39.940   4.549
23166W        W89597  31.528  13.355   1.456
23167W        W89598  27.484  13.440   1.632
23168W        W89599  10.088  16.589  11.135
23169W        W89600  14.162  24.566   1.469
23170W        W89601  21.629  14.521  13.959
23171W        W89602  28.663  32.456   4.670
23172W        W89603  30.979  11.244   1.716
23173W        W89604  16.775   8.836   4.567
23174W        W89605   7.132  35.399  13.502
23175W        W89606  44.259  29.652   0.910
23176W        W89607  26.576  23.345   3.961
23177W        W89608  35.144   9.304   2.701
23178W        W89609  32.122   4.416  13.582
23179W        W89610   7.066   8.826  10.778
23180W        W89611  33.223  30.016   1.182
23181W        W89612   3.502   4.935  10.980
23182W        W89613  40.574  28.577   4.489
23183W        W89614  23.048   4.727   4.088
23184W        W89615  44.388   2.501   4.104
23185W        W89616   5.513  23.178   4.653
23186W        W89617  13.745  21.003   1.898
23187W        W89618  14.049  40.978   1.285
23188W        W89619   8.146  14.322  14.460
23189W        W89620  13.820   8.345   0.995
23190W        W89621  22.948   6.348  11.707
23191W        W89622  25.223   5.146   3.584
23192W        W89623  25.232   4.170  11.626
23193W        W89624  14.159  15.690   4.119
23194W        W89625  44.980  27.480   2.391
23195W        W89626  10.824  33.066   1.013
23196W        W89627   8.896  17.055  14.916
23197W        W89628   8.975   6.175   4.994
23198W        W89629  18.247  41.153  11.978
23199W        W89630  13.678  17.213   3.861
23200W        W89631   1.108  31.418  14.302
23201W        W89632  23.232   6.000  11.948
23202W        W89633  29.348  26.211   2.650
23203W        W89634  40.909  19.065  11.449
23204W        W89635  16.587  21.016  12.650
23205W        W89636   5.247  23.741   3.219
23206W        W89637  11.365  34.096   3.737
23207W        W89638  11.140  43.747   0.387
23208W        W89639  25.144   2.831  11.177
23209W        W89640  43.974   5.643  14.942
23210W        W89641  39.390  22.094   1.505
23211W        W89642  30.302  32.861   4.643
23212W        W89643  36.921  15.726  12.925
23213W        W89644   2.087   3.131  10.289
23214W        W89645  28.693  29.514   4.348
23215W        W89646  14.772  24.658   2.129
23216W        W89647  28.395  33.643  12.397
23217W        W89648  43.787   4.945  11.182
23218W        W89649   6.644  33.344   3.028
23219W        W89650  11.727  39.984   5.044
23220W        W89651  37.476  24.254  12.477
23221W        W89652  23.389  18.671  14.882
23222W        W89653   0.023  43.258   4.949
23223W        W89654   4.177  41.299   1.119
23224W        W89655  39.545  22.991   4.085
23225W        W89656  15.327   6.419  13.518
23226W        W89657   6.095  13.304  11.139
23227W        W89658  42.330  44.401   3.364
23228W        W89659   4.433   8.940  12.023
23229W        W89660   6.929  41.741   4.716
23230W        W89661   3.396  14.509   1.454
23231W        W89662   7.246   9.640  14.025
23232W        W89663   9.301  30.025   4.583
23233W        W89664  15.255  17.078  13.908
23234W        W89665  33.421  20.708  12.086
23235W        W89666  17.569  25.296   1.708
23236W        W89667  21.901  32.642  13.451
23237W        W89668  22.041  40.458   2.744
23238W        W89669  17.584  44.827   1.369
23239W        W89670  17.248   3.234   3.097
23240W        W89671  38.054   5.281  12.882
23241W        W89672  17.312  29.458   1.504
23242W        W89673   8.914   0.856   3.293
23243W        W89674  10.407   5.601  14.661
23244W        W89675   5.391  11.959  13.441
23245W        W89676   2.250  33.519  10.589
23246W        W89677  19.170  10.677  10.753
23247W        W89678  18.021  28.707  12.529
23248W        W89679   1.821  17.150   2.758
23249W        W89680  38.952  11.759   3.204
23250W        W89681  20.183  25.348   1.555
23251W        W89682   7.440  29.913  14.213
23252W        W89683  31.272  30.193  12.015
23253W        W89684  33.144  35.634   0.498
23254W        W89685  41.414   6.694  11.602
23255W        W89686  42.468   0.011  11.230
23256W        W89687  13.788  44.994   1.792
23257W        W89688  16.655  11.334  14.896
23258W        W89689  20.474  30.576   0.508
23259W        W89690   8.987  34.483  13.903
23260W        W89691  40.959   0.799  10.652
23261W        W89692  43.847  38.720  14.299
23262W        W89693  39.513  37.558   0.467
23263W        W89694  23.715  15.252  11.396
23264W        W89695  11.997  19.358  12.543
23265W        W89696  19.592  37.594  11.013
23266W        W89697  36.508  17.607   2.816
23267W        W89698  37.912  44.111   2.885
23268W        W89699  18.050  42.848   2.291
23269W        W89700   1.399   5.276   1.159
23270W        W89701   5.785  26.499  11.493
23271W        W89702  32.237  39.056  12.276
23272W        W89703  42.879   0.325  14.471
23273W        W89704  44.864  32.845  10.666
23274W        W89705  18.913   7.211  13.422
23275W        W89706  39.251  44.258  10.477
23276W        W89707   2.534  29.000  13.787
23277W        W89708  31.248   9.762   4.684
23278W        W89709  34.368  29.575   3.728
23279W        W89710  11.169  40.290   4.863
23280W        W89711   9.384  36.915  12.605
23281W        W89712  24.591  42.814  10.826
23282W        W89713  13.907  36.916   3.871
23283W        W89714  41.832   0.197   4.310
23284W        W89715   2.323  36.444   2.227
23285W        W89716   5.242  34.417  10.714
23286W        W89717   8.674  25.407  14.824
23287W        W89718  30.680  28.982   0.429
23288W        W89719  21.106  38.852   3.901
23289W        W89720  18.640   0.017  12.582
23290W        W89721  30.190  17.218  10.628
23291W        W89722   6.809  37.523   3.776
23292W        W89723   0.166  43.320  12.506
23293W        W89724  32.176   9.302  11.729
23294W        W89725  30.632   4.833   3.155
23295W        W89726  30.945  34.490   2.710
23296W        W89727  25.335  16.643   1.926
23297W        W89728  40.986   4.774  13.794
23298W        W89729   6.460  29.117  13.162
23299W        W89730  33.327  12.718   4.404
23300W        W89731   9.432  22.978   1.322
23301W        W89732  26.927  32.487  13.046
23302W        W89733  23.035  36.026   4.950
23303W        W89734  30.706  12.717   0.886
23304W        W89735  43.528  13.666   1.747
23305W        W89736   4.083   5.455   1.748
23306W        W89737   6.141  16.559  11.622
23307W        W89738   9.646   4.567  11.671
23308W        W89739  44.772  17.195   4.661
23309W        W89740  22.150  22.522  12.861
23310W        W89741  28.198  23.526   0.775
23311W        W89742  28.390  32.838   0.305
23312W        W89743  43.482  33.705   3.860
23313W        W89744  39.594   2.279  14.845
23314W        W89745  38.095  14.096   1.909
23315W        W89746  31.238  11.020  12.809
23316W        W89747  19.722  21.197  11.388
23317W        W89748   0.174  32.907  11.095
23318W        W89749  20.779  36.041   2.527
23319W        W89750  41.320  41.553  11.755
23320W        W89751  18.082  38.896   3.271
23321W        W89752  40.251  34.459   1.382
23322W        W89753  18.356  11.896   0.370
23323W        W89754  28.686  38.326  11.820
23324W        W89755  41.036   1.780  14.297
23325W        W89756  40.355  43.062   0.328
23326W        W89757  43.544  25.131   2.427
23327W        W89758  30.623  26.162   3.569
23328W        W89759   1.575  13.883  11.900
23329W        W89760  14.990   1.998  14.413
23330W        W89761  40.270   4.874  12.927
23331W        W89762   5.907  28.949   1.818
23332W        W89763  11.538  31.754  13.074
23333W        W89764   7.851  11.301   3.211
23334W        W89765  16.071  34.904   2.835
23335W        W89766  28.708  22.625   1.833
23336W        W89767   8.848  32.360   1.737
23337W        W89768   1.322   9.037  10.597
23338W        W89769  28.149  20.067  12.504
23339W        W89770  44.508  14.104  14.446
23340W        W89771  44.849  24.158   0.752
23341W        W89772  40.456  20.721  12.534
23342W        W89773  29.449  13.103  12.625
23343W        W89774  35.241  39.465   9.992
23344W        W89775  32.659   7.024  13.503
23345W        W89776   5.135  26.529   4.396
23346W        W89777   8.265   2.308   2.616
23347W        W89778  18.511  16.711   1.868
23348W        W89779   4.909  35.171  14.576
23349W        W89780   5.807  27.721  14.415
23350W        W89781  36.786   4.436   0.804
23351W        W89782  37.450  39.887  14.949
23352W        W89783  26.671  36.882   0.906
23353W        W89784  29.056  25.964   1.271
23354W        W89785  41.228  28.705   3.146
23355W        W89786  10.947   5.304  12.458
23356W        W89787  21.908  38.236   4.156
23357W        W89788  38.387   0.271  13.219
23358W        W89789  43.321  40.822   4.409
23359W        W89790  13.137   5.882  10.784
23360W        W89791  17.204  39.663  10.437
23361W        W89792  42.435  12.154  12.458
23362W        W89793   7.849   2.471   3.346
23363W        W89794  18.358  32.512   4.631
23364W        W89795  20.192  38.288   4.431
23365W        W89796   4.295  12.462   2.691
23366W        W89797  38.203  34.446   0.010
23367W        W89798  15.757   1.869  10.263
23368W        W89799  19.728  25.615   1.507
23369W        W89800  29.568   4.373  14.458
23370W        W89801  30.505  43.268  13.265
23371W        W89802  40.024  26.881  10.966
23372W        W89803  38.923  21.601  11.247
23373W        W89804  17.776  27.501  10.978
23374W        W89805  21.636  42.967   1.697
23375W        W89806  38.337  30.445  14.725
23376W        W89807  31.970   7.890   1.687
23377W        W89808  30.474  22.002  12.897
23378W        W89809   3.457  27.557  13.004
23379W        W89810  30.574  15.967   2.666
23380W        W89811  16.914  28.579   2.760
23381W        W89812  15.102  21.072   1.503
23382W        W89813  40.546   8.800   9.821
23383W        W89814  26.396   5.420   1.139
23384W        W89815   4.294  21.599  13.649
23385W        W89816  16.341  30.991   0.768
23386W        W89817  20.683  10.906   3.788
23387W        W89818  32.004  29.644   0.308
23388W        W89819   5.842  30.397  13.814
23389W        W89820   0.468  42.483   4.140
23390W        W89821  28.748  33.005   3.527
23391W        W89822  10.745   9.699  14.329
23392W        W89823  15.199  42.862  11.720
23393W        W89824  15.616  12.930   1.745
23394W        W89825   4.892   6.252   4.029
23395W        W89826   0.228  20.027   0.792
23396W        W89827  22.857  35.880   2.778
23397W        W89828  24.951  34.098  13.948
23398W        W89829  13.375   2.442  12.297
23399W        W89830  27.963  33.073   0.483
23400W        W89831  21.992   6.894   4.587
23401W        W89832   1.428   2.296  12.407
23402W        W89833  40.465  38.073  13.410
23403W        W89834  37.193  10.155   2.605
23404W        W89835   2.483  26.934  12.593
23405W        W89836  43.059   0.866   0.845
23406W        W89837   4.623   4.010   0.896
23407W        W89838  25.958   0.168  13.868
23408W        W89839   7.390  11.057  13.588
23409W        W89840  28.422  24.885   3.328
23410W        W89841   6.956  10.606   2.688
23411W        W89842  24.558  23.498  14.070
23412W        W89843  22.685  27.757  11.927
23413W        W89844  25.759   8.865  14.382
23414W        W89845   5.189  21.899  13.136
23415W        W89846  19.847  25.824   4.140
23416W        W89847   9.779  42.766   3.186
23417W        W89848  39.476  17.362  11.219
23418W        W89849  34.602  30.594   2.241
23419W        W89850  14.698   2.028  12.531
23420W        W89851  36.492  26.156   4.067
23421W        W89852  43.908  29.974  12.122
23422W        W89853  11.809  41.008  10.371
23423W        W89854  39.556   3.152   0.788
23424W        W89855  14.102   9.260   4.063
23425W        W89856  13.177  16.744   4.963
23426W        W89857  13.839  15.077  13.393
23427W        W89858  42.495  39.741   2.355
23428W        W89859  25.398  14.248   3.137
23429W        W89860  20.758  19.569   0.417
23430W        W89861  43.974  39.825  11.480
23431W        W89862  10.927  44.323  11.567
23432W        W89863  18.768  10.601  11.059
23433W        W89864  27.054  13.109  14.420
23434W        W89865  25.206  43.152  13.538
23435W        W89866  32.579  16.641   3.564
23436W        W89867  24.980  38.553   2.264
23437W        W89868   4.362  19.385  13.018
23438W        W89869  16.176  44.398  11.518
23439W        W89870   6.162  20.323  12.883
23440W        W89871  35.416  43.834   2.854
23441W        W89872  29.352  42.154   1.907
23442W        W89873  42.615  30.574   1.907
23443W        W89874  34.351  21.333  13.021
23444W        W89875  17.060  19.637   0.439
23445W        W89876  43.855  31.902   1.021
23446W        W89877  33.228   4.915  14.907
23447W        W89878  44.958   5.372  12.958
23448W        W89879  35.764  30.326   0.396
23449W        W89880  25.948  35.864  11.720
23450W        W89881   9.111  42.145  12.584
23451W        W89882  14.189   8.666   4.784
23452W        W89883   3.968  41.050   3.664
23453W        W89884   0.276  33.983   0.518
23454W        W89885  36.105  18.779  12.488
23455W        W89886   7.777  23.081   0.730
23456W        W89887  30.504  17.971   0.826
23457W        W89888   3.428  41.708  14.888
23458W        W89889  30.716  33.000  10.837
23459W        W89890  18.206   0.009   1.323
23460W        W89891  14.186  22.075   1.253
23461W        W89892  13.669  15.693   3.176
23462W        W89893   3.981   0.629   4.151
23463W        W89894  17.707   4.569  11.592
23464W        W89895  16.294   5.104   0.589
23465W        W89896  17.057  11.776  12.350
23466W        W89897  40.736   1.779   2.597
23467W        W89898   8.656   9.346   0.758
23468W        W89899  15.666  41.592   1.800
23469W        W89900  18.261  35.557   0.504
23470W        W89901   9.381  35.985   0.687
23471W        W89902  32.582   7.544  14.878
23472W        W89903  37.981  37.777  12.480
23473W        W89904  25.726  11.320   3.668
23474W        W89905  31.140  27.437  12.876
23475W        W89906   1.895  36.557   4.600
23476W        W89907   7.254  41.638  13.114
23477W        W89908   0.816  15.073  13.458
23478W        W89909  26.150  14.092  13.086
23479W        W89910  37.872  42.823  10.770
23480W        W89911  42.881  44.990   2.326
23481W        W89912  35.920  21.527   2.572
23482W        W89913  36.584  35.538   3.621
23483W        W89914  13.056  23.067  13.794
23484W        W89915  21.550  39.459   1.355
23485W        W89916  42.264   5.397  12.493
23486W        W89917  40.504  16.337   3.185
23487W        W89918  26.757  18.278  10.321
23488W        W89919   0.762  32.331   4.775
23489W        W89920  28.357  11.747   4.219
23490W        W89921  37.565  41.071   2.699
23491W        W89922  37.589  18.595   1.873
23492W        W89923  24.003  31.593   5.088
23493W        W89924  42.204  12.171  11.528
23494W        W89925  24.897  33.184  11.014
23495W        W89926   0.419  36.729  13.056
23496W        W89927   8.545  23.506  12.489
23497W        W89928  23.130  31.635  14.234
23498W        W89929   6.655  31.969   1.171
23499W        W89930  30.164   3.825  14.964
23500W        W89931  10.769  32.066  12.650
23501W        W89932  14.716  11.671   4.289
23502W        W89933  38.536  13.846   3.719
23503W        W89934  17.253  19.070  11.043
23504W        W89935  34.694  16.646   1.907
23505W        W89936   7.735  43.808   1.468
23506W        W89937  29.605  24.861  14.937
23507W        W89938  33.109  12.581   3.519
23508W        W89939  37.153  15.835  11.685
23509W        W89940  32.004   0.004   2.897
23510W        W89941   0.426  24.918  14.055
23511W        W89942  40.070  43.503   0.338
23512W        W89943  19.162  44.895  11.938
23513W        W89944  20.656  32.856   4.583
23514W        W89945  38.861  40.294  11.136
23515W        W89946   3.780  30.503  10.763
23516W        W89947  44.668  29.098  13.523
23517W        W89948   6.011  42.251   1.210
23518W        W89949  11.715   0.553  13.011
23519W        W89950  25.841  22.219   2.786
23520W        W89951  28.544  44.260   1.817
23521W        W89952  35.496  29.956   9.805
23522W        W89953  21.624  31.196   0.820
23523W        W89954  34.140  14.717   1.410
23524W        W89955  18.590  35.253  10.831
23525W        W89956  38.944  31.494  10.746
23526W        W89957  38.516   3.445  12.890
23527W        W89958  25.045  25.681  12.502
23528W        W89959   9.241   5.160  11.553
23529W        W89960   4.600  44.897  11.505
23530W        W89961   1.050  24.601  11.549
23531W        W89962  28.810   8.415  11.996
23532W        W89963  30.307  23.576  12.941
23533W        W89964   0.789  33.840  12.309
23534W        W89965  40.983   6.834   3.862
23535W        W89966  33.192   8.571  12.874
23536W        W89967  43.859   2.409   4.452
23537W        W89968  30.305   0.317  14.449
23538W        W89969   0.021   4.350  12.987
23539W        W89970  37.060  12.625   0.817
23540W        W89971  25.962  38.368  11.164
23541W        W89972   9.647  41.122   2.205
23542W        W89973  11.953  18.491   5.002
23543W        W89974  36.005  20.632  10.537
23544W        W89975   8.601  26.272   0.815
23545W        W89976  19.749   0.482   0.965
23546W        W89977   1.233   9.123   1.057
23547W        W89978  12.346  10.416  14.862
23548W        W89979  22.001   5.838   1.764
23549W        W89980  15.206  19.731   4.397
23550W        W89981  32.630  15.597  14.904
23551W        W89982  33.467  27.502   2.365
23552W        W89983  38.994  39.451   3.206
23553W        W89984  27.994  23.989  13.953
23554W        W89985  17.347  26.620  10.787
23555W        W89986  32.506   6.136  13.946
23556W        W89987  17.753  11.897  14.542
23557W        W89988  27.637  33.597  14.510
23558W        W89989  18.654  36.398   4.495
23559W        W89990  21.621  20.029  14.569
23560W        W89991  38.872  16.215   1.589
23561W        W89992  31.135  32.100   3.317
23562W        W89993   7.800   1.481  14.775
23563W        W89994   9.209   0.385   0.985
23564W        W89995   9.878  32.685   1.278
23565W        W89996  25.214  10.854  14.934
23566W        W89997  26.541   8.244   0.006
23567W        W89998  39.872  12.286   0.524
23568W        W89999  25.439  20.258  13.465
23569W        W90000  19.518  22.138   4.001
23570W        W90001   2.447   0.262  12.958
23571W        W90002   2.646   7.198  13.122
23572W        W90003  17.756  20.011  14.529
23573W        W90004  14.797  19.642  14.868
23574W        W90005   7.229   0.504   0.799
23575W        W90006  32.889  27.555  13.989
23576W        W90007   0.540   0.876   2.323
23577W        W90008  20.995  12.197  12.439
23578W        W90009  44.515  33.948  14.343
23579W        W90010  34.660  20.135  12.520
23580W        W90011  26.145  44.442  13.249
23581W        W90012  20.301   5.618   2.159
23582W        W90013  15.865  28.769  13.488
23583W        W90014  36.545  27.606   1.453
23584W        W90015  27.411   7.219  14.877
23585W        W90016  32.782  30.929  14.590
23586W        W90017   5.302   1.826   4.738
23587W        W90018  26.766  11.203   4.960
23588W        W90019  37.368  19.362   4.038
23589W        W90020  13.795  32.394  11.158
23590W        W90021  32.306   3.279   4.271
23591W        W90022  19.164  43.739   0.351
23592W        W90023  32.790  34.268  11.739
23593W        W90024  18.368  29.575   1.803
23594W        W90025   0.960  26.969   3.655
23595W        W90026  16.373  31.522   0.680
23596W        W90027  21.509   2.733  14.911
23597W        W90028  42.669  25.327   2.919
23598W        W90029  21.151   1.459  14.019
23599W        W90030  25.906  12.099  12.387
23600W        W90031   0.815  41.379   2.820
23601W        W90032  14.023   1.180   0.801
23602W        W90033  33.185   0.331  13.763
23603W        W90034  33.311  28.693  10.982
23604W        W90035  44.633   3.953  13.791
23605W        W90036  23.971  30.737  12.873
23606W        W90037  29.417  24.559  11.977
23607W        W90038  27.673  32.071   1.785
23608W        W90039  38.100  13.494   2.768
23609W        W90040   8.179  31.133   3.774
23610W        W90041   6.220  21.942  13.945
23611W        W90042  10.296  20.642   0.950
23612W        W90043   3.304  32.116  12.122
23613W        W90044  26.159  34.345  13.532
23614W        W90045  18.431  31.692   4.166
23615W        W90046  32.806   4.224   0.371
23616W        W90047  30.589  15.139   3.865
23617W        W90048  19.601  41.739   2.373
23618W        W90049  12.076  44.205   1.325
23619W        W90050  36.044  22.789  12.821
23620W        W90051  34.820  25.603  14.051
23621W        W90052  32.341  14.348   1.062
23622W        W90053   6.960  26.146   0.409
23623W        W90054   2.956  24.691   4.563
23624W        W90055  11.083   6.403  10.840
23625W        W90056  18.071  30.019  11.667
23626W        W90057  29.870   4.827   1.713
23627W        W90058  44.643  42.027   3.023
23628W        W90059  37.018   9.401   1.456
23629W        W90060  35.485  15.199   1.291
23630W        W90061   3.477   6.347  11.176
23631W        W90062  43.228   1.001  13.966
23632W        W90063  38.113   5.260   4.594
23633W        W90064  30.712   9.735   4.666
23634W        W90065  28.065  41.086  11.579
23635W        W90066   9.801   7.000   1.839
23636W        W90067  25.451  22.461  12.041
23637W        W90068  17.659  34.943   2.983
23638W        W90069  28.565  32.414   4.147
23639W        W90070   1.712  15.706   0.011
23640W        W90071  39.259  32.020  11.570
23641W        W90072   4.783  10.770  13.814
23642W        W90073   0.190  25.550   4.716
23643W        W90074  19.729  35.427   0.386
23644W        W90075  25.453  31.620   3.212
23645W        W90076   8.262   2.752  11.317
23646W        W90077   3.179  31.187  14.854
23647W        W90078  31.689   2.921   2.338
23648W        W90079  29.703   2.943  14.463
23649W        W90080  29.703  33.928  14.410
23650W        W90081  14.015  23.201   0.384
23651W        W90082  15.857  18.291   1.456
23652W        W90083  35.613  41.413   3.887
23653W        W90084  11.406  20.512   2.346
23654W        W90085  21.685   4.802  12.864
23655W        W90086   3.410  31.524   2.684
23656W        W90087   3.449  43.721   2.424
23657W        W90088  18.697  31.287  12.060
23658W        W90089   9.295   1.672  11.960
23659W        W90090  18.970  37.023  14.963
23660W        W90091  16.071  25.974   3.651
23661W        W90092  36.631  34.778  13.965
23662W        W90093  42.390  14.711  13.580
23663W        W90094  42.071   9.232  13.033
23664W        W90095  43.063  14.152   0.409
23665W        W90096  11.424  35.493   1.839
23666W        W90097  29.392  38.607  12.347
23667W        W90098   8.394  26.014   1.180
23668W        W90099  42.498  39.663   3.896
23669W        W90100   9.690  28.982  10.385
23670W        W90101  14.443  44.231  10.757
23671W        W90102  34.614  35.625  14.721
23672W        W90103   7.132  17.698   3.638
23673W        W90104  27.563   8.666  13.969
23674W        W90105  40.586  11.956   0.694
23675W        W90106  11.632  16.365  14.941
23676W        W90107  23.278   2.323   0.930
23677W        W90108   6.403  32.934   1.332
23678W        W90109   1.070  22.878  13.130
23679W        W90110  17.012  24.037  10.350
23680W        W90111   3.291   7.516   2.240
23681W        W90112   7.182  31.235   2.332
23682W        W90113  35.610  22.048   1.304
23683W        W90114  17.980  43.289   2.705
23684W        W90115   5.372  19.765   2.225
23685W        W90116  29.752  38.040  11.683
23686W        W90117   0.006   0.897   3.773
23687W        W90118  33.123  40.810   2.204
23688W        W90119  24.317  44.265  12.075
23689W        W90120  14.279  24.396  11.758
23690W        W90121  26.758  30.396  10.687
23691W        W90122  23.474  21.290  12.493
23692W        W90123   0.446   0.822  11.958
23693W        W90124  42.710  22.802   0.102
23694W        W90125  35.402  21.547  11.167
23695W        W90126  36.904  36.564   0.445
23696W        W90127  26.536  37.313  12.868
23697W        W90128  33.456   9.648  11.683
23698W        W90129  23.315   9.719  11.990
23699W        W90130  38.390  44.155   4.797
23700W        W90131   2.556  30.075   4.114
23701W        W90132  22.850  14.192   1.401
23702W        W90133  37.032   0.942  13.507
23703W        W90134  19.996  35.829  11.604
23704W        W90135  22.490  40.945   4.208
23705W        W90136   3.875  42.204  14.403
23706W        W90137   6.457  38.923   0.462
23707W        W90138   2.283  32.888  11.648
23708W        W90139  39.832  22.767  12.141
23709W        W90140   0.322  11.786   0.625
23710W        W90141  31.960   6.363   4.231
23711W        W90142  38.434  13.597  10.397
23712W        W90143  27.755  44.749  12.981
23713W        W90144   5.304   3.325   4.059
23714W        W90145   2.525   0.888   0.409
23715W        W90146  11.578  21.082   1.943
23716W        W90147   4.865  29.880   4.572
23717W        W90148  33.068  14.601   1.195
23718W        W90149  26.819  23.057  12.951
23719W        W90150   0.042  14.486   1.828
23720W        W90151   0.313  28.304  11.542
23721W        W90152   8.134  13.279  12.397
23722W        W90153   7.257  24.792  13.042
23723W        W90154  29.170  19.205  14.851
23724W        W90155  15.074  22.142   3.191
23725W        W90156   4.459   9.182  11.466
23726W        W90157  33.132   3.967  12.184
23727W        W90158  20.502  11.163  13.941
23728W        W90159  25.896  41.281  11.589
23729W        W90160  31.088  19.461  12.810
23730W        W90161   6.951   0.547   0.213
23731W        W90162   3.730   6.497  14.455
23732W        W90163  24.661  34.551  13.042
23733W        W90164  21.530   8.120  13.315
23734W        W90165   5.254  18.686   0.695
23735W        W90166  38.042  20.814  11.349
23736W        W90167  26.868  37.535   0.782
23737W        W90168  24.603   0.372  10.734
23738W        W90169  41.907  28.664   4.493
23739W        W90170  10.655   0.315   1.802
23740W        W90171  42.385  33.048   3.653
23741W        W90172   4.252  18.320   3.682
23742W        W90173   7.215   7.147  14.072
23743W        W90174  17.251  15.702  13.607
23744W        W90175  13.395  23.661   3.268
23745W        W90176  23.502  42.914  11.572
23746W        W90177  26.785   7.401  10.578
23747W        W90178   4.205  13.155   4.261
23748W        W90179  26.649  44.310  11.416
23749W        W90180  10.745   6.942   2.299
23750W        W90181  41.454  20.755   1.716
23751W        W90182  44.575  20.168   3.188
23752W        W90183   2.615  25.580   4.313
23753W        W90184  34.491  19.304  11.996
23754W        W90185  41.567  28.025  10.773
23755W        W90186   8.261  42.588  14.984
23756W        W90187   9.194   9.239   0.851
23757W        W90188   4.723   7.930  11.555
23758W        W90189  32.161  22.986  10.707
23759W        W90190  27.063  19.952   1.959
23760W        W90191  25.100  40.148   0.249
23761W        W90192  26.038  22.339   0.863
23762W        W90193  38.519  34.854  11.606
23763W        W90194  34.290  42.312  14.317
23764W        W90195   2.982  17.290   4.566
23765W        W90196  24.340  38.533   3.703
23766W        W90197  42.788  37.929  11.156
23767W        W90198  14.513   2.073   9.696
23768W        W90199  11.803  38.988   2.719
23769W        W90200   1.410   4.672  10.407
23770W        W90201   0.490  44.805   4.058
23771W        W90202   6.314   5.957   4.171
23772W        W90203  11.028   0.330   4.428
23773W        W90204  21.076   1.929   0.946
23774W        W90205  13.837  12.264   0.849
23775W        W90206  22.666  24.652   0.223
23776W        W90207  29.292  25.178   5.112
23777W        W90208  39.975   3.669   2.071
23778W        W90209   0.938  41.376   1.483
23779W        W90210   7.306   2.429  10.463
23780W        W90211   2.424  29.408   0.866
23781W        W90212  13.090   7.029   0.406
23782W        W90213  27.170  19.181   3.457
23783W        W90214  44.883  16.369   1.259
23784W        W90215  20.089  25.581   4.529
23785W        W90216  33.960  37.736  10.977
23786W        W90217  36.707  13.299   1.403
23787W        W90218  18.636   5.445   4.633
23788W        W90219   7.685  13.437  12.110
23789W        W90220  44.303  18.221   1.244
23790W        W90221  21.370  13.259   2.648
23791W        W90222  18.612  40.072   0.410
23792W        W90223  18.064  21.087   2.715
23793W        W90224  25.257  16.627  11.230
23794W        W90225  27.754  17.466  14.059
23795W        W90226  28.688   4.443  14.245
23796W        W90227  39.560   6.046   3.772
23797W        W90228  25.346  14.345  13.417
23798W        W90229   0.351  15.323   1.692
23799W        W90230  37.627  27.422  13.418
23800W        W90231  31.314  28.224   2.163
23801W        W90232  28.969  22.481   1.364
23802W        W90233  17.798  25.017   1.325
23803W        W90234   6.478  31.554  11.500
23804W        W90235  17.293   0.002   2.642
23805W        W90236  42.871  25.688   0.417
23806W        W90237   9.287   9.605  11.102
23807W        W90238   1.780  31.237  10.875
23808W        W90239  22.082  34.062  14.551
23809W        W90240  17.190  15.650  11.209
23810W        W90241   0.135  43.033  13.364
23811W        W90242   6.371   1.903   2.488
23812W        W90243   1.455  27.627   0.836
23813W        W90244   5.903  19.492   2.153
23814W        W90245  12.584  21.866  11.748
23815W        W90246  26.244   8.714   3.591
23816W        W90247  18.823  41.067   3.785
23817W        W90248   1.453  17.632  11.142
23818W        W90249  31.731  37.717  12.466
23819W        W90250  12.322  18.584   1.832
23820W        W90251  38.904  32.160   2.778
23821W        W90252  37.447   7.308   4.664
23822W        W90253  10.940  14.924  12.822
23823W        W90254  32.834  15.213  13.960
23824W        W90255  11.871  34.175   4.460
23825W        W90256   6.748  20.809   3.201
23826W        W90257  11.584  29.999  12.654
23827W        W90258   5.452  42.291   4.293
23828W        W90259  42.429  38.969  13.426
23829W        W90260  24.878  17.116  13.734
23830W        W90261  15.549   1.741  12.881
23831W        W90262  29.656  12.734   1.882
23832W        W90263  30.792   5.331  14.915
23833W        W90264  26.458  41.342  12.481
23834W        W90265  25.621  27.165   3.147
23835W        W90266  38.603  26.635   4.649
23836W        W90267   8.726  12.236   1.349
23837W        W90268  16.204   8.411   2.353
23838W        W90269   7.846  37.375   4.123
23839W        W90270  31.946  35.602  12.299
23840W        W90271  25.942  12.688   2.131
23841W        W90272  36.447  33.397  10.985
23842W        W90273  30.515  43.081  12.398
23843W        W90274  28.936   0.426   3.731
23844W        W90275  27.710  25.410  13.299
23845W        W90276   5.721  21.258  11.191
23846W        W90277  22.289  20.515  11.691
23847W        W90278   9.691  41.235  10.880
23848W        W90279  19.143   7.702  14.330
23849W        W90280   9.438  25.723   0.794
23850W        W90281  41.416  15.516   1.370
23851W        W90282  31.201  19.086   2.896
23852W        W90283  41.906  30.608   0.490
23853W        W90284   2.202  29.089   1.799
23854W        W90285  21.619  26.190   2.777
23855W        W90286  36.129  13.319  13.786
23856W        W90287  31.028  33.130  12.583
23857W        W90288  11.059  28.515   3.365
23858W        W90289   5.122   2.814  14.774
23859W        W90290  15.201  27.267   0.878
23860W        W90291  36.990  35.685   2.879
23861W        W90292   2.747  33.955   0.419
23862W        W90293  32.656  15.326  14.450
23863W        W90294  30.463   1.971   4.123
23864W        W90295   5.644  33.735   9.618
23865W        W90296  32.529  22.610   1.481
23866W        W90297   6.173  35.503  11.146
23867W        W90298  15.832  35.438   2.248
23868W        W90299   2.509  44.675   1.389
23869W        W90300  18.770  24.641  14.036
23870W        W90301   2.862  31.401   1.879
23871W        W90302  13.844  19.191  13.326
23872W        W90303  40.864   7.786   3.102
23873W        W90304  36.478   3.000  10.473
23874W        W90305  19.999  34.299  10.763
23875W        W90306  38.901  32.984   1.194
23876W        W90307  39.323  31.539  13.396
23877W        W90308  10.715  26.554  11.499
23878W        W90309  39.112  32.678   2.169
23879W        W90310  24.211  27.138   0.336
23880W        W90311   5.022  24.756   1.823
23881W        W90312  33.561  28.020   2.853
23882W        W90313  24.601  21.206  13.843
23883W        W90314  26.319  32.342   0.415
23884W        W90315  33.400  12.810  13.144
23885W        W90316  18.332  29.987   0.441
23886W        W90317  24.173  10.413   1.183
23887W        W90318  29.445  38.692  10.489
23888W        W90319  39.962  21.255  12.886
23889W        W90320  15.667   0.029  13.462
23890W        W90321  14.214  31.114   5.055
23891W        W90322  37.115  30.406  13.405
23892W        W90323  21.329  17.681  12.047
23893W        W90324  34.957  12.730   3.626
23894W        W90325  39.400  27.466   2.687
23895W        W90326  13.261  17.336   4.172
23896W        W90327   8.702  36.889   3.987
23897W        W90328  26.622  10.387   2.792
23898W        W90329  41.458  16.775  14.063
23899W        W90330  43.827  34.036   3.671
23900W        W90331  20.666  28.078   3.772
23901W        W90332   8.751  25.489   1.744
23902W        W90333  33.682  36.100   4.456
23903W        W90334   4.025   0.816  12.151
23904W        W90335   6.785  40.920  13.240
23905W        W90336  40.295  18.551  11.673
23906W        W90337  10.835  42.834  10.795
23907W        W90338  10.251  28.190  12.388
23908W        W90339  42.288   0.778   0.350
23909W        W90340  28.509  13.651  13.971
23910W        W90341   2.891  40.946  13.388
23911W        W90342  23.068   9.445   0.217
23912W        W90343  11.646  44.256   4.091
23913W        W90344  31.511  33.907  13.138
23914W        W90345   8.736   2.263  11.509
23915W        W90346  10.297   2.891   3.260
23916W        W90347   8.167  30.895  14.730
23917W        W90348  24.027  31.745   3.595
23918W        W90349  24.736  10.405   2.257
23919W        W90350  44.262  41.119   4.943
23920W        W90351  24.228  28.529  10.323
23921W        W90352  11.242  28.766   1.195
23922W        W90353  34.453  10.915  10.738
23923W        W90354  14.937  27.473  12.507
23924W        W90355   6.393  18.715  13.641
23925W        W90356   4.761  11.286  11.677
23926W        W90357  25.985   7.831  11.113
23927W        W90358   6.941  24.608   3.111
23928W        W90359  27.442   7.189   4.460
23929W        W90360  43.574   1.299  12.044
23930W        W90361  26.456   9.194  11.034
23931W        W90362  17.894  30.425  14.815
23932W        W90363  20.517   2.125   4.253
23933W        W90364  22.157   9.359  13.905
23934W        W90365   1.112   6.618   1.386
23935W        W90366   1.424  27.059   2.867
23936W        W90367   2.495   6.260  13.507
23937W        W90368   9.592   9.899   1.488
23938W        W90369   9.763   0.338   4.143
23939W        W90370   2.796  35.072  14.611
23940W        W90371  21.698  12.155   3.298
23941W        W90372  13.825   2.065  11.638
23942W        W90373  32.719  10.061   0.819
23943W        W90374  39.584  40.538   4.363
23944W        W90375  32.632  23.744   4.632
23945W        W90376   2.245  41.328  11.241
23946W        W90377  44.810  40.369   4.161
23947W        W90378  41.433   7.937  12.187
23948W        W90379  11.976   9.508   2.116
23949W        W90380  10.279  15.745   3.611
23950W        W90381  35.476  27.385   2.855
23951W        W90382  23.531  30.845  14.204
23952W        W90383  18.406  12.025  14.860
23953W        W90384  41.466  27.182   1.666
23954W        W90385   7.596  12.614  12.906
23955W        W90386  20.257  37.644   2.925
23956W        W90387  27.542   7.914   2.742
23957W        W90388   4.350  22.463  13.831
23958W        W90389  43.474  33.571   2.279
23959W        W90390  15.098  40.161   3.775
23960W        W90391   1.812   0.320  11.464
23961W        W90392  35.350  25.299  12.057
23962W        W90393  32.034  41.926   2.437
23963W        W90394  25.790   8.731   1.647
23964W        W90395  32.476  27.041   3.347
23965W        W90396   0.461  25.078   1.028
23966W        W90397  18.244  34.559  12.018
23967W        W90398  44.323  17.734  12.826
23968W        W90399   2.876   9.754  12.787
23969W        W90400  21.539  14.347   2.360
23970W        W90401  32.544  24.127  13.580
23971W        W90402  21.460  22.615   1.351
23972W        W90403  37.836   9.421   2.708
23973W        W90404  39.047  22.881  13.905
23974W        W90405  13.885  16.773  11.978
23975W        W90406  42.414   7.358  12.537
23976W        W90407   2.808  23.988  11.635
23977W        W90408  14.063   2.631   1.842
23978W        W90409  31.215  17.677   1.338
23979W        W90410   2.050  15.800  10.174
23980W        W90411  42.419  27.304  12.950
23981W        W90412  30.417  26.001   4.554
23982W        W90413  23.923  30.997  11.648
23983W        W90414  14.211   1.734  11.704
23984W        W90415  32.638  34.837   0.242
23985W        W90416  42.711  24.652   1.365
23986W        W90417  21.588  28.245  11.996
23987W        W90418  43.664  19.484  13.722
23988W        W90419   1.043  26.274  10.680
23989W        W90420  19.956  13.308   0.870
23990W        W90421   0.683  30.629   0.209
23991W        W90422  38.164  40.377  14.938
23992W        W90423  44.673  42.347   2.601
23993W        W90424  37.457   7.258  12.382
23994W        W90425  22.952  42.039  11.614
23995W        W90426   2.516  28.680  13.389
23996W        W90427  22.065   3.762  11.137
23997W        W90428   7.096  25.507  13.834
23998W        W90429  23.745  15.665   2.662
23999W        W90430   0.242  26.983  14.939
24000W        W90431  28.939  18.720   0.330
24001W        W90432  13.530   7.375   4.707
24002W        W90433  34.106  14.994   0.563
24003W        W90434  23.633   6.945  14.412
24004W        W90435  26.808  24.646  12.025
24005W        W90436  40.876  38.589  14.571
24006W        W90437  23.737  19.703   4.763
24007W        W90438  21.579  10.716  13.116
24008W        W90439   3.412  20.506   2.717
24009W        W90440  14.552  24.086  14.583
24010W        W90441  37.256  19.749   1.855
24011W        W90442   6.272  20.680   0.553
24012W        W90443  29.829  25.224   2.932
24013W        W90444  32.508  29.101  11.111
24014W        W90445  28.168  17.783   2.746
24015W        W90446  33.055  42.231   1.477
24016W        W90447   2.284   5.341   4.913
24017W        W90448  27.487  24.166  10.869
24018W        W90449  13.777  15.662   1.259
24019W        W90450   1.694  11.555  11.153
24020W        W90451   6.275   7.637  10.634
24021W        W90452  22.738  15.665   2.903
24022W        W90453  28.648   5.437  12.396
24023W        W90454  28.740  33.977  12.033
24024W        W90455  14.082   0.749   0.234
24025W        W90456  29.536   1.772   0.434
24026W        W90457   5.992  40.423   4.077
24027W        W90458  26.940  13.587  12.928
24028W        W90459   4.057  18.956   0.160
24029W        W90460  10.231  23.686   4.349
24030W        W90461   2.050  11.827   0.925
24031W        W90462   8.596  21.200   2.806
24032W        W90463  23.931   6.940   1.001
24033W        W90464  41.845  22.573   2.956
24034W        W90465  19.794  14.098  14.463
24035W        W90466  38.903  28.339   4.840
24036W        W90467  26.536  17.660  10.686
24037W        W90468  20.659  20.276  14.446
24038W        W90469  36.663   4.832   3.871
24039W        W90470  19.386  44.822   3.048
24040W        W90471  21.777   8.532   3.165
24041W        W90472  30.730  16.775   0.392
24042W        W90473  32.845  27.018   2.101
24043W        W90474  12.431   5.275  14.373
24044W        W90475  20.986  23.655  12.413
24045W        W90476  21.631   2.249  14.790
24046W        W90477  35.252  17.488   1.628
24047W        W90478  15.222  40.055   4.734
24048W        W90479  10.665  32.092   0.867
24049W        W90480  22.862  28.748  14.372
24050W        W90481  27.241  17.560  12.387
24051W        W90482  26.679  18.144  10.813
24052W        W90483   2.323  23.029   3.779
24053W        W90484   2.278  21.782   0.503
24054W        W90485   4.185  23.165   0.438
24055W        W90486  17.573   1.492  13.824
24056W        W90487   0.263  16.563   0.279
24057W        W90488  43.241  26.756  13.832
24058W        W90489  43.453  12.517  11.486
24059W        W90490  34.884  37.909  12.814
24060W        W90491  40.089  13.240  12.460
24061W        W90492   5.149  40.435  11.184
24062W        W90493   9.975  14.221   0.947
24063W        W90494  34.156  19.251  12.909
24064W        W90495  18.661  29.401   9.926
24065W        W90496  32.421  42.707   3.709
24066W        W90497  25.092  21.716   3.774
24067W        W90498  41.430   9.570   3.625
24068W        W90499  18.837   4.696   3.588
24069W        W90500  27.207  11.916  12.102
24070W        W90501   2.236  31.848   1.235
24071W        W90502  39.830  20.295   1.273
24072W        W90503  44.462  23.056   1.091
24073W        W90504  43.915  38.016   3.744
24074W        W90505  36.852  27.067   3.826
24075W        W90506  37.536  38.429  13.806
24076W        W90507  28.271  15.472  11.338
24077W        W90508   4.140  17.622  14.834
24078W        W90509  10.309  28.416  12.856
24079W        W90510  10.868   6.713   4.099
24080W        W90511  38.870  42.307   1.885
24081W        W90512  36.398  28.007  14.282
24082W        W90513  29.475  23.955  11.126
24083W        W90514  37.771  13.618   1.960
24084W        W90515  22.470   2.038   4.090
24085W        W90516  19.655   8.557  10.510
24086W        W90517  40.385  38.490   5.343
24087W        W90518  34.145   6.702  12.648
24088W        W90519  21.195  30.642  11.878
24089W        W90520  10.717   2.798  13.727
24090W        W90521  28.205  15.858  14.073
24091W        W90522  32.516  25.509   0.289
24092W        W90523   8.418  27.830  12.204
24093W        W90524   2.262  32.349   1.967
24094W        W90525   9.909   8.894  11.895
24095W        W90526   6.661  12.355  10.392
24096W        W90527  15.263  38.811   0.136
24097W        W90528   1.239  23.774  11.220
24098W        W90529  12.109   5.314   0.866
24099W        W90530  13.043  19.178   4.096
24100W        W90531  12.901  37.576   0.270
24101W        W90532  23.225   1.962  11.922
24102W        W90533  37.899  20.621  12.533
24103W        W90534  22.205  39.962  11.622
24104W        W90535  28.102   8.792  10.580
24105W        W90536  11.349  34.491  10.671
24106W        W90537  17.743  18.604  14.450
24107W        W90538  19.080  32.149  14.715
24108W        W90539  15.533  21.687  10.615
24109W        W90540  14.169   8.464  13.613
24110W        W90541  40.043   9.539   0.147
24111W        W90542  44.542  44.024  14.457
24112W        W90543  39.869  28.118  14.375
24113W        W90544   7.352  43.520  11.261
24114W        W90545   5.444  24.157   4.536
24115W        W90546  39.355  11.375   2.169
24116W        W90547   2.815  21.242  11.707
24117W        W90548   9.285   5.245   4.672
24118W        W90549  38.499  19.972  14.573
24119W        W90550  11.852  34.326  10.781
24120W        W90551  33.086   6.756  13.367
24121W        W90552  43.269  37.659  10.590
24122W        W90553  21.182   4.277   2.342
24123W        W90554  17.849  15.726   1.235
24124W        W90555  38.447  25.362   4.296
24125W        W90556  12.838  34.437   3.144
24126W        W90557  39.003   6.327  11.016
24127W        W90558  18.295   2.202  14.568
24128W        W90559  11.913  18.108   3.631
24129W        W90560  30.526  10.408   4.930
24130W        W90561  29.991  16.131   2.987
24131W        W90562  18.670  26.946  13.769
24132W        W90563   8.494  34.646  13.917
24133W        W90564  27.471  15.025  11.051
24134W        W90565  31.076   9.243   1.272
24135W        W90566  21.428  38.827  12.605
24136W        W90567  41.180   9.622  13.725
24137W        W90568  44.913  33.490   2.318
24138W        W90569  13.838  33.128  13.432
24139W        W90570  14.688  15.621   0.090
24140W        W90571  16.688  26.215   1.647
24141W        W90572   5.469  31.122   3.327
24142W        W90573  37.432  42.260   4.157
24143W        W90574  11.344   3.792   0.701
24144W        W90575  33.590   3.787   2.252
24145W        W90576  25.430  28.685   1.903
24146W        W90577  16.958  17.614  14.859
24147W        W90578  23.188   5.586   2.746
24148W        W90579  26.719  12.607   1.964
24149W        W90580   9.251  42.383   2.147
24150W        W90581  26.706  42.572   3.305
24151W        W90582  36.331  10.771   1.858
24152W        W90583  26.681   5.303   2.334
24153W        W90584   3.782  25.551   4.436
24154W        W90585  12.207  30.993   1.735
24155W        W90586  17.208  33.011  13.085
24156W        W90587  40.875   3.196   2.220
24157W        W90588  13.379   4.247  11.530
24158W        W90589   8.442   5.303  14.738
24159W        W90590  25.703   4.295   0.209
24160W        W90591  31.543  31.041   0.913
24161W        W90592   4.713   4.784   3.669
24162W        W90593  27.519   1.818   0.838
24163W        W90594  35.964   1.530   3.614
24164W        W90595  10.443  30.068   1.967
24165W        W90596  32.093  17.694   4.868
24166W        W90597  23.954  36.461  11.273
24167W        W90598  38.208  18.509  12.642
24168W        W90599  24.541   1.732  13.574
24169W        W90600  36.524  36.643   5.018
24170W        W90601  39.062  19.989   4.664
24171W        W90602  13.903   4.148  14.390
24172W        W90603   7.928  11.032  10.866
24173W        W90604  24.989   2.904   2.782
24174W        W90605  26.545  25.590  10.731
24175W        W90606  14.681  21.843   2.223
24176W        W90607   9.391  36.570   4.284
24177W        W90608  32.661  35.515  13.020
24178W        W90609  35.074  11.251   4.800
24179W        W90610  29.694  36.272  11.049
24180W        W90611  24.251  16.758  11.239
24181W        W90612  35.975  22.348   2.345
24182W        W90613   8.145   5.724   0.386
24183W        W90614  27.141   4.896   3.743
24184W        W90615  24.930  32.525   0.467
24185W        W90616  10.716   0.452  14.281
24186W        W90617  26.276  39.483  11.589
24187W        W90618  18.602  25.527   2.318
24188W        W90619  37.305   7.724  12.012
24189W        W90620  21.018  14.555   4.237
24190W        W90621  24.234   5.859  12.456
24191W        W90622   7.786  13.635  11.643
24192W        W90623  25.638  28.052  13.122
24193W        W90624  28.485  34.326   2.152
24194W        W90625   7.218   9.141  13.886
24195W        W90626  26.661  41.112  14.453
24196W        W90627  14.574   8.908  11.895
24197W        W90628  35.760  26.027   0.964
24198W        W90629  19.740  34.923  14.038
24199W        W90630  12.069   3.973   9.662
24200W        W90631  30.382   6.036  11.939
24201W        W90632   1.810  16.092  12.365
24202W        W90633  12.467  42.242   4.763
24203W        W90634  30.977  20.781   1.754
24204W        W90635  11.256  32.311  12.431
24205W        W90636  24.124  15.052   1.929
24206W        W90637  38.421  37.373  11.832
24207W        W90638  15.719  11.282  13.961
24208W        W90639   6.923  41.372   1.278
24209W        W90640  32.654  19.218   4.353
24210W        W90641  26.084  25.161  14.240
24211W        W90642   7.063  15.681   3.678
24212W        W90643  14.375  10.091   0.631
24213W        W90644  42.833  17.759  12.283
24214W        W90645  13.251   7.404  13.023
24215W        W90646  35.092  11.207   3.668
24216W        W90647   2.920  39.486   1.655
24217W        W90648  44.391  26.158  10.691
24218W        W90649   7.992   7.428   4.202
24219W        W90650   4.281  42.305  12.858
24220W        W90651   9.927  22.049  14.045
24221W        W90652  26.604  15.499   0.292
24222W        W90653   0.360  34.550  14.864
24223W        W90654  32.149  15.319  14.380
24224W        W90655  18.085  38.296  12.564
24225W        W90656  39.517  12.377  11.021
24226W        W90657  24.929  12.185  11.369
24227W        W90658  13.606  39.088  11.725
24228W        W90659  20.930  19.375   5.492
24229W        W90660   4.239  24.515   1.683
24230W        W90661  19.206   7.784   1.447
24231W        W90662  43.438  12.783  11.048
24232W        W90663   3.911  33.018  12.854
24233W        W90664  41.875  44.437  10.917
24234W        W90665   4.808   6.294  13.740
24235W        W90666   0.861   5.036   0.291
24236W        W90667  32.840   4.318  11.875
24237W        W90668  30.941  40.558  13.359
24238W        W90669  30.445  40.381   2.876
24239W        W90670   7.747  14.229   3.358
24240W        W90671  24.280  31.145  12.010
24241W        W90672  24.065   3.956   4.559
24242W        W90673  17.611  13.178   2.807
24243W        W90674  12.639  20.029  13.522
24244W        W90675  33.329  43.987  12.782
24245W        W90676   6.924   6.213   2.942
24246W        W90677  43.051  19.145   4.617
24247W        W90678   5.876   5.884   3.235
24248W        W90679  35.168  44.329   3.280
24249W        W90680  34.407  31.467   3.251
24250W        W90681  37.832  30.981  11.943
24251W        W90682  13.109  37.984  14.999
24252W        W90683  30.158  30.918  13.796
24253W        W90684  37.791  41.493   9.982
24254W        W90685   3.155   5.692   2.900
24255W        W90686   9.749  25.101   3.483
24256W        W90687  23.439  44.253   1.908
24257W        W90688  27.558   4.744  10.428
24258W        W90689  37.558  33.254  13.226
24259W        W90690  12.014  26.962   3.131
24260W        W90691  38.971  38.029  12.394
24261W        W90692  14.763  36.572  12.537
24262W        W90693  19.707  27.842   4.131
24263W        W90694  17.542   0.833  10.966
24264W        W90695   1.977  16.273  14.318
24265W        W90696  42.585  37.100   2.884
24266W        W90697  19.995  21.037   4.120
24267W        W90698  40.937  19.652   1.222
24268W        W90699  20.278  19.694   4.774
24269W        W90700  18.673  30.893  13.500
24270W        W90701  13.427  26.979   0.742
24271W        W90702   7.191  19.128  10.525
24272W        W90703  43.940  29.684  14.854
24273W        W90704   3.275  17.588   4.244
24274W        W90705  27.431   4.916   2.689
24275W        W90706  43.825  12.464  11.141
24276W        W90707   1.317  16.013  12.022
24277W        W90708  10.379  30.035  14.149
24278W        W90709   8.859  26.640   3.752
24279W        W90710  23.552  16.068  11.058
24280W        W90711  20.059   6.275  11.099
24281W        W90712  21.736  44.228   3.912
24282W        W90713  31.162   8.292   0.293
24283W        W90714   7.441  23.750   4.238
24284W        W90715  26.113  34.610   2.417
24285W        W90716  37.746  43.313   5.490
24286W        W90717   5.259  43.507   2.282
24287W        W90718  17.655  43.389   3.230
24288W        W90719  33.867  22.552  14.885
24289W        W90720  16.696   1.221   3.807
24290W        W90721  40.902  21.586  11.222
24291W        W90722  22.049   1.170  11.040
24292W        W90723  31.059   2.697   1.638
24293W        W90724  38.260   5.132   2.387
24294W        W90725  38.929  22.468   0.919
24295W        W90726   4.234  34.187   3.817
24296W        W90727   2.236  40.438  11.405
24297W        W90728  14.103  25.727  12.569
24298W        W90729  37.379  19.684   0.219
24299W        W90730  37.656  36.257  12.844
24300W        W90731  28.329  31.335  11.617
24301W        W90732  30.251  38.042  11.559
24302W        W90733  41.831  34.726  11.425
24303W        W90734  23.436  20.095   2.051
24304W        W90735  16.131  21.847  14.948
24305W        W90736   8.613  21.076  11.104
24306W        W90737  24.944  35.936  10.592
24307W        W90738  27.343  29.407   4.990
24308W        W90739   9.303   2.350  14.678
24309W        W90740   5.862  20.312  14.484
24310W        W90741   2.254  32.129  14.256
24311W        W90742  42.505  39.223   2.281
24312W        W90743  29.283  31.627  12.436
24313W        W90744  38.921  11.994  10.729
24314W        W90745   1.697  13.045  13.550
24315W        W90746   4.355  18.134  14.756
24316W        W90747  12.784   4.960  13.364
24317W        W90748  23.741  34.435  13.444
24318W        W90749   2.151  10.646  14.096
24319W        W90750   0.268  19.169  11.175
24320W        W90751  22.458   5.261  12.664
24321W        W90752  15.542  43.761  13.535
24322W        W90753  19.976  20.730   2.832
24323W        W90754  32.054  29.066  12.974
24324W        W90755  17.545  11.729   4.835
24325W        W90756   7.450  26.603   5.018
24326W        W90757  42.794   8.134  14.312
24327W        W90758   0.438  31.421  11.135
24328W        W90759  34.029  20.365   1.454
24329W        W90760  44.046  23.834  10.259
24330W        W90761  22.098  22.107   1.065
24331W        W90762   7.628  41.422  10.732
24332W        W90763  25.978  35.566  14.289
24333W        W90764  17.852  39.452   4.573
24334W        W90765  18.138   0.496   0.363
24335W        W90766  26.649  10.195   4.068
24336W        W90767  13.724  41.536  12.707
24337W        W90768  10.553  44.710  12.950
24338W        W90769  21.027  19.394  14.361
24339W        W90770  23.177  36.591  10.377
24340W        W90771  24.431  31.945  11.609
24341W        W90772  14.826  12.682   0.793
24342W        W90773   2.353   1.370  13.224
24343W        W90774  24.454  43.314   2.819
24344W        W90775  42.038   4.912  13.780
24345W        W90776  42.828  36.016  10.413
24346W        W90777   7.006   6.612  11.157
24347W        W90778  44.901  24.779   0.352
24348W        W90779  28.302  43.204  11.546
24349W        W90780  21.331  41.052  10.736
24350W        W90781  14.257  11.223  14.979
24351W        W90782  24.221  34.038   4.204
24352W        W90783  16.137  11.652  12.070
24353W        W90784  14.744  22.041  14.959
24354W        W90785  35.915  21.773   4.259
24355W        W90786  40.768  23.587   1.283
24356W        W90787  28.405  39.600   0.429
24357W        W90788  26.704   3.759  11.198
24358W        W90789  40.792  18.109  13.147
24359W        W90790  21.874   7.679   2.830
24360W        W90791  29.938  27.564  12.094
24361W        W90792  38.625  37.888  10.789
24362W        W90793   4.133  32.961  11.623
24363W        W90794   1.966  16.401   3.153
24364W        W90795  25.114  36.418  14.857
24365W        W90796  36.008  35.374  12.328
24366W        W90797  23.777  34.928  14.360
24367W        W90798  29.180  39.955   2.200
24368W        W90799  19.099   6.272  11.650
24369W        W90800  31.296  17.635   0.316
24370W        W90801  30.517  14.111   4.652
24371W        W90802   0.952   9.162   2.737
24372W        W90803  30.475  18.729  12.113
24373W        W90804  30.923  19.282   3.733
24374W        W90805  32.770   2.484  11.282
24375W        W90806  13.114  27.002   1.731
24376W        W90807   4.444  12.103   2.265
24377W        W90808  42.454   6.410   3.830
24378W        W90809  18.262  31.731   0.898
24379W        W90810   4.864  16.109   2.795
24380W        W90811  11.614  25.559  12.183
24381W        W90812   9.940   3.058  13.393
24382W        W90813  17.701  22.437  11.674
24383W        W90814  32.497   2.777  13.930
24384W        W90815  26.731  15.113  11.549
24385W        W90816   4.942  39.505   1.334
24386W        W90817  41.098  39.804   3.305
24387W        W90818  11.771   9.085  14.970
24388W        W90819  27.225  43.021   0.846
24389W        W90820   7.428  31.167   3.232
24390W        W90821   0.363  23.035   4.014
24391W        W90822  11.638  28.801  14.675
24392W        W90823  17.220  22.413   4.436
24393W        W90824  13.857   3.248   2.821
24394W        W90825  25.140  34.398   3.129
24395W        W90826  13.568   4.968  10.320
24396W        W90827  19.549  38.369  13.873
24397W        W90828  36.800  16.237  12.892
24398W        W90829  15.124  25.476  12.506
24399W        W90830  40.869  38.575   5.160
24400W        W90831  27.097   1.416  10.658
24401W        W90832  29.532  23.434  13.966
24402W        W90833  44.059  21.669  11.929
24403W        W90834  30.503  43.721   3.238
24404W        W90835  29.396  26.747   3.793
24405W        W90836  33.640   5.612  12.147
24406W        W90837   2.975  28.097   4.582
24407W        W90838   7.944  18.768  10.742
24408W        W90839   0.501  19.977   1.301
24409W        W90840  23.597  15.525   4.174
24410W        W90841  24.081   3.881  12.103
24411W        W90842  33.032   0.329   2.636
24412W        W90843   3.380   4.238  12.972
24413W        W90844  29.222  35.877  13.024
24414W        W90845  37.498  27.978   4.994
24415W        W90846  16.536   1.123   4.662
24416W        W90847  28.052  16.057  13.372
24417W        W90848  30.439  17.705   4.602
24418W        W90849  34.979   6.511  12.541
24419W        W90850  19.558   9.233   2.755
24420W        W90851   1.563  15.175  11.961
24421W        W90852  28.854  42.284  11.475
24422W        W90853  36.882  27.382   0.670
24423W        W90854  39.933  29.456  14.852
24424W        W90855   3.836   8.722   2.016
24425W        W90856  35.119  30.286  12.572
24426W        W90857  11.186   8.778  14.799
24427W        W90858  27.909  25.260   1.979
24428W        W90859  23.574  43.264   4.127
24429W        W90860  17.461  20.058   4.575
24430W        W90861   7.334  41.592  13.849
24431W        W90862   4.935  22.876   3.319
24432W        W90863  28.543  32.754   2.190
24433W        W90864  10.707  41.458  13.126
24434W        W90865  20.608  41.330   1.590
24435W        W90866  19.170  19.295   1.660
24436W        W90867  22.056  21.828   0.313
24437W        W90868   6.291   6.955   0.861
24438W        W90869  13.293   8.524   4.621
24439W        W90870  37.773   5.466  11.664
24440W        W90871  21.671  24.751  14.578
24441W        W90872  35.769  43.476  11.588
24442W        W90873  12.874  38.547  13.542
24443W        W90874   7.361   9.208   4.740
24444W        W90875  30.234  29.906   0.454
24445W        W90876  10.696  24.197  11.121
24446W        W90877   5.267  25.047  13.228
24447W        W90878   5.602   8.740  14.272
24448W        W90879  42.752  40.659  12.347
24449W        W90880  40.928  14.603  11.219
24450W        W90881  42.641  34.090   2.814
24451W        W90882  11.424  44.896  14.337
24452W        W90883  37.935  18.544  10.684
24453W        W90884   8.350  27.444   1.664
24454W        W90885  34.846  14.122   4.061
24455W        W90886  17.598   2.779   3.166
24456W        W90887  44.591  35.566   3.362
24457W        W90888   7.646  19.758   2.276
24458W        W90889  33.956  14.207   2.918
24459W        W90890   6.091  22.854  13.074
24460W        W90891   2.366  42.737   0.415
24461W        W90892  40.172   1.780   1.763
24462W        W90893   9.880  29.057   2.732
24463W        W90894   1.719  12.906   1.581
24464W        W90895  44.298  39.874   3.649
24465W        W90896  35.325   1.905   0.930
24466W        W90897  30.087  43.871   3.682
24467W        W90898   4.899   1.303   4.805
24468W        W90899  27.120  17.666  10.403
24469W        W90900   4.779  25.716   1.422
24470W        W90901   6.924  34.452  14.003
24471W        W90902  38.427  38.027  13.466
24472W        W90903   7.316   9.111   2.894
24473W        W90904  18.635  17.109   3.182
24474W        W90905  30.903  31.272  13.447
24475W        W90906  23.501   5.737   0.613
24476W        W90907  22.217  39.071  14.787
24477W        W90908  26.498   3.622  10.375
24478W        W90909  22.724   7.670  12.436
24479W        W90910   9.048   2.561   2.379
24480W        W90911  23.787  35.156  11.447
24481W        W90912  27.430  23.781   0.745
24482W        W90913  29.322  11.332   3.363
24483W        W90914  32.498   3.760   1.357
24484W        W90915  28.638  25.971   4.178
24485W        W90916  27.668  21.028   3.558
24486W        W90917  12.376   6.855   1.010
24487W        W90918   3.021  27.643  12.036
24488W        W90919   8.172  12.670   4.197
24489W        W90920   5.265   4.846  13.535
24490W        W90921  20.996   5.941   1.679
24491W        W90922  36.973  14.251   2.801
24492W        W90923   6.702  27.480   0.795
24493W        W90924  16.766  12.532  10.652
24494W        W90925   8.211   7.843  14.378
24495W        W90926  24.234  42.987   1.963
24496W        W90927   7.353  10.380  13.914
24497W        W90928  43.572  34.324   1.954
24498W        W90929  18.626  35.989  10.274
24499W        W90930  18.823  20.810   3.525
24500W        W90931  36.103  12.730   3.540
24501W        W90932   1.548  10.797   1.798
24502W        W90933  30.158  22.528  12.508
24503W        W90934  39.610   9.393   3.641
24504W        W90935   7.951  19.920   2.669
24505W        W90936  43.760  30.613   2.404
24506W        W90937  38.431  37.870  12.000
24507W        W90938  42.059  23.170  11.395
24508W        W90939  26.695  12.694  10.526
24509W        W90940  25.075  20.592   0.875
24510W        W90941  28.149  37.965  14.799
24511W        W90942  34.439  27.136   4.210
24512W        W90943  18.128   0.489   2.172
24513W        W90944  23.156  34.611  14.813
24514W        W90945   9.539   6.448  10.712
24515W        W90946  39.520  16.094  14.418
24516W        W90947   7.125  36.089   1.230
24517W        W90948  36.335  39.045   1.954
24518W        W90949  11.255   1.243  14.360
24519W        W90950  27.627  19.269  13.340
24520W        W90951  22.285  20.202   4.112
24521W        W90952  10.678  18.979  11.285
24522W        W90953  14.232  29.178  14.503
24523W        W90954  32.057  34.846   4.779
24524W        W90955  39.542  41.012  10.754
24525W        W90956  16.064   5.271   4.609
24526W        W90957  18.040  44.789  13.206
24527W        W90958  30.044   4.232   4.095
24528W        W90959   7.730   3.966  12.497
24529W        W90960  19.701  33.134  10.585
24530W        W90961  12.351   9.162  14.533
24531W        W90962  31.691  30.547  11.223
24532W        W90963   6.134  44.285   2.817
24533W        W90964   5.938  23.619  14.228
24534W        W90965  38.269  34.043   3.124
24535W        W90966  42.002  33.887   1.221
24536W        W90967  37.116   5.197   3.743
24537W        W90968  22.861  12.303   3.397
24538W        W90969   1.696  40.273   0.933
24539W        W90970  13.701   2.459   1.292
24540W        W90971   6.840  30.086   2.691
24541W        W90972  32.676  39.620   2.709
24542W        W90973   5.005  37.352   3.732
24543W        W90974  37.963  42.464  12.618
24544W        W90975  39.803  23.804  12.581
24545W        W90976   7.106  28.748   3.084
24546W        W90977  29.112  15.222  11.324
24547W        W90978  32.872  15.716   2.704
24548W        W90979  15.815  27.412  11.144
24549W        W90980  31.554  19.074  10.671
24550W        W90981  37.066  44.416   0.934
24551W        W90982  23.982  22.511  14.188
24552W        W90983  33.865  28.722   4.496
24553W        W90984   1.879  21.697  14.269
24554W        W90985  40.997  17.140   2.832
24555W        W90986  29.639  36.647   2.343
24556W        W90987   8.229   0.731  14.823
24557W        W90988   5.277  38.514  13.042
24558W        W90989  41.817   9.422  11.151
24559W        W90990  35.990  14.704  12.959
24560W        W90991  27.168  40.766   4.033
24561W        W90992  24.002  42.788   3.420
24562W        W90993  44.875  38.233   1.659
24563W        W90994  23.050   3.962  12.073
24564W        W90995  15.182  20.556  14.923
24565W        W90996  35.856  14.590  10.693
24566W        W90997   1.841  30.884  11.257
24567W        W90998   4.270  24.052  13.121
24568W        W90999  26.267  19.326  11.630
24569W        W91000   9.843  15.719   1.393
24570W        W91001  32.471  28.664   0.025
24571W        W91002   1.915   2.915  10.724
24572W        W91003  34.412  21.912   4.503
24573W        W91004  26.836  18.643   2.718
24574W        W91005  35.075  33.892   1.732
24575W        W91006  44.431  26.242  12.995
24576W        W91007   8.667  31.081  10.572
24577W        W91008  34.154  24.724  12.936
24578W        W91009  37.470  33.115   9.781
24579W        W91010   1.984  39.498  14.045
24580W        W91011  37.408  17.610   4.788
24581W        W91012   3.060  11.715   4.260
24582W        W91013  39.943  39.852  12.528
24583W        W91014  42.258  32.934  11.077
24584W        W91015  12.618   5.321   4.154
24585W        W91016   1.176  29.041   4.260
24586W        W91017  23.335  36.332  14.728
24587W        W91018  35.415  35.541   4.594
24588W        W91019  28.906  32.167  11.637
24589W        W91020  43.551   8.163   2.444
24590W        W91021  28.702   3.417  11.960
24591W        W91022   8.561  13.029   2.455
24592W        W91023  30.023  34.290  12.589
24593W        W91024  13.281  36.655  11.591
24594W        W91025  11.801  31.519  14.009
24595W        W91026   5.377   6.403   0.454
24596W        W91027   4.925  44.026   0.069
24597W        W91028  24.002   8.374   3.388
24598W        W91029  27.583  15.229   3.352
24599W        W91030   5.749  19.812   2.561
24600W        W91031   4.428  28.710  10.647
24601W        W91032  31.434  13.295   2.432
24602W        W91033   0.301  28.146   0.780
24603W        W91034  28.505  11.293  14.760
24604W        W91035   3.798  30.183  13.559
24605W        W91036  34.833  29.974   2.968
24606W        W91037  16.070  43.516  11.620
24607W        W91038  15.336  42.905  14.019
24608W        W91039  14.626  15.853   4.265
24609W        W91040  24.833   2.950  13.568
24610W        W91041   1.266  33.773   3.546
24611W        W91042  30.517  40.085   0.248
24612W        W91043  10.001  19.166  11.963
24613W        W91044   7.781  35.008   4.640
24614W        W91045  29.404  22.249   4.342
24615W        W91046  27.964  24.077   3.326
24616W        W91047  27.416  24.594   0.514
24617W        W91048  16.696  37.384  12.664
24618W        W91049  21.165  20.169  14.308
24619W        W91050   1.874  43.596  13.786
24620W        W91051  14.395  40.561   2.270
24621W        W91052  33.543  19.955   2.114
24622W        W91053  10.117  17.164  14.350
24623W        W91054  26.478   7.658  11.105
24624W        W91055   4.835   7.926   3.097
24625W        W91056   7.312   1.451  14.994
24626W        W91057   0.875  38.045   4.522
24627W        W91058   5.834  41.472   3.172
24628W        W91059  33.688  13.735  12.150
24629W        W91060   5.463  19.726   3.803
24630W        W91061  20.234  11.694   2.798
24631W        W91062  41.417  44.280  10.742
24632W        W91063  42.997  23.557  14.493
24633W        W91064  36.113   4.531  12.743
24634W        W91065   9.616  36.909   3.137
24635W        W91066  21.625  17.061   0.042
24636W        W91067  20.113  18.664  11.090
24637W        W91068   5.294  15.714  13.879
24638W        W91069  23.504  37.023   2.374
24639W        W91070  14.872   1.384   4.042
24640W        W91071  14.279  33.876  14.894
24641W        W91072  42.295  13.548   3.883
24642W        W91073   6.410  37.653  14.825
24643W        W91074   9.459  23.214  12.817
24644W        W91075  24.224  35.501   4.511
24645W        W91076  28.238   4.426   1.029
24646W        W91077  42.411  35.168  14.238
24647W        W91078  32.079  20.519   2.838
24648W        W91079  37.643  26.146  13.036
24649W        W91080   7.504  44.334   2.242
24650W        W91081  27.339  22.658  11.576
24651W        W91082  11.838  18.218   1.284
24652W        W91083   7.598  39.210   4.822
24653W        W91084  31.349  35.396   3.327
24654W        W91085  21.003  18.882  14.228
24655W        W91086   5.716  44.824   4.302
24656W        W91087  39.911  11.863   3.264
24657W        W91088  33.518  44.324   3.694
24658W        W91089   0.615  35.511  11.752
24659W        W91090   2.905  23.195   2.217
24660W        W91091   8.458  21.206  10.144
24661W        W91092  33.699  42.968  14.022
24662W        W91093   6.520  14.660  11.579
24663W        W91094   8.749   9.810  12.051
24664W        W91095  17.006   9.507   3.913
24665W        W91096   0.467  42.381   2.208
24666W        W91097  31.370  17.002  12.452
24667W        W91098   0.963   1.739  14.811
24668W        W91099  30.206  18.276  12.177
24669W        W91100  23.392  12.390  11.127
24670W        W91101  24.619  18.566   0.817
24671W        W91102  39.768  19.056   4.098
24672W        W91103  10.691  24.210  14.218
24673W        W91104   0.853  37.994  11.844
24674W        W91105   9.207  25.960  11.173
24675W        W91106  14.867  32.600   1.476
24676W        W91107   8.874  36.302   2.725
24677W        W91108  31.616  39.634   1.755
24678W        W91109  21.540  32.248  13.586
24679W        W91110  44.728  16.683   0.315
24680W        W91111  13.840   4.539  12.212
24681W        W91112   2.059  28.831  12.584
24682W        W91113   0.879  26.371  13.424
24683W        W91114  25.005  32.306   4.649
24684W        W91115  17.704  42.890  11.773
24685W        W91116  19.303  38.288   1.813
24686W        W91117  18.764  41.400  12.606
24687W        W91118   0.249   5.604   0.419
24688W        W91119  43.860  32.891   4.825
24689W        W91120  36.498  16.584   0.809
24690W        W91121  38.215  37.213   3.113
24691W        W91122  28.138  14.447  13.824
24692W        W91123  12.292  20.873  14.459
24693W        W91124  11.955  40.276   4.596
24694W        W91125  18.900  38.287  11.471
24695W        W91126  38.332  42.100  10.714
24696W        W91127  16.663  28.479  12.451
24697W        W91128  34.258  29.540   3.194
24698W        W91129  30.949   6.948  10.686
24699W        W91130  14.642  22.873   1.231
24700W        W91131  19.252  22.816   3.258
24701W        W91132  21.801  31.091   0.345
24702W        W91133   3.572   9.306  11.602
24703W        W91134  34.090  21.529  11.707
24704W        W91135  27.749  35.501   3.683
24705W        W91136   0.837   6.170   4.583
24706W        W91137  32.559   3.689  12.922
24707W        W91138  17.184  40.112   2.183
24708W        W91139   3.738  28.641  14.285
24709W        W91140  10.396  31.199  11.476
24710W        W91141  11.100  17.061   2.217
24711W        W91142  29.562  19.767   0.472
24712W        W91143  14.176  44.918  13.988
24713W        W91144  23.131  43.452   3.198
24714W        W91145   2.946   4.957  14.761
24715W        W91146  25.682   5.991   3.121
24716W        W91147  21.563  10.235   1.848
24717W        W91148  12.325  30.981   5.027
24718W        W91149  26.234  40.884  12.671
24719W        W91150  43.795   6.176  12.434
24720W        W91151  13.412  38.250   2.263
24721W        W91152  25.036  12.646  12.874
24722W        W91153  32.188  16.173  14.993
24723W        W91154  15.752  32.364   2.983
24724W        W91155  40.539  32.141  11.207
24725W        W91156  28.652  39.781   2.132
24726W        W91157  15.600   3.684   1.425
24727W        W91158  28.844   1.986  13.532
24728W        W91159  14.054  15.233  14.476
24729W        W91160  20.653  35.096   0.072
24730W        W91161  14.783  14.644  14.527
24731W        W91162  38.938  28.845   1.864
24732W        W91163  22.986  43.543   0.215
24733W        W91164  14.159  34.059  11.579
24734W        W91165   7.099  35.348  11.112
24735W        W91166  24.042  43.040  12.593
24736W        W91167   5.696   6.841  11.054
24737W        W91168  38.823  11.186  10.853
24738W        W91169  43.371   2.171   4.079
24739W        W91170   4.552  14.597   4.687
24740W        W91171   0.415  25.820  11.749
24741W        W91172  41.936  30.170   0.974
24742W        W91173  42.985   2.354   1.701
24743W        W91174  22.618  26.943  14.840
24744W        W91175  35.505  43.274  12.004
24745W        W91176  32.719  30.092   1.348
24746W        W91177  18.359   4.533   2.824
24747W        W91178  13.618  32.670  13.347
24748W        W91179   1.496   5.462  11.490
24749W        W91180  15.111  19.566  11.220
24750W        W91181   6.285  19.621   0.736
24751W        W91182  33.523  20.462  13.094
24752W        W91183  42.297   1.976  12.095
24753W        W91184  40.357  27.625   1.428
24754W        W91185  36.343  39.095   3.677
24755W        W91186  26.828   6.479   3.746
24756W        W91187   9.400  27.547   0.451
24757W        W91188   6.145   4.345  11.213
24758W        W91189  20.716  10.849   0.155
24759W        W91190   7.431  14.732   4.210
24760W        W91191  42.067  16.082  13.521
24761W        W91192  12.093  35.105  10.613
24762W        W91193  17.847   9.371   3.704
24763W        W91194  11.860  35.764   1.890
24764W        W91195  14.061  34.433   0.301
24765W        W91196  20.289   6.834   3.295
24766W        W91197  40.391  42.388  11.573
24767W        W91198  16.836  25.194   3.708
24768W        W91199   0.502   5.200  11.603
24769W        W91200  21.784  39.899   2.260
24770W        W91201  18.633   1.715   4.081
24771W        W91202  20.380  11.703  10.660
24772W        W91203  15.791  24.514  13.052
24773W        W91204  21.451  20.354  12.542
24774W        W91205  35.462  24.786  11.993
24775W        W91206   2.418  25.168   1.819
24776W        W91207  25.525  18.970   1.206
24777W        W91208  42.308  35.810   3.364
24778W        W91209  28.298  36.125  11.253
24779W        W91210  27.484  30.453   2.121
24780W        W91211  29.243  24.154   0.334
24781W        W91212  42.471   3.521  13.979
24782W        W91213  43.906  11.541   1.995
24783W        W91214   3.105  30.538   0.251
24784W        W91215   7.692  33.978  13.944
24785W        W91216  15.107  42.633  14.423
24786W        W91217   9.184  11.297  13.541
24787W        W91218  44.484  39.261   4.775
24788W        W91219  35.486   3.707   3.341
24789W        W91220   5.948  22.752   2.343
24790W        W91221  37.485  15.778  11.034
24791W        W91222  33.982  10.902   0.785
24792W        W91223  42.366  14.718   2.190
24793W        W91224  37.911  25.758  12.140
24794W        W91225   1.350   3.584   3.298
24795W        W91226  22.543  15.661   2.433
24796W        W91227   1.381  36.488  13.981
24797W        W91228  14.769  19.018   2.720
24798W        W91229   3.321  34.932   1.416
24799W        W91230  44.366  21.675  14.091
24800W        W91231  14.428  27.030   2.193
24801W        W91232   3.139  39.372  12.131
24802W        W91233  16.006   1.287  11.419
24803W        W91234  41.518  19.039   4.405
24804W        W91235  38.863  23.435   9.913
24805W        W91236  40.900  37.302   2.807
24806W        W91237  38.573  33.037  13.729
24807W        W91238   4.661   3.020   3.247
24808W        W91239  23.645  12.317  10.694
24809W        W91240  44.324  39.350   3.738
24810W        W91241  32.045  10.407  10.717
24811W        W91242  12.424  13.116   2.218
24812W        W91243  41.919   2.682   3.927
24813W        W91244  15.304  18.805  12.944
24814W        W91245  26.419  16.281   1.946
24815W        W91246   1.718  38.394   0.933
24816W        W91247  33.847   2.825   1.405
24817W        W91248  41.259  13.850  14.486
24818W        W91249  12.932  42.499   4.589
24819W        W91250  18.877  39.930   9.878
24820W        W91251   9.360  31.644  13.617
24821W        W91252  42.413  36.789   1.898
24822W        W91253  24.495  26.680   0.674
24823W        W91254  35.365  15.264  12.426
24824W        W91255  18.186  18.573   4.975
24825W        W91256   6.934  34.543  13.036
24826W        W91257   8.598  10.242   0.240
24827W        W91258  10.018   7.217   2.373
24828W        W91259  23.172   0.769   1.732
24829W        W91260  42.463  29.653  12.555
24830W        W91261  38.428  21.530   1.867
24831W        W91262  19.403  24.498   1.278
24832W        W91263  13.058   8.446  10.623
24833W        W91264   3.487   4.496   1.195
24834W        W91265  10.772  42.206  14.973
24835W        W91266  25.195  44.432   0.686
24836W        W91267   1.378  28.232  12.090
24837W        W91268  38.248  39.732  11.506
24838W        W91269  21.177  28.889   4.137
24839W        W91270  38.978  29.817  14.619
24840W        W91271  25.168  10.854  12.377
24841W        W91272  18.284  41.431  12.407
24842W        W91273   3.332  41.613  11.415
24843W        W91274  33.043  43.264  12.160
24844W        W91275  24.015  25.703   1.146
24845W        W91276  43.946  34.632  13.056
24846W        W91277  26.675  20.173  13.878
24847W        W91278  35.961   7.459  12.026
24848W        W91279   8.134  33.544   4.067
24849W        W91280   0.760  30.175  14.972
24850W        W91281   0.753  23.910   3.711
24851W        W91282  30.853  28.467   0.477
24852W        W91283   8.629  36.428  14.109
24853W        W91284  38.097  16.261   4.677
24854W        W91285  35.042  25.248   1.384
24855W        W91286  33.518   7.721  12.030
24856W        W91287  12.506  22.204   4.467
24857W        W91288   5.770  30.344  11.558
24858W        W91289  17.633  33.155   2.479
24859W        W91290   0.950  38.946   4.531
24860W        W91291  38.563  43.505  12.025
24861W        W91292  28.398  14.454  14.429
24862W        W91293  22.948  44.973   4.384
24863W        W91294   1.766  11.810  14.844
24864W        W91295   9.436   8.690  11.765
24865W        W91296  40.888  17.616  13.954
24866W        W91297   1.258   0.432   4.806
24867W        W91298  24.737  21.302   3.435
24868W        W91299  14.134  41.355   2.729
24869W        W91300  36.589  18.644  12.209
24870W        W91301  20.596  17.003   2.949
24871W        W91302   3.904   0.398  12.982
24872W        W91303  37.446  10.651   1.339
24873W        W91304  42.888  39.479  14.934
24874W        W91305  23.915  44.442   2.098
24875W        W91306  42.023  22.339  14.381
24876W        W91307  39.789  22.109   3.277
24877W        W91308  31.024  11.481   4.161
24878W        W91309  31.377  37.769  11.183
24879W        W91310   3.507   2.371  11.185
24880W        W91311  42.753   3.772   1.224
24881W        W91312  16.114  12.634  13.770
24882W        W91313  31.556   5.542  10.262
24883W        W91314  34.017  17.428  14.945
24884W        W91315  25.096  11.522  11.092
24885W        W91316  13.874  42.485   1.941
24886W        W91317  24.297  33.214   4.727
24887W        W91318  27.232  28.891   2.532
24888W        W91319  37.037  43.917   4.495
24889W        W91320  16.326  39.495  14.833
24890W        W91321  24.057  41.828  10.888
24891W        W91322  30.802  36.800  14.916
24892W        W91323   2.838  24.312  12.056
24893W        W91324  22.056  36.334  10.091
24894W        W91325  24.218  32.932   5.141
24895W        W91326  34.520   8.466  12.163
24896W        W91327  11.674  28.180  12.403
24897W        W91328  21.482  27.556   3.999
24898W        W91329  19.088  21.004   2.584
24899W        W91330  19.111  13.803   3.605
24900W        W91331  43.955  10.753  13.445
24901W        W91332  27.220   1.878   1.794
24902W        W91333   9.644  44.887   2.346
24903W        W91334  13.253  29.373  11.478
24904W        W91335  43.019  35.981   3.642
24905W        W91336  24.025  12.534  13.140
24906W        W91337  17.275  31.549  14.278
24907W        W91338  24.799  35.470  14.804
24908W        W91339   9.722  18.084  10.474
24909W        W91340  31.136  39.424   1.904
24910W        W91341   1.231  22.629   3.213
24911W        W91342  36.777  40.892  11.628
24912W        W91343  43.756   6.548  12.025
24913W        W91344   8.440  31.058   1.764
24914W        W91345  40.852  36.423  13.607
24915W        W91346  22.261  35.817   1.116
24916W        W91347  43.376   7.471  10.682
24917W        W91348   3.653  38.040  12.076
24918W        W91349  10.613  29.110  13.917
24919W        W91350  40.370  38.294  13.886
24920W        W91351  11.767  16.044  11.218
24921W        W91352  36.064  22.938  14.030
24922W        W91353  15.713   7.893   4.943
24923W        W91354  34.510  41.530   0.732
24924W        W91355  21.525   5.294  12.708
24925W        W91356  13.218   6.210  14.308
24926W        W91357  29.884  24.251   2.793
24927W        W91358  34.152  39.878  12.249
24928W        W91359  29.521  11.306   0.773
24929W        W91360  16.001  11.188  14.395
24930W        W91361  44.378  18.740  11.445
24931W        W91362  21.293   9.687   3.076
24932W        W91363  27.483  40.361   0.668
24933W        W91364  20.090  11.919   2.320
24934W        W91365  31.510  15.613   2.688
24935W        W91366  35.402  32.856   4.057
24936W        W91367  12.151  33.228  13.564
24937W        W91368  39.521  24.212  12.508
24938W        W91369  30.111  31.605   1.654
24939W        W91370  33.196  33.019   0.805
24940W        W91371  13.104  37.927  13.177
24941W        W91372   3.384  30.624   0.679
24942W        W91373  33.046  30.159  14.876
24943W        W91374  22.596  43.092   1.377
24944W        W91375  40.484  35.064  10.810
24945W        W91376  20.645  35.076   0.583
24946W        W91377   0.479  38.990   4.894
24947W        W91378  21.092  25.007   9.825
24948W        W91379  21.688   2.464   4.271
24949W        W91380  12.311  14.131   1.724
24950W        W91381   9.942  20.100   0.760
24951W        W91382  36.391  29.797  10.190
24952W        W91383  18.687   5.379  14.524
24953W        W91384   2.012  39.423  11.178
24954W        W91385   3.932  36.276   2.311
24955W        W91386  42.995  11.074   4.368
24956W        W91387  29.205   6.903  14.783
24957W        W91388   4.352  26.952   1.042
24958W        W91389  34.360   8.222  14.076
24959W        W91390  23.551   7.679   3.224
24960W        W91391  14.534   8.902   0.287
24961W        W91392   9.890  31.301   3.243
24962W        W91393   0.367  31.658  13.781
24963W        W91394  32.567   4.303  13.331
24964W        W91395  30.471  11.387  10.631
24965W        W91396  28.411   7.658  12.016
24966W        W91397  41.753   1.080  11.188
24967W        W91398  44.386  21.197  12.694
24968W        W91399   1.762  38.828   0.162
24969W        W91400  32.028   2.217  12.535
24970W        W91401  41.224  20.525   3.616
24971W        W91402  42.750   3.529  12.692
24972W        W91403  23.240  33.538   1.864
24973W        W91404  32.693   3.523  11.561
24974W        W91405  23.225  27.173  13.393
24975W        W91406   6.405  42.224  11.005
24976W        W91407   9.222  11.615  12.331
24977W        W91408  25.269  33.918   4.401
24978W        W91409   2.591  36.399  14.012
24979W        W91410   9.395  37.436   4.149
24980W        W91411  14.192  28.939   4.118
24981W        W91412  42.415   8.143   3.409
24982W        W91413   4.850   9.310   0.320
24983W        W91414  15.561  44.399   2.299
24984W        W91415  11.326  27.575  14.010
24985W        W91416  35.779  39.978   4.996
24986W        W91417   0.384  13.439   3.272
24987W        W91418  35.926  39.941   3.762
24988W        W91419  13.701  36.200   4.707
24989W        W91420  34.158  15.693   4.511
24990W        W91421  41.284   2.437   1.030
24991W        W91422   1.524  10.183   1.311
24992W        W91423  14.329  24.841  12.068
24993W        W91424  22.257  31.725   2.153
24994W        W91425  26.420   8.492   2.293
24995W        W91426  41.377   8.675   3.327
24996W        W91427  43.119  44.231   3.797
24997W        W91428  28.089  11.536   2.411
24998W        W91429  34.155  13.200   0.734
24999W        W91430   5.850   6.655   2.202
25000W        W91431  43.503  25.668   2.432
25001W        W91432  37.251  44.788  13.150
25002W        W91433  35.248  19.066   0.979
25003W        W91434  22.649  40.637   3.653
25004W        W91435   3.413  19.419   1.353
25005W        W91436  11.624  34.916  10.695
25006W        W91437  25.668  28.548   4.349
25007W        W91438  16.459   4.867   1.217
25008W        W91439  36.920  20.690  13.753
25009W        W91440  25.217  36.315   4.535
25010W        W91441  27.058  17.020   1.451
25011W        W91442  25.741  44.841   1.396
25012W        W91443  37.498  40.852  11.194
25013W        W91444  24.781  33.246   3.291
25014W        W91445   7.048   3.968  13.441
25015W        W91446  20.937  25.677   3.861
25016W        W91447  30.434  10.797  13.270
25017W        W91448  30.570   9.608   4.187
25018W        W91449   2.193  23.886  10.940
25019W        W91450  31.931   0.562   0.248
25020W        W91451  10.320  32.668   4.856
25021W        W91452  37.542  23.642   2.428
25022W        W91453  38.282  28.722   4.096
25023W        W91454   0.733   7.211   1.023
25024W        W91455  16.532  37.562  12.187
25025W        W91456  41.481   7.897   4.689
25026W        W91457  16.158  42.004   2.921
25027W        W91458  12.704  12.102  13.002
25028W        W91459   7.108  13.810  14.688
25029W        W91460  13.708   3.160  13.403
25030W        W91461  36.856  17.137   2.330
25031W        W91462  17.864   4.882  14.111
25032W        W91463  17.353   1.765   1.688
25033W        W91464  20.210   0.942   4.826
25034W        W91465  34.221  35.996  14.776
25035W        W91466   5.248  28.415   3.968
25036W        W91467  13.280   3.068  13.694
25037W        W91468   1.389   8.366  11.289
25038W        W91469  28.290   7.504  10.824
25039W        W91470  23.012  10.687  14.068
25040W        W91471   5.306  27.543  10.718
25041W        W91472  10.192  17.718   4.614
25042W        W91473  17.720   7.364   1.975
25043W        W91474   6.261  14.790   2.768
25044W        W91475  30.047   9.446  10.176
25045W        W91476   6.215  24.616   4.559
25046W        W91477  19.006  30.393   4.504
25047W        W91478  14.801  22.381   4.507
25048W        W91479   6.732  44.482  12.324
25049W        W91480  27.310  32.134  13.030
25050W        W91481  24.501  21.656  11.908
25051W        W91482  35.563  16.828  11.166
25052W        W91483  15.654  15.183  13.473
25053W        W91484  22.668   9.956  10.849
25054W        W91485  26.014  22.001   0.483
25055W        W91486  18.878  21.997   1.465
25056W        W91487  12.205  39.311   1.101
25057W        W91488  34.355   0.402  11.563
25058W        W91489  14.117  18.537   3.240
25059W        W91490   3.478  25.011   2.825
25060W        W91491   0.326   7.024  13.676
25061W        W91492  21.937  17.646   2.211
25062W        W91493  14.330  32.756   0.922
25063W        W91494  27.302  11.960   1.343
25064W        W91495  21.180  13.124  14.043
25065W        W91496   8.241   4.777  12.437
25066W        W91497  34.144  39.549   3.133
25067W        W91498  15.123   7.519  12.021
25068W        W91499  33.735  13.754   1.270
25069W        W91500  35.663  13.188   1.365
25070W        W91501  31.859  39.437  14.248
25071W        W91502  22.666   0.992   0.834
25072W        W91503   6.288  42.782   4.005
25073W        W91504  26.159  21.228   3.340
25074W        W91505  40.956  13.109   4.180
25075W        W91506  15.649  40.991   0.780
25076W        W91507  44.481  14.712   1.315
25077W        W91508  35.517  43.786   1.064
25078W        W91509  40.066  37.997  14.423
25079W        W91510  37.040  15.085   4.819
25080W        W91511  38.558   3.007  11.090
25081W        W91512  42.335   5.856  14.402
25082W        W91513  20.034  15.831  13.320
25083W        W91514  25.680  11.704  12.147
25084W        W91515  16.952  12.278  13.473
25085W        W91516   0.264  39.540  13.317
25086W        W91517  13.060  36.057  11.656
25087W        W91518  21.548  16.939  10.374
25088W        W91519   3.362  43.305   4.653
25089W        W91520   8.905  23.659   3.205
25090W        W91521  43.234   2.052   0.853
25091W        W91522  33.629  37.906  14.784
25092W        W91523  40.762  38.105   3.184
25093W        W91524  13.780   4.879   4.351
25094W        W91525  17.677  13.737   0.817
25095W        W91526   2.542   1.749   2.284
25096W        W91527   9.148   8.216   3.865
25097W        W91528   2.344  10.810  11.126
25098W        W91529  12.310   3.208   0.038
25099W        W91530   2.713  38.811   3.723
25100W        W91531  34.992  14.672   2.985
25101W        W91532  30.153  14.248   3.310
25102W        W91533  32.419  21.258  13.523
25103W        W91534  21.614  36.735  12.037
25104W        W91535  18.267  11.634   3.171
25105W        W91536  17.317  10.742   0.930
25106W        W91537  23.195  11.268   4.265
25107W        W91538  29.423  17.242  12.212
25108W        W91539  15.453   1.772   1.753
25109W        W91540  34.601  28.919  11.630
25110W        W91541  30.181  16.250  12.915
25111W        W91542  32.919  11.330   3.226
25112W        W91543  39.452  25.979  10.943
25113W        W91544   7.101   3.293  10.648
25114W        W91545  43.261  31.235  11.346
25115W        W91546  19.259  10.901  14.030
25116W        W91547  39.855  33.556  14.893
25117W        W91548   5.048  13.520  11.125
25118W        W91549  31.939  19.877  10.733
25119W        W91550  32.089  17.651   2.854
25120W        W91551   8.203  32.076  14.831
25121W        W91552   0.903  19.639   3.440
25122W        W91553  30.445   1.111   2.660
25123W        W91554   0.381   7.384  12.530
25124W        W91555  41.808  34.920  10.961
25125W        W91556  31.574  20.610  10.962
25126W        W91557   8.735  21.648   2.602
25127W        W91558  11.743  31.264  13.149
25128W        W91559  31.080   7.577   0.720
25129W        W91560  16.865  41.144   5.018
25130W        W91561  16.949  21.580   0.326
25131W        W91562  30.759  17.534  12.767
25132W        W91563  32.935  24.659  11.292
25133W        W91564   6.730   9.282  11.477
25134W        W91565  44.354  16.814   0.648
25135W        W91566  37.075  11.892  13.737
25136W        W91567  27.116  39.900   0.472
25137W        W91568  16.276   7.772   1.745
25138W        W91569  15.157   9.657   1.197
25139W        W91570  17.363   1.649   5.064
25140W        W91571  30.786  43.812   3.852
25141W        W91572  14.562   1.805   2.123
25142W        W91573  22.676  24.135   2.168
25143W        W91574  20.681  29.630   2.892
25144W        W91575   4.630  33.950   0.866
25145W        W91576  40.501  34.096  14.309
25146W        W91577   7.342  28.122  10.663
25147W        W91578   3.328  31.631   1.814
25148W        W91579   6.013  14.184   9.616
25149W        W91580  35.335   9.819   1.864
25150W        W91581   6.544   7.095   0.384
25151W        W91582  19.501   3.808  13.501
25152W        W91583  10.684   1.410  11.176
25153W        W91584   3.419  12.830  11.893
25154W        W91585  25.954  10.296  14.835
25155W        W91586  13.348   1.859  11.560
25156W        W91587  33.879  35.863  11.859
25157W        W91588  41.097  30.726  12.872
25158W        W91589  26.478   5.400   4.114
25159W        W91590  32.955  41.330   0.658
25160W        W91591  10.114  27.897   0.895
25161W        W91592   9.660   2.798  13.057
25162W        W91593  44.812  24.330   3.619
25163W        W91594   3.192  10.747  13.932
25164W        W91595  15.329  28.524  14.868
25165W        W91596  14.554  35.736  12.150
25166W        W91597  30.194  27.541  11.642
25167W        W91598  26.236   7.678   4.441
25168W        W91599   2.935  15.824   0.270
25169W        W91600  16.733  19.126  13.991
25170W        W91601  39.500   2.825   2.476
25171W        W91602   2.749   2.542   1.388
25172W        W91603   4.208  14.879  14.122
25173W        W91604   8.369  25.744   3.696
25174W        W91605   5.289  14.957  14.378
25175W        W91606   5.350   7.226   0.681
25176W        W91607  43.105  38.818  13.919
25177W        W91608  16.748  25.102   2.804
25178W        W91609  29.440  27.284  14.266
25179W        W91610  38.070  37.445   1.362
25180W        W91611  11.701  35.416  10.456
25181W        W91612  22.122  29.416   4.588
25182W        W91613   2.712  40.340   2.711
25183W        W91614  43.874  24.072   4.575
25184W        W91615  39.665  31.180   4.004
25185W        W91616  28.053   9.795   1.263
25186W        W91617  38.520  18.135   4.675
25187W        W91618  29.502  15.115  12.469
25188W        W91619   3.349   7.821  11.551
25189W        W91620  23.671  24.208   1.698
25190W        W91621   2.610  23.778  11.204
25191W        W91622  16.803  31.208   0.703
25192W        W91623  24.102  15.670  11.504
25193W        W91624  13.822  26.073   0.511
25194W        W91625   8.253  35.432   0.339
25195W        W91626  15.773  27.958   3.298
25196W        W91627   8.155   8.860   5.034
25197W        W91628  38.788   0.912   1.498
25198W        W91629  44.318   6.913   4.223
25199W        W91630  20.513  15.066  11.582
25200W        W91631  25.154   5.408   2.644
25201W        W91632  20.177  36.129   3.105
25202W        W91633  25.628  13.136   2.299
25203W        W91634   6.350  33.217   0.568
25204W        W91635  23.627  15.937  10.564
25205W        W91636   6.755  23.686   4.588
25206W        W91637  25.846   1.000  13.102
25207W        W91638  41.531  28.590  13.389
25208W        W91639  20.979  19.543   2.708
25209W        W91640  25.718  44.277   2.691
25210W        W91641  21.603  27.778  11.050
25211W        W91642  11.542  28.704  11.138
25212W        W91643   4.556  36.548  14.490
25213W        W91644  22.512  28.374  13.419
25214W        W91645  35.435  26.075   1.375
25215W        W91646   5.896  15.330   0.015
25216W        W91647  17.999  44.253   0.691
25217W        W91648  21.095   9.725  11.910
25218W        W91649  27.749  16.509   2.331
25219W        W91650  23.831  14.895  14.149
25220W        W91651  31.122   6.625   0.562
25221W        W91652  13.107  42.277  11.501
25222W        W91653  32.699   2.824   2.104
25223W        W91654  31.156  43.448   0.315
25224W        W91655   5.225  26.551   0.906
25225W        W91656  15.339   4.260  13.015
25226W        W91657   9.396  19.076  12.389
25227W        W91658  44.321  40.954  11.653
25228W        W91659   0.251  24.862   3.278
25229W        W91660   2.785  21.776   4.224
25230W        W91661  42.859   0.048  14.924
25231W        W91662   6.767  35.971  10.704
25232W        W91663  30.948  44.975  14.388
25233W        W91664  31.103  23.707   4.550
25234W        W91665  33.670   9.232  12.401
25235W        W91666  23.659  13.242   4.835
25236W        W91667  30.534  36.808  14.435
25237W        W91668   3.180  17.172  13.460
25238W        W91669  32.025  29.599   4.056
25239W        W91670  37.329   3.217  12.075
25240W        W91671   2.031  21.983  13.815
25241W        W91672  23.442   8.835  13.356
25242W        W91673  18.572   9.533   3.637
25243W        W91674  22.157  28.966   1.997
25244W        W91675  40.018  36.794   2.857
25245W        W91676   3.103  12.711   1.844
25246W        W91677   6.583  36.909  10.135
25247W        W91678  13.086   3.933  14.782
25248W        W91679  25.614  31.964   0.229
25249W        W91680  40.085  26.493  13.106
25250W        W91681  24.137  13.371   4.625
25251W        W91682  25.582  10.045  12.092
25252W        W91683  24.119   6.656  14.243
25253W        W91684  36.634   9.461  14.981
25254W        W91685  41.902  28.345   4.082
25255W        W91686  26.540   1.466  11.027
25256W        W91687  22.370  20.598  12.517
25257W        W91688  34.919  37.916  12.292
25258W        W91689  28.196  21.134  13.533
25259W        W91690  38.470  42.261   2.327
25260W        W91691  38.128  16.584   0.081
25261W        W91692   4.395  23.230  13.449
25262W        W91693   5.677   2.856   3.308
25263W        W91694   1.774  29.361   2.279
25264W        W91695   5.658   3.333   3.507
25265W        W91696  19.834  32.138   0.419
25266W        W91697  36.926  43.802  10.617
25267W        W91698   7.974  18.803   0.340
25268W        W91699  28.785   1.203   1.056
25269W        W91700  10.733  23.712  12.911
25270W        W91701  17.627  18.326   2.379
25271W        W91702  30.100   2.218  12.158
25272W        W91703  32.930  36.921  12.478
25273W        W91704  15.556  38.843  13.616
25274W        W91705   5.451  29.884   2.351
25275W        W91706  44.895  37.538   0.113
25276W        W91707  11.140   4.608  10.304
25277W        W91708  33.461   7.300  11.142
25278W        W91709  29.028   7.452  13.811
25279W        W91710  26.597  17.289   3.251
25280W        W91711  26.741  26.324  11.506
25281W        W91712   8.335  37.507   1.840
25282W        W91713  14.809  41.476  11.034
25283W        W91714  12.674   0.729   3.750
25284W        W91715  26.979   5.670   2.604
25285W        W91716  44.357  13.399  13.354
25286W        W91717   9.730  12.410  12.106
25287W        W91718   8.647  17.025  13.297
25288W        W91719  12.526  10.406   2.205
25289W        W91720  19.692  22.178  13.403
25290W        W91721   5.415   1.880   3.664
25291W        W91722  17.071   2.868  12.902
25292W        W91723   3.696  22.789  13.932
25293W        W91724  36.499  19.658  12.363
25294W        W91725  24.029   3.440   0.515
25295W        W91726   3.964   0.126   4.175
25296W        W91727   0.195  39.033  14.464
25297W        W91728  37.028  23.448   4.334
25298W        W91729  25.960  19.135  11.237
25299W        W91730  35.202  13.917   1.794
25300W        W91731  25.959  20.582  14.102
25301W        W91732  10.575  40.030   3.198
25302W        W91733  33.584  30.392   1.357
25303W        W91734   9.247   2.987  11.228
25304W        W91735  17.983  44.941   4.792
25305W        W91736  40.530  31.617  11.181
25306W        W91737  34.388  12.361  10.914
25307W        W91738   8.837  15.803   3.813
25308W        W91739   3.365  23.155  10.553
25309W        W91740  35.916  21.976  12.049
25310W        W91741  44.728  19.050  12.033
25311W        W91742  25.503   2.224  12.111
25312W        W91743  27.965  22.566   4.298
25313W        W91744  26.453  37.778  13.830
25314W        W91745  12.694  30.035   3.731
25315W        W91746  23.341   7.503   4.466
25316W        W91747  18.079  27.014  10.972
25317W        W91748   0.536  22.536   2.655
25318W        W91749   6.766   8.356  11.569
25319W        W91750  38.774   5.363   2.335
25320W        W91751  42.151  13.751  12.163
25321W        W91752   4.144  11.043   3.407
25322W        W91753   4.163   3.374   1.449
25323W        W91754  12.143  22.909   0.667
25324W        W91755   2.738   3.075  14.035
25325W        W91756  41.999   6.425   4.079
25326W        W91757  16.199  27.665  14.253
25327W        W91758  16.507  30.345   3.760
25328W        W91759   2.486  25.015   3.673
25329W        W91760  20.588   2.096   1.772
25330W        W91761  20.778  36.335  11.588
25331W        W91762  16.085  23.387  13.478
25332W        W91763  43.048  18.050  11.515
25333W        W91764  14.879  17.624  12.358
25334W        W91765  38.153  11.657   2.711
25335W        W91766   1.290  12.452  11.231
25336W        W91767   1.194   1.393   4.369
25337W        W91768  27.544  29.143   0.754
25338W        W91769  43.143  12.217   0.568
25339W        W91770  20.325   0.699   3.073
25340W        W91771  41.412   3.175  11.068
25341W        W91772   7.901  14.686  10.806
25342W        W91773  27.111   4.654  11.152
25343W        W91774  32.081  29.072  14.173
25344W        W91775   2.879  26.910   0.187
25345W        W91776  30.094  29.449   4.177
25346W        W91777  26.744  38.493  10.764
25347W        W91778  22.021  16.810   4.622
25348W        W91779  13.242  18.025   3.085
25349W        W91780  21.698  20.569  12.116
25350W        W91781  33.518   5.349   3.777
25351W        W91782   9.299  18.211   1.133
25352W        W91783  43.874  22.608   3.685
25353W        W91784  17.047  37.982  13.864
25354W        W91785  28.278  13.137  13.106
25355W        W91786  44.187   1.218   3.372
25356W        W91787  37.621  32.430  14.764
25357W        W91788   2.855  20.261   1.676
25358W        W91789  10.638   5.591  11.005
25359W        W91790   3.931  31.005   3.688
25360W        W91791   8.307  40.293   2.701
25361W        W91792  34.639  23.656   2.151
25362W        W91793   6.862   4.653  14.897
25363W        W91794  29.851   9.727  11.546
25364W        W91795  21.843  41.169   2.073
25365W        W91796   5.692  23.679   4.495
25366W        W91797  29.673  18.592   4.265
25367W        W91798  38.418  15.503  11.211
25368W        W91799  18.211  40.890   4.950
25369W        W91800  25.880  14.315   3.046
25370W        W91801  23.536  37.051   1.023
25371W        W91802  43.504  44.936  13.547
25372W        W91803   7.461  13.049   0.777
25373W        W91804  32.324  35.563   3.747
25374W        W91805  33.614   4.849   3.706
25375W        W91806   9.537  10.298   4.136
25376W        W91807   7.446  26.684   0.701
25377W        W91808  42.245   1.501  14.869
25378W        W91809   0.904  17.198   3.129
25379W        W91810  35.921  21.044  11.627
25380W        W91811  25.194  31.187   3.091
25381W        W91812   0.983   7.961   1.272
25382W        W91813   7.354  29.688   1.556
25383W        W91814  11.792  44.312  11.589
25384W        W91815  15.141  22.180   4.081
25385W        W91816   7.357   5.978  12.157
25386W        W91817  18.285   0.360  14.377
25387W        W91818  21.074  25.287   2.868
25388W        W91819  42.576  16.139  13.468
25389W        W91820  42.690  34.853  10.484
25390W        W91821  35.434  31.241   3.252
25391W        W91822  23.249  15.738   3.794
25392W        W91823  16.578  42.900  14.836
25393W        W91824  28.417   1.704  13.979
25394W        W91825  38.516  30.323   2.276
25395W        W91826   5.558  22.522  13.922
25396W        W91827   4.653  25.646  13.089
25397W        W91828  40.857  38.020   4.562
25398W        W91829  39.851  40.219  11.162
25399W        W91830  30.455  20.639   3.144
25400W        W91831  16.573  13.305   1.862
25401W        W91832   1.511  18.253   4.114
25402W        W91833   9.493  32.003   0.100
25403W        W91834  10.248  28.263   1.222
25404W        W91835   3.255  38.723   9.935
25405W        W91836   0.343  20.017   2.681
25406W        W91837   5.292  42.153   3.186
25407W        W91838  37.070  17.787  13.001
25408W        W91839  41.462  18.075   0.318
25409W        W91840  25.144  17.600   3.366
25410W        W91841  20.024  19.763   4.356
25411W        W91842  10.592   3.934   4.476
25412W        W91843  10.183   2.562  14.753
25413W        W91844  43.301   3.638   4.143
25414W        W91845  43.869  30.380  13.505
25415W        W91846  22.987  39.982  11.158
25416W        W91847  12.166  16.084  13.868
25417W        W91848  18.623  19.044  14.758
25418W        W91849   4.941  17.033   9.938
25419W        W91850  27.062  29.376   3.261
25420W        W91851  31.639  28.724   0.323
25421W        W91852   2.792  24.926  11.598
25422W        W91853  28.670   5.933   0.534
25423W        W91854  26.510  11.747   1.014
25424W        W91855  15.522  42.872  13.539
25425W        W91856  40.373  37.784  14.790
25426W        W91857  25.639   6.001  11.135
25427W        W91858  21.212  27.440   3.208
25428W        W91859  28.954  24.783  13.359
25429W        W91860  35.632   0.728   1.477
25430W        W91861  43.667  26.177   4.162
25431W        W91862  39.623  31.695   3.842
25432W        W91863   3.417  41.112  11.465
25433W        W91864   8.128  12.153   3.365
25434W        W91865  38.860  43.768   1.757
25435W        W91866  21.254  11.769  12.386
25436W        W91867  27.122   8.581  11.900
25437W        W91868  12.664  28.906  14.017
25438W        W91869  31.263   2.301   2.779
25439W        W91870   1.250  15.953   0.762
25440W        W91871   0.905   0.543  13.549
25441W        W91872  10.424   3.669  10.958
25442W        W91873  42.430  21.480  11.504
25443W        W91874  25.663  20.731  12.467
25444W        W91875  27.732  24.061   2.380
25445W        W91876  39.606   5.939   1.680
25446W        W91877  16.046  39.091   4.093
25447W        W91878  19.300  30.203   4.134
25448W        W91879   8.276  25.698  12.062
25449W        W91880  32.613  22.727   2.884
25450W        W91881  17.499  40.968   1.406
25451W        W91882  16.313  12.820   4.808
25452W        W91883  26.559  30.463   0.197
25453W        W91884  41.186  34.134   0.004
25454W        W91885  26.846  16.040   2.100
25455W        W91886  29.908   3.910   1.959
25456W        W91887  43.469  32.932  10.794
25457W        W91888  29.777  28.050  12.220
25458W        W91889   1.235  18.416  10.691
25459W        W91890  24.639  40.368  11.542
25460W        W91891   2.340  17.128   1.383
25461W        W91892  21.466  28.919  14.506
25462W        W91893   9.459  37.137  13.545
25463W        W91894  25.005  22.945  13.720
25464W        W91895  43.805  10.753  12.023
25465W        W91896  11.779  24.469  13.153
25466W        W91897  32.845  43.097   0.880
25467W        W91898  33.446  42.026   4.073
25468W        W91899   3.820  10.712   3.907
25469W        W91900  15.343  33.940  12.148
25470W        W91901  31.924   4.224   3.153
25471W        W91902   6.788  14.588  14.356
25472W        W91903  38.887   6.122  12.406
25473W        W91904  26.755  24.942  12.529
25474W        W91905  11.809   5.635   3.380
25475W        W91906  21.408  38.135  12.895
25476W        W91907  19.594  12.386   4.520
25477W        W91908  33.159  32.537   0.279
25478W        W91909  16.888  41.217  12.846
25479W        W91910  19.879  13.532  10.149
25480W        W91911   5.336  16.152   3.736
25481W        W91912  27.443  30.852  11.902
25482W        W91913  13.001  16.918   2.590
25483W        W91914   1.512  14.233   1.863
25484W        W91915  18.491   1.909  12.559
25485W        W91916   4.236  17.693  11.520
25486W        W91917   9.147  43.897  10.398
25487W        W91918   8.857  42.544  11.529
25488W        W91919  24.502   7.432   3.183
25489W        W91920   4.880  24.801  14.803
25490W        W91921  13.799  19.574  14.749
25491W        W91922  38.484   1.994   1.910
25492W        W91923  31.892  18.535   4.531
25493W        W91924   4.225  43.909  14.160
25494W        W91925  20.572   0.219   1.422
25495W        W91926  28.689  20.515  14.792
25496W        W91927  32.474  33.174  14.469
25497W        W91928  32.932  14.867  14.347
25498W        W91929  39.512   2.776  12.426
25499W        W91930  41.613  37.555  12.849
25500W        W91931   8.423  23.626  14.618
25501W        W91932  21.189  40.258  14.205
25502W        W91933  24.363  16.060  14.848
25503W        W91934  33.189   7.674   3.810
25504W        W91935  16.318  38.956  10.589
25505W        W91936  27.086   1.462  11.503
25506W        W91937  19.054  37.514   9.810
25507W        W91938   4.889   5.486   1.132
25508W        W91939  42.830  17.080   3.736
25509W        W91940  30.155  40.548   1.667
25510W        W91941  18.185  41.289   3.704
25511W        W91942   2.325  37.176  12.872
25512W        W91943  13.182  17.933   4.979
25513W        W91944   4.734  20.540  11.593
25514W        W91945  32.158  42.252   0.409
25515W        W91946  39.666  34.557  10.694
25516W        W91947  35.280  22.891  11.653
25517W        W91948  41.971  10.195   4.514
25518W        W91949  15.688  19.008   0.884
25519W        W91950   1.332  15.682  14.434
25520W        W91951  15.367   3.125  13.885
25521W        W91952   1.434   4.322   2.127
25522W        W91953  37.158  38.693  14.442
25523W        W91954  28.214  21.967  14.889
25524W        W91955  23.556  38.347  12.116
25525W        W91956  42.931  19.502  12.584
25526W        W91957  38.385   6.595   4.545
25527W        W91958  13.095  23.548  11.998
25528W        W91959  21.182  26.068  14.499
25529W        W91960  32.539  33.085  10.311
25530W        W91961  32.154  33.104   2.872
25531W        W91962  25.240  41.923  13.563
25532W        W91963   4.760  34.584  10.752
25533W        W91964   9.841  20.049  12.316
25534W        W91965   7.324   0.211  11.862
25535W        W91966  10.801  14.304   4.142
25536W        W91967  36.504  13.382  12.155
25537W        W91968  44.826   1.129   4.207
25538W        W91969  26.842   7.272  13.420
25539W        W91970  20.146  21.490   3.918
25540W        W91971   2.675  11.269   0.409
25541W        W91972   0.571  25.311  11.614
25542W        W91973  12.313  30.838   3.819
25543W        W91974  18.977   1.421  12.738
25544W        W91975  43.098  20.711  13.494
25545W        W91976  15.717  12.207   0.084
25546W        W91977  18.840  23.672   1.198
25547W        W91978  21.636  24.962   3.954
25548W        W91979   8.485  39.520  14.876
25549W        W91980  37.378  13.695  12.479
25550W        W91981   2.643   4.754   3.828
25551W        W91982  15.716   5.962   1.306
25552W        W91983  29.394  26.170   0.415
25553W        W91984   9.853  34.570  11.102
25554W        W91985  25.699  25.727   1.344
25555W        W91986  18.118  40.768   4.455
25556W        W91987   7.959  27.381  14.654
25557W        W91988  37.042  25.184  13.927
25558W        W91989   1.541  10.451  11.112
25559W        W91990   0.402  28.010  11.108
25560W        W91991  38.213  32.082  12.539
25561W        W91992  26.997  36.827   3.747
25562W        W91993  38.413  22.714  12.763
25563W        W91994  41.289  34.773  12.907
25564W        W91995  21.076  18.955   5.018
25565W        W91996   2.947   2.569   3.686
25566W        W91997  10.208  25.405  11.248
25567W        W91998   3.232  39.398  10.744
25568W        W91999  23.378  35.407  13.299
25569W        W92000  12.651  30.015   4.641
25570W        W92001  11.823   8.566  13.815
25571W        W92002  38.066  36.585   1.107
25572W        W92003  39.442  27.155  13.040
25573W        W92004  21.302  23.648  14.954
25574W        W92005  42.434   5.914  11.384
25575W        W92006  30.468  14.660   2.923
25576W        W92007  18.523   9.128  12.624
25577W        W92008  41.302  37.371   1.189
25578W        W92009  36.457   9.245   3.342
25579W        W92010  32.131   2.743   4.294
25580W        W92011  20.110  41.815  11.426
25581W        W92012  22.177  16.566  12.999
25582W        W92013  19.612   6.219  11.663
25583W        W92014  17.461  40.868  10.467
25584W        W92015  42.417  42.524  12.514
25585W        W92016  38.904  26.230  13.295
25586W        W92017   9.345   5.899   3.259
25587W        W92018  20.844   8.840  13.897
25588W        W92019  26.412  24.320  14.496
25589W        W92020  21.845  42.146   2.326
25590W        W92021  14.331  12.222  14.467
25591W        W92022   6.170  42.742  10.500
25592W        W92023  10.029  37.981  13.248
25593W        W92024  37.667  41.078  10.746
25594W        W92025  26.067   0.483   1.983
25595W        W92026  35.463  35.538   2.739
25596W        W92027  22.654  26.391   0.601
25597W        W92028   4.734  44.193   1.911
25598W        W92029  12.152  11.640   3.371
25599W        W92030  30.106  10.902   4.149
25600W        W92031   1.724  42.396   2.756
25601W        W92032  29.678   2.401   3.519
25602W        W92033   1.253   3.830   0.971
25603W        W92034  22.774  22.113  11.679
25604W        W92035  39.925  25.058   1.163
25605W        W92036  26.466   8.440  12.232
25606W        W92037  26.464   8.176   0.545
25607W        W92038   0.942   7.754   2.219
25608W        W92039   1.958  30.676   4.356
25609W        W92040  33.862  38.510  14.202
25610W        W92041   5.648  32.048  14.956
25611W        W92042  10.914  13.332   0.355
25612W        W92043  21.120  42.271   1.803
25613W        W92044  40.306  35.881   1.328
25614W        W92045  14.091  18.052  11.052
25615W        W92046  42.225  14.820   1.208
25616W        W92047  26.096  13.723  14.334
25617W        W92048   6.165  28.680   4.160
25618W        W92049  25.395  22.974   3.665
25619W        W92050  19.737  43.822  14.318
25620W        W92051   8.589  26.043  12.833
25621W        W92052  34.166  29.978  13.578
25622W        W92053   9.205  18.000  14.776
25623W        W92054  10.950   7.885  13.560
25624W        W92055  35.477  16.680   0.384
25625W        W92056  39.603  36.306   1.722
25626W        W92057  36.960  22.736   1.915
25627W        W92058  42.445  26.789  12.919
25628W        W92059  29.527  25.584   3.253
25629W        W92060   2.072  31.575  11.216
25630W        W92061  36.019  11.237  12.094
25631W        W92062   3.960   9.529   3.588
25632W        W92063  31.896   9.903  12.485
25633W        W92064  26.966  32.121  14.052
25634W        W92065  41.671   5.268   1.938
25635W        W92066  24.367   3.284   1.379
25636W        W92067  37.854  38.058  12.926
25637W        W92068  17.973  38.992  10.109
25638W        W92069   5.154   7.665   0.877
25639W        W92070  19.221  40.371   2.589
25640W        W92071  39.558  16.346   2.757
25641W        W92072  16.152  16.194   3.578
25642W        W92073   7.816  28.982  11.311
25643W        W92074  20.363  42.361   1.038
25644W        W92075  38.902  24.624   1.826
25645W        W92076  31.078  18.865   0.739
25646W        W92077   1.157  39.644  12.568
25647W        W92078  27.188  43.872  10.879
25648W        W92079  30.185  42.236  12.485
25649W        W92080   7.804  42.679   4.684
25650W        W92081   9.586  39.873   0.118
25651W        W92082  44.928  10.306  13.890
25652W        W92083  30.428   6.815  12.655
25653W        W92084  40.026  30.053   4.617
25654W        W92085   5.937  22.082  12.592
25655W        W92086   4.857  13.619   3.241
25656W        W92087  11.593  39.093  13.460
25657W        W92088  37.091  21.516   3.655
25658W        W92089   8.269  19.726   3.741
25659W        W92090   3.882  14.870  11.617
25660W        W92091  44.705  22.260  12.982
25661W        W92092  38.981  24.823  11.854
25662W        W92093  26.618  16.614  12.550
25663W        W92094  20.702  24.382   1.884
25664W        W92095  23.047   3.434   0.458
25665W        W92096  44.272  38.336   2.666
25666W        W92097  41.711  26.896  11.652
25667W        W92098  20.157  39.869  13.044
25668W        W92099  39.845  33.161   2.749
25669W        W92100   0.381  33.528   0.262
25670W        W92101   3.459   0.768   1.280
25671W        W92102  26.906  14.737   0.656
25672W        W92103  33.994  19.696  11.491
25673W        W92104   3.878  44.408  11.154
25674W        W92105   4.567  18.004  11.753
25675W        W92106   5.986  28.012   1.802
25676W        W92107  24.220  34.690  10.669
25677W        W92108  21.022   3.358  10.782
25678W        W92109  17.746  27.533   4.381
25679W        W92110   3.602  44.355  10.689
25680W        W92111  12.235  17.392   3.118
25681W        W92112   7.841   1.169  10.819
25682W        W92113  41.973  33.048  13.489
25683W        W92114  29.171  27.954  11.146
25684W        W92115  40.784  11.941   3.769
25685W        W92116   7.410  14.761   2.366
25686W        W92117  42.445  16.707   4.404
25687W        W92118  16.670  34.407  14.591
25688W        W92119  19.260   6.930  13.771
25689W        W92120  10.386  24.167  11.674
25690W        W92121  40.380  10.512   5.014
25691W        W92122  26.396  14.666   1.433
25692W        W92123  44.376  23.194  14.868
25693W        W92124  10.625  37.379   2.139
25694W        W92125  41.836  42.291   0.998
25695W        W92126  20.360   2.744  13.481
25696W        W92127  13.265  17.839   4.009
25697W        W92128  19.128  33.568   0.701
25698W        W92129   8.382  36.160  11.977
25699W        W92130  24.154  19.521  14.260
25700W        W92131  28.068  37.274   2.970
25701W        W92132  28.682  42.770   0.904
25702W        W92133  14.821  43.260   2.656
25703W        W92134   6.583  22.613  13.259
25704W        W92135  37.415  28.932   0.443
25705W        W92136  29.361  28.704   0.518
25706W        W92137  41.562  32.325   4.583
25707W        W92138   2.749  40.971   3.846
25708W        W92139  23.854  33.804   2.276
25709W        W92140  26.585  29.436  10.486
25710W        W92141   6.212  12.812  11.199
25711W        W92142  18.042  39.852  12.471
25712W        W92143  16.196  25.059  13.322
25713W        W92144  35.546  27.747  11.207
25714W        W92145  43.035  19.123   3.265
25715W        W92146  41.932  14.912  12.228
25716W        W92147  26.388  41.788  13.902
25717W        W92148  22.950  31.244   2.378
25718W        W92149  40.548  27.530  12.811
25719W        W92150  14.806  39.931   4.441
25720W        W92151  39.143  37.430   1.528
25721W        W92152   9.657  20.725  14.108
25722W        W92153  10.774  26.081   1.192
25723W        W92154  37.560   0.992   4.746
25724W        W92155  36.986  22.170   0.065
25725W        W92156   9.177  35.587   3.665
25726W        W92157  12.275  43.459  10.633
25727W        W92158  22.694  10.142   2.312
25728W        W92159  41.274   6.139  14.815
25729W        W92160  37.901  13.860   3.316
25730W        W92161  25.761  26.369  13.391
25731W        W92162  21.163   0.739   3.293
25732W        W92163   4.900  13.888  11.477
25733W        W92164  20.783  33.349  11.336
25734W        W92165  14.370  17.510   0.714
25735W        W92166   5.668  18.632  13.772
25736W        W92167  27.965  17.200   1.279
25737W        W92168   8.046  25.596  11.611
25738W        W92169  40.612   8.297  12.385
25739W        W92170   6.678  26.706   3.312
25740W        W92171  15.813  13.053  11.140
25741W        W92172  21.164   7.297   4.245
25742W        W92173  16.799  20.421  14.550
25743W        W92174  30.081  41.953  11.620
25744W        W92175  17.187  17.523   0.877
25745W        W92176   4.776  32.515  13.187
25746W        W92177   6.868  18.553   9.947
25747W        W92178  40.951  35.559  14.693
25748W        W92179   8.944   2.210  14.335
25749W        W92180  31.280  38.510   3.358
25750W        W92181  34.305  17.729  13.853
25751W        W92182   6.743   0.338  10.746
25752W        W92183  35.228  42.314  11.178
25753W        W92184  25.403  16.815  14.962
25754W        W92185   3.980  39.329  12.424
25755W        W92186  43.859   6.361  14.413
25756W        W92187  37.017  32.053  13.476
25757W        W92188  13.714  35.439  13.238
25758W        W92189  18.244  43.941  13.335
25759W        W92190  20.010  24.483   1.667
25760W        W92191   5.574  38.549   2.959
25761W        W92192  19.099  23.838  12.521
25762W        W92193  31.201  10.630   2.486
25763W        W92194  14.299   9.206   2.697
25764W        W92195   1.389  24.567  13.470
25765W        W92196  16.155   1.245  10.946
25766W        W92197  32.545  23.474  12.399
25767W        W92198   4.715  37.629   0.226
25768W        W92199  29.507  28.713  13.293
25769W        W92200  15.714  26.044   3.275
25770W        W92201  13.273   2.408  11.398
25771W        W92202  33.721  37.631   4.842
25772W        W92203  37.407  22.855   1.293
25773W        W92204  19.199  22.787   4.639
25774W        W92205  32.569  15.842  11.156
25775W        W92206  20.108  21.424  13.905
25776W        W92207  20.452  16.589  11.668
25777W        W92208  35.479   7.580   0.008
25778W        W92209  16.705  39.341   0.281
25779W        W92210  10.167  26.181  13.594
25780W        W92211  28.438  23.175   4.862
25781W        W92212  10.341   5.357   3.671
25782W        W92213  24.928  37.333  11.223
25783W        W92214  32.551  14.730  12.111
25784W        W92215  21.469  37.533   4.550
25785W        W92216  36.349  26.210   0.215
25786W        W92217  12.397  39.063  12.922
25787W        W92218  15.586  20.740  12.001
25788W        W92219  18.315  19.586   1.915
25789W        W92220  19.046  33.124  11.144
25790W        W92221  38.430   3.232  11.558
25791W        W92222   8.707  18.489  13.950
25792W        W92223  10.486   7.796   2.757
25793W        W92224  14.196  25.589  11.615
25794W        W92225   7.374   5.595   3.302
25795W        W92226   0.541  15.184  11.100
25796W        W92227   6.461  37.973  11.813
25797W        W92228  19.070  32.607   3.374
25798W        W92229  27.603   0.740  10.622
25799W        W92230  19.877  42.301   1.221
25800W        W92231  32.158  38.854   4.936
25801W        W92232  44.882   1.372  14.392
25802W        W92233   6.870  38.290   4.181
25803W        W92234  19.259  20.044  11.889
25804W        W92235  39.597  28.711   2.267
25805W        W92236  27.268  35.176  13.508
25806W        W92237  28.701  32.468  12.967
25807W        W92238  34.923  33.359  14.302
25808W        W92239  38.387  17.484  14.410
25809W        W92240  38.606  44.033  11.974
25810W        W92241  10.890   0.449  12.322
25811W        W92242  21.358  36.910  11.093
25812W        W92243  19.993  30.574  11.488
25813W        W92244   5.435  18.901  11.391
25814W        W92245   0.155   1.324   2.062
25815W        W92246  20.915  19.891   5.368
25816W        W92247  36.906  35.861  12.521
25817W        W92248   4.830  43.041  10.095
25818W        W92249   5.284  25.077   2.755
25819W        W92250   5.145  30.583   3.115
25820W        W92251  12.780  19.697  10.597
25821W        W92252  13.947  42.179   2.350
25822W        W92253  16.158  35.083  11.605
25823W        W92254  24.939  10.079  12.526
25824W        W92255  28.515  44.933   2.430
25825W        W92256  32.944  17.276  14.243
25826W        W92257  11.566  33.001  12.150
25827W        W92258  33.474   5.302   1.908
25828W        W92259  33.978  31.894   0.817
25829W        W92260  26.076  43.580   1.749
25830W        W92261  42.906  17.460   4.174
25831W        W92262  32.459  11.177   3.370
25832W        W92263  18.080  20.282  10.628
25833W        W92264  38.964  13.080  11.864
25834W        W92265  17.716   0.777   2.158
25835W        W92266  15.790  43.919  11.767
25836W        W92267  16.664  38.451  10.548
25837W        W92268  21.568   3.856  13.244
25838W        W92269  39.858   9.415  12.033
25839W        W92270  18.214  34.579  11.068
25840W        W92271  10.757  32.760   3.702
25841W        W92272  11.858  44.017   2.333
25842W        W92273  20.189   5.459  14.965
25843W        W92274   6.941  40.314   3.659
25844W        W92275   3.034  40.595   3.218
25845W        W92276   8.831  39.336  14.552
25846W        W92277  35.586   6.425   0.815
25847W        W92278  42.887  11.637  10.664
25848W        W92279  23.952  37.362  12.119
25849W        W92280  37.035  36.513   5.140
25850W        W92281  16.788  19.763   4.158
25851W        W92282  30.839   2.987  10.661
25852W        W92283  37.475  12.967  12.141
25853W        W92284   4.843  19.209  13.040
25854W        W92285  25.962  12.758   0.267
25855W        W92286  16.568  21.621   4.529
25856W        W92287  31.266   7.339   4.685
25857W        W92288  28.094  42.327   1.202
25858W        W92289   0.322  24.073   4.657
25859W        W92290  41.985  44.639  14.804
25860W        W92291  12.371  15.892  10.175
25861W        W92292  37.059  32.687   4.592
25862W        W92293   8.739  33.433   2.809
25863W        W92294   4.697  11.886  10.514
25864W        W92295  31.078  31.515  10.351
25865W        W92296  41.895  30.871  10.769
25866W        W92297  30.374  20.753   2.287
25867W        W92298  14.988  43.423  12.959
25868W        W92299  37.497  43.457  11.724
25869W        W92300  10.761   2.313  13.485
25870W        W92301   5.701  20.634  12.921
25871W        W92302  42.939   0.329   1.813
25872W        W92303  19.006  36.520  14.801
25873W        W92304  16.937   5.047  14.913
25874W        W92305  19.537  35.452  14.856
25875W        W92306   7.644  11.342   1.836
25876W        W92307  30.929  22.586   2.159
25877W        W92308  14.782  19.171  11.274
25878W        W92309  24.509  40.947   0.234
25879W        W92310  30.174  24.245   3.661
25880W        W92311  32.856  41.854  12.142
25881W        W92312  44.515  10.370   3.788
25882W        W92313   3.693  14.600   1.895
25883W        W92314  24.999  14.245  11.912
25884W        W92315  31.837  12.735   4.526
25885W        W92316   6.690  34.399   3.571
25886W        W92317  28.942  31.257  10.816
25887W        W92318  43.088   2.248  14.711
25888W        W92319  42.978  17.284   1.809
25889W        W92320  29.171  41.019   4.599
25890W        W92321  26.944  34.108  10.680
25891W        W92322   4.338   8.843   3.418
25892W        W92323  44.587  29.803   3.737
25893W        W92324  40.251  28.443  12.923
25894W        W92325   2.514  20.061  11.114
25895W        W92326   9.014   0.763   4.534
25896W        W92327  31.141  33.180   3.392
25897W        W92328  12.556  12.681   0.366
25898W        W92329  33.179  17.694   4.701
25899W        W92330  25.232  11.051   1.432
25900W        W92331  44.485   6.881  14.004
25901W        W92332  16.048  31.308   4.480
25902W        W92333  27.417  24.079  14.989
25903W        W92334   3.030  20.789  12.409
25904W        W92335   9.933  42.327   0.254
25905W        W92336  30.855  37.808  11.037
25906W        W92337  39.407  28.164   3.641
25907W        W92338  29.914   2.656   2.246
25908W        W92339  10.832  22.750  12.040
25909W        W92340  31.469   4.757  10.841
25910W        W92341   3.269  20.101  11.566
25911W        W92342  10.716  40.538  10.937
25912W        W92343  32.484  22.213   2.687
25913W        W92344  34.149  21.115  11.394
25914W        W92345  10.792  20.656   0.835
25915W        W92346  42.217  42.528   0.724
25916W        W92347  17.650  32.489   0.886
25917W        W92348  30.715  42.958  14.461
25918W        W92349  13.634   4.936   4.850
25919W        W92350   2.454  10.370  13.130
25920W        W92351  17.852  21.571  11.135
25921W        W92352  44.211  16.248  11.108
25922W        W92353   6.968  16.860  11.602
25923W        W92354  24.241  11.831   3.863
25924W        W92355  21.283   1.809   2.802
25925W        W92356  39.913  22.797  13.933
25926W        W92357  30.744  39.282  11.389
25927W        W92358  23.495  13.160  13.387
25928W        W92359   7.168  42.975  13.585
25929W        W92360  31.448  29.462  11.149
25930W        W92361  10.833   8.074   0.300
25931W        W92362  10.562  44.882  10.567
25932W        W92363  44.705  29.119  14.039
25933W        W92364  10.985   1.189   3.825
25934W        W92365   0.436  22.162  10.825
25935W        W92366  23.677  18.377  10.358
25936W        W92367  26.637  29.961   3.859
25937W        W92368  40.946  31.495   1.288
25938W        W92369  31.919  42.496  12.175
25939W        W92370   0.285  39.072   0.381
25940W        W92371   0.808  40.783   4.524
25941W        W92372  28.516  29.933   2.647
25942W        W92373  38.520  17.024   1.956
25943W        W92374  16.760  27.455  14.971
25944W        W92375  13.227  17.220  12.987
25945W        W92376  31.550  14.779  13.116
25946W        W92377   8.765   3.485  11.871
25947W        W92378  36.828   0.584   0.903
25948W        W92379  38.478   9.878  11.201
25949W        W92380   8.286  27.724  14.862
25950W        W92381   7.330   1.507  13.006
25951W        W92382  11.802  34.739  12.408
25952W        W92383  42.899  38.531   2.730
25953W        W92384  31.001  28.974   4.106
25954W        W92385   3.248  32.008  14.319
25955W        W92386  12.938  39.193  12.101
25956W        W92387  39.294  19.219   2.077
25957W        W92388  38.556  19.946   0.097
25958W        W92389  22.978  29.499  14.746
25959W        W92390  26.622  28.260   1.708
25960W        W92391  28.156  43.111  12.186
25961W        W92392   9.400  39.367   4.224
25962W        W92393  44.025  19.834   1.773
25963W        W92394  19.307  22.683   0.417
25964W        W92395  23.608  32.904  10.607
25965W        W92396  25.956  27.563   0.975
25966W        W92397  38.541  28.186  14.829
25967W        W92398  43.805  43.565   2.990
25968W        W92399  12.594  20.686  11.857
25969W        W92400  11.580   4.868   4.013
25970W        W92401  42.562  34.877  13.045
25971W        W92402  30.613   1.028   0.834
25972W        W92403  37.580  21.715  11.818
25973W        W92404  13.256  34.555  14.710
25974W        W92405  42.200  15.319  14.298
25975W        W92406  22.219  13.901  14.160
25976W        W92407   0.104   1.925   1.735
25977W        W92408  19.402  17.722   4.095
25978W        W92409  21.561  23.283   3.291
25979W        W92410   2.677  29.050  14.889
25980W        W92411  31.772  25.266  11.603
25981W        W92412  30.100  21.245  14.874
25982W        W92413  29.112  44.949   3.821
25983W        W92414  24.600  30.551   2.093
25984W        W92415  35.157  34.887   3.712
25985W        W92416  22.668  33.880  14.959
25986W        W92417  24.567   2.229  13.508
25987W        W92418  35.049  41.190  14.886
25988W        W92419  31.648  13.848  11.109
25989W        W92420   1.965  11.737  10.761
25990W        W92421  31.150  39.872   1.652
25991W        W92422  22.513  28.772   2.316
25992W        W92423  43.935  15.624  13.775
25993W        W92424  14.768  26.165   2.878
25994W        W92425   9.598  32.359   3.134
25995W        W92426  13.428  39.370   0.765
25996W        W92427  39.101   2.827   3.697
25997W        W92428  15.727  14.834  12.488
25998W        W92429  28.783  15.431  13.557
25999W        W92430  30.196  11.202   4.568
26000W        W92431  23.607  17.560   9.881
26001W        W92432  36.154  42.705   4.722
26002W        W92433  37.325  17.811  14.941
26003W        W92434  34.389  44.460   3.913
26004W        W92435  14.339  24.787   0.836
26005W        W92436   4.709  24.164  10.960
26006W        W92437  23.614  30.076   4.068
26007W        W92438  23.692  11.292  10.810
26008W        W92439   7.202   4.872  12.459
26009W        W92440  27.052  37.154  12.203
26010W        W92441  13.084  35.564  12.460
26011W        W92442  34.859  20.280  13.521
26012W        W92443  26.500  35.427   0.731
26013W        W92444   9.465  20.700   0.339
26014W        W92445  16.683  42.559  11.058
26015W        W92446   1.097   9.961   0.766
26016W        W92447   7.801  39.368  13.867
26017W        W92448  41.332  15.315  13.452
26018W        W92449  32.998   7.824  13.407
26019W        W92450  44.706  26.583  10.684
26020W        W92451   6.698  41.008  10.737
26021W        W92452  39.802  39.568  14.893
26022W        W92453  33.005  21.563  12.587
26023W        W92454  35.789  21.615   1.008
26024W        W92455  21.538  28.705   1.916
26025W        W92456   6.129  33.942  14.958
26026W        W92457   2.811  20.641   0.202
26027W        W92458  38.367  40.088   0.901
26028W        W92459  42.803   2.312   1.204
26029W        W92460  23.306   8.660   4.582
26030W        W92461  31.537   3.957   1.296
26031W        W92462  33.175  29.867  12.976
26032W        W92463  22.438  43.980   2.613
26033W        W92464  23.729   8.963  13.739
26034W        W92465  11.297   7.262   4.513
26035W        W92466   6.443  24.391  13.008
26036W        W92467  25.353  10.607   4.043
26037W        W92468  13.013   8.796  12.531
26038W        W92469  31.840  38.581   1.785
26039W        W92470   8.079   7.849  12.872
26040W        W92471  43.442   3.438   4.587
26041W        W92472   5.038   5.260   0.685
26042W        W92473   8.791  24.111  14.026
26043W        W92474   8.696  21.800   1.306
26044W        W92475   7.578  15.220  11.987
26045W        W92476  33.800  28.807  10.209
26046W        W92477   0.991  36.048   2.296
26047W        W92478  18.538   7.518  10.524
26048W        W92479  36.258  36.068  11.133
26049W        W92480   2.737  21.683  10.801
26050W        W92481  28.603  35.515  14.844
26051W        W92482  11.170  27.989   3.941
26052W        W92483   5.449   6.178   1.437
26053W        W92484  25.238  31.320  13.080
26054W        W92485  19.295  28.777   4.234
26055W        W92486   6.206  11.380   4.702
26056W        W92487  18.585  25.315   0.787
26057W        W92488   8.499  18.739  11.619
26058W        W92489  25.486   0.381  13.874
26059W        W92490  27.634  36.030   0.735
26060W        W92491  28.918  33.088   0.934
26061W        W92492   0.332  41.085  14.746
26062W        W92493  24.540  42.535  12.927
26063W        W92494  21.757   9.341  14.947
26064W        W92495  43.980  26.892  12.254
26065W        W92496  37.030  44.169  13.523
26066W        W92497  22.989  29.044   0.426
26067W        W92498   1.792  20.275  13.614
26068W        W92499  44.193  16.146  10.603
26069W        W92500  19.274  22.833  14.065
26070W        W92501  24.691  40.258   9.776
26071W        W92502   6.101  14.211  12.283
26072W        W92503  40.916  31.614   4.113
26073W        W92504  28.675  13.959   3.584
26074W        W92505   2.746  13.469  14.015
26075W        W92506  43.537  19.274   4.735
26076W        W92507  44.501   3.049  13.002
26077W        W92508  14.693  20.204   4.866
26078W        W92509  37.803   0.773   2.522
26079W        W92510  36.136  38.833   2.368
26080W        W92511   6.543  22.455  14.024
26081W        W92512  38.489  35.182  12.914
26082W        W92513  26.919  24.878   1.438
26083W        W92514  42.985   0.959  13.497
26084W        W92515  29.710  11.121   3.092
26085W        W92516  39.889  38.595  14.646
26086W        W92517  35.870  23.521   4.420
26087W        W92518  12.310  29.463  12.229
26088W        W92519  12.517  11.293  13.775
26089W        W92520  11.704  30.959  13.571
26090W        W92521  37.022  30.373  11.983
26091W        W92522  41.592   7.951   0.810
26092W        W92523  41.862  19.568  14.015
26093W        W92524  31.912   6.968   0.864
26094W        W92525   0.442  17.376  10.738
26095W        W92526  17.725  15.146  12.153
26096W        W92527  44.372  11.222   2.162
26097W        W92528  28.840  25.191  13.850
26098W        W92529  22.117  13.786  13.662
26099W        W92530  26.677  44.259   4.591
26100W        W92531  15.718   5.546   2.252
26101W        W92532  15.147  22.115   1.356
26102W        W92533  42.341  32.443  11.240
26103W        W92534   7.124   0.045   1.740
26104W        W92535  27.756  21.704   0.092
26105W        W92536   7.605  12.397  13.452
26106W        W92537  11.283  36.339   1.384
26107W        W92538  42.430  38.634   5.033
26108W        W92539  19.240  18.575   2.860
26109W        W92540  10.872  44.577   1.281
26110W        W92541  24.133  19.554  12.416
26111W        W92542  15.737  13.954   2.003
26112W        W92543  35.417   2.259   0.211
26113W        W92544  12.240  23.740  12.996
26114W        W92545  39.604  20.985   4.098
26115W        W92546   3.123  31.470   0.431
26116W        W92547  30.917  33.989   4.474
26117W        W92548  17.305  20.250  14.528
26118W        W92549   2.948  16.648   3.975
26119W        W92550  44.637  40.052  14.999
26120W        W92551  27.738  44.036  13.523
26121W        W92552   3.460  12.048  14.840
26122W        W92553  37.807  37.419   2.758
26123W        W92554  14.919  25.529   2.258
26124W        W92555  19.625  37.068  10.934
26125W        W92556  23.428  27.661  13.450
26126W        W92557  20.200  19.113  13.984
26127W        W92558   9.683  34.863   4.489
26128W        W92559  34.617  42.768  14.253
26129W        W92560   6.016  23.533   2.778
26130W        W92561  22.704   6.775  12.222
26131W        W92562   5.254   1.761   2.328
26132W        W92563  27.389  29.002   3.023
26133W        W92564  28.011  32.558   1.855
26134W        W92565  20.751   5.756   3.837
26135W        W92566  36.845  11.371  12.475
26136W        W92567  29.965  16.094   3.501
26137W        W92568   2.566  34.936   0.899
26138W        W92569   3.182  44.000  13.315
26139W        W92570   3.847  32.532  13.363
26140W        W92571   7.882  34.883   1.319
26141W        W92572  33.537  32.872   0.435
26142W        W92573  11.680   2.853  12.880
26143W        W92574  36.524   9.736  12.316
26144W        W92575  38.561  38.747  11.485
26145W        W92576   9.801  43.785   3.314
26146W        W92577  36.280  34.329   1.861
26147W        W92578  33.675  15.755   1.901
26148W        W92579  13.800   8.683   3.958
26149W        W92580   7.848   3.667  14.825
26150W        W92581   6.757  24.740  14.843
26151W        W92582   4.520   1.023  12.971
26152W        W92583   3.256  27.687   1.206
26153W        W92584  22.006  14.095  11.068
26154W        W92585  30.146  13.521   1.734
26155W        W92586  35.780  43.919   2.185
26156W        W92587  30.181   9.703   3.277
26157W        W92588  24.380  35.249   3.678
26158W        W92589   6.141  22.036   2.620
26159W        W92590  25.186   4.714   1.588
26160W        W92591  16.772  38.170   3.324
26161W        W92592  20.726  28.481  14.554
26162W        W92593  28.178   4.281  10.676
26163W        W92594  20.058  34.625  14.812
26164W        W92595  28.464  13.348  12.677
26165W        W92596  36.263   3.266   0.676
26166W        W92597   0.500  22.059  14.304
26167W        W92598  31.652  25.276   2.277
26168W        W92599  34.017   9.045   2.217
26169W        W92600  31.412  43.369  14.861
26170W        W92601  39.346   6.721  12.481
26171W        W92602   3.872  34.206  14.363
26172W        W92603  42.602  30.401   3.738
26173W        W92604   6.258  13.294   2.433
26174W        W92605  20.084  23.666   2.631
26175W        W92606  31.001  31.944  14.533
26176W        W92607  25.031  21.716   3.256
26177W        W92608   8.760  18.604  10.638
26178W        W92609  29.456   3.827  10.184
26179W        W92610  13.314  33.621  13.177
26180W        W92611   3.882   9.473   2.353
26181W        W92612   9.318  26.089  14.136
26182W        W92613  19.697   8.652  12.901
26183W        W92614   7.469  37.966  10.738
26184W        W92615  29.457  10.307  11.118
26185W        W92616  40.621  31.196   0.856
26186W        W92617  31.406   6.962   2.872
26187W        W92618  17.426  44.185  12.284
26188W        W92619  39.114  22.994   2.626
26189W        W92620  25.664  44.138  13.166
26190W        W92621  43.996  12.103   2.345
26191W        W92622  35.460  32.414  13.469
26192W        W92623   3.327  21.527  13.324
26193W        W92624   7.791  28.022  14.009
26194W        W92625  16.058  28.093   1.236
26195W        W92626  42.422  34.083  11.648
26196W        W92627  43.415  40.638   1.357
26197W        W92628  17.570   1.215   0.063
26198W        W92629   8.784   3.026  10.997
26199W        W92630  10.090  39.237  13.878
26200W        W92631  42.537  32.998  11.907
26201W        W92632  32.126  20.426  11.451
26202W        W92633  34.560  25.620   1.007
26203W        W92634  37.450  43.251  13.664
26204W        W92635  23.540  20.844  11.064
26205W        W92636  33.705  12.610  13.516
26206W        W92637  21.163  30.066  10.228
26207W        W92638   7.786  33.559  14.263
26208W        W92639   0.511  42.509   0.479
26209W        W92640   0.404   1.833   3.766
26210W        W92641   9.759  34.482   1.367
26211W        W92642  31.615  12.698  11.617
26212W        W92643  35.571  14.050   0.526
26213W        W92644   8.723  12.686   4.052
26214W        W92645  14.854  18.161  10.189
26215W        W92646  44.175  14.877   2.200
26216W        W92647  11.582  20.018   2.267
26217W        W92648  29.859  30.233  10.692
26218W        W92649  34.865  39.771   2.307
26219W        W92650  43.318  17.940  10.020
26220W        W92651   1.249  42.274   1.508
26221W        W92652   6.468   2.346   3.298
26222W        W92653   7.148  36.917  13.005
26223W        W92654  19.922  38.929   2.038
26224W        W92655  42.510   5.048  13.955
26225W        W92656  29.050  38.203  12.169
26226W        W92657  38.497  15.703  10.190
26227W        W92658  41.244  17.625  11.233
26228W        W92659  10.909   9.220   1.873
26229W        W92660  35.323  18.085  13.437
26230W        W92661   5.832  28.034   0.847
26231W        W92662  34.348  37.390  13.023
26232W        W92663  40.608   6.564  13.580
26233W        W92664  14.536   6.530   3.664
26234W        W92665  27.166  29.519  13.257
26235W        W92666  33.178   6.480  12.373
26236W        W92667   5.941  24.760  14.700
26237W        W92668  32.344  42.481  12.449
26238W        W92669  29.198  35.124   0.786
26239W        W92670  14.836  35.599  14.483
26240W        W92671  41.607  15.649  11.659
26241W        W92672  11.095   8.631  12.587
26242W        W92673  33.359   3.329   2.193
26243W        W92674  13.239  21.206  14.248
26244W        W92675   2.985   7.433   0.240
26245W        W92676   4.135  39.352   4.136
26246W        W92677  35.601  24.228  12.003
26247W        W92678  41.809  23.985   0.755
26248W        W92679  38.396  38.501  14.282
26249W        W92680  32.851  33.453   2.177
26250W        W92681  36.133  38.827  13.400
26251W        W92682   9.608  37.492  12.506
26252W        W92683  18.188  38.580  10.326
26253W        W92684  24.016  40.858   2.736
26254W        W92685   3.937  24.553   3.960
26255W        W92686  11.796  30.908   0.375
26256W        W92687  20.235  31.153   4.167
26257W        W92688  28.589   6.776  12.050
26258W        W92689   8.929  41.000   4.272
26259W        W92690  19.016  39.323   1.042
26260W        W92691   3.383  12.481   1.502
26261W        W92692  31.093  17.928  14.533
26262W        W92693  34.628  29.979  13.338
26263W        W92694  43.622  36.321   2.859
26264W        W92695  29.966  25.959   5.094
26265W        W92696  15.925  10.318  11.055
26266W        W92697  20.996  19.584   4.070
26267W        W92698   1.841  28.008  14.932
26268W        W92699   0.500   1.549  14.724
26269W        W92700  23.947  28.710   0.818
26270W        W92701  10.635  19.748  12.066
26271W        W92702  40.098   6.798  13.649
26272W        W92703  21.713  16.156  14.827
26273W        W92704  12.725  20.931   1.211
26274W        W92705  35.709  15.171   2.137
26275W        W92706   1.360  17.774  14.360
26276W        W92707  38.047  31.766   5.441
26277W        W92708  21.646  30.438   3.120
26278W        W92709  38.583  36.435  10.009
26279W        W92710  31.567   6.272   0.403
26280W        W92711   6.831  39.102  10.706
26281W        W92712  13.772  39.369   4.886
26282W        W92713   3.357  14.148  13.968
26283W        W92714   1.469  38.790   4.509
26284W        W92715  36.402  35.581   1.672
26285W        W92716   0.114   9.537   2.147
26286W        W92717   3.003  10.394   1.909
26287W        W92718  14.806   2.954   1.041
26288W        W92719  22.061  19.569  13.918
26289W        W92720   8.725   2.701  13.999
26290W        W92721  39.733  38.043  13.082
26291W        W92722   3.094   0.954   3.295
26292W        W92723  37.062  35.989   5.131
26293W        W92724  19.223  30.547   2.630
26294W        W92725  39.707  19.573   3.333
26295W        W92726  26.923  20.576   3.479
26296W        W92727  17.447  33.661  12.099
26297W        W92728  35.448  10.913   2.908
26298W        W92729  20.207  23.160   0.032
26299W        W92730  16.320  29.523  12.425
26300W        W92731  12.514  25.392   2.451
26301W        W92732  16.009  38.879  10.999
26302W        W92733  13.742  33.365   3.119
26303W        W92734  33.144  36.954  13.278
26304W        W92735   5.731  35.061  13.208
26305W        W92736  39.256   3.506   4.937
26306W        W92737  32.095  37.396  13.825
26307W        W92738  21.192   7.743  12.549
26308W        W92739  29.779  42.906   4.640
26309W        W92740  40.226  11.510  10.182
26310W        W92741  16.127   2.853   0.935
26311W        W92742  28.598  44.526   0.792
26312W        W92743  25.970  25.951  11.196
26313W        W92744  26.946   9.420  13.756
26314W        W92745  15.214  10.653   1.428
26315W        W92746  21.276  31.071   4.014
26316W        W92747   9.549  25.005  12.492
26317W        W92748   4.420   5.854   1.847
26318W        W92749  24.353  19.760   0.088
26319W        W92750  22.089  29.908   0.449
26320W        W92751  17.065  21.549  13.885
26321W        W92752  18.591  35.571   1.330
26322W        W92753  21.548  17.119   3.631
26323W        W92754   1.792  26.899   1.497
26324W        W92755  14.124  10.145  11.780
26325W        W92756  39.905  27.918  10.821
26326W        W92757  18.037  11.894  10.150
26327W        W92758  12.173  24.888   9.879
26328W        W92759  11.348   6.516   1.584
26329W        W92760  41.578  39.280  12.419
26330W        W92761  34.624  33.616  10.746
26331W        W92762  13.895   6.040   4.112
26332W        W92763  28.026   4.217   1.873
26333W        W92764  29.693  41.551   2.614
26334W        W92765   4.415  14.804   3.576
26335W        W92766  23.701  21.978  11.579
26336W        W92767  19.624  32.233   3.989
26337W        W92768  17.782  23.609  10.676
26338W        W92769  38.730  41.787   4.528
26339W        W92770   8.126  42.242   2.879
26340W        W92771  13.915  19.144   2.371
26341W        W92772  13.125   6.402  10.750
26342W        W92773  30.801  16.371  14.200
26343W        W92774  35.067  22.678   1.899
26344W        W92775  17.828  41.698  11.270
26345W        W92776  28.202  34.159  14.348
26346W        W92777  38.610  26.174  12.887
26347W        W92778   2.354  35.355  14.582
26348W        W92779   4.955  34.441   3.917
26349W        W92780  29.953  26.443   1.844
26350W        W92781  41.445   0.914  10.483
26351W        W92782  40.073  22.646   0.258
26352W        W92783  29.438  43.114  11.919
26353W        W92784   1.786  26.898  13.198
26354W        W92785   7.468   0.701  13.495
26355W        W92786  42.882  25.987   0.930
26356W        W92787  13.333   2.924   4.912
26357W        W92788  33.044   2.170  14.379
26358W        W92789  30.638  22.589   0.435
26359W        W92790   9.222  33.412   3.736
26360W        W92791  14.818  19.542   1.706
26361W        W92792  32.680  11.508  11.802
26362W        W92793  15.553  10.449  13.410
26363W        W92794  38.046  38.993   2.335
26364W        W92795  19.228  26.636   2.236
26365W        W92796  44.318  33.189  12.955
26366W        W92797  35.572  34.878  14.829
26367W        W92798   2.887  43.779   2.717
26368W        W92799  33.444  36.652   0.410
26369W        W92800  27.427   5.659   3.243
26370W        W92801  44.774  35.509  13.303
26371W        W92802  36.044  23.950  12.062
26372W        W92803  27.155  30.644   3.592
26373W        W92804  20.229  43.431   1.266
26374W        W92805  33.327   3.984   2.677
26375W        W92806   4.687  24.185   3.882
26376W        W92807  26.144  33.104   1.825
26377W        W92808  17.132  34.418  13.848
26378W        W92809  34.644  10.387   0.995
26379W        W92810  34.951  38.484   2.623
26380W        W92811   0.086  43.156   2.340
26381W        W92812  20.216  36.191  11.212
26382W        W92813  40.899  42.030  12.170
26383W        W92814  25.687  33.554  13.330
26384W        W92815  19.847   0.869   2.761
26385W        W92816  19.789  37.127   0.290
26386W        W92817   5.229  43.026   4.652
26387W        W92818  18.802  17.050   1.576
26388W        W92819  30.154  17.757  12.111
26389W        W92820  29.744  11.691  12.493
26390W        W92821  14.081   4.923   3.245
26391W        W92822   9.716  21.593   4.565
26392W        W92823  31.957   6.852   2.175
26393W        W92824  20.223  19.987  13.362
26394W        W92825  31.587  25.418   1.796
26395W        W92826  29.759  11.268   1.721
26396W        W92827  40.414   2.030   1.353
26397W        W92828  29.545  14.331   4.948
26398W        W92829  17.818  28.600  12.083
26399W        W92830  24.593  13.178  13.802
26400W        W92831  31.766   6.777  12.517
26401W        W92832  40.901   6.373   2.093
26402W        W92833   4.205  29.319   2.322
26403W        W92834  37.107   0.413  13.488
26404W        W92835  35.837  16.790   0.027
26405W        W92836  41.434  38.796   1.449
26406W        W92837  37.074  17.825  10.694
26407W        W92838  30.082   6.239   0.116
26408W        W92839  36.900  41.768  13.441
26409W        W92840   6.345  19.710   3.339
26410W        W92841   5.104  18.739  11.946
26411W        W92842  15.256  26.091  12.947
26412W        W92843  41.946  17.547   3.801
26413W        W92844   1.263  40.488  10.509
26414W        W92845  35.016  43.774  12.837
26415W        W92846   8.446   5.442   1.262
26416W        W92847  16.449  32.633  11.733
26417W        W92848  23.186  40.602   3.647
26418W        W92849   3.172  39.394   0.744
26419W        W92850  19.057  12.401   3.784
26420W        W92851   2.175   9.656  11.477
26421W        W92852  19.054  41.514   4.059
26422W        W92853  24.505  44.322  14.005
26423W        W92854   6.612  15.151   4.018
26424W        W92855  37.376  11.832   0.561
26425W        W92856  10.874  21.941  11.467
26426W        W92857   7.401  14.587  13.531
26427W        W92858  25.004  42.931  14.391
26428W        W92859  33.468  14.810   4.556
26429W        W92860  13.683  40.047   2.234
26430W        W92861  10.729   5.268   2.449
26431W        W92862   4.378  23.741  10.686
26432W        W92863   9.288  27.933   1.361
26433W        W92864  43.339  43.101  13.203
26434W        W92865  19.158  20.984   0.925
26435W        W92866   1.420  22.636   2.349
26436W        W92867   0.718  39.997   2.587
26437W        W92868  21.831   9.020   3.122
26438W        W92869  36.524  35.352  12.846
26439W        W92870  44.408  12.821   4.642
26440W        W92871  18.698   7.813   0.065
26441W        W92872   7.820  10.958  12.457
26442W        W92873  22.867  14.192   4.053
26443W        W92874   2.796  38.572   4.469
26444W        W92875  10.567  41.507  10.722
26445W        W92876  24.454   9.595  10.762
26446W        W92877  16.615  36.863  12.802
26447W        W92878  28.949  33.437  14.521
26448W        W92879  21.500   4.747   0.752
26449W        W92880  34.873   1.343   1.457
26450W        W92881  32.412  22.071   4.497
26451W        W92882   7.291  35.905  14.300
26452W        W92883  44.259  42.905   4.799
26453W        W92884  34.313  18.223  12.569
26454W        W92885  40.114  10.681  13.642
26455W        W92886  15.178  41.292  10.708
26456W        W92887  16.322  41.626  11.165
26457W        W92888  14.414   7.270   2.699
26458W        W92889  30.421  22.997   1.973
26459W        W92890  35.997  41.554   2.714
26460W        W92891  33.092   5.659  11.999
26461W        W92892  14.100  10.611  12.560
26462W        W92893   4.189  22.684   0.709
26463W        W92894  31.090  23.079   0.717
26464W        W92895  27.088  26.496   0.795
26465W        W92896  21.650  30.038   4.997
26466W        W92897  35.928   4.926   3.174
26467W        W92898   7.804  42.470   3.289
26468W        W92899  26.847   5.793  13.427
26469W        W92900  20.759  20.825  13.385
26470W        W92901  40.111  33.877  11.949
26471W        W92902  34.330  42.879  14.686
26472W        W92903  10.784  16.823  10.415
26473W        W92904  16.810  28.505  11.860
26474W        W92905  32.608  27.015  13.143
26475W        W92906  16.700  17.244  12.936
26476W        W92907  24.150  14.812   2.383
26477W        W92908  13.706   8.331  12.351
26478W        W92909  29.750  38.684   0.024
26479W        W92910   7.296  22.042  14.044
26480W        W92911   3.955  22.907  11.577
26481W        W92912  33.888  40.220   0.923
26482W        W92913   3.500  31.206   3.279
26483W        W92914  36.460  40.399   3.282
26484W        W92915   2.350  26.642   5.113
26485W        W92916  39.581  26.001   0.016
26486W        W92917  34.176  22.253   3.147
26487W        W92918   6.143  29.416   1.837
26488W        W92919  11.733  29.374   4.970
26489W        W92920  37.843  33.806   1.632
26490W        W92921  41.933  25.241   2.472
26491W        W92922  22.917  26.574  14.647
26492W        W92923   0.430  14.869  11.521
26493W        W92924  16.764  16.619  10.490
26494W        W92925   1.028   6.207   3.731
26495W        W92926  12.675  29.133   2.940
26496W        W92927  26.804  15.014   3.188
26497W        W92928   1.290  17.548  10.430
26498W        W92929  19.455  42.392  13.333
26499W        W92930  24.557   8.974   3.272
26500W        W92931  10.063  35.456  10.878
26501W        W92932  24.598  40.336   1.028
26502W        W92933   5.448  34.057  12.105
26503W        W92934  44.762  26.467  11.634
26504W        W92935  21.155  40.716  14.415
26505W        W92936  22.199  28.675   4.112
26506W        W92937  34.451  24.375   4.091
26507W        W92938  18.645  31.408  14.981
26508W        W92939  12.117  40.552   3.659
26509W        W92940  40.526  30.519   2.843
26510W        W92941  13.636  18.742   3.274
26511W        W92942   5.651  31.556  12.442
26512W        W92943  15.233  42.116   2.352
26513W        W92944  23.242   8.610   1.742
26514W        W92945  13.267  35.140   1.958
26515W        W92946   9.896  28.094  13.047
26516W        W92947  38.672  21.210  10.700
26517W        W92948  32.551  19.709  11.411
26518W        W92949  35.541   9.733   1.350
26519W        W92950  21.784  10.742   4.113
26520W        W92951  32.205  41.226  11.729
26521W        W92952  38.508  41.852  13.562
26522W        W92953  40.013  34.489  12.423
26523W        W92954  31.780  14.995   3.145
26524W        W92955  34.975  29.899  14.898
26525W        W92956  13.152  25.865   3.578
26526W        W92957  38.311  33.303  10.723
26527W        W92958   4.513  30.063  13.923
26528W        W92959  35.688   6.271  11.508
26529W        W92960   7.692   8.547   0.807
26530W        W92961  44.186  42.418  11.858
26531W        W92962  30.194  40.509   4.139
26532W        W92963  31.704   9.689  11.180
26533W        W92964  27.134  38.203   4.835
26534W        W92965  42.748  28.209   2.641
26535W        W92966  21.101  44.613  13.080
26536W        W92967  18.914  42.227  11.921
26537W        W92968  31.898  33.409  12.116
26538W        W92969  12.067  38.580   2.428
26539W        W92970  44.777  32.441   3.761
26540W        W92971  19.625  39.790  12.952
26541W        W92972  29.770   3.973   0.767
26542W        W92973  11.119  19.656   4.068
26543W        W92974  43.581  17.599   0.852
26544W        W92975   9.369  34.890   4.086
26545W        W92976  16.613  37.071  11.033
26546W        W92977  12.204  20.643   2.669
26547W        W92978  19.245  15.277  13.848
26548W        W92979   1.701  15.512  10.512
26549W        W92980  22.080  34.044   3.685
26550W        W92981   8.828  37.517   0.534
26551W        W92982  19.429  37.291  10.093
26552W        W92983  24.175   1.802   3.086
26553W        W92984  23.537   9.090   4.379
26554W        W92985  17.755  13.534  11.522
26555W        W92986  15.775   8.907  11.912
26556W        W92987   4.762  29.123  12.387
26557W        W92988  19.148  12.176  12.009
26558W        W92989  39.144  15.821  12.438
26559W        W92990  16.079  34.895   0.726
26560W        W92991  32.140  36.446   3.112
26561W        W92992  29.991   4.272  14.745
26562W        W92993  44.398  36.842   5.104
26563W        W92994  29.905  19.943  12.556
26564W        W92995  31.088  26.749  12.074
26565W        W92996  15.212  43.355  14.883
26566W        W92997  27.585  19.632   0.323
26567W        W92998   0.910  30.586   5.196
26568W        W92999   6.755   7.470  13.309
26569W        W93000  34.006  23.674   4.774
26570W        W93001  18.969   3.726   1.083
26571W        W93002  22.753  44.153   4.191
26572W        W93003  38.990  14.720   2.791
26573W        W93004  35.301   6.763  11.475
26574W        W93005  22.960  44.718  13.101
26575W        W93006   8.629  27.389  11.174
26576W        W93007   8.427  24.279   4.615
26577W        W93008  37.251  14.235   0.937
26578W        W93009  18.556  36.299  14.053
26579W        W93010   1.242   8.994  12.004
26580W        W93011   4.670  41.410   3.248
26581W        W93012  12.944  37.826  14.156
26582W        W93013  15.406  27.916  13.814
26583W        W93014  31.508  44.679  14.895
26584W        W93015  34.448  41.602  10.081
26585W        W93016   7.494  12.411   0.230
26586W        W93017  32.146  19.616   0.459
26587W        W93018  33.088  44.977   1.734
26588W        W93019  15.132  18.398   2.397
26589W        W93020  12.679  39.854   1.659
26590W        W93021   7.315  39.642  11.407
26591W        W93022  22.183  37.449   0.825
26592W        W93023   9.431   2.948  13.505
26593W        W93024  29.790  19.453  12.423
26594W        W93025   5.292  13.972  13.464
26595W        W93026   4.845  37.598  11.444
26596W        W93027  40.446  41.639   1.367
26597W        W93028  17.073  28.606   0.480
26598W        W93029  20.023   1.698   0.892
26599W        W93030  35.332   9.899   0.737
26600W        W93031  24.600  19.391   2.154
26601W        W93032  44.722  27.138   4.173
26602W        W93033  25.648   8.771   2.797
26603W        W93034  21.691  32.022  12.933
26604W        W93035   7.925  17.936  14.884
26605W        W93036  10.580  44.453  14.370
26606W        W93037  27.931  36.097   4.134
26607W        W93038  33.194  40.401  11.008
26608W        W93039  32.678  41.269   1.504
26609W        W93040   7.146   9.326  11.776
26610W        W93041  26.416  13.118   4.521
26611W        W93042   4.769  42.368  13.854
26612W        W93043  29.447  16.880  13.907
26613W        W93044  37.079   0.311  12.970
26614W        W93045  12.773   4.581  14.756
26615W        W93046   9.872  41.593   4.188
26616W        W93047  39.953  44.864  10.718
26617W        W93048  12.135  25.222  13.002
26618W        W93049   5.304   9.988   4.085
26619W        W93050  33.809   7.562   2.123
26620W        W93051  20.725  29.435   2.386
26621W        W93052  19.319  15.539  14.457
26622W        W93053  32.072  22.998  12.965
26623W        W93054  21.377  28.510   4.408
26624W        W93055  17.150   7.218  13.140
26625W        W93056  30.843  29.501  14.506
26626W        W93057  31.581  21.473   3.698
26627W        W93058   7.324  37.723  12.489
26628W        W93059  13.174   0.632  14.867
26629W        W93060   6.034  23.741   0.596
26630W        W93061   2.434  24.949  12.388
26631W        W93062  19.516  20.209   1.630
26632W        W93063  41.582  19.294  12.475
26633W        W93064  23.750  26.211  13.374
26634W        W93065  19.207   9.846   2.390
26635W        W93066  13.872  19.294  14.304
26636W        W93067  35.352  18.251  12.544
26637W        W93068  14.121  16.968   4.577
26638W        W93069  28.042  32.403  12.474
26639W        W93070   3.451  10.370   5.101
26640W        W93071  20.661  16.853  12.134
26641W        W93072   2.251  24.084  13.982
26642W        W93073  44.827   3.352   1.163
26643W        W93074  17.238   7.646   5.043
26644W        W93075  16.380  16.562   3.898
26645W        W93076  44.267   4.991  12.112
26646W        W93077   1.319  10.886  12.864
26647W        W93078  34.831  18.088   0.907
26648W        W93079  24.009  24.095  13.374
26649W        W93080  11.432  11.301  13.994
26650W        W93081   6.262  28.351  12.497
26651W        W93082  16.614   2.229  12.571
26652W        W93083  33.435   9.422  12.920
26653W        W93084  38.499  11.747  11.990
26654W        W93085  12.634  29.679  11.889
26655W        W93086  15.379  13.091   0.015
26656W        W93087  32.629  10.542  14.406
26657W        W93088   8.869  14.135  13.159
26658W        W93089   6.043  26.066  14.219
26659W        W93090  21.003  34.057   4.005
26660W        W93091   0.868   5.414   1.909
26661W        W93092  15.532  15.607   1.764
26662W        W93093  43.841  39.395   0.074
26663W        W93094   2.916  35.946  12.418
26664W        W93095  43.810  12.928  13.147
26665W        W93096   4.340  34.371   0.739
26666W        W93097  35.602   4.401  10.419
26667W        W93098  39.051  19.023   0.315
26668W        W93099   6.867  19.849   3.296
26669W        W93100   5.590  18.573   2.272
26670W        W93101  18.745  30.824   3.596
26671W        W93102  10.126   6.763   2.679
26672W        W93103  29.221   1.986   3.714
26673W        W93104   1.395  39.308   4.534
26674W        W93105  32.112  16.775   3.266
26675W        W93106  18.902  42.875   2.803
26676W        W93107  16.111  36.931   4.167
26677W        W93108  24.512   9.403   0.211
26678W        W93109  19.807  19.808   3.413
26679W        W93110  22.635  30.655   2.689
26680W        W93111  11.855  32.462   1.223
26681W        W93112  36.933  22.587   0.383
26682W        W93113  36.329  41.683  12.278
26683W        W93114  39.089   7.757   4.535
26684W        W93115   7.708  18.262  11.448
26685W        W93116  20.353  28.473   3.846
26686W        W93117  25.978  22.117   1.369
26687W        W93118  34.463  43.322   1.959
26688W        W93119  20.257  17.740  14.513
26689W        W93120  15.271  30.365  10.646
26690W        W93121  11.761  25.760  14.283
26691W        W93122  24.504   2.442  14.514
26692W        W93123  43.416   2.899   0.464
26693W        W93124  38.984  42.423  14.416
26694W        W93125  40.795  33.436   4.597
26695W        W93126  19.096   5.691   4.540
26696W        W93127  40.652  17.968   4.056
26697W        W93128  32.212  19.233  13.402
26698W        W93129   9.527  18.048  14.380
26699W        W93130  29.698  40.814  14.101
26700W        W93131   6.383  39.785  10.792
26701W        W93132   1.172   9.806  12.536
26702W        W93133  28.569  38.597  10.551
26703W        W93134  34.814  22.017  10.784
26704W        W93135  27.205   1.237   4.929
26705W        W93136  37.999  43.979  11.497
26706W        W93137   4.092  19.479   5.871
26707W        W93138  20.649  22.943  12.039
26708W        W93139  39.285  23.943   2.639
26709W        W93140  29.673  14.654  11.585
26710W        W93141   6.677  36.957  11.614
26711W        W93142  33.632  40.366   2.821
26712W        W93143   2.418  39.472  12.355
26713W        W93144  37.052   5.160   0.353
26714W        W93145  12.224   0.415   0.676
26715W        W93146  35.904  23.604   4.926
26716W        W93147  11.053   9.705  13.035
26717W        W93148   8.313   7.784  13.870
26718W        W93149  35.781  36.834  11.761
26719W        W93150  30.017  15.293   4.449
26720W        W93151  15.575   3.934  14.858
26721W        W93152   4.613  30.528  12.655
26722W        W93153  12.291  15.357  10.965
26723W        W93154  15.575  36.577  11.114
26724W        W93155  35.863  24.997   2.787
26725W        W93156  19.601   6.083  12.644
26726W        W93157  14.254  16.333  10.593
26727W        W93158  30.577  11.371   2.871
26728W        W93159   3.723  42.700  14.414
26729W        W93160  28.583   1.482  12.997
26730W        W93161  29.628  35.399   1.805
26731W        W93162   2.946  20.330  11.883
26732W        W93163  21.622  35.667   2.774
26733W        W93164  26.596   4.809   4.583
26734W        W93165  30.950   6.778  11.864
26735W        W93166  35.375  26.587   1.254
26736W        W93167  31.904  24.748  14.081
26737W        W93168   3.080   3.403   3.377
26738W        W93169  41.031  22.503  13.504
26739W        W93170  22.480  13.093  14.681
26740W        W93171  31.420  19.875  11.960
26741W        W93172  24.503   9.901   3.256
26742W        W93173  10.367  20.671   1.457
26743W        W93174  38.677  23.614  11.223
26744W        W93175   3.811  40.482   5.134
26745W        W93176  44.903  36.677  12.473
26746W        W93177  24.976  23.367  11.923
26747W        W93178  16.185   0.589  13.937
26748W        W93179   2.990   6.637   3.278
26749W        W93180  15.996  25.594   0.943
26750W        W93181  30.573  27.125   3.992
26751W        W93182  39.046  27.499  13.001
26752W        W93183  18.260  39.329   3.583
26753W        W93184  33.688  43.458   3.236
26754W        W93185  19.314  31.314   4.288
26755W        W93186   4.940   7.763  12.855
26756W        W93187   4.678  12.414   3.634
26757W        W93188   3.824  40.298   1.883
26758W        W93189  24.099  36.429  10.787
26759W        W93190  38.088  30.948  12.575
26760W        W93191  35.056   1.972  14.299
26761W        W93192  10.076  20.079  10.692
26762W        W93193  22.027   6.151   2.195
26763W        W93194  39.843  16.264  12.118
26764W        W93195   5.362   8.821   3.662
26765W        W93196  31.120  39.974   4.532
26766W        W93197  40.558   8.222   0.706
26767W        W93198  23.098  24.684  14.496
26768W        W93199  19.629  19.016   3.599
26769W        W93200  37.363  24.676  10.663
26770W        W93201  31.183   1.041  10.437
26771W        W93202  24.886  25.550   4.555
26772W        W93203   3.822   0.224   1.746
26773W        W93204  28.700  11.868  14.627
26774W        W93205  12.606  24.693   5.373
26775W        W93206  30.996  24.730   2.648
26776W        W93207  36.098  33.894   1.635
26777W        W93208  19.208  34.342   1.282
26778W        W93209  11.865  36.988  13.938
26779W        W93210  31.685  25.328   4.302
26780W        W93211  19.510  26.709  14.744
26781W        W93212  39.880  38.897   2.762
26782W        W93213  17.072  41.330   3.575
26783W        W93214  21.248   0.721  13.314
26784W        W93215   1.019   5.267  11.485
26785W        W93216  27.769  25.401   1.133
26786W        W93217  18.796  19.997   3.424
26787W        W93218  35.128   7.259  13.595
26788W        W93219  44.558  15.212   4.517
26789W        W93220  18.994   9.379   2.261
26790W        W93221  44.998  17.806   3.253
26791W        W93222  17.659  36.984  13.525
26792W        W93223  24.882  11.610  13.181
26793W        W93224   9.508  16.965   5.093
26794W        W93225   0.730  39.184   2.217
26795W        W93226  28.418   4.519  12.424
26796W        W93227  16.329  20.165  11.191
26797W        W93228  33.902  18.063   3.119
26798W        W93229  11.422  20.707  13.470
26799W        W93230  25.724   0.083   0.295
26800W        W93231  14.038   6.941  12.564
26801W        W93232  33.438  29.005   2.856
26802W        W93233   7.075   2.779   3.367
26803W        W93234  24.388  23.702  13.300
26804W        W93235  19.711  16.515  14.296
26805W        W93236  27.032  11.847  14.840
26806W        W93237  41.647   9.346   0.254
26807W        W93238  42.432   4.651   3.801
26808W        W93239  39.306  17.650   4.874
26809W        W93240   9.109  22.556   4.648
26810W        W93241   2.359  43.571  14.076
26811W        W93242   6.796  34.502   4.554
26812W        W93243  27.799   3.076  10.261
26813W        W93244   2.781   5.398   2.701
26814W        W93245   0.334  31.633  11.591
26815W        W93246   8.925  22.486   3.781
26816W        W93247   5.886  34.624   4.698
26817W        W93248   7.881  14.289  13.836
26818W        W93249  35.090   5.269   3.613
26819W        W93250  42.418  22.021  10.666
26820W        W93251  15.788  42.582   3.793
26821W        W93252  27.196  12.137   2.767
26822W        W93253  23.064  27.977   4.863
26823W        W93254  31.860  42.369   0.885
26824W        W93255  14.254   3.396  11.812
26825W        W93256  23.720  25.865  14.432
26826W        W93257  26.750  44.238   1.667
26827W        W93258  23.945  33.416  10.884
26828W        W93259  38.586  31.919  14.883
26829W        W93260  32.561   7.555  13.524
26830W        W93261  21.275  11.499  13.064
26831W        W93262  12.765   3.872   4.330
26832W        W93263  26.913  14.102  13.578
26833W        W93264  43.591  39.017   3.300
26834W        W93265   0.803  15.552   2.333
26835W        W93266  10.888  29.857   0.305
26836W        W93267  16.397  37.166  11.883
26837W        W93268  12.101  19.332   3.138
26838W        W93269  13.075   4.900  12.096
26839W        W93270   8.396  33.868   0.898
26840W        W93271  14.662   6.894   1.661
26841W        W93272  22.389  28.008  13.072
26842W        W93273  27.782  16.187   1.929
26843W        W93274  29.591   0.995  11.237
26844W        W93275  16.394  40.676   2.827
26845W        W93276  13.168  14.733  13.499
26846W        W93277  17.626  21.856   3.040
26847W        W93278  33.569  33.408  13.997
26848W        W93279  30.905   8.829  10.431
26849W        W93280  28.145  43.262   0.436
26850W        W93281  13.462  30.614   3.670
26851W        W93282  28.477  24.125  12.264
26852W        W93283  32.885  32.728   4.136
26853W        W93284  21.181  42.150  12.158
26854W        W93285  42.487  29.222   2.692
26855W        W93286  36.311   0.563   3.631
26856W        W93287   6.728  39.292  13.695
26857W        W93288  18.009   2.874   1.010
26858W        W93289  15.073  38.778   4.131
26859W        W93290  36.891   3.423  14.412
26860W        W93291  38.866  35.992  10.041
26861W        W93292  24.026  43.020  11.661
26862W        W93293  13.766  28.145  14.384
26863W        W93294  41.865  10.782   1.723
26864W        W93295  36.475  38.995  11.450
26865W        W93296  37.540  37.245  12.997
26866W        W93297   9.233  27.964  12.435
26867W        W93298  27.052   3.433   1.045
26868W        W93299   7.861   6.780   0.972
26869W        W93300  40.261  27.469   1.975
26870W        W93301   0.419  32.056  14.091
26871W        W93302   6.684  43.509   0.397
26872W        W93303  16.785   2.006  13.802
26873W        W93304  33.668  34.959  13.811
26874W        W93305  28.523  27.037  12.596
26875W        W93306   6.269  20.814  10.170
26876W        W93307  13.734   4.076  12.462
26877W        W93308  43.331  38.224  14.945
26878W        W93309  32.829   3.615  12.438
26879W        W93310  34.544  33.142   1.261
26880W        W93311   1.047  27.690  11.588
26881W        W93312  36.074   1.311  14.871
26882W        W93313  12.877  22.943   3.202
26883W        W93314   8.016  24.223  11.618
26884W        W93315  38.575  31.543   0.781
26885W        W93316  41.325  17.505   2.435
26886W        W93317   6.476  31.375  11.997
26887W        W93318  31.351   8.163  10.692
26888W        W93319   8.224  25.615   0.436
26889W        W93320  43.383  25.073   5.054
26890W        W93321  17.736  42.060  14.679
26891W        W93322  34.157   4.881   2.293
26892W        W93323  28.551  41.479   1.320
26893W        W93324   6.127   2.248   0.323
26894W        W93325  10.885  37.067  14.245
26895W        W93326  41.600  15.689   3.638
26896W        W93327  12.358  22.067  13.460
26897W        W93328  43.346  14.645  11.415
26898W        W93329  36.036   0.785   1.129
26899W        W93330  12.301  30.398  14.934
26900W        W93331  37.516  33.094   4.096
26901W        W93332   9.625   5.161  13.904
26902W        W93333  16.166  13.362  13.054
26903W        W93334  20.264  25.174  12.934
26904W        W93335  30.346   9.859  12.874
26905W        W93336  31.452  34.621   0.903
26906W        W93337   5.120  38.075   1.714
26907W        W93338   1.565  36.969  11.944
26908W        W93339  28.512  18.735  13.524
26909W        W93340  39.066  20.117  11.076
26910W        W93341  15.045   0.070   2.728
26911W        W93342  22.132  37.314  10.753
26912W        W93343  18.113  34.893   1.835
26913W        W93344  42.002  44.784  10.540
26914W        W93345  36.023  23.076   4.207
26915W        W93346  24.814  44.057  11.645
26916W        W93347  38.006  20.751  14.289
26917W        W93348  29.921  17.278  12.015
26918W        W93349   4.723  15.105   4.752
26919W        W93350  23.570  38.635  11.124
26920W        W93351  24.785   8.198   2.858
26921W        W93352  43.161  12.301   2.668
26922W        W93353  25.518   2.921   2.666
26923W        W93354   2.420   8.650   1.219
26924W        W93355   0.953  37.134  13.684
26925W        W93356  24.420  35.802  10.714
26926W        W93357   4.762  41.793  11.805
26927W        W93358  20.615   3.483   0.473
26928W        W93359  43.818  21.047   4.585
26929W        W93360  11.865  11.120  12.074
26930W        W93361  10.185   1.726   5.314
26931W        W93362  14.516  31.706   2.352
26932W        W93363   9.416   2.622   2.735
26933W        W93364  22.497  22.367  11.299
26934W        W93365   2.016   7.161  13.317
26935W        W93366  19.944   6.273   2.226
26936W        W93367  40.624  44.081   4.069
26937W        W93368  27.457  12.256  13.333
26938W        W93369  44.980  43.978  14.178
26939W        W93370  35.020  28.782  12.585
26940W        W93371  26.720  12.726   2.880
26941W        W93372  11.816  35.492   4.990
26942W        W93373   8.290  43.815  11.558
26943W        W93374   2.980  18.066  11.552
26944W        W93375  32.616   4.375   4.754
26945W        W93376   2.523  27.242   1.463
26946W        W93377   2.699   1.345   2.692
26947W        W93378  17.327  20.277  12.321
26948W        W93379  26.190  19.619   1.636
26949W        W93380  26.817   0.698  12.727
26950W        W93381  26.231  25.892   2.460
26951W        W93382  21.198  39.788  13.986
26952W        W93383   0.880  11.585  14.997
26953W        W93384  29.625  31.764  11.131
26954W        W93385  39.738   6.504   3.486
26955W        W93386   8.646  39.986   0.053
26956W        W93387   2.969  28.100   1.011
26957W        W93388  15.027   6.718  13.894
26958W        W93389   0.423  36.365  10.767
26959W        W93390   7.141   7.649  10.561
26960W        W93391  25.355  25.521   3.974
26961W        W93392   0.022   6.194   3.588
26962W        W93393  43.477  10.117  11.530
26963W        W93394  15.203   8.589   2.777
26964W        W93395   0.253  10.190  11.617
26965W        W93396  15.937  42.377  12.116
26966W        W93397  19.908  40.995  11.084
26967W        W93398   6.480  21.538  14.949
26968W        W93399  34.985   6.629   1.883
26969W        W93400  29.645  16.991  11.226
26970W        W93401  16.352  39.925  13.536
26971W        W93402  25.044  35.555  13.975
26972W        W93403  16.716  26.752   1.754
26973W        W93404   0.448  32.505   0.438
26974W        W93405  41.586  17.246  10.956
26975W        W93406  44.719  15.814  14.910
26976W        W93407  33.199  16.103   2.454
26977W        W93408  40.531  41.014  10.249
26978W        W93409  16.240  39.587   0.322
26979W        W93410  14.824  40.878   4.710
26980W        W93411  18.341  18.068  12.007
26981W        W93412  27.960  29.540   4.914
26982W        W93413  15.182  40.780  12.261
26983W        W93414  33.552  11.818  12.446
26984W        W93415  15.095  33.853  13.524
26985W        W93416   1.024  34.918  12.021
26986W        W93417   9.698  21.687  11.570
26987W        W93418  16.181  43.565  14.918
26988W        W93419   1.279  19.255   3.297
26989W        W93420   7.436  26.082  14.378
26990W        W93421  31.641  17.044  10.863
26991W        W93422  36.087  43.801  12.972
26992W        W93423  21.938  41.792  11.646
26993W        W93424   9.621  19.837  11.916
26994W        W93425   1.685  24.910   1.386
26995W        W93426  22.231  15.061   3.209
26996W        W93427   6.335  13.725   0.539
26997W        W93428  44.993  28.536   3.302
26998W        W93429  30.468  35.783  10.957
26999W        W93430  26.486  14.884   0.930
27000W        W93431   8.265  15.499   0.545
27001W        W93432  13.787  18.128  11.515
27002W        W93433  20.755  13.401  12.952
27003W        W93434  14.874   2.764  10.204
27004W        W93435  23.264   3.786  10.758
27005W        W93436  42.357  41.090  11.634
27006W        W93437  24.240  19.809   3.115
27007W        W93438  30.632  30.318  12.494
27008W        W93439   1.268  44.043  11.691
27009W        W93440  31.052  28.662   2.217
27010W        W93441  34.215  12.222   0.843
27011W        W93442   3.837  22.935  10.569
27012W        W93443  38.447  43.114  10.507
27013W        W93444  40.460  44.004  13.741
27014W        W93445  11.778  29.159  14.348
27015W        W93446  44.940  15.530   1.923
27016W        W93447  36.652  25.497  14.354
27017W        W93448  21.376  32.665  13.353
27018W        W93449  32.452   8.167   4.117
27019W        W93450  34.321   5.482   3.181
27020W        W93451  21.484  26.071   2.272
27021W        W93452  19.243  33.449   4.232
27022W        W93453  42.497  30.217  14.346
27023W        W93454  28.994  23.846   1.207
27024W        W93455  30.041  10.210  10.393
27025W        W93456  36.793  32.526  11.276
27026W        W93457  25.648  43.222   3.398
27027W        W93458   9.135  25.525   2.464
27028W        W93459   1.967  15.317  11.279
27029W        W93460  27.904  26.717   2.729
27030W        W93461  28.245   3.707  14.832
27031W        W93462  12.907  23.096   1.754
27032W        W93463  36.094  13.725  10.668
27033W        W93464  21.873  42.332   2.829
27034W        W93465   5.406  30.431   1.367
27035W        W93466  17.180  35.984  11.975
27036W        W93467  29.327  29.047   1.285
27037W        W93468  27.415  17.085  14.127
27038W        W93469  20.064  18.193   1.836
27039W        W93470  19.024  16.769   4.728
27040W        W93471  26.673   8.465  14.116
27041W        W93472  21.118  25.450   0.917
27042W        W93473  30.598  29.988  14.480
27043W        W93474   7.178  19.178   3.904
27044W        W93475  28.683  22.215  12.426
27045W        W93476  33.466   6.315  13.849
27046W        W93477  43.400  35.450   0.870
27047W        W93478  27.283   2.269  14.500
27048W        W93479  40.996   2.216   1.404
27049W        W93480  32.365  41.808  10.934
27050W        W93481   0.779   9.456  13.103
27051W        W93482  25.779  36.980  13.108
27052W        W93483  36.319  44.818  13.437
27053W        W93484   5.635  31.039   1.880
27054W        W93485  28.724  19.690  14.361
27055W        W93486  25.403  43.794   3.163
27056W        W93487   6.443   0.318   1.468
27057W        W93488  13.870  39.831   4.644
27058W        W93489   1.378  33.743   2.078
27059W        W93490   1.967  24.220  12.251
27060W        W93491  15.041  17.876  14.465
27061W        W93492  40.489   2.300  10.977
27062W        W93493   8.708   7.276   3.338
27063W        W93494  23.590   7.997  13.342
27064W        W93495   0.711  25.540  12.047
27065W        W93496  13.822   9.247  12.609
27066W        W93497  20.336  44.498  12.035
27067W        W93498   7.921   8.717  11.249
27068W        W93499  29.108   7.360   1.649
27069W        W93500   9.219  22.230   2.399
27070W        W93501  33.870  19.702  14.962
27071W        W93502  33.570   9.131  13.330
27072W        W93503  13.382  35.065   3.760
27073W        W93504  17.536  34.423   1.254
27074W        W93505  36.524  27.587  14.900
27075W        W93506  15.308   3.950   4.644
27076W        W93507  20.849  35.050  13.229
27077W        W93508   2.902  21.750  13.483
27078W        W93509  18.341  39.357  10.154
27079W        W93510  15.103  22.139  10.592
27080W        W93511   4.772  26.224   2.250
27081W        W93512  24.063  23.982  14.219
27082W        W93513  13.063   9.648  11.982
27083W        W93514  43.789   5.277   0.297
27084W        W93515   0.192  14.867  12.465
27085W        W93516  26.626   1.667  10.570
27086W        W93517   9.130  33.860   4.884
27087W        W93518  22.775  23.390  10.613
27088W        W93519  29.668  42.625   2.872
27089W        W93520   4.452  41.551  13.247
27090W        W93521  15.216  17.290   1.223
27091W        W93522  16.112  27.910   2.827
27092W        W93523  36.969  37.876  10.130
27093W        W93524   3.269   6.668   3.759
27094W        W93525  18.302  14.443   3.588
27095W        W93526   4.654  28.072  12.904
27096W        W93527  41.368  16.789  12.574
27097W        W93528   1.374  20.236   3.380
27098W        W93529   5.658  43.853   3.748
27099W        W93530   0.359  19.872  14.433
27100W        W93531  44.923   2.738  13.086
27101W        W93532  25.073  20.126  12.058
27102W        W93533  43.910  38.621  12.324
27103W        W93534  12.193  27.458  12.495
27104W        W93535   8.477   2.514  13.565
27105W        W93536  40.349   8.779  12.377
27106W        W93537  15.261  30.129  14.382
27107W        W93538  40.545  24.266  10.579
27108W        W93539  11.447   9.789  11.053
27109W        W93540  28.238   5.070  11.568
27110W        W93541  41.608  29.291  12.577
27111W        W93542  35.873  41.005  11.509
27112W        W93543  41.093  44.801   2.790
27113W        W93544  31.724  35.004   0.232
27114W        W93545  27.399  40.827   3.208
27115W        W93546   3.336   3.731  12.913
27116W        W93547   6.669  27.448   3.979
27117W        W93548  18.814   1.311   4.942
27118W        W93549  17.590  26.748   1.723
27119W        W93550  27.615  24.463  10.464
27120W        W93551   7.297  33.927  13.493
27121W        W93552  32.273  15.080  11.300
27122W        W93553  23.408  26.937   4.395
27123W        W93554  25.535   9.991   3.225
27124W        W93555  13.581  37.888  13.359
27125W        W93556  20.736  30.671  14.568
27126W        W93557  27.557  35.464  11.401
27127W        W93558  10.342  15.271   3.419
27128W        W93559  34.423  22.818  13.978
27129W        W93560   5.615  38.595   0.412
27130W        W93561   3.433  12.775  14.352
27131W        W93562  15.724   8.911   1.184
27132W        W93563  22.215  16.262  14.827
27133W        W93564  30.448  12.046   4.582
27134W        W93565  42.094  27.063   3.697
27135W        W93566   0.305   9.806   0.887
27136W        W93567  11.139  30.659   2.879
27137W        W93568  24.729  30.602  11.600
27138W        W93569  41.460  42.549   0.693
27139W        W93570  36.623  27.626   4.133
27140W        W93571  28.008  36.540  12.045
27141W        W93572   7.896  33.272   3.083
27142W        W93573   5.953  18.713  10.675
27143W        W93574  12.346  39.846  12.500
27144W        W93575  15.320  27.727   3.147
27145W        W93576  22.215  40.378  13.362
27146W        W93577  11.032   9.943  11.579
27147W        W93578  19.601   8.006   3.584
27148W        W93579  41.021   1.741   2.179
27149W        W93580  18.565  41.855   1.398
27150W        W93581  30.103  29.543  12.254
27151W        W93582  23.250  14.996  10.796
27152W        W93583   1.418  16.966   4.594
27153W        W93584   6.226  10.207  11.509
27154W        W93585   2.325  36.599   1.337
27155W        W93586  28.125  20.120  14.805
27156W        W93587  40.705  41.731   1.808
27157W        W93588  43.746  14.355  11.555
27158W        W93589  17.831  18.259   0.879
27159W        W93590  43.396  28.243   4.767
27160W        W93591  11.383   6.466   3.402
27161W        W93592  13.892  11.644  14.928
27162W        W93593  28.576  33.502  11.343
27163W        W93594  43.762   3.782   4.345
27164W        W93595   5.309  20.644  14.653
27165W        W93596   3.814  24.537   0.881
27166W        W93597  27.236  42.947   4.848
27167W        W93598  32.557  21.327   0.828
27168W        W93599  15.670  38.436   2.889
27169W        W93600  32.395  19.204  12.908
27170W        W93601  26.662  10.829  12.651
27171W        W93602  41.488  33.981   1.261
27172W        W93603   9.872  17.321  13.911
27173W        W93604  22.466  17.039   1.481
27174W        W93605  22.771   9.353   0.976
27175W        W93606   5.952  29.158  11.017
27176W        W93607   8.575  28.353  11.950
27177W        W93608  35.440  14.592   2.731
27178W        W93609  31.473   8.611   4.245
27179W        W93610  42.543  15.849  11.528
27180W        W93611  12.857  26.555   1.846
27181W        W93612  18.102  21.124  14.781
27182W        W93613  22.956   3.237   3.645
27183W        W93614  39.398  16.370   2.254
27184W        W93615  18.199  14.174   0.301
27185W        W93616  26.774  16.681   3.533
27186W        W93617  10.641  32.235  13.122
27187W        W93618  20.479  26.598   0.864
27188W        W93619  34.825  24.247  11.644
27189W        W93620  36.878  11.690   0.388
27190W        W93621  27.662  24.727   0.975
27191W        W93622  11.875  15.792   4.328
27192W        W93623  29.059  35.788   4.809
27193W        W93624  23.775  21.308   2.729
27194W        W93625  34.430  42.757   1.343
27195W        W93626  28.484  19.742   2.799
27196W        W93627  16.646   1.160  10.735
27197W        W93628  43.001  31.874  11.551
27198W        W93629  20.999  33.645   0.276
27199W        W93630  26.479  11.359  10.667
27200W        W93631   2.599  10.835  11.999
27201W        W93632   9.164  18.602  10.951
27202W        W93633  42.753  22.166  14.866
27203W        W93634  34.986  33.591  13.836
27204W        W93635  41.317   0.964  11.416
27205W        W93636  17.155  17.155   1.698
27206W        W93637  16.635  33.548   0.317
27207W        W93638  33.975  28.906   5.073
27208W        W93639  35.402  22.380  13.454
27209W        W93640  16.122  34.401   3.583
27210W        W93641  30.981   3.100  10.169
27211W        W93642  14.324  18.074   1.430
27212W        W93643   0.500  41.381  12.413
27213W        W93644   2.824   4.734  12.096
27214W        W93645  40.874  38.408   9.721
27215W        W93646  26.941  14.112  12.455
27216W        W93647   1.985  38.541   1.360
27217W        W93648  23.604  34.438   3.379
27218W        W93649  34.109  27.551   0.831
27219W        W93650   1.733  30.035   1.861
27220W        W93651  30.320  42.803  13.504
27221W        W93652  32.864  42.775  12.000
27222W        W93653  44.815   5.891  13.025
27223W        W93654  27.618  11.585   1.531
27224W        W93655   2.451  11.519  10.679
27225W        W93656  11.812  20.247  13.923
27226W        W93657  27.638   0.832   2.783
27227W        W93658  36.094  10.382   1.289
27228W        W93659  37.822  32.070  14.492
27229W        W93660  32.630  34.994  13.010
27230W        W93661  10.582   2.827  11.131
27231W        W93662  28.158  15.165   4.592
27232W        W93663  17.284  43.976   1.358
27233W        W93664  42.355  12.571  13.366
27234W        W93665  20.342  25.646   4.077
27235W        W93666  26.976  15.115   4.060
27236W        W93667  16.103  27.163  14.405
27237W        W93668   9.203  38.091  14.744
27238W        W93669  40.208  11.893  13.905
27239W        W93670  17.011   0.009  11.352
27240W        W93671  16.365  44.055  14.966
27241W        W93672  44.981  20.477   0.741
27242W        W93673  29.212  34.560   0.825
27243W        W93674  41.498  25.591  11.845
27244W        W93675  20.359  37.381  10.603
27245W        W93676  19.261  17.612  14.503
27246W        W93677  25.278  26.721  14.292
27247W        W93678  10.266  18.331  11.258
27248W        W93679   3.232  29.618   2.397
27249W        W93680  12.267  41.144  14.842
27250W        W93681  30.928   1.095   3.817
27251W        W93682  27.089   4.946   4.593
27252W        W93683  44.998  40.565  13.430
27253W        W93684  35.499  26.500  12.411
27254W        W93685  15.770  24.178   2.653
27255W        W93686  13.539  39.319   1.681
27256W        W93687  17.261  43.840  13.822
27257W        W93688  43.380  14.407  14.598
27258W        W93689   0.904   9.702  11.083
27259W        W93690  24.695   3.395  12.898
27260W        W93691  42.867  25.418  14.122
27261W        W93692  32.591  20.538   4.596
27262W        W93693  42.365  29.870   4.155
27263W        W93694  16.908  32.061   0.253
27264W        W93695  34.595  39.780   2.791
27265W        W93696  14.092  28.420   4.104
27266W        W93697   0.899  34.408   2.167
27267W        W93698  42.692   5.922   3.679
27268W        W93699  36.429  20.763  12.946
27269W        W93700  14.268  44.424  14.177
27270W        W93701  42.167  37.582   4.206
27271W        W93702   3.788   4.412  14.556
27272W        W93703  12.141  36.161   0.300
27273W        W93704  13.585  13.839   2.371
27274W        W93705  42.827  16.104  14.960
27275W        W93706  40.065  26.702  14.457
27276W        W93707  10.621  14.486  12.468
27277W        W93708  24.963  21.117   1.638
27278W        W93709  20.127   6.984  14.815
27279W        W93710  12.855  14.138  14.100
27280W        W93711  20.643  10.914  11.015
27281W        W93712  23.711  17.245   1.041
27282W        W93713  17.714  28.092   3.721
27283W        W93714  25.182  25.203   4.324
27284W        W93715   8.317  25.698   1.979
27285W        W93716   3.802  36.623  13.509
27286W        W93717  33.607  29.350   0.683
27287W        W93718  21.668  32.004   4.160
27288W        W93719   5.363  23.782   4.113
27289W        W93720   2.958  25.981   1.608
27290W        W93721  18.284  22.042  11.984
27291W        W93722  25.160  27.713  12.440
27292W        W93723  14.087  28.533   0.864
27293W        W93724   4.401   7.880  14.304
27294W        W93725  22.878  16.650  13.430
27295W        W93726  23.716  30.709   2.495
27296W        W93727  15.333   7.872  12.390
27297W        W93728  11.318  14.373  13.412
27298W        W93729  16.602   9.344  10.331
27299W        W93730  37.964   9.536  14.764
27300W        W93731   3.625  35.196   0.849
27301W        W93732  19.517  29.570   1.229
27302W        W93733  17.271  35.332   4.734
27303W        W93734  28.917   0.402  14.012
27304W        W93735  23.157  28.074  12.189
27305W        W93736  33.126  24.538   4.594
27306W        W93737  16.152  34.904  13.440
27307W        W93738  19.110  36.912   4.265
27308W        W93739  23.593  19.183  14.871
27309W        W93740  21.126   7.768  13.503
27310W        W93741  29.569   1.476  12.009
27311W        W93742   2.355   1.985   3.226
27312W        W93743  21.004  28.957   0.360
27313W        W93744  22.666   2.653  10.267
27314W        W93745  30.068  32.990   0.530
27315W        W93746  42.218  16.195  12.091
27316W        W93747  22.008   7.969  11.130
27317W        W93748  23.797  18.048   1.714
27318W        W93749  25.917   3.110   1.815
27319W        W93750  14.655   9.224  10.977
27320W        W93751  36.860  29.500   4.926
27321W        W93752  26.942  28.546   2.886
27322W        W93753  29.457  12.377   3.433
27323W        W93754  13.681   3.336  14.838
27324W        W93755   5.077   1.700  11.668
27325W        W93756  44.320  34.773  11.372
27326W        W93757  15.978  39.364   4.522
27327W        W93758  32.549  38.410   4.807
27328W        W93759  15.401  26.114   4.389
27329W        W93760  24.499  24.727  12.512
27330W        W93761  33.141  17.783  10.659
27331W        W93762   7.763  34.003  14.901
27332W        W93763  12.116  37.141  10.755
27333W        W93764  20.757  34.999   2.933
27334W        W93765   2.377  33.444   4.890
27335W        W93766  19.190   8.101   4.143
27336W        W93767  43.288  16.917  10.992
27337W        W93768  22.509   5.263  14.512
27338W        W93769  27.526  23.143  11.625
27339W        W93770  42.284  25.301  12.488
27340W        W93771   2.689  40.966   3.335
27341W        W93772  41.889  25.909  11.914
27342W        W93773   8.339  18.222  14.870
27343W        W93774  41.763  31.816   3.166
27344W        W93775  23.976  38.935   1.597
27345W        W93776  30.915  34.754   4.456
27346W        W93777  15.894   2.297   0.265
27347W        W93778  21.386  22.019  14.210
27348W        W93779  40.930  33.427  10.146
27349W        W93780   6.350  31.245  13.799
27350W        W93781  26.866  24.591   0.476
27351W        W93782   0.702   0.980  12.381
27352W        W93783   0.471  28.098  11.996
27353W        W93784  27.118  33.448  11.792
27354W        W93785  42.480   6.034   4.166
27355W        W93786  24.970   9.371   3.177
27356W        W93787  20.701  23.164   1.193
27357W        W93788   8.817  10.107  14.256
27358W        W93789   6.760   4.272   1.878
27359W        W93790  19.063  11.164  10.602
27360W        W93791   4.217  11.730  12.913
27361W        W93792   9.618  42.846   1.397
27362W        W93793  39.452  18.460  13.086
27363W        W93794  38.424  17.616   2.467
27364W        W93795   3.015  24.455  11.608
27365W        W93796  40.939   9.161   0.867
27366W        W93797  20.138   9.786  10.733
27367W        W93798  29.588  24.304  11.534
27368W        W93799  25.890   5.937   9.770
27369W        W93800  16.553  12.251   3.325
27370W        W93801  31.367  20.093   3.880
27371W        W93802  37.391  22.138  12.649
27372W        W93803   0.155  40.059  13.319
27373W        W93804  27.151  19.418   4.780
27374W        W93805   8.425   0.532   1.623
27375W        W93806  29.064   6.271   0.689
27376W        W93807  10.781   1.901   1.107
27377W        W93808  42.793  32.144   0.340
27378W        W93809  10.791   8.349  11.141
27379W        W93810   9.984  15.337   9.786
27380W        W93811  36.953  35.925  11.622
27381W        W93812   9.675   8.200   1.702
27382W        W93813  10.911   6.966  14.510
27383W        W93814  43.456  19.096   0.655
27384W        W93815  14.751   4.788   0.842
27385W        W93816  39.448  32.120   3.595
27386W        W93817  23.468  10.066   3.773
27387W        W93818  30.033  37.597   4.542
27388W        W93819  25.188  40.899  12.722
27389W        W93820  11.875  36.410   3.282
27390W        W93821  29.938  32.026   1.876
27391W        W93822  12.298   9.134   0.551
27392W        W93823  41.347   6.821  14.331
27393W        W93824  40.299  28.316  14.556
27394W        W93825   1.967   3.566  14.835
27395W        W93826  17.452  35.059  11.921
27396W        W93827  11.386  20.660  11.687
27397W        W93828  21.007  44.703  14.144
27398W        W93829  22.929  11.776   3.627
27399W        W93830  37.775  42.794  14.917
27400W        W93831  20.437  31.986   4.550
27401W        W93832   0.284  34.391   3.356
27402W        W93833  36.612  44.467   2.236
27403W        W93834  34.623  36.623   1.002
27404W        W93835  23.069  20.991  12.714
27405W        W93836  40.983  20.790   1.936
27406W        W93837  40.491  43.209  14.355
27407W        W93838  25.515  19.429  12.256
27408W        W93839  19.120  20.646   4.137
27409W        W93840   8.682  16.186  12.389
27410W        W93841   1.999  13.195   2.435
27411W        W93842  29.032   2.705   0.690
27412W        W93843   3.069  18.125   0.502
27413W        W93844   9.773   0.810  12.954
27414W        W93845  37.479  33.753  12.039
27415W        W93846  42.833  31.057  14.472
27416W        W93847  21.363  18.311   1.423
27417W        W93848   8.385   8.378   4.302
27418W        W93849  14.153  33.613  13.765
27419W        W93850   3.990  41.757  11.196
27420W        W93851  39.417  13.367   0.465
27421W        W93852  32.667  19.133  13.896
27422W        W93853  30.707  17.610   4.173
27423W        W93854  20.728   1.170  13.926
27424W        W93855   3.871  15.870  14.495
27425W        W93856  11.695   4.654  12.806
27426W        W93857   2.522  15.132  14.717
27427W        W93858  43.609  21.108  13.111
27428W        W93859   9.204  29.685  13.964
27429W        W93860  34.446  24.958  11.940
27430W        W93861   3.413   7.709   1.740
27431W        W93862  13.728  18.339  12.310
27432W        W93863  28.468  30.928  13.085
27433W        W93864   1.327  30.640  11.987
27434W        W93865  12.596  41.329   4.210
27435W        W93866   6.674  40.379   4.837
27436W        W93867  16.365  22.533   2.122
27437W        W93868  37.625  38.832   4.045
27438W        W93869  12.354  38.547   1.458
27439W        W93870  34.389  26.344  12.595
27440W        W93871  38.969  18.864   0.842
27441W        W93872  43.853   7.656  12.583
27442W        W93873  43.756  25.104   4.318
27443W        W93874  12.274  28.598  13.451
27444W        W93875  34.926  39.722  11.203
27445W        W93876   6.915  42.407  13.278
27446W        W93877  36.991  29.970  12.352
27447W        W93878  33.951  15.491   4.065
27448W        W93879  34.231  42.582  13.893
27449W        W93880  36.905  19.138   3.173
27450W        W93881  40.993  37.053   2.372
27451W        W93882   6.930  26.218   1.265
27452W        W93883  29.180  43.418  13.932
27453W        W93884  36.260  30.672  14.889
27454W        W93885  34.487  19.286   0.260
27455W        W93886   2.439  28.972   4.670
27456W        W93887  15.998  39.871   2.784
27457W        W93888  27.560  34.066  13.475
27458W        W93889  41.363  33.649   1.656
27459W        W93890  35.775   1.041   0.175
27460W        W93891   1.828  19.040   2.547
27461W        W93892  28.582  16.810   3.701
27462W        W93893  30.754  22.507  13.931
27463W        W93894  28.619   8.456   2.037
27464W        W93895   3.982  37.832  11.738
27465W        W93896  11.453   7.145  12.837
27466W        W93897  40.062  21.672   3.216
27467W        W93898  21.176  33.919  14.873
27468W        W93899  38.961  10.962   2.736
27469W        W93900  41.720  34.379   2.005
27470W        W93901  17.546  17.985  11.549
27471W        W93902  21.233  29.156  11.158
27472W        W93903  44.323  24.090   0.858
27473W        W93904  18.029  34.109  14.214
27474W        W93905  33.680  42.349  11.146
27475W        W93906  11.664  35.953  10.677
27476W        W93907  28.035  10.829  12.636
27477W        W93908  39.347  18.615   4.906
27478W        W93909  18.183  12.115   2.370
27479W        W93910  24.165  24.300  12.490
27480W        W93911  44.007  19.287  11.521
27481W        W93912  29.076   6.644  11.486
27482W        W93913   1.017  32.157   1.785
27483W        W93914  24.633  20.651  10.452
27484W        W93915  32.452  36.106  14.458
27485W        W93916  34.391  10.426  13.257
27486W        W93917  25.022  13.530   1.752
27487W        W93918  12.677  23.130  12.065
27488W        W93919  11.043  41.615   2.365
27489W        W93920  28.194  35.821   4.516
27490W        W93921   4.449   0.725  11.526
27491W        W93922   4.478  44.892   4.668
27492W        W93923  44.841   3.246   0.647
27493W        W93924  12.587  38.625   4.197
27494W        W93925  13.427  31.222  11.183
27495W        W93926  18.285  22.262  11.005
27496W        W93927  33.302   7.008  14.904
27497W        W93928  34.896  18.252   0.029
27498W        W93929   8.970  42.367  13.400
27499W        W93930  44.204  26.103   0.349
27500W        W93931  25.461   5.516   4.818
27501W        W93932  40.574   4.752  14.801
27502W        W93933  33.645  27.508  11.120
27503W        W93934  33.164  28.018   1.226
27504W        W93935  11.668  41.413  13.089
27505W        W93936  43.184  10.095   4.045
27506W        W93937  20.165  31.432   2.709
27507W        W93938   1.339  35.911  10.830
27508W        W93939  36.998  25.806   3.661
27509W        W93940  28.996  32.015   1.748
27510W        W93941   1.244  39.389  13.001
27511W        W93942   0.858  19.992  12.563
27512W        W93943  15.062   4.869   4.921
27513W        W93944  32.773  37.098  14.592
27514W        W93945  17.232   5.205  10.259
27515W        W93946   7.908  33.516  14.774
27516W        W93947   4.969   5.849  13.969
27517W        W93948   0.689   1.954   4.305
27518W        W93949   6.893   2.455  14.237
27519W        W93950  19.673  24.203  14.557
27520W        W93951  17.941  19.348   4.945
27521W        W93952  23.201  27.139   0.510
27522W        W93953  21.206  22.492  14.097
27523W        W93954  30.419  24.244   1.454
27524W        W93955  15.839   9.628  13.510
27525W        W93956  36.368  25.974   1.598
27526W        W93957   8.320   3.183  11.762
27527W        W93958  30.100  26.411  11.670
27528W        W93959  30.674  36.323   3.161
27529W        W93960  19.267  12.683  12.007
27530W        W93961  22.788  11.770   2.744
27531W        W93962  11.383   7.610  14.940
27532W        W93963  13.828  28.794  12.045
27533W        W93964   2.199  21.455  11.456
27534W        W93965  38.584  25.871   4.251
27535W        W93966  27.495  10.174  13.625
27536W        W93967  27.861  22.157   3.988
27537W        W93968  27.406   3.384  10.673
27538W        W93969   4.350  34.615   4.148
27539W        W93970   7.226  21.197  14.376
27540W        W93971  36.967  21.595   4.707
27541W        W93972  34.524  33.019  11.627
27542W        W93973   9.678  41.927   3.583
27543W        W93974  37.062  33.063  14.356
27544W        W93975   8.336  33.433   2.358
27545W        W93976  25.789  15.245  13.533
27546W        W93977  14.003   9.663  12.912
27547W        W93978  12.709   6.189   4.928
27548W        W93979  15.562  24.818  14.922
27549W        W93980  26.625  10.302  13.886
27550W        W93981  36.426  20.489   1.760
27551W        W93982  32.524  36.104   0.904
27552W        W93983  37.500   2.410   4.984
27553W        W93984  14.326   6.816  10.710
27554W        W93985  44.255  37.333   4.982
27555W        W93986  43.221  35.502   3.746
27556W        W93987   5.824   2.333  10.593
27557W        W93988  32.162  33.646   3.630
27558W        W93989   4.678  10.388  11.623
27559W        W93990   7.839  24.416   1.920
27560W        W93991  28.949  29.117   4.170
27561W        W93992  12.999  22.126  12.935
27562W        W93993  19.462   1.707  12.594
27563W        W93994   2.452  21.258   4.582
27564W        W93995  40.011   0.820  11.145
27565W        W93996  28.512  35.298   3.043
27566W        W93997  29.651   1.681   4.641
27567W        W93998  37.444   9.927   1.807
27568W        W93999  32.993  40.447   2.941
27569W        W94000  15.157  16.763  11.423
27570W        W94001  23.263  17.596  13.428
27571W        W94002  11.983  32.756   2.181
27572W        W94003  36.331  32.735  12.192
27573W        W94004  44.453   4.052   0.895
27574W        W94005  36.736  29.920   3.623
27575W        W94006  11.873  37.644   3.840
27576W        W94007  15.256  38.924  12.298
27577W        W94008  16.811  25.061   2.086
27578W        W94009   8.397  14.188  14.885
27579W        W94010  11.840  26.072   2.941
27580W        W94011  14.820  23.997  11.688
27581W        W94012  41.656   1.212   4.565
27582W        W94013   5.690  23.100  12.528
27583W        W94014  35.695  33.213   2.326
27584W        W94015  28.411  25.013  10.455
27585W        W94016   4.837  39.179  14.048
27586W        W94017  33.606  39.450   3.097
27587W        W94018  35.335  32.748   1.554
27588W        W94019  32.649   2.049  11.608
27589W        W94020   8.321  24.973  11.927
27590W        W94021  12.170   0.893  10.786
27591W        W94022  11.784  20.255   0.983
27592W        W94023   5.187  40.512  11.961
27593W        W94024  36.096   1.498  11.124
27594W        W94025  39.692  22.005   0.721
27595W        W94026  36.138  21.677  11.644
27596W        W94027  29.644   2.319   5.010
27597W        W94028  20.988  20.061   4.320
27598W        W94029  11.896   4.075  14.481
27599W        W94030  26.049  41.350   3.283
27600W        W94031  30.234   7.254   3.099
27601W        W94032  31.711  26.678   3.162
27602W        W94033  10.266  38.285   2.603
27603W        W94034  35.650  35.419  13.845
27604W        W94035  38.883  40.255   2.598
27605W        W94036   0.762  22.114   1.800
27606W        W94037  43.194  23.966  13.540
27607W        W94038  29.130  31.535  13.285
27608W        W94039  14.649  28.639   1.235
27609W        W94040  18.510  18.099   4.271
27610W        W94041   9.107  14.584   4.588
27611W        W94042  42.266  34.506   2.704
27612W        W94043  41.963  36.570  11.881
27613W        W94044  41.344  35.916   4.778
27614W        W94045  27.753  27.656  11.517
27615W        W94046  19.302   0.890  12.074
27616W        W94047  41.275   4.365  12.203
27617W        W94048   5.136  23.079  11.834
27618W        W94049  23.311   2.811   0.710
27619W        W94050  10.131  36.099  11.405
27620W        W94051  26.112  10.685  14.347
27621W        W94052  15.265   4.388   5.107
27622W        W94053  40.680  10.076  11.609
27623W        W94054  43.319  19.812  13.465
27624W        W94055  24.409   1.002  12.400
27625W        W94056  23.724  29.684  13.407
27626W        W94057  42.948   9.688   4.411
27627W        W94058  37.549  35.019   4.450
27628W        W94059   6.645  32.273   0.189
27629W        W94060   7.646  25.157   1.397
27630W        W94061  23.552  15.363  13.256
27631W        W94062  34.223   6.313   2.462
27632W        W94063  23.636  16.768   2.240
27633W        W94064  23.781  14.904  11.809
27634W        W94065  38.315  14.543   3.995
27635W        W94066  12.770  44.303  11.525
27636W        W94067  21.620  36.851  10.643
27637W        W94068  17.737  16.710   0.196
27638W        W94069  42.449  35.749  11.996
27639W        W94070   9.130  39.667  14.286
27640W        W94071  44.913  16.361   3.213
27641W        W94072  20.572   0.862  11.596
27642W        W94073  24.105  17.080   2.945
27643W        W94074  32.535  30.050   0.005
27644W        W94075  37.399   8.196  11.176
27645W        W94076   6.782  18.115  13.019
27646W        W94077  41.834  20.920   1.362
27647W        W94078  16.492   3.760   2.129
27648W        W94079  16.861   4.896   3.893
27649W        W94080   4.859   5.138   1.975
27650W        W94081  31.347  33.521  10.571
27651W        W94082  31.466  16.508  12.336
27652W        W94083  20.226  13.090   0.444
27653W        W94084  38.458  31.465   2.307
27654W        W94085   4.662  38.423  14.688
27655W        W94086  40.236   6.295  13.799
27656W        W94087   0.271  37.002   4.174
27657W        W94088  28.658  36.560  12.589
27658W        W94089   1.805  39.021   1.328
27659W        W94090  30.029  11.717   3.698
27660W        W94091  12.684   6.897  11.214
27661W        W94092  15.237   2.855  14.320
27662W        W94093   4.359   8.132   2.742
27663W        W94094  39.820   3.323  11.627
27664W        W94095  36.948  42.750  13.870
27665W        W94096  44.245  41.688   5.042
27666W        W94097  25.575  24.432  14.312
27667W        W94098  30.002  15.316  12.739
27668W        W94099  15.131  13.289  11.620
27669W        W94100  41.321  18.510  10.716
27670W        W94101  36.526  37.842   3.161
27671W        W94102   8.847  22.958  14.577
27672W        W94103  16.435  24.203  11.919
27673W        W94104   4.361  32.659   0.955
27674W        W94105  44.398  43.343  13.572
27675W        W94106  43.822  17.660   2.263
27676W        W94107  35.517  42.292   4.081
27677W        W94108  10.179  40.231  14.075
27678W        W94109  44.759  29.513   4.624
27679W        W94110   4.652   6.848  14.350
27680W        W94111  24.080  31.160   5.360
27681W        W94112  28.847  43.854  12.450
27682W        W94113  27.451  40.838   0.284
27683W        W94114  23.788  11.178  14.534
27684W        W94115  38.761   9.319   1.885
27685W        W94116  27.708  37.645  14.088
27686W        W94117  18.298  26.949  12.153
27687W        W94118   9.731  32.066   2.694
27688W        W94119  15.752  34.670  13.717
27689W        W94120   4.801  19.596   4.538
27690W        W94121  13.599   8.762   0.742
27691W        W94122  31.717   4.172   0.800
27692W        W94123  19.504  14.099  13.701
27693W        W94124   5.698  28.431   4.531
27694W        W94125  10.022  39.874  13.406
27695W        W94126  39.289  15.093   1.802
27696W        W94127  26.427  44.891   2.932
27697W        W94128  44.889  14.292   3.186
27698W        W94129  42.422  19.620   1.862
27699W        W94130  40.537  26.615   1.221
27700W        W94131  24.171  24.686   3.793
27701W        W94132  42.791  10.934  12.140
27702W        W94133  24.513   8.415  12.646
27703W        W94134  38.511  10.787   2.899
27704W        W94135   4.291  42.177  13.770
27705W        W94136  27.425  44.752   3.241
27706W        W94137  27.730  30.659  11.514
27707W        W94138  40.019   6.912   3.651
27708W        W94139  32.608  14.924  11.651
27709W        W94140   6.224   4.497  12.461
27710W        W94141  20.826  19.134   4.255
27711W        W94142  18.504  12.278  13.424
27712W        W94143  33.465  30.414  12.610
27713W        W94144  10.911  36.151   2.370
27714W        W94145  16.549  33.675  10.693
27715W        W94146  38.042  11.088  11.166
27716W        W94147  22.249  14.265  10.633
27717W        W94148  11.677  39.583   1.025
27718W        W94149  23.840  35.084  13.866
27719W        W94150  20.443  25.024  11.069
27720W        W94151  15.707  41.331   1.349
27721W        W94152   5.608  37.086   0.443
27722W        W94153  25.756   1.438   1.252
27723W        W94154  17.772  12.672   5.565
27724W        W94155  40.107  27.233   2.396
27725W        W94156  44.328  28.729  13.375
27726W        W94157  29.211  30.064   2.246
27727W        W94158  30.614  27.171  14.819
27728W        W94159  13.932  39.265   0.853
27729W        W94160  39.619   5.902   2.205
27730W        W94161  41.503  27.471   1.208
27731W        W94162  21.137  38.058   1.916
27732W        W94163  21.729  38.419  12.515
27733W        W94164  36.524  20.263  13.119
27734W        W94165  14.761  21.583   0.770
27735W        W94166   7.258   7.764   2.524
27736W        W94167  42.498  24.533  10.759
27737W        W94168  26.416   6.163  10.108
27738W        W94169  13.132  20.551  11.012
27739W        W94170  28.447   0.197   4.173
27740W        W94171   0.152  31.550  12.060
27741W        W94172  12.508  37.771   3.247
27742W        W94173  10.238  27.754   1.367
27743W        W94174  21.144  31.588   0.377
27744W        W94175  41.902  39.911   2.889
27745W        W94176  36.240   1.273  10.687
27746W        W94177  22.757   7.371   4.539
27747W        W94178   9.835  37.044   0.035
27748W        W94179  40.991   1.746  12.889
27749W        W94180   6.154  13.640   0.043
27750W        W94181  38.124  34.163  13.818
27751W        W94182  42.001  32.162   0.887
27752W        W94183   3.473   8.923  13.911
27753W        W94184  30.846  35.534   3.328
27754W        W94185   6.863   7.399  14.336
27755W        W94186  43.360   4.096  14.853
27756W        W94187   4.928  33.588   4.554
27757W        W94188  34.957  34.034   3.712
27758W        W94189   8.415  17.482   4.293
27759W        W94190  23.108  26.458  13.805
27760W        W94191  37.655   5.133   2.018
27761W        W94192  33.788  38.702  10.932
27762W        W94193  44.971  27.790  14.088
27763W        W94194  41.990  31.743  13.541
27764W        W94195  24.167  23.493  10.537
27765W        W94196  12.644  13.359   2.895
27766W        W94197  12.475  36.880  11.538
27767W        W94198  28.672  37.933  14.327
27768W        W94199  34.915  16.372  13.351
27769W        W94200  19.408  37.791   0.826
27770W        W94201   7.841  22.756  11.644
27771W        W94202   5.405  12.391   4.027
27772W        W94203  38.916  31.318  14.342
27773W        W94204  24.632  30.446   0.735
27774W        W94205  41.386  39.305  11.096
27775W        W94206  19.684  34.433   0.743
27776W        W94207  23.073  23.975  13.557
27777W        W94208  25.128  41.784  11.826
27778W        W94209  16.289   6.841   9.685
27779W        W94210  19.591  10.438  14.986
27780W        W94211  41.066  26.886   2.325
27781W        W94212   8.405  32.450  10.695
27782W        W94213  27.722  19.592   2.379
27783W        W94214   9.456   9.148  11.991
27784W        W94215  31.052  25.425  14.257
27785W        W94216   3.475  16.079   3.212
27786W        W94217  38.483  23.327   1.972
27787W        W94218  29.151  23.564   3.755
27788W        W94219  36.318  16.239  13.686
27789W        W94220   6.998   2.226  11.198
27790W        W94221   5.946  37.054   2.736
27791W        W94222  24.834  12.540   4.370
27792W        W94223  11.797  20.326   2.632
27793W        W94224  25.701   5.449  10.532
27794W        W94225   7.494  37.293  12.089
27795W        W94226  31.382  21.662   2.330
27796W        W94227   6.079  19.162  12.512
27797W        W94228   5.784  34.053  10.748
27798W        W94229  14.917   2.315  12.160
27799W        W94230   0.182  14.438  12.867
27800W        W94231  26.173  21.234   2.804
27801W        W94232  40.948  16.331   1.654
27802W        W94233  30.095  35.076   3.507
27803W        W94234  37.976  24.143   1.183
27804W        W94235   1.694  27.420  13.053
27805W        W94236  44.632   7.922  11.541
27806W        W94237   1.461  31.712  12.561
27807W        W94238  43.491  29.949   3.013
27808W        W94239  10.219  36.466  13.822
27809W        W94240  15.644  23.681   2.799
27810W        W94241   1.245   2.288   1.448
27811W        W94242  17.271   9.844   0.298
27812W        W94243   6.336  12.113   4.243
27813W        W94244  20.974  35.610  12.458
27814W        W94245  26.273  33.293  12.005
27815W        W94246   2.005  27.620   3.248
27816W        W94247  17.162  40.311   0.997
27817W        W94248   9.391   5.441   0.537
27818W        W94249  30.409  40.141   1.876
27819W        W94250  11.261  18.328  12.369
27820W        W94251  14.601   9.403  12.098
27821W        W94252  31.882  34.885  10.262
27822W        W94253  33.383  33.475   2.260
27823W        W94254  23.575   5.457   4.118
27824W        W94255  35.587   1.889  12.538
27825W        W94256  31.866  14.701   3.564
27826W        W94257  22.068   3.809  12.034
27827W        W94258  18.696  42.020  10.848
27828W        W94259  17.278   4.755  10.548
27829W        W94260  19.794   8.427  11.743
27830W        W94261  30.667   0.660   3.694
27831W        W94262  38.134  37.430  13.395
27832W        W94263  37.842  22.299  12.798
27833W        W94264  18.677  31.384   3.664
27834W        W94265  23.756  19.589   0.884
27835W        W94266  18.472  18.668   0.932
27836W        W94267  22.045  27.258   2.251
27837W        W94268  24.966  16.735   0.925
27838W        W94269  14.827  12.093  10.666
27839W        W94270  41.875  42.338  14.943
27840W        W94271  38.444  44.573   3.747
27841W        W94272   5.566  41.526   2.188
27842W        W94273  22.228  19.073  12.925
27843W        W94274  19.167  23.335   1.422
27844W        W94275   0.423   5.967   3.344
27845W        W94276  39.081  34.095  10.466
27846W        W94277  17.550  39.589   1.537
27847W        W94278  14.059  24.255   2.330
27848W        W94279   3.965  28.065  13.481
27849W        W94280  42.741   1.861   2.833
27850W        W94281  20.311  22.561  12.774
27851W        W94282  31.521  42.760   1.591
27852W        W94283  44.307  22.141  13.837
27853W        W94284  37.513  29.403   2.731
27854W        W94285  33.367   5.394  13.918
27855W        W94286  25.236  20.559   0.382
27856W        W94287  34.137  19.886   1.259
27857W        W94288  43.462  13.176  12.170
27858W        W94289  27.864  44.586   4.973
27859W        W94290   3.456  41.019   1.052
27860W        W94291  14.981  25.104   1.946
27861W        W94292  25.678  42.526  14.786
27862W        W94293  42.897   4.261   0.018
27863W        W94294  24.584  40.024   0.264
27864W        W94295  18.561  34.959   3.109
27865W        W94296   5.327  41.619  13.052
27866W        W94297  19.730  30.459   3.214
27867W        W94298  14.710  30.001  10.888
27868W        W94299  10.465  35.173  10.709
27869W        W94300  35.058  42.351   0.861
27870W        W94301  31.517  25.814   3.152
27871W        W94302  14.585  18.660  13.486
27872W        W94303  34.215  38.544  12.818
27873W        W94304  38.591  42.280   4.556
27874W        W94305  30.686  24.256   3.714
27875W        W94306  42.771  21.231   2.966
27876W        W94307  40.028  21.604   0.860
27877W        W94308   4.741  22.999  12.140
27878W        W94309  34.339  41.861  12.396
27879W        W94310  20.754  31.065   4.001
27880W        W94311  24.720   7.691  10.451
27881W        W94312  23.583  43.970   3.375
27882W        W94313  30.246  23.988   0.483
27883W        W94314  29.694  30.153   0.939
27884W        W94315   8.302  28.291   3.698
27885W        W94316  35.500  40.801   1.287
27886W        W94317  40.631  14.405  12.956
27887W        W94318  31.726   0.798  11.251
27888W        W94319  12.740  24.351   1.391
27889W        W94320  33.505  27.224   3.279
27890W        W94321  36.400  14.588   2.024
27891W        W94322  27.599  28.971   0.243
27892W        W94323   0.359  26.660  12.106
27893W        W94324  37.348  11.245   2.413
27894W        W94325  12.228   1.399  11.861
27895W        W94326   1.906  21.436   0.756
27896W        W94327  37.897  10.934   1.256
27897W        W94328  17.590   2.202  11.117
27898W        W94329  27.154  23.894   4.591
27899W        W94330  33.381  35.168  13.464
27900W        W94331   4.491  12.290  10.256
27901W        W94332  26.492  40.532   0.443
27902W        W94333  10.309  38.468  14.944
27903W        W94334  40.333  32.837   2.024
27904W        W94335  35.498   7.449   3.777
27905W        W94336  16.101  20.476   2.883
27906W        W94337  39.434  29.520   2.671
27907W        W94338  19.323   0.087   2.592
27908W        W94339  44.654  30.599   4.282
27909W        W94340  16.984  23.536  10.742
27910W        W94341  14.923   6.823   0.677
27911W        W94342  36.448  33.531   4.999
27912W        W94343  32.977  42.294   0.961
27913W        W94344  12.163  16.431   4.567
27914W        W94345  22.234   7.364   4.536
27915W        W94346   6.994  23.742  12.520
27916W        W94347  35.833  15.834   0.397
27917W        W94348  22.628  44.821   4.854
27918W        W94349   2.737  12.190   3.319
27919W        W94350  34.882  22.046  11.281
27920W        W94351  12.705   5.970  13.518
27921W        W94352  16.382  10.349  10.215
27922W        W94353   9.873  28.670   2.050
27923W        W94354   3.435  30.101  11.013
27924W        W94355   8.238  26.691  10.652
27925W        W94356  25.694  33.680   0.635
27926W        W94357  23.733   9.712   1.382
27927W        W94358  38.452  17.428  11.177
27928W        W94359  22.575  21.644   3.432
27929W        W94360  21.366  37.109   2.779
27930W        W94361   5.230  10.444  11.851
27931W        W94362  37.184  13.849  12.931
27932W        W94363  39.086   8.957   4.976
27933W        W94364  17.278  42.427   2.184
27934W        W94365  34.834  13.155   2.680
27935W        W94366  28.388  10.684  13.387
27936W        W94367   3.189  20.261   4.572
27937W        W94368  18.786  32.613   2.452
27938W        W94369  22.961  11.808   2.258
27939W        W94370   1.615   1.310   2.274
27940W        W94371  13.328  17.762   4.517
27941W        W94372  21.542  28.646   2.946
27942W        W94373  25.887  26.701  10.679
27943W        W94374  32.724  22.005  12.605
27944W        W94375   2.214   7.398   4.077
27945W        W94376   3.164   9.941   0.047
27946W        W94377  40.054   7.312   2.425
27947W        W94378  24.766  24.414   3.410
27948W        W94379  31.568   0.393  10.999
27949W        W94380  25.475  19.102   3.047
27950W        W94381   4.689  21.712  13.185
27951W        W94382  32.629  35.689  11.702
27952W        W94383   4.843  40.222  14.947
27953W        W94384   2.814  32.950   1.682
27954W        W94385  16.749  19.669   1.796
27955W        W94386  11.468  25.660  10.038
27956W        W94387  14.771  20.555   2.599
27957W        W94388  37.601  19.817  13.808
27958W        W94389   9.841  20.335  11.881
27959W        W94390  39.177  15.072   3.673
27960W        W94391  20.761  25.362   4.208
27961W        W94392  34.775  42.502  12.660
27962W        W94393  33.660  15.144  13.497
27963W        W94394  12.094  44.402   1.796
27964W        W94395   4.639  27.093  12.085
27965W        W94396  27.036  30.428  14.782
27966W        W94397  43.383  14.605  11.930
27967W        W94398  23.641  35.993   2.238
27968W        W94399   0.037  22.034   0.796
27969W        W94400  37.046  20.042   2.296
27970W        W94401  25.913  13.627  13.029
27971W        W94402   3.143  44.592   4.203
27972W        W94403  24.167  22.263  11.513
27973W        W94404  39.917   8.201   0.017
27974W        W94405  32.448   8.446   2.793
27975W        W94406  13.330  32.940   2.444
27976W        W94407  41.584   9.072  13.026
27977W        W94408  28.545   7.366  11.596
27978W        W94409   1.791  13.335   1.884
27979W        W94410  37.460  20.663  13.484
27980W        W94411  32.645  15.358   3.364
27981W        W94412  16.084   8.793   3.281
27982W        W94413  25.803  42.966  11.945
27983W        W94414   6.467  24.011   3.600
27984W        W94415  11.870   4.314  11.861
27985W        W94416   0.250  12.127  14.745
27986W        W94417  39.965  28.891  11.683
27987W        W94418  41.582   3.233  11.839
27988W        W94419   7.425  22.943  13.422
27989W        W94420   3.018  30.022  10.715
27990W        W94421  30.224  22.523  13.965
27991W        W94422  19.278  41.951   0.642
27992W        W94423  11.469  17.161   2.548
27993W        W94424  25.369   5.664  14.412
27994W        W94425  29.916  30.016  12.311
27995W        W94426  20.276  26.130   4.252
27996W        W94427   4.006  28.985  14.019
27997W        W94428  30.675   3.789  12.117
27998W        W94429   9.458  22.594   1.673
27999W        W94430  26.293   2.465  11.767
28000W        W94431   0.893  33.004   0.245
28001W        W94432  36.056  20.037  11.367
28002W        W94433   5.805  44.711   0.578
28003W        W94434  24.210  39.282  10.726
28004W        W94435  15.251  14.047   4.217
28005W        W94436  12.411  15.185  13.339
28006W        W94437   5.942  30.495  12.937
28007W        W94438  20.180  28.512   1.534
28008W        W94439  11.621   0.501  11.629
28009W        W94440  30.876   0.173   3.638
28010W        W94441  38.227   2.611   2.636
28011W        W94442  12.837  12.323  13.480
28012W        W94443   6.699   6.291   3.381
28013W        W94444  33.599  12.915   2.153
28014W        W94445  42.359   4.423   1.328
28015W        W94446   6.963   1.455  14.595
28016W        W94447   8.455  21.135  11.676
28017W        W94448  32.172  43.828  14.037
28018W        W94449  38.395  32.951  14.702
28019W        W94450   6.336  44.208   4.004
28020W        W94451  14.116  42.976   1.467
28021W        W94452   6.128  43.677  11.499
28022W        W94453  17.529   3.561  11.410
28023W        W94454   2.303  33.763   4.510
28024W        W94455   6.209  12.321   1.687
28025W        W94456  31.083  18.650   3.864
28026W        W94457  11.316   6.055   0.384
28027W        W94458  28.881  44.353  12.687
28028W        W94459  20.871   5.316   0.373
28029W        W94460  43.889  12.156  13.359
28030W        W94461  40.915  31.981   4.666
28031W        W94462  38.607  35.504  10.891
28032W        W94463  28.542  15.911  12.217
28033W        W94464  40.035  35.125   2.515
28034W        W94465  12.155  42.931  10.677
28035W        W94466  19.245  32.144   1.860
28036W        W94467  25.147  25.439  13.889
28037W        W94468  35.535  19.809  13.956
28038W        W94469  25.473  43.939   0.743
28039W        W94470  13.655  38.807   3.163
28040W        W94471  12.157  25.771   4.322
28041W        W94472   9.819   1.696  13.820
28042W        W94473   1.783  29.746  12.939
28043W        W94474   7.493  35.772   4.951
28044W        W94475  15.831  33.531   1.635
28045W        W94476  33.993   9.320  10.386
28046W        W94477   5.203  17.254  10.318
28047W        W94478  10.963  31.182   3.207
28048W        W94479   2.670  32.477  10.980
28049W        W94480  26.286  35.896   2.301
28050W        W94481  28.163   0.801  12.501
28051W        W94482  19.237  21.674   4.043
28052W        W94483  20.217  22.339  10.979
28053W        W94484  29.552  43.222   3.662
28054W        W94485  31.609  14.491   4.377
28055W        W94486   8.530  43.345   2.144
28056W        W94487  43.383  39.831   2.344
28057W        W94488  26.454   3.957  14.373
28058W        W94489  41.317  35.049  13.374
28059W        W94490  18.571  42.499  11.576
28060W        W94491  38.221  44.996  12.832
28061W        W94492  15.070  44.972  12.237
28062W        W94493  39.315  36.031   4.543
28063W        W94494  11.577  14.633   3.065
28064W        W94495  30.209   9.520   1.883
28065W        W94496  40.256  40.310   2.630
28066W        W94497   4.336  19.325  10.778
28067W        W94498  31.451  33.648  11.949
28068W        W94499  16.747  37.960   4.168
28069W        W94500  21.649  38.023   4.579
28070W        W94501   3.407  42.577   0.305
28071W        W94502  36.918   5.669  12.987
28072W        W94503  30.445  30.723   3.807
28073W        W94504  20.792  28.136   2.754
28074W        W94505   6.399  43.388  11.023
28075W        W94506  13.384  18.158  13.969
28076W        W94507  42.798  11.628   3.167
28077W        W94508  15.975   1.324   0.652
28078W        W94509  18.416  25.013   5.536
28079W        W94510  19.221  10.312  13.046
28080W        W94511  28.628  36.151   3.156
28081W        W94512   5.365  12.795   2.661
28082W        W94513  18.091   5.972   1.243
28083W        W94514  13.662  25.165  14.849
28084W        W94515  21.498  40.822   2.651
28085W        W94516  29.439  26.401   4.645
28086W        W94517  16.644  30.094  10.771
28087W        W94518  43.888  38.577   1.467
28088W        W94519  31.845  44.255  13.949
28089W        W94520  26.093  38.102   2.661
28090W        W94521  12.295   4.287  12.336
28091W        W94522  39.932   5.476  10.368
28092W        W94523   7.167  21.543   3.640
28093W        W94524  37.441   8.802  14.678
28094W        W94525   9.789  37.855   0.399
28095W        W94526  20.816  22.503   0.423
28096W        W94527  17.956  37.260  13.171
28097W        W94528   3.465   8.427   4.672
28098W        W94529  23.823  25.105   1.628
28099W        W94530   9.493  22.334  13.137
28100W        W94531  36.976  34.371  13.895
28101W        W94532  38.375   5.850  12.928
28102W        W94533   9.257  36.044  12.504
28103W        W94534  29.606   6.444   0.282
28104W        W94535  42.809  39.592   0.837
28105W        W94536   2.298  31.682  13.974
28106W        W94537   8.504  43.475  14.511
28107W        W94538  33.463  28.894  14.861
28108W        W94539  27.617   4.440  11.960
28109W        W94540  38.734   7.090   5.140
28110W        W94541  16.547  13.086  11.815
28111W        W94542  11.060  27.731  10.448
28112W        W94543  34.813  13.884  14.904
28113W        W94544  35.384  18.865   0.486
28114W        W94545  24.693  31.933  13.453
28115W        W94546  34.101  17.468  10.528
28116W        W94547  36.500  30.420  13.935
28117W        W94548   2.828  33.647  11.647
28118W        W94549   2.510  38.216  11.164
28119W        W94550  30.879  11.041   2.611
28120W        W94551  22.349  15.235  10.625
28121W        W94552   8.334  33.955   2.409
28122W        W94553  35.394   2.421  12.949
28123W        W94554  33.978  36.957  11.497
28124W        W94555  16.518  20.804   1.395
28125W        W94556  38.858   8.213   4.485
28126W        W94557  16.558  34.931   1.835
28127W        W94558  21.068   3.019  11.574
28128W        W94559   7.508  12.397  13.989
28129W        W94560  17.808  43.986  12.570
28130W        W94561   8.822  16.897   5.474
28131W        W94562  28.862  12.799   3.101
28132W        W94563   1.111  38.953  12.336
28133W        W94564  35.980  28.912  14.870
28134W        W94565  22.767  21.862  10.747
28135W        W94566   6.140  34.861   3.817
28136W        W94567  39.013   5.465   0.688
28137W        W94568  40.302  43.732   3.154
28138W        W94569  27.470  40.552  10.821
28139W        W94570  23.252  26.094   3.374
28140W        W94571  14.204   1.876  10.716
28141W        W94572  26.992  34.927  14.105
28142W        W94573  14.687  23.891   1.974
28143W        W94574  28.870  33.992  12.848
28144W        W94575  37.503  41.578  13.076
28145W        W94576  10.823  19.654  13.056
28146W        W94577  15.832  43.408  13.291
28147W        W94578  40.299  11.117  13.355
28148W        W94579  36.176  41.423   0.037
28149W        W94580  27.521  18.143  11.729
28150W        W94581  44.197  16.385   2.889
28151W        W94582  43.430  13.412   0.026
28152W        W94583   2.325  41.826  13.602
28153W        W94584  25.958  33.415   4.413
28154W        W94585  10.339  12.349   4.035
28155W        W94586  11.879  30.911  14.059
28156W        W94587  33.738   1.289  13.819
28157W        W94588  27.408  11.125   1.690
28158W        W94589  38.306   1.357  14.839
28159W        W94590  33.897  30.880   9.586
28160W        W94591  16.862  21.530   0.899
28161W        W94592  17.308  14.163  11.974
28162W        W94593  44.821  11.343  12.543
28163W        W94594  29.716  22.833  13.359
28164W        W94595  31.934   0.243  13.004
28165W        W94596   5.455  12.616  11.212
28166W        W94597   7.899  32.032  10.252
28167W        W94598  27.051   4.165  12.075
28168W        W94599   7.284  15.447  10.078
28169W        W94600   6.902   8.664  14.785
28170W        W94601   2.248  19.929  10.691
28171W        W94602  34.706  37.906  13.357
28172W        W94603  10.749  31.945   4.328
28173W        W94604  10.642   7.405  12.366
28174W        W94605  22.708  14.342  11.573
28175W        W94606  35.859  32.571  10.853
28176W        W94607  18.968  26.435   2.618
28177W        W94608  21.703  40.288  13.417
28178W        W94609  23.900  19.957   2.769
28179W        W94610   4.858   2.908   1.939
28180W        W94611  14.340  11.294   2.450
28181W        W94612  30.418  38.826   3.334
28182W        W94613  30.615  41.729  11.972
28183W        W94614  43.731  32.597   1.095
28184W        W94615  37.630  11.971   3.280
28185W        W94616   4.651   6.468  12.407
28186W        W94617  41.967  17.476  10.692
28187W        W94618  34.306  25.585  14.013
28188W        W94619  15.718  16.809   3.259
28189W        W94620   1.116  20.633  11.153
28190W        W94621  14.088  36.443   3.674
28191W        W94622  15.707  41.187   2.737
28192W        W94623   5.360  36.103   0.840
28193W        W94624  28.076  40.717   1.904
28194W        W94625  16.191  34.525  14.821
28195W        W94626   3.180   3.680  14.751
28196W        W94627  11.282  37.999  11.417
28197W        W94628  21.016   6.265  12.396
28198W        W94629   9.186  25.175  10.721
28199W        W94630  26.693  40.274  13.248
28200W        W94631  34.139  17.124   2.284
28201W        W94632  44.913  11.144   3.323
28202W        W94633  39.575   8.614   1.723
28203W        W94634  40.556  42.314  12.948
28204W        W94635  12.896  37.823   1.830
28205W        W94636   1.473  44.469   3.845
28206W        W94637  26.480  30.050   1.253
28207W        W94638  22.636  17.468   0.002
28208W        W94639  42.457   2.239  12.508
28209W        W94640   9.008  28.711  13.833
28210W        W94641  36.579  21.515  13.932
28211W        W94642  29.353  35.961   4.190
28212W        W94643  16.344  42.768   0.303
28213W        W94644  44.895  44.566  11.556
28214W        W94645  30.252  23.572   4.699
28215W        W94646  11.640  17.113  14.499
28216W        W94647   1.845  12.784  11.646
28217W        W94648  33.628  20.247  14.920
28218W        W94649  26.912  41.684   4.256
28219W        W94650  22.617  28.955   1.773
28220W        W94651  24.011   7.713   1.385
28221W        W94652   9.808  28.184   2.206
28222W        W94653   6.132  44.316   0.739
28223W        W94654  28.524  42.006  11.186
28224W        W94655  11.736   7.278  12.400
28225W        W94656   4.467  18.169   3.223
28226W        W94657   5.284  31.538   3.039
28227W        W94658  34.432  23.506  10.567
28228W        W94659  17.215   6.584  12.507
28229W        W94660  29.732  41.087   0.910
28230W        W94661  19.768   2.605   3.352
28231W        W94662  13.200  10.045  13.489
28232W        W94663  36.993   5.818  10.733
28233W        W94664   3.197  41.290   4.576
28234W        W94665  43.776  31.929  13.368
28235W        W94666  30.908  14.885  12.930
28236W        W94667  35.977  41.381   3.207
28237W        W94668   9.317   3.198  12.520
28238W        W94669  13.548  38.068  12.884
28239W        W94670  20.251  38.156  12.222
28240W        W94671  16.058  44.336   2.420
28241W        W94672  14.573  35.801  13.654
28242W        W94673  28.088  31.588  12.790
28243W        W94674  36.874   7.988  12.015
28244W        W94675  24.546  10.146   5.155
28245W        W94676  22.033  18.755   2.403
28246W        W94677  30.325  40.876  12.654
28247W        W94678   4.029  28.449  11.465
28248W        W94679  17.158  38.450  14.025
28249W        W94680  38.813   8.650   3.167
28250W        W94681  24.783  29.667  12.563
28251W        W94682  41.016  11.924   2.119
28252W        W94683   6.411  35.711  11.569
28253W        W94684  39.874  41.743  13.902
28254W        W94685  31.506   5.285   3.704
28255W        W94686  11.337  21.499  13.650
28256W        W94687  39.388  22.080  13.783
28257W        W94688  28.374  10.000  14.428
28258W        W94689  44.442  15.269  10.229
28259W        W94690   1.572  44.379  14.780
28260W        W94691  41.453   2.019   3.288
28261W        W94692   0.492  14.700   3.724
28262W        W94693  18.786  14.920  11.824
28263W        W94694   2.335  31.054   0.162
28264W        W94695   6.274  28.611  10.393
28265W        W94696  16.833  24.199   0.025
28266W        W94697  39.095  22.166  12.487
28267W        W94698  43.934  15.622   0.386
28268W        W94699   5.053  31.655   1.506
28269W        W94700  42.362  35.230   3.338
28270W        W94701   1.809   8.910  10.407
28271W        W94702  25.529  29.620   3.181
28272W        W94703  22.037  43.674  11.997
28273W        W94704  15.352  33.431   1.806
28274W        W94705  21.626  29.955  14.051
28275W        W94706  30.655  16.234   2.231
28276W        W94707  44.396  34.611   3.749
28277W        W94708  39.908  19.545   4.201
28278W        W94709  15.911  29.692   3.427
28279W        W94710  33.634  29.374  14.783
28280W        W94711  33.940  36.177  10.898
28281W        W94712  27.890  16.330   3.993
28282W        W94713  41.350  10.650   1.799
28283W        W94714  42.819   9.191   1.690
28284W        W94715   9.094   6.409  11.631
28285W        W94716  41.253  13.227   1.477
28286W        W94717  14.882   1.331  14.113
28287W        W94718   5.664  39.120   0.293
28288W        W94719  14.301  42.969   4.816
28289W        W94720  32.390  15.328   4.356
28290W        W94721  29.902  13.867   3.013
28291W        W94722  43.893  38.993  11.962
28292W        W94723  26.617  19.330   4.747
28293W        W94724  18.316  20.307  12.772
28294W        W94725  24.758  37.121  13.276
28295W        W94726  43.909   4.112   2.519
28296W        W94727  11.871  33.240  11.352
28297W        W94728  27.233   0.734  11.584
28298W        W94729  32.148  16.012  14.068
28299W        W94730   5.416   3.126  14.477
28300W        W94731   4.070  31.662   1.316
28301W        W94732  32.466  33.070   4.166
28302W        W94733  37.880   4.685  13.903
28303W        W94734  23.275   3.375  12.549
28304W        W94735   8.937  36.342   4.146
28305W        W94736  21.954   2.416  11.519
28306W        W94737  37.535  19.505  14.725
28307W        W94738  29.503  30.384  14.819
28308W        W94739  32.653  16.827   2.593
28309W        W94740  27.479  14.741  14.529
28310W        W94741   8.385  12.758  13.478
28311W        W94742   3.811  33.122   2.109
28312W        W94743  15.713   0.495  11.451
28313W        W94744  29.955  23.090  10.696
28314W        W94745  26.590  33.896   3.979
28315W        W94746  31.580  28.241  13.891
28316W        W94747  12.134  26.621   4.378
28317W        W94748  34.903  21.687   0.992
28318W        W94749  28.593   5.914   3.789
28319W        W94750  21.101  40.770   3.224
28320W        W94751  29.406  36.166   1.286
28321W        W94752  24.462  10.099   1.883
28322W        W94753  11.670  38.732   0.743
28323W        W94754  42.884  42.251  14.360
28324W        W94755  22.254  41.474   1.410
28325W        W94756   2.136  28.979  13.064
28326W        W94757  17.157  33.633  14.383
28327W        W94758  27.014   2.944   1.283
28328W        W94759  33.148  37.462   1.193
28329W        W94760   1.515  11.902  12.924
28330W        W94761  35.074  44.959  12.377
28331W        W94762  19.851   3.576   1.333
28332W        W94763  42.327  30.131   4.602
28333W        W94764  11.372  30.574  13.408
28334W        W94765  40.597  19.678   4.124
28335W        W94766  33.899  40.887  13.428
28336W        W94767  44.531   6.669  12.651
28337W        W94768  23.581  25.608   2.885
28338W        W94769  15.094  27.490  11.487
28339W        W94770  10.568  23.098  13.701
28340W        W94771  29.179  30.702  11.677
28341W        W94772  26.671  33.195   0.377
28342W        W94773   2.459   7.248  13.602
28343W        W94774  14.013  44.290  12.023
28344W        W94775   5.203  29.149  12.644
28345W        W94776  37.187  15.548  12.532
28346W        W94777  18.649  20.498  13.115
28347W        W94778  18.785  43.674   1.329
28348W        W94779  25.783  29.446   4.481
28349W        W94780   3.520  15.693   3.625
28350W        W94781  34.631  12.627  14.656
28351W        W94782  33.132  12.118  11.627
28352W        W94783  22.368  20.120  14.985
28353W        W94784  41.326  41.756   0.426
28354W        W94785  15.857  20.318  12.935
28355W        W94786  28.913  21.694   3.147
28356W        W94787  21.937  32.515  10.719
28357W        W94788  44.502  28.475   0.714
28358W        W94789  43.407  37.971  12.851
28359W        W94790  12.115  10.706   3.520
28360W        W94791  12.610  18.744   1.388
28361W        W94792  11.261  25.229   0.701
28362W        W94793   7.146  12.763   4.327
28363W        W94794  37.314  29.667   3.214
28364W        W94795  43.312   6.800  13.381
28365W        W94796   4.886  43.881  12.058
28366W        W94797  27.614  27.977  11.124
28367W        W94798   4.100  20.576   1.671
28368W        W94799  11.644  44.048   2.803
28369W        W94800  12.309   2.810  14.713
28370W        W94801  44.385  23.953   4.672
28371W        W94802   8.661   7.004  14.739
28372W        W94803  28.955  41.307   2.832
28373W        W94804   2.550  17.460   9.869
28374W        W94805  41.356   3.261  12.856
28375W        W94806  14.600  24.468  11.243
28376W        W94807  21.524  19.738  13.260
28377W        W94808   8.549  11.977  12.089
28378W        W94809  34.081  25.509   1.190
28379W        W94810  12.233  25.786   2.702
28380W        W94811  36.980   3.708   2.161
28381W        W94812  25.443  31.478   2.301
28382W        W94813  23.611  42.723  12.550
28383W        W94814  28.476  28.255  13.670
28384W        W94815  11.507  37.235  13.639
28385W        W94816   7.313  26.154  13.468
28386W        W94817  22.155  27.467   4.693
28387W        W94818  33.590  27.237  13.488
28388W        W94819   3.420  30.016   4.902
28389W        W94820  34.901  18.522   4.117
28390W        W94821  31.430  10.174   4.392
28391W        W94822  43.860  11.200   4.511
28392W        W94823  20.789  31.572   3.936
28393W        W94824   6.730  15.910  13.141
28394W        W94825  31.148   8.472   3.199
28395W        W94826  31.933  34.428  12.799
28396W        W94827  32.702   0.223  12.653
28397W        W94828  25.209  29.981   2.990
28398W        W94829  26.030  18.539  13.031
28399W        W94830  24.968  13.722  13.055
28400W        W94831  29.698  33.063  11.969
28401W        W94832   4.820  29.344  11.618
28402W        W94833  38.355  18.783  10.929
28403W        W94834  18.717   2.406   4.476
28404W        W94835  34.215  30.863  13.575
28405W        W94836  29.144  12.357  10.874
28406W        W94837  20.238  42.824   3.390
28407W        W94838  19.103  15.994  12.168
28408W        W94839  22.029  37.492   2.338
28409W        W94840  16.663  12.736  13.419
28410W        W94841  23.255  28.601   4.025
28411W        W94842   9.651   6.309   2.479
28412W        W94843  42.410  27.768   1.167
28413W        W94844  43.594  26.396  11.094
28414W        W94845  32.610  27.159  10.982
28415W        W94846  38.680  19.975   2.311
28416W        W94847  28.937  21.301   1.422
28417W        W94848  10.694  42.803   4.601
28418W        W94849   7.685  28.604   3.574
28419W        W94850   7.219  17.710   4.887
28420W        W94851  42.715  26.067   4.037
28421W        W94852  31.507  33.999  14.937
28422W        W94853  23.672   3.099   3.267
28423W        W94854  14.742  22.948  10.680
28424W        W94855   6.493   5.381   3.120
28425W        W94856  20.075  13.080   3.240
28426W        W94857   4.970  43.907   4.319
28427W        W94858  14.167  42.414   4.021
28428W        W94859  10.237  31.677   3.216
28429W        W94860   0.927  28.227   2.669
28430W        W94861  21.897  16.206  10.944
28431W        W94862   8.301  32.432   2.176
28432W        W94863  11.243  12.482  11.721
28433W        W94864  19.565  17.325  10.117
28434W        W94865  26.155  13.736  11.744
28435W        W94866   8.212   4.187   0.317
28436W        W94867  11.949  28.841   1.652
28437W        W94868   2.678  14.118   0.265
28438W        W94869  39.577   9.371  14.313
28439W        W94870  35.788  17.743  14.124
28440W        W94871  16.173  43.369  12.498
28441W        W94872   9.416  19.549  10.465
28442W        W94873  28.680  36.042   5.304
28443W        W94874  39.986  36.444  12.582
28444W        W94875  42.255  31.343  12.909
28445W        W94876  40.973   2.997  14.855
28446W        W94877  20.576  34.852  11.008
28447W        W94878  40.179   2.711   1.801
28448W        W94879  43.843  34.112  13.886
28449W        W94880  34.844  40.460  12.156
28450W        W94881   3.742   5.707  11.211
28451W        W94882   4.358  29.981  12.201
28452W        W94883  40.947  43.893  11.132
28453W        W94884  19.533  23.929  11.183
28454W        W94885  10.651  29.081  14.802
28455W        W94886  43.800  43.924  14.061
28456W        W94887  24.266  37.812   2.400
28457W        W94888  10.318  23.190   0.827
28458W        W94889  18.937  35.911   2.855
28459W        W94890  37.937  24.689   2.084
28460W        W94891  37.955  23.774  10.810
28461W        W94892  41.800  41.454  11.861
28462W        W94893  26.850  37.409  13.922
28463W        W94894  13.197  33.052   1.956
28464W        W94895  24.249  27.393  11.603
28465W        W94896  10.130  36.551  13.315
28466W        W94897  26.718   4.474  10.892
28467W        W94898   4.260  42.919   0.813
28468W        W94899  16.162   9.890  12.871
28469W        W94900  30.232  14.799   4.423
28470W        W94901  31.111  20.324  10.494
28471W        W94902  26.692  22.658   0.422
28472W        W94903  21.973  40.383   0.167
28473W        W94904  10.378  34.694  10.569
28474W        W94905  39.484  24.464  13.951
28475W        W94906  22.558  27.389  13.701
28476W        W94907  14.202  40.055   2.348
28477W        W94908  33.358   8.269   0.367
28478W        W94909  22.580  17.340  11.334
28479W        W94910   3.249  12.445   1.005
28480W        W94911  42.838  23.207  13.817
28481W        W94912  40.378   3.261   4.384
28482W        W94913   0.057  44.940   3.183
28483W        W94914  10.386  16.537  10.216
28484W        W94915  30.599  16.170  13.755
28485W        W94916  37.440  40.785  13.835
28486W        W94917  44.267  39.104   2.231
28487W        W94918   7.428  25.485   2.009
28488W        W94919  38.743   0.055  12.907
28489W        W94920  22.676  36.820  12.922
28490W        W94921  30.075   3.429   2.126
28491W        W94922   0.804  16.285  13.891
28492W        W94923  21.068   6.476  14.843
28493W        W94924   4.500  35.936  11.649
28494W        W94925  36.396  16.691   0.272
28495W        W94926  11.632  23.575  13.443
28496W        W94927  35.165   4.980   2.320
28497W        W94928  44.913  31.582   2.157
28498W        W94929  36.072  30.112  13.873
28499W        W94930  18.153   4.071   2.685
28500W        W94931  13.758  31.413   1.924
28501W        W94932  11.629  10.546   0.713
28502W        W94933  40.370  41.497  14.040
28503W        W94934   2.326  39.568  10.287
28504W        W94935  29.247  30.266  13.435
28505W        W94936   7.695  34.107  12.116
28506W        W94937  10.459  31.966  10.949
28507W        W94938  19.569  15.134  11.533
28508W        W94939  36.425   5.739  14.227
28509W        W94940  31.341  21.735   4.117
28510W        W94941  39.936   5.853  13.039
28511W        W94942  33.670  33.568   4.135
28512W        W94943  20.079   4.378  12.660
28513W        W94944  13.680  22.871  12.018
28514W        W94945  18.778  33.657   4.136
28515W        W94946   8.628  14.119   3.307
28516W        W94947  36.014  25.644  12.613
28517W        W94948   6.368   9.546  14.836
28518W        W94949  22.390  20.417  13.412
28519W        W94950  14.714  11.663   0.225
28520W        W94951   7.891   1.736  14.200
28521W        W94952  41.721  38.468   3.143
28522W        W94953  28.512  22.395   0.424
28523W        W94954  29.153   2.247   1.832
28524W        W94955  19.926  33.596  13.762
28525W        W94956  42.923   2.864   3.194
28526W        W94957  13.013   6.106  10.332
28527W        W94958  26.135  11.193  13.406
28528W        W94959  14.502  23.113  14.329
28529W        W94960   0.174   4.394   1.617
28530W        W94961  41.051  35.952  13.755
28531W        W94962  36.344  11.574   4.172
28532W        W94963  12.255  30.886  11.464
28533W        W94964   6.817  29.579   4.357
28534W        W94965   8.629  33.716   4.929
28535W        W94966  29.773  41.256  11.639
28536W        W94967  28.404  12.034   1.788
28537W        W94968  39.761  10.688   4.330
28538W        W94969  36.925  44.725  10.982
28539W        W94970  18.136  12.994  13.990
28540W        W94971  20.706  19.565  14.904
28541W        W94972   6.885  10.731  12.510
28542W        W94973  13.142  36.059  12.278
28543W        W94974  25.817  27.678   2.904
28544W        W94975  16.092  39.320  14.409
28545W        W94976  20.190  15.200   4.967
28546W        W94977  24.663  24.267   2.435
28547W        W94978  31.992  25.121  12.063
28548W        W94979   8.119  37.532  13.734
28549W        W94980  42.360  16.456  13.815
28550W        W94981  27.506  33.421   3.204
28551W        W94982   8.333  19.222   2.191
28552W        W94983  29.935  39.007  11.696
28553W        W94984  32.063  31.408   3.834
28554W        W94985  26.715   2.403  13.578
28555W        W94986   3.802  21.765   2.727
28556W        W94987  41.929   6.217   2.049
28557W        W94988  39.058  42.865   3.270
28558W        W94989   9.191   8.459  14.834
28559W        W94990  38.807   3.230  11.924
28560W        W94991  23.344  17.171   0.163
28561W        W94992   8.092  31.116   0.581
28562W        W94993   2.715   3.495  14.919
28563W        W94994  33.962  36.634   4.119
28564W        W94995  22.576  33.343  12.003
28565W        W94996   9.729  43.469   3.712
28566W        W94997  44.411  41.765  13.948
28567W        W94998  22.730   6.529   3.007
28568W        W94999   5.764  27.836   3.850
28569W        W95000   2.299  36.576  12.865
28570W        W95001  21.032  18.741   9.876
28571W        W95002  10.282   1.382   3.190
28572W        W95003  39.181  29.022   2.398
28573W        W95004  32.723  23.723  11.217
28574W        W95005  16.951   0.296  12.158
28575W        W95006  13.704  12.456   1.984
28576W        W95007  44.313  17.527  10.588
28577W        W95008   6.419  42.571  14.017
28578W        W95009  19.113  37.929   3.220
28579W        W95010  18.181   3.518  14.963
28580W        W95011   9.152  28.132  14.914
28581W        W95012   0.906   0.360   4.426
28582W        W95013   4.902  10.237   4.276
28583W        W95014  30.834  41.937   4.175
28584W        W95015  43.114  40.282   9.908
28585W        W95016  24.208   2.475  13.254
28586W        W95017   7.254  23.064  13.888
28587W        W95018  31.357   2.914   3.192
28588W        W95019   6.404  44.397  10.080
28589W        W95020  20.364   7.814  12.149
28590W        W95021   9.933   1.495   1.837
28591W        W95022  40.908  32.084  12.051
28592W        W95023   4.806  42.170  11.411
28593W        W95024  26.908  24.091   5.008
28594W        W95025  31.868   5.830   2.521
28595W        W95026  38.969  41.957  12.557
28596W        W95027  12.747   4.386  10.710
28597W        W95028  27.961  27.746   0.659
28598W        W95029   5.895  22.944  13.948
28599W        W95030  17.235  41.308   1.097
28600W        W95031  28.601  43.484   4.484
28601W        W95032  33.802  30.099   0.406
28602W        W95033  43.058  12.643   4.904
28603W        W95034  38.354   7.272   4.433
28604W        W95035  34.128  41.542  14.850
28605W        W95036   6.714  38.194   2.064
28606W        W95037  21.089  20.121  11.469
28607W        W95038  14.678  38.080  11.053
28608W        W95039   8.944  30.473   1.279
28609W        W95040  41.392  23.317   3.252
28610W        W95041   2.727   1.340  10.673
28611W        W95042   4.900  26.494  11.073
28612W        W95043   3.247  42.724   0.778
28613W        W95044  31.888  31.527  13.703
28614W        W95045  22.534  24.691  11.111
28615W        W95046  13.195  33.556   1.322
28616W        W95047  26.086  17.477  12.848
28617W        W95048  29.935  16.295  14.571
28618W        W95049   6.863  12.212  11.405
28619W        W95050  38.008   2.324   4.907
28620W        W95051  27.547  23.237   3.193
28621W        W95052  30.000  17.793   2.025
28622W        W95053  29.353   9.752   1.891
28623W        W95054  21.596   1.191   0.934
28624W        W95055  23.935  41.652  12.423
28625W        W95056  27.559   5.371   1.920
28626W        W95057  37.422  17.495   2.747
28627W        W95058  30.391   0.268  12.044
28628W        W95059  41.873  29.046   0.428
28629W        W95060   2.099  22.815   1.465
28630W        W95061  31.763  18.111   4.829
28631W        W95062  28.447  37.519   3.242
28632W        W95063  12.299   8.858  11.995
28633W        W95064  22.198  27.593  14.961
28634W        W95065   8.298  44.685  13.855
28635W        W95066  42.429  17.578  13.901
28636W        W95067  32.526  33.640  14.228
28637W        W95068  26.047  23.188   0.665
28638W        W95069  25.604  18.710  10.045
28639W        W95070   0.793  20.948  14.860
28640W        W95071   3.842  14.973  10.744
28641W        W95072  22.100  14.804   2.787
28642W        W95073  38.861  22.946   3.278
28643W        W95074  20.193  28.838   0.070
28644W        W95075  35.940  15.283  12.140
28645W        W95076  31.165  28.079   4.535
28646W        W95077  43.145   9.939  11.915
28647W        W95078  25.043  21.417   0.296
28648W        W95079  22.097  43.247  12.673
28649W        W95080  27.366  32.686  10.145
28650W        W95081  23.688  35.736  13.052
28651W        W95082  26.795   6.925  13.046
28652W        W95083   5.639  24.029  12.004
28653W        W95084  43.803   8.699   1.010
28654W        W95085  44.283  42.055   2.123
28655W        W95086  44.485  33.365  14.164
28656W        W95087  34.334  25.043   4.860
28657W        W95088  29.266  25.130  13.578
28658W        W95089   1.447  39.807   0.914
28659W        W95090   0.766  23.261   0.490
28660W        W95091  28.490  12.257   4.180
28661W        W95092  14.811  21.442   4.480
28662W        W95093  22.072   0.633  12.875
28663W        W95094  23.680  44.532  11.115
28664W        W95095   0.891  27.672  13.980
28665W        W95096  39.084  33.671   0.372
28666W        W95097   9.753  18.161  11.513
28667W        W95098  34.398  11.562   3.155
28668W        W95099  26.436  34.649  10.983
28669W        W95100   8.228  22.919   2.777
28670W        W95101  39.570  28.832   1.415
28671W        W95102  29.892   0.727  11.653
28672W        W95103  24.142  40.619  12.521
28673W        W95104  38.343  40.242   3.294
28674W        W95105  10.572  18.985   0.288
28675W        W95106   9.142  11.844  11.604
28676W        W95107  12.110  10.440  10.868
28677W        W95108  43.309  23.212  10.634
28678W        W95109  18.115  18.169   4.609
28679W        W95110  19.888  16.655   3.596
28680W        W95111  21.817  11.560  14.479
28681W        W95112  33.011  28.750   3.755
28682W        W95113  18.642  38.380  10.160
28683W        W95114  38.945  37.971  13.475
28684W        W95115  13.462  39.558   2.142
28685W        W95116  31.379   6.844  14.966
28686W        W95117  41.024  28.403  11.144
28687W        W95118   1.289   7.191   4.206
28688W        W95119  43.441   9.594  11.561
28689W        W95120   0.312  37.867  12.709
28690W        W95121  15.484  29.579   1.262
28691W        W95122  37.626  13.700   2.776
28692W        W95123  15.060  17.083   4.038
28693W        W95124  20.698  18.996  13.795
28694W        W95125  33.121  39.006   4.198
28695W        W95126  38.108   6.485  14.011
28696W        W95127  17.669  40.478   0.890
28697W        W95128  11.248  31.143   1.605
28698W        W95129  15.264  35.797  14.243
28699W        W95130  33.977  20.738   0.792
28700W        W95131  12.698  11.826  11.573
28701W        W95132  14.626   1.878   1.224
28702W        W95133  25.092  18.237  12.207
28703W        W95134  33.498  37.491  11.963
28704W        W95135  23.042  22.437   9.921
28705W        W95136  21.441  20.482  10.815
28706W        W95137   4.717  40.889   1.691
28707W        W95138  10.175  29.187   3.134
28708W        W95139  16.845  14.807   3.103
28709W        W95140   6.676   4.903   1.062
28710W        W95141  30.844  22.476   3.053
28711W        W95142   1.357  16.481  11.829
28712W        W95143  36.985  12.248   2.784
28713W        W95144  28.901   2.669  14.021
28714W        W95145  41.527  16.176   4.725
28715W        W95146  15.421  10.351  14.333
28716W        W95147  34.113  12.972  13.522
28717W        W95148  41.011  29.650  11.427
28718W        W95149  25.949  27.887  11.881
28719W        W95150  14.138  32.138  13.354
28720W        W95151   2.701   6.860  11.057
28721W        W95152  36.630  16.836   4.968
28722W        W95153  44.955  29.679   4.149
28723W        W95154   6.888  28.077  10.928
28724W        W95155  16.548  13.845   3.218
28725W        W95156  39.759  19.484  11.388
28726W        W95157   4.228  38.002   2.023
28727W        W95158   4.855  13.771  12.336
28728W        W95159  23.579  32.350   9.863
28729W        W95160  12.693   5.683   3.218
28730W        W95161   3.409  29.666  10.705
28731W        W95162  23.905  35.925  10.805
28732W        W95163  37.249  34.995  11.109
28733W        W95164  28.197  12.571  14.463
28734W        W95165   9.747  42.088  13.873
28735W        W95166  38.184   7.378  10.935
28736W        W95167  27.471  38.069  13.821
28737W        W95168  42.924  21.280  11.426
28738W        W95169  24.589  18.192  13.963
28739W        W95170  35.726  36.023  11.146
28740W        W95171   0.866  32.632  10.596
28741W        W95172   4.005  17.317   0.809
28742W        W95173  12.311  34.127   0.533
28743W        W95174  19.822   5.667  13.614
28744W        W95175   6.749  15.117   1.283
28745W        W95176  25.517  26.621  11.546
28746W        W95177  43.217  17.184  12.924
28747W        W95178  18.573  32.506  12.635
28748W        W95179  25.136  38.489  12.610
28749W        W95180   8.559  27.593  13.943
28750W        W95181   7.843  11.872  13.523
28751W        W95182  32.014  31.837   0.873
28752W        W95183  44.259  40.105   2.275
28753W        W95184  38.821  12.198   2.299
28754W        W95185  11.386   3.778  11.591
28755W        W95186  12.749  14.621   4.236
28756W        W95187  39.469   6.351   0.933
28757W        W95188  18.916   6.774  11.567
28758W        W95189  29.441   6.598   2.399
28759W        W95190   0.967  24.937   3.613
28760W        W95191   4.243  12.601   4.337
28761W        W95192  20.138   4.973  14.833
28762W        W95193  14.833  20.831   0.275
28763W        W95194  20.778  44.277  11.624
28764W        W95195  44.753  32.562  12.019
28765W        W95196  27.084   9.412   2.098
28766W        W95197  28.879  31.150  12.862
28767W        W95198  33.846  36.372   2.065
28768W        W95199   4.180  33.439  11.843
28769W        W95200  32.140   4.348  10.810
28770W        W95201  23.260  25.486  13.921
28771W        W95202   7.899  21.193   2.227
28772W        W95203  17.726   5.348   0.959
28773W        W95204  39.391   5.351   1.355
28774W        W95205   1.136  27.753  13.548
28775W        W95206  10.562   7.285  10.691
28776W        W95207  11.558  29.467   1.515
28777W        W95208  14.135  18.232   4.832
28778W        W95209  42.351  14.648  12.137
28779W        W95210  37.352   5.899  13.638
28780W        W95211  28.997  39.519  13.722
28781W        W95212   6.894  15.189   3.576
28782W        W95213   2.344  34.298   3.190
28783W        W95214   3.008   4.308  12.562
28784W        W95215  31.197  24.214   3.759
28785W        W95216  26.587  35.189   1.696
28786W        W95217   8.099  15.582   0.041
28787W        W95218  28.720   5.709   3.346
28788W        W95219  25.254   4.384  12.076
28789W        W95220  37.869  20.662  10.845
28790W        W95221  29.951  44.792  10.638
28791W        W95222  14.352  37.004  11.125
28792W        W95223  22.666   6.356  10.349
28793W        W95224  19.292   3.467  13.163
28794W        W95225  20.621   6.222  14.977
28795W        W95226   5.917  11.438  10.845
28796W        W95227   6.793  19.252   0.330
28797W        W95228   2.787  38.043   4.510
28798W        W95229  20.113   9.546   1.582
28799W        W95230  10.990  40.361   1.141
28800W        W95231  34.850  14.757  14.595
28801W        W95232   7.230  16.831   1.717
28802W        W95233   0.882   4.435   4.301
28803W        W95234  11.251  37.556  11.647
28804W        W95235   7.083  35.028  13.122
28805W        W95236  19.998  33.413   0.806
28806W        W95237  24.398  36.883   4.167
28807W        W95238  38.966   6.992  11.873
28808W        W95239   9.196   2.888  13.980
28809W        W95240  12.262  16.761   3.795
28810W        W95241  40.776   7.286  14.801
28811W        W95242  12.271  16.136  13.374
28812W        W95243   2.262  36.840  10.749
28813W        W95244  44.871  41.772  11.981
28814W        W95245  20.025   5.676  14.379
28815W        W95246   6.502  11.714   3.885
28816W        W95247   5.025  20.950  11.591
28817W        W95248  27.951  38.334  14.023
28818W        W95249  17.025  22.724   4.094
28819W        W95250  19.495  11.570  13.025
28820W        W95251   2.700  13.997   4.105
28821W        W95252  40.806   2.407   3.229
28822W        W95253  40.005  43.386   2.832
28823W        W95254  42.943  23.603  10.436
28824W        W95255  27.462   4.693   1.244
28825W        W95256  17.134  28.426  14.412
28826W        W95257  34.712  30.605   0.367
28827W        W95258   5.253  19.144   0.459
28828W        W95259   5.153   7.264   3.237
28829W        W95260  35.350   9.341  13.527
28830W        W95261  39.943  11.254  12.968
28831W        W95262   1.817  25.315   2.729
28832W        W95263   8.378  26.915   3.749
28833W        W95264  33.499  22.410  11.165
28834W        W95265  44.150  23.326  10.144
28835W        W95266  34.676   7.512   4.522
28836W        W95267  37.061  18.401   4.540
28837W        W95268  44.881  34.019   4.430
28838W        W95269  34.534  31.024  11.330
28839W        W95270   2.981  18.174   4.447
28840W        W95271  44.385  13.993   1.430
28841W        W95272  41.921  13.849   3.648
28842W        W95273  13.030   1.214   1.796
28843W        W95274  34.799   3.496   0.325
28844W        W95275  32.035  21.253   3.697
28845W        W95276  28.072   1.791   3.905
28846W        W95277   2.866  27.549   2.859
28847W        W95278  36.341  26.630  13.843
28848W        W95279  26.603  29.877  13.867
28849W        W95280  26.150  13.245   0.248
28850W        W95281  19.572  41.672  12.972
28851W        W95282  34.102  29.954  10.646
28852W        W95283  27.162  18.558   1.153
28853W        W95284  20.305   3.216   2.897
28854W        W95285   1.453  12.800  10.806
28855W        W95286   9.237   4.977   0.724
28856W        W95287  32.945  38.179  12.924
28857W        W95288  11.721  13.731   3.143
28858W        W95289  28.891  40.026  11.594
28859W        W95290  32.589   1.781  11.158
28860W        W95291  14.699  31.915  11.931
28861W        W95292  10.709  21.409   0.384
28862W        W95293  36.907  17.583  12.537
28863W        W95294   4.972  16.149  12.442
28864W        W95295  28.132  17.172  11.826
28865W        W95296  11.561   0.802  14.361
28866W        W95297  36.618  21.232  13.056
28867W        W95298  39.432  10.061   0.473
28868W        W95299   5.369  42.821   0.116
28869W        W95300  41.386  12.395  14.337
28870W        W95301  38.760  12.070  14.346
28871W        W95302  42.268  28.647  12.931
28872W        W95303  31.167  41.895  14.045
28873W        W95304  25.429  35.073  12.168
28874W        W95305  11.938  30.996   4.126
28875W        W95306  12.110   3.001  11.621
28876W        W95307   0.309  23.678  12.725
28877W        W95308   4.953  11.903  12.398
28878W        W95309  30.486  30.105   4.498
28879W        W95310   2.941  28.431  13.162
28880W        W95311  39.756  12.786   1.437
28881W        W95312  16.741   6.428   4.365
28882W        W95313  24.593  25.719   0.376
28883W        W95314  28.882   7.308   2.988
28884W        W95315   6.740  29.936   0.270
28885W        W95316  34.039   7.893  12.061
28886W        W95317  20.317  38.637   1.835
28887W        W95318  19.680  16.023  14.828
28888W        W95319  25.256  40.529   5.035
28889W        W95320  17.131  20.371  10.649
28890W        W95321  36.102  26.487  13.391
28891W        W95322  43.107  25.357   1.706
28892W        W95323  22.570  41.025   0.531
28893W        W95324   3.937  33.151  14.645
28894W        W95325   5.399   2.764   4.673
28895W        W95326  34.423   8.184  13.153
28896W        W95327  13.053  26.984   0.378
28897W        W95328  28.260  22.674  12.469
28898W        W95329   0.933  16.371  12.129
28899W        W95330  34.726  11.058   4.042
28900W        W95331  29.938  37.004  12.381
28901W        W95332   7.938   7.155   2.236
28902W        W95333   6.731  40.848  12.563
28903W        W95334   8.766  38.883   1.573
28904W        W95335  34.581  35.920   4.553
28905W        W95336  30.806   0.475  14.367
28906W        W95337  35.901  38.159   3.419
28907W        W95338  26.961  37.638  12.965
28908W        W95339  43.791  17.043   3.664
28909W        W95340   8.836  34.144   4.021
28910W        W95341   4.410  34.146   2.316
28911W        W95342  10.731   2.697   4.113
28912W        W95343  37.607  44.299  11.457
28913W        W95344  37.289   7.469  12.826
28914W        W95345  27.490  25.797   3.418
28915W        W95346  38.596  16.599  12.852
28916W        W95347  35.520   1.893  14.550
28917W        W95348  27.003  34.814   0.463
28918W        W95349  42.932  18.578  12.374
28919W        W95350  38.634   3.751  14.408
28920W        W95351  44.656  22.425   1.688
28921W        W95352   6.301  15.838  13.398
28922W        W95353  21.541  13.602   3.632
28923W        W95354  14.115  33.688   2.353
28924W        W95355   2.971  44.434   1.365
28925W        W95356  18.728  40.739   0.970
28926W        W95357  27.049  20.980   4.298
28927W        W95358  14.958  34.451   2.779
28928W        W95359  39.965   0.742   4.802
28929W        W95360  15.606  29.808   2.572
28930W        W95361  12.363   8.092   2.351
28931W        W95362  13.705   9.378  10.987
28932W        W95363  33.056  12.769   1.005
28933W        W95364  40.752  37.919  12.991
28934W        W95365  14.965  28.180  12.838
28935W        W95366   2.179   4.808   4.062
28936W        W95367  32.421   5.596   3.394
28937W        W95368  14.525  23.325   0.314
28938W        W95369  19.733  17.623   3.646
28939W        W95370  24.116  13.129  13.967
28940W        W95371  43.439  18.187  12.803
28941W        W95372  29.556  26.097   3.127
28942W        W95373  33.699  27.143  12.453
28943W        W95374  35.520  13.643   3.626
28944W        W95375  21.299  44.990  14.488
28945W        W95376   9.770  26.222   4.950
28946W        W95377  42.886  35.222   3.308
28947W        W95378   6.481   0.704  13.362
28948W        W95379  21.707  37.187   5.067
28949W        W95380  23.680  14.770   3.785
28950W        W95381  43.336   9.691   0.278
28951W        W95382  10.210  33.950   2.341
28952W        W95383  23.950  15.705   4.580
28953W        W95384  43.166  16.306  12.602
28954W        W95385  18.362  18.074  10.240
28955W        W95386  33.305  36.855   4.114
28956W        W95387  22.740  10.678  14.865
28957W        W95388  29.016  25.586  11.607
28958W        W95389  41.613  44.472   4.978
28959W        W95390   5.926  17.965   1.258
28960W        W95391  38.333   5.718  13.795
28961W        W95392  30.808  14.742  12.431
28962W        W95393  37.084  39.047  11.894
28963W        W95394  31.420  28.088   0.900
28964W        W95395  35.032  28.027  10.938
28965W        W95396  42.931  40.195  12.577
28966W        W95397  29.570   5.203  11.890
28967W        W95398  28.705  41.186   0.058
28968W        W95399  42.609  14.899  13.102
28969W        W95400  23.593   7.667  11.970
28970W        W95401  15.849  18.819  12.856
28971W        W95402  38.565  17.083   3.218
28972W        W95403  42.874  31.824   1.492
28973W        W95404  18.218   3.915   2.185
28974W        W95405   6.237  26.909  14.291
28975W        W95406  23.737  34.720  12.992
28976W        W95407  24.146  34.620   1.839
28977W        W95408  28.849  31.341  12.367
28978W        W95409   0.693  18.982  13.026
28979W        W95410  40.580   7.981   2.739
28980W        W95411  31.934  32.398  12.359
28981W        W95412  30.644  26.445   2.333
28982W        W95413   4.430  36.133   2.328
28983W        W95414  17.684  20.797   4.509
28984W        W95415   6.340  27.742   2.469
28985W        W95416  24.987  10.974   4.126
28986W        W95417  23.034  18.252   4.129
28987W        W95418  43.639  19.238  10.507
28988W        W95419  44.762  22.571   3.363
28989W        W95420   9.289  24.397  11.200
28990W        W95421  23.180   0.869   4.079
28991W        W95422  41.421   5.041  10.744
28992W        W95423  15.702   9.842   5.096
28993W        W95424  38.832  32.906  10.685
28994W        W95425  16.053  29.970   2.752
28995W        W95426  39.698  42.697   0.745
28996W        W95427   5.250  33.467  11.097
28997W        W95428  34.518   5.345  12.592
28998W        W95429  12.021  34.468   1.541
28999W        W95430   1.673  31.703   2.305
29000W        W95431  26.723  25.777  14.716
29001W        W95432  39.205  26.426  14.934
29002W        W95433   7.196   6.705  13.780
29003W        W95434   5.742  18.248  13.155
29004W        W95435  12.617  17.326  11.130
29005W        W95436  30.752  40.483   3.280
29006W        W95437  13.762  43.479   4.119
29007W        W95438  11.798  29.073   2.539
29008W        W95439   8.137  11.850   0.083
29009W        W95440  33.672  21.437   2.457
29010W        W95441  17.045   7.959   2.333
29011W        W95442  10.417  11.658   0.651
29012W        W95443  43.787  36.005   2.477
29013W        W95444  16.489  11.725  10.068
29014W        W95445  31.724  44.803  12.861
29015W        W95446   1.922  22.766   2.474
29016W        W95447  14.769  18.117   2.191
29017W        W95448  33.494  42.568  13.046
29018W        W95449   8.931   7.140  13.862
29019W        W95450   4.240  40.436  14.061
29020W        W95451  16.020  37.790  13.041
29021W        W95452  14.124  13.071  11.417
29022W        W95453  33.957  24.382   2.726
29023W        W95454  40.515   2.798  11.150
29024W        W95455  35.035   2.459  13.453
29025W        W95456  26.741  42.668  10.555
29026W        W95457   0.737  43.789   4.754
29027W        W95458  18.069  18.197  12.435
29028W        W95459  39.370  32.865  10.646
29029W        W95460  29.745  24.091   0.463
29030W        W95461  23.598  27.220   1.298
29031W        W95462  40.852   4.084   2.614
29032W        W95463  20.561  18.607   5.047
29033W        W95464   4.215  23.224   2.860
29034W        W95465  43.794  18.133   1.361
29035W        W95466   2.640  13.819   3.624
29036W        W95467  18.727  32.927   4.666
29037W        W95468  20.485   8.377   3.694
29038W        W95469  30.422  29.499  14.939
29039W        W95470  43.345   9.980  10.639
29040W        W95471  15.313  25.644   1.575
29041W        W95472  37.416   6.900   0.759
29042W        W95473   3.963  23.114   2.417
29043W        W95474  32.966  26.150   4.068
29044W        W95475  38.441  27.677  11.506
29045W        W95476  19.085  16.142  13.174
29046W        W95477  27.183   1.824   2.671
29047W        W95478  41.888  12.818  13.140
29048W        W95479  13.123  25.697  13.040
29049W        W95480  32.400   2.526  11.632
29050W        W95481  23.184  42.348   4.072
29051W        W95482  23.518   8.205   3.270
29052W        W95483   8.145  41.511   0.334
29053W        W95484   7.313   3.418  14.702
29054W        W95485   6.307  44.750  11.488
29055W        W95486  12.468  19.720   3.100
29056W        W95487  38.088  38.004   3.576
29057W        W95488  41.977  17.533   0.939
29058W        W95489  25.119   5.617   1.411
29059W        W95490  24.912   0.855   4.613
29060W        W95491  28.660   1.494  12.074
29061W        W95492  11.592  42.348  14.553
29062W        W95493  10.113  12.226  13.473
29063W        W95494   0.936   1.938  13.917
29064W        W95495   7.962  13.874  14.263
29065W        W95496  22.637  37.293  14.255
29066W        W95497  19.778  39.318   3.295
29067W        W95498  23.313  12.814  10.817
29068W        W95499  23.246  28.904   2.818
29069W        W95500  35.935  13.347  13.316
29070W        W95501  40.584  26.201   1.902
29071W        W95502   6.425  42.025  11.985
29072W        W95503  26.934  23.628   0.360
29073W        W95504  12.280  33.117   0.228
29074W        W95505  39.511  20.976   0.805
29075W        W95506  31.950  38.384  12.967
29076W        W95507  19.518  28.562   3.764
29077W        W95508  12.955  14.564   2.142
29078W        W95509   0.521  17.752   2.710
29079W        W95510  44.831  11.165  10.751
29080W        W95511  40.973  25.867   3.600
29081W        W95512  32.617  41.323  10.505
29082W        W95513  43.412  29.089  11.981
29083W        W95514  16.036  44.893  14.305
29084W        W95515  13.863  39.009  13.165
29085W        W95516   4.841   3.540  14.363
29086W        W95517  11.075  28.232  11.206
29087W        W95518  12.816  34.798  14.924
29088W        W95519  13.783  41.474  14.068
29089W        W95520  41.969   3.657  12.447
29090W        W95521   3.815  39.790   3.243
29091W        W95522  11.219  22.683   2.177
29092W        W95523  11.126  24.044   2.244
29093W        W95524   9.376   8.588   1.490
29094W        W95525  16.136  25.082  11.761
29095W        W95526  44.070   0.410  12.149
29096W        W95527  30.400  17.174   0.369
29097W        W95528  14.994   5.589   2.283
29098W        W95529  36.072  29.861   2.300
29099W        W95530   8.732  37.903   1.628
29100W        W95531  31.138  15.321   2.421
29101W        W95532  28.456  22.950   3.616
29102W        W95533  18.207  19.410   1.450
29103W        W95534  37.947  43.908  10.609
29104W        W95535   6.624  22.667   3.930
29105W        W95536   0.972  40.582   5.023
29106W        W95537  44.471  23.223   4.119
29107W        W95538  33.867  36.664   0.710
29108W        W95539   2.236  10.152  11.632
29109W        W95540   2.890  11.145  14.306
29110W        W95541  37.541   6.317  14.889
29111W        W95542   3.799   5.981  13.647
29112W        W95543  15.548   9.685  14.832
29113W        W95544  17.531  22.431   1.370
29114W        W95545  29.696   7.673   3.180
29115W        W95546  26.709   0.384   4.649
29116W        W95547  28.236  36.332   4.544
29117W        W95548   0.529  31.199   3.429
29118W        W95549  44.410   7.458   0.459
29119W        W95550  39.322   0.594  14.567
29120W        W95551  39.898  44.452  12.584
29121W        W95552   9.388  43.498  11.198
29122W        W95553  30.430  11.356   0.508
29123W        W95554   0.828  28.478  14.894
29124W        W95555   3.474  40.364   3.161
29125W        W95556  13.929  38.351  11.509
29126W        W95557  38.929   7.434   2.614
29127W        W95558  35.098  38.992  10.154
29128W        W95559  22.599  12.564   3.789
29129W        W95560  23.168  26.579  11.015
29130W        W95561  33.668  24.555  14.377
29131W        W95562  42.881  30.475   2.357
29132W        W95563  36.077   6.708   0.536
29133W        W95564  26.532  10.009   2.304
29134W        W95565  35.279  43.227   1.896
29135W        W95566  41.412  25.378   1.223
29136W        W95567  36.050   4.366   2.248
29137W        W95568  41.895  43.747   0.016
29138W        W95569   4.440  21.590   3.217
29139W        W95570   1.230  15.644   1.372
29140W        W95571   9.740  41.567  13.939
29141W        W95572   5.241  42.905   2.332
29142W        W95573  42.581  41.009   2.768
29143W        W95574  42.230   2.554   1.906
29144W        W95575  36.663  13.812  14.700
29145W        W95576  20.190  25.991  14.654
29146W        W95577  18.091  15.380   3.899
29147W        W95578   3.794   2.764   2.706
29148W        W95579  26.045  37.573  14.973
29149W        W95580  13.873   7.225   1.958
29150W        W95581   6.982   3.672   2.315
29151W        W95582  26.702  11.300  12.992
29152W        W95583  10.698  34.577  12.552
29153W        W95584  33.547  37.902  13.906
29154W        W95585  38.631  37.058   0.609
29155W        W95586   0.374  18.100   4.415
29156W        W95587   0.795  36.979   0.293
29157W        W95588  41.993   7.250  11.241
29158W        W95589  18.165  26.384   4.315
29159W        W95590   3.120   0.343  10.760
29160W        W95591  32.107  12.683   4.950
29161W        W95592   2.897  36.352  12.074
29162W        W95593  13.025  35.580  10.774
29163W        W95594  31.893  24.060  14.752
29164W        W95595   3.868  28.501   2.485
29165W        W95596  40.756  34.680  12.941
29166W        W95597  28.443   4.728   0.008
29167W        W95598  14.097  41.570   0.005
29168W        W95599   2.515  40.977   0.287
29169W        W95600  23.611  23.425   1.907
29170W        W95601  37.981  26.105  13.491
29171W        W95602  23.692   6.196  10.639
29172W        W95603   4.854  31.705  11.169
29173W        W95604   4.818   9.918  13.099
29174W        W95605   8.819  11.736   1.215
29175W        W95606  16.232  18.130  11.885
29176W        W95607  36.611  19.495   4.429
29177W        W95608  21.991  44.420   2.611
29178W        W95609  32.340  28.705  13.880
29179W        W95610  30.672  26.685  14.979
29180W        W95611  32.032  32.876  14.248
29181W        W95612  13.865  20.996   0.884
29182W        W95613  24.438  16.175   2.601
29183W        W95614   3.448  37.062  13.997
29184W        W95615  27.760  17.830   0.968
29185W        W95616   6.726  25.210  14.078
29186W        W95617  31.514  38.644   0.878
29187W        W95618  16.710  42.965  14.331
29188W        W95619  26.427  10.866  13.100
29189W        W95620   8.496  16.620   1.714
29190W        W95621  31.187  23.057  14.348
29191W        W95622  29.687  22.281  12.509
29192W        W95623  25.230  17.255   0.231
29193W        W95624  31.546  29.628   1.950
29194W        W95625  17.772  29.187   2.802
29195W        W95626  20.118  19.307  12.762
29196W        W95627  20.254   0.844  11.978
29197W        W95628  38.362   6.246   1.396
29198W        W95629  29.495  28.633   1.908
29199W        W95630  38.983  11.614  11.097
29200W        W95631  28.073  19.518   1.795
29201W        W95632   2.718   4.369   3.473
29202W        W95633  22.541  35.705  12.435
29203W        W95634  20.836  15.689  12.953
29204W        W95635  43.054  36.098  11.261
29205W        W95636  25.537  25.280  10.751
29206W        W95637   0.386   2.687   4.788
29207W        W95638  34.885  44.533   2.622
29208W        W95639  37.373  25.087   0.766
29209W        W95640  13.067  31.622   0.715
29210W        W95641  13.732  41.690   4.931
29211W        W95642  44.432  36.566  10.633
29212W        W95643  36.129  22.493  10.432
29213W        W95644   0.855  14.617   0.657
29214W        W95645  26.925  36.352   3.244
29215W        W95646  28.592  39.535  14.056
29216W        W95647  20.283  16.753   3.890
29217W        W95648   4.278  13.773  12.494
29218W        W95649  41.918  17.519  13.090
29219W        W95650  42.948  28.251   0.429
29220W        W95651   8.719  14.235   1.861
29221W        W95652  19.090   5.257  13.122
29222W        W95653  25.886   8.446  12.488
29223W        W95654   1.405   9.560   0.769
29224W        W95655   1.300   0.016  10.594
29225W        W95656  43.298  27.076  11.664
29226W        W95657  43.192  15.710  14.936
29227W        W95658  27.939   1.842   4.411
29228W        W95659  13.599  26.360  13.723
29229W        W95660  40.840  20.737   3.910
29230W        W95661   9.280  12.279  13.471
29231W        W95662  28.631  39.336  12.614
29232W        W95663   5.306  14.653   4.054
29233W        W95664  28.730   9.129   0.246
29234W        W95665   8.216  33.091  12.707
29235W        W95666  43.337  32.061  13.084
29236W        W95667  41.289  11.393  11.251
29237W        W95668  28.424  17.104  14.023
29238W        W95669  38.448  16.872   2.729
29239W        W95670  17.488  37.050   4.101
29240W        W95671  11.560  31.102   2.039
29241W        W95672  25.967  37.025  13.575
29242W        W95673  18.440  22.134  12.499
29243W        W95674  11.436  38.350   1.379
29244W        W95675  36.882  34.278  11.506
29245W        W95676   8.678  26.000  11.113
29246W        W95677   6.202  10.751   2.824
29247W        W95678  22.817   4.135   0.222
29248W        W95679  19.220  11.122  14.505
29249W        W95680  30.950   5.849  12.720
29250W        W95681  10.099  42.942   0.413
29251W        W95682  32.594  41.579   4.724
29252W        W95683   7.238  26.568   2.627
29253W        W95684  29.600  41.797  13.897
29254W        W95685  29.098  40.468   2.192
29255W        W95686  15.177  24.433  12.431
29256W        W95687   8.926  41.970  10.690
29257W        W95688  13.627  11.293   4.694
29258W        W95689  30.918   0.301  13.064
29259W        W95690   1.619  23.740  11.626
29260W        W95691   5.956  16.132   2.745
29261W        W95692  15.786   2.175   1.448
29262W        W95693  10.764  22.460  11.510
29263W        W95694  19.834  33.639   3.287
29264W        W95695  42.860  36.146  12.571
29265W        W95696  38.491   0.357  10.586
29266W        W95697  27.103  29.662  13.767
29267W        W95698  32.532  36.431   1.791
29268W        W95699  20.199  20.361  11.883
29269W        W95700  13.708  25.206  14.318
29270W        W95701  12.357  42.342   2.498
29271W        W95702  44.760  20.056  13.528
29272W        W95703   0.209  25.220   1.446
29273W        W95704  30.884  44.374   3.297
29274W        W95705  20.779  38.451  11.342
29275W        W95706  20.954  39.712   0.931
29276W        W95707  29.099  10.175   0.039
29277W        W95708  42.538  38.321  14.576
29278W        W95709  28.503  30.559   4.767
29279W        W95710  33.955  35.015   0.721
29280W        W95711  12.239  37.832  11.625
29281W        W95712   1.355   5.862   2.979
29282W        W95713  25.657  15.462  14.519
29283W        W95714   6.790  20.791   1.714
29284W        W95715  15.622  24.127  13.984
29285W        W95716   9.297  34.562  13.483
29286W        W95717  22.020  29.832  11.339
29287W        W95718  25.091  18.710  12.634
29288W        W95719  14.748  21.928   4.267
29289W        W95720  30.750  23.963  12.249
29290W        W95721  35.846  31.624  14.058
29291W        W95722  33.389  38.956  10.688
29292W        W95723  11.232  32.217   0.354
29293W        W95724  28.083  37.296  12.547
29294W        W95725  28.978   4.978   3.128
29295W        W95726  37.334  22.076  12.146
29296W        W95727  26.927  20.410   4.964
29297W        W95728  14.842  15.639  13.510
29298W        W95729  19.429   7.221  13.332
29299W        W95730  11.667  23.737  11.888
29300W        W95731  42.052  37.922   1.212
29301W        W95732  41.143  32.551  14.451
29302W        W95733  13.414  43.952  12.043
29303W        W95734   3.979  35.423   1.546
29304W        W95735  40.284   4.368   2.058
29305W        W95736  29.218   4.212   4.643
29306W        W95737  34.180   4.231   2.654
29307W        W95738   4.743   2.321  12.881
29308W        W95739  18.216  40.884  13.607
29309W        W95740  40.354  10.400  12.029
29310W        W95741  35.019  15.265   3.252
29311W        W95742  18.089  21.666  11.676
29312W        W95743  14.558  15.670   5.084
29313W        W95744  18.118  15.157   0.919
29314W        W95745  23.408  31.891  11.634
29315W        W95746  20.477  30.207  14.425
29316W        W95747   0.571  15.362  11.599
29317W        W95748   0.192  25.231  13.588
29318W        W95749  40.327  43.310  14.844
29319W        W95750  32.016  13.680  11.585
29320W        W95751  19.167  44.023  14.904
29321W        W95752  23.046  44.523  12.610
29322W        W95753  36.278  29.137  13.883
29323W        W95754  42.456  17.681   3.908
29324W        W95755  29.928  19.715   3.684
29325W        W95756  20.253  32.832   3.670
29326W        W95757  33.044  30.224   9.791
29327W        W95758  16.109  17.723   0.880
29328W        W95759  13.846  34.157   0.677
29329W        W95760  38.325   1.083  14.396
29330W        W95761  16.155  24.650  12.054
29331W        W95762  37.782   5.429  12.458
29332W        W95763  34.721   0.696   1.964
29333W        W95764  38.564  36.920   4.571
29334W        W95765  39.710   0.800  12.492
29335W        W95766   0.179  11.787  11.164
29336W        W95767  33.103  30.479  11.707
29337W        W95768  16.521   5.313   1.537
29338W        W95769  24.656  22.176   0.511
29339W        W95770  17.160   8.135  10.707
29340W        W95771  27.104  37.800   3.534
29341W        W95772   3.856  16.502  12.944
29342W        W95773  34.453  15.324   4.012
29343W        W95774   4.741   5.278   2.926
29344W        W95775   0.899   4.893   1.736
29345W        W95776  15.752  39.865  11.717
29346W        W95777  29.156  34.188  11.663
29347W        W95778  14.331  30.958   0.955
29348W        W95779  13.764  12.868   3.806
29349W        W95780  17.153  11.053   2.244
29350W        W95781  31.912   7.256  13.038
29351W        W95782  24.781   3.663  10.726
29352W        W95783  34.505  23.155  13.320
29353W        W95784  42.700  20.104   0.886
29354W        W95785  28.335  34.554   4.152
29355W        W95786  10.142  30.151  10.503
29356W        W95787  39.052   3.720  11.168
29357W        W95788  15.625  36.376   3.655
29358W        W95789  30.469  32.793   0.259
29359W        W95790  38.408  13.715  10.902
29360W        W95791  13.902   4.290  11.728
29361W        W95792  20.206  28.463   4.824
29362W        W95793   0.277  42.926   4.347
29363W        W95794   3.184  15.465  12.004
29364W        W95795   1.279   8.209  12.167
29365W        W95796  35.566  14.543  12.598
29366W        W95797  37.395  14.893  10.564
29367W        W95798   7.554   7.748   4.865
29368W        W95799  35.407   3.214  13.810
29369W        W95800  25.136  31.806  14.511
29370W        W95801  33.453  33.232  14.508
29371W        W95802  16.545  21.212   2.778
29372W        W95803   5.243  35.543   2.538
29373W        W95804  13.985  23.670  12.104
29374W        W95805  18.509  23.734  14.930
29375W        W95806  41.059  29.557  13.236
29376W        W95807  21.717  16.850   1.827
29377W        W95808  41.476  17.142  14.489
29378W        W95809  21.159   7.864   1.497
29379W        W95810  39.585   0.172  12.020
29380W        W95811  14.875  26.655   3.105
29381W        W95812   6.619  35.363  13.582
29382W        W95813   9.178  40.479  13.960
29383W        W95814  38.860  22.528  12.929
29384W        W95815   9.599  32.446  13.931
29385W        W95816  12.759   4.761   4.600
29386W        W95817  10.546  23.377  11.032
29387W        W95818  38.710   2.785   2.654
29388W        W95819  21.147  19.812   3.617
29389W        W95820  32.597  32.009   3.322
29390W        W95821  14.971   5.652  13.172
29391W        W95822   0.560  34.985  14.296
29392W        W95823  42.539   2.932  14.965
29393W        W95824   8.129  23.014   0.335
29394W        W95825  17.871  38.995   3.756
29395W        W95826   6.277  23.492   1.864
29396W        W95827   7.941  26.266  14.315
29397W        W95828   6.640  39.048   1.919
29398W        W95829  31.041  43.512  12.209
29399W        W95830  14.019  15.273   4.412
29400W        W95831   4.848  42.639  10.472
29401W        W95832  26.414  42.521   0.483
29402W        W95833  17.621   3.414   4.894
29403W        W95834  26.161  41.504   0.643
29404W        W95835  13.607  31.901   3.198
29405W        W95836  30.394  20.384  14.273
29406W        W95837   1.457  33.671  12.062
29407W        W95838   3.327   3.781   3.869
29408W        W95839  35.332  21.551  13.054
29409W        W95840   0.755  28.563   1.560
29410W        W95841   4.288  30.588  10.703
29411W        W95842   0.931  44.661  12.419
29412W        W95843  16.047   5.144   1.387
29413W        W95844  43.439  33.335  13.279
29414W        W95845  40.376  37.056   1.542
29415W        W95846  35.413  13.314   4.016
29416W        W95847  14.412  17.672  10.873
29417W        W95848   9.128  17.319  12.938
29418W        W95849  40.091  42.289   4.670
29419W        W95850  14.192  34.326  11.088
29420W        W95851   2.500  44.291  13.062
29421W        W95852  33.722   1.458  10.938
29422W        W95853  16.869   5.352  11.198
29423W        W95854  19.718  35.811  13.822
29424W        W95855  41.084  15.009   3.571
29425W        W95856   4.764  34.030  11.644
29426W        W95857  25.142   2.782  13.023
29427W        W95858  26.051   1.894   2.485
29428W        W95859  39.133  11.272  11.784
29429W        W95860  34.211   2.058  13.944
29430W        W95861   0.638  32.861   0.773
29431W        W95862   5.770  41.959   3.019
29432W        W95863  17.999  42.714   0.830
29433W        W95864  28.711   7.848  12.406
29434W        W95865  28.870   0.351  12.091
29435W        W95866  27.649  29.987   0.843
29436W        W95867   0.327  10.347   2.746
29437W        W95868  38.651  26.896   1.415
29438W        W95869  17.264  25.900  11.498
29439W        W95870   2.368  36.385  14.490
29440W        W95871  21.238   1.502   0.621
29441W        W95872  23.356  30.653  11.096
29442W        W95873  28.910   2.890  12.571
29443W        W95874  37.232   4.394   1.041
29444W        W95875  10.882   6.251   0.250
29445W        W95876   5.752  35.306  14.008
29446W        W95877  24.630  26.482   2.778
29447W        W95878   2.308   7.115   3.654
29448W        W95879   7.219  26.151  12.367
29449W        W95880  18.241  37.111  11.891
29450W        W95881  39.063  35.472  13.405
29451W        W95882  37.920  28.640  13.816
29452W        W95883  36.519   7.950   0.483
29453W        W95884  32.748   0.070  11.963
29454W        W95885   6.259  31.559  14.347
29455W        W95886  21.931  18.374   5.182
29456W        W95887   0.934  40.781  10.792
29457W        W95888  16.641  20.191   1.771
29458W        W95889  32.902  37.457   3.310
29459W        W95890  26.222  31.857  12.570
29460W        W95891  34.421  29.158  12.037
29461W        W95892  16.617   9.893  13.107
29462W        W95893  33.450  22.310  11.666
29463W        W95894  27.919  30.669   0.009
29464W        W95895  40.456  39.877   5.045
29465W        W95896  22.614   8.554  11.065
29466W        W95897  41.132  14.617  14.912
29467W        W95898  44.724  33.899  14.916
29468W        W95899   0.329   4.931  11.203
29469W        W95900   0.804   2.854   0.971
29470W        W95901  39.969  21.066   0.590
29471W        W95902   1.745  13.449  11.668
29472W        W95903  16.875  23.492   5.211
29473W        W95904  41.256  37.947  14.995
29474W        W95905  16.133  38.462   2.565
29475W        W95906   8.604  12.326  13.265
29476W        W95907  37.387  43.858  11.449
29477W        W95908  44.462  19.585   0.931
29478W        W95909   0.327  36.370   0.858
29479W        W95910  20.082   9.227  13.863
29480W        W95911  35.768  29.775  14.296
29481W        W95912   3.457   5.461   2.222
29482W        W95913  19.482  35.332  13.864
29483W        W95914  29.419  40.014   0.271
29484W        W95915  35.413  38.802   2.693
29485W        W95916  42.051   0.209   3.095
29486W        W95917  23.178  15.053   2.189
29487W        W95918  25.314  36.585  11.570
29488W        W95919   3.410  21.212   0.894
29489W        W95920   9.332  33.475   4.255
29490W        W95921  39.091  24.374   4.295
29491W        W95922   2.863  31.506  13.179
29492W        W95923   0.942  19.288   1.779
29493W        W95924   6.883  33.493  13.964
29494W        W95925   6.839  28.529   4.339
29495W        W95926  14.840  39.597   2.237
29496W        W95927   1.631  27.659  11.977
29497W        W95928  36.200   2.234  14.966
29498W        W95929  38.940  15.573   1.328
29499W        W95930  16.830   1.895   0.293
29500W        W95931   2.199  33.896   1.733
29501W        W95932  39.751   6.361   2.468
29502W        W95933   9.253  14.161  12.827
29503W        W95934   6.042   6.847  12.440
29504W        W95935  13.315  11.568  13.311
29505W        W95936  23.681  40.758  11.609
29506W        W95937  38.422   3.800   2.148
29507W        W95938  17.188  40.168  10.598
29508W        W95939   1.312  31.147  12.216
29509W        W95940  38.642   1.699   1.300
29510W        W95941  14.680  38.359  10.572
29511W        W95942  30.971  44.575   2.815
29512W        W95943  20.663  37.033   1.293
29513W        W95944  22.286  40.009   2.258
29514W        W95945  34.010  26.140  10.521
29515W        W95946   6.535  14.553  13.898
29516W        W95947  22.519  41.195   3.745
29517W        W95948  25.474  25.395  14.310
29518W        W95949  14.297  22.462   4.376
29519W        W95950  22.133  14.595  12.755
29520W        W95951   7.265  33.666  12.996
29521W        W95952  27.592  29.100  10.633
29522W        W95953  41.043   0.722   0.782
29523W        W95954  17.590  19.630   0.407
29524W        W95955  24.976  27.591   2.738
29525W        W95956  42.264   1.279  12.595
29526W        W95957  27.512  44.994  14.372
29527W        W95958  34.050  35.822   1.882
29528W        W95959  28.035  15.556  13.459
29529W        W95960   0.912  42.615   3.369
29530W        W95961   5.448  25.026   0.388
29531W        W95962  14.258  15.852   3.634
29532W        W95963   1.008   6.455  13.657
29533W        W95964  39.383  24.801   1.624
29534W        W95965  17.374   3.957   0.429
29535W        W95966  35.281  11.356  14.360
29536W        W95967  41.271  25.557   2.320
29537W        W95968  39.130   7.707   1.705
29538W        W95969  31.911  37.062   4.332
29539W        W95970  14.270   9.879   3.281
29540W        W95971  44.448  33.995   2.414
29541W        W95972  29.063   7.109  11.165
29542W        W95973  18.537   1.148  13.614
29543W        W95974  17.655   9.659   3.286
29544W        W95975  16.332  18.520   3.681
29545W        W95976   7.951  17.976   3.020
29546W        W95977  11.854   5.420  11.039
29547W        W95978  25.567  17.315   3.555
29548W        W95979  22.928  28.387  14.007
29549W        W95980   7.024  43.244  11.551
29550W        W95981  35.432  29.532  13.775
29551W        W95982   1.328  13.869   4.811
29552W        W95983  28.429   1.705   2.424
29553W        W95984  37.481  10.162   3.556
29554W        W95985  40.946  32.690  10.627
29555W        W95986  35.833  37.829   4.432
29556W        W95987  39.544  43.492   0.320
29557W        W95988   8.708  28.762  11.626
29558W        W95989  16.057   3.867  13.947
29559W        W95990   3.736  33.471  13.666
29560W        W95991  31.073  38.998   3.563
29561W        W95992  22.582  36.536   4.517
29562W        W95993  11.778   8.213   2.749
29563W        W95994  12.460  10.497  11.529
29564W        W95995  38.064   4.014  12.513
29565W        W95996  34.678  23.054   2.652
29566W        W95997  32.146  23.624   4.693
29567W        W95998  35.003  10.850  14.904
29568W        W95999  13.808  14.037  11.649
29569W        W96000  40.617  41.226   4.967
29570W        W96001  20.235  36.301  11.728
29571W        W96002  31.127  29.938  14.467
29572W        W96003  33.988  37.331  11.823
29573W        W96004  35.778  29.352  14.640
29574W        W96005   3.367  11.066  13.537
29575W        W96006  19.262  26.773  13.947
29576W        W96007  25.153  40.808   4.611
29577W        W96008  26.207  29.138   3.641
29578W        W96009   7.901  44.706  10.700
29579W        W96010  29.642   3.241  13.847
29580W        W96011  10.858  35.841  14.938
29581W        W96012  41.434  37.469   1.673
29582W        W96013   8.558  18.675   2.382
29583W        W96014  27.378  34.808  11.819
29584W        W96015   2.002  28.174   1.467
29585W        W96016  25.737  29.952  14.443
29586W        W96017  12.084  36.626  14.843
29587W        W96018  12.097   1.901   3.295
29588W        W96019  39.057  36.958   3.630
29589W        W96020   6.393  18.246  13.925
29590W        W96021   0.393  25.268   0.088
29591W        W96022  20.513  28.651  10.229
29592W        W96023   0.183   1.005  12.364
29593W        W96024  17.037   1.752   0.802
29594W        W96025   2.736   2.813   0.942
29595W        W96026  23.171  22.677   2.778
29596W        W96027  37.892   4.344   4.600
29597W        W96028  33.370  26.014   3.790
29598W        W96029  22.190  10.224  10.306
29599W        W96030  19.739  10.400  13.430
29600W        W96031   0.679  34.231  11.615
29601W        W96032  29.568  21.817  13.448
29602W        W96033  27.596   3.958  13.440
29603W        W96034  20.226  25.580  10.689
29604W        W96035  10.740  43.055   3.177
29605W        W96036  18.123  33.802   2.689
29606W        W96037  41.477   9.908  10.991
29607W        W96038  26.589  13.113  14.708
29608W        W96039  25.711   2.136  13.108
29609W        W96040  14.059  11.778  11.040
29610W        W96041  10.086  24.178   0.740
29611W        W96042  38.891  11.935  12.946
29612W        W96043  21.445  23.484   2.251
29613W        W96044  15.198  20.773   3.819
29614W        W96045  30.420  20.146   0.453
29615W        W96046  34.975  25.755  13.565
29616W        W96047  27.924  10.711   2.517
29617W        W96048  39.555  20.673  11.610
29618W        W96049  25.693  27.625   4.435
29619W        W96050   9.949   2.704   2.163
29620W        W96051  11.247  38.126  10.927
29621W        W96052   8.058  39.001   3.061
29622W        W96053   1.442  20.760  14.469
29623W        W96054  43.392  32.182  14.033
29624W        W96055  34.511  17.717  14.371
29625W        W96056   4.645  29.613   2.192
29626W        W96057   2.433  36.620  11.182
29627W        W96058  26.578  37.318   1.187
29628W        W96059  29.402   0.226   3.497
29629W        W96060  30.537  30.623  12.093
29630W        W96061   2.214   4.838   4.565
29631W        W96062   0.708  25.084   3.216
29632W        W96063  13.641  36.438  10.596
29633W        W96064  28.402  10.169   1.201
29634W        W96065  16.742  24.993  12.610
29635W        W96066  20.633  30.012   0.400
29636W        W96067  40.428  18.783  11.234
29637W        W96068  42.475   6.533  12.609
29638W        W96069   0.545  27.170  10.796
29639W        W96070  34.380  18.738   4.861
29640W        W96071  33.602  18.083   0.423
29641W        W96072  11.420  26.755   0.915
29642W        W96073  33.474   1.404  14.225
29643W        W96074  22.523  14.192   2.289
29644W        W96075  10.396  10.337   0.243
29645W        W96076  23.904  42.060   5.142
29646W        W96077   6.367  10.669  10.632
29647W        W96078  39.562  27.843   0.435
29648W        W96079  28.589  37.568   2.255
29649W        W96080   8.232  33.582  11.484
29650W        W96081  25.489  44.590  11.488
29651W        W96082  22.528   5.323   1.416
29652W        W96083  19.784  18.080   4.128
29653W        W96084  28.517  35.593  12.532
29654W        W96085  23.479  25.111  12.031
29655W        W96086   0.367  13.057   2.956
29656W        W96087  31.584  38.544  12.618
29657W        W96088   4.801  27.813   0.934
29658W        W96089   8.266  10.512   1.944
29659W        W96090   4.644   7.452   3.293
29660W        W96091   0.023  19.974  12.031
29661W        W96092  10.903  10.151   1.412
29662W        W96093  11.126  16.750   0.212
29663W        W96094  23.630  23.657   3.467
29664W        W96095  41.916  36.058   3.106
29665W        W96096  40.939  15.207   4.025
29666W        W96097  32.372  28.827   4.217
29667W        W96098  19.292  35.448  12.023
29668W        W96099  23.646  21.601   3.139
29669W        W96100   1.375  12.712   1.982
29670W        W96101  10.868  12.294  11.180
29671W        W96102   9.358   6.439  13.043
29672W        W96103  18.138   0.428   4.624
29673W        W96104  11.167  23.112   2.498
29674W        W96105  43.557  31.530   2.843
29675W        W96106  10.638   7.492  14.522
29676W        W96107  18.111   5.329  13.999
29677W        W96108  44.057  32.714  12.965
29678W        W96109  19.704  11.281   0.362
29679W        W96110   9.166  29.970   0.211
29680W        W96111  15.610   5.710  11.692
29681W        W96112  31.852  19.630  14.060
29682W        W96113  24.455  24.017   3.546
29683W        W96114   6.780  40.116   2.860
29684W        W96115  21.637   1.809   0.114
29685W        W96116  25.746  26.413   4.245
29686W        W96117  36.670  22.547  12.639
29687W        W96118   3.346  30.643   1.646
29688W        W96119  10.590  22.125  10.049
29689W        W96120   1.404  31.104   1.699
29690W        W96121  39.201   4.220  13.383
29691W        W96122  18.095  22.114   3.639
29692W        W96123  30.419  26.894  12.690
29693W        W96124   5.752  36.961  11.729
29694W        W96125  31.005  12.589   2.893
29695W        W96126  26.072  33.621  12.940
29696W        W96127  20.970   8.819   3.250
29697W        W96128   8.130  20.564  11.973
29698W        W96129  32.376  37.647  13.446
29699W        W96130  20.171  26.723  12.075
29700W        W96131  16.193  12.042   0.024
29701W        W96132   7.435  19.816  14.971
29702W        W96133  36.612  44.357  13.798
29703W        W96134  32.808  27.405  11.402
29704W        W96135   6.922   0.536   1.620
29705W        W96136  22.524  10.643   0.327
29706W        W96137   0.881  34.674  11.173
29707W        W96138  22.396  22.626  10.451
29708W        W96139   4.681  14.869   1.814
29709W        W96140  40.014  23.158   2.249
29710W        W96141  42.360  10.573  12.191
29711W        W96142  21.806  41.411   4.479
29712W        W96143  14.988  38.158   3.651
29713W        W96144  22.302  21.482   2.297
29714W        W96145  32.603  43.011   1.325
29715W        W96146   1.144  12.433  14.840
29716W        W96147  17.339   9.147   3.703
29717W        W96148  13.461  13.312   0.306
29718W        W96149  41.425  25.991   3.826
29719W        W96150  43.218  38.532   0.367
29720W        W96151  14.662  39.945   2.578
29721W        W96152  27.650  12.184   2.183
29722W        W96153  32.533  40.254   1.724
29723W        W96154  39.022   2.384  10.357
29724W        W96155  14.384  16.652   0.377
29725W        W96156  42.470   3.449  14.927
29726W        W96157  29.333   2.755  11.679
29727W        W96158  29.216  44.766  12.175
29728W        W96159  24.533  11.998  13.325
29729W        W96160   8.426  24.730   1.279
29730W        W96161  17.124  22.687  10.487
29731W        W96162   3.756  20.464   3.579
29732W        W96163  25.435  38.287   2.321
29733W        W96164   8.389  14.445  11.273
29734W        W96165  32.640  15.402  11.414
29735W        W96166   4.345  31.178  10.736
29736W        W96167  23.251   5.040  12.069
29737W        W96168   1.195  16.581   4.285
29738W        W96169  34.684   6.188   2.056
29739W        W96170  19.532  25.992   4.561
29740W        W96171  15.099  32.353  12.561
29741W        W96172  12.666  11.706   3.288
29742W        W96173  11.146   3.146   3.764
29743W        W96174   4.926  33.945  13.106
29744W        W96175  19.571  30.196   3.673
29745W        W96176  26.676  13.655  12.503
29746W        W96177  34.942  14.930   0.069
29747W        W96178  10.785  28.739   4.546
29748W        W96179  34.091   6.689  11.342
29749W        W96180  11.855  19.551   3.617
29750W        W96181   9.277   8.644  11.289
29751W        W96182  14.745  18.125  12.416
29752W        W96183  20.269  12.150   0.321
29753W        W96184  19.684  20.826  10.668
29754W        W96185   9.718   1.032   0.928
29755W        W96186   7.358  25.514   0.995
29756W        W96187  11.441  19.380   0.339
29757W        W96188  16.631   7.471  11.609
29758W        W96189   9.571   9.176  10.603
29759W        W96190  40.444  36.476   2.907
29760W        W96191  44.884  24.270  11.146
29761W        W96192  16.355  28.986  14.905
29762W        W96193  17.401  18.785   5.039
29763W        W96194   2.768  41.383  12.613
29764W        W96195  23.933  13.865   0.934
29765W        W96196  40.282  19.225   4.069
29766W        W96197  10.980  19.070  14.973
29767W        W96198  25.882  16.928   3.726
29768W        W96199   3.422  16.137   1.151
29769W        W96200   3.888   7.357   1.482
29770W        W96201  21.115  36.897   0.181
29771W        W96202  21.149   8.276  13.601
29772W        W96203  41.292  18.349   0.748
29773W        W96204  43.107  15.102   1.594
29774W        W96205   8.780  27.923   2.276
29775W        W96206  12.805  20.970  13.481
29776W        W96207  32.605  32.631  13.559
29777W        W96208  28.336   6.143  13.403
29778W        W96209  43.655   7.832   4.677
29779W        W96210  30.943  12.272   0.726
29780W        W96211  33.827  23.909   2.599
29781W        W96212  44.920  17.271  10.645
29782W        W96213  32.702   8.292  11.706
29783W        W96214  36.903   2.313  14.580
29784W        W96215  42.540  35.768  12.507
29785W        W96216   4.048  25.942   1.047
29786W        W96217  39.502  28.941  14.286
29787W        W96218  21.935  19.986  13.103
29788W        W96219   0.071  29.021  11.655
29789W        W96220  27.168   2.787   3.905
29790W        W96221  44.298  41.404  13.065
29791W        W96222   6.764  31.993  13.900
29792W        W96223  41.321  18.054  14.428
29793W        W96224   2.219   9.149   1.870
29794W        W96225  36.208  12.706  11.679
29795W        W96226  19.704  29.606   1.725
29796W        W96227   1.140  20.698  14.040
29797W        W96228  39.561   6.826   1.164
29798W        W96229  32.060  18.533   3.361
29799W        W96230   1.343  22.152   2.236
29800W        W96231  28.513   1.705   4.171
29801W        W96232  42.885   4.546  13.271
29802W        W96233  29.719  40.367  13.381
29803W        W96234  13.112  15.199  11.543
29804W        W96235  23.315  15.041   1.425
29805W        W96236  43.511   4.824  12.461
29806W        W96237  12.337  14.308  13.979
29807W        W96238   0.955  37.873  14.214
29808W        W96239  35.026   3.633  14.862
29809W        W96240   6.373  28.644   2.219
29810W        W96241  20.080  38.473  13.063
29811W        W96242   1.996  33.505   0.484
29812W        W96243  12.632  19.055  13.352
29813W        W96244  31.232  36.531   3.997
29814W        W96245  27.030  16.291  13.510
29815W        W96246  12.682  32.914  11.034
29816W        W96247  26.757  27.356   4.023
29817W        W96248  17.181  40.507   0.523
29818W        W96249  43.527  21.589  14.973
29819W        W96250   0.083   6.215  11.143
29820W        W96251   3.678  26.327  12.509
29821W        W96252  16.788   1.899  14.728
29822W        W96253   8.894   9.158  13.377
29823W        W96254  32.078  36.082  13.421
29824W        W96255  32.945  16.079  11.458
29825W        W96256  24.921   0.299  13.188
29826W        W96257  18.224  17.602   0.425
29827W        W96258  35.472   4.926  11.192
29828W        W96259  32.060  36.530  11.583
29829W        W96260  38.466  14.785   2.973
29830W        W96261  17.883  35.494   0.855
29831W        W96262  18.824   6.276  10.326
29832W        W96263  37.423   2.134  13.818
29833W        W96264  18.597  34.006   2.587
29834W        W96265  22.339  36.892  13.749
29835W        W96266  35.433  42.549   4.544
29836W        W96267  13.669  21.961  12.448
29837W        W96268  10.655  12.249   1.222
29838W        W96269  36.576  19.105  13.127
29839W        W96270  26.835  19.808   4.851
29840W        W96271  23.538  21.707   5.124
29841W        W96272   3.095  19.080   0.490
29842W        W96273  35.268  32.368   4.122
29843W        W96274  33.155  33.502   3.062
29844W        W96275  36.182   4.016   4.220
29845W        W96276  22.074  20.683   3.991
29846W        W96277  40.087  13.046   1.748
29847W        W96278  22.241   5.797  12.006
29848W        W96279  26.010   3.836   1.324
29849W        W96280  11.759  14.117   1.047
29850W        W96281   5.419  19.526   2.838
29851W        W96282   0.874  44.865  14.335
29852W        W96283  25.606   8.899   0.753
29853W        W96284  28.694  14.364   2.725
29854W        W96285  18.993  16.638  13.009
29855W        W96286  17.382  41.352  12.193
29856W        W96287  19.648  10.342   3.371
29857W        W96288  38.990  15.375  12.628
29858W        W96289   8.717  13.766  14.950
29859W        W96290  22.520   1.868  12.632
29860W        W96291  34.055   9.419   1.451
29861W        W96292  14.344  24.342  12.268
29862W        W96293  24.672  35.600   3.478
29863W        W96294  17.968  36.862  12.842
29864W        W96295   3.001  14.254   4.452
29865W        W96296   4.835  42.908   4.130
29866W        W96297  41.456   3.295   4.848
29867W        W96298  23.535   1.448   4.064
29868W        W96299  20.149   6.153  13.437
29869W        W96300   4.950  11.675  13.357
29870W        W96301  39.984  38.696  10.199
29871W        W96302  10.175  16.418  12.136
29872W        W96303   7.378   8.170   3.323
29873W        W96304  36.559  25.524   1.850
29874W        W96305  16.822  31.460  14.474
29875W        W96306  43.277  17.865  11.955
29876W        W96307  29.266  23.277   2.270
29877W        W96308   7.934  20.596  10.612
29878W        W96309  13.315   2.831  11.094
29879W        W96310   7.238   0.285   3.339
29880W        W96311  14.027  38.042  13.113
29881W        W96312  18.254  39.113  10.585
29882W        W96313  37.998  27.461  13.039
29883W        W96314  44.211  40.111   3.182
29884W        W96315   8.514  37.346  11.554
29885W        W96316  19.165  11.758  11.424
29886W        W96317  27.591  28.469   0.119
29887W        W96318  15.151   5.221  10.286
29888W        W96319  41.544  20.136   3.411
29889W        W96320  26.230  24.945  12.501
29890W        W96321   8.873  21.703   4.701
29891W        W96322  43.581  30.143  10.763
29892W        W96323  26.604  32.068   1.000
29893W        W96324   7.414   9.614   3.796
29894W        W96325  19.897   5.725   2.463
29895W        W96326  44.855  38.750   1.485
29896W        W96327  44.812  14.737   4.587
29897W        W96328  36.154   8.805   0.491
29898W        W96329  31.169  37.557   4.055
29899W        W96330  26.070  18.275   0.899
29900W        W96331  10.792  19.831   4.432
29901W        W96332  20.706  30.434   3.277
29902W        W96333  38.281   1.867   3.336
29903W        W96334  29.552  38.398   1.178
29904W        W96335  43.007  35.576  12.608
29905W        W96336   1.458   8.820   3.757
29906W        W96337  41.159  25.055  13.892
29907W        W96338  22.810   5.888  10.489
29908W        W96339   2.657  17.112   3.273
29909W        W96340  38.493  29.100   1.815
29910W        W96341  39.035  14.666  13.381
29911W        W96342  38.527  41.475  14.014
29912W        W96343  26.102  26.854   2.407
29913W        W96344  23.276   2.455  13.539
29914W        W96345  20.778   1.274   4.178
29915W        W96346  40.982  33.458  14.895
29916W        W96347  25.956  44.291  10.605
29917W        W96348   9.372  25.499   4.567
29918W        W96349  36.435  29.124   1.735
29919W        W96350   5.272  40.416   4.642
29920W        W96351  24.651  38.728   0.382
29921W        W96352   8.326  44.479   2.007
29922W        W96353  20.015  24.774   4.192
29923W        W96354  28.939  30.093  13.850
29924W        W96355  25.639  42.457   4.203
29925W        W96356  27.670  29.517  13.420
29926W        W96357  10.144  37.336   1.489
29927W        W96358   2.304   4.870  11.437
29928W        W96359  35.478  29.375   2.434
29929W        W96360  19.021  17.603   4.516
29930W        W96361  11.728  21.201  14.894
29931W        W96362   0.214   6.826   4.777
29932W        W96363  34.687   8.957  13.864
29933W        W96364  34.425  21.566   1.167
29934W        W96365  33.138   7.350   4.254
29935W        W96366  31.178  17.024   0.739
29936W        W96367  21.233   1.018  13.756
29937W        W96368  16.005  12.122   1.798
29938W        W96369   7.460  28.443   0.689
29939W        W96370   6.314   3.803  13.176
29940W        W96371  14.333  41.932   0.322
29941W        W96372   5.919  29.007   3.650
29942W        W96373  36.580  29.317  10.310
29943W        W96374  14.660  31.393  14.468
29944W        W96375  13.312  40.937  11.523
29945W        W96376  41.704  15.675   4.643
29946W        W96377  15.423   2.817  10.235
29947W        W96378   0.165  24.964   4.144
29948W        W96379   8.616  27.885  14.389
29949W        W96380   3.306  13.454   3.996
29950W        W96381  17.515  33.360  11.255
29951W        W96382   8.428   7.288  13.912
29952W        W96383  32.293  43.004  12.506
29953W        W96384   0.997  18.478   0.728
29954W        W96385  13.387  39.827  10.761
29955W        W96386   7.123  24.264   1.362
29956W        W96387   6.294  40.814  10.468
29957W        W96388  10.394  42.367  13.007
29958W        W96389  18.221  25.070   3.049
29959W        W96390  21.514  38.028   2.703
29960W        W96391  41.092  11.226  10.764
29961W        W96392  19.016  25.159  14.888
29962W        W96393  44.676  40.151  10.615
29963W        W96394  37.543   0.153  13.389
29964W        W96395  20.230  44.824   2.100
29965W        W96396  43.829  13.839  11.642
29966W        W96397  33.437  13.474   3.891
29967W        W96398   1.226  37.332   2.944
29968W        W96399  15.826  36.041   0.514
29969W        W96400  26.996   5.124   0.213
29970W        W96401  31.645   0.656   1.932
29971W        W96402  27.710  34.727   0.814
29972W        W96403  30.605   9.204   4.535
29973W        W96404   1.632  13.868  12.423
29974W        W96405  12.263  36.722  14.361
29975W        W96406  23.608  26.422   1.879
29976W        W96407  39.888  29.696   2.848
29977W        W96408   4.268   6.731   1.850
29978W        W96409  44.494  23.297   3.372
29979W        W96410  20.998  23.158  10.724
29980W        W96411  37.922   0.876  11.961
29981W        W96412   6.452  28.055  13.552
29982W        W96413  17.745  16.901  14.713
29983W        W96414  39.175   5.669  13.399
29984W        W96415  10.399  17.337  13.935
29985W        W96416   4.174  18.205  10.348
29986W        W96417  19.109  10.840   3.765
29987W        W96418  42.896  15.390   0.414
29988W        W96419  30.193  39.284  11.333
29989W        W96420  12.653   3.316  12.432
29990W        W96421   2.248   4.436   3.247
29991W        W96422  35.978  42.569  13.459
29992W        W96423  30.873  13.736  13.111
29993W        W96424   9.679  21.492  14.742
29994W        W96425  30.350  43.438  12.806
29995W        W96426  36.327   1.779  12.029
29996W        W96427  26.341  22.768   0.797
29997W        W96428  37.786  35.533   3.915
29998W        W96429  35.140  37.782   2.355
29999W        W96430  11.448  21.047  12.878
30000W        W96431  15.403  28.499   1.744
30001W        W96432   3.163  42.811   4.592
30002W        W96433  25.036   4.885   2.065
30003W        W96434  14.617   3.453   0.226
30004W        W96435  43.567  33.970   0.592
30005W        W96436  10.167  26.738   0.463
30006W        W96437  41.859   6.910   3.125
30007W        W96438  12.338   6.682  13.894
30008W        W96439  41.858  44.436  14.317
30009W        W96440  36.394   4.939  11.945
30010W        W96441  35.904  44.693  14.254
30011W        W96442  33.009  19.529   4.136
30012W        W96443   0.400  41.401   1.294
30013W        W96444  23.963  40.515  14.547
30014W        W96445   3.758  32.147  11.883
30015W        W96446  16.855  21.942  11.118
30016W        W96447  40.912  24.309  14.728
30017W        W96448  24.733   2.941  14.670
30018W        W96449   0.779  22.484  14.942
30019W        W96450  14.854   8.072  11.708
30020W        W96451   1.644   3.921  10.730
30021W        W96452  30.501   4.824   4.479
30022W        W96453  29.696   3.949  12.057
30023W        W96454  41.810  34.361  13.935
30024W        W96455  32.220  44.950   1.351
30025W        W96456  43.901  24.975   3.385
30026W        W96457  36.723  33.621   2.450
30027W        W96458  11.943  22.040   3.926
30028W        W96459  22.564  38.947  13.922
30029W        W96460  29.988  19.971   0.685
30030W        W96461  10.345  27.003   3.931
30031W        W96462  13.764  37.967   4.161
30032W        W96463   7.509  32.742   2.274
30033W        W96464  35.488   0.143   1.569
30034W        W96465  21.330   2.224  11.534
30035W        W96466  40.888  41.391  14.849
30036W        W96467   7.669  41.323   0.193
30037W        W96468  19.646  28.676  13.515
30038W        W96469  12.473  16.401   1.364
30039W        W96470  42.903  35.319  14.508
30040W        W96471  18.958   9.904   3.695
30041W        W96472   4.289  25.432   3.130
30042W        W96473   9.089  31.569   4.173
30043W        W96474  17.607   5.312  13.933
30044W        W96475   1.354   7.301  11.238
30045W        W96476  13.219  29.097  14.344
30046W        W96477   7.519  24.068  14.994
30047W        W96478   3.271   8.095  10.603
30048W        W96479  24.196  16.883   1.306
30049W        W96480  17.600  37.367  10.203
30050W        W96481  43.047  30.988  12.559
30051W        W96482  28.054  16.776   3.707
30052W        W96483  28.602  33.500  12.940
30053W        W96484  33.296  15.356   1.382
30054W        W96485  17.253  33.979   0.610
30055W        W96486  14.802   8.822   1.309
30056W        W96487  35.544  44.892  12.606
30057W        W96488  17.181  35.958   3.586
30058W        W96489   0.343  19.273  13.302
30059W        W96490  22.237   6.468   3.753
30060W        W96491  34.004  11.284  14.928
30061W        W96492  23.078  42.887   1.373
30062W        W96493  30.438  44.959  11.636
30063W        W96494  31.060  11.041  11.983
30064W        W96495   7.461  11.030  11.109
30065W        W96496  36.314  44.331  14.262
30066W        W96497   2.826   0.976   3.734
30067W        W96498  26.637   2.955   4.634
30068W        W96499  41.353  18.597   2.783
30069W        W96500  27.543  20.616  13.007
30070W        W96501  38.573   0.807  10.336
30071W        W96502  15.319   4.354   2.657
30072W        W96503  13.209   7.214   2.865
30073W        W96504   2.504  27.451   3.239
30074W        W96505  20.793  42.018   3.147
30075W        W96506  12.104  18.053  11.986
30076W        W96507  34.061  21.000   4.099
30077W        W96508  27.169  31.145  14.312
30078W        W96509  43.815  32.566   2.104
30079W        W96510  13.058  31.984   1.516
30080W        W96511  13.614  35.567   3.698
30081W        W96512  33.395  23.055   1.829
30082W        W96513  37.862  44.624   2.964
30083W        W96514  31.562   7.858  13.747
30084W        W96515  22.268  17.185  14.314
30085W        W96516  33.466  38.161  14.353
30086W        W96517  11.479  41.825   2.170
30087W        W96518   6.242  12.877   3.422
30088W        W96519  31.819  30.635  10.700
30089W        W96520  34.541  24.218  14.040
30090W        W96521  38.914   2.048   0.005
30091W        W96522  12.412  39.539   2.330
30092W        W96523  41.760  21.424   3.294
30093W        W96524  41.053  17.704  13.455
30094W        W96525  15.809  34.726   2.353
30095W        W96526  38.891  33.065   2.965
30096W        W96527  34.996  40.907  13.422
30097W        W96528  10.034  29.607   2.028
30098W        W96529  44.369  25.237   1.371
30099W        W96530  32.471  18.554   1.233
30100W        W96531  22.034  20.361   0.844
30101W        W96532  18.178   1.454  13.398
30102W        W96533  39.761  33.871   1.644
30103W        W96534  35.798  40.987   0.707
30104W        W96535   2.220  11.291   4.338
30105W        W96536  12.615   1.476  14.807
30106W        W96537   5.443  19.269  11.730
30107W        W96538   0.178  24.628   4.605
30108W        W96539  31.618  29.155   4.656
30109W        W96540  35.113  14.049   3.581
30110W        W96541  32.937  38.402  11.964
30111W        W96542  25.550   1.725  12.051
30112W        W96543  34.360  33.270   4.541
30113W        W96544  33.106  41.508   4.668
30114W        W96545  24.104   7.181  14.236
30115W        W96546  17.053   8.239   3.806
30116W        W96547  19.053  29.418  13.141
30117W        W96548  26.976  20.010  11.628
30118W        W96549  34.416   2.507   4.672
30119W        W96550   3.803  34.264   1.327
30120W        W96551   8.877  19.423   1.894
30121W        W96552  10.638  32.632   0.775
30122W        W96553  43.848  27.691   4.134
30123W        W96554  39.768  36.444   1.019
30124W        W96555  21.924  19.613  14.423
30125W        W96556  31.345  30.393  14.363
30126W        W96557  18.806  30.946  11.060
30127W        W96558  28.072  25.671  12.504
30128W        W96559  24.078  12.382  14.502
30129W        W96560  26.444  40.300  14.077
30130W        W96561   9.758  38.603   1.644
30131W        W96562  12.285  41.298  14.345
30132W        W96563  37.385  35.372  11.450
30133W        W96564  22.291   6.394  13.952
30134W        W96565   0.838  23.179  10.732
30135W        W96566  24.812  10.338  14.217
30136W        W96567  43.826  44.472  12.065
30137W        W96568  26.512  14.320  12.187
30138W        W96569  37.063  26.884   0.666
30139W        W96570  32.168  14.134   0.202
30140W        W96571   3.880   8.629   2.931
30141W        W96572  14.345  22.102  13.416
30142W        W96573  23.156  31.515   1.028
30143W        W96574  27.071  20.508  11.640
30144W        W96575  38.382  17.846  11.473
30145W        W96576   4.870  18.533  14.273
30146W        W96577  32.410  18.706   4.575
30147W        W96578  35.511   9.575  11.784
30148W        W96579  11.275  38.505  12.655
30149W        W96580   0.012   6.741   2.879
30150W        W96581   3.146  11.123   3.782
30151W        W96582  36.572  35.528  11.984
30152W        W96583   8.366   4.967   3.800
30153W        W96584  40.789  36.311  11.063
30154W        W96585  10.171   5.708  13.191
30155W        W96586   1.036  20.246   0.424
30156W        W96587  16.537  21.148   1.820
30157W        W96588   2.695  33.934   1.874
30158W        W96589  17.791  41.936   3.708
30159W        W96590  28.096   0.265   1.236
30160W        W96591  34.038  44.591  13.331
30161W        W96592   7.960  44.218   1.248
30162W        W96593   6.544   4.192   3.736
30163W        W96594  24.015   5.166  14.684
30164W        W96595  43.601  41.868  13.503
30165W        W96596  26.364  20.609  13.773
30166W        W96597  39.538  37.565   2.845
30167W        W96598  30.588   9.417   1.135
30168W        W96599  34.358  20.780  14.379
30169W        W96600  24.884  16.088  14.846
30170W        W96601  28.033   0.930   3.366
30171W        W96602   8.306  23.681   0.542
30172W        W96603   3.262  31.421   4.571
30173W        W96604  15.522  32.833  12.558
30174W        W96605  33.555  10.286  14.236
30175W        W96606   2.272  21.454   0.114
30176W        W96607  12.930   6.669   3.136
30177W        W96608  18.366  19.054   4.890
30178W        W96609  27.511  41.415  13.384
30179W        W96610  36.507   1.976   4.189
30180W        W96611   2.414  11.911  13.717
30181W        W96612   1.599  13.898  11.405
30182W        W96613  18.381  39.393   0.910
30183W        W96614  22.726  24.057  14.329
30184W        W96615  29.095  36.752   0.511
30185W        W96616  27.118  25.342   1.513
30186W        W96617  22.682  31.726  13.950
30187W        W96618  40.981  31.512   4.883
30188W        W96619  21.260   0.809   4.696
30189W        W96620  32.561  39.742  14.695
30190W        W96621  26.135  21.074  12.169
30191W        W96622  11.439  21.541   1.208
30192W        W96623  11.411  34.071  13.894
30193W        W96624  12.640  19.751  14.990
30194W        W96625  34.955  30.417  14.890
30195W        W96626  40.316  16.823  11.232
30196W        W96627  40.440  24.074  13.554
30197W        W96628  10.297   9.016  12.876
30198W        W96629  41.317  12.431   4.587
30199W        W96630  14.372  22.275   1.691
30200W        W96631  43.303  30.398   0.653
30201W        W96632  24.132  25.020   0.128
30202W        W96633  29.074  31.528  13.812
30203W        W96634  14.178  25.232  14.589
30204W        W96635  11.235  12.961  11.860
30205W        W96636  26.304   0.852   3.389
30206W        W96637   6.147   9.884   1.233
30207W        W96638  33.018   5.927   3.430
30208W        W96639  13.676  16.125   4.549
30209W        W96640  19.009   1.650   0.517
30210W        W96641   4.855   7.770  11.051
30211W        W96642  22.703   6.384  13.147
30212W        W96643  36.466  42.109   5.061
30213W        W96644  21.652   4.658  13.358
30214W        W96645  21.347  27.670  10.583
30215W        W96646  27.224  21.625  12.441
30216W        W96647  16.357   5.387   1.029
30217W        W96648  29.547  22.280   4.862
30218W        W96649  27.332  36.338   0.391
30219W        W96650   9.724  11.954   2.155
30220W        W96651  16.980  14.801  14.925
30221W        W96652  31.619  21.539  10.703
30222W        W96653  26.906  17.702  13.632
30223W        W96654  10.748  34.580  14.463
30224W        W96655   3.154  12.051   1.771
30225W        W96656  36.739  44.780   3.718
30226W        W96657  37.582  18.108   4.897
30227W        W96658  18.597  21.108   1.783
30228W        W96659  32.505  37.285  10.680
30229W        W96660  39.420  13.840  11.943
30230W        W96661  32.593  25.829  11.563
30231W        W96662  10.033   4.410   0.645
30232W        W96663  21.703  32.611   2.152
30233W        W96664  27.877  34.531  14.039
30234W        W96665   2.694   8.287  13.924
30235W        W96666  21.868  23.792   2.349
30236W        W96667   7.271  17.857   5.380
30237W        W96668  28.445   9.045  14.637
30238W        W96669  26.326  33.449   2.777
30239W        W96670   4.257  18.436   0.207
30240W        W96671  44.010  24.484   3.601
30241W        W96672   0.078  41.524  14.807
30242W        W96673  26.016   5.718   1.646
30243W        W96674  30.353  28.220   1.927
30244W        W96675   6.280  16.387  13.452
30245W        W96676   3.504  26.470   2.326
30246W        W96677   3.931  43.753   0.891
30247W        W96678  13.072  18.054  12.222
30248W        W96679  16.022  34.622   4.453
30249W        W96680  29.322   8.363  11.970
30250W        W96681  36.104   0.553   2.581
30251W        W96682  15.704   3.135   1.438
30252W        W96683  20.177  40.515  13.413
30253W        W96684  37.091  16.138   2.872
30254W        W96685   7.668  27.475   2.318
30255W        W96686  15.191  34.880   1.836
30256W        W96687   3.810   6.917   0.255
30257W        W96688  44.254  10.316   1.612
30258W        W96689  20.319   4.641   2.747
30259W        W96690   0.255  24.719  13.583
30260W        W96691  29.741   6.783   1.119
30261W        W96692  16.225  40.791  14.116
30262W        W96693   3.328  16.632   4.465
30263W        W96694  19.217   5.198  13.624
30264W        W96695  41.055   7.772  11.057
30265W        W96696  23.694  11.581   1.753
30266W        W96697  14.086  36.016  13.660
30267W        W96698  29.134  34.075   1.600
30268W        W96699   1.928  20.263  14.971
30269W        W96700   5.860   7.253   0.804
30270W        W96701  15.781   9.838  11.215
30271W        W96702  40.605  19.181   4.489
30272W        W96703  25.489  11.835   4.057
30273W        W96704   0.345  29.184   4.534
30274W        W96705  19.061  11.545  10.969
30275W        W96706  35.511  28.479   0.485
30276W        W96707  12.169  39.746  14.906
30277W        W96708  14.623   1.577   0.782
30278W        W96709  31.972   7.982  14.055
30279W        W96710   0.696  38.299  11.234
30280W        W96711  21.047  14.839  12.338
30281W        W96712  38.386  43.518   1.825
30282W        W96713   0.241  28.443  10.807
30283W        W96714  38.581  30.936  11.269
30284W        W96715   3.514  29.610  14.797
30285W        W96716  42.220  14.811  10.779
30286W        W96717  19.063  32.894  11.612
30287W        W96718  34.238   4.331  12.528
30288W        W96719  16.240  43.989  12.591
30289W        W96720   1.339  21.248  13.470
30290W        W96721   3.591  37.755  13.119
30291W        W96722  18.598  29.570   0.198
30292W        W96723  15.297  22.241  13.837
30293W        W96724  29.697  44.333   3.178
30294W        W96725  26.215  18.399  12.515
30295W        W96726  34.831  42.888  14.841
30296W        W96727  27.468  36.543   2.105
30297W        W96728   0.219  27.455   1.475
30298W        W96729   5.427   6.104   2.789
30299W        W96730  18.495  31.466   1.440
30300W        W96731  16.814  26.387   3.271
30301W        W96732  42.456  41.432   0.834
30302W        W96733  36.477  26.037   2.120
30303W        W96734  25.186   7.771  10.647
30304W        W96735  24.446  22.303  10.243
30305W        W96736  28.226  30.839  11.564
30306W        W96737   8.293  33.814  14.991
30307W        W96738  41.702  11.835   0.334
30308W        W96739  29.435  40.387  12.949
30309W        W96740  16.594   7.267   4.807
30310W        W96741   8.874   5.042   1.746
30311W        W96742  27.069  36.614  11.645
30312W        W96743  20.112  16.822  14.865
30313W        W96744  11.393  39.919   4.072
30314W        W96745  44.230  17.156   1.419
30315W        W96746  34.797   5.444   2.399
30316W        W96747  30.654   6.241   0.818
30317W        W96748  42.241  35.016  11.296
30318W        W96749   7.830  28.672   2.830
30319W        W96750  11.850  35.153   4.601
30320W        W96751  28.121  12.170   4.785
30321W        W96752  30.016  30.539   4.100
30322W        W96753   7.270   7.632  13.896
30323W        W96754  44.986  38.419  11.995
30324W        W96755   5.730  30.554   1.768
30325W        W96756   1.968  39.779  14.878
30326W        W96757  12.867  16.603   4.094
30327W        W96758  17.474  16.525   0.996
30328W        W96759  27.896  40.854   3.413
30329W        W96760  11.103  32.015  13.060
30330W        W96761   5.327  14.637  12.676
30331W        W96762  19.538  40.597  13.940
30332W        W96763  24.703  34.900  13.434
30333W        W96764   0.315  23.023   2.710
30334W        W96765  13.489  25.499  11.988
30335W        W96766  40.094   8.213  11.623
30336W        W96767  41.054  40.440   4.733
30337W        W96768  26.643  11.717   0.511
30338W        W96769  10.803  26.243  11.988
30339W        W96770  19.801  20.134   1.186
30340W        W96771  11.557  43.344  13.344
30341W        W96772  37.597  43.461  14.481
30342W        W96773  42.757  22.102   2.201
30343W        W96774   3.393  15.659  11.575
30344W        W96775  29.648  30.972  11.676
30345W        W96776  24.361   7.780  10.820
30346W        W96777   3.292  42.525  12.808
30347W        W96778  42.599   2.405  14.849
30348W        W96779  26.802  25.525  11.167
30349W        W96780  14.044  13.841   2.618
30350W        W96781  14.093  37.606  10.364
30351W        W96782   9.745  40.514   3.906
30352W        W96783   5.673  22.472   1.998
30353W        W96784  40.576  40.034  11.142
30354W        W96785  31.563  24.787   0.800
30355W        W96786  26.566   8.074   1.911
30356W        W96787  31.717   0.913  12.012
30357W        W96788   7.825  22.248  11.515
30358W        W96789  21.290  20.354   2.659
30359W        W96790  34.280  33.367   1.698
30360W        W96791  16.467  26.779   3.828
30361W        W96792  33.662   0.757   3.741
30362W        W96793  27.091  26.910   3.175
30363W        W96794  16.140  26.763   2.860
30364W        W96795  17.215  15.855  10.739
30365W        W96796  34.089  27.678  13.378
30366W        W96797  32.852  35.905   4.366
30367W        W96798  40.753   3.318   4.731
30368W        W96799  36.897  14.988   3.542
30369W        W96800  18.745  36.988  13.505
30370W        W96801  12.786  19.962   0.859
30371W        W96802   9.188  18.341   3.143
30372W        W96803   8.274  12.028   1.547
30373W        W96804  33.983  10.349   0.897
30374W        W96805  35.401  11.807   4.210
30375W        W96806   3.472  15.747  13.297
30376W        W96807  43.589  35.015  12.775
30377W        W96808   1.701  16.132  13.869
30378W        W96809  36.191   4.028  12.860
30379W        W96810  33.606  26.875   3.661
30380W        W96811  16.765   9.347   4.922
30381W        W96812  34.352  40.521   0.900
30382W        W96813  38.142   0.799   2.112
30383W        W96814  33.822  32.569   5.088
30384W        W96815   8.708  40.002   1.868
30385W        W96816  41.921  19.667  11.841
30386W        W96817   6.865  24.091   0.860
30387W        W96818  22.587  35.690  13.358
30388W        W96819   7.665  42.992  13.453
30389W        W96820   3.292   6.230  14.269
30390W        W96821   3.880  44.966   1.313
30391W        W96822   0.049  32.671  12.784
30392W        W96823  41.794  37.545  11.859
30393W        W96824  17.400  16.591   5.343
30394W        W96825  19.202  21.506   0.856
30395W        W96826   6.961   4.679   3.679
30396W        W96827   0.916  30.090   4.257
30397W        W96828  27.435   6.737   1.204
30398W        W96829  41.317  10.728  10.376
30399W        W96830  15.997   2.508  13.920
30400W        W96831   5.745  36.136   2.333
30401W        W96832   2.352   1.798  11.509
30402W        W96833  14.642   4.324   0.656
30403W        W96834  31.626  32.611   2.730
30404W        W96835  12.439  17.667   0.899
30405W        W96836  24.787  34.187   5.539
30406W        W96837  18.779  37.937  11.081
30407W        W96838   7.855   2.195  12.956
30408W        W96839  17.002  12.703  10.227
30409W        W96840  25.887  15.131  14.883
30410W        W96841  25.086  15.177  14.573
30411W        W96842   8.631  14.669   1.440
30412W        W96843  12.690  28.169   3.151
30413W        W96844   0.347  25.731   1.390
30414W        W96845   8.127   8.943   0.441
30415W        W96846  42.524  22.194   4.646
30416W        W96847  26.678  30.102  14.327
30417W        W96848  23.006  11.488  12.478
30418W        W96849  12.953  14.076   4.919
30419W        W96850  17.847  19.422   4.089
30420W        W96851  11.817  19.267  13.851
30421W        W96852  14.055  37.480   2.707
30422W        W96853   7.366  20.597  13.606
30423W        W96854   6.966  18.139   5.049
30424W        W96855  32.216  44.339  13.446
30425W        W96856   3.252  19.980   2.852
30426W        W96857   6.685  21.785   1.837
30427W        W96858  26.704  26.143  12.912
30428W        W96859  19.936   0.222   0.008
30429W        W96860   2.280  36.040  13.774
30430W        W96861  16.174   7.769   1.206
30431W        W96862  10.874  42.787  10.279
30432W        W96863  12.860  35.721  11.985
30433W        W96864  23.736   2.830  10.743
30434W        W96865  14.272  23.730  13.427
30435W        W96866   4.516  30.098   2.084
30436W        W96867  21.497  15.625  10.318
30437W        W96868  32.510   7.365   3.602
30438W        W96869   1.482   4.866   3.384
30439W        W96870  23.966  11.608  11.100
30440W        W96871  31.962  19.372  10.694
30441W        W96872  10.244  12.355   5.037
30442W        W96873  10.050  36.146   1.933
30443W        W96874   6.630   8.896   1.676
30444W        W96875  11.804   1.022   3.724
30445W        W96876  16.146  40.418  11.491
30446W        W96877  19.783  12.292   0.053
30447W        W96878  12.785  23.744   0.033
30448W        W96879  26.153  38.713  11.588
30449W        W96880  26.615   2.992   0.287
30450W        W96881  26.265  10.779   2.819
30451W        W96882  16.728   7.306   4.213
30452W        W96883   6.136   2.246   2.886
30453W        W96884   1.309   2.235   4.643
30454W        W96885  15.206  17.654   1.652
30455W        W96886  13.246  19.752  13.122
30456W        W96887  13.349  39.778  14.364
30457W        W96888  20.217  17.157   4.198
30458W        W96889  29.878  13.927  13.876
30459W        W96890  16.807   3.004   1.257
30460W        W96891  18.287   1.326   4.100
30461W        W96892  12.312  14.341   4.225
30462W        W96893  28.015  39.812  12.086
30463W        W96894  14.580  39.531  13.121
30464W        W96895   0.544   4.278  12.904
30465W        W96896  35.263  35.702  13.592
30466W        W96897   3.703  18.126  13.272
30467W        W96898  32.631  19.465   0.389
30468W        W96899  30.905   4.171  13.636
30469W        W96900  13.396  35.698  12.017
30470W        W96901  23.236   0.249  11.704
30471W        W96902  18.317  12.780   4.452
30472W        W96903  23.238  32.947   3.305
30473W        W96904   7.175  26.017   4.765
30474W        W96905  29.100  29.205   0.337
30475W        W96906  24.629   6.436  13.497
30476W        W96907  34.580  39.950   3.273
30477W        W96908  14.093  27.369   0.078
30478W        W96909  16.028  16.389  13.082
30479W        W96910  20.640  17.502   2.822
30480W        W96911   5.370  21.342  12.843
30481W        W96912  36.097  15.980  12.445
30482W        W96913  10.965   0.984  11.168
30483W        W96914  37.071  27.861   5.314
30484W        W96915  21.097   2.358  12.509
30485W        W96916  32.062  24.750   3.841
30486W        W96917  28.168  15.127  10.934
30487W        W96918  10.825   0.980  14.122
30488W        W96919  30.976  15.261   0.472
30489W        W96920   1.235  14.614   1.036
30490W        W96921  13.770   8.823  10.939
30491W        W96922  20.980  39.416  13.191
30492W        W96923  33.579   4.833   2.276
30493W        W96924  28.667  30.893   0.943
30494W        W96925   1.778  13.367  12.507
30495W        W96926  28.182  22.698   1.822
30496W        W96927  44.223  31.030  11.215
30497W        W96928   0.899  13.165  14.418
30498W        W96929  27.498  24.256   0.928
30499W        W96930  29.951  38.645   2.701
30500W        W96931  23.714  27.979   1.734
30501W        W96932  29.244  35.578   3.750
30502W        W96933   9.887  31.943  13.315
30503W        W96934  16.156   7.046  10.947
30504W        W96935  28.462  26.251   2.423
30505W        W96936   2.768  14.806   1.806
30506W        W96937  25.502  37.395  12.943
30507W        W96938  35.103   5.847  14.908
30508W        W96939  33.597  11.910  11.579
30509W        W96940   0.449   9.944   3.797
30510W        W96941  17.395  42.997  13.768
30511W        W96942  44.696  22.207  11.424
30512W        W96943  17.317  21.299   0.978
30513W        W96944  44.802  17.674  12.616
30514W        W96945  16.623  28.553  14.459
30515W        W96946  22.107  25.022  13.854
30516W        W96947  28.453  41.343  10.696
30517W        W96948  32.589  17.694   2.933
30518W        W96949   4.689   0.222   1.872
30519W        W96950  34.481   9.842  14.308
30520W        W96951  37.080  14.839  10.983
30521W        W96952  40.036  41.846   0.995
30522W        W96953  27.490  43.648   1.599
30523W        W96954  21.131  39.369  13.676
30524W        W96955  24.973  16.722   4.619
30525W        W96956  32.852  18.252  12.943
30526W        W96957  38.911   6.772   0.419
30527W        W96958  41.057  12.868  12.564
30528W        W96959  29.938  18.052  13.512
30529W        W96960  38.721  10.700  11.561
30530W        W96961  22.476   1.306   4.551
30531W        W96962  13.827  19.093  13.822
30532W        W96963  19.569  14.311   1.455
30533W        W96964   2.065  29.083  14.005
30534W        W96965  32.036  11.361  11.068
30535W        W96966  23.453  26.426   3.696
30536W        W96967  39.357  23.001   1.326
30537W        W96968  39.672  23.654   2.447
30538W        W96969  33.126  13.760  10.803
30539W        W96970  20.238  13.893  14.259
30540W        W96971  42.109   5.782   2.272
30541W        W96972  29.575  35.459  10.769
30542W        W96973   1.476  38.871   0.947
30543W        W96974  26.322   7.212  13.391
30544W        W96975   1.883  38.504   2.302
30545W        W96976  31.496   0.286   4.744
30546W        W96977  27.513  19.472   5.165
30547W        W96978  26.287   4.943  13.161
30548W        W96979   6.656  38.252   0.414
30549W        W96980  18.804  44.565   4.429
30550W        W96981  38.353   0.019   4.365
30551W        W96982  44.953   3.967   4.708
30552W        W96983  42.005  21.609  14.909
30553W        W96984  33.201  43.889  14.916
30554W        W96985  25.425  28.286   1.024
30555W        W96986  25.982  42.311   0.212
30556W        W96987  30.297  35.382   4.310
30557W        W96988   1.027   3.794  12.133
30558W        W96989  41.027  20.908  14.220
30559W        W96990  34.223  21.279  14.583
30560W        W96991  35.354  17.376   0.742
30561W        W96992  44.660  43.520   2.243
30562W        W96993  33.014  20.922   2.977
30563W        W96994  22.094  12.390  10.504
30564W        W96995  36.395  31.153  14.819
30565W        W96996   5.714  19.065  14.048
30566W        W96997   0.967  33.554  13.299
30567W        W96998  31.382  18.903  12.112
30568W        W96999  36.468   9.368   4.679
30569W        W97000  10.839  33.238   2.403
30570W        W97001  25.513  11.266   0.741
30571W        W97002   4.451  22.075  13.485
30572W        W97003  21.505  26.967  11.492
30573W        W97004   1.751   2.878   3.413
30574W        W97005  33.149  36.458   3.091
30575W        W97006  29.625  31.724  13.389
30576W        W97007  43.855  25.428   3.118
30577W        W97008   0.343  43.367  11.598
30578W        W97009   8.198  25.188  10.945
30579W        W97010  10.312  36.635  11.302
30580W        W97011  41.030   8.726   2.746
30581W        W97012  21.924   3.844   0.246
30582W        W97013   9.879  18.686  14.409
30583W        W97014  34.669  28.228  14.830
30584W        W97015  15.585  13.729  11.601
30585W        W97016  23.171  16.973   4.591
30586W        W97017   2.539  36.923  13.804
30587W        W97018  22.012  25.697  11.579
30588W        W97019  18.016  36.311  12.011
30589W        W97020  42.912  44.215  11.691
30590W        W97021  32.882  28.522  11.908
30591W        W97022  22.459   4.633  13.702
30592W        W97023  36.404  27.277   2.670
30593W        W97024  17.622  37.420   1.882
30594W        W97025   6.911  20.257  11.115
30595W        W97026  32.310  29.758  10.218
30596W        W97027  16.716  17.742   0.333
30597W        W97028  29.662  30.663  10.474
30598W        W97029   3.242  17.034   1.868
30599W        W97030  24.099  14.653  10.723
30600W        W97031  28.141  32.124   1.610
30601W        W97032  31.042  27.024   2.690
30602W        W97033  14.821  36.944  13.831
30603W        W97034   2.983  40.360   2.260
30604W        W97035   7.314   3.674  10.942
30605W        W97036  20.833   4.438   0.253
30606W        W97037  24.083  29.122   2.902
30607W        W97038  24.740  33.844  12.458
30608W        W97039  44.354  20.695  12.861
30609W        W97040  18.836  23.398  12.080
30610W        W97041  15.443   0.507  11.008
30611W        W97042   4.748  20.821   4.431
30612W        W97043  22.557  22.988   4.153
30613W        W97044  36.067   0.756  12.437
30614W        W97045  11.917   3.932   1.981
30615W        W97046  22.894   2.821  14.741
30616W        W97047   5.552  13.056   5.172
30617W        W97048  34.364  11.760   4.472
30618W        W97049  43.475  35.858   4.937
30619W        W97050   4.791  21.625  11.810
30620W        W97051  34.470  21.986  12.559
30621W        W97052  20.800  14.086  11.585
30622W        W97053  39.327   4.153  11.544
30623W        W97054  29.914  11.493   0.486
30624W        W97055  44.041   2.934   4.914
30625W        W97056  32.867  42.896   3.065
30626W        W97057  37.355  44.690   1.577
30627W        W97058  21.020  10.170  14.953
30628W        W97059  41.825  27.203  11.095
30629W        W97060   6.901  27.904   4.166
30630W        W97061   2.723   7.650   2.385
30631W        W97062  11.279  15.167  12.473
30632W        W97063   2.384  13.172   2.817
30633W        W97064  26.447   9.628  12.667
30634W        W97065  17.348  26.567  10.270
30635W        W97066   8.355  29.933   0.745
30636W        W97067  12.246  34.955  11.884
30637W        W97068  32.081  10.942  10.763
30638W        W97069  11.271  14.554  12.928
30639W        W97070  40.071  34.371  14.505
30640W        W97071  28.327  16.323   3.707
30641W        W97072  44.556  38.310   0.281
30642W        W97073  42.437   3.913   3.409
30643W        W97074  37.034  35.055  12.020
30644W        W97075  11.807   2.034  13.452
30645W        W97076  25.763  42.229   1.317
30646W        W97077   2.362  27.500  14.533
30647W        W97078  22.224  36.023  14.264
30648W        W97079   7.421  31.299  12.473
30649W        W97080  24.207  24.149   1.711
30650W        W97081   2.725  20.236   4.799
30651W        W97082  14.597  26.867   5.044
30652W        W97083   6.312  43.841   2.589
30653W        W97084  38.921   4.245   0.361
30654W        W97085  18.651   3.015  10.605
30655W        W97086  35.138   0.789   3.236
30656W        W97087  11.962  42.360  14.173
30657W        W97088  29.428  13.691  13.853
30658W        W97089  15.637  20.585   4.568
30659W        W97090  32.643  35.010  11.203
30660W        W97091  21.965   2.265   3.864
30661W        W97092  23.020  38.468   4.096
30662W        W97093  44.531  14.233  12.104
30663W        W97094  17.079  22.117   1.868
30664W        W97095  33.993   4.210  10.572
30665W        W97096  27.525  38.987  12.967
30666W        W97097   0.045  30.930  11.630
30667W        W97098   7.253   6.205   1.369
30668W        W97099  31.538  18.312  11.103
30669W        W97100  19.021  23.790   1.711
30670W        W97101  33.673  15.166   2.360
30671W        W97102  18.750  28.101  10.373
30672W        W97103  41.504  26.081  11.603
30673W        W97104  43.909  32.662   4.352
30674W        W97105  25.369  13.783   4.239
30675W        W97106  32.788  37.578   5.004
30676W        W97107  22.524  20.158   2.013
30677W        W97108  14.150  13.258  10.549
30678W        W97109   6.315  31.869  11.896
30679W        W97110   4.610  30.440   3.295
30680W        W97111  28.420  32.952  14.788
30681W        W97112  31.960  27.116   3.144
30682W        W97113  25.168  18.276   2.754
30683W        W97114  31.034  23.633  10.668
30684W        W97115  35.865   3.228  14.841
30685W        W97116  32.088  16.578   3.740
30686W        W97117  35.846  28.071  13.426
30687W        W97118   1.879  30.233  12.857
30688W        W97119  30.121   5.859   3.526
30689W        W97120  30.990  31.582  10.846
30690W        W97121  26.209  13.045  13.836
30691W        W97122  12.026  34.297  11.270
30692W        W97123  42.386  30.665   0.265
30693W        W97124  17.099  16.334   2.254
30694W        W97125   6.289   7.729   1.420
30695W        W97126  29.616  27.111  10.531
30696W        W97127  40.598  30.836  12.986
30697W        W97128  11.892   1.888   1.173
30698W        W97129  21.658   1.330  13.869
30699W        W97130  16.143  15.695  14.370
30700W        W97131  41.627   8.133  11.647
30701W        W97132  29.540  19.963  14.969
30702W        W97133  20.811  13.262   1.362
30703W        W97134   7.342  27.429   2.720
30704W        W97135  15.955  11.466  11.617
30705W        W97136  31.730  41.253   1.179
30706W        W97137   2.179  19.370   4.594
30707W        W97138  12.299   2.728   1.871
30708W        W97139  38.456  31.578   2.851
30709W        W97140   5.993  36.546   3.950
30710W        W97141  38.948  10.568  13.516
30711W        W97142  15.170  17.250  10.253
30712W        W97143  15.633  16.383   4.220
30713W        W97144   7.912  14.642  11.650
30714W        W97145  31.519  18.108   1.220
30715W        W97146  21.113  14.010   0.834
30716W        W97147   0.429  20.452   1.025
30717W        W97148  38.357  44.695  13.872
30718W        W97149   7.775   5.518  12.996
30719W        W97150  43.368  40.010   3.861
30720W        W97151   4.128  21.140  14.062
30721W        W97152  41.321   3.468  10.625
30722W        W97153  25.946  14.502   1.222
30723W        W97154  41.855  10.743  10.591
30724W        W97155  26.517  38.362  12.950
30725W        W97156  40.403  29.898   1.938
30726W        W97157  43.544  30.133  11.792
30727W        W97158  39.933   3.444   4.571
30728W        W97159   7.215   5.776  13.427
30729W        W97160  29.626  36.621   1.419
30730W        W97161   2.860  31.115   4.553
30731W        W97162  39.771  15.047  14.047
30732W        W97163   9.240  29.020  14.963
30733W        W97164  38.335  43.045  11.985
30734W        W97165   8.745   9.458  12.421
30735W        W97166  10.765  24.757  10.470
30736W        W97167  44.192  42.512  12.983
30737W        W97168  29.632   8.804   4.753
30738W        W97169   5.305  41.081   0.939
30739W        W97170  25.546  17.040   2.562
30740W        W97171  13.860   5.923  11.169
30741W        W97172  13.770  40.425  13.395
30742W        W97173  14.264  11.183   4.283
30743W        W97174   6.234  21.270  11.074
30744W        W97175  19.533   5.445   3.645
30745W        W97176  35.651  28.486  14.467
30746W        W97177  44.526  13.785   0.976
30747W        W97178  33.467  27.076  12.917
30748W        W97179  20.084  25.574  11.584
30749W        W97180  33.493  10.374   2.851
30750W        W97181   9.830  20.066   3.737
30751W        W97182   0.641   7.189   3.609
30752W        W97183  26.030   5.431   3.359
30753W        W97184   0.240  25.023  12.519
30754W        W97185  11.581  20.722  11.030
30755W        W97186  13.540  24.739  13.080
30756W        W97187  43.903  41.850  13.069
30757W        W97188  33.192  44.233   4.599
30758W        W97189  12.566  25.365   3.560
30759W        W97190  28.026  40.387   3.680
30760W        W97191  15.121  10.046  13.948
30761W        W97192  12.301  35.468  13.374
30762W        W97193  38.922  13.175  12.369
30763W        W97194  39.719  36.821   1.769
30764W        W97195  40.584   3.777   4.908
30765W        W97196  28.030  32.501  10.711
30766W        W97197  32.968  21.061  13.352
30767W        W97198   2.413  32.915   1.318
30768W        W97199   4.052  10.339   0.586
30769W        W97200  21.064  15.954   3.400
30770W        W97201  22.413   9.748  11.662
30771W        W97202  41.553  23.181  13.123
30772W        W97203   8.938  16.568  13.368
30773W        W97204   4.856  26.978  11.259
30774W        W97205   1.410  28.012   4.538
30775W        W97206   8.336   0.013   2.881
30776W        W97207  33.248  18.733   4.977
30777W        W97208  15.650  17.519   4.404
30778W        W97209  23.605  35.538   4.939
30779W        W97210   9.055  16.659   5.089
30780W        W97211  33.598  34.484  10.607
30781W        W97212  32.667  36.298   2.300
30782W        W97213  14.851  21.591   3.904
30783W        W97214   9.220   2.290  10.722
30784W        W97215  42.799  26.762  12.533
30785W        W97216  15.592  38.404   4.791
30786W        W97217  35.482   4.809  10.701
30787W        W97218   6.405   8.251   3.301
30788W        W97219  42.292  38.884  12.921
30789W        W97220  25.138  12.813   1.030
30790W        W97221  22.466  19.043   3.279
30791W        W97222  40.719  14.284   0.895
30792W        W97223  37.904  25.781   2.261
30793W        W97224  40.281  22.213   3.221
30794W        W97225   2.885   3.103  12.065
30795W        W97226  30.189  43.897   2.320
30796W        W97227  28.242  27.444  12.391
30797W        W97228   4.011  10.351   1.145
30798W        W97229  33.910  19.743   4.028
30799W        W97230  43.039  12.841  14.487
30800W        W97231  21.298   8.384   3.296
30801W        W97232  16.824  37.494  11.764
30802W        W97233  12.411   8.363  14.592
30803W        W97234   3.194  10.160   3.573
30804W        W97235  35.911  32.630   0.376
30805W        W97236   1.355  41.986  11.777
30806W        W97237  31.130  28.659   1.305
30807W        W97238  25.958  18.889  14.584
30808W        W97239  37.336  27.133  11.202
30809W        W97240  30.978  37.815  14.929
30810W        W97241  22.037  37.449   5.380
30811W        W97242  25.163  21.176  12.014
30812W        W97243   4.153  26.525  11.559
30813W        W97244  12.634  43.019  12.842
30814W        W97245  38.513  27.177  14.792
30815W        W97246  39.959  16.674   4.337
30816W        W97247  40.361  37.610   0.278
30817W        W97248  28.107  24.878  11.916
30818W        W97249  36.001  25.939   0.510
30819W        W97250  31.804  13.964   4.177
30820W        W97251  28.871  39.576  12.986
30821W        W97252  26.453  27.186   3.646
30822W        W97253   9.778  40.956   3.610
30823W        W97254  41.953  29.976   4.932
30824W        W97255   2.956   5.898  11.630
30825W        W97256  19.083  30.945  14.349
30826W        W97257  26.571   0.164  11.590
30827W        W97258  36.775  41.071   4.243
30828W        W97259  18.761  37.317   0.346
30829W        W97260  18.181  22.688  13.022
30830W        W97261  24.170  33.636  12.883
30831W        W97262  15.104   3.623  11.995
30832W        W97263  38.524  20.024  14.016
30833W        W97264  38.135  36.776   2.019
30834W        W97265  35.553   3.648  14.933
30835W        W97266   0.881  25.859  13.488
30836W        W97267  19.767   2.755   0.865
30837W        W97268  23.424  37.005  10.595
30838W        W97269  42.504  30.774  12.057
30839W        W97270  20.636  37.785   2.612
30840W        W97271  14.872   1.929   3.712
30841W        W97272  28.569  17.348  10.466
30842W        W97273   1.259  18.257  11.956
30843W        W97274  44.887  17.179  12.452
30844W        W97275  11.208  36.799   4.664
30845W        W97276  12.184   8.976   4.510
30846W        W97277  40.238  17.672  11.503
30847W        W97278  26.532  10.745   4.867
30848W        W97279  17.731  15.890  13.605
30849W        W97280  14.562   0.583  12.919
30850W        W97281   4.483  41.001   4.730
30851W        W97282  38.918   4.417  11.375
30852W        W97283   9.420   3.471   3.144
30853W        W97284  24.131  12.636   0.387
30854W        W97285  17.660  22.903   2.625
30855W        W97286  35.195  34.429   3.940
30856W        W97287  42.689   2.315   3.101
30857W        W97288  21.949  29.476  13.020
30858W        W97289   0.698  24.018   1.674
30859W        W97290  28.204   9.358   0.012
30860W        W97291  25.033  15.734   2.149
30861W        W97292   2.775  29.981   1.798
30862W        W97293  27.575  15.571   1.270
30863W        W97294   5.889  34.659  11.378
30864W        W97295   5.325  21.536  12.366
30865W        W97296   7.204  25.023  13.518
30866W        W97297  20.013  32.574  12.484
30867W        W97298  43.760  26.500  13.395
30868W        W97299  42.795  37.528   2.632
30869W        W97300  33.699  23.573   1.366
30870W        W97301  16.842  18.280   4.576
30871W        W97302   7.980  28.545   2.336
30872W        W97303  39.884  33.351  14.029
30873W        W97304  37.452  18.581  11.921
30874W        W97305   1.702  28.649  11.224
30875W        W97306  31.856  12.936   2.003
30876W        W97307  37.907  10.407   1.232
30877W        W97308   2.563  37.130  11.995
30878W        W97309  17.406   9.094   0.788
30879W        W97310   9.298  26.661  14.926
30880W        W97311   9.679  44.070   1.858
30881W        W97312  30.639  18.048  14.820
30882W        W97313   2.855  43.435   4.570
30883W        W97314  30.622  11.843  14.196
30884W        W97315  15.098  11.836   2.347
30885W        W97316  34.213   2.327  14.768
30886W        W97317   3.692  28.611   2.970
30887W        W97318  12.973   5.754   4.090
30888W        W97319  42.568  29.989   2.385
30889W        W97320  20.103  40.932   2.411
30890W        W97321  31.627   7.622   3.121
30891W        W97322  33.328  35.331  12.577
30892W        W97323  25.323  23.052   1.787
30893W        W97324  25.941  26.098  14.148
30894W        W97325  28.419   0.944   4.662
30895W        W97326  16.988  39.411  10.827
30896W        W97327  24.623  35.088   4.127
30897W        W97328   9.694  26.177  13.373
30898W        W97329  16.677  40.138  14.534
30899W        W97330  41.474   2.591   2.438
30900W        W97331   2.473  29.570   4.099
30901W        W97332  12.732  30.090  11.075
30902W        W97333  43.655  42.207   4.099
30903W        W97334  34.852  15.217  12.512
30904W        W97335  23.319  10.371   4.155
30905W        W97336  10.312  22.330   3.727
30906W        W97337  39.415  11.702   0.059
30907W        W97338  16.066  41.281  14.118
30908W        W97339  30.073  15.025  11.684
30909W        W97340  41.841  13.639  10.479
30910W        W97341   2.078  36.904   2.386
30911W        W97342   7.939  26.462  11.027
30912W        W97343   5.904  38.033  14.430
30913W        W97344   9.885   7.280  13.958
30914W        W97345  44.410  18.664   0.873
30915W        W97346  38.809  15.394   9.855
30916W        W97347  35.943  19.359   4.424
30917W        W97348  23.081  26.321   1.483
30918W        W97349  23.014   3.821   4.788
30919W        W97350  26.656  41.732  11.647
30920W        W97351   9.381  43.470   3.238
30921W        W97352  12.751  43.939  11.156
30922W        W97353   7.682  14.862  12.944
30923W        W97354   2.913  26.248  12.101
30924W        W97355  18.559  28.167   4.430
30925W        W97356  34.924  43.463   4.580
30926W        W97357   8.611  37.893   4.057
30927W        W97358  38.920  13.519   3.607
30928W        W97359  21.618  37.926  11.121
30929W        W97360  37.143  16.573  12.454
30930W        W97361   0.183  17.653  11.198
30931W        W97362  25.538  43.622   1.678
30932W        W97363  28.076  10.232   2.679
30933W        W97364  42.276   8.236   4.679
30934W        W97365   8.448  34.420   1.863
30935W        W97366   3.234  21.477   5.133
30936W        W97367  16.240  11.851   1.323
30937W        W97368  30.133  21.957  13.285
30938W        W97369  13.092  15.477   2.276
30939W        W97370  33.070  31.727   4.195
30940W        W97371   8.343  39.300  12.580
30941W        W97372  11.874  17.348  10.143
30942W        W97373  25.818  35.223  12.481
30943W        W97374   8.577   4.375  13.499
30944W        W97375   9.131   1.880   1.831
30945W        W97376  33.138  39.009  14.117
30946W        W97377  11.838  32.099  10.491
30947W        W97378  10.462  15.074   0.777
30948W        W97379  39.549  43.215  13.440
30949W        W97380   1.495  30.160   3.161
30950W        W97381  13.028   0.023  13.188
30951W        W97382   6.119  30.032   3.920
30952W        W97383  32.981  42.030  13.527
30953W        W97384  12.736  12.388  12.567
30954W        W97385  20.712  18.485   3.804
30955W        W97386   8.689  23.019  12.424
30956W        W97387  39.724  14.747   0.444
30957W        W97388  10.339  41.975  10.692
30958W        W97389  30.935  29.038  11.565
30959W        W97390  36.964  26.256  14.753
30960W        W97391  10.652   7.746   4.245
30961W        W97392   1.023  12.444  13.906
30962W        W97393  12.098  21.609   3.637
30963W        W97394  18.715  29.996  14.329
30964W        W97395  32.021  33.509  13.051
30965W        W97396  40.259   3.946   1.744
30966W        W97397  19.767  15.296   4.662
30967W        W97398  31.506  30.503  11.687
30968W        W97399  34.444  28.184   1.796
30969W        W97400  11.774  15.110   3.191
30970W        W97401  12.806  42.042  12.188
30971W        W97402  38.806  40.936  14.443
30972W        W97403  36.551  30.068  12.121
30973W        W97404  17.151  35.345   4.225
30974W        W97405  26.693   9.777  10.240
30975W        W97406  25.625  25.927   4.139
30976W        W97407   6.558   0.247   4.917
30977W        W97408  25.686  16.330  13.025
30978W        W97409   7.627  28.284  10.264
30979W        W97410   8.383   0.242   0.664
30980W        W97411  21.513   4.948  11.340
30981W        W97412  18.833  12.223  13.868
30982W        W97413  32.394  13.851   1.161
30983W        W97414  21.574  40.994   0.294
30984W        W97415  39.138   2.395   9.850
30985W        W97416  32.643  33.115   4.691
30986W        W97417  39.093  40.964   3.663
30987W        W97418   8.260   7.815   1.371
30988W        W97419  39.303   7.742   2.868
30989W        W97420  16.685   4.428  12.824
30990W        W97421  17.216   0.843  14.953
30991W        W97422   7.384   4.453   2.720
30992W        W97423  10.516  44.702   2.786
30993W        W97424  15.931  39.067  13.938
30994W        W97425  42.184  36.716  11.441
30995W        W97426  37.038  27.674   2.174
30996W        W97427   5.664   1.245   1.008
30997W        W97428  34.873  12.385  10.716
30998W        W97429  35.647   1.262  13.917
30999W        W97430  27.378  26.565  11.076
31000W        W97431  17.087  25.765   1.045
31001W        W97432  40.944  28.458   2.226
31002W        W97433  14.433   1.626   3.865
31003W        W97434   2.112  20.676  14.192
31004W        W97435   3.895  43.940   2.227
31005W        W97436  25.707  36.893  12.105
31006W        W97437  35.749  32.922   3.688
31007W        W97438  15.927  23.540  13.972
31008W        W97439  23.797   9.561  13.040
31009W        W97440   2.746  40.988   2.223
31010W        W97441  20.267   7.056  11.536
31011W        W97442  30.300  17.507   2.374
31012W        W97443  39.671  30.451  12.164
31013W        W97444  40.906  44.807  13.610
31014W        W97445  44.740  13.837  11.346
31015W        W97446   4.129  12.811   1.376
31016W        W97447  27.305  31.151   5.112
31017W        W97448  36.543  23.678   4.451
31018W        W97449  13.753  11.312  13.367
31019W        W97450  42.104  33.703  11.506
31020W        W97451  37.766  11.249  10.756
31021W        W97452  22.484  13.416  12.509
31022W        W97453   2.827  22.593   4.358
31023W        W97454  37.635  34.955  12.615
31024W        W97455  34.048   6.604  10.830
31025W        W97456   3.152   7.869  14.370
31026W        W97457  38.564  40.547   0.865
31027W        W97458  21.409  43.240   2.800
31028W        W97459  33.129   5.884  13.794
31029W        W97460  17.193  28.056   3.767
31030W        W97461  42.823  34.153   1.519
31031W        W97462   8.703   4.526  12.672
31032W        W97463  32.957   4.778  11.701
31033W        W97464  35.346  25.040   2.810
31034W        W97465  26.055  19.810  11.720
31035W        W97466  11.291  33.507  12.004
31036W        W97467  27.718  30.306  13.106
31037W        W97468  37.106   4.662   3.580
31038W        W97469   1.794  35.716   3.809
31039W        W97470  23.680  13.852  12.857
31040W        W97471  10.311  30.976   1.301
31041W        W97472  27.039  41.110  12.925
31042W        W97473  29.590  37.645  14.913
31043W        W97474  41.300   6.794  10.667
31044W        W97475   8.257  39.091  10.806
31045W        W97476   9.691  14.605   0.707
31046W        W97477  18.669   9.652  14.399
31047W        W97478  32.180   1.029  11.187
31048W        W97479  13.596  36.494   2.760
31049W        W97480  28.835  23.681  12.916
31050W        W97481  27.640   6.863  13.560
31051W        W97482  16.193  12.390  13.332
31052W        W97483  22.818  43.492  11.708
31053W        W97484   9.118  29.948   2.235
31054W        W97485  15.115  37.622   3.609
31055W        W97486  31.770  39.425  13.716
31056W        W97487   2.201   2.848   4.807
31057W        W97488  29.435  20.885  11.175
31058W        W97489  10.319  12.281  11.104
31059W        W97490  43.404  14.816   2.546
31060W        W97491  41.504   8.420   2.871
31061W        W97492  40.470  29.367  14.455
31062W        W97493  18.089  27.426   2.795
31063W        W97494  30.793  26.553   1.429
31064W        W97495  11.364  22.427   0.163
31065W        W97496  29.504   5.294  12.414
31066W        W97497  29.536  31.534  10.677
31067W        W97498  27.944  36.852   2.754
31068W        W97499  11.921   9.281   2.596
31069W        W97500   6.415  33.033  12.497
31070W        W97501   6.750  14.727  12.395
31071W        W97502   3.315   5.925  13.850
31072W        W97503  34.030  16.405  10.180
31073W        W97504  35.550  40.790   0.273
31074W        W97505  19.623  32.704   2.752
31075W        W97506  30.830  14.096  11.908
31076W        W97507  17.373  28.628  10.229
31077W        W97508  19.931   8.823   3.048
31078W        W97509  32.841  21.270   4.228
31079W        W97510  34.941  13.633  14.475
31080W        W97511  32.055  44.263   2.453
31081W        W97512  21.477  43.436  10.626
31082W        W97513  20.797  37.353   1.661
31083W        W97514  43.932  20.679  12.481
31084W        W97515  27.736  32.546   2.727
31085W        W97516   0.445  24.718  10.570
31086W        W97517  37.625  40.336  11.278
31087W        W97518  24.178  42.038   2.151
31088W        W97519  21.637  41.791   1.288
31089W        W97520  27.730  27.188   0.783
31090W        W97521  35.671  38.124  14.402
31091W        W97522  23.076  18.529  12.909
31092W        W97523   8.855  27.548   3.155
31093W        W97524  32.059  40.930  12.118
31094W        W97525  13.789  12.504  12.097
31095W        W97526  12.874  28.225  12.428
31096W        W97527  40.457  23.435   2.383
31097W        W97528   2.673  33.267  10.755
31098W        W97529  22.236  18.516   3.331
31099W        W97530  32.114  19.150   1.679
31100W        W97531   3.244  30.172   0.938
31101W        W97532  29.610   5.793  11.614
31102W        W97533  19.405  15.785  12.532
31103W        W97534  43.500  29.044  14.406
31104W        W97535  29.421   0.634   3.190
31105W        W97536  15.682  42.004  10.631
31106W        W97537  33.421  28.951  10.544
31107W        W97538   3.475  11.420   4.111
31108W        W97539  34.652  10.691  11.757
31109W        W97540  43.909  16.758  13.480
31110W        W97541  20.325  11.402   0.751
31111W        W97542  17.438  17.088   9.924
31112W        W97543   5.709   7.274   0.312
31113W        W97544  40.941  13.883   2.022
31114W        W97545  35.615  12.369  12.936
31115W        W97546  26.558  11.714  14.981
31116W        W97547   3.667  43.840   3.767
31117W        W97548  41.775   3.351   0.382
31118W        W97549  41.626   3.224   1.742
31119W        W97550  31.635  35.046  11.202
31120W        W97551  11.663   6.225   1.886
31121W        W97552  19.462  35.175  11.103
31122W        W97553  25.492  32.495  14.294
31123W        W97554  15.943  31.213   0.540
31124W        W97555   6.232  29.483  10.670
31125W        W97556  16.656  43.403  14.885
31126W        W97557  30.746   2.921   0.742
31127W        W97558  39.936  24.579   0.879
31128W        W97559  17.534   9.227  12.222
31129W        W97560  32.427   0.032  10.528
31130W        W97561   5.369  40.874   3.787
31131W        W97562  22.766  21.354   4.202
31132W        W97563  43.781  10.021   0.943
31133W        W97564  41.544   5.715  11.931
31134W        W97565  36.673  12.186   0.192
31135W        W97566  30.431   4.524  12.476
31136W        W97567  29.860  24.840  11.708
31137W        W97568  18.204   2.235   4.411
31138W        W97569  39.109  14.541   3.658
31139W        W97570  40.078  11.783   0.721
31140W        W97571   9.623  28.771   3.978
31141W        W97572  39.981  10.098   2.498
31142W        W97573  22.235  38.087   3.301
31143W        W97574  24.515  15.840   0.754
31144W        W97575  13.766  27.371  14.688
31145W        W97576   7.146  28.519  10.385
31146W        W97577  10.349  21.248  10.295
31147W        W97578   9.974   5.801  14.427
31148W        W97579  25.560  41.738   4.499
31149W        W97580  37.530   0.903  11.034
31150W        W97581   6.704  21.500   0.420
31151W        W97582  31.854  12.709   2.892
31152W        W97583  25.922  34.093   0.915
31153W        W97584  34.654  27.954  13.808
31154W        W97585  43.001  37.963  12.548
31155W        W97586  18.585  25.465   3.322
31156W        W97587   2.339  24.059  11.907
31157W        W97588   1.310  27.728  12.372
31158W        W97589  40.845  32.884   1.272
31159W        W97590  37.605  14.677  13.340
31160W        W97591  34.322  39.352  13.393
31161W        W97592   1.789  35.314   1.297
31162W        W97593  36.628  35.934   3.223
31163W        W97594  23.727  44.991  13.910
31164W        W97595  28.902  12.053  11.225
31165W        W97596  35.870   1.815  11.587
31166W        W97597  40.028   3.796   3.657
31167W        W97598  11.824   3.485   1.704
31168W        W97599   9.699  14.199  12.083
31169W        W97600  25.100  23.449  10.178
31170W        W97601   5.685   6.578  14.379
31171W        W97602  25.664   9.951   2.329
31172W        W97603  20.755  10.973  11.922
31173W        W97604  30.371   0.064   1.743
31174W        W97605   7.132   2.599   1.224
31175W        W97606  15.353  26.998   0.451
31176W        W97607   9.823  30.060   3.748
31177W        W97608  43.369   2.376   0.459
31178W        W97609  14.800  13.216   0.591
31179W        W97610  18.599  34.680   1.808
31180W        W97611  14.970   5.147   3.172
31181W        W97612  16.598  16.819  11.585
31182W        W97613  33.820  19.804  13.568
31183W        W97614  37.337   7.496   2.503
31184W        W97615  44.026  38.359   3.386
31185W        W97616   0.796  38.935   0.321
31186W        W97617  19.372  13.600   5.442
31187W        W97618  21.078  41.130  14.104
31188W        W97619  44.510   9.917  10.696
31189W        W97620   4.200  22.462  11.592
31190W        W97621  20.748   3.847  11.639
31191W        W97622  30.997  25.917  10.858
31192W        W97623  33.632  25.982  12.029
31193W        W97624  12.207  11.668   0.435
31194W        W97625   3.635   5.384  10.824
31195W        W97626  34.761  20.683  11.944
31196W        W97627  18.105   0.813   4.037
31197W        W97628  19.635  31.704   4.518
31198W        W97629  39.756  22.620   3.688
31199W        W97630  28.058  18.821   0.694
31200W        W97631  31.033  42.073  11.270
31201W        W97632   7.885  23.606   2.661
31202W        W97633  39.355  37.674  12.273
31203W        W97634   8.228  32.135   3.232
31204W        W97635  41.074  33.535   1.240
31205W        W97636  16.352  13.667   2.769
31206W        W97637  18.478  36.738   2.990
31207W        W97638  32.102  23.253   3.713
31208W        W97639  21.992  36.807  10.261
31209W        W97640  33.361  17.393   2.685
31210W        W97641  38.689  35.932   0.263
31211W        W97642  21.918   3.206   3.635
31212W        W97643   9.199  29.145   4.052
31213W        W97644   7.406  30.981   2.723
31214W        W97645  11.514  32.365  10.781
31215W        W97646  17.091   9.405   2.851
31216W        W97647  39.826  22.518   0.879
31217W        W97648  41.914   1.252   3.138
31218W        W97649  41.484  23.635  10.696
31219W        W97650  34.877  40.816  12.567
31220W        W97651   4.883  14.597  12.423
31221W        W97652   9.960   9.336   4.200
31222W        W97653  44.035  20.097   2.322
31223W        W97654  33.574  23.615  14.470
31224W        W97655  26.125  10.442  13.009
31225W        W97656  37.457  43.967  10.949
31226W        W97657  43.931  29.602  13.880
31227W        W97658  33.171  20.138  13.236
31228W        W97659  12.285  42.793   1.728
31229W        W97660  43.204  11.342  12.018
31230W        W97661  21.664  35.455  12.937
31231W        W97662  28.201   1.728  12.007
31232W        W97663  38.458  25.580   3.833
31233W        W97664   0.277  44.265  11.751
31234W        W97665  39.553  20.782   3.329
31235W        W97666   3.800  10.268   2.747
31236W        W97667  41.098  43.598   0.216
31237W        W97668  25.892  22.167  12.635
31238W        W97669  28.390  17.562   3.154
31239W        W97670   3.204  16.298   3.654
31240W        W97671  19.684  38.958  14.101
31241W        W97672  25.645   2.964   4.979
31242W        W97673  34.434  16.871  13.173
31243W        W97674  38.977  20.727  14.670
31244W        W97675  16.473  28.942   4.629
31245W        W97676  17.767   3.413   4.394
31246W        W97677   9.704  43.524   2.774
31247W        W97678  12.353   8.272   0.960
31248W        W97679  41.898  23.099  13.543
31249W        W97680  17.764  11.590   3.186
31250W        W97681  26.646  13.695  14.803
31251W        W97682  25.680  16.653   4.133
31252W        W97683   0.266  39.805   0.606
31253W        W97684  13.092  23.734   2.844
31254W        W97685  34.034  26.561   3.650
31255W        W97686  21.989  22.327  13.357
31256W        W97687   8.225  33.362   1.842
31257W        W97688  29.846  25.948   1.923
31258W        W97689  23.713  23.621  10.753
31259W        W97690  16.307  19.107  12.988
31260W        W97691  26.208  27.750   0.560
31261W        W97692   1.937   5.281   4.078
31262W        W97693  38.523  39.880  12.949
31263W        W97694  31.727  24.053   0.250
31264W        W97695  25.922   7.412   0.327
31265W        W97696  33.333  33.974   3.171
31266W        W97697  37.784  23.173   2.317
31267W        W97698  10.885  14.272   0.508
31268W        W97699   2.492   2.346   0.927
31269W        W97700  13.281  25.520   1.708
31270W        W97701  43.072  25.166   2.645
31271W        W97702   5.619  31.412  13.431
31272W        W97703  24.089   3.762  12.721
31273W        W97704   7.704   0.211   2.062
31274W        W97705   4.438   1.837   2.634
31275W        W97706  15.869  40.520   0.006
31276W        W97707  26.541  44.410  14.074
31277W        W97708  24.926  16.030   4.047
31278W        W97709  24.733  44.700  14.802
31279W        W97710  29.923  10.233   2.245
31280W        W97711  41.550  30.912   5.093
31281W        W97712  21.526  29.484  13.900
31282W        W97713  33.901  41.342   4.242
31283W        W97714  14.138  14.657   0.557
31284W        W97715  25.285  44.014   1.910
31285W        W97716  34.362  38.061   0.361
31286W        W97717  44.238  31.725  13.552
31287W        W97718  14.753   1.536  12.256
31288W        W97719  27.663   1.364   4.631
31289W        W97720   8.635  15.630  14.060
31290W        W97721   6.341  21.053   1.847
31291W        W97722  30.135  32.503  11.280
31292W        W97723   7.148  14.275   2.083
31293W        W97724   0.342  25.727  10.390
31294W        W97725  33.070   8.464   3.451
31295W        W97726  16.076  22.915   5.008
31296W        W97727   0.083   1.506  12.189
31297W        W97728  44.068  38.133   1.223
31298W        W97729  43.878  42.001  12.562
31299W        W97730  34.549   3.555  10.653
31300W        W97731  10.691  25.931  14.186
31301W        W97732  28.170  28.733  11.174
31302W        W97733  33.518  11.808   1.707
31303W        W97734  12.353  36.085  13.579
31304W        W97735  40.566   5.277  13.896
31305W        W97736  20.540  24.224  13.896
31306W        W97737  30.997   0.484   4.603
31307W        W97738  28.882  36.382   0.192
31308W        W97739  18.866  11.549   4.410
31309W        W97740  33.703  34.201  13.406
31310W        W97741  24.598  26.996  10.627
31311W        W97742  31.015  15.695   2.746
31312W        W97743  34.608  44.288  10.390
31313W        W97744  39.269  42.367  13.340
31314W        W97745   9.383  42.972  13.823
31315W        W97746  35.094  37.613   3.166
31316W        W97747  28.853  12.558  11.222
31317W        W97748   6.553  17.251  12.481
31318W        W97749  40.081  31.974   3.676
31319W        W97750  40.945   5.656  13.189
31320W        W97751  23.054  25.761   0.503
31321W        W97752  43.722  42.410  12.810
31322W        W97753  34.908   4.127   1.968
31323W        W97754  27.142   5.245   0.714
31324W        W97755  30.479  37.327   3.202
31325W        W97756  34.330   9.344   1.918
31326W        W97757  11.200  41.236  14.170
31327W        W97758  12.895   8.623   3.462
31328W        W97759  24.006  36.886   1.230
31329W        W97760  33.082  28.838   2.519
31330W        W97761   1.543  21.972  13.967
31331W        W97762  24.025  37.554   3.711
31332W        W97763  18.285   4.457   0.814
31333W        W97764  42.252   9.843   1.899
31334W        W97765  39.009  11.867   4.935
31335W        W97766  12.992  12.690  10.540
31336W        W97767  44.677  22.301  14.945
31337W        W97768  23.187  42.816  11.137
31338W        W97769   5.248  22.872   3.836
31339W        W97770  18.812  34.078  12.046
31340W        W97771  14.766   3.252  11.867
31341W        W97772   8.304  33.482  10.970
31342W        W97773  39.048   3.839  14.090
31343W        W97774  13.307  31.932   1.078
31344W        W97775  30.030  26.134  14.029
31345W        W97776  37.728  43.022  11.604
31346W        W97777   8.876  31.425   1.797
31347W        W97778  39.957  14.435   1.288
31348W        W97779  28.902  16.225  14.513
31349W        W97780  38.768  40.306   1.274
31350W        W97781  39.962  34.898   1.467
31351W        W97782  38.268  39.939  14.342
31352W        W97783  11.125  14.635   0.983
31353W        W97784  40.901  27.538  13.686
31354W        W97785   0.025  30.816   1.485
31355W        W97786  13.734  22.340  12.113
31356W        W97787  10.305  10.708  13.944
31357W        W97788  20.000  20.514   1.464
31358W        W97789  19.765  34.624  10.427
31359W        W97790  36.469  12.137  14.271
31360W        W97791  31.537  35.094   1.706
31361W        W97792  40.384  18.009   3.601
31362W        W97793   0.986   9.906  12.065
31363W        W97794  12.361  19.473  11.662
31364W        W97795  40.936   9.080  14.556
31365W        W97796  35.777   3.572   2.904
31366W        W97797  31.977  23.563   2.848
31367W        W97798  10.958  33.370  11.469
31368W        W97799  17.142  30.647  13.392
31369W        W97800  12.346  36.926   2.114
31370W        W97801  19.167  39.489  11.962
31371W        W97802  14.657  17.559  13.102
31372W        W97803  28.824  37.498   2.704
31373W        W97804   6.006   0.224  12.472
31374W        W97805  19.183   7.486  11.171
31375W        W97806  43.298  23.906  12.619
31376W        W97807  44.655  26.290   0.524
31377W        W97808   0.731  13.827  13.829
31378W        W97809  27.116   3.190  12.007
31379W        W97810  16.888  18.712   4.878
31380W        W97811  25.023  12.668  11.574
31381W        W97812  27.066  42.759   0.317
31382W        W97813  28.539   5.288  13.354
31383W        W97814  27.164  35.927   1.379
31384W        W97815   5.774  19.598  12.574
31385W        W97816   5.552  12.203  10.728
31386W        W97817   3.775   3.267  10.604
31387W        W97818  16.876  38.817   3.693
31388W        W97819  29.617  36.143   0.197
31389W        W97820   9.460  30.399  11.166
31390W        W97821  40.991   8.767   2.209
31391W        W97822  40.444  38.527  10.417
31392W        W97823  33.422  41.511  10.181
31393W        W97824  36.818  39.359  13.023
31394W        W97825  27.511  44.779  14.873
31395W        W97826   1.219  18.112  14.805
31396W        W97827  20.481   1.598  12.469
31397W        W97828  11.172  17.990   4.622
31398W        W97829  44.079  17.266   4.028
31399W        W97830  33.170   2.456  14.775
31400W        W97831  44.325  20.298  13.781
31401W        W97832  14.863  24.315  10.215
31402W        W97833  21.748  12.896  11.238
31403W        W97834  32.729   7.646  14.354
31404W        W97835  30.399  42.838   0.762
31405W        W97836   8.832  32.224   1.241
31406W        W97837  13.098  41.279  13.489
31407W        W97838  13.807  30.575  10.542
31408W        W97839  37.391   2.707  12.937
31409W        W97840  23.868  43.355   4.550
31410W        W97841  32.612  13.040   0.718
31411W        W97842   7.346  44.691  11.889
31412W        W97843  20.532   8.913   2.266
31413W        W97844   2.665  13.116  11.406
31414W        W97845  23.333   8.681   0.864
31415W        W97846  20.981  17.129  10.133
31416W        W97847   1.703  10.991  11.974
31417W        W97848  25.094  10.071   1.106
31418W        W97849   9.892  24.823   2.131
31419W        W97850  28.077  19.966   4.755
31420W        W97851  44.747  41.908  14.990
31421W        W97852  24.286  28.995  11.929
31422W        W97853  16.514  36.483  14.280
31423W        W97854  32.931  36.992  10.750
31424W        W97855  17.382   5.438  11.188
31425W        W97856  32.955  39.503  10.732
31426W        W97857  16.179  34.059   2.930
31427W        W97858  24.971   1.331   0.760
31428W        W97859  10.066  41.528  10.649
31429W        W97860  15.753  36.354  12.483
31430W        W97861   6.153  14.923  10.141
31431W        W97862  32.530  21.736  13.893
31432W        W97863   5.429  25.005  12.249
31433W        W97864  27.955  39.076   2.278
31434W        W97865  31.904  26.427  11.636
31435W        W97866  20.548  23.136   3.198
31436W        W97867   8.839  37.449   1.851
31437W        W97868  17.851  44.311  13.330
31438W        W97869  38.752   2.428  12.082
31439W        W97870  40.549  31.400   2.749
31440W        W97871  27.840  33.919  12.928
31441W        W97872  34.012  32.035  13.125
31442W        W97873  14.532  30.428  11.180
31443W        W97874   7.551  33.923   1.210
31444W        W97875  28.457   7.770  12.847
31445W        W97876   8.709  43.986  13.301
31446W        W97877  14.407  37.921  10.638
31447W        W97878  33.709  12.408  12.964
31448W        W97879  27.476   0.434  12.002
31449W        W97880  13.115  37.346  14.339
31450W        W97881  36.799  20.243  13.547
31451W        W97882  38.068  17.122  11.060
31452W        W97883   6.457   2.988  14.368
31453W        W97884  20.465  12.367   2.701
31454W        W97885  22.911  37.269   1.530
31455W        W97886  21.011  31.881  10.144
31456W        W97887   6.523  12.301   1.267
31457W        W97888  31.378  44.377   3.178
31458W        W97889  17.062  13.527  10.710
31459W        W97890   8.302  36.834   0.696
31460W        W97891   4.248  34.592  12.080
31461W        W97892  39.012  35.157   0.461
31462W        W97893  16.283  23.683  14.336
31463W        W97894   4.626  43.817  13.838
31464W        W97895  24.735  14.657  12.042
31465W        W97896  32.533   2.472  14.344
31466W        W97897  14.123   5.261   3.687
31467W        W97898  38.538  11.118  12.975
31468W        W97899  24.606  16.328   0.234
31469W        W97900  27.110  22.772  13.826
31470W        W97901  35.683   0.799   2.364
31471W        W97902  41.796  43.432   3.880
31472W        W97903   6.729   1.944  14.947
31473W        W97904  34.316  16.135  11.384
31474W        W97905   9.696  12.230  14.571
31475W        W97906   6.764  35.361   2.643
31476W        W97907  33.373  29.276   3.305
31477W        W97908  16.276   9.265   3.491
31478W        W97909  26.256   7.760   1.531
31479W        W97910  24.016  17.252   5.334
31480W        W97911  28.504  14.198   0.406
31481W        W97912  35.078  19.824  10.478
31482W        W97913  28.754  14.647   0.512
31483W        W97914  44.964  43.758   4.079
31484W        W97915  14.645  12.233  12.563
31485W        W97916  31.881  31.032  14.945
31486W        W97917  24.120  20.702   3.252
31487W        W97918   6.863  41.204   3.753
31488W        W97919  13.209   1.067  11.940
31489W        W97920  10.562  24.217   0.390
31490W        W97921   9.382   6.702   1.803
31491W        W97922  29.219   3.152   1.677
31492W        W97923  18.547   0.409   3.312
31493W        W97924   4.660   8.508  12.586
31494W        W97925  43.291  14.156   0.899
31495W        W97926  40.125  12.509   4.115
31496W        W97927  25.550  14.108   2.671
31497W        W97928  22.129   3.730   3.687
31498W        W97929  25.686  12.079  11.785
31499W        W97930  34.064  22.557  10.794
31500W        W97931  44.954  10.847  12.610
31501W        W97932   9.467  12.789  13.402
31502W        W97933   1.752  16.720  11.581
31503W        W97934  22.268   6.436  14.787
31504W        W97935   1.302  15.302   3.720
31505W        W97936  35.977  44.519   0.778
31506W        W97937  17.313  25.021   3.573
31507W        W97938  35.505  30.825  13.906
31508W        W97939  11.152   7.259  12.413
31509W        W97940   4.347   1.475  12.125
31510W        W97941  43.804   0.467   4.694
31511W        W97942  39.481  21.449  14.832
31512W        W97943   1.991   0.560   2.591
31513W        W97944   9.282  29.453   1.333
31514W        W97945  24.242  12.100   0.456
31515W        W97946  38.290  14.084  13.006
31516W        W97947  20.689  14.973  10.277
31517W        W97948  33.287   8.927   3.556
31518W        W97949  18.769  35.187   3.538
31519W        W97950  42.661  22.713  12.054
31520W        W97951  35.575  18.623  12.091
31521W        W97952   5.999  40.924   3.796
31522W        W97953  23.475   6.808   3.698
31523W        W97954   7.878   3.813  13.497
31524W        W97955  15.834  41.430  12.027
31525W        W97956  25.271   7.422  11.607
31526W        W97957  30.940   0.730  13.918
31527W        W97958   0.212  31.189   4.227
31528W        W97959   4.050  38.069   0.784
31529W        W97960  14.600  41.474   0.247
31530W        W97961  32.045  12.425  12.808
31531W        W97962  42.272  38.258  10.665
31532W        W97963  36.435  44.936  12.570
31533W        W97964   3.805  33.471   0.031
31534W        W97965  17.020  24.952  13.405
31535W        W97966  28.000  17.486  14.662
31536W        W97967  10.854  12.639  14.895
31537W        W97968  12.763  11.737  13.907
31538W        W97969  32.745  26.437  11.452
31539W        W97970  32.645   0.848  11.029
31540W        W97971   2.209   1.955  14.249
31541W        W97972  19.240  26.623  11.201
31542W        W97973  44.471  31.051   2.543
31543W        W97974  15.512   8.877   2.053
31544W        W97975  44.764  12.101   1.274
31545W        W97976   0.903  15.528  14.115
31546W        W97977  15.976  15.247   0.826
31547W        W97978   4.453  43.813  12.320
31548W        W97979  28.668  13.412   4.627
31549W        W97980   1.284  30.988  14.529
31550W        W97981  14.559  34.127  10.718
31551W        W97982  36.167  17.159   0.224
31552W        W97983   5.833  25.049   3.734
31553W        W97984  29.858  33.164  12.445
31554W        W97985  20.141  22.717   4.305
31555W        W97986  22.916  15.254   4.050
31556W        W97987  23.048  17.046  11.478
31557W        W97988   2.162  42.834   4.702
31558W        W97989  22.681  33.636  13.910
31559W        W97990  27.497   0.172  11.553
31560W        W97991  25.654  24.012   0.600
31561W        W97992  41.405  32.569   1.453
31562W        W97993  41.992  15.054   2.343
31563W        W97994  20.271  44.203  10.692
31564W        W97995  20.802   5.805  12.444
31565W        W97996  28.426  10.985   3.551
31566W        W97997  18.989  36.111  11.539
31567W        W97998  36.096  22.043   3.836
31568W        W97999  36.070   9.681   2.603
31569W        W98000  18.195  29.933   2.527
31570W        W98001  21.545  41.229  13.850
31571W        W98002  24.395  27.829   3.862
31572W        W98003  20.151  34.107  11.239
31573W        W98004   6.626   2.231   4.617
31574W        W98005  38.877  37.358  11.591
31575W        W98006   5.835   4.454  12.798
31576W        W98007  41.890  43.200   3.435
31577W        W98008   9.389   9.206   2.328
31578W        W98009  24.502  34.869   2.777
31579W        W98010  21.687   2.319   0.292
31580W        W98011  44.422  25.932  12.563
31581W        W98012   0.234   7.894   2.640
31582W        W98013  31.567  29.403   4.186
31583W        W98014  30.418  32.343  12.061
31584W        W98015  39.207   4.258  14.918
31585W        W98016   8.350  11.848   2.043
31586W        W98017  23.625  14.066  11.191
31587W        W98018   3.312  35.867  14.346
31588W        W98019  30.052  29.576   1.416
31589W        W98020  38.418  22.805   4.118
31590W        W98021  40.509  26.221   4.278
31591W        W98022  26.414  38.763  12.630
31592W        W98023   3.355  25.669   2.283
31593W        W98024   1.458  16.598   1.452
31594W        W98025  10.007  18.514  12.540
31595W        W98026  37.910  34.025  12.178
31596W        W98027   0.927  29.333  10.320
31597W        W98028  24.659  21.032   4.826
31598W        W98029  39.985  28.514   1.408
31599W        W98030   7.401   5.152  13.888
31600W        W98031  39.832  38.593   3.194
31601W        W98032  17.573  15.631  14.032
31602W        W98033  23.725  32.619   3.472
31603W        W98034  18.759  41.917  14.379
31604W        W98035  40.669  21.219   1.878
31605W        W98036  41.994  22.760   1.250
31606W        W98037  36.122  29.550   1.860
31607W        W98038  40.597  40.436   4.449
31608W        W98039   1.754  16.664  11.072
31609W        W98040  37.392  23.123  11.120
31610W        W98041  36.008  18.194  14.304
31611W        W98042   5.391  35.142  13.647
31612W        W98043  39.582   3.841   2.776
31613W        W98044   1.832  39.334   4.216
31614W        W98045   3.304  29.683   0.703
31615W        W98046  33.057  26.230  13.764
31616W        W98047   1.964  29.655   4.086
31617W        W98048  42.026  34.060   0.395
31618W        W98049  34.927  19.156   1.371
31619W        W98050   4.318  43.704   2.390
31620W        W98051  36.812   6.293  14.481
31621W        W98052  37.423  36.985   1.722
31622W        W98053  33.877   2.328  11.077
31623W        W98054   4.015  19.600  14.422
31624W        W98055  21.952   0.406   3.715
31625W        W98056  24.008  27.656   2.048
31626W        W98057  17.744  27.235   4.821
31627W        W98058  31.651  37.296   1.192
31628W        W98059  21.337   9.931  10.436
31629W        W98060   9.896  20.532  10.844
31630W        W98061   9.097  23.707  10.775
31631W        W98062   2.550   6.821  11.575
31632W        W98063  18.235  23.533   4.207
31633W        W98064  30.181  25.484   4.179
31634W        W98065  44.294  20.301   1.830
31635W        W98066   3.660  39.513   4.147
31636W        W98067  13.659   6.702  11.721
31637W        W98068   9.929  20.127  12.817
31638W        W98069  25.617  34.761  12.593
31639W        W98070  32.016  43.953   1.957
31640W        W98071  29.136  19.936  11.185
31641W        W98072  16.612  27.939   3.085
31642W        W98073   2.250  42.193  11.541
31643W        W98074   7.377  30.914  14.445
31644W        W98075  24.244   3.359  12.022
31645W        W98076   4.665  27.398   4.608
31646W        W98077   5.965  42.988   4.820
31647W        W98078  35.890  18.293  11.835
31648W        W98079   0.389   3.923   1.727
31649W        W98080  10.207  44.298   2.694
31650W        W98081  30.062  17.242  14.880
31651W        W98082   0.271  17.362   3.231
31652W        W98083  30.214  34.817  14.081
31653W        W98084  43.810  33.622   0.887
31654W        W98085   9.990   1.311  12.442
31655W        W98086  40.709  24.036  14.321
31656W        W98087  33.947  28.531   3.088
31657W        W98088   0.324  28.486   4.114
31658W        W98089  31.695  26.009   1.449
31659W        W98090  33.863  40.550  13.023
31660W        W98091   8.629  10.778  13.403
31661W        W98092  41.080  14.498   3.705
31662W        W98093  27.829  38.293   1.857
31663W        W98094  34.481  21.504   4.155
31664W        W98095   3.876  20.023   4.812
31665W        W98096  10.397   8.141  11.929
31666W        W98097  42.090  23.623  10.155
31667W        W98098  23.145   1.453   1.430
31668W        W98099  32.616  14.312   3.678
31669W        W98100  37.595   7.645  11.557
31670W        W98101  37.877  32.619   2.730
31671W        W98102  10.502   2.757   2.175
31672W        W98103  14.422  12.322  10.389
31673W        W98104  43.969  11.866   3.703
31674W        W98105   7.295  35.698  10.756
31675W        W98106  20.971   1.488   2.259
31676W        W98107   8.882  10.158  11.667
31677W        W98108  10.337  37.331   4.369
31678W        W98109   8.381  44.138  13.875
31679W        W98110   0.824  13.723  14.353
31680W        W98111  23.766  30.707   4.669
31681W        W98112   9.714  37.960  12.337
31682W        W98113  21.537   2.770  10.718
31683W        W98114  20.762  32.401   2.284
31684W        W98115  11.343  19.732   0.726
31685W        W98116  44.742  23.409   1.380
31686W        W98117  31.502  19.370  14.366
31687W        W98118   6.670  30.007   4.085
31688W        W98119  30.383  39.327  11.810
31689W        W98120   0.360  19.719   2.232
31690W        W98121  42.930  28.863  10.420
31691W        W98122  42.777  37.350  14.303
31692W        W98123  17.657  32.563  12.762
31693W        W98124  31.210  43.069  14.453
31694W        W98125   2.221  40.262   0.827
31695W        W98126  44.300  25.490  11.720
31696W        W98127  11.274  19.856  11.082
31697W        W98128  10.029   2.932   0.412
31698W        W98129  19.327  43.784   3.870
31699W        W98130  32.036  36.879  11.193
31700W        W98131   4.773  15.692  11.726
31701W        W98132   0.219  29.506   1.161
31702W        W98133   0.655   1.774  13.472
31703W        W98134  40.353  10.909  11.891
31704W        W98135  38.029  42.940   1.978
31705W        W98136   3.492   5.350  11.908
31706W        W98137  43.322  17.756  12.472
31707W        W98138  11.343  11.836   1.660
31708W        W98139   5.198   4.892   1.015
31709W        W98140   2.409  22.086  10.646
31710W        W98141  11.606  16.752   2.255
31711W        W98142  15.038   3.129   0.099
31712W        W98143  16.192  35.044   4.216
31713W        W98144   9.434  34.446  12.987
31714W        W98145  37.504   2.512  14.159
31715W        W98146  21.642  24.632  13.675
31716W        W98147  40.864   4.378  11.260
31717W        W98148  17.302  12.726  14.345
31718W        W98149  40.952  26.977  11.154
31719W        W98150  36.688   1.458   0.856
31720W        W98151   8.805  31.706   1.355
31721W        W98152  10.813  21.984  13.470
31722W        W98153   4.948   9.973  12.597
31723W        W98154  11.478  41.316   2.285
31724W        W98155  39.472  11.149   2.632
31725W        W98156  18.643   4.471   4.321
31726W        W98157  24.237  14.306   3.760
31727W        W98158  11.272  11.086  10.851
31728W        W98159  20.472  23.141  12.903
31729W        W98160  31.126  44.490  14.568
31730W        W98161  27.730  36.088  13.015
31731W        W98162  27.060  35.902   5.007
31732W        W98163  11.795   5.722   1.752
31733W        W98164  32.502  11.087  14.383
31734W        W98165  39.088  37.488   2.129
31735W        W98166  18.307   8.942  10.534
31736W        W98167  12.687   7.423  11.201
31737W        W98168  23.174  38.128   3.178
31738W        W98169   4.292   3.950   4.136
31739W        W98170  31.863  35.817   2.805
31740W        W98171   4.757  24.119  13.839
31741W        W98172  34.961  43.765   1.137
31742W        W98173  33.088  38.543  10.581
31743W        W98174   5.775  10.271   2.282
31744W        W98175  10.464  43.970  13.121
31745W        W98176  14.997  21.842  12.471
31746W        W98177   1.942  19.734   4.883
31747W        W98178   0.298  28.370   1.459
31748W        W98179  33.165  28.848  12.208
31749W        W98180  40.461  44.285   0.093
31750W        W98181  29.587  33.366   4.091
31751W        W98182  35.434  28.651  13.865
31752W        W98183  11.300   4.874  12.524
31753W        W98184  21.190  35.243   4.625
31754W        W98185  20.593  24.497  13.468
31755W        W98186  32.228  42.070  14.030
31756W        W98187  27.968  40.816   0.398
31757W        W98188  33.397  32.520   3.913
31758W        W98189  38.604   4.539  11.900
31759W        W98190  38.910  39.418   1.865
31760W        W98191  25.667   1.726   1.701
31761W        W98192   0.683  38.104  13.842
31762W        W98193  36.398  44.431   1.754
31763W        W98194  24.472  20.561   4.093
31764W        W98195  42.931  22.365   1.797
31765W        W98196  14.146  20.606  14.793
31766W        W98197   3.287   2.390   3.323
31767W        W98198  31.381   9.202  12.152
31768W        W98199   4.163  12.381   3.607
31769W        W98200   7.781   9.005  13.494
31770W        W98201  23.352   2.425  11.722
31771W        W98202  30.129  34.525   4.301
31772W        W98203  30.423  33.430  14.343
31773W        W98204  30.334   4.899   2.714
31774W        W98205  23.024   1.877   0.211
31775W        W98206  34.754   6.598  14.290
31776W        W98207   4.436  23.186  11.178
31777W        W98208   6.905  14.593   9.853
31778W        W98209  25.086  16.111  14.346
31779W        W98210  12.232  25.083   2.112
31780W        W98211  13.094   3.773  11.942
31781W        W98212   7.187  24.587  10.748
31782W        W98213  25.622  33.062   1.750
31783W        W98214  41.646  26.302  13.314
31784W        W98215  31.407  36.116   4.272
31785W        W98216  37.476  34.947  14.980
31786W        W98217   7.699  14.743  12.111
31787W        W98218  31.680  42.051  13.030
31788W        W98219  41.937  25.092   4.656
31789W        W98220  42.455  32.802   1.769
31790W        W98221  41.552  40.695   1.456
31791W        W98222  11.951  10.158   0.703
31792W        W98223   8.846  18.382  14.947
31793W        W98224  33.548  35.946  11.174
31794W        W98225  33.600  29.967  10.625
31795W        W98226  15.595  39.480  10.940
31796W        W98227   1.795   1.055   2.686
31797W        W98228   0.432  43.773  14.365
31798W        W98229  15.503  22.526  13.393
31799W        W98230   1.681  17.270  13.481
31800W        W98231  14.044  39.390   1.753
31801W        W98232   1.258   2.334  14.955
31802W        W98233  13.283  12.088  13.348
31803W        W98234  10.136   4.434  11.647
31804W        W98235  33.093  30.960   2.918
31805W        W98236  25.130  34.620  13.335
31806W        W98237  13.485  31.443   1.001
31807W        W98238  11.918  29.480   3.226
31808W        W98239  42.279  44.874   0.638
31809W        W98240  32.246   6.638  11.079
31810W        W98241  18.336  44.429   0.344
31811W        W98242  44.921  25.319   0.333
31812W        W98243  14.268   0.146   3.488
31813W        W98244  28.323   7.896   2.028
31814W        W98245  38.982  37.488   3.436
31815W        W98246  38.367  40.745   3.216
31816W        W98247   3.801  10.193  13.406
31817W        W98248   2.850  24.598  12.524
31818W        W98249  40.102   6.411  12.803
31819W        W98250   1.471   6.924  11.575
31820W        W98251  43.944  31.475  11.102
31821W        W98252  19.732  27.915   2.305
31822W        W98253   6.656  20.219  13.853
31823W        W98254  14.512  12.705  14.454
31824W        W98255  36.970  31.258   1.598
31825W        W98256  15.695   6.158  14.426
31826W        W98257  39.006   0.560   2.333
31827W        W98258  21.004  21.365   2.657
31828W        W98259  42.335  39.299  11.108
31829W        W98260  27.469   6.928   0.303
31830W        W98261  23.715   8.811   3.388
31831W        W98262  13.568  14.675  13.926
31832W        W98263  43.986  14.801   3.348
31833W        W98264   8.341  43.245   3.744
31834W        W98265   5.804  22.151   3.782
31835W        W98266  24.768   5.231  12.942
31836W        W98267  15.275  12.346   2.312
31837W        W98268  26.002  16.318  14.305
31838W        W98269  33.704  29.982   3.043
31839W        W98270  18.198  20.698   1.912
31840W        W98271  41.562  38.440  14.303
31841W        W98272  39.851  22.223   1.304
31842W        W98273  17.722   1.532   4.694
31843W        W98274  13.613  25.910  12.344
31844W        W98275  18.159  13.894   2.358
31845W        W98276  18.985  11.374  14.912
31846W        W98277  16.720   9.314  14.366
31847W        W98278   0.281  42.468  10.985
31848W        W98279  15.134  27.123  13.215
31849W        W98280  12.114   6.843  13.400
31850W        W98281  40.512   7.581   3.722
31851W        W98282   5.978   4.958  13.963
31852W        W98283  28.862  38.542  13.934
31853W        W98284  25.569   8.211  10.688
31854W        W98285  33.065   7.484   0.030
31855W        W98286   0.884  25.742   0.364
31856W        W98287  23.551   3.945  11.470
31857W        W98288  42.607  35.862  11.235
31858W        W98289   1.556  34.617  13.906
31859W        W98290  34.652  14.588  12.480
31860W        W98291   4.907  17.970   0.212
31861W        W98292   2.475  22.994   4.273
31862W        W98293  10.687  28.197  12.026
31863W        W98294   1.901  33.611  13.175
31864W        W98295  20.696  24.971   2.715
31865W        W98296   3.294   2.723   2.928
31866W        W98297  36.521  35.011   0.687
31867W        W98298  17.943  11.442   0.824
31868W        W98299  14.215  19.804   2.856
31869W        W98300  38.762  33.650   1.753
31870W        W98301   8.457  33.177   1.417
31871W        W98302  34.129  43.895   0.787
31872W        W98303  13.760  21.301   3.272
31873W        W98304  25.225  32.567   2.865
31874W        W98305   2.347   2.177  12.841
31875W        W98306  43.721  42.822   0.424
31876W        W98307   0.740   3.632   3.841
31877W        W98308  23.591  31.857  14.415
31878W        W98309  23.694  30.195  14.818
31879W        W98310   9.450  24.716   1.178
31880W        W98311   4.307  18.430  14.321
31881W        W98312  36.822  12.748   9.910
31882W        W98313  25.984  32.547  13.036
31883W        W98314  35.031  20.786  14.990
31884W        W98315  35.188  15.372  13.373
31885W        W98316  28.335   6.320   2.760
31886W        W98317  11.557  36.536  12.550
31887W        W98318  12.117  41.403   1.642
31888W        W98319  24.132  11.625  14.525
31889W        W98320  36.153   8.760   4.808
31890W        W98321  26.983  17.196  13.834
31891W        W98322   4.304  15.097  13.527
31892W        W98323  14.583  43.792  11.100
31893W        W98324  31.062   9.191  12.684
31894W        W98325  17.234  44.078  11.511
31895W        W98326  35.426  27.568   4.260
31896W        W98327  40.470  32.529  10.469
31897W        W98328  26.970  18.828   0.182
31898W        W98329  30.457   2.840  13.750
31899W        W98330  15.932  44.316   3.704
31900W        W98331  26.626  37.022   4.101
31901W        W98332  23.251  18.549   0.371
31902W        W98333  38.341   2.955  12.820
31903W        W98334  27.469  15.736   3.337
31904W        W98335  41.551  31.924  13.816
31905W        W98336  26.040  26.059  13.098
31906W        W98337  16.097  40.450  13.767
31907W        W98338  26.455  24.354   4.140
31908W        W98339  43.718   8.816   4.563
31909W        W98340  19.202  29.999  11.576
31910W        W98341  26.663  42.515   0.014
31911W        W98342   2.820  37.017  10.669
31912W        W98343  34.576  31.015   3.433
31913W        W98344  13.395   3.231   9.884
31914W        W98345  24.187   2.273   0.747
31915W        W98346   3.623  19.080   0.441
31916W        W98347  25.933   8.823  13.041
31917W        W98348  11.673  29.235  11.535
31918W        W98349  16.563  18.702   3.265
31919W        W98350  37.136  26.913   3.220
31920W        W98351  25.786  24.661   4.568
31921W        W98352  40.839  40.305  12.088
31922W        W98353  16.076  42.329   0.286
31923W        W98354   8.845  44.247  14.575
31924W        W98355   1.060  19.901   0.029
31925W        W98356   8.791   4.366  12.171
31926W        W98357   4.728  22.687   2.669
31927W        W98358  18.490  38.613   5.368
31928W        W98359  23.663   7.085  13.913
31929W        W98360   8.825  26.653  14.093
31930W        W98361  26.941   2.385   3.586
31931W        W98362  40.626  39.577  12.459
31932W        W98363   1.645  31.466  14.369
31933W        W98364  31.499  10.583  11.918
31934W        W98365   4.051  34.812  13.520
31935W        W98366  41.510  29.487  13.600
31936W        W98367   7.177   8.160  10.643
31937W        W98368  43.417  20.625  12.391
31938W        W98369  24.486   3.289   0.805
31939W        W98370  23.175  16.201  13.403
31940W        W98371  44.910  25.706   2.918
31941W        W98372   6.232  30.527  10.816
31942W        W98373  40.429  14.648   2.189
31943W        W98374  13.845  32.077  12.397
31944W        W98375   7.688  43.076   0.406
31945W        W98376   6.759  15.129   0.358
31946W        W98377  35.816  26.061  13.364
31947W        W98378  11.481  23.985   4.974
31948W        W98379  22.310  42.631  14.892
31949W        W98380  26.910  42.579  14.027
31950W        W98381  37.001  11.922   2.288
31951W        W98382  31.956   0.728  12.453
31952W        W98383  19.894  20.252  14.798
31953W        W98384  16.215  35.922   4.417
31954W        W98385  32.498  26.544  10.670
31955W        W98386  32.549  35.345   3.319
31956W        W98387  11.520  23.093  13.979
31957W        W98388  25.177  14.300  10.468
31958W        W98389  15.697  12.502   3.621
31959W        W98390  23.722  27.790  12.521
31960W        W98391   7.823  43.187   2.786
31961W        W98392  39.079  36.475   4.412
31962W        W98393  26.519  38.354  12.338
31963W        W98394  37.308  42.058  10.656
31964W        W98395   8.937   1.751   3.211
31965W        W98396  29.192  31.623   2.871
31966W        W98397  11.681  40.043  14.165
31967W        W98398  18.108   8.200   4.552
31968W        W98399   3.454   7.046  10.623
31969W        W98400  27.633  12.657   1.672
31970W        W98401  40.390  16.379   4.503
31971W        W98402  30.394  43.335   0.655
31972W        W98403  39.054  14.886   2.265
31973W        W98404  28.355  43.803  11.578
31974W        W98405   8.455  11.467   2.379
31975W        W98406  14.544   6.944  12.562
31976W        W98407   4.216  36.842  12.913
31977W        W98408  30.052  36.011   4.736
31978W        W98409   3.363  13.852  14.420
31979W        W98410  29.381  41.191   1.712
31980W        W98411  18.651  29.077  10.713
31981W        W98412  23.498  43.606   3.743
31982W        W98413   1.512  13.716   0.595
31983W        W98414   1.977  16.804   2.370
31984W        W98415  44.740  25.923   1.546
31985W        W98416  44.297  13.299   2.427
31986W        W98417  17.305  21.281  11.477
31987W        W98418   2.386  16.220   1.720
31988W        W98419  19.691  13.245   1.850
31989W        W98420  42.339  40.433   1.667
31990W        W98421  36.029  20.114   0.407
31991W        W98422  11.347  20.034  13.803
31992W        W98423  17.336  38.366  13.069
31993W        W98424  30.573  25.282  11.117
31994W        W98425  43.652  44.812   0.695
31995W        W98426  30.648  29.189   1.999
31996W        W98427  16.987  13.600  14.491
31997W        W98428  36.927  37.437   0.939
31998W        W98429  24.451  25.215  14.085
31999W        W98430   1.491  28.695  13.381
32000W        W98431   0.341  31.551   2.493
32001W        W98432  25.618   0.516  10.529
32002W        W98433  13.344  14.418   5.016
32003W        W98434  10.572  20.729  14.406
32004W        W98435  10.251   4.714  10.137
32005W        W98436  44.031  23.097   2.711
32006W        W98437  35.310   8.377   3.879
32007W        W98438   9.187  12.347  14.634
32008W        W98439  36.585   0.932   1.817
32009W        W98440  34.526   3.776  14.957
32010W        W98441  32.347  41.489   2.449
32011W        W98442  40.282  23.352  11.076
32012W        W98443  30.047  27.103  11.419
32013W        W98444  27.902  28.165  14.204
32014W        W98445  27.682  38.372   2.700
32015W        W98446   3.843   1.943  11.165
32016W        W98447   0.042  14.101  14.390
32017W        W98448  37.985  20.052  11.654
32018W        W98449   6.403  37.334  12.348
32019W        W98450  27.987  28.985   0.984
32020W        W98451  10.703  23.948  12.442
32021W        W98452  38.661  18.604   2.295
32022W        W98453   0.216  26.155   2.188
32023W        W98454   9.910  24.708  11.000
32024W        W98455   4.900   7.463   2.817
32025W        W98456   3.216  15.692  10.692
32026W        W98457   8.356  28.962  13.647
32027W        W98458  39.914  39.155   2.175
32028W        W98459  37.999  22.693  13.068
32029W        W98460  25.423  44.385   2.245
32030W        W98461  20.145  10.129   1.238
32031W        W98462  44.239  13.826   2.266
32032W        W98463  36.096  39.446  14.797
32033W        W98464  18.698  28.407  13.433
32034W        W98465  23.985  28.965   2.405
32035W        W98466   9.386  25.014   4.157
32036W        W98467   1.323  28.530   4.758
32037W        W98468  20.568   1.363  12.975
32038W        W98469  24.939   9.664  11.568
32039W        W98470   1.879  17.007   1.899
32040W        W98471  30.516  10.362  13.764
32041W        W98472  28.460   8.369   3.020
32042W        W98473  12.153  34.897   0.928
32043W        W98474  32.526  23.195   2.430
32044W        W98475  28.487   9.110   0.949
32045W        W98476  44.441  29.652   4.217
32046W        W98477  35.392  20.179  10.841
32047W        W98478  14.182  31.849   4.715
32048W        W98479  12.232  23.643   4.213
32049W        W98480  14.194  27.162  10.367
32050W        W98481  29.655  22.230   0.971
32051W        W98482   7.669  21.732  13.850
32052W        W98483  11.822   5.100   4.825
32053W        W98484   0.956  22.789  14.545
32054W        W98485   6.801  12.176   3.133
32055W        W98486  36.015  29.499  11.652
32056W        W98487  32.071   7.969   0.663
32057W        W98488  24.226  27.858  12.556
32058W        W98489  38.874  28.168   2.771
32059W        W98490  27.063  19.064  14.743
32060W        W98491  11.913  25.497   1.251
32061W        W98492  24.215   2.854  10.507
32062W        W98493  11.746  35.758   0.932
32063W        W98494   4.445  36.788  11.070
32064W        W98495  34.452  30.420  11.612
32065W        W98496  33.982  12.185   4.314
32066W        W98497  40.371   7.064   4.584
32067W        W98498  36.091  18.936   2.733
32068W        W98499  17.776  28.459  13.528
32069W        W98500  38.265  26.645   0.618
32070W        W98501  14.213  30.600   2.826
32071W        W98502  31.138  33.858   4.935
32072W        W98503   8.016  42.124   0.162
32073W        W98504  30.486  22.529  12.959
32074W        W98505  19.769  41.809  14.634
32075W        W98506   4.319  20.497  12.473
32076W        W98507  13.815  39.439   3.743
32077W        W98508  16.117  22.709   3.298
32078W        W98509   3.863  29.013   2.656
32079W        W98510   0.449   7.936  14.565
32080W        W98511  19.286  10.846  14.921
32081W        W98512   3.203  15.059  13.905
32082W        W98513  28.071  39.021  12.984
32083W        W98514  28.016  30.679   2.726
32084W        W98515  11.174   8.660  10.998
32085W        W98516  30.365  23.099   0.066
32086W        W98517  42.656  13.737  12.148
32087W        W98518  21.977   5.501  14.892
32088W        W98519  14.290  16.236  14.595
32089W        W98520   2.759  39.691  11.996
32090W        W98521  14.688  21.525   4.976
32091W        W98522  15.752  31.982   2.130
32092W        W98523  28.508  31.453  13.064
32093W        W98524  13.632  23.539   3.699
32094W        W98525   8.135  20.327  12.864
32095W        W98526  27.859  43.677   0.329
32096W        W98527  37.200   7.883  14.456
32097W        W98528   0.887  16.259   4.018
32098W        W98529   4.641   7.706   0.807
32099W        W98530   6.241   8.338  12.472
32100W        W98531  11.983   4.947   1.285
32101W        W98532  34.496  29.409  11.587
32102W        W98533  28.558   0.902  14.344
32103W        W98534  23.905   6.608   0.139
32104W        W98535  21.545  20.573   3.140
32105W        W98536  23.052  27.509  10.974
32106W        W98537  33.156  38.919   4.698
32107W        W98538  20.142  23.515  12.625
32108W        W98539  21.896  17.115   2.299
32109W        W98540   4.447  34.116   4.289
32110W        W98541   1.733  17.756   2.434
32111W        W98542   4.755  25.530   4.943
32112W        W98543   7.773   2.800   3.741
32113W        W98544  12.411  41.352   0.612
32114W        W98545  42.945  22.580   0.513
32115W        W98546   9.621  21.049  12.611
32116W        W98547  19.087  27.998   2.870
32117W        W98548  36.582  24.107   0.278
32118W        W98549  14.094   3.193  12.669
32119W        W98550  20.663  34.433  11.287
32120W        W98551   2.983  22.120   4.552
32121W        W98552  36.644  18.561  14.405
32122W        W98553   9.246  36.351   4.724
32123W        W98554  29.123  10.744   1.941
32124W        W98555  31.955  29.513  12.082
32125W        W98556  31.383   7.162   1.356
32126W        W98557  38.993  37.892   3.072
32127W        W98558  21.074   5.628   3.433
32128W        W98559  35.906  17.308  11.963
32129W        W98560  27.567  39.804  11.518
32130W        W98561   4.745  20.553  14.462
32131W        W98562   7.378  26.900   1.484
32132W        W98563   7.838  18.942   1.908
32133W        W98564  21.612  28.119  10.674
32134W        W98565  40.053   4.472  13.193
32135W        W98566  22.596  26.464  11.579
32136W        W98567  37.570  40.540   5.339
32137W        W98568  12.226  43.733  11.974
32138W        W98569   1.802   9.701  11.118
32139W        W98570  33.049  37.523  14.680
32140W        W98571  12.465  39.000  12.126
32141W        W98572  31.214  26.802   3.128
32142W        W98573   4.775   7.827  13.327
32143W        W98574   2.398  16.564  13.462
32144W        W98575  14.232  39.949   2.870
32145W        W98576  14.830  23.218  12.459
32146W        W98577   8.622  12.104   0.830
32147W        W98578  44.038   3.415   1.750
32148W        W98579  26.307  38.479   3.884
32149W        W98580  43.815  35.410  14.944
32150W        W98581  11.751  26.337   0.864
32151W        W98582  30.244  40.382   3.349
32152W        W98583  36.359  35.059  10.304
32153W        W98584  43.180  26.524   4.615
32154W        W98585  11.469  23.576   3.607
32155W        W98586  31.743  44.976  12.012
32156W        W98587  26.986  43.137   4.076
32157W        W98588  39.212  35.928   1.683
32158W        W98589  24.677  13.050   1.019
32159W        W98590  26.577  43.724   1.159
32160W        W98591  30.110  11.544  11.941
32161W        W98592  24.254  26.954   4.660
32162W        W98593  30.578  44.611   3.648
32163W        W98594   4.705  38.961  12.493
32164W        W98595  14.734  15.664   1.086
32165W        W98596  24.666  11.559   0.303
32166W        W98597  28.189  29.925   3.248
32167W        W98598   9.765  22.593  11.585
32168W        W98599  12.204  14.133  11.070
32169W        W98600  41.799  24.633   4.865
32170W        W98601  22.241  33.454   1.711
32171W        W98602   5.598  16.184   3.280
32172W        W98603  42.368  40.815  14.552
32173W        W98604  15.709  40.317   2.948
32174W        W98605  32.968  43.999   0.395
32175W        W98606   6.674  29.145  12.688
32176W        W98607  13.226  33.913   1.749
32177W        W98608  14.833   5.856  12.073
32178W        W98609  38.255  37.815  13.910
32179W        W98610  39.192  43.306  12.454
32180W        W98611  26.350   0.573  12.492
32181W        W98612  23.017  37.660  12.966
32182W        W98613  15.694  31.513  12.389
32183W        W98614  12.825   3.032   4.256
32184W        W98615  36.500   1.210  14.073
32185W        W98616  15.717  41.378  14.492
32186W        W98617  23.152  44.752  14.473
32187W        W98618  31.896  41.300   2.907
32188W        W98619  20.444  30.903   1.426
32189W        W98620  20.296  25.758  11.155
32190W        W98621  16.573  29.778   3.909
32191W        W98622  17.183  42.431   2.866
32192W        W98623   3.304  10.629   3.774
32193W        W98624  20.475   3.316   0.947
32194W        W98625  24.158  11.316  11.644
32195W        W98626  20.755  23.635   1.011
32196W        W98627  17.690  16.871  14.205
32197W        W98628  35.710  23.643   2.158
32198W        W98629   6.903  39.211  14.173
32199W        W98630  18.105  44.632  10.642
32200W        W98631  13.758  39.779   0.821
32201W        W98632  12.735  12.688  13.888
32202W        W98633   3.816   6.826   1.596
32203W        W98634  22.872   0.519  13.455
32204W        W98635  33.290   5.605  12.511
32205W        W98636  34.940  10.795  10.913
32206W        W98637   6.755  20.468  11.914
32207W        W98638  24.917  36.923   4.195
32208W        W98639  11.840   0.744   4.182
32209W        W98640   0.789   8.446   0.878
32210W        W98641   3.260  13.770  13.370
32211W        W98642  39.055  11.006   0.298
32212W        W98643  20.369  20.458  14.041
32213W        W98644  29.607  16.024  10.709
32214W        W98645  38.778  11.073  13.496
32215W        W98646   1.488  36.772   4.909
32216W        W98647  10.853  25.614  10.666
32217W        W98648  18.158   4.906  10.588
32218W        W98649  43.412   8.161  12.459
32219W        W98650  30.520  15.944  14.218
32220W        W98651  40.737  20.614   0.183
32221W        W98652  26.965   1.999  13.920
32222W        W98653  36.840  25.035   1.718
32223W        W98654  24.514  13.648  14.010
32224W        W98655  19.802  11.381   0.883
32225W        W98656   0.730   3.896  11.161
32226W        W98657  30.398  20.545  13.766
32227W        W98658   7.430  15.385   1.672
32228W        W98659   7.027  19.187  13.347
32229W        W98660   1.828  42.280  12.936
32230W        W98661  19.068   2.163  13.304
32231W        W98662  34.840  37.161   3.210
32232W        W98663  25.231   8.793   4.559
32233W        W98664  11.461  38.743  13.823
32234W        W98665   7.647  26.505  11.450
32235W        W98666  15.811  11.553   2.221
32236W        W98667  17.101  26.321   0.972
32237W        W98668  23.244  37.316  14.849
32238W        W98669  16.905  32.588  14.295
32239W        W98670  16.166   9.816   3.665
32240W        W98671   1.423  33.528  12.947
32241W        W98672  39.304   1.097  14.421
32242W        W98673  42.579   1.873   1.393
32243W        W98674  30.702  21.034   3.418
32244W        W98675  29.522  11.565   1.340
32245W        W98676   9.572  33.130  12.736
32246W        W98677   8.450  26.151   0.315
32247W        W98678  19.337   9.373   0.901
32248W        W98679  34.073   5.686   4.544
32249W        W98680  40.104  31.570  13.886
32250W        W98681  13.741  35.859   1.899
32251W        W98682  31.560  43.457   2.289
32252W        W98683  32.672  17.215   0.670
32253W        W98684  31.431   9.125   4.146
32254W        W98685  23.748   4.542   1.263
32255W        W98686  13.521  22.173  12.891
32256W        W98687  24.764  36.070  11.052
32257W        W98688   1.031   0.010   3.135
32258W        W98689  24.064   1.254   3.333
32259W        W98690   0.416  28.005   2.749
32260W        W98691  37.052  44.676  11.827
32261W        W98692  41.394   0.982  13.808
32262W        W98693  38.216   4.428  13.262
32263W        W98694  13.456  22.094   3.628
32264W        W98695  37.333   6.438   1.448
32265W        W98696   7.797   1.992  14.644
32266W        W98697  10.272  31.876  12.679
32267W        W98698  35.363  21.843   0.814
32268W        W98699  28.448   4.974  12.153
32269W        W98700  37.910  13.996  12.683
32270W        W98701  39.875  19.011  14.477
32271W        W98702  15.048  35.777  13.435
32272W        W98703  11.681  40.541  11.653
32273W        W98704  21.789  39.895   4.045
32274W        W98705  44.759  30.580  12.223
32275W        W98706  27.715  14.464  12.289
32276W        W98707  23.026   5.228   3.824
32277W        W98708  38.676  26.117   0.414
32278W        W98709  28.627  22.955  13.328
32279W        W98710  24.269  21.261   4.589
32280W        W98711  25.715  40.682   4.559
32281W        W98712   5.217  32.475  12.501
32282W        W98713  18.093   7.846   3.244
32283W        W98714  41.389  41.171   1.330
32284W        W98715  33.766  22.395   4.060
32285W        W98716  33.862  27.784  12.931
32286W        W98717  43.881  20.319  10.728
32287W        W98718  22.701  27.240  14.366
32288W        W98719  24.703  36.423   3.122
32289W        W98720  33.965  43.248  12.098
32290W        W98721  38.288  14.653   3.460
32291W        W98722  19.405  39.412   3.624
32292W        W98723  41.480  16.077   2.845
32293W        W98724  33.314   0.449   3.069
32294W        W98725   8.359  25.975  14.366
32295W        W98726   2.271   1.886  13.277
32296W        W98727  39.918  18.846  13.564
32297W        W98728  41.433   4.956   1.364
32298W        W98729   8.251  10.116  13.969
32299W        W98730  13.114  29.488  11.957
32300W        W98731  11.637  38.579   4.283
32301W        W98732   7.364  30.368   0.800
32302W        W98733  24.258  25.185   2.422
32303W        W98734  20.476   6.299   1.335
32304W        W98735  16.356  22.662  14.804
32305W        W98736  21.076  34.747   4.679
32306W        W98737  17.601  42.109   2.722
32307W        W98738  15.891  35.059  13.011
32308W        W98739  44.998   6.375  14.789
32309W        W98740   1.427  22.743   4.075
32310W        W98741  25.998  13.210  11.598
32311W        W98742   4.107   8.659  12.311
32312W        W98743  22.863  43.745   2.826
32313W        W98744  34.384  23.176  14.817
32314W        W98745  26.252  36.848  11.663
32315W        W98746  31.948  27.827   4.718
32316W        W98747  31.553  19.077   4.520
32317W        W98748  41.314  36.817  13.969
32318W        W98749  14.078   9.715   2.632
32319W        W98750   2.562   0.723   1.318
32320W        W98751  23.135  37.357  12.528
32321W        W98752   1.702   9.153   1.927
32322W        W98753  21.608  32.416   1.226
32323W        W98754  15.681   9.174  14.817
32324W        W98755   1.291   4.744   0.409
32325W        W98756  39.916  35.826  10.570
32326W        W98757   4.701  34.048  10.751
32327W        W98758  30.163  23.221   1.161
32328W        W98759  37.702   7.287  11.128
32329W        W98760  40.827  17.246   2.355
32330W        W98761  31.440   0.755   4.575
32331W        W98762  28.647  30.763  14.295
32332W        W98763  18.859  35.939   5.064
32333W        W98764   8.468  37.432   3.274
32334W        W98765  14.701   3.507  14.327
32335W        W98766  36.538   4.933   2.481
32336W        W98767  17.180  44.515  12.703
32337W        W98768  44.237  32.076  12.505
32338W        W98769  40.036  30.049  14.699
32339W        W98770   2.180  21.630  10.597
32340W        W98771   4.657  15.202  11.035
32341W        W98772  33.459  20.813   0.770
32342W        W98773  12.882  29.700  12.867
32343W        W98774   0.764  35.476   0.947
32344W        W98775  17.668  39.025   4.231
32345W        W98776   5.245  34.570   2.613
32346W        W98777  13.591  36.531   3.732
32347W        W98778  43.403  13.988  13.818
32348W        W98779   6.831  33.131  14.486
32349W        W98780  14.275  16.126   3.135
32350W        W98781  26.222  15.999  13.957
32351W        W98782  43.049  16.577  10.691
32352W        W98783  25.354  36.175  14.424
32353W        W98784   2.330  44.924   0.901
32354W        W98785  19.904  11.435   4.153
32355W        W98786  37.524  33.068   1.045
32356W        W98787   3.050  26.643  14.766
32357W        W98788  23.137  13.858   2.850
32358W        W98789  35.049  19.064  13.929
32359W        W98790   4.396  38.673  14.104
32360W        W98791  23.127  33.075  10.433
32361W        W98792  24.352   7.367  14.697
32362W        W98793  20.423  41.687   1.908
32363W        W98794  34.656   4.947   2.334
32364W        W98795  12.146  41.524   3.093
32365W        W98796  27.253  32.953   1.705
32366W        W98797   2.604  20.472  14.169
32367W        W98798  10.426   2.327  11.267
32368W        W98799  29.927  21.297   1.302
32369W        W98800  17.388  26.427  11.523
32370W        W98801  34.001  25.099  10.938
32371W        W98802  23.021  38.084  11.637
32372W        W98803   5.295   4.775  12.729
32373W        W98804  16.848  29.078   0.524
32374W        W98805   1.549  25.727  13.464
32375W        W98806   8.731  18.055  11.431
32376W        W98807   7.210  11.286   0.739
32377W        W98808  19.089  38.332   2.296
32378W        W98809   3.359  29.121   2.215
32379W        W98810  28.501  12.341  12.532
32380W        W98811  22.055   2.872  10.653
32381W        W98812  41.008   6.165  13.342
32382W        W98813  38.995  15.687   3.734
32383W        W98814  10.892   6.410  12.918
32384W        W98815  42.734  29.767  12.070
32385W        W98816  22.415   0.345  12.535
32386W        W98817  23.765  17.029  11.182
32387W        W98818  31.404   0.105   3.603
32388W        W98819   3.296   9.658  14.614
32389W        W98820  41.930  27.364   1.843
32390W        W98821  26.202  31.623  11.712
32391W        W98822   0.427  32.565  14.067
32392W        W98823  39.509  34.310  14.007
32393W        W98824  16.822  38.962  10.648
32394W        W98825  33.844  34.039   3.009
32395W        W98826   1.781   3.940  11.727
32396W        W98827  43.350   1.282  11.572
32397W        W98828  35.387  33.729   3.751
32398W        W98829  22.415   9.207   3.715
32399W        W98830   7.279   2.094   4.524
32400W        W98831  22.548  37.793  14.333
32401W        W98832  11.084   8.512   3.829
32402W        W98833  41.944  11.556   4.111
32403W        W98834   5.369   5.922   3.295
32404W        W98835  17.615  19.036   3.853
32405W        W98836  38.747  34.853  10.323
32406W        W98837  25.724  16.810  12.539
32407W        W98838  37.530  34.135   4.534
32408W        W98839  43.522  17.863  14.827
32409W        W98840   0.943  17.990  10.592
32410W        W98841  13.324  18.756   2.841
32411W        W98842  35.967  36.404   0.953
32412W        W98843   2.896  13.805   1.508
32413W        W98844  26.917  19.668  13.920
32414W        W98845  29.584  16.255  12.091
32415W        W98846   1.555  38.142  11.571
32416W        W98847  35.654   9.828  14.840
32417W        W98848  16.368  17.272  11.620
32418W        W98849  27.986  27.560  13.384
32419W        W98850  15.005  36.267  14.390
32420W        W98851  24.793   1.950  14.576
32421W        W98852   2.054  13.888  11.668
32422W        W98853   6.665  11.855   2.259
32423W        W98854   2.331  21.328   1.360
32424W        W98855  44.737   4.234  12.574
32425W        W98856  41.046  27.012   2.822
32426W        W98857  10.702   7.253   1.537
32427W        W98858   0.507  15.264   0.762
32428W        W98859  23.201  11.923  12.348
32429W        W98860  30.937  17.102   4.612
32430W        W98861   2.876   8.862   1.166
32431W        W98862  16.480  10.193   0.850
32432W        W98863  22.905  33.557  12.745
32433W        W98864   1.427  34.431   1.401
32434W        W98865  14.093  21.816   1.724
32435W        W98866  15.697  43.404  11.925
32436W        W98867  18.752  37.527  13.460
32437W        W98868  36.597   0.549   3.193
32438W        W98869  10.129  21.600  13.825
32439W        W98870   7.149   0.607   2.623
32440W        W98871  27.943  17.932   5.046
32441W        W98872  15.074  12.685   1.262
32442W        W98873  27.650   2.256   3.131
32443W        W98874  35.112  21.828   2.278
32444W        W98875  39.864  22.262  13.908
32445W        W98876  36.924  36.653   2.893
32446W        W98877  41.779  20.605   2.229
32447W        W98878   6.462  22.075  12.520
32448W        W98879  22.546  35.445  13.885
32449W        W98880  24.131  10.606   0.371
32450W        W98881  10.416  11.659  10.454
32451W        W98882   4.848  25.020  13.818
32452W        W98883  30.089   3.695   3.925
32453W        W98884  31.741  34.628  11.483
32454W        W98885  26.953  36.951  14.985
32455W        W98886  25.927  10.304   0.804
32456W        W98887   9.650  32.916   3.050
32457W        W98888  29.549  25.695   0.223
32458W        W98889  33.517  34.370   0.226
32459W        W98890  20.398  25.936  14.070
32460W        W98891   8.861  17.413   9.753
32461W        W98892  26.600  24.920   2.392
32462W        W98893  11.163  23.878  14.272
32463W        W98894   7.894   2.746  11.893
32464W        W98895  15.690  34.623  13.211
32465W        W98896  39.292  23.199  10.819
32466W        W98897  15.208  30.247   3.423
32467W        W98898   7.203  14.627   4.665
32468W        W98899   8.700  14.398   4.852
32469W        W98900  44.855  19.679   2.397
32470W        W98901  19.431   7.293   0.271
32471W        W98902  20.806  22.687  12.994
32472W        W98903  30.154  44.876  12.914
32473W        W98904  17.322  33.485   3.355
32474W        W98905  33.403  18.252  10.638
32475W        W98906  31.675   7.626  12.750
32476W        W98907   1.310  17.644  13.453
32477W        W98908  37.036  35.037   4.647
32478W        W98909  43.799  16.000  14.097
32479W        W98910   2.992  20.263  11.183
32480W        W98911   9.716  14.918  13.941
32481W        W98912  43.481  29.536   3.344
32482W        W98913  20.001  20.035   1.676
32483W        W98914  20.855  29.472  11.365
32484W        W98915  32.951  33.505  11.054
32485W        W98916  24.196  35.423  13.969
32486W        W98917   2.152  29.888   3.675
32487W        W98918  33.900  27.301  13.087
32488W        W98919  11.900  11.585   0.884
32489W        W98920  25.106  40.576  11.451
32490W        W98921  39.861  43.894   0.677
32491W        W98922  10.702  42.039   4.659
32492W        W98923   2.771   7.799  11.235
32493W        W98924   6.494  44.248   1.767
32494W        W98925  29.553  28.567  13.766
32495W        W98926   8.135  10.470   0.376
32496W        W98927   6.695  36.411   0.401
32497W        W98928  38.895  41.213   1.179
32498W        W98929  21.818  14.262   1.459
32499W        W98930  14.383   9.345  11.614
32500W        W98931  40.376   9.464  12.173
32501W        W98932  39.951   6.122   0.991
32502W        W98933  20.554  19.211  14.346
32503W        W98934  21.171  29.632   4.632
32504W        W98935  17.991  41.483  13.837
32505W        W98936  20.186   4.473  14.914
32506W        W98937  44.356  29.893  13.117
32507W        W98938  24.638  17.724  13.213
32508W        W98939  13.221  26.236   2.680
32509W        W98940  42.252  35.341   2.438
32510W        W98941  33.515  23.666   0.461
32511W        W98942  33.634   2.074  12.491
32512W        W98943  10.396  25.498  14.085
32513W        W98944  41.455  30.434  14.412
32514W        W98945  42.486  12.286   1.284
32515W        W98946  15.774  10.696   0.607
32516W        W98947  12.170  29.035  10.672
32517W        W98948   0.010   7.399  14.754
32518W        W98949  29.137  28.960  12.518
32519W        W98950  21.039  13.764   1.282
32520W        W98951   7.749  25.566   0.189
32521W        W98952  34.470   7.455  10.688
32522W        W98953  29.598  27.035   3.207
32523W        W98954  39.823   3.916  11.636
32524W        W98955  35.594  36.730   0.795
32525W        W98956  23.192  26.210   0.972
32526W        W98957  39.360  12.236  10.542
32527W        W98958  19.283  18.242   4.098
32528W        W98959  18.047  17.514   1.332
32529W        W98960  29.696   5.349   0.950
32530W        W98961  41.410  24.214  14.842
32531W        W98962   0.655  17.037  13.599
32532W        W98963  11.893   7.086  14.848
32533W        W98964  25.457   0.517  13.004
32534W        W98965  10.387   3.875   1.650
32535W        W98966  24.728  35.207   3.125
32536W        W98967  32.355  28.317   4.165
32537W        W98968  22.992  35.101  14.906
32538W        W98969  12.739  11.231  10.931
32539W        W98970  20.256  44.749  13.398
32540W        W98971  21.042   4.723   1.016
32541W        W98972  35.984  12.056  13.064
32542W        W98973   5.480  16.153  12.410
32543W        W98974   6.224  44.897  10.150
32544W        W98975  17.524  27.916  12.412
32545W        W98976  18.830  36.483  13.627
32546W        W98977  27.068  28.475  14.985
32547W        W98978  35.442  37.863  14.003
32548W        W98979  19.518  23.953  14.977
32549W        W98980  15.810   9.616   3.345
32550W        W98981  35.644   4.766   1.472
32551W        W98982  21.039   2.825  10.746
32552W        W98983  17.016  16.197  10.242
32553W        W98984  18.637  40.059   4.545
32554W        W98985  27.953  44.521  14.071
32555W        W98986  22.166  39.565  13.818
32556W        W98987  20.787  16.323  13.925
32557W        W98988  22.056   2.605  13.021
32558W        W98989  16.635  14.341  12.478
32559W        W98990   7.286  25.016   0.863
32560W        W98991  44.274   2.809  14.477
32561W        W98992   5.459  27.910  13.864
32562W        W98993  39.176   6.187  13.270
32563W        W98994  25.151  22.662  14.911
32564W        W98995   1.967  23.020   2.931
32565W        W98996  29.614  23.978  14.089
32566W        W98997  41.310   2.112   2.459
32567W        W98998  26.060  28.804   2.180
32568W        W98999  20.638   2.989   1.638
32569W        W99000   8.276  22.535   0.213
32570W        W99001  19.428  31.632   1.785
32571W        W99002   8.749  15.950   0.643
32572W        W99003   8.234  13.199   4.859
32573W        W99004  43.049   0.598   3.144
32574W        W99005  16.066   7.995   3.978
32575W        W99006  35.771  36.358  11.539
32576W        W99007   3.334  40.905  13.030
32577W        W99008  44.782  39.931   0.473
32578W        W99009  30.971  21.294   0.028
32579W        W99010   1.351   1.515   3.328
32580W        W99011  28.267  14.997  14.261
32581W        W99012  31.570  13.154   0.408
32582W        W99013  39.466  14.409  13.269
32583W        W99014   6.992  27.483  14.822
32584W        W99015   1.842   8.257   2.203
32585W        W99016  44.379  29.515  14.092
32586W        W99017  36.061  38.068  12.910
32587W        W99018   7.912  29.011  13.951
32588W        W99019   7.993  19.584  10.721
32589W        W99020   3.472  43.053   3.372
32590W        W99021  30.071  36.102  14.349
32591W        W99022  33.420  22.638  13.981
32592W        W99023  41.868  11.779  11.621
32593W        W99024  17.265  30.576   2.283
32594W        W99025   6.374  24.531   3.662
32595W        W99026  34.591  26.019   2.465
32596W        W99027   1.736   5.966  13.024
32597W        W99028  28.860  37.938  12.580
32598W        W99029  16.052  35.612   0.286
32599W        W99030  19.086  19.041  12.583
32600W        W99031  21.978  37.313  12.053
32601W        W99032  30.517  20.595   3.641
32602W        W99033   2.323  32.488   4.732
32603W        W99034   5.104   4.044  14.345
32604W        W99035  19.130  38.014  10.697
32605W        W99036  22.718  17.135  14.601
32606W        W99037  35.278  29.929   5.003
32607W        W99038  43.288   6.512  12.952
32608W        W99039  23.180  36.322   1.195
32609W        W99040  40.410  12.450   4.565
32610W        W99041   4.502  11.248   0.971
32611W        W99042  37.016  18.859  11.977
32612W        W99043  12.821   3.001  11.057
32613W        W99044  36.172  38.363  14.350
32614W        W99045   0.260  25.773  14.505
32615W        W99046  21.429  16.791  10.855
32616W        W99047   3.037  12.334   2.193
32617W        W99048  34.655  36.958  13.056
32618W        W99049  16.328  15.557  13.909
32619W        W99050  27.931  36.283  12.562
32620W        W99051  14.661  25.519  13.358
32621W        W99052   8.307  28.049  13.968
32622W        W99053  33.112   1.439   0.904
32623W        W99054  33.903  16.809  13.901
32624W        W99055  32.470  36.286  10.744
32625W        W99056  31.143   4.792   3.343
32626W        W99057  33.072  25.587  12.977
32627W        W99058  39.625  12.057   4.304
32628W        W99059  34.531   8.002   1.927
32629W        W99060  28.519  29.563  14.785
32630W        W99061   4.887  28.188  14.534
32631W        W99062  34.653   2.936  14.343
32632W        W99063   6.408  14.090  11.033
32633W        W99064  30.963  33.385   5.023
32634W        W99065  25.391  21.072  10.666
32635W        W99066   1.697  33.502  11.647
32636W        W99067  20.781   7.145  12.966
32637W        W99068  37.513   5.307  12.896
32638W        W99069  21.965   8.873  14.829
32639W        W99070  12.659  20.503  14.390
32640W        W99071  16.650  42.389   1.546
32641W        W99072  13.318  33.602   4.185
32642W        W99073  43.080  42.999  12.393
32643W        W99074  32.060  19.212   3.156
32644W        W99075  38.981   3.781  13.562
32645W        W99076  40.116  38.000  11.912
32646W        W99077  22.154  30.422   0.437
32647W        W99078  19.705  10.241   3.876
32648W        W99079  16.041   1.838   0.464
32649W        W99080  20.489  14.058  13.404
32650W        W99081  44.181  44.239   0.029
32651W        W99082  27.437  40.500  13.896
32652W        W99083  14.716  19.525  10.909
32653W        W99084  38.336  36.749   3.300
32654W        W99085  12.287  37.289  12.597
32655W        W99086   3.381  30.432   3.563
32656W        W99087  32.061   1.253   2.568
32657W        W99088  19.530  29.243  12.982
32658W        W99089  27.636   3.466  12.491
32659W        W99090  41.150   4.772  13.303
32660W        W99091  20.867  11.146  12.986
32661W        W99092  36.226  13.769   1.883
32662W        W99093   9.192  41.837   1.158
32663W        W99094  38.283  12.115  10.778
32664W        W99095  27.396  20.913  11.814
32665W        W99096   3.088   0.682  11.988
32666W        W99097   3.089   8.310   2.756
32667W        W99098  25.553   5.199  14.910
32668W        W99099  31.980   6.127  11.918
32669W        W99100  41.392   5.851  13.442
32670W        W99101  32.367  12.264   3.220
32671W        W99102  15.707  18.565  12.414
32672W        W99103  22.212  43.636  13.031
32673W        W99104  40.723  21.675   4.804
32674W        W99105  27.615   6.406  12.387
32675W        W99106   6.768  32.628  12.478
32676W        W99107  20.992  37.344   2.461
32677W        W99108   1.496  32.383   0.456
32678W        W99109   7.881  33.955  11.608
32679W        W99110  17.758   1.960  12.017
32680W        W99111  25.002  18.814  11.596
32681W        W99112  34.870  38.032  10.434
32682W        W99113  42.508  38.940   4.586
32683W        W99114  29.145  39.781   4.526
32684W        W99115   1.341  36.400  12.588
32685W        W99116  39.899  12.640  10.788
32686W        W99117  34.796  36.024   2.303
32687W        W99118   6.106  38.473   3.155
32688W        W99119  35.157  10.213   3.881
32689W        W99120   7.903   9.778  14.930
32690W        W99121   3.915   0.042  13.835
32691W        W99122  27.822  15.752  11.210
32692W        W99123   3.023  24.000  10.464
32693W        W99124  11.944  34.867   5.026
32694W        W99125  40.503   2.295   3.873
32695W        W99126   0.417  29.953   4.084
32696W        W99127   2.731   3.256   4.949
32697W        W99128  25.472  41.968   3.171
32698W        W99129  44.431  12.539   1.284
32699W        W99130  25.823  32.864   0.881
32700W        W99131  37.326  15.731  14.320
32701W        W99132  26.601  25.047  11.108
32702W        W99133   0.194   5.403  13.755
32703W        W99134   7.109  10.150  13.060
32704W        W99135  13.068  26.471   0.418
32705W        W99136  17.182   7.666   0.910
32706W        W99137  31.900  15.792  10.658
32707W        W99138  40.150   6.930   4.152
32708W        W99139  26.910  24.961  14.332
32709W        W99140  14.023  26.739   4.180
32710W        W99141  28.504  25.162   4.589
32711W        W99142  40.429  41.952   3.577
32712W        W99143  20.678  11.238  12.357
32713W        W99144  31.692   5.033  10.413
32714W        W99145   1.902  11.752   4.130
32715W        W99146  22.138  33.486   3.681
32716W        W99147  44.338  21.917   3.791
32717W        W99148   1.789  36.216   0.763
32718W        W99149   7.998   8.833   2.836
32719W        W99150  43.320  21.055   1.159
32720W        W99151  33.035  16.755  12.967
32721W        W99152  29.469  31.243  13.559
32722W        W99153  31.926  37.080  12.558
32723W        W99154  36.620  11.186  13.846
32724W        W99155  26.121  17.030   1.456
32725W        W99156   3.168   3.238  11.321
32726W        W99157  36.039  12.138  10.945
32727W        W99158   1.427  32.946   1.108
32728W        W99159  33.612  15.848   0.640
32729W        W99160  25.040   5.274  14.648
32730W        W99161   5.692  24.174   4.091
32731W        W99162  12.939  16.625  14.496
32732W        W99163  44.253  32.382  11.145
32733W        W99164  42.892  32.234  13.383
32734W        W99165  35.910  41.047   2.835
32735W        W99166  34.498   9.123   0.910
32736W        W99167  42.377  18.200   0.808
32737W        W99168   3.321  27.208  10.645
32738W        W99169   4.420  44.399  12.964
32739W        W99170  41.575  33.601  11.436
32740W        W99171   7.481  10.624   1.463
32741W        W99172  18.635   3.862  10.220
32742W        W99173  30.397   8.792   1.579
32743W        W99174  43.321   5.989  12.950
32744W        W99175  31.874   4.833   9.964
32745W        W99176  31.076  15.636   4.369
32746W        W99177   6.612   1.314   4.806
32747W        W99178  34.106   7.028  12.253
32748W        W99179  40.207  31.723  12.544
32749W        W99180  25.971  41.727   4.158
32750W        W99181  23.526  33.333   3.137
32751W        W99182   2.770  29.355  14.479
32752W        W99183   9.237  35.062   0.787
32753W        W99184  19.549   3.761   4.809
32754W        W99185  36.268  30.535  12.592
32755W        W99186  41.022  30.128   3.245
32756W        W99187   3.534   0.672   3.243
32757W        W99188  31.505  43.658  11.567
32758W        W99189  40.793  23.983   0.863
32759W        W99190   6.934  31.335  12.257
32760W        W99191  12.430  41.255   3.732
32761W        W99192  41.510  12.614  12.470
32762W        W99193   7.597  24.723  13.681
32763W        W99194  15.779  19.192   3.167
32764W        W99195  18.729  27.301   0.412
32765W        W99196  15.107   9.756  12.061
32766W        W99197  41.572  30.543   1.907
32767W        W99198   5.455   7.161   4.229
32768W        W99199  22.159  28.701  12.499
32769W        W99200   4.073  23.641   3.672
32770W        W99201   2.265  31.208  13.751
32771W        W99202  17.334   1.320   0.895
32772W        W99203  34.435   8.938  13.427
32773W        W99204  34.111  30.928   1.719
32774W        W99205  37.741   4.393   1.053
32775W        W99206  16.028  16.607   1.960
32776W        W99207  19.796   1.040   0.289
32777W        W99208  39.597  21.946  14.796
32778W        W99209  37.954  19.582   2.889
32779W        W99210  42.812  33.161   3.342
32780W        W99211  34.160  14.347  12.528
32781W        W99212  37.205  11.655  11.691
32782W        W99213  27.999  24.632   1.381
32783W        W99214  26.798  33.871   3.500
32784W        W99215   0.281  40.355  12.901
32785W        W99216  11.248   6.018  14.257
32786W        W99217  24.910  17.977   3.078
32787W        W99218  10.851  32.481   4.610
32788W        W99219  40.600  39.040   2.744
32789W        W99220   6.207   8.866   4.280
32790W        W99221  36.535  25.295  10.622
32791W        W99222  20.207   2.390   3.124
32792W        W99223  30.924  28.582  14.358
32793W        W99224  19.152   3.176   2.272
32794W        W99225   0.847  43.564  13.564
32795W        W99226  31.740  28.694  11.732
32796W        W99227  40.563  13.820   3.764
32797W        W99228  44.071  39.868   1.162
32798W        W99229  15.259  15.812   1.380
32799W        W99230  10.376  30.942  13.003
32800W        W99231  43.328  37.258  14.819
32801W        W99232  22.439   1.842  11.523
32802W        W99233  13.052  30.683  12.355
32803W        W99234  16.316   3.967  14.393
32804W        W99235  37.664  15.751  10.541
32805W        W99236  13.487  37.559  12.881
32806W        W99237   1.442  43.705  11.330
32807W        W99238  23.250   8.734   4.089
32808W        W99239   9.304  35.883  13.892
32809W        W99240   9.778  44.158   4.923
32810W        W99241  14.682  36.558   2.343
32811W        W99242  22.474  30.497   0.027
32812W        W99243  24.779  21.664  12.339
32813W        W99244   1.935  19.505  13.640
32814W        W99245  21.464  40.348  11.964
32815W        W99246  36.104  34.423  12.930
32816W        W99247  40.853  33.896  12.538
32817W        W99248  22.364  22.143   4.125
32818W        W99249  26.772   2.177  14.387
32819W        W99250   1.293   4.155   4.108
32820W        W99251  39.895  43.223   2.340
32821W        W99252   8.222  39.277   2.107
32822W        W99253  38.403  39.104   0.703
32823W        W99254   2.717  42.843  12.158
32824W        W99255  22.553  32.432   0.703
32825W        W99256  20.726  37.259   3.770
32826W        W99257  10.807  10.102   4.678
32827W        W99258  40.541  27.625   2.377
32828W        W99259  21.661  29.957  11.731
32829W        W99260  42.435  25.269   4.783
32830W        W99261  13.155  36.047  13.250
32831W        W99262  24.793   8.535   1.758
32832W        W99263  32.366  15.176  12.882
32833W        W99264  14.351  11.252  13.938
32834W        W99265   1.903  30.356  13.748
32835W        W99266   0.056  33.625  12.891
32836W        W99267   3.235  28.089  10.949
32837W        W99268  16.006  35.758   2.920
32838W        W99269  19.672  32.594  11.930
32839W        W99270  30.974   6.743   2.572
32840W        W99271  27.920  23.426  12.028
32841W        W99272   2.923  26.737  13.937
32842W        W99273   7.669   9.612  10.682
32843W        W99274  14.865   5.280   0.777
32844W        W99275  32.244  22.133   4.009
32845W        W99276  32.046  34.138   0.347
32846W        W99277   0.369  29.951   0.295
32847W        W99278   2.431  22.489  12.161
32848W        W99279  41.879   2.798   0.893
32849W        W99280  29.248  34.347  13.479
32850W        W99281  38.985  13.011   3.681
32851W        W99282  28.585   9.774  13.954
32852W        W99283  32.593  27.463   3.649
32853W        W99284  26.192  12.211  11.956
32854W        W99285  32.488  42.678  13.380
32855W        W99286  10.365  30.033  11.989
32856W        W99287  44.824   1.854   2.167
32857W        W99288  39.367  28.963  11.764
32858W        W99289  44.354  30.879   0.291
32859W        W99290  13.979  15.694  13.938
32860W        W99291  34.688  34.527   4.052
32861W        W99292  39.691  35.440   2.803
32862W        W99293  17.051  23.067   3.518
32863W        W99294   4.354   9.246   2.370
32864W        W99295  17.090  24.551   3.695
32865W        W99296  39.449  15.723  10.617
32866W        W99297  42.028   2.327   5.113
32867W        W99298  33.100  32.190  14.864
32868W        W99299  38.494  27.716   4.406
32869W        W99300   3.225  22.197  13.954
32870W        W99301  16.417  25.732  11.123
32871W        W99302   1.251  12.740  13.542
32872W        W99303  30.487  38.785   1.321
32873W        W99304  14.670  14.096  11.905
32874W        W99305  40.554  24.981   0.175
32875W        W99306  18.575  36.305  14.565
32876W        W99307  19.621  28.646   0.255
32877W        W99308  13.296  41.265  13.966
32878W        W99309  29.678  30.569   0.265
32879W        W99310  29.393  15.750  12.044
32880W        W99311   6.314  19.271  14.822
32881W        W99312  34.629  20.528  14.752
32882W        W99313  13.306  40.961  10.701
32883W        W99314  36.112  22.020   1.269
32884W        W99315  17.199  37.422  12.739
32885W        W99316  40.577  38.093   5.042
32886W        W99317   9.403  12.691   2.286
32887W        W99318  16.633  39.434  14.417
32888W        W99319  11.329   4.645   2.757
32889W        W99320  43.786   2.427  10.829
32890W        W99321  15.587  29.664  13.519
32891W        W99322  24.523  44.278  14.987
32892W        W99323   8.183   1.702   3.643
32893W        W99324  19.188  14.766  11.532
32894W        W99325   6.881  24.476   0.449
32895W        W99326  37.368  23.594  13.533
32896W        W99327  20.091  20.168   4.722
32897W        W99328  12.101   0.529  13.826
32898W        W99329  19.521   9.317  11.193
32899W        W99330  20.564  23.046  11.541
32900W        W99331  21.430  19.094   3.300
32901W        W99332  24.251   6.120  13.366
32902W        W99333  18.832  35.399   3.041
32903W        W99334  17.914  40.421  11.099
32904W        W99335  11.704  38.469  11.098
32905W        W99336  32.168  14.622  11.712
32906W        W99337  20.910   2.274   0.611
32907W        W99338   3.896   0.567  13.953
32908W        W99339  19.984  26.477  12.473
32909W        W99340  27.697  33.807   0.018
32910W        W99341   4.375   6.949  11.051
32911W        W99342  16.675  38.850   4.172
32912W        W99343   9.114   3.457   4.587
32913W        W99344  33.573  43.557  10.452
32914W        W99345  16.259   9.189   2.919
32915W        W99346  39.849  31.919  10.736
32916W        W99347  36.467  26.789   3.617
32917W        W99348  43.004   5.722  10.767
32918W        W99349  19.518  39.791   1.571
32919W        W99350   3.927  34.955   4.634
32920W        W99351  16.214   9.552  11.550
32921W        W99352  33.386  39.367  12.424
32922W        W99353   6.640  11.441  13.988
32923W        W99354   5.889  14.618   4.178
32924W        W99355  22.782  19.797  14.881
32925W        W99356   9.302   9.466   2.771
32926W        W99357  25.606  23.195  13.497
32927W        W99358  38.968   1.202   0.576
32928W        W99359  18.072   7.957  12.601
32929W        W99360  18.564  25.809   3.731
32930W        W99361  30.175  41.827  11.117
32931W        W99362  43.697  29.120   0.749
32932W        W99363   6.539  11.660   4.393
32933W        W99364  13.059  20.106  10.777
32934W        W99365  40.979  41.737   2.887
32935W        W99366  24.050  29.315  11.479
32936W        W99367   1.925  20.345   1.852
32937W        W99368  19.251  34.701   0.853
32938W        W99369  27.520  25.918   0.261
32939W        W99370   1.950  40.733   0.882
32940W        W99371  17.662   9.231  11.704
32941W        W99372  42.096  17.984  10.727
32942W        W99373  27.548  44.830   4.624
32943W        W99374  43.765  44.958   3.639
32944W        W99375   0.884   2.858   4.851
32945W        W99376  12.669  27.448   4.616
32946W        W99377   1.791  30.592   3.249
32947W        W99378   6.303   5.363   4.710
32948W        W99379  33.319  14.785   3.178
32949W        W99380  34.014  39.249  12.091
32950W        W99381  13.347  21.615  14.565
32951W        W99382  22.699  24.279  14.810
32952W        W99383  17.404   4.172  13.080
32953W        W99384  16.145  29.463   3.864
32954W        W99385  17.932  27.934   2.262
32955W        W99386  13.158   5.323  13.808
32956W        W99387  12.695  25.008  14.505
32957W        W99388  30.378  25.605   1.328
32958W        W99389  28.897   4.333  13.401
32959W        W99390  32.613  25.172  12.514
32960W        W99391  10.066  13.915   3.219
32961W        W99392  11.358  14.582   4.497
32962W        W99393  35.625  25.802  14.430
32963W        W99394   4.630  18.835  12.131
32964W        W99395   3.391  27.740   1.812
32965W        W99396  33.862   6.413   3.233
32966W        W99397  10.690  34.141   0.358
32967W        W99398  15.721  29.913  11.765
32968W        W99399   3.359   7.960   4.169
32969W        W99400  31.678  21.260   3.062
32970W        W99401  40.351  21.594   4.449
32971W        W99402  20.002  29.426  13.022
32972W        W99403  13.280   5.124  13.341
32973W        W99404  10.272  15.625   2.148
32974W        W99405  24.287   4.924  12.402
32975W        W99406  32.644  34.572  12.446
32976W        W99407   9.322  34.262   1.199
32977W        W99408  21.240  40.283  12.430
32978W        W99409  39.854   8.341   3.889
32979W        W99410  32.819  27.906   2.207
32980W        W99411  34.356  39.382  14.216
32981W        W99412  29.022  40.489  13.948
32982W        W99413  10.726  25.065   4.287
32983W        W99414  33.150  23.452   2.306
32984W        W99415  18.577   0.408   4.878
32985W        W99416  24.343   0.846   4.552
32986W        W99417  19.478  11.789  11.925
32987W        W99418  13.930   5.740   3.701
32988W        W99419  24.150  19.945  13.706
32989W        W99420   1.674  11.252   3.503
32990W        W99421  44.221  21.370   4.645
32991W        W99422  33.644  26.491  11.203
32992W        W99423  38.021  40.970  11.981
32993W        W99424  20.189   9.247  13.361
32994W        W99425   6.441  25.661   2.148
32995W        W99426  31.428  30.016   0.973
32996W        W99427   5.209  26.482   2.928
32997W        W99428  35.517  35.466   2.214
32998W        W99429  27.200  20.017   2.726
32999W        W99430  41.067  21.806   0.781
33000W        W99431  25.654  34.792   1.375
33001W        W99432   5.544  13.704   5.029
33002W        W99433  23.086  27.047   3.986
33003W        W99434   2.592  22.756   0.708
33004W        W99435  29.564  37.371  10.681
33005W        W99436  36.534  23.821  12.230
33006W        W99437   5.425   9.708  13.816
33007W        W99438  30.841   9.096  13.980
33008W        W99439   0.606   7.811  11.730
33009W        W99440  14.668  16.348   1.792
33010W        W99441  41.373  41.311   1.849
33011W        W99442  36.521  31.696   4.350
33012W        W99443  23.935  17.763   3.098
33013W        W99444  23.724  29.331   2.122
33014W        W99445  15.667  21.547  12.870
33015W        W99446  13.709   6.532  12.418
33016W        W99447  35.237   5.445   2.115
33017W        W99448   6.126   5.931   1.000
33018W        W99449  34.373  20.786   2.586
33019W        W99450   5.581  15.057   4.206
33020W        W99451  18.680   8.319   4.217
33021W        W99452   2.272  17.711   2.500
33022W        W99453  29.505  35.088  11.627
33023W        W99454  31.323  15.214  12.911
33024W        W99455   3.760   3.131   4.102
33025W        W99456   0.764   6.890   0.241
33026W        W99457   0.214  31.739   4.207
33027W        W99458  39.341  10.636   2.835
33028W        W99459  41.438  21.108  11.975
33029W        W99460   8.790  26.007   1.843
33030W        W99461   3.483   3.672  12.025
33031W        W99462  21.015  11.193   4.050
33032W        W99463   7.433  12.165   1.284
33033W        W99464   7.926  19.964   9.940
33034W        W99465   1.987   1.087  11.124
33035W        W99466  36.846  15.268  14.904
33036W        W99467  15.027  30.974   4.215
33037W        W99468   3.740  13.609  10.851
33038W        W99469  33.672  17.448   1.787
33039W        W99470  19.269  30.664  12.081
33040W        W99471  39.886   5.118   1.925
33041W        W99472  43.353  22.219  12.086
33042W        W99473  24.733  41.336   4.002
33043W        W99474  26.675  31.007   3.804
33044W        W99475  35.353   0.445  10.803
33045W        W99476   1.909  15.734   0.490
33046W        W99477   4.154  26.470   4.723
33047W        W99478  24.023   8.652  12.749
33048W        W99479  12.612  10.588   4.246
33049W        W99480  15.698  11.373  10.684
33050W        W99481  38.061  22.344   2.816
33051W        W99482  32.427  14.177  14.767
33052W        W99483  18.098  37.559   1.776
33053W        W99484   8.821  43.774   2.294
33054W        W99485  36.847  25.009  13.455
33055W        W99486  23.820   0.951   2.803
33056W        W99487   4.171  44.459  12.024
33057W        W99488  39.517  25.561  13.328
33058W        W99489  44.901   7.713   2.284
33059W        W99490  11.327  20.420   2.848
33060W        W99491   9.285  29.087  10.726
33061W        W99492  13.756  17.182  10.653
33062W        W99493  26.541  27.992  14.111
33063W        W99494  27.130  10.667   3.612
33064W        W99495  12.181  36.949   3.343
33065W        W99496  24.726  34.686   3.202
33066W        W99497  19.950  24.295  11.883
33067W        W99498  37.267   9.934  14.347
33068W        W99499   6.935   6.951  10.720
33069W        W99500  42.993  24.447   0.066
33070W        W99501   2.936   7.916  12.606
33071W        W99502  34.948  30.415   0.796
33072W        W99503  39.992   7.157  14.092
33073W        W99504  11.150  34.456   0.960
33074W        W99505   6.994   6.961   3.150
33075W        W99506  32.642  30.437  11.453
33076W        W99507   2.553  24.776   1.324
33077W        W99508  39.069  24.238   0.428
33078W        W99509  13.211  32.423   3.667
33079W        W99510  11.439   6.038   0.873
33080W        W99511  30.611  12.889   2.695
33081W        W99512  18.080  21.677   4.877
33082W        W99513  31.935   8.923   1.711
33083W        W99514  12.891   4.425  12.052
33084W        W99515  18.415  26.005   1.166
33085W        W99516  22.603  14.347  12.508
33086W        W99517  38.542   4.305  12.348
33087W        W99518   6.271  28.027   0.560
33088W        W99519  20.498  43.130  12.381
33089W        W99520  28.286  33.417  10.342
33090W        W99521  16.351   1.372  12.180
33091W        W99522  29.402  40.429   3.726
33092W        W99523  18.945  11.679   0.702
33093W        W99524  16.079  12.624  11.083
33094W        W99525  29.451  26.313   1.904
33095W        W99526   0.952  44.891  14.875
33096W        W99527   0.807  11.555   2.415
33097W        W99528  14.038  10.661   5.019
33098W        W99529   7.045   1.384   1.449
33099W        W99530  24.630   0.185  14.076
33100W        W99531   9.203  32.636  14.884
33101W        W99532   7.317  15.133   4.507
33102W        W99533  24.230  38.170  14.058
33103W        W99534  25.376  12.190   1.233
33104W        W99535   7.154  12.051   0.369
33105W        W99536  13.157  19.591  13.604
33106W        W99537  40.499  33.281   4.176
33107W        W99538  41.551  36.436   3.469
33108W        W99539  19.345  23.374  13.908
33109W        W99540   7.274  41.055   0.725
33110W        W99541  16.611   3.199  12.039
33111W        W99542  12.445  14.020   4.808
33112W        W99543   3.941  33.499  10.738
33113W        W99544  42.462  13.591  11.224
33114W        W99545   5.974  38.876   0.665
33115W        W99546   9.818  12.804   0.142
33116W        W99547  37.912  27.035  14.518
33117W        W99548  21.080  20.947  12.994
33118W        W99549  26.168   3.892  10.711
33119W        W99550  21.743  34.797  11.471
33120W        W99551  19.834  24.716  11.628
33121W        W99552   7.983   9.461  13.407
33122W        W99553  17.781   2.411   4.664
33123W        W99554  34.955  44.743  13.793
33124W        W99555  25.645   1.206   2.857
33125W        W99556   3.877  18.724  14.382
33126W        W99557  23.766  17.746  13.644
33127W        W99558  35.643  14.821  12.176
33128W        W99559  30.543  15.194   2.071
33129W        W99560  31.105  23.242   2.695
33130W        W99561   0.770   8.235   3.589
33131W        W99562  14.864  25.972   1.467
33132W        W99563  32.634  28.232  12.586
33133W        W99564   9.676  23.863  13.949
33134W        W99565  43.585   9.585   2.779
33135W        W99566  35.622   2.837  14.536
33136W        W99567  11.669  25.566   3.151
33137W        W99568  19.101  41.674   3.095
33138W        W99569  11.891   6.428   2.362
33139W        W99570  44.968  19.056  12.481
33140W        W99571   3.387  22.349  12.538
33141W        W99572  41.293  12.689  13.884
33142W        W99573  11.222  42.072   4.549
33143W        W99574  33.318  44.119  10.488
33144W        W99575  22.884   3.689  12.481
33145W        W99576  19.607  27.709   9.757
33146W        W99577  22.242  13.427   1.922
33147W        W99578  33.625   8.420   5.034
33148W        W99579   0.640  24.422   4.932
33149W        W99580  10.141  33.501  14.842
33150W        W99581  41.571  17.638   4.259
33151W        W99582  32.734  29.945  12.210
33152W        W99583  19.809  11.228   3.683
33153W        W99584  35.290  37.028  11.195
33154W        W99585   7.925  27.616  13.002
33155W        W99586  26.445  34.168  10.813
33156W        W99587  37.823  34.134  14.813
33157W        W99588   3.246  35.663   2.693
33158W        W99589  13.705  15.046   1.221
33159W        W99590  24.603  16.212  10.653
33160W        W99591  41.908  19.721   0.778
33161W        W99592  40.249  29.113   3.868
33162W        W99593   4.728  36.120  12.071
33163W        W99594  35.543  14.167  11.640
33164W        W99595   6.320  10.969   3.398
33165W        W99596   8.947  42.107  14.855
33166W        W99597  33.364  44.649   0.879
33167W        W99598  41.484  28.667   4.020
33168W        W99599   2.268   5.864  12.873
33169W        W99600  29.601  37.132   1.418
33170W        W99601  31.876  16.962  12.479
33171W        W99602  27.126   9.178  14.346
33172W        W99603  44.029  19.533  14.684
33173W        W99604  20.515  39.502  13.007
33174W        W99605   8.859  10.234  11.147
33175W        W99606  22.984   2.351   0.494
33176W        W99607   4.225   2.195   4.980
33177W        W99608  19.260  29.310  10.743
33178W        W99609  30.576  24.559   1.882
33179W        W99610  32.107  27.201  12.903
33180W        W99611   7.751   1.656   3.941
33181W        W99612  27.871   8.406  13.479
33182W        W99613  25.199  21.223   3.194
33183W        W99614  12.587  26.666   4.121
33184W        W99615  41.418  33.084  12.308
33185W        W99616  21.537  28.347  14.781
33186W        W99617   4.770  19.654  12.808
33187W        W99618  43.533   1.395   0.206
33188W        W99619   4.314   3.842   1.273
33189W        W99620   6.355  29.487   4.547
33190W        W99621  14.098  36.080   0.643
33191W        W99622   3.301  14.893  11.119
33192W        W99623   1.449  34.148   2.416
33193W        W99624   5.923  40.534   2.773
33194W        W99625  44.774  40.040  11.108
33195W        W99626   0.301  16.131   4.414
33196W        W99627  33.107   9.205  10.590
33197W        W99628  36.828  32.845   5.034
33198W        W99629  38.864   6.647  10.469
33199W        W99630  21.530  26.665   2.965
33200W        W99631   9.891  37.812   0.965
33201W        W99632  12.630   0.313  11.076
33202W        W99633  20.541  23.234  11.038
33203W        W99634   3.355  23.523  11.627
33204W        W99635  23.340  21.513  14.805
33205W        W99636  38.238  43.292  12.433
33206W        W99637  42.868  33.197  13.608
33207W        W99638   1.859  17.033  10.741
33208W        W99639  31.443  23.941  10.788
33209W        W99640  11.874  12.310   2.794
33210W        W99641  33.812   5.891  13.021
33211W        W99642   9.935  25.762   1.285
33212W        W99643  35.982   3.524  14.383
33213W        W99644  30.650  27.358   2.056
33214W        W99645  26.386   8.857  11.619
33215W        W99646  24.814   4.189  11.905
33216W        W99647  31.608  10.828   1.219
33217W        W99648  37.479  36.649   0.221
33218W        W99649  33.138  15.146  10.446
33219W        W99650  21.182  43.503   5.313
33220W        W99651  28.463  13.684   0.333
33221W        W99652   0.445  44.760  11.530
33222W        W99653   9.586  21.104   2.954
33223W        W99654  41.747  16.467  10.214
33224W        W99655  29.395  19.482  11.215
33225W        W99656  13.103  39.530   4.202
33226W        W99657  37.760  35.117  14.539
33227W        W99658  25.878  43.289   0.351
33228W        W99659  27.176   2.251   4.024
33229W        W99660  28.906  39.882   3.160
33230W        W99661  35.135  27.795   1.961
33231W        W99662  39.558  11.138  14.008
33232W        W99663  39.280  32.839  13.172
33233W        W99664  42.313  44.397  12.920
33234W        W99665  12.687   9.360  13.131
33235W        W99666  39.055  20.996   3.583
33236W        W99667   7.179  29.648   0.299
33237W        W99668  15.769  42.841   5.267
33238W        W99669  40.383  25.267   4.126
33239W        W99670  27.779  13.400   2.750
33240W        W99671  41.071  35.958   2.791
33241W        W99672   6.709  20.476  14.858
33242W        W99673  22.164   8.268   4.868
33243W        W99674  44.944  40.891   0.123
33244W        W99675   0.898  17.200   5.097
33245W        W99676  39.803  34.991  11.620
33246W        W99677   3.964  40.439   4.074
33247W        W99678  35.591  29.151  10.676
33248W        W99679  22.911   0.980   3.251
33249W        W99680  40.333  12.326  12.068
33250W        W99681  26.569  35.008  12.149
33251W        W99682  30.506  34.953  13.675
33252W        W99683  28.216  19.128   4.794
33253W        W99684  30.435  14.932  12.078
33254W        W99685  13.430  44.352  13.821
33255W        W99686  40.018  38.931  13.309
33256W        W99687  15.183   6.886  11.266
33257W        W99688  35.462  20.206   4.709
33258W        W99689  35.439  20.888   3.573
33259W        W99690  29.902   8.146   3.160
33260W        W99691  40.256   1.000   0.410
33261W        W99692  43.716   5.001   2.701
33262W        W99693   6.456  24.899  11.951
33263W        W99694   2.470  20.347   1.356
33264W        W99695   1.142  15.122  12.402
33265W        W99696  17.942  30.512  11.816
33266W        W99697  36.912  38.109  11.762
33267W        W99698  44.956  26.009   4.750
33268W        W99699  43.397   1.219   4.458
33269W        W99700  33.451  39.509  10.537
33270W        W99701  26.933   1.879   2.221
33271W        W99702  19.677   9.784  10.979
33272W        W99703   0.651  23.935   2.554
33273W        W99704  30.181  17.055   0.821
33274W        W99705   0.717  29.307   2.280
33275W        W99706  13.174  29.063   3.290
33276W        W99707   4.901  23.527  12.605
33277W        W99708  36.954  43.702   3.091
33278W        W99709  41.065  41.335   3.633
33279W        W99710  35.151  44.281  13.973
33280W        W99711  40.474  33.286   1.816
33281W        W99712  31.829  43.199  12.614
33282W        W99713  13.733   0.462   2.031
33283W        W99714  44.216   9.743  14.025
33284W        W99715  19.718   8.100  10.783
33285W        W99716  33.555   4.452  12.913
33286W        W99717  28.903   9.380   2.192
33287W        W99718  39.948  15.401   1.278
33288W        W99719   1.772   5.992   1.822
33289W        W99720  41.395   9.586  12.346
33290W        W99721  40.479   6.311  11.699
33291W        W99722  18.793  28.651   4.272
33292W        W99723  23.188  36.950  12.172
33293W        W99724  44.887  35.277   0.967
33294W        W99725  35.925  44.323   1.900
33295W        W99726  44.243   3.570  13.961
33296W        W99727  21.479  28.629  13.852
33297W        W99728  22.399  16.451  13.461
33298W        W99729  14.206  15.160  12.082
33299W        W99730  18.633  17.102  12.993
33300W        W99731  27.728  21.611  12.403
33301W        W99732  12.778  42.996   4.572
33302W        W99733  30.499  29.488  11.908
33303W        W99734  29.590  39.828   1.852
33304W        W99735   4.342  43.393   1.986
33305W        W99736  19.744  19.251  10.740
33306W        W99737  37.413  30.923  14.966
33307W        W99738   6.739  22.507  12.004
33308W        W99739  26.890  10.899  13.930
33309W        W99740  28.432  13.889   4.035
33310W        W99741  13.213  44.767  12.370
33311W        W99742  24.931  37.508  14.190
33312W        W99743  21.943  40.991   4.206
33313W        W99744  44.156  14.196   0.503
33314W        W99745  29.049  23.006  11.605
33315W        W99746  29.421  26.783  14.409
33316W        W99747   3.212  31.069   2.870
33317W        W99748  10.778  26.890   4.522
33318W        W99749   5.830  37.014  14.459
33319W        W99750  31.070  33.071  11.239
33320W        W99751  40.344  11.897   2.898
33321W        W99752  37.854  36.932   1.432
33322W        W99753  40.511   3.276   9.913
33323W        W99754  13.659   1.742   3.298
33324W        W99755  17.555  36.392  14.328
33325W        W99756   9.834  29.673  12.019
33326W        W99757   2.536  28.059   3.681
33327W        W99758  10.855  10.543   4.430
33328W        W99759  44.736  39.843   4.181
33329W        W99760  12.540  42.857   3.679
33330W        W99761  36.982  30.900  13.512
33331W        W99762  29.663  30.223   1.874
33332W        W99763  26.792  11.828   1.422
33333W        W99764   0.757  15.877   1.457
33334W        W99765  41.031  23.236   3.655
33335W        W99766  41.342   6.643  12.125
33336W        W99767  30.436   1.841  13.902
33337W        W99768  29.719  23.484  14.871
33338W        W99769  28.187  40.764   4.938
33339W        W99770   3.878  43.674  11.639
33340W        W99771   3.221   4.368   4.216
33341W        W99772  39.072   0.997  14.922
33342W        W99773  34.483   6.498  14.738
33343W        W99774   9.840  41.023   2.694
33344W        W99775  13.936  13.094   0.301
33345W        W99776  29.425  21.659   3.214
33346W        W99777  14.685   8.325  10.739
33347W        W99778  28.126   5.006   3.311
33348W        W99779  32.820  26.709  11.016
33349W        W99780  34.168   9.100   3.673
33350W        W99781  38.624  27.134   2.354
33351W        W99782   3.119  35.097   0.971
33352W        W99783   0.190  37.384  12.904
33353W        W99784  25.885  21.498  13.906
33354W        W99785  10.979  30.483  11.444
33355W        W99786  42.773  37.483  12.445
33356W        W99787  32.071  11.282   4.645
33357W        W99788  12.856  15.172  13.636
33358W        W99789   4.378  29.696   1.758
33359W        W99790  27.502   8.007  13.404
33360W        W99791   7.435  28.621   2.244
33361W        W99792  15.807  33.331   2.122
33362W        W99793  28.070  21.516  14.703
33363W        W99794  36.772   9.393  11.543
33364W        W99795  19.034  18.431  14.445
33365W        W99796  42.124  35.430   1.178
33366W        W99797  41.414  18.595   4.124
33367W        W99798  40.533  34.381  14.746
33368W        W99799  13.714  17.156  13.152
33369W        W99800  16.046   9.607  14.828
33370W        W99801  13.424  42.671  11.611
33371W        W99802  40.035   5.412  13.331
33372W        W99803  36.022  19.615  14.814
33373W        W99804   8.488  22.329   0.811
33374W        W99805  11.691  19.669  14.857
33375W        W99806  11.850  23.448  11.494
33376W        W99807   5.421  36.416  11.127
33377W        W99808  18.222  27.140   0.451
33378W        W99809  18.315   0.999  13.134
33379W        W99810  32.043  36.393   4.893
33380W        W99811  37.300  30.957   1.960
33381W        W99812  38.599   5.279  13.795
33382W        W99813   4.827   6.162   3.530
33383W        W99814  25.203  17.129   1.885
33384W        W99815  32.055  35.146  14.852
33385W        W99816   9.719  39.578   4.905
33386W        W99817  44.016  17.593  14.775
33387W        W99818  42.325   9.717   0.351
33388W        W99819  44.568  31.019  14.829
33389W        W99820  26.719  17.380   4.560
33390W        W99821  31.090  44.832  12.834
33391W        W99822  39.036  18.110  10.303
33392W        W99823  30.610  20.800  11.167
33393W        W99824  42.776  16.211   2.227
33394W        W99825  31.415  37.197  11.425
33395W        W99826   8.707  10.158  14.745
33396W        W99827   4.404  27.542  14.466
33397W        W99828  44.775  42.831   3.567
33398W        W99829  24.227  35.636  11.508
33399W        W99830  10.181   6.649   1.651
33400W        W99831  43.450   7.354   4.778
33401W        W99832  38.068  41.732   0.621
33402W        W99833  29.400   8.190   3.210
33403W        W99834  43.270  40.520  14.872
33404W        W99835  25.920  41.888   2.158
33405W        W99836  44.473  11.013  11.113
33406W        W99837  18.516  33.592  12.908
33407W        W99838  35.765  10.772   4.464
33408W        W99839  27.611   8.407  13.004
33409W        W99840  27.044   5.258  11.148
33410W        W99841  17.300  28.831  10.703
33411W        W99842  26.692  25.212   2.829
33412W        W99843  30.099  12.381   4.306
33413W        W99844  27.394   4.283  14.345
33414W        W99845   8.196  16.641  12.905
33415W        W99846  21.846  32.419  11.548
33416W        W99847  13.772   0.650  12.536
33417W        W99848  36.435  38.464  14.847
33418W        W99849   8.078   1.287   4.074
33419W        W99850   6.578  15.075  13.935
33420W        W99851  19.428   6.659  11.489
33421W        W99852   9.556  39.938  10.669
33422W        W99853  33.084  19.073  14.892
33423W        W99854  36.409  21.741  14.420
33424W        W99855  23.267  24.722  11.727
33425W        W99856  16.199  27.847  11.968
33426W        W99857  37.093   8.915   2.385
33427W        W99858  21.979  35.913   5.065
33428W        W99859   2.443   8.749  10.651
33429W        W99860  35.586  35.036  11.650
33430W        W99861   9.339  22.607  13.629
33431W        W99862  35.123  18.377  10.829
33432W        W99863   2.458   9.137  11.154
33433W        W99864   0.833  40.102   1.327
33434W        W99865  31.327  20.271  11.300
33435W        W99866  42.587  28.432   0.109
33436W        W99867  39.556  13.590   3.768
33437W        W99868  28.457  15.827  13.615
33438W        W99869  26.922  20.546   0.015
33439W        W99870   8.668  43.352  14.042
33440W        W99871  32.019  44.739  14.975
33441W        W99872  10.790  39.099  14.287
33442W        W99873   2.099  18.290   1.884
33443W        W99874  13.146  28.950  11.869
33444W        W99875  36.451  25.594  11.636
33445W        W99876  43.977  42.981   0.010
33446W        W99877  40.423   9.828   3.832
33447W        W99878  14.596  26.102   5.455
33448W        W99879  24.028   9.706  12.583
33449W        W99880  33.536  13.199   2.954
33450W        W99881   8.953  26.437  11.154
33451W        W99882  20.288   1.421  14.089
33452W        W99883  22.490   0.564   4.147
33453W        W99884  41.588   1.808  12.693
33454W        W99885  26.050   8.371   0.302
33455W        W99886  25.883   0.921  12.571
33456W        W99887  24.944  33.450   1.630
33457W        W99888   6.483   4.919  12.996
33458W        W99889  23.960  28.359   4.597
33459W        W99890  44.015  28.581  12.967
33460W        W99891  42.781  17.187   1.294
33461W        W99892  25.257   0.835  10.714
33462W        W99893  38.437  16.778   3.643
33463W        W99894  31.030   3.810   3.033
33464W        W99895  23.092   9.778   2.574
33465W        W99896  42.401  38.474   2.832
33466W        W99897  37.203  36.138   0.953
33467W        W99898  20.576  28.075   4.753
33468W        W99899  27.428   9.320  12.474
33469W        W99900  15.186  35.118   0.345
33470W        W99901  22.819  10.218  13.925
33471W        W99902  21.523  21.590   0.469
33472W        W99903  20.570  33.653  11.688
33473W        W99904  16.195  19.723   1.796
33474W        W99905  40.999  25.054  12.092
33475W        W99906  34.999  44.740   3.549
33476W        W99907  22.767  35.888  12.886
33477W        W99908  24.895  21.796   4.255
33478W        W99909  21.564  22.499  11.533
33479W        W99910  18.816   0.729  11.992
33480W        W99911  35.400  30.711  14.811
33481W        W99912  28.038   6.718   2.925
33482W        W99913  22.630  35.450  10.702
33483W        W99914  30.751  17.621   2.135
33484W        W99915  44.492   7.875  12.437
33485W        W99916  14.732  29.158  12.730
33486W        W99917  42.939  21.213  10.567
33487W        W99918  32.148   8.736  12.057
33488W        W99919  40.429  14.219  10.103
33489W        W99920  39.732  26.967   0.442
33490W        W99921   2.484   0.092  13.452
33491W        W99922  33.492  11.722  13.355
33492W        W99923  33.525  23.434  14.968
33493W        W99924  35.146  40.815   3.276
33494W        W99925  23.730  14.518   1.430
33495W        W99926  11.351  30.185  13.801
33496W        W99927  15.692  11.238  14.858
33497W        W99928   8.130  20.811  13.058
33498W        W99929  17.698   0.904  11.435
33499W        W99930  29.287  22.730   4.174
33500W        W99931  17.840  34.580   3.288
33501W        W99932  18.676  23.692  13.573
33502W        W99933  35.595  16.160   3.667
33503W        W99934  39.590  31.965   0.039
33504W        W99935  40.468   8.962  13.867
33505W        W99936   8.655   9.768   0.442
33506W        W99937  36.414  23.208   2.636
33507W        W99938  22.526  22.131  12.115
33508W        W99939  18.917   7.257   0.267
33509W        W99940  18.285  31.019   3.606
33510W        W99941  27.167  43.365  13.460
33511W        W99942   8.074  34.524   9.769
33512W        W99943  24.662   9.525  12.053
33513W        W99944   5.114  24.149  11.935
33514W        W99945  16.490  22.723   4.166
33515W        W99946  34.690  35.559  10.523
33516W        W99947  41.108   0.203   0.698
33517W        W99948  14.784  30.017   4.614
33518W        W99949  29.963  42.982  14.951
33519W        W99950  29.551  13.504  13.037
33520W        W99951  19.767  11.787  14.927
33521W        W99952   6.815   9.295   0.395
33522W        W99953  37.522   3.051   3.606
33523W        W99954   2.804  27.249  14.003
33524W        W99955  21.724  21.733  12.893
33525W        W99956  41.920  25.942   3.709
33526W        W99957  27.948  18.595  10.347
33527W        W99958   4.653  17.705  14.833
33528W        W99959  35.436  24.153  13.728
33529W        W99960  40.600  30.880  14.413
33530W        W99961   4.947  31.794  13.879
33531W        W99962  14.683  33.597  10.860
33532W        W99963   9.267  21.558   4.071
33533W        W99964   3.266   4.272   3.698
33534W        W99965   4.890  39.330  13.514
33535W        W99966  18.541  22.020  13.015
33536W        W99967  27.823  22.930  12.039
33537W        W99968  25.746  28.571   3.396
33538W        W99969  28.643  41.959  13.099
33539W        W99970  29.914  18.857   1.214
33540W        W99971  16.617  37.933  14.206
33541W        W99972  28.292  40.424   1.528
33542W        W99973  28.064   2.816  11.574
33543W        W99974   3.748  41.038  11.905
33544W        W99975   1.604  30.518   4.044
33545W        W99976  36.042   5.938   1.317
33546W        W99977   0.878  37.546   2.608
33547W        W99978  11.966  19.831   3.193
33548W        W99979  42.128  27.195  11.521
33549W        W99980  15.202  22.961  13.480
33550W        W99981  19.259  10.685  13.450
33551W        W99982   4.121   9.173   0.828
33552W        W99983   3.423  15.262   4.076
33553W        W99984  26.869   7.281   2.800
33554W        W99985  12.952   3.762   4.805
33555W        W99986  24.205  39.040  11.617
33556W        W99987   8.608  21.643  12.165
33557W        W99988   1.234   5.396   2.732
33558W        W99989  14.979  27.615   1.723
33559W        W99990  20.545  11.173   1.994
33560W        W99991  29.766  38.227  12.178
33561W        W99992  23.792  23.048   4.704
33562W        W99993  44.834  15.672   4.598
33563W        W99994  41.999  36.287  13.752
33564W        W99995  25.769  28.518  12.907
33565W        W99996  23.584  15.867   1.694
33566W        W99997   4.935  44.775   4.906
33567W        W99998   7.983  26.183   3.013
33568W        W99999  20.259  18.289   3.241
33569W        W    0  18.609  25.054  14.339
33570W        W    1  13.615  32.688   1.291
33571W        W    2  23.553  10.619   3.745
33572W        W    3  44.883  12.834  11.663
33573W        W    4  40.525  34.044   0.154
33574W        W    5  14.216   0.354  11.603
33575W        W    6  20.165  15.251   5.492
33576W        W    7  12.654  22.991   0.703
33577W        W    8  15.572  29.060   1.247
33578W        W    9   8.548  10.275  13.131
33579W        W   10  17.746  17.217   1.700
33580W        W   11  15.438  31.990   3.611
33581W        W   12  13.347  27.126   3.704
33582W        W   13  19.615  23.810   2.739
33583W        W   14  21.751  32.221   3.352
33584W        W   15   1.808  44.136   4.081
33585W        W   16  30.581  24.326   2.352
33586W        W   17  30.552  19.233  14.306
33587W        W   18   4.881  28.996   2.834
33588W        W   19   1.890  23.782  14.362
33589W        W   20   8.771  34.607   0.270
33590W        W   21  37.391  41.941  13.551
33591W        W   22  33.543  22.324  12.589
33592W        W   23  28.411  24.332   4.247
33593W        W   24  37.846  38.519   2.348
33594W        W   25  13.138   6.619  13.451
33595W        W   26  22.075  23.741   1.327
33596W        W   27   0.732  10.236   3.053
33597W        W   28  33.771  42.230   4.435
33598W        W   29   3.174  43.333   0.019
33599W        W   30  18.082  21.864  10.760
33600W        W   31   7.820   2.532  12.563
33601W        W   32  16.552  11.790  11.054
33602W        W   33   7.950  23.718   4.140
33603W        W   34  13.522  14.059  13.320
33604W        W   35  38.775  20.108   1.370
33605W        W   36  21.373  22.230   4.611
33606W        W   37  31.811  30.233   2.809
33607W        W   38  32.044  29.298  11.006
33608W        W   39  34.265  32.614   2.674
33609W        W   40  33.512  16.469   3.686
33610W        W   41   6.244  37.980   3.205
33611W        W   42   1.755  41.529   2.543
33612W        W   43  22.002  11.531   0.299
33613W        W   44  23.430  37.992  12.945
33614W        W   45  21.465   4.019   0.460
33615W        W   46   0.011  34.917   1.371
33616W        W   47  13.904   9.938   0.404
33617W        W   48   1.253  30.998   0.462
33618W        W   49  31.603  42.288   1.363
33619W        W   50  28.169   9.302   1.341
33620W        W   51  38.351  19.685   3.187
33621W        W   52  41.327  36.964   2.810
33622W        W   53  33.718  44.284   0.872
33623W        W   54   5.387  36.548   2.361
33624W        W   55  20.989   5.909  12.993
33625W        W   56   4.467  23.655   2.704
33626W        W   57   8.650   1.720  11.672
33627W        W   58  19.750   1.222   3.139
33628W        W   59   7.263  39.335  10.487
33629W        W   60  42.884  15.383  11.222
33630W        W   61  21.045  44.596   2.235
33631W        W   62   6.120  36.969   0.332
33632W        W   63   2.765  32.341   2.836
33633W        W   64  44.436   0.416  13.462
33634W        W   65  37.574  40.061   4.612
33635W        W   66  16.695  33.527  13.426
33636W        W   67  37.025  35.636  11.202
33637W        W   68  16.600  37.944   1.453
33638W        W   69  33.287   9.257  12.003
33639W        W   70  36.163   1.461   4.368
33640W        W   71   1.611   2.065   5.012
33641W        W   72  33.659  24.139   0.641
33642W        W   73  22.855  13.975  11.219
33643W        W   74  36.786  26.513   0.404
33644W        W   75  12.104  38.546   4.063
33645W        W   76  33.375   1.885   1.002
33646W        W   77  21.175  30.725  12.897
33647W        W   78  15.700  21.737  13.915
33648W        W   79   4.128   9.659  13.866
33649W        W   80  19.804  24.160   1.275
33650W        W   81  12.758  12.411   3.845
33651W        W   82  35.699  34.476  11.998
33652W        W   83  14.809   5.956   1.326
33653W        W   84  21.805  23.170  13.816
33654W        W   85  34.340   9.937   3.643
33655W        W   86   9.307  20.597   2.586
33656W        W   87  37.181  37.185   9.819
33657W        W   88  29.210  32.167   3.632
33658W        W   89  17.004   8.734   0.690
33659W        W   90  21.690  29.538  14.403
33660W        W   91  28.658   2.440  12.207
33661W        W   92  36.752  18.185  11.188
33662W        W   93  21.704  13.164   3.385
33663W        W   94  31.916  30.534   3.263
33664W        W   95   4.759  14.378   0.957
33665W        W   96  17.392  37.718  14.779
33666W        W   97  43.989  33.303  12.032
33667W        W   98  43.253  20.179   1.896
33668W        W   99  43.127  16.721  14.587
33669W        W  100  36.994  22.863   3.306
33670W        W  101  16.110  30.241  11.919
33671W        W  102  12.218  16.788  12.549
33672W        W  103  37.569  14.253   0.521
33673W        W  104  16.867  18.525   3.691
33674W        W  105  13.378  14.686   1.412
33675W        W  106  36.670  30.462   0.541
33676W        W  107   5.004  38.019  11.900
33677W        W  108  39.087  12.340   1.167
33678W        W  109  18.372  18.583   3.552
33679W        W  110  22.631   8.445   2.123
33680W        W  111  37.373  33.673   4.651
33681W        W  112  21.646  12.893   2.881
33682W        W  113  20.506   2.580   1.929
33683W        W  114   6.414  38.562   0.834
33684W        W  115  27.007  17.657   3.681
33685W        W  116  10.306  24.125   1.281
33686W        W  117  33.028  20.543   4.298
33687W        W  118  43.750  34.671  14.422
33688W        W  119  24.231  38.480   2.776
33689W        W  120  41.019  28.607   4.793
33690W        W  121  34.492  26.473  10.243
33691W        W  122  15.337  40.710   1.656
33692W        W  123  36.608   3.194  12.840
33693W        W  124   7.213  39.504  13.837
33694W        W  125   4.805  35.960  13.386
33695W        W  126   5.449  26.721  14.899
33696W        W  127   3.625  18.771  13.889
33697W        W  128  36.136  36.449   3.769
33698W        W  129  43.231  23.975   1.853
33699W        W  130  14.289   7.788   3.827
33700W        W  131   2.379   7.736  13.898
33701W        W  132  18.507  38.466   4.129
33702W        W  133  18.561  26.492  12.920
33703W        W  134  19.196   7.843   3.261
33704W        W  135  10.833  33.624   0.339
33705W        W  136  31.939  41.971  11.192
33706W        W  137  40.452   3.181  13.416
33707W        W  138   0.498  32.216   4.274
33708W        W  139  29.430   3.328   0.286
33709W        W  140  42.745   8.410   0.320
33710W        W  141  28.266  29.615  12.020
33711W        W  142  12.303  28.988   2.618
33712W        W  143  22.156  26.729  11.546
33713W        W  144   8.314  32.584   2.691
33714W        W  145  38.129   0.295   0.404
33715W        W  146  40.585   8.196   3.302
33716W        W  147  23.168   2.270   1.474
33717W        W  148  12.729  32.112  11.394
33718W        W  149  14.175   1.016   2.395
33719W        W  150  42.853  29.900   1.210
33720W        W  151  18.826  22.633   3.871
33721W        W  152  10.317   9.378   2.706
33722W        W  153  44.353  19.907   3.719
33723W        W  154  41.826  38.413  11.880
33724W        W  155  12.038  30.322  12.139
33725W        W  156  23.468  39.434   3.250
33726W        W  157  23.354  37.948   0.313
33727W        W  158  31.705  10.496   2.653
33728W        W  159  14.334  27.937   4.104
33729W        W  160  38.904  24.742   3.703
33730W        W  161  16.899  42.446   3.297
33731W        W  162   7.288  19.520  11.243
33732W        W  163  42.305  13.080  14.940
33733W        W  164   7.906   9.147   2.430
33734W        W  165  26.272  15.798   1.998
33735W        W  166  32.919   0.265  10.702
33736W        W  167   4.641  11.136   3.286
33737W        W  168  15.191   7.211  13.996
33738W        W  169  12.683   3.469   3.954
33739W        W  170  12.489  34.448  11.101
33740W        W  171  38.424  23.652   2.411
33741W        W  172  17.493  34.795  14.087
33742W        W  173  35.023  39.469   1.429
33743W        W  174  39.369  36.838  11.163
33744W        W  175  28.341   8.136   4.054
33745W        W  176  12.208   7.576  11.196
33746W        W  177  35.005  21.524   4.023
33747W        W  178   1.237  42.462   1.032
33748W        W  179  30.367  32.094  11.598
33749W        W  180   3.635  16.448   1.494
33750W        W  181  23.530  14.551   3.305
33751W        W  182  36.066  43.829   3.242
33752W        W  183  18.216  19.948   0.329
33753W        W  184   3.116  28.105  10.447
33754W        W  185   3.661  23.189   0.430
33755W        W  186   9.114  42.793  14.357
33756W        W  187  11.383   3.022  10.979
33757W        W  188  11.088  16.030   4.875
33758W        W  189  31.118  21.673   1.624
33759W        W  190  38.008   9.030  12.115
33760W        W  191  14.647   3.212  14.771
33761W        W  192  30.954  29.237  12.051
33762W        W  193  11.672  41.023  11.839
33763W        W  194   7.250  38.972  13.165
33764W        W  195   9.607  30.026  12.927
33765W        W  196  28.920   0.753   4.136
33766W        W  197  37.917  43.461  12.888
33767W        W  198  41.755  15.682   3.128
33768W        W  199  25.123  14.163   0.454
33769W        W  200  36.057  16.556  12.508
33770W        W  201   9.591   8.173  14.911
33771W        W  202  17.255  11.563   3.102
33772W        W  203  24.763  33.308   0.787
33773W        W  204   3.014   0.548   1.499
33774W        W  205  32.820  36.791   2.858
33775W        W  206  20.237  14.669  11.225
33776W        W  207  15.887  26.921  13.580
33777W        W  208  16.386  21.733   0.857
33778W        W  209  20.273  14.344   0.930
33779W        W  210  33.620  24.013   1.648
33780W        W  211  28.851  35.841   4.343
33781W        W  212  27.392  32.501  12.134
33782W        W  213  19.606  32.634   0.393
33783W        W  214  28.271  24.094  11.498
33784W        W  215  43.360   8.834   0.240
33785W        W  216  32.521  12.288  12.593
33786W        W  217  15.321  38.000  12.578
33787W        W  218  28.136   0.502  11.249
33788W        W  219   1.498  22.793  11.210
33789W        W  220  24.709  22.241  14.990
33790W        W  221  31.112  11.403  11.061
33791W        W  222   2.891  26.274   4.308
33792W        W  223  35.855  25.301   1.707
33793W        W  224  12.630  35.190   4.140
33794W        W  225   3.003  20.682   4.822
33795W        W  226  16.442  23.032  13.332
33796W        W  227  44.460  27.671  11.980
33797W        W  228  27.295   0.407   1.397
33798W        W  229  19.101  12.828   1.336
33799W        W  230  19.091  40.403  12.152
33800W        W  231   8.871  35.795   2.719
33801W        W  232   4.833   6.998   2.605
33802W        W  233  23.245  27.188   2.567
33803W        W  234  40.146  23.862   2.549
33804W        W  235  39.314  36.820   4.124
33805W        W  236   0.839   4.343   4.841
33806W        W  237   5.796  35.738   4.194
33807W        W  238  17.833  25.985   4.207
33808W        W  239   4.122  30.384  11.161
33809W        W  240  13.408   5.966   0.228
33810W        W  241   4.795  40.407   3.396
33811W        W  242  11.590  25.060  10.739
33812W        W  243   3.669  24.380  12.947
33813W        W  244  10.790  16.356  13.721
33814W        W  245  13.899  35.784  12.881
33815W        W  246   3.135  34.373  12.137
33816W        W  247  19.007  38.435  10.992
33817W        W  248   0.021  36.940  11.386
33818W        W  249  24.559  25.304   0.044
33819W        W  250  43.855  33.076   1.925
33820W        W  251  33.122  19.589   3.645
33821W        W  252   1.612  39.814  12.403
33822W        W  253  20.783  29.708   0.832
33823W        W  254   9.133  37.018  11.524
33824W        W  255  14.792  19.806   3.124
33825W        W  256  31.483  33.239  12.337
33826W        W  257  21.965  40.821  13.113
33827W        W  258  23.975  27.187   1.853
33828W        W  259  43.370  27.148   2.155
33829W        W  260  21.884  13.235  10.802
33830W        W  261  33.357  41.974   3.218
33831W        W  262  44.353  18.292  14.270
33832W        W  263  44.064  31.096  14.898
33833W        W  264  43.894   3.814  11.502
33834W        W  265  21.203  38.222  11.086
33835W        W  266  38.231  29.855   3.778
33836W        W  267   0.981  17.716  11.396
33837W        W  268   1.192  22.933  11.968
33838W        W  269  33.506   7.765   0.381
33839W        W  270  16.039  29.683   0.319
33840W        W  271  29.648  15.795  14.945
33841W        W  272   4.179  16.822  10.354
33842W        W  273  39.451  27.008   4.651
33843W        W  274  19.599  42.848  12.100
33844W        W  275  13.270   3.952   3.410
33845W        W  276  36.487  44.201   2.671
33846W        W  277  23.712  14.218   5.074
33847W        W  278  33.426  37.285   3.379
33848W        W  279  30.820   7.283  13.845
33849W        W  280   9.805  40.823   1.812
33850W        W  281   8.920  41.425   3.928
33851W        W  282  10.719  27.650   1.521
33852W        W  283  36.889  17.790  13.485
33853W        W  284  22.861  41.895   0.013
33854W        W  285   4.966  39.718   0.836
33855W        W  286  31.623  19.664   0.439
33856W        W  287  38.924  44.727  12.116
33857W        W  288  44.094  23.603   3.270
33858W        W  289  20.133  29.324   1.753
33859W        W  290  23.680   5.275  11.858
33860W        W  291  13.636  17.341   0.435
33861W        W  292  27.595  27.494   0.370
33862W        W  293  35.693  11.588  13.513
33863W        W  294  38.232   1.507   3.702
33864W        W  295  42.574  20.161  13.304
33865W        W  296   4.743  38.419   0.206
33866W        W  297  34.617  19.490  11.168
33867W        W  298  29.956  44.692  11.511
33868W        W  299  25.447   0.452  11.027
33869W        W  300  44.051  43.419  14.032
33870W        W  301  18.200  44.044  13.830
33871W        W  302   1.801  12.639   4.603
33872W        W  303  41.178  40.376  12.962
33873W        W  304  37.030  41.878  11.545
33874W        W  305   0.062  29.067  14.428
33875W        W  306   3.243   2.359   1.469
33876W        W  307   2.736  37.719  14.798
33877W        W  308  15.243   6.340   2.620
33878W        W  309  12.394  19.048  14.997
33879W        W  310  38.374  29.361  11.189
33880W        W  311  11.394   4.355   4.696
33881W        W  312  23.573  36.211  11.058
33882W        W  313   0.940   2.397   3.390
33883W        W  314  19.062  15.760   3.587
33884W        W  315  31.045   0.781  13.269
33885W        W  316  14.525  40.724  14.044
33886W        W  317  29.421  14.377  14.933
33887W        W  318  34.681  38.406   3.067
33888W        W  319  20.329  44.696   4.412
33889W        W  320  43.493  42.625  14.045
33890W        W  321   3.022   0.756   0.334
33891W        W  322  10.424   2.266  13.048
33892W        W  323  32.408  36.872   3.122
33893W        W  324  31.296  34.119  12.195
33894W        W  325  39.146  13.501  14.858
33895W        W  326   7.311  25.437  14.924
33896W        W  327  30.714  36.465   4.091
33897W        W  328  32.163  31.097   3.041
33898W        W  329  12.668  20.217  11.134
33899W        W  330  12.586  25.062   4.497
33900W        W  331   3.043  21.686  11.574
33901W        W  332  27.496   1.627   3.640
33902W        W  333   1.731   8.953   3.113
33903W        W  334  38.481  42.039   0.751
33904W        W  335  42.779   7.288   3.534
33905W        W  336  23.676  11.282   4.018
33906W        W  337  11.302  25.193  13.414
33907W        W  338  23.296  42.895  12.968
33908W        W  339  42.455   8.928   1.435
33909W        W  340  38.042   2.876  13.491
33910W        W  341   0.519  24.067   3.025
33911W        W  342   6.653  19.841  10.311
33912W        W  343  14.127  32.207  14.277
33913W        W  344  13.615  32.448  14.278
33914W        W  345  19.061  10.737   4.683
33915W        W  346   1.191  27.651   1.291
33916W        W  347  24.657  10.440  13.747
33917W        W  348  44.990  43.058   0.743
33918W        W  349   2.861  10.835   4.767
33919W        W  350  22.109   6.696  14.349
33920W        W  351   5.969  40.622  13.729
33921W        W  352   8.709  42.748  11.081
33922W        W  353   9.056  29.426   2.334
33923W        W  354  30.312  12.087   2.342
33924W        W  355  30.541   6.769   0.890
33925W        W  356   3.044  31.042   0.751
33926W        W  357   9.258  17.757  11.176
33927W        W  358   1.447  35.477   2.897
33928W        W  359  40.609  30.753  12.046
33929W        W  360  20.693   1.815  13.290
33930W        W  361  27.474  17.152  13.624
33931W        W  362  31.256  37.668   3.543
33932W        W  363  17.370  22.691  11.383
33933W        W  364  20.240  32.409   2.402
33934W        W  365  18.029  44.570   1.540
33935W        W  366  32.856   9.862   1.832
33936W        W  367  10.980   8.387  12.108
33937W        W  368  17.302  31.192  11.420
33938W        W  369   7.168  28.478  13.929
33939W        W  370   5.222  11.093   3.315
33940W        W  371   2.230   0.260  14.850
33941W        W  372  22.172   6.731  13.332
33942W        W  373   5.758  39.819   4.126
33943W        W  374  27.063   4.844  10.239
33944W        W  375  33.125  31.225  12.569
33945W        W  376  31.965  42.936  14.272
33946W        W  377   5.084   7.709  13.713
33947W        W  378  34.985  39.527  12.099
33948W        W  379  23.515  38.332   2.275
33949W        W  380  11.210   1.008  12.912
33950W        W  381  27.576  18.705   1.434
33951W        W  382  20.818  17.354  14.761
33952W        W  383  28.288  13.785  13.378
33953W        W  384  25.305   4.485   2.234
33954W        W  385   3.115  25.919  11.670
33955W        W  386  19.648  34.676   2.064
33956W        W  387  32.469  30.616  14.305
33957W        W  388  33.197   4.681   4.939
33958W        W  389   7.856  24.473   3.158
33959W        W  390  11.369   0.660   2.061
33960W        W  391   3.366  17.348   2.284
33961W        W  392  19.979   2.245  11.099
33962W        W  393  27.992  43.479  11.857
33963W        W  394  22.696   1.767   4.486
33964W        W  395  10.625  39.065   4.543
33965W        W  396  35.323   5.154   4.065
33966W        W  397  42.346  11.107   1.070
33967W        W  398  24.672   0.088  12.030
33968W        W  399  22.470  10.409   4.633
33969W        W  400   4.455   8.191   4.611
33970W        W  401  18.500   7.986  10.787
33971W        W  402  12.599  26.350  12.310
33972W        W  403   0.641  37.551   1.719
33973W        W  404   4.419   7.252  11.515
33974W        W  405  36.545   9.672   2.326
33975W        W  406   8.114  30.242   0.344
33976W        W  407  41.894   7.713  11.466
33977W        W  408  33.690  41.188   9.866
33978W        W  409  12.807  14.296   2.936
33979W        W  410  31.627  30.272  13.003
33980W        W  411   3.791   3.950  11.667
33981W        W  412   6.004   0.954   3.361
33982W        W  413   1.644   0.466  10.569
33983W        W  414  15.697   7.671   2.829
33984W        W  415   4.369  19.774   1.892
33985W        W  416  43.447  31.773  11.314
33986W        W  417   8.845  11.612  14.464
33987W        W  418  24.567  38.059   0.815
33988W        W  419  33.834  40.791  12.564
33989W        W  420   6.334   6.619   0.448
33990W        W  421  10.678   7.813  11.119
33991W        W  422  32.403  14.231  13.902
33992W        W  423  43.959   0.663  13.584
33993W        W  424  26.566  27.481  10.565
33994W        W  425   0.902   1.453  12.337
33995W        W  426  40.489  44.073   2.802
33996W        W  427  40.578   7.942  13.873
33997W        W  428  27.214  26.970  12.855
33998W        W  429  43.655  29.658  13.052
33999W        W  430  38.574  29.182  14.918
34000W        W  431  29.037   0.919  10.708
34001W        W  432  30.932  10.218   3.198
34002W        W  433  12.497  23.289  14.384
34003W        W  434  23.114  19.751   1.829
34004W        W  435   7.798   3.708   3.811
34005W        W  436  11.302   4.882   4.860
34006W        W  437  31.450  12.745   4.189
34007W        W  438  33.478  30.450  14.659
34008W        W  439  40.930  35.838  14.246
34009W        W  440  25.654  31.740   1.893
34010W        W  441  26.050   4.987   2.423
34011W        W  442  40.882  27.187  10.700
34012W        W  443  29.508  21.684  11.607
34013W        W  444  36.411  39.338  14.370
34014W        W  445   0.726  41.627   2.346
34015W        W  446  22.662   3.137   1.747
34016W        W  447  28.819   9.925   9.832
34017W        W  448  42.283   3.417   2.308
34018W        W  449  12.108  33.474  10.971
34019W        W  450   8.895  12.198   2.758
34020W        W  451  42.327  29.130  13.508
34021W        W  452  34.094  10.401  10.659
34022W        W  453  23.124   7.235   1.316
34023W        W  454  11.865  43.927  14.376
34024W        W  455  25.110  36.421  13.274
34025W        W  456  29.824   3.628   1.164
34026W        W  457  27.553   0.254   0.054
34027W        W  458  42.235  40.320  14.730
34028W        W  459   2.949  12.757  14.745
34029W        W  460  29.403  39.649   3.033
34030W        W  461  27.231  11.449   1.216
34031W        W  462  42.309  40.535  10.627
34032W        W  463  13.990  10.668   4.135
34033W        W  464  12.245  15.098  14.906
34034W        W  465  27.650   2.973   3.753
34035W        W  466  10.599   8.330  14.857
34036W        W  467  12.703  20.036  12.625
34037W        W  468  23.768   6.379   1.695
34038W        W  469  20.557   0.679  13.993
34039W        W  470  43.675  22.663  12.080
34040W        W  471  17.211  10.566   3.605
34041W        W  472   0.902  27.049  12.671
34042W        W  473  43.182   7.285   4.344
34043W        W  474  13.268   4.804   4.467
34044W        W  475   7.939  19.867  12.993
34045W        W  476   8.390  35.918   1.860
34046W        W  477  40.299  12.128  13.372
34047W        W  478  16.157   3.454  14.365
34048W        W  479  10.274  35.878  10.638
34049W        W  480  29.802  15.340   0.907
34050W        W  481  41.078  11.142  11.660
34051W        W  482  35.925  33.446  14.325
34052W        W  483  19.488  40.086   4.287
34053W        W  484   8.469  25.125   2.639
34054W        W  485  40.719  39.503  14.786
34055W        W  486  31.337  12.195  14.007
34056W        W  487  24.427  43.362  12.783
34057W        W  488  39.470  16.721   3.083
34058W        W  489   9.753   6.344   4.804
34059W        W  490  15.816  27.604   1.282
34060W        W  491  15.455  30.937   2.965
34061W        W  492  20.991   3.236  14.427
34062W        W  493  32.800   5.991   4.245
34063W        W  494  42.947  10.396   0.864
34064W        W  495  15.191  22.528   4.839
34065W        W  496  40.353   5.802   0.915
34066W        W  497  33.548  22.670   0.288
34067W        W  498  13.230   3.665   1.826
34068W        W  499  33.839   8.368   1.731
34069W        W  500  18.601  44.216   3.525
34070W        W  501  18.816  10.228   3.330
34071W        W  502  17.607  10.126   0.574
34072W        W  503   8.241  23.475   3.286
34073W        W  504  26.975  27.743  13.346
34074W        W  505  22.578  13.297   0.185
34075W        W  506  36.913  19.975   1.531
34076W        W  507   5.975  37.450  11.190
34077W        W  508  23.058  36.872   1.224
34078W        W  509  33.725  28.466  11.221
34079W        W  510  24.702  19.268  13.828
34080W        W  511  38.439   7.653  11.295
34081W        W  512   9.431  29.684  13.318
34082W        W  513  16.087   5.911   2.212
34083W        W  514  13.271  35.645   1.823
34084W        W  515   2.490  43.097  13.159
34085W        W  516  41.360   6.071  12.973
34086W        W  517  35.939   5.713  10.816
34087W        W  518  17.673  19.093  10.727
34088W        W  519   9.653  12.821  11.832
34089W        W  520  12.556   9.614   1.697
34090W        W  521  16.622   8.200  12.175
34091W        W  522  10.616  10.922   2.579
34092W        W  523   5.488  28.477  12.947
34093W        W  524   9.239   3.672   4.110
34094W        W  525  19.236  17.454  12.072
34095W        W  526  27.531  35.078   1.654
34096W        W  527  28.579  34.896  11.469
34097W        W  528   1.484  18.575  14.802
34098W        W  529  42.309  11.240  11.419
34099W        W  530   8.386  25.544   0.945
34100W        W  531  32.554  17.167   1.170
34101W        W  532  30.709  42.797   1.470
34102W        W  533  24.382   7.786   0.979
34103W        W  534  37.021   2.809   2.279
34104W        W  535  30.898  22.628  12.109
34105W        W  536  17.929  12.668  14.849
34106W        W  537  33.302  12.312  14.321
34107W        W  538  42.755   6.850   0.898
34108W        W  539  23.685  32.852   3.022
34109W        W  540  19.624   5.276  13.320
34110W        W  541  35.321  26.784  11.409
34111W        W  542  31.052  21.904  12.545
34112W        W  543  33.953  44.737   3.578
34113W        W  544   6.711  41.944   2.903
34114W        W  545  29.176  30.155  11.667
34115W        W  546   5.882  19.488   4.021
34116W        W  547  43.757  33.981  14.637
34117W        W  548  28.910  10.691  14.272
34118W        W  549  34.969   7.573   0.898
34119W        W  550  15.644   4.156   0.772
34120W        W  551  28.927   9.738  11.603
34121W        W  552   5.617  19.174   1.858
34122W        W  553   4.277   1.249   2.178
34123W        W  554  33.524  11.831  14.332
34124W        W  555  21.535  28.685  11.133
34125W        W  556  39.011  42.231  11.314
34126W        W  557   3.172  34.822  14.391
34127W        W  558  43.307  28.547   0.661
34128W        W  559  44.504  28.963  14.485
34129W        W  560   6.192  20.668   4.670
34130W        W  561  24.095  44.017  14.378
34131W        W  562   1.868  39.393   3.189
34132W        W  563   6.228  36.567   0.646
34133W        W  564  20.752  13.777  14.395
34134W        W  565  24.984  35.785  12.654
34135W        W  566  34.810   9.690   4.189
34136W        W  567  26.408  11.201  12.417
34137W        W  568   0.347  42.817   1.883
34138W        W  569  15.089   5.777  12.663
34139W        W  570  31.506  17.827  12.360
34140W        W  571   4.902  19.984  13.322
34141W        W  572   1.467  23.482  14.364
34142W        W  573  31.664  31.899  10.985
34143W        W  574  37.380  26.837   4.965
34144W        W  575   7.665  20.260   3.196
34145W        W  576  11.273  17.114   4.054
34146W        W  577  22.027   8.186   0.802
34147W        W  578  40.975   1.480   3.789
34148W        W  579   0.011  35.506   1.444
34149W        W  580  43.859  30.149  13.042
34150W        W  581  27.470  24.354   4.232
34151W        W  582   1.844  32.035   3.988
34152W        W  583   8.235  40.542   2.254
34153W        W  584  36.286  14.833  13.398
34154W        W  585   2.967  27.467   1.621
34155W        W  586  43.670   2.277  13.363
34156W        W  587  31.339   4.773   1.869
34157W        W  588  41.750   9.261  13.507
34158W        W  589  11.421  43.927   0.796
34159W        W  590  15.653  44.269   0.773
34160W        W  591  11.181  12.306   4.247
34161W        W  592  22.757   0.328  11.959
34162W        W  593  13.651  32.952  10.919
34163W        W  594  31.171  19.280  11.246
34164W        W  595  43.599   0.826  11.559
34165W        W  596  21.720  36.406  12.517
34166W        W  597  36.256  10.200  12.417
34167W        W  598  39.448  14.614   1.874
34168W        W  599  23.931  30.190  11.356
34169W        W  600  21.830  13.827   0.071
34170W        W  601  18.134   5.215   0.549
34171W        W  602  40.546  23.061   3.712
34172W        W  603   5.360  10.372   9.939
34173W        W  604  26.747  36.382  13.603
34174W        W  605  41.749  42.062   1.786
34175W        W  606  26.067   8.879  11.226
34176W        W  607  42.767  33.993   1.017
34177W        W  608  23.214  39.011  14.388
34178W        W  609  21.578  27.547  12.733
34179W        W  610  24.568  43.903   2.275
34180W        W  611   0.965  29.940   1.451
34181W        W  612  28.014   0.197   0.365
34182W        W  613  41.414  16.051   0.482
34183W        W  614  17.774  43.090   4.701
34184W        W  615  24.788   0.038  11.062
34185W        W  616  14.781  44.760  10.955
34186W        W  617  24.768  29.428   0.999
34187W        W  618  19.062   6.499  11.147
34188W        W  619  19.419  29.522  11.218
34189W        W  620  29.692  32.115  13.739
34190W        W  621  28.731  15.282  11.664
34191W        W  622  23.865  24.633  13.804
34192W        W  623   6.114  18.521   2.370
34193W        W  624  35.844  22.102   0.828
34194W        W  625  19.155  44.935  12.461
34195W        W  626   4.441  44.878  11.968
34196W        W  627   2.537  42.324   1.833
34197W        W  628   3.203  42.560  11.640
34198W        W  629  39.490  26.104  11.434
34199W        W  630  15.261  14.034   0.905
34200W        W  631  16.337   2.432  12.961
34201W        W  632  30.254  12.442  11.883
34202W        W  633  36.109   5.438  11.604
34203W        W  634  28.170  19.749   3.245
34204W        W  635  19.105  27.576  13.350
34205W        W  636  42.369  16.080  11.097
34206W        W  637  25.489  25.699  11.568
34207W        W  638   1.455   7.548  10.785
34208W        W  639  28.743   7.678   1.811
34209W        W  640  14.000  22.076   4.515
34210W        W  641  12.512  40.235   3.747
34211W        W  642  25.400  10.383   0.807
34212W        W  643  29.974  44.211   2.721
34213W        W  644  18.242  38.076   2.180
34214W        W  645  22.133  38.580   1.623
34215W        W  646  40.318  22.947  11.981
34216W        W  647  25.092  25.583   2.158
34217W        W  648   5.468   6.517  14.912
34218W        W  649  17.313  23.572   2.200
34219W        W  650   0.778  36.856   4.132
34220W        W  651  30.252   1.358  13.937
34221W        W  652  39.170  33.095   3.383
34222W        W  653  32.517   3.356  12.022
34223W        W  654   0.370   8.692  11.994
34224W        W  655  42.584  16.555   1.898
34225W        W  656  39.370  23.685  13.432
34226W        W  657  12.333  27.701  12.962
34227W        W  658  25.664  37.833   2.496
34228W        W  659  13.053  39.990   1.298
34229W        W  660  34.896  31.474   1.750
34230W        W  661  13.365   6.168   1.412
34231W        W  662  16.984  36.898   4.060
34232W        W  663  25.472  18.566  11.723
34233W        W  664  10.912  35.635   4.187
34234W        W  665  23.167   5.066  11.174
34235W        W  666  35.360  39.953  11.007
34236W        W  667   8.598  40.063  12.380
34237W        W  668  22.616   4.777  10.082
34238W        W  669   3.392  40.954  13.547
34239W        W  670  38.955  16.278   5.036
34240W        W  671   8.406  29.552  10.820
34241W        W  672  34.419  25.505   1.994
34242W        W  673  37.946  36.824  10.332
34243W        W  674  37.333  21.660   4.352
34244W        W  675  16.118   8.392   3.634
34245W        W  676  21.158  36.844   1.293
34246W        W  677  41.552  18.289  11.508
34247W        W  678  27.428  36.229   4.122
34248W        W  679  12.834   7.216  14.546
34249W        W  680  32.686  42.113  14.276
34250W        W  681  30.880   8.165  14.812
34251W        W  682  11.905  19.486   0.599
34252W        W  683  44.628  36.438   2.394
34253W        W  684  28.829  44.564   2.179
34254W        W  685  15.583   8.781   3.078
34255W        W  686  39.520  41.230   0.539
34256W        W  687  44.557   2.911   2.339
34257W        W  688  36.194   7.776  14.598
34258W        W  689  24.061  23.317  12.390
34259W        W  690  27.728  13.254   3.971
34260W        W  691   7.799  14.101   1.381
34261W        W  692   9.588  34.251   3.661
34262W        W  693  21.016  42.863  10.914
34263W        W  694  18.215  18.498   0.526
34264W        W  695  37.439  10.125   4.053
34265W        W  696  28.508  38.121   0.336
34266W        W  697  16.550  27.610   3.630
34267W        W  698  25.122  22.857   2.307
34268W        W  699  39.357  15.601  12.003
34269W        W  700  16.232  44.679  11.080
34270W        W  701   9.726   3.819   4.197
34271W        W  702  13.597   7.391   3.293
34272W        W  703   9.447   5.994  11.378
34273W        W  704  20.854  42.932   0.018
34274W        W  705  35.037  34.346  11.491
34275W        W  706  37.254  20.816   4.805
34276W        W  707  30.821  42.051   0.828
34277W        W  708  38.024  12.719   3.816
34278W        W  709  10.047   2.113  14.978
34279W        W  710  40.003  40.902   1.176
34280W        W  711  38.380  34.284  14.544
34281W        W  712  44.749  20.063   0.415
34282W        W  713  27.040  14.579   4.070
34283W        W  714  42.839   9.659  14.491
34284W        W  715  37.082   1.493  11.944
34285W        W  716  14.393  24.376   1.923
34286W        W  717  11.213  24.542   2.197
34287W        W  718  14.586  30.878  14.458
34288W        W  719   6.116  24.127  14.804
34289W        W  720   4.690  32.024   4.562
34290W        W  721  23.045  34.827   0.364
34291W        W  722  12.660  40.964  14.553
34292W        W  723   1.715   5.883  14.932
34293W        W  724   6.855  40.387   1.092
34294W        W  725   3.503  16.066   4.942
34295W        W  726   4.822  39.506  10.780
34296W        W  727   2.043   7.533   0.785
34297W        W  728  27.696  16.762  12.328
34298W        W  729  20.362  27.126  12.919
34299W        W  730   6.827  30.532   2.988
34300W        W  731  26.172  26.301   0.114
34301W        W  732   4.232   9.430  14.990
34302W        W  733  30.134  28.473   3.181
34303W        W  734   4.375  19.177   0.978
34304W        W  735  35.898  43.992  14.781
34305W        W  736  29.042  14.307   3.116
34306W        W  737  23.340  32.659  10.218
34307W        W  738  22.085   3.956  12.519
34308W        W  739  30.037  34.334  11.631
34309W        W  740  18.792  40.002   5.031
34310W        W  741  31.604  20.793  11.939
34311W        W  742  23.249  20.021  14.612
34312W        W  743  12.182  44.985  13.798
34313W        W  744  39.430  40.994  11.256
34314W        W  745   0.634  26.434   0.829
34315W        W  746  12.555   1.836   0.376
34316W        W  747   4.910  10.813   1.498
34317W        W  748  10.312   7.914   1.063
34318W        W  749  29.068   3.713   2.392
34319W        W  750  10.548  31.480   2.841
34320W        W  751   9.796  38.019  10.356
34321W        W  752  39.724  44.829   0.921
34322W        W  753  37.542  18.826  11.444
34323W        W  754   6.979  15.171   2.672
34324W        W  755  30.393   1.986  11.455
34325W        W  756  38.220   8.227  14.351
34326W        W  757  30.592  44.941   4.023
34327W        W  758  42.391  16.188   3.106
34328W        W  759  38.096  23.921  13.495
34329W        W  760  41.143   9.309   3.989
34330W        W  761  32.060   3.492   3.613
34331W        W  762  31.991  39.119  10.468
34332W        W  763   4.775  24.470   2.362
34333W        W  764  44.759  23.467   2.231
34334W        W  765  26.961  36.882  14.036
34335W        W  766  34.456  26.525   2.423
34336W        W  767  39.929  30.929   3.639
34337W        W  768  32.931  31.920   3.727
34338W        W  769  14.235  44.288  11.569
34339W        W  770  19.322  29.904  14.448
34340W        W  771  10.801  31.784  13.425
34341W        W  772  22.612  12.543  13.456
34342W        W  773   6.015  29.913  11.396
34343W        W  774  34.427  30.510  13.162
34344W        W  775  44.506   1.283   1.470
34345W        W  776  28.677   6.934  12.542
34346W        W  777  30.397  26.104   0.601
34347W        W  778  41.377   5.764  12.554
34348W        W  779   4.888  36.034   3.430
34349W        W  780  11.254  43.251  13.751
34350W        W  781  14.193   5.137  11.665
34351W        W  782  37.284  29.650   0.999
34352W        W  783  24.513  29.497  14.604
34353W        W  784  43.111  44.385   0.744
34354W        W  785  35.321  18.411  14.758
34355W        W  786  13.320  27.930  13.399
34356W        W  787   7.506  16.497   2.002
34357W        W  788  30.553  43.215   2.300
34358W        W  789  31.375  33.592   0.240
34359W        W  790  43.686  44.321   1.477
34360W        W  791  41.695   6.456   1.650
34361W        W  792  20.754  14.851   0.703
34362W        W  793   4.482   3.691  11.157
34363W        W  794  14.878  25.289   3.333
34364W        W  795  41.085  40.079  10.800
34365W        W  796  42.739   5.666  12.183
34366W        W  797  24.486  35.052  14.691
34367W        W  798  20.223  40.732  11.621
34368W        W  799  10.477  38.135  13.497
34369W        W  800   6.893  22.185  13.767
34370W        W  801   0.511  36.988   2.356
34371W        W  802  34.941  29.829   0.780
34372W        W  803  30.946  44.850   0.500
34373W        W  804  34.905  36.878   1.374
34374W        W  805  10.217  18.261   2.586
34375W        W  806  28.794  31.418  11.314
34376W        W  807  32.488   5.488   9.699
34377W        W  808  24.040  36.102  11.609
34378W        W  809  32.940  24.227  13.947
34379W        W  810  18.992  14.074  13.834
34380W        W  811  42.358  28.207  13.526
34381W        W  812  34.148  36.882   3.679
34382W        W  813   9.758  20.332  11.378
34383W        W  814  35.856   1.205   4.030
34384W        W  815   8.402  23.947   0.037
34385W        W  816  21.558  24.164   0.569
34386W        W  817  34.764   3.686  12.988
34387W        W  818  13.442   2.762   3.164
34388W        W  819  31.728  36.417   4.019
34389W        W  820  41.467   2.971   3.176
34390W        W  821  23.181  32.157  14.247
34391W        W  822   1.894  16.598   3.624
34392W        W  823  17.210  26.993  13.802
34393W        W  824  17.832   3.259   0.265
34394W        W  825   5.173  17.691  13.941
34395W        W  826   3.892  19.616   3.615
34396W        W  827  20.159  29.037  12.713
34397W        W  828   0.194   6.707  11.140
34398W        W  829  20.340  33.076  11.201
34399W        W  830  36.584  17.523  14.496
34400W        W  831  35.187  11.619  13.441
34401W        W  832   0.699  32.027   2.201
34402W        W  833   9.648  18.693   4.503
34403W        W  834   9.731   1.780  12.523
34404W        W  835  43.047  41.456   3.417
34405W        W  836  31.062  18.067  12.115
34406W        W  837  16.643   7.403  13.981
34407W        W  838  18.603   4.966   0.393
34408W        W  839   6.340  19.013  14.376
34409W        W  840  29.344  28.486  12.494
34410W        W  841  33.401  34.641  13.416
34411W        W  842  35.254   2.146  13.862
34412W        W  843  24.114  12.883  13.500
34413W        W  844  16.183  22.710  11.076
34414W        W  845  26.296   4.695  14.881
34415W        W  846   0.842  43.072   1.950
34416W        W  847  37.464  31.472  13.123
34417W        W  848   2.242  28.590  13.990
34418W        W  849  39.811  15.914   1.717
34419W        W  850  23.376  34.050  13.427
34420W        W  851   9.411   9.940   3.527
34421W        W  852  17.039  17.151  10.289
34422W        W  853   8.516  14.621   3.300
34423W        W  854  10.636  34.419   0.790
34424W        W  855  11.737  37.946  10.986
34425W        W  856  28.045  19.825  12.992
34426W        W  857  16.795   7.003  11.537
34427W        W  858  33.560  40.475   2.312
34428W        W  859  11.209  11.356   1.529
34429W        W  860  12.765  11.729   0.519
34430W        W  861   3.946   7.724   1.868
34431W        W  862  31.534   4.245   3.476
34432W        W  863  33.100  26.612   0.468
34433W        W  864  18.270   8.859  11.031
34434W        W  865  43.479  12.196   2.257
34435W        W  866  20.922   3.793  14.086
34436W        W  867  37.847  10.730  14.283
34437W        W  868  44.521  34.673  13.853
34438W        W  869  35.101  32.171  14.910
34439W        W  870  13.584   2.508  11.780
34440W        W  871  28.180  39.514  14.871
34441W        W  872  19.479  19.431   3.292
34442W        W  873  12.382  42.833   2.756
34443W        W  874   4.585  41.972   0.047
34444W        W  875  39.361  15.853   2.293
34445W        W  876   1.415  28.187  13.505
34446W        W  877   9.487  30.648   4.199
34447W        W  878  23.626  34.498  12.533
34448W        W  879  24.434  21.978  12.662
34449W        W  880   3.741   0.957  12.572
34450W        W  881  24.040  21.279   1.194
34451W        W  882  20.532  33.355  14.432
34452W        W  883  43.445  10.595  14.715
34453W        W  884  16.322  35.816  12.878
34454W        W  885  18.447  14.775   0.828
34455W        W  886  19.988  10.587   4.744
34456W        W  887   3.483  26.979  13.545
34457W        W  888  23.536  29.486  12.033
34458W        W  889  15.060  32.853   1.064
34459W        W  890  41.120  38.955  11.937
34460W        W  891  14.104  20.067  10.733
34461W        W  892  26.368  35.043  11.656
34462W        W  893  33.435  43.952  11.884
34463W        W  894   8.064  27.735   3.960
34464W        W  895  38.941   2.329  11.428
34465W        W  896  36.219  17.287  11.097
34466W        W  897  26.717  25.918   2.243
34467W        W  898  41.489   4.872   0.451
34468W        W  899  43.952  27.977  13.800
34469W        W  900   0.956  21.966  12.482
34470W        W  901  10.250  39.750  13.906
34471W        W  902  37.063  29.565  11.426
34472W        W  903   3.800  43.344  12.039
34473W        W  904   5.190  26.044  10.494
34474W        W  905  23.560   9.398  13.467
34475W        W  906  15.324  12.652  14.764
34476W        W  907  36.425  22.251  11.662
34477W        W  908  31.361   3.366  14.436
34478W        W  909  28.635   7.750  14.748
34479W        W  910   7.154  37.772   1.225
34480W        W  911  36.559   3.836  13.598
34481W        W  912  14.839  24.952   0.514
34482W        W  913  11.875   9.165   0.880
34483W        W  914  11.852  41.979   0.861
34484W        W  915  19.674  26.810  14.274
34485W        W  916  29.997  35.651  14.117
34486W        W  917  17.960  28.237   3.290
34487W        W  918   5.184  42.900  10.917
34488W        W  919  15.151  14.363  13.184
34489W        W  920  34.394  44.641  11.318
34490W        W  921   7.395   6.317   2.762
34491W        W  922   6.794  10.746   3.581
34492W        W  923  26.112  22.488   1.771
34493W        W  924  28.237  33.918  11.994
34494W        W  925  26.758  22.854   3.843
34495W        W  926  32.523  26.120   3.842
34496W        W  927  30.140  25.507  11.233
34497W        W  928  44.752  40.983  14.125
34498W        W  929  42.357  28.466   1.915
34499W        W  930  25.797   4.268   4.568
34500W        W  931   6.669   4.379  10.764
34501W        W  932  11.363   8.007   3.756
34502W        W  933   1.565  24.578  14.004
34503W        W  934  15.691  30.145   4.074
34504W        W  935  38.081  44.848  12.127
34505W        W  936  11.796   2.170  14.416
34506W        W  937   7.368   6.712   1.134
34507W        W  938   5.671   0.760  13.776
34508W        W  939   3.468  26.400   3.185
34509W        W  940   1.294   5.730   1.967
34510W        W  941  31.956  33.642  11.666
34511W        W  942  25.725  37.895  12.585
34512W        W  943   9.427  17.481   5.092
34513W        W  944  28.573  26.286  12.112
34514W        W  945  12.344  41.343  12.356
34515W        W  946   6.827  39.896   0.822
34516W        W  947  14.109  35.089  12.596
34517W        W  948  18.585  34.096  11.596
34518W        W  949   3.302  35.094  13.961
34519W        W  950   7.433  29.967  10.520
34520W        W  951  26.375  35.349   1.260
34521W        W  952  17.208  31.607  11.715
34522W        W  953  32.909  12.235   1.195
34523W        W  954  44.731  18.779   1.924
34524W        W  955  36.607  11.459  12.918
34525W        W  956  19.574   5.323   2.629
34526W        W  957  16.668  30.491   3.293
34527W        W  958  43.199   7.292   3.835
34528W        W  959  39.973  13.341  14.773
34529W        W  960   4.000  36.621  11.241
34530W        W  961  44.794  29.477  11.710
34531W        W  962  16.540  27.701   0.421
34532W        W  963  28.634  38.749   1.618
34533W        W  964   8.372  30.008  14.619
34534W        W  965  38.466  44.175   0.796
34535W        W  966  27.602  15.184   0.355
34536W        W  967   0.160  28.357  12.318
34537W        W  968  41.393  31.230   1.662
34538W        W  969  22.686  13.405   1.203
34539W        W  970   8.658  27.000  14.429
34540W        W  971  35.488  29.954  12.809
34541W        W  972  26.412  11.749  13.099
34542W        W  973  26.341   0.869  12.904
34543W        W  974  37.476  10.905  12.056
34544W        W  975  13.675  18.352  11.049
34545W        W  976  14.377  23.650   2.346
34546W        W  977   6.430  26.045  13.266
34547W        W  978   2.686  42.550   1.370
34548W        W  979  20.096  26.688  14.009
34549W        W  980  17.263  17.997  11.102
34550W        W  981  18.211  41.172  12.839
34551W        W  982   7.031  44.477  12.740
34552W        W  983  37.788  43.906   2.428
34553W        W  984   8.778  44.717  10.697
34554W        W  985  32.443   5.590   4.270
34555W        W  986  19.505  38.809   1.737
34556W        W  987  35.647  31.101   1.444
34557W        W  988  17.830  36.084   1.638
34558W        W  989   3.329  40.362  11.995
34559W        W  990   7.159  40.037  13.068
34560W        W  991   2.447  28.922   2.686
34561W        W  992  34.024   0.017   1.257
34562W        W  993  21.846  41.656   2.212
34563W        W  994  42.551  25.234  11.507
34564W        W  995  19.485  26.465   2.702
34565W        W  996  18.644   3.526   4.711
34566W        W  997  24.217  17.758  11.118
34567W        W  998  21.730  17.658  11.015
34568W        W  999   6.073   6.717  10.673
34569W        W 1000   2.436  28.644   2.180
34570W        W 1001  24.071  25.058   4.557
34571W        W 1002   4.699  23.196   0.430
34572W        W 1003  21.608  41.573  11.065
34573W        W 1004  12.175  28.011   2.319
34574W        W 1005  22.466  43.174  13.011
34575W        W 1006  38.745   9.883  11.651
34576W        W 1007  22.638  41.101  11.606
34577W        W 1008   3.217   6.178  10.755
34578W        W 1009  33.709  18.374   1.779
34579W        W 1010  25.526  39.315  10.355
34580W        W 1011  40.409  13.291  12.051
34581W        W 1012  37.254  32.929  10.630
34582W        W 1013  37.354  13.884  13.994
34583W        W 1014  37.181   5.858   3.101
34584W        W 1015  37.509  18.017  14.315
34585W        W 1016   0.979  20.097   3.677
34586W        W 1017   0.848   2.495   2.335
34587W        W 1018  10.387  28.218  11.518
34588W        W 1019  34.861   1.789  12.051
34589W        W 1020   2.253   7.658  14.399
34590W        W 1021  42.727   5.059  13.192
34591W        W 1022  17.361  20.203  13.198
34592W        W 1023  20.501  25.462   3.625
34593W        W 1024  18.205   1.394   4.619
34594W        W 1025  16.755  21.751  13.361
34595W        W 1026  36.118  34.605  10.336
34596W        W 1027  18.570  22.078   4.281
34597W        W 1028  42.486  28.715   3.663
34598W        W 1029   6.055  34.102   2.129
34599W        W 1030  18.991  10.087   2.853
34600W        W 1031  11.329   9.767   3.551
34601W        W 1032  40.754   9.607   1.809
34602W        W 1033  26.886  13.789   1.447
34603W        W 1034  17.467  17.512  11.160
34604W        W 1035  19.615  14.240  14.919
34605W        W 1036  31.036   1.065   4.665
34606W        W 1037  43.399   9.581   4.635
34607W        W 1038  17.435   4.349   5.240
34608W        W 1039  14.027  31.549   0.262
34609W        W 1040  25.630   8.745  13.457
34610W        W 1041   3.935  24.465  10.735
34611W        W 1042  41.901  15.765   1.314
34612W        W 1043  33.567  18.098   2.202
34613W        W 1044  15.596  37.983   2.202
34614W        W 1045   1.450  14.300  12.167
34615W        W 1046  20.204  32.944  10.723
34616W        W 1047   1.034  22.654   2.727
34617W        W 1048  32.424  25.478  13.897
34618W        W 1049   7.480  27.870   4.122
34619W        W 1050  14.824   6.484   1.363
34620W        W 1051  44.143  29.048   1.858
34621W        W 1052  10.550  10.518  12.456
34622W        W 1053  18.557  11.204   3.248
34623W        W 1054  40.721  27.238  11.545
34624W        W 1055  24.477  33.977  13.813
34625W        W 1056  43.645  12.060   0.425
34626W        W 1057  12.287  27.174   1.405
34627W        W 1058  31.096  27.194   4.714
34628W        W 1059  32.487  19.612  13.786
34629W        W 1060  20.187  12.653  14.335
34630W        W 1061  19.779  28.700  11.490
34631W        W 1062  41.208   4.051  10.762
34632W        W 1063  23.685  30.527   3.792
34633W        W 1064  35.848  34.134   0.435
34634W        W 1065  13.815  41.984   0.278
34635W        W 1066  43.426  27.720   3.847
34636W        W 1067   1.712  23.172   1.414
34637W        W 1068   6.757  24.195  13.367
34638W        W 1069  32.475   7.702  12.548
34639W        W 1070  20.230   3.210   3.742
34640W        W 1071  21.163  18.154  12.916
34641W        W 1072  23.245  29.609  11.627
34642W        W 1073  11.694  21.043  11.573
34643W        W 1074  24.590   5.547   1.188
34644W        W 1075  31.576  31.431   4.618
34645W        W 1076  28.170  30.954   2.312
34646W        W 1077  39.372   3.224  13.414
34647W        W 1078   1.023  35.459  12.108
34648W        W 1079  27.626  41.816  12.117
34649W        W 1080  25.161  41.437  12.877
34650W        W 1081  10.208   2.716   3.773
34651W        W 1082  23.945  14.015   3.274
34652W        W 1083  15.802   9.429  11.851
34653W        W 1084   7.376   4.913  11.102
34654W        W 1085  13.606   4.204   3.723
34655W        W 1086  14.833  10.038   3.283
34656W        W 1087  35.428  28.019  10.627
34657W        W 1088  27.604  19.547  12.909
34658W        W 1089  37.827  29.675   3.199
34659W        W 1090  12.274  27.509   4.295
34660W        W 1091  18.655  27.487  11.004
34661W        W 1092  33.098  10.565   4.038
34662W        W 1093  35.510  32.360   1.890
34663W        W 1094  21.169  25.370  11.019
34664W        W 1095  39.437  38.368  10.996
34665W        W 1096  13.311  29.164   4.230
34666W        W 1097  22.580   6.981   1.672
34667W        W 1098  31.608  27.663   2.682
34668W        W 1099  42.306   6.918  14.306
34669W        W 1100  22.172  44.028  10.783
34670W        W 1101  19.555  29.090   0.530
34671W        W 1102  24.506  10.513  14.994
34672W        W 1103   8.112   7.951   4.168
34673W        W 1104  28.395  19.598   3.692
34674W        W 1105  12.739  30.402  10.648
34675W        W 1106   8.299  14.105   1.585
34676W        W 1107   6.824  44.914  12.076
34677W        W 1108  18.753   0.971  12.865
34678W        W 1109   9.818   3.492  11.987
34679W        W 1110   7.117  15.159  11.046
34680W        W 1111  34.829  36.924   2.285
34681W        W 1112   4.198  20.260   2.076
34682W        W 1113  44.370  42.493   2.973
34683W        W 1114  20.025  32.856   2.198
34684W        W 1115  22.201  35.171  10.779
34685W        W 1116  33.351  23.909  14.837
34686W        W 1117  27.545  32.927   3.424
34687W        W 1118  11.131  38.838  13.436
34688W        W 1119  15.654  44.837   3.666
34689W        W 1120  39.927  41.422  14.317
34690W        W 1121  42.930  22.580   1.043
34691W        W 1122   5.301  29.530  14.405
34692W        W 1123  42.979  35.222   4.107
34693W        W 1124  11.131  33.089   4.634
34694W        W 1125  16.040  18.707   3.269
34695W        W 1126  42.229   6.126  14.825
34696W        W 1127  14.715   0.018  11.860
34697W        W 1128   9.423  37.134   2.343
34698W        W 1129   5.412  20.645   1.673
34699W        W 1130  27.635  11.132   1.231
34700W        W 1131  28.118   7.636  11.504
34701W        W 1132   4.349  26.774  13.880
34702W        W 1133  10.298  32.861  12.406
34703W        W 1134  15.317  40.633   3.643
34704W        W 1135  34.797  34.943  12.073
34705W        W 1136  20.161   1.845  13.384
34706W        W 1137  42.061  29.944   3.161
34707W        W 1138  15.614  41.701   2.662
34708W        W 1139  39.387  41.147   1.886
34709W        W 1140  16.834   0.471   0.404
34710W        W 1141  24.812  21.988   0.975
34711W        W 1142  26.231  34.192  14.045
34712W        W 1143   3.613  41.528  12.392
34713W        W 1144  22.486  31.251   2.157
34714W        W 1145  17.793  38.277   2.777
34715W        W 1146  30.060  12.872  14.739
34716W        W 1147  25.990  18.762  10.537
34717W        W 1148  30.496  28.401  11.988
34718W        W 1149   2.918  12.897   3.707
34719W        W 1150   5.816   8.219   2.422
34720W        W 1151  19.557   2.760  14.946
34721W        W 1152  40.338  28.843  14.522
34722W        W 1153  30.679  14.466  11.591
34723W        W 1154   3.048  27.459   2.371
34724W        W 1155  43.403  30.398   1.170
34725W        W 1156   5.859  25.546   4.094
34726W        W 1157  28.439  11.222   0.286
34727W        W 1158  30.880  38.537   1.528
34728W        W 1159  25.081  18.725  12.087
34729W        W 1160  39.272  32.054   4.082
34730W        W 1161  17.660  29.399   3.773
34731W        W 1162  15.255  29.213  11.895
34732W        W 1163  36.224  12.656   4.938
34733W        W 1164  42.839   1.302  11.513
34734W        W 1165  16.859  10.372   4.830
34735W        W 1166  11.710  25.040   1.429
34736W        W 1167  31.201  17.215  13.861
34737W        W 1168  20.216  18.966  11.527
34738W        W 1169   7.713   0.830  12.397
34739W        W 1170   5.813  16.857  12.332
34740W        W 1171  20.242  35.824   4.977
34741W        W 1172   8.320   0.835   4.105
34742W        W 1173  23.799  18.745  13.382
34743W        W 1174  37.138   0.694  10.744
34744W        W 1175  17.784  27.706   1.815
34745W        W 1176  26.671  12.192  12.888
34746W        W 1177  21.937  25.612  13.391
34747W        W 1178   1.821  35.467  12.558
34748W        W 1179  42.825   4.943  11.185
34749W        W 1180  29.624  27.508  14.755
34750W        W 1181  38.351  27.768   2.304
34751W        W 1182  42.572   1.712  12.531
34752W        W 1183  34.701   3.062   1.858
34753W        W 1184  11.051  10.725   1.742
34754W        W 1185  29.868  29.680  12.690
34755W        W 1186  29.483  23.122  14.389
34756W        W 1187  27.214  33.468   1.755
34757W        W 1188   6.137   3.994   0.282
34758W        W 1189  31.969  18.424  11.446
34759W        W 1190  32.396  10.201  11.056
34760W        W 1191  33.163  31.878  13.504
34761W        W 1192  19.353   3.972  11.460
34762W        W 1193  31.801  18.575   5.083
34763W        W 1194  28.150  21.910   3.636
34764W        W 1195  41.188  37.344   0.179
34765W        W 1196  12.645  23.136  11.033
34766W        W 1197  37.413  13.240   4.496
34767W        W 1198   4.453   0.888   0.812
34768W        W 1199  14.244  35.145   2.830
34769W        W 1200  32.947  29.465  12.055
34770W        W 1201  42.912  28.249   4.061
34771W        W 1202   6.782  17.936  10.598
34772W        W 1203  43.488  23.641   0.428
34773W        W 1204   7.391  23.542   2.830
34774W        W 1205  10.829   4.901  13.652
34775W        W 1206  44.947  15.686  12.631
34776W        W 1207   0.323  24.759   2.318
34777W        W 1208  29.573  36.858  14.431
34778W        W 1209   2.423  13.544   4.127
34779W        W 1210   6.317  32.528   1.674
34780W        W 1211  40.979  34.026  10.946
34781W        W 1212   5.361  21.042  13.259
34782W        W 1213  43.727  21.549   3.231
34783W        W 1214  35.870  39.529  12.057
34784W        W 1215   5.170  39.036   1.828
34785W        W 1216  39.743  10.075   0.884
34786W        W 1217  14.628  31.615  13.541
34787W        W 1218  19.852  39.820  13.945
34788W        W 1219  34.097  39.979   3.492
34789W        W 1220  27.065  38.546   4.449
34790W        W 1221   9.335  21.471  11.223
34791W        W 1222  22.083  32.636  12.135
34792W        W 1223   3.282  27.224   2.774
34793W        W 1224  38.780  43.792  14.483
34794W        W 1225  23.714  13.351  12.948
34795W        W 1226  43.594  33.629   4.358
34796W        W 1227  25.921  21.666   4.091
34797W        W 1228  31.982  39.031   1.331
34798W        W 1229  37.428  44.270   4.614
34799W        W 1230  18.568  37.275   2.964
34800W        W 1231   9.091   6.636  13.873
34801W        W 1232  27.742  39.079  13.483
34802W        W 1233  13.261  43.000   1.029
34803W        W 1234  28.666   9.254   2.661
34804W        W 1235  44.925  13.827   0.298
34805W        W 1236   2.475  34.070   1.331
34806W        W 1237   2.661  31.265  14.819
34807W        W 1238  10.188  28.844  14.702
34808W        W 1239   4.941  34.656   1.823
34809W        W 1240  42.813  31.201   0.458
34810W        W 1241  24.991  18.042  14.919
34811W        W 1242  38.932  37.149  12.054
34812W        W 1243  23.417  25.750  12.558
34813W        W 1244  28.435  44.191  12.456
34814W        W 1245  33.122  17.510  11.657
34815W        W 1246  21.096  17.490   4.622
34816W        W 1247  41.061  35.519   1.568
34817W        W 1248  38.255  31.282   0.446
34818W        W 1249  42.798  26.209  14.441
34819W        W 1250  35.923  42.434   4.358
34820W        W 1251  35.548  14.607   4.683
34821W        W 1252  31.524  31.598   0.981
34822W        W 1253   9.057   3.908   1.382
34823W        W 1254  20.926  38.792  12.479
34824W        W 1255  11.667   0.490   3.759
34825W        W 1256   0.206  44.323  14.984
34826W        W 1257   9.679   5.361  14.435
34827W        W 1258   4.028   4.782  14.829
34828W        W 1259  16.076   0.960  13.021
34829W        W 1260  30.261  38.291   3.275
34830W        W 1261  13.770   6.058  13.224
34831W        W 1262  32.477  28.775  10.671
34832W        W 1263  18.108   3.266  11.549
34833W        W 1264  21.679  19.664  14.935
34834W        W 1265  28.582  19.120   3.312
34835W        W 1266  25.704  28.550   4.862
34836W        W 1267  39.883  27.645   3.751
34837W        W 1268  30.456  22.361  14.408
34838W        W 1269  42.717  20.209  12.055
34839W        W 1270  38.332  41.378   2.424
34840W        W 1271   4.482  10.364   0.936
34841W        W 1272   5.357  18.186   0.014
34842W        W 1273   8.829  12.297  13.724
34843W        W 1274  14.732  12.272   2.385
34844W        W 1275  25.165  38.429  13.132
34845W        W 1276   2.797  32.608   4.606
34846W        W 1277   4.960   0.424  10.368
34847W        W 1278  44.018   0.010  14.296
34848W        W 1279  42.208  30.545  11.669
34849W        W 1280   9.775  17.271   5.419
34850W        W 1281  35.446   9.222   4.380
34851W        W 1282  29.001  16.710  13.722
34852W        W 1283  21.512  33.903   2.338
34853W        W 1284  22.166  11.887   1.882
34854W        W 1285  32.807  16.196   1.923
34855W        W 1286  31.625   6.408  10.714
34856W        W 1287  39.489  23.664  10.693
34857W        W 1288  17.258  32.091   3.860
34858W        W 1289  31.673  39.841   3.668
34859W        W 1290  41.919  15.131  11.588
34860W        W 1291   3.409   6.460   2.115
34861W        W 1292  33.629  13.863   2.687
34862W        W 1293  11.270  20.228   4.026
34863W        W 1294  10.156  23.867   0.305
34864W        W 1295   7.165   9.168  12.969
34865W        W 1296   9.590  36.432  10.668
34866W        W 1297  13.972   8.222  11.520
34867W        W 1298  35.889   5.963   4.088
34868W        W 1299  23.560  22.325   2.698
34869W        W 1300  34.236  22.173  14.969
34870W        W 1301  10.757  44.111  13.512
34871W        W 1302  24.211  19.257   3.144
34872W        W 1303  17.270  12.047   1.223
34873W        W 1304  16.945  20.059  11.996
34874W        W 1305  28.072  11.563  10.926
34875W        W 1306  22.737  11.719  14.901
34876W        W 1307  29.526  26.087  12.375
34877W        W 1308   4.723  19.148   4.789
34878W        W 1309  38.023  34.207   4.708
34879W        W 1310   4.763  44.874   2.870
34880W        W 1311  18.731  11.995   4.651
34881W        W 1312  14.534  26.510   2.121
34882W        W 1313  34.357  38.367  14.247
34883W        W 1314  12.682  43.393   1.429
34884W        W 1315  27.568   8.296   1.893
34885W        W 1316  25.965  38.105   0.723
34886W        W 1317  13.291  27.182   1.243
34887W        W 1318  12.542  27.452  12.073
34888W        W 1319   8.669  16.387   5.298
34889W        W 1320  30.209   9.310   2.738
34890W        W 1321  19.205   6.591  14.772
34891W        W 1322   6.614  27.442   3.456
34892W        W 1323   8.242  14.476   4.565
34893W        W 1324   8.257  18.797  13.772
34894W        W 1325  40.602  39.963   2.381
34895W        W 1326  42.444  31.579   3.788
34896W        W 1327  32.897  26.065   0.165
34897W        W 1328   1.864   7.902  13.903
34898W        W 1329   8.899  13.307   2.725
34899W        W 1330  14.906  37.870  10.651
34900W        W 1331  27.660  21.222   3.073
34901W        W 1332  31.687   3.521  13.442
34902W        W 1333  27.575   3.182  14.946
34903W        W 1334  38.789  26.321   2.563
34904W        W 1335   2.177  26.609   4.616
34905W        W 1336  37.824  35.059  13.593
34906W        W 1337  21.381  36.017  13.523
34907W        W 1338  43.474   7.447  12.886
34908W        W 1339  27.946  33.539  10.733
34909W        W 1340  17.778   0.981  11.949
34910W        W 1341  33.440  37.572   2.062
34911W        W 1342  24.716  44.540  11.092
34912W        W 1343   9.850  40.044   4.685
34913W        W 1344  32.321  23.524  13.858
34914W        W 1345  40.275  27.483   0.750
34915W        W 1346  44.564  17.755   2.943
34916W        W 1347  16.711  41.913   1.746
34917W        W 1348  17.956   9.889   3.773
34918W        W 1349  38.442  21.884   1.455
34919W        W 1350   7.929   2.831   4.317
34920W        W 1351  25.480  32.929  11.384
34921W        W 1352  24.762  39.805  12.913
34922W        W 1353  43.727  16.018   2.684
34923W        W 1354  28.420  21.262  14.403
34924W        W 1355   9.221  32.590  10.693
34925W        W 1356  27.137  32.894  14.386
34926W        W 1357  13.361  25.083  12.286
34927W        W 1358  40.554  19.890  13.842
34928W        W 1359  28.430  19.165  13.829
34929W        W 1360  21.661  43.501  13.511
34930W        W 1361   8.180  29.490  14.896
34931W        W 1362   2.719  35.345   0.045
34932W        W 1363  33.386  28.095   4.617
34933W        W 1364   8.622   4.199   0.749
34934W        W 1365  26.679  40.704   4.188
34935W        W 1366  18.759  39.485   5.207
34936W        W 1367  21.966  42.078   0.148
34937W        W 1368   0.328  11.693  13.897
34938W        W 1369   6.590  13.633  10.280
34939W        W 1370  37.061  36.525  11.223
34940W        W 1371  35.456  28.076   4.107
34941W        W 1372  21.486  34.449   3.262
34942W        W 1373  43.770  32.912  13.349
34943W        W 1374  23.571  26.864   3.914
34944W        W 1375  11.271  16.336  13.931
34945W        W 1376  23.760   2.531   0.905
34946W        W 1377  33.333   5.766  14.284
34947W        W 1378  23.004   1.553  12.619
34948W        W 1379  42.909  17.952   4.035
34949W        W 1380   5.701   6.135  13.408
34950W        W 1381  36.709  18.104   3.698
34951W        W 1382  25.700  11.307  12.848
34952W        W 1383  29.416  20.211  14.505
34953W        W 1384  37.728  24.877  14.843
34954W        W 1385   5.200   4.948   3.673
34955W        W 1386   1.524   3.604  12.046
34956W        W 1387  32.115  20.486   1.533
34957W        W 1388   3.913  35.984   3.302
34958W        W 1389  36.068  40.941  10.700
34959W        W 1390  29.832  40.381   1.200
34960W        W 1391  22.267   8.382   0.243
34961W        W 1392  25.971  28.934  14.390
34962W        W 1393  26.284   4.102   0.697
34963W        W 1394  36.558  24.978  11.226
34964W        W 1395  14.285  18.752   3.692
34965W        W 1396  30.605  35.325  13.353
34966W        W 1397  36.849  19.844  10.718
34967W        W 1398  32.901  34.941  13.478
34968W        W 1399  35.145  18.744  11.740
34969W        W 1400  13.672  32.130   3.701
34970W        W 1401  19.248   4.386   3.472
34971W        W 1402  13.165   0.534  14.354
34972W        W 1403  28.383  31.348   3.104
34973W        W 1404  42.383  17.220   0.806
34974W        W 1405  43.373  34.220   3.834
34975W        W 1406  38.344  41.561  10.847
34976W        W 1407  43.694  14.758   1.979
34977W        W 1408  18.736  21.235  10.159
34978W        W 1409  35.300   8.962  10.578
34979W        W 1410  31.649  15.699  11.105
34980W        W 1411  10.193  25.991  14.066
34981W        W 1412  24.969  12.776   3.468
34982W        W 1413  38.564  31.598  12.062
34983W        W 1414  28.952   9.153  13.494
34984W        W 1415  40.540  18.250   2.219
34985W        W 1416   0.571   2.688   4.229
34986W        W 1417   0.757  25.583   3.283
34987W        W 1418  15.898  41.296   4.746
34988W        W 1419  35.298   3.550   0.381
34989W        W 1420  36.137  43.542  11.226
34990W        W 1421  42.011  41.023  12.085
34991W        W 1422  17.171  31.642  12.209
34992W        W 1423  20.577  36.864  13.303
34993W        W 1424  38.873  27.962  12.872
34994W        W 1425   0.852  26.289   4.076
34995W        W 1426  22.530  24.748  13.300
34996W        W 1427   7.719  22.983   2.092
34997W        W 1428   2.965   5.091   4.046
34998W        W 1429  13.573  10.476   5.262
34999W        W 1430  22.020  21.196  11.073
35000W        W 1431  29.545  14.283  11.951
35001W        W 1432  14.738  23.119   0.772
35002W        W 1433   4.475   8.349  12.120
35003W        W 1434  39.803  34.333   3.371
35004W        W 1435  44.880  23.842   3.776
35005W        W 1436  33.479  31.692  11.052
35006W        W 1437  30.617  17.779  13.861
35007W        W 1438  19.971   5.243   4.375
35008W        W 1439   1.034  28.652  12.497
35009W        W 1440  19.478  37.361  14.015
35010W        W 1441  16.097  26.899  13.040
35011W        W 1442  40.376  19.773  10.349
35012W        W 1443  40.844  10.324   4.220
35013W        W 1444  12.347  39.552  12.026
35014W        W 1445  14.841  25.450  14.714
35015W        W 1446  39.065  40.446  11.584
35016W        W 1447   0.990  17.349   2.606
35017W        W 1448  14.270  21.530   2.238
35018W        W 1449  37.172   4.556  11.230
35019W        W 1450  14.569  17.224  12.695
35020W        W 1451  44.743  10.728   1.134
35021W        W 1452  22.543  31.901   4.386
35022W        W 1453  41.670  37.824   4.275
35023W        W 1454  21.347  41.338   4.703
35024W        W 1455  15.236  24.700  12.008
35025W        W 1456  26.129  42.921   4.849
35026W        W 1457  31.122  16.290  10.761
35027W        W 1458  25.884  20.999   1.452
35028W        W 1459  33.548   3.813   0.819
35029W        W 1460  26.613  37.099  14.620
35030W        W 1461  43.277  18.295   3.937
35031W        W 1462  13.055  34.172  13.440
35032W        W 1463  44.566  26.278  11.172
35033W        W 1464  29.692  23.762   2.862
35034W        W 1465  37.679   6.313  10.437
35035W        W 1466  19.252   6.149  14.195
35036W        W 1467  44.358   5.385  10.961
35037W        W 1468   2.791  33.949   4.602
35038W        W 1469  40.880  38.921   0.504
35039W        W 1470  28.479  27.592   0.225
35040W        W 1471  30.507  43.937  12.664
35041W        W 1472  28.201  34.506  12.508
35042W        W 1473  16.234  13.824  12.166
35043W        W 1474  29.371  13.362  14.763
35044W        W 1475  21.607   4.189  14.994
35045W        W 1476   3.087  34.481  14.852
35046W        W 1477  23.793  42.864  13.019
35047W        W 1478  19.703  31.230   2.746
35048W        W 1479   2.443  11.504   3.016
35049W        W 1480  35.470   9.209  14.074
35050W        W 1481  36.902   6.860  13.505
35051W        W 1482  23.013  11.675  11.068
35052W        W 1483   2.761  10.270  13.532
35053W        W 1484   7.919   4.893   0.556
35054W        W 1485  37.363  23.182   3.150
35055W        W 1486  26.594  23.767   0.852
35056W        W 1487  25.065   9.570  12.483
35057W        W 1488  11.471  24.815  14.475
35058W        W 1489  21.718  27.835  10.258
35059W        W 1490   4.238  11.309  12.553
35060W        W 1491  18.802  41.441   1.209
35061W        W 1492   0.659   6.741  13.401
35062W        W 1493  39.063  25.121   2.239
35063W        W 1494   9.353  35.396  12.995
35064W        W 1495  44.982  34.003   1.352
35065W        W 1496  33.311  29.539   4.627
35066W        W 1497   6.935  34.939   1.338
35067W        W 1498   3.630  31.424  12.529
35068W        W 1499  42.374  34.661  14.346
35069W        W 1500  44.247  14.155  11.566
35070W        W 1501  34.045   0.925  10.740
35071W        W 1502  24.329  29.381   3.803
35072W        W 1503  26.204  42.463  14.755
35073W        W 1504  27.906   8.777   2.308
35074W        W 1505  23.085  29.716   1.790
35075W        W 1506  41.417   4.811  14.073
35076W        W 1507  35.037   3.630   1.671
35077W        W 1508  24.199  21.125  11.009
35078W        W 1509  28.142   3.971  13.996
35079W        W 1510  37.849  35.539  11.559
35080W        W 1511   3.685  35.509  14.061
35081W        W 1512  44.402  20.837  14.616
35082W        W 1513   3.748  24.456  10.254
35083W        W 1514   2.383   5.291   4.386
35084W        W 1515  38.262  34.585  11.986
35085W        W 1516  41.264  28.640   1.850
35086W        W 1517  35.113   2.733   3.244
35087W        W 1518   9.874  33.432  12.442
35088W        W 1519  41.460  33.896   2.159
35089W        W 1520  17.748  21.529   0.810
35090W        W 1521  39.954  14.486  12.436
35091W        W 1522   9.650  29.960   2.289
35092W        W 1523  20.597  21.560  10.022
35093W        W 1524   0.305  12.127   4.624
35094W        W 1525  24.925  33.149  14.772
35095W        W 1526  22.065  44.643  13.028
35096W        W 1527   0.723  39.973   3.489
35097W        W 1528  37.138  27.183   1.432
35098W        W 1529  12.343  24.015   4.551
35099W        W 1530   5.343  25.550   4.194
35100W        W 1531   4.755  32.649   4.499
35101W        W 1532  21.199  18.321  14.748
35102W        W 1533  20.401  19.743   1.892
35103W        W 1534  40.400  18.493   2.670
35104W        W 1535   7.944  18.292  14.448
35105W        W 1536  39.098  22.346  10.840
35106W        W 1537  33.944  42.322   2.779
35107W        W 1538  24.828  40.851   3.694
35108W        W 1539  33.077  44.675   2.145
35109W        W 1540   3.516  27.454  11.475
35110W        W 1541   5.696  28.692   3.224
35111W        W 1542  23.983  35.040  14.824
35112W        W 1543  27.858  37.778  13.231
35113W        W 1544  28.909  27.234   2.964
35114W        W 1545  30.710  21.956   1.292
35115W        W 1546  15.562   4.934   1.447
35116W        W 1547  21.525  25.249  13.310
35117W        W 1548   2.461  42.106   1.359
35118W        W 1549  10.104  43.444  10.658
35119W        W 1550  17.775  13.490  12.368
35120W        W 1551  11.050  31.006   1.104
35121W        W 1552  22.972   7.743  13.834
35122W        W 1553  17.740   5.829   0.692
35123W        W 1554  44.337  37.148  14.075
35124W        W 1555  35.037  38.946  13.595
35125W        W 1556  17.466  34.475   4.636
35126W        W 1557  43.481  11.891   2.871
35127W        W 1558  27.444  12.252  12.447
35128W        W 1559  25.694   7.938   3.212
35129W        W 1560  21.761  12.130  13.558
35130W        W 1561  21.507  36.375   3.236
35131W        W 1562  32.586  11.827   1.210
35132W        W 1563  32.483  31.511  11.008
35133W        W 1564  23.226  22.994   0.987
35134W        W 1565  16.506  38.675  10.984
35135W        W 1566   4.961   5.667   4.153
35136W        W 1567  42.319  15.070   0.763
35137W        W 1568  39.802  43.681  11.766
35138W        W 1569  27.099  38.808   0.274
35139W        W 1570  41.138   0.309   2.821
35140W        W 1571  31.529  31.261   0.379
35141W        W 1572  18.708  23.748   2.591
35142W        W 1573  10.597  28.975   2.385
35143W        W 1574  39.349  31.639  14.306
35144W        W 1575  35.493  38.858  12.960
35145W        W 1576  10.891  27.477   2.886
35146W        W 1577   7.302   0.937  13.041
35147W        W 1578   6.745   6.455  13.520
35148W        W 1579  43.835  18.595   4.101
35149W        W 1580  39.333  22.776   2.214
35150W        W 1581  17.818  31.953  10.910
35151W        W 1582  44.732  43.014   0.268
35152W        W 1583  42.523   2.537  12.938
35153W        W 1584   6.165   5.872   1.908
35154W        W 1585  28.493  40.916  11.781
35155W        W 1586  13.993  28.816  10.766
35156W        W 1587  34.125  25.117   2.165
35157W        W 1588  16.544  44.720  10.649
35158W        W 1589   5.372  29.126   4.096
35159W        W 1590  32.497  36.422   0.453
35160W        W 1591  35.541   4.739   0.906
35161W        W 1592  20.768  23.578  13.406
35162W        W 1593  35.051  18.937   1.838
35163W        W 1594  26.118  31.880   0.298
35164W        W 1595   4.672  24.497   4.633
35165W        W 1596  22.986  13.358  11.444
35166W        W 1597  16.295  14.090  14.797
35167W        W 1598  30.616  32.379  13.844
35168W        W 1599   6.065  43.212  11.749
35169W        W 1600  34.938  38.905  14.612
35170W        W 1601   9.819  15.743   2.401
35171W        W 1602  43.328  27.726   4.709
35172W        W 1603  39.001   2.800  11.679
35173W        W 1604  28.177  10.373   4.025
35174W        W 1605   7.539   9.097  10.866
35175W        W 1606   3.328  21.479   1.360
35176W        W 1607   4.384  25.478   0.744
35177W        W 1608   7.184   9.372   0.014
35178W        W 1609   8.771  25.145   0.803
35179W        W 1610  28.725  11.707  11.564
35180W        W 1611  37.021  25.655  10.773
35181W        W 1612  10.133  19.721  14.928
35182W        W 1613  38.931  13.053   2.690
35183W        W 1614  11.583  24.245  12.710
35184W        W 1615  31.893  43.008  12.152
35185W        W 1616  13.913   3.625  14.473
35186W        W 1617  12.395  21.382  14.256
35187W        W 1618   4.775  41.522  10.352
35188W        W 1619  37.363  43.956   0.982
35189W        W 1620  24.937  23.059  10.469
35190W        W 1621  27.493  11.739   0.511
35191W        W 1622  30.147  13.297   3.229
35192W        W 1623  39.333  16.083   1.805
35193W        W 1624  23.748   6.182  13.912
35194W        W 1625  30.957  17.619   4.676
35195W        W 1626   4.770  14.832   3.945
35196W        W 1627  30.952  44.381  12.036
35197W        W 1628   2.117  35.983   5.185
35198W        W 1629  26.581  22.262   1.725
35199W        W 1630  44.642  17.873  14.155
35200W        W 1631  38.565   4.848  10.741
35201W        W 1632  37.787  16.679   4.570
35202W        W 1633  20.709  29.409  11.846
35203W        W 1634  21.251  20.589   2.192
35204W        W 1635  23.553  38.945   3.358
35205W        W 1636  31.431  36.043   2.644
35206W        W 1637  12.558   6.480  13.455
35207W        W 1638  18.198  15.702   2.894
35208W        W 1639  17.589  40.043   3.071
35209W        W 1640  43.714  33.063  14.823
35210W        W 1641  31.065  30.825   0.932
35211W        W 1642  18.560  11.865  10.205
35212W        W 1643  26.799   2.789   1.731
35213W        W 1644  21.060   8.746   2.324
35214W        W 1645  12.153   4.948   3.186
35215W        W 1646   6.188  15.178   0.421
35216W        W 1647  31.960  34.645  11.931
35217W        W 1648  26.588   5.134  14.859
35218W        W 1649  12.557   9.252  13.739
35219W        W 1650  22.668  28.073   2.296
35220W        W 1651  30.588  21.765   3.725
35221W        W 1652   4.949  43.892   2.931
35222W        W 1653  33.302   5.943  12.924
35223W        W 1654   6.264  39.992   4.226
35224W        W 1655  36.893   0.215  12.491
35225W        W 1656  17.853  41.507  12.057
35226W        W 1657  29.106  19.044   3.740
35227W        W 1658   8.803  39.728   3.202
35228W        W 1659  24.498  41.578  13.019
35229W        W 1660  28.703  16.450   4.050
35230W        W 1661  37.606  30.705  13.366
35231W        W 1662  28.591  17.092   3.215
35232W        W 1663  40.399   8.435  13.801
35233W        W 1664   2.895   3.009   2.717
35234W        W 1665  44.926  17.782  11.636
35235W        W 1666  43.265  28.627   3.150
35236W        W 1667  31.596  11.076  11.028
35237W        W 1668  39.508  20.458  12.204
35238W        W 1669  12.975  29.269  13.790
35239W        W 1670   2.350  36.893  13.304
35240W        W 1671  30.036  12.873   4.590
35241W        W 1672  23.735  44.443  14.459
35242W        W 1673  26.366  27.350  10.069
35243W        W 1674  37.015  37.180   5.562
35244W        W 1675  40.143   3.245   1.807
35245W        W 1676  36.308  43.915  10.863
35246W        W 1677  43.273  12.918  14.950
35247W        W 1678  11.717  29.922  12.159
35248W        W 1679  32.384  28.508   2.863
35249W        W 1680  41.102  40.436   2.253
35250W        W 1681  33.028  27.549   3.920
35251W        W 1682   2.302  18.307  13.054
35252W        W 1683  23.625  30.998   0.361
35253W        W 1684  30.558  19.864  13.413
35254W        W 1685  36.760  11.996  11.604
35255W        W 1686   3.637   6.546  10.719
35256W        W 1687  41.725  34.928   4.174
35257W        W 1688  35.496  35.902   4.167
35258W        W 1689   6.676  12.593   3.439
35259W        W 1690  37.980  41.595  12.795
35260W        W 1691  30.612   4.883  14.746
35261W        W 1692  42.219  30.809   3.204
35262W        W 1693  19.277  28.132  13.895
35263W        W 1694  11.669  22.729   5.042
35264W        W 1695   5.658  11.320   3.134
35265W        W 1696  44.475  28.778   1.153
35266W        W 1697  26.228  27.232   1.282
35267W        W 1698  33.605  18.502  10.217
35268W        W 1699   2.982  21.171  10.400
35269W        W 1700  14.581   4.808   3.203
35270W        W 1701  12.686   7.678   2.269
35271W        W 1702  38.776   7.753   0.661
35272W        W 1703  34.938  20.642   1.398
35273W        W 1704  18.065  35.643   1.308
35274W        W 1705  35.038   4.846  10.404
35275W        W 1706  29.724  27.313   1.991
35276W        W 1707  25.151  21.747  14.446
35277W        W 1708   1.829   1.257  14.323
35278W        W 1709  36.003  28.442  12.587
35279W        W 1710   4.060  19.040  12.789
35280W        W 1711  20.651  21.991   0.303
35281W        W 1712   9.942  13.222  12.152
35282W        W 1713  14.862   8.720  12.499
35283W        W 1714   1.007   1.778   4.692
35284W        W 1715   6.852  14.091   5.140
35285W        W 1716  44.405  22.693   2.104
35286W        W 1717  39.053   4.577   2.346
35287W        W 1718   9.788  28.875   0.023
35288W        W 1719  16.799  20.576   3.126
35289W        W 1720  38.564  19.227   3.144
35290W        W 1721   9.643  35.861   3.708
35291W        W 1722  14.316   2.561   3.295
35292W        W 1723  27.172  42.793   3.246
35293W        W 1724  24.041  32.776   4.650
35294W        W 1725  21.254   9.742   0.841
35295W        W 1726  30.016   6.147   2.973
35296W        W 1727  23.308   1.770  10.982
35297W        W 1728  38.877  43.579  11.174
35298W        W 1729   9.710   0.201   3.217
35299W        W 1730  20.868  18.684   4.620
35300W        W 1731  19.424  39.138  12.266
35301W        W 1732  33.463   0.004   3.306
35302W        W 1733  34.888  13.610   4.289
35303W        W 1734  40.339  16.186  12.076
35304W        W 1735  10.982  37.653  13.005
35305W        W 1736  36.546  43.690   2.780
35306W        W 1737  41.439  15.571   2.712
35307W        W 1738  23.643   7.468  14.246
35308W        W 1739  18.874  14.544  14.034
35309W        W 1740  21.375  40.790  14.866
35310W        W 1741   7.230  28.065   0.402
35311W        W 1742  12.732  32.640   3.618
35312W        W 1743  10.286   8.888   0.994
35313W        W 1744  18.856  10.269  10.179
35314W        W 1745  19.888  35.096   2.284
35315W        W 1746  42.370  36.265  12.069
35316W        W 1747  22.295  29.819  14.422
35317W        W 1748  22.879  13.852   3.643
35318W        W 1749  23.149  24.961  13.066
35319W        W 1750  23.906  14.551   1.979
35320W        W 1751  41.068   2.001   4.626
35321W        W 1752  33.847  13.519   0.446
35322W        W 1753  18.367  30.462  12.179
35323W        W 1754  20.767  38.533   3.607
35324W        W 1755  38.342   7.714   3.348
35325W        W 1756  26.229  39.437  13.570
35326W        W 1757  43.159  11.056  12.474
35327W        W 1758   1.025  37.137   1.663
35328W        W 1759  42.901  12.286   2.205
35329W        W 1760   5.661  20.658   4.684
35330W        W 1761  17.051  27.458  13.539
35331W        W 1762  35.463  22.310  14.417
35332W        W 1763   3.169  24.483  12.948
35333W        W 1764  17.580  22.341  14.080
35334W        W 1765  40.823  30.423  13.733
35335W        W 1766  41.084  11.640   4.040
35336W        W 1767  17.607   3.376  10.691
35337W        W 1768  31.354  39.333   1.433
35338W        W 1769  10.345  35.669  11.631
35339W        W 1770  14.803  38.958   0.336
35340W        W 1771  42.496  23.985   4.898
35341W        W 1772  26.304   4.159   2.838
35342W        W 1773  21.004  16.575  13.139
35343W        W 1774  21.713  19.735   1.344
35344W        W 1775  37.237  39.942  11.349
35345W        W 1776   0.913  16.647  10.450
35346W        W 1777   0.425  20.759   3.172
35347W        W 1778   7.585  28.610  10.666
35348W        W 1779  37.937  29.765   4.864
35349W        W 1780  16.613   0.067  11.042
35350W        W 1781  11.595  17.611   0.284
35351W        W 1782  33.144  11.076  12.594
35352W        W 1783   4.714  11.627  14.940
35353W        W 1784  44.775  30.240  11.279
35354W        W 1785  24.752  36.584   4.541
35355W        W 1786   8.941  28.271  14.453
35356W        W 1787  22.882  21.781  13.039
35357W        W 1788  24.052  44.329   4.680
35358W        W 1789  34.460  20.937   1.991
35359W        W 1790  43.688   0.270  13.937
35360W        W 1791  31.609  17.565   2.608
35361W        W 1792  31.906  26.427   2.737
35362W        W 1793  20.507  13.236   2.413
35363W        W 1794  36.480  42.298   1.362
35364W        W 1795  18.039   8.146  14.887
35365W        W 1796  35.790  31.878  12.149
35366W        W 1797  20.752  26.971   1.334
35367W        W 1798  20.587  33.362   0.398
35368W        W 1799  33.040  29.976  14.269
35369W        W 1800   4.245  11.618   2.738
35370W        W 1801  27.184  14.059  12.972
35371W        W 1802   6.923  26.161  14.502
35372W        W 1803  15.257  32.379   1.168
35373W        W 1804   9.624  23.911   2.050
35374W        W 1805  34.368  40.978   2.680
35375W        W 1806  37.745  36.707  12.556
35376W        W 1807   7.851   4.745  12.005
35377W        W 1808  33.465  40.015  11.869
35378W        W 1809  21.271  14.291  11.777
35379W        W 1810  41.640   9.527  13.966
35380W        W 1811  13.124  30.583   4.080
35381W        W 1812  18.357  19.032   0.580
35382W        W 1813  37.961   8.324  10.499
35383W        W 1814  27.977  42.941  14.766
35384W        W 1815  33.474  33.683  13.520
35385W        W 1816  33.106   1.859  10.698
35386W        W 1817  33.474  14.396   0.925
35387W        W 1818  40.372  15.648  14.324
35388W        W 1819  29.119  30.085   3.652
35389W        W 1820  38.804  13.730   4.141
35390W        W 1821  11.351  19.190   4.142
35391W        W 1822  31.275  40.308   3.270
35392W        W 1823  41.475  34.107  12.208
35393W        W 1824  43.391   3.582  14.979
35394W        W 1825  38.407  17.561  12.867
35395W        W 1826  40.891  15.684  11.956
35396W        W 1827  44.406  33.849   1.478
35397W        W 1828  13.316  23.487   4.655
35398W        W 1829  11.308   9.961   4.569
35399W        W 1830  35.336  37.014   3.164
35400W        W 1831  44.229   3.386   5.025
35401W        W 1832   1.278  30.011  14.977
35402W        W 1833  29.665  11.839   0.214
35403W        W 1834  29.143  15.179  14.449
35404W        W 1835  23.488   4.631   2.617
35405W        W 1836   6.734  15.752  12.660
35406W        W 1837  20.800  35.035   5.035
35407W        W 1838  41.548  30.006  13.523
35408W        W 1839  37.134  19.254   1.790
35409W        W 1840   7.053  31.155   0.640
35410W        W 1841  27.247  35.133  14.508
35411W        W 1842  12.166  31.725  10.744
35412W        W 1843   1.638  13.466   4.667
35413W        W 1844  21.339  36.022   1.766
35414W        W 1845  36.876   6.508  12.498
35415W        W 1846   3.902  15.281  12.490
35416W        W 1847   8.683  30.934   3.888
35417W        W 1848  26.978   6.168   0.284
35418W        W 1849   6.925  30.394   4.937
35419W        W 1850  28.574   3.456  11.481
35420W        W 1851   2.036  30.103  11.018
35421W        W 1852  37.963  28.509   2.608
35422W        W 1853  21.210   3.079   0.305
35423W        W 1854   3.825  42.919  10.556
35424W        W 1855  10.544  35.052  14.347
35425W        W 1856   4.939  24.217  11.422
35426W        W 1857  40.768  23.884   1.750
35427W        W 1858   9.826  41.323  11.383
35428W        W 1859  35.768  31.959   1.646
35429W        W 1860  44.935  36.019  11.284
35430W        W 1861  36.731  20.512   3.690
35431W        W 1862  40.399  37.456   1.899
35432W        W 1863   8.093  38.572  13.826
35433W        W 1864  25.946  20.849   3.074
35434W        W 1865  14.230  30.436  14.960
35435W        W 1866  24.008  37.843  10.425
35436W        W 1867  38.666  23.164   2.849
35437W        W 1868  32.364  39.456   4.081
35438W        W 1869  21.723  11.431   3.483
35439W        W 1870  35.153  40.388  12.576
35440W        W 1871  29.665   3.524  12.865
35441W        W 1872  32.020   6.329  13.826
35442W        W 1873  17.625  20.471  12.719
35443W        W 1874   5.563  43.965  13.836
35444W        W 1875  22.211  42.792   5.019
35445W        W 1876   5.667   1.412   4.106
35446W        W 1877  29.232  36.549  11.162
35447W        W 1878  32.659   6.448   4.062
35448W        W 1879  19.493  13.243   2.349
35449W        W 1880  17.440   6.299  13.704
35450W        W 1881  32.396  17.287   2.514
35451W        W 1882  14.065  27.689  14.337
35452W        W 1883  31.959  12.272   2.638
35453W        W 1884  41.712  43.671   3.234
35454W        W 1885  34.632  16.106   2.815
35455W        W 1886   6.269   6.720  13.355
35456W        W 1887  35.355   4.249   4.155
35457W        W 1888  13.990  30.607   3.723
35458W        W 1889   4.513  17.253   0.780
35459W        W 1890  17.229  22.226  10.232
35460W        W 1891  34.298  32.144   2.232
35461W        W 1892  27.156  32.647   0.961
35462W        W 1893  12.436   7.202  12.937
35463W        W 1894  15.226  10.092   2.775
35464W        W 1895  13.193  27.544  11.918
35465W        W 1896  14.134  20.315   2.806
35466W        W 1897   7.182  42.009  13.577
35467W        W 1898  31.958  35.870   4.833
35468W        W 1899  15.844   7.791   0.587
35469W        W 1900  26.744  35.426  11.928
35470W        W 1901   0.284   1.750   2.783
35471W        W 1902  18.546   3.543   0.838
35472W        W 1903  10.304   8.967   4.401
35473W        W 1904  23.773  29.998   0.481
35474W        W 1905  10.887  11.159  11.221
35475W        W 1906  39.528   6.837   1.686
35476W        W 1907  17.113   3.850  12.242
35477W        W 1908  30.508  41.797   3.192
35478W        W 1909  12.803  21.205   4.690
35479W        W 1910   8.872  37.461   2.837
35480W        W 1911  12.194  29.025   3.166
35481W        W 1912  22.487  37.160   2.496
35482W        W 1913   9.286  18.673   0.325
35483W        W 1914  12.056  18.820  12.306
35484W        W 1915  16.092   6.974   4.069
35485W        W 1916   9.230   1.443  13.631
35486W        W 1917  42.771   1.393   3.117
35487W        W 1918  25.905   4.269  11.094
35488W        W 1919  31.062   1.919  10.356
35489W        W 1920  18.982  30.120   2.808
35490W        W 1921  42.459  32.383  14.024
35491W        W 1922  15.477  37.517  13.108
35492W        W 1923   1.639  36.256  11.502
35493W        W 1924  37.534  35.162   1.748
35494W        W 1925  11.321   9.307  13.211
35495W        W 1926   1.852   2.179   4.535
35496W        W 1927   5.125  38.516   0.553
35497W        W 1928   4.131   5.138  14.409
35498W        W 1929  16.794   6.227   1.477
35499W        W 1930  29.064  38.055   3.690
35500W        W 1931  11.895  10.317  14.362
35501W        W 1932  36.980   7.173   0.714
35502W        W 1933  34.729  27.702   1.637
35503W        W 1934  40.079  17.170  11.568
35504W        W 1935  13.573  35.672  10.986
35505W        W 1936  11.912  41.917  11.895
35506W        W 1937   4.318  42.352   2.043
35507W        W 1938   1.622  11.878   1.757
35508W        W 1939  27.479  38.930   1.018
35509W        W 1940  27.016  13.068  10.750
35510W        W 1941   6.640  32.864   0.848
35511W        W 1942  21.983  28.972  11.592
35512W        W 1943   8.309   4.485  11.957
35513W        W 1944  12.948  13.229   3.877
35514W        W 1945  10.717  13.843   2.016
35515W        W 1946  26.625  34.434  13.825
35516W        W 1947   7.145  34.815  11.166
35517W        W 1948  19.501  43.810  12.939
35518W        W 1949   8.885  18.559   2.779
35519W        W 1950  20.637  30.433   1.386
35520W        W 1951  22.605  40.865  12.381
35521W        W 1952  13.267  44.712  15.000
35522W        W 1953  37.187  38.146   4.388
35523W        W 1954  10.293  41.931   2.817
35524W        W 1955  31.804  30.165  12.022
35525W        W 1956  19.149   0.478  14.722
35526W        W 1957  28.031  42.013   0.759
35527W        W 1958  25.429  16.181  13.445
35528W        W 1959  31.870  42.452  14.050
35529W        W 1960  31.220  33.046  10.753
35530W        W 1961   1.548  29.238  12.003
35531W        W 1962  15.578  26.589   5.117
35532W        W 1963  39.930  30.897  12.594
35533W        W 1964  22.637  38.860  12.920
35534W        W 1965  27.036  24.028   0.970
35535W        W 1966  44.823  13.357  11.630
35536W        W 1967  13.748  17.122  11.603
35537W        W 1968  11.872   6.933   1.135
35538W        W 1969  34.367  19.735   0.039
35539W        W 1970  13.866  11.131   0.685
35540W        W 1971   4.689  13.650  11.875
35541W        W 1972   3.495  39.311   3.635
35542W        W 1973  14.535  22.071  11.534
35543W        W 1974   0.007  31.333   1.304
35544W        W 1975  15.767   6.444  10.311
35545W        W 1976   3.951  19.616  11.084
35546W        W 1977  18.217   9.902   1.986
35547W        W 1978  30.702  36.476  13.832
35548W        W 1979  23.162  32.480   0.972
35549W        W 1980  23.287  36.065  12.022
35550W        W 1981  20.493  39.915  12.665
35551W        W 1982   7.595  43.066   0.928
35552W        W 1983   6.871  14.539  11.919
35553W        W 1984   5.799  13.233   0.231
35554W        W 1985  11.286   8.529   0.278
35555W        W 1986  17.402  38.263  13.616
35556W        W 1987  39.890  29.431   2.404
35557W        W 1988  40.385   9.891  14.962
35558W        W 1989  37.333   7.104   4.210
35559W        W 1990  29.035  20.660  13.079
35560W        W 1991  26.271  21.842   0.960
35561W        W 1992  28.256  31.582  14.830
35562W        W 1993   0.344   3.377  12.660
35563W        W 1994  24.142  14.261   2.348
35564W        W 1995  40.274  19.556   0.274
35565W        W 1996  32.229  25.480  11.702
35566W        W 1997  33.194  33.235  10.191
35567W        W 1998   2.672   1.270   3.304
35568W        W 1999  18.051  30.965  10.679
35569W        W 2000  44.978  37.465  13.361
35570W        W 2001  16.509  24.204  11.393
35571W        W 2002  43.288  25.387  13.287
35572W        W 2003   7.918  16.146  14.577
35573W        W 2004   9.938  21.460   1.521
35574W        W 2005  41.790  32.450  11.382
35575W        W 2006   5.755  31.982   2.801
35576W        W 2007   2.328   7.924   2.165
35577W        W 2008  43.523  11.297   1.623
35578W        W 2009  33.156  21.154  13.817
35579W        W 2010  31.064  43.853   4.716
35580W        W 2011  38.806  32.160   4.289
35581W        W 2012  33.730  10.102  13.786
35582W        W 2013  10.260  29.953   1.478
35583W        W 2014  12.709  41.971   1.740
35584W        W 2015   0.814   8.825  11.770
35585W        W 2016  13.337   9.938  14.417
35586W        W 2017   7.900  27.021   2.184
35587W        W 2018   6.519  21.351  11.589
35588W        W 2019  13.951  17.322  13.681
35589W        W 2020  31.854  43.229   1.160
35590W        W 2021   7.304  34.860  12.453
35591W        W 2022   6.775  26.222   3.114
35592W        W 2023  25.269  42.425   3.355
35593W        W 2024  39.470  39.027   2.475
35594W        W 2025   2.432  19.532  10.972
35595W        W 2026  17.547  13.106   9.859
35596W        W 2027  43.192  31.614  10.500
35597W        W 2028   7.312  29.625  13.212
35598W        W 2029   4.186  37.955   3.980
35599W        W 2030   6.684  14.088   2.330
35600W        W 2031  37.403  28.940  10.328
35601W        W 2032  19.633  33.982   4.085
35602W        W 2033  14.671  25.212  12.491
35603W        W 2034  31.653  22.133   3.128
35604W        W 2035  38.563  36.725  12.896
35605W        W 2036  33.144  18.268   4.704
35606W        W 2037  29.113  34.540   1.995
35607W        W 2038  44.715   3.939  12.998
35608W        W 2039  20.206   7.632   1.838
35609W        W 2040   7.901  20.400   1.156
35610W        W 2041  25.582  15.042  11.613
35611W        W 2042   4.810  30.179  14.849
35612W        W 2043   9.471  26.287   2.873
35613W        W 2044  11.533  40.598   4.501
35614W        W 2045  18.220  29.441   2.827
35615W        W 2046  13.336  24.649  12.620
35616W        W 2047  33.013  44.091   3.285
35617W        W 2048  28.998  27.557  14.274
35618W        W 2049  44.755  17.294   3.244
35619W        W 2050  41.376  31.167  14.781
35620W        W 2051   7.254  43.987   3.921
35621W        W 2052  25.094   0.550   2.965
35622W        W 2053  35.657  15.697  12.436
35623W        W 2054  39.079  41.462   2.166
35624W        W 2055  25.425  33.798  14.367
35625W        W 2056  42.514  18.023   2.860
35626W        W 2057   4.611  16.846   5.327
35627W        W 2058   4.920  34.401   0.841
35628W        W 2059  43.285  12.917   3.761
35629W        W 2060  44.267  17.697   1.441
35630W        W 2061  14.883  27.306   5.041
35631W        W 2062  13.576   3.713   2.617
35632W        W 2063  39.373  39.537   2.644
35633W        W 2064   7.247  23.738  10.710
35634W        W 2065  35.129  30.142  13.449
35635W        W 2066   4.751  32.205  11.190
35636W        W 2067   8.753  22.262   3.193
35637W        W 2068  26.528  12.452   3.814
35638W        W 2069  20.760  17.829  14.461
35639W        W 2070  44.726  27.755  11.106
35640W        W 2071  18.572   6.856  12.532
35641W        W 2072  13.847   2.758  13.098
35642W        W 2073  33.355  40.471   4.165
35643W        W 2074   3.789  36.315  12.644
35644W        W 2075   7.645  10.358   4.082
35645W        W 2076  15.273  43.401   2.869
35646W        W 2077  33.211  22.184   1.160
35647W        W 2078  11.606  29.827  14.915
35648W        W 2079  39.844  34.846   3.509
35649W        W 2080  33.767  36.218  12.966
35650W        W 2081  18.561  37.878  11.537
35651W        W 2082  19.176  32.376   4.235
35652W        W 2083  11.876  26.144  11.088
35653W        W 2084  28.518  15.240  12.156
35654W        W 2085  36.515  11.955   1.507
35655W        W 2086   6.951  43.754  13.466
35656W        W 2087  44.383   1.805  10.617
35657W        W 2088   5.595  27.340   1.310
35658W        W 2089   4.665   1.941   1.724
35659W        W 2090  22.394  33.757   0.877
35660W        W 2091  12.570  13.648  12.333
35661W        W 2092  18.139  16.144   0.760
35662W        W 2093  28.644  20.979  13.789
35663W        W 2094  41.515   6.669  13.853
35664W        W 2095  28.179  22.685   2.724
35665W        W 2096  13.546  25.694  14.271
35666W        W 2097  29.159  12.647  14.468
35667W        W 2098  34.100  30.465   2.245
35668W        W 2099  25.192  21.248   4.191
35669W        W 2100   6.327  21.568  12.429
35670W        W 2101  35.344  13.622   1.225
35671W        W 2102  28.174  18.598   4.127
35672W        W 2103  43.267  44.468  14.421
35673W        W 2104  25.158  37.035   3.721
35674W        W 2105   8.333   8.307  12.946
35675W        W 2106   1.640   6.701  12.037
35676W        W 2107  13.590  27.293  10.658
35677W        W 2108  14.200  35.288  14.913
35678W        W 2109  20.058  32.393  11.014
35679W        W 2110  20.598  13.884  13.879
35680W        W 2111   0.182   7.131  12.087
35681W        W 2112  38.141   1.971  10.535
35682W        W 2113  34.883  29.118   0.241
35683W        W 2114  44.454   0.719  11.134
35684W        W 2115  33.055  33.271  12.541
35685W        W 2116  31.630  19.820   0.934
35686W        W 2117  23.505  18.730   0.811
35687W        W 2118   6.903  26.881  11.943
35688W        W 2119   7.962  37.162   1.892
35689W        W 2120  38.535  36.262  12.681
35690W        W 2121  37.724   2.529   2.521
35691W        W 2122  15.729  36.429  13.837
35692W        W 2123  25.831  19.396  12.651
35693W        W 2124  16.360  18.111   4.485
35694W        W 2125  14.673  33.118  10.664
35695W        W 2126  28.364  24.536  13.159
35696W        W 2127  13.193   9.250   2.360
35697W        W 2128   8.115  11.358   3.638
35698W        W 2129  30.118  16.142   0.863
35699W        W 2130  19.212  38.007  14.900
35700W        W 2131   9.516  15.788   0.272
35701W        W 2132  30.763  37.153  11.450
35702W        W 2133   0.554  36.328   3.376
35703W        W 2134   0.133  12.147  12.072
35704W        W 2135  23.035   6.386  12.230
35705W        W 2136  30.670  34.047   0.755
35706W        W 2137  14.330   8.409  11.198
35707W        W 2138  28.485  22.657  12.942
35708W        W 2139  25.251   9.101   2.809
35709W        W 2140   3.797  24.002  13.317
35710W        W 2141  16.311  19.205  11.492
35711W        W 2142  44.588  30.961  13.940
35712W        W 2143   6.696  26.134  14.961
35713W        W 2144  43.373  33.454  10.704
35714W        W 2145  27.659  12.827  11.600
35715W        W 2146   0.428   6.399  10.771
35716W        W 2147  39.844  34.947   4.524
35717W        W 2148  14.636  19.667  11.392
35718W        W 2149   3.941  21.308   3.206
35719W        W 2150  36.752  13.722   1.691
35720W        W 2151   1.892  22.103  10.998
35721W        W 2152  40.989   8.794  11.118
35722W        W 2153  13.481  14.793  12.611
35723W        W 2154   8.541   9.780   2.367
35724W        W 2155  27.427   5.333   3.651
35725W        W 2156  30.924  19.130  12.025
35726W        W 2157   3.346  13.720  10.491
35727W        W 2158  17.627  33.553   1.491
35728W        W 2159   0.567  37.109   3.729
35729W        W 2160  38.423  14.160  12.512
35730W        W 2161   2.687  18.111  13.513
35731W        W 2162   4.291   7.085  14.033
35732W        W 2163  37.175   2.412   1.459
35733W        W 2164  21.152  44.704   0.927
35734W        W 2165  19.624  39.300  11.829
35735W        W 2166  15.282  44.942   1.734
35736W        W 2167  15.284  11.410   3.328
35737W        W 2168  34.616  22.241   2.405
35738W        W 2169  33.860  13.867   2.220
35739W        W 2170   3.741  30.992  10.964
35740W        W 2171  23.466  39.821  14.762
35741W        W 2172  37.551  31.457  13.972
35742W        W 2173  33.789   0.160  14.544
35743W        W 2174  12.312  34.117  13.962
35744W        W 2175  12.763   9.895   3.368
35745W        W 2176  24.540  28.222  13.908
35746W        W 2177  24.140  33.479  11.901
35747W        W 2178  15.983  35.514   4.190
35748W        W 2179   4.179  22.483  14.852
35749W        W 2180  42.871  17.781   1.951
35750W        W 2181   8.298   9.258   4.741
35751W        W 2182   9.286  38.906  11.700
35752W        W 2183   8.877  33.925   2.638
35753W        W 2184  23.347  16.656  10.262
35754W        W 2185  44.771  27.359   3.714
35755W        W 2186   0.955  25.941  11.053
35756W        W 2187   2.799  11.772   0.538
35757W        W 2188  15.960   7.081   3.583
35758W        W 2189  26.222   3.320   4.527
35759W        W 2190  20.683   0.768  10.727
35760W        W 2191  30.713   9.770   3.331
35761W        W 2192  25.587  18.353  11.251
35762W        W 2193   8.332  36.542   3.324
35763W        W 2194  23.567  38.466   3.192
35764W        W 2195  18.208  32.727   0.763
35765W        W 2196  31.117  24.914  14.080
35766W        W 2197  28.598  38.558  11.316
35767W        W 2198  41.941  38.047   1.714
35768W        W 2199  32.131   6.805   5.562
35769W        W 2200   9.143   5.095  14.074
35770W        W 2201  24.177   6.405  14.725
35771W        W 2202  14.254  30.652  10.835
35772W        W 2203  12.812   1.317  12.994
35773W        W 2204  25.678  19.699   5.022
35774W        W 2205  21.342  12.826   0.030
35775W        W 2206  30.162   3.895   3.482
35776W        W 2207  36.495  38.320  11.191
35777W        W 2208  43.115   8.763  11.098
35778W        W 2209  31.189   0.685   5.020
35779W        W 2210  42.229  44.921   4.515
35780W        W 2211  32.460  30.587   0.387
35781W        W 2212  40.137  14.618  11.674
35782W        W 2213  14.762  17.584  13.590
35783W        W 2214   9.205  35.419   1.988
35784W        W 2215   2.364  14.244   3.713
35785W        W 2216  19.111   1.032   3.644
35786W        W 2217   0.270   9.628   3.428
35787W        W 2218  39.914  23.004   0.721
35788W        W 2219  17.549   7.680   4.152
35789W        W 2220  34.814  39.264   2.333
35790W        W 2221  42.369  11.875   2.956
35791W        W 2222   7.390  39.658  14.812
35792W        W 2223  11.317   7.818   3.196
35793W        W 2224  40.626  12.786  11.235
35794W        W 2225   8.059  16.105  13.461
35795W        W 2226  36.453   3.759   2.003
35796W        W 2227   7.828  12.996  10.456
35797W        W 2228   0.015  44.229   1.848
35798W        W 2229   4.995  20.168   2.345
35799W        W 2230  22.336  43.024   0.895
35800W        W 2231  16.061  32.120  10.438
35801W        W 2232  44.922  29.908   1.294
35802W        W 2233  16.477  15.278   0.982
35803W        W 2234  32.554  29.322  13.818
35804W        W 2235  14.682  28.987  10.709
35805W        W 2236  26.072   8.491  14.803
35806W        W 2237  41.458   7.513  12.518
35807W        W 2238  36.965  16.258  12.000
35808W        W 2239   6.256  18.709   0.955
35809W        W 2240   9.152   2.538   1.207
35810W        W 2241  29.899  36.363   3.592
35811W        W 2242   9.633  10.696   1.663
35812W        W 2243   4.312  29.107   4.414
35813W        W 2244   8.702  34.031  13.998
35814W        W 2245  30.572  27.136   4.741
35815W        W 2246  35.125  14.202  14.573
35816W        W 2247  31.109  34.318   0.675
35817W        W 2248   1.742  42.348  11.508
35818W        W 2249  40.509   1.398   4.162
35819W        W 2250  16.175  12.134  13.968
35820W        W 2251  19.168  22.248   4.541
35821W        W 2252   2.894  41.441   4.146
35822W        W 2253  31.961  36.820   2.807
35823W        W 2254  37.037  42.203   2.146
35824W        W 2255   6.183  41.803  10.780
35825W        W 2256  24.176  22.782  11.659
35826W        W 2257  19.626  42.298  13.817
35827W        W 2258  19.039  35.594  11.599
35828W        W 2259  41.835   5.405  13.394
35829W        W 2260  37.646  43.570   0.790
35830W        W 2261  17.172  10.288  11.521
35831W        W 2262  22.650   3.026  14.299
35832W        W 2263   4.068   9.893  14.738
35833W        W 2264  33.955   1.363  12.986
35834W        W 2265  15.188   7.603  10.273
35835W        W 2266   4.055  22.393   3.228
35836W        W 2267  12.899  22.216  11.994
35837W        W 2268  34.480   9.351  14.549
35838W        W 2269  28.110  42.565   3.289
35839W        W 2270  34.315  36.625   2.013
35840W        W 2271   8.684  17.728   0.673
35841W        W 2272   9.579  26.997  14.657
35842W        W 2273  29.741   7.470   4.650
35843W        W 2274  24.043   1.549  10.615
35844W        W 2275  13.814  18.991   3.722
35845W        W 2276  35.313  18.716   1.384
35846W        W 2277   9.277  17.256   1.731
35847W        W 2278   3.826  10.824  13.244
35848W        W 2279  41.439  16.364  10.941
35849W        W 2280  20.935  32.126  13.576
35850W        W 2281  31.427  31.270   1.801
35851W        W 2282  26.122  36.554   1.768
35852W        W 2283  38.479  10.204   1.764
35853W        W 2284  17.566   4.421   0.593
35854W        W 2285  29.055  41.320   1.327
35855W        W 2286  32.260   1.926   4.891
35856W        W 2287  27.551   0.922   1.797
35857W        W 2288  14.390  34.483   0.718
35858W        W 2289   6.769  23.690   3.193
35859W        W 2290  15.718  21.438   0.835
35860W        W 2291  30.807  26.224  11.230
35861W        W 2292  23.678   7.890  14.509
35862W        W 2293  33.925  10.051   2.817
35863W        W 2294  25.833  33.548   1.808
35864W        W 2295  19.736   2.441  13.892
35865W        W 2296  21.698  13.574  11.534
35866W        W 2297  43.231   6.264   2.348
35867W        W 2298  42.938  27.009  11.127
35868W        W 2299  13.899  24.876   1.142
35869W        W 2300  31.035  37.856   2.658
35870W        W 2301   8.696  10.457  13.900
35871W        W 2302   9.586  29.002   2.323
35872W        W 2303  35.869   4.938   4.166
35873W        W 2304  41.869  35.983   0.421
35874W        W 2305  40.819  42.413  13.373
35875W        W 2306   6.650   5.803  11.393
35876W        W 2307  15.830  32.223  11.234
35877W        W 2308  40.493   6.945  11.162
35878W        W 2309  19.092   1.873   0.971
35879W        W 2310   4.272  40.798  11.002
35880W        W 2311  43.241  22.601  13.119
35881W        W 2312  43.509  36.065  10.774
35882W        W 2313  31.966  35.042   3.424
35883W        W 2314  43.520  42.735  14.696
35884W        W 2315  30.383  32.968  11.224
35885W        W 2316  17.783  28.231   1.810
35886W        W 2317  43.502  16.226  12.199
35887W        W 2318  20.598   8.864   3.610
35888W        W 2319  13.180  36.359  14.072
35889W        W 2320  21.709   6.120   0.911
35890W        W 2321  26.534  36.406  14.069
35891W        W 2322   5.461  37.565  12.539
35892W        W 2323  39.258  37.169  12.453
35893W        W 2324  14.721  16.120  13.406
35894W        W 2325   4.171  33.974  10.738
35895W        W 2326  39.398  25.535   2.300
35896W        W 2327  28.526  32.732  12.519
35897W        W 2328  24.040  41.166   1.803
35898W        W 2329  18.484  14.073  13.958
35899W        W 2330  31.182  14.001   9.931
35900W        W 2331  25.197  30.539  12.539
35901W        W 2332  37.569  43.846   4.879
35902W        W 2333   9.359  39.761  11.131
35903W        W 2334  38.982  17.104   1.259
35904W        W 2335  11.657  10.334   2.164
35905W        W 2336  38.925  29.564   1.306
35906W        W 2337   5.458  24.526  12.054
35907W        W 2338  25.235  34.046   2.689
35908W        W 2339  22.075  43.064   2.157
35909W        W 2340  16.705  18.253   5.088
35910W        W 2341  37.472   2.388  13.361
35911W        W 2342  13.159  17.136  13.509
35912W        W 2343  39.912   1.744   2.245
35913W        W 2344   2.510  29.180  11.250
35914W        W 2345  14.003  17.689   1.702
35915W        W 2346   8.124  43.777   1.015
35916W        W 2347  44.819  16.705  12.091
35917W        W 2348  13.295   6.144   4.740
35918W        W 2349  19.014  38.957   3.183
35919W        W 2350  26.619  33.822   2.345
35920W        W 2351  31.215   3.278  13.369
35921W        W 2352  32.959  21.121  10.855
35922W        W 2353  29.719  42.954   9.965
35923W        W 2354   0.424  42.495  13.857
35924W        W 2355  29.641  37.987   0.314
35925W        W 2356   9.370  14.210  10.823
35926W        W 2357  35.793  23.189  14.935
35927W        W 2358   8.656   9.113   3.932
35928W        W 2359  32.605  26.153   1.169
35929W        W 2360  43.672  28.205   0.801
35930W        W 2361  10.297   7.336   0.587
35931W        W 2362  27.351  14.218   2.284
35932W        W 2363  39.372  32.422   2.639
35933W        W 2364   6.767   6.672   2.779
35934W        W 2365  16.667  16.923  12.490
35935W        W 2366  17.627  42.411  11.937
35936W        W 2367  30.150  23.729   3.712
35937W        W 2368   4.246  13.787  13.524
35938W        W 2369  27.618  30.348  13.999
35939W        W 2370  27.824   8.243   0.744
35940W        W 2371  35.508  42.226  13.072
35941W        W 2372  41.202  12.164  13.896
35942W        W 2373  29.434   1.906   3.235
35943W        W 2374   1.890  22.447   2.950
35944W        W 2375  29.067   7.487   4.351
35945W        W 2376  38.359   9.208  14.810
35946W        W 2377  32.354  31.774  11.470
35947W        W 2378  15.710   9.268   2.977
35948W        W 2379  23.127  43.515  12.463
35949W        W 2380  30.451   5.161   1.927
35950W        W 2381  23.491   2.169  11.291
35951W        W 2382  42.988   6.679  12.572
35952W        W 2383  25.213   4.592  11.168
35953W        W 2384  31.175   6.322  11.620
35954W        W 2385  28.123  28.171   4.149
35955W        W 2386  27.479  41.828   3.307
35956W        W 2387  11.315  20.531   1.042
35957W        W 2388  19.193  34.588  12.003
35958W        W 2389  12.229  36.545   1.651
35959W        W 2390   7.715  19.835   3.642
35960W        W 2391  31.011   6.949   4.495
35961W        W 2392   7.332  11.395   3.292
35962W        W 2393   8.245  33.616  12.781
35963W        W 2394   1.408  43.822   4.250
35964W        W 2395  34.292   1.775   0.693
35965W        W 2396   6.999   1.442  13.675
35966W        W 2397  26.992  32.202   4.719
35967W        W 2398  14.706  38.408  13.906
35968W        W 2399  23.016  42.948   3.198
35969W        W 2400   4.138  16.361   5.384
35970W        W 2401  15.159  25.661   4.439
35971W        W 2402  30.399  44.477   4.784
35972W        W 2403   0.281  26.174  14.846
35973W        W 2404  14.791  40.326   3.372
35974W        W 2405   9.612   0.949  10.739
35975W        W 2406  19.341  38.244  10.268
35976W        W 2407  22.019   3.802   2.770
35977W        W 2408  44.695  24.075  14.828
35978W        W 2409  32.678  28.520   2.443
35979W        W 2410  15.892  15.636   4.914
35980W        W 2411  10.242  28.136  10.282
35981W        W 2412  40.058  13.305  13.300
35982W        W 2413  24.511   5.640  10.661
35983W        W 2414  23.575  24.808   3.395
35984W        W 2415  39.934  28.203   3.591
35985W        W 2416  18.169  19.278  14.894
35986W        W 2417   8.396   2.656  11.814
35987W        W 2418  19.875   7.681   0.465
35988W        W 2419  29.220  30.858   3.224
35989W        W 2420  14.329   6.648  14.480
35990W        W 2421   9.940  38.429  11.568
35991W        W 2422  11.847  40.179   2.791
35992W        W 2423  24.093   6.899   5.113
35993W        W 2424   2.735  14.930  13.719
35994W        W 2425  12.269   7.510   3.066
35995W        W 2426   9.319  16.547   2.174
35996W        W 2427  20.229  27.915  14.948
35997W        W 2428  22.465  14.594  13.593
35998W        W 2429  41.800  14.769   1.945
35999W        W 2430  30.280  20.264  12.303
36000W        W 2431  39.351  37.416  11.831
36001W        W 2432  43.029   3.738   2.212
36002W        W 2433  31.877  33.500   5.083
36003W        W 2434   2.214  25.651  11.046
36004W        W 2435  37.348  11.495   4.153
36005W        W 2436  41.340  23.788  13.452
36006W        W 2437   5.624  12.319   0.839
36007W        W 2438  38.945  40.274  10.385
36008W        W 2439   3.267  20.035  14.369
36009W        W 2440  16.216  18.311  12.416
36010W        W 2441  26.752   8.896  10.745
36011W        W 2442   3.745  27.676   0.358
36012W        W 2443  31.988  11.198  14.389
36013W        W 2444  37.692  27.416   3.344
36014W        W 2445  41.680  44.514   9.791
36015W        W 2446  13.381   6.415   2.385
36016W        W 2447  26.600  33.452   1.074
36017W        W 2448  40.417  29.476  12.031
36018W        W 2449   4.418   0.462   3.888
36019W        W 2450  17.777  23.378  12.102
36020W        W 2451  10.886  12.784  10.440
36021W        W 2452   1.415  43.307   4.404
36022W        W 2453  39.685   8.552  11.493
36023W        W 2454  24.074   7.422   9.847
36024W        W 2455  35.034  39.624  13.056
36025W        W 2456  25.218   5.115  11.146
36026W        W 2457  26.090   9.947   4.651
36027W        W 2458   8.941  29.144   3.612
36028W        W 2459  24.565  33.776   0.823
36029W        W 2460  36.174  44.263  12.555
36030W        W 2461  17.761   5.778   4.662
36031W        W 2462  30.587  26.943   2.452
36032W        W 2463  31.617  20.483   3.298
36033W        W 2464  30.115  39.801   4.542
36034W        W 2465  37.568  29.831   1.410
36035W        W 2466  36.314  29.764  10.733
36036W        W 2467   3.731  22.251  12.969
36037W        W 2468  32.709  19.266  11.104
36038W        W 2469  29.024  23.711   1.718
36039W        W 2470  21.595  13.153  14.329
36040W        W 2471  42.401  23.492  11.581
36041W        W 2472   0.908   3.393   3.088
36042W        W 2473   3.838   9.300  10.765
36043W        W 2474  26.740   5.843   4.073
36044W        W 2475  17.259  14.128  14.376
36045W        W 2476   8.149   9.391   0.722
36046W        W 2477  12.581  41.294  13.473
36047W        W 2478  14.033   6.490  12.008
36048W        W 2479   1.464  29.575   0.744
36049W        W 2480   5.182   5.968  11.897
36050W        W 2481   9.863  23.262   3.289
36051W        W 2482  33.330   2.821  12.982
36052W        W 2483  40.760  37.222  12.524
36053W        W 2484  28.517  19.751   1.891
36054W        W 2485  14.584  36.548  12.057
36055W        W 2486  44.532  37.031  11.654
36056W        W 2487  42.268  31.535  12.388
36057W        W 2488  27.519  13.032   1.298
36058W        W 2489  13.207  34.146   2.204
36059W        W 2490  33.952   8.931   4.345
36060W        W 2491   6.203  20.054   2.683
36061W        W 2492  31.947  11.209   3.299
36062W        W 2493  24.155  26.217   2.894
36063W        W 2494  36.018  42.174  14.585
36064W        W 2495  17.159  26.141   1.443
36065W        W 2496  20.784   5.073   4.308
36066W        W 2497   4.310   6.630   2.930
36067W        W 2498  38.711  13.428  11.599
36068W        W 2499  13.334  18.384  13.146
36069W        W 2500  27.206  41.853  12.435
36070W        W 2501   5.810  42.240   2.589
36071W        W 2502  15.291  34.116   0.440
36072W        W 2503  16.965   8.341  14.033
36073W        W 2504  34.078  36.264  13.820
36074W        W 2505  44.290  23.237   2.019
36075W        W 2506  42.804  19.495  13.981
36076W        W 2507  44.492  34.478  12.330
36077W        W 2508   1.859  15.018  13.424
36078W        W 2509  31.863  32.738   0.207
36079W        W 2510  41.216  15.319  11.705
36080W        W 2511  43.298  21.160  14.795
36081W        W 2512  44.535  21.695  11.582
36082W        W 2513  15.761   1.389   0.178
36083W        W 2514  26.486  32.099   2.813
36084W        W 2515  39.569  44.382   0.709
36085W        W 2516  38.414  38.349  12.192
36086W        W 2517  11.457  10.380  11.625
36087W        W 2518   8.286  28.945   2.843
36088W        W 2519   1.977  38.363   3.706
36089W        W 2520   0.438   1.212  14.341
36090W        W 2521  20.176  30.835   4.589
36091W        W 2522  34.659  18.703  11.501
36092W        W 2523  20.735  27.107  10.629
36093W        W 2524  18.002  17.308  11.068
36094W        W 2525  41.467  20.621   2.668
36095W        W 2526  42.011  10.905  12.503
36096W        W 2527  21.403  26.044  14.016
36097W        W 2528   2.102  38.390  14.482
36098W        W 2529  38.922   0.055  13.921
36099W        W 2530   3.922   6.637   3.263
36100W        W 2531  37.543  10.542   2.604
36101W        W 2532  23.598  20.749   3.293
36102W        W 2533  26.679  28.826  14.786
36103W        W 2534  14.270  28.709  14.134
36104W        W 2535  16.124  27.534  10.739
36105W        W 2536   3.435  16.288  10.224
36106W        W 2537  31.592  38.048  12.831
36107W        W 2538  30.966   8.957   1.874
36108W        W 2539  34.031  24.260  10.396
36109W        W 2540  40.354  17.123  12.090
36110W        W 2541  42.379  44.538   0.188
36111W        W 2542  44.623  16.543   3.593
36112W        W 2543  25.333   0.913  12.638
36113W        W 2544  26.925   0.973   1.645
36114W        W 2545   5.210  17.771   0.868
36115W        W 2546   3.319  34.586   2.873
36116W        W 2547   4.804  16.093   1.394
36117W        W 2548  24.082  35.882  14.731
36118W        W 2549  14.150  33.416  12.427
36119W        W 2550  28.969  14.070   0.196
36120W        W 2551  15.751  28.637  12.482
36121W        W 2552  13.971  42.379   0.894
36122W        W 2553  17.824   5.910  14.733
36123W        W 2554  26.686  27.249   3.180
36124W        W 2555  39.375  32.447  11.896
36125W        W 2556  34.824  13.654   3.785
36126W        W 2557  37.332  44.930  12.664
36127W        W 2558   8.404  26.105   3.316
36128W        W 2559  26.556   3.118  10.512
36129W        W 2560  39.186  41.850   1.857
36130W        W 2561  36.423  43.944  14.938
36131W        W 2562  17.312  10.549  14.804
36132W        W 2563   1.181  34.331   3.629
36133W        W 2564  11.818  16.482  12.504
36134W        W 2565   6.263  19.177  10.728
36135W        W 2566  40.031   6.668  11.158
36136W        W 2567  27.277  39.497   1.843
36137W        W 2568   8.326  26.753   0.884
36138W        W 2569  34.969  21.212  12.578
36139W        W 2570  31.643   3.763   3.311
36140W        W 2571  23.725  38.383   1.423
36141W        W 2572  35.395  36.537   4.791
36142W        W 2573   4.086  43.888   4.675
36143W        W 2574   6.333  39.272  10.720
36144W        W 2575   7.511  35.880  13.803
36145W        W 2576  11.741  17.399   5.312
36146W        W 2577  43.430  44.034   0.432
36147W        W 2578  43.814   4.202   3.734
36148W        W 2579  33.556  25.669   4.582
36149W        W 2580  35.081  19.569  13.891
36150W        W 2581  21.967  16.177   3.794
36151W        W 2582  27.180  33.039   4.561
36152W        W 2583   2.021  22.185   0.324
36153W        W 2584   5.899   7.928  13.960
36154W        W 2585   8.403  13.382   0.971
36155W        W 2586  25.699  15.081   4.336
36156W        W 2587  18.301  44.886   1.900
36157W        W 2588   1.877  17.357   1.499
36158W        W 2589   1.235  26.948  13.933
36159W        W 2590   3.075  12.565  13.736
36160W        W 2591  19.294   9.249   1.749
36161W        W 2592  41.307  30.080  13.054
36162W        W 2593  23.952  20.557  14.057
36163W        W 2594  22.354  32.052  13.706
36164W        W 2595  35.840  26.632   2.206
36165W        W 2596  39.655  21.278  13.566
36166W        W 2597  29.682  15.317  11.995
36167W        W 2598  32.556   2.385   2.422
36168W        W 2599  41.863  21.947   3.287
36169W        W 2600  30.025  12.680  10.706
36170W        W 2601  39.473  42.546   0.296
36171W        W 2602   4.816  40.351   1.739
36172W        W 2603  32.128   2.992   0.931
36173W        W 2604  32.351  23.485  10.903
36174W        W 2605  43.270   8.894   1.732
36175W        W 2606  23.413   4.933  10.537
36176W        W 2607  36.334  39.487   2.222
36177W        W 2608  28.049  34.075   2.004
36178W        W 2609  18.735  29.168   4.175
36179W        W 2610  16.664  33.234  11.690
36180W        W 2611   1.700  21.104  12.080
36181W        W 2612  12.853  41.816  11.731
36182W        W 2613  43.443   6.898  11.770
36183W        W 2614  11.878  23.403   1.490
36184W        W 2615   4.602  30.835   2.537
36185W        W 2616  15.169   6.333  14.467
36186W        W 2617   0.732  11.175   0.476
36187W        W 2618  44.698  22.172  11.972
36188W        W 2619   2.854  31.050   0.262
36189W        W 2620   7.889  33.929   3.815
36190W        W 2621  43.304   6.771   0.911
36191W        W 2622   4.156  43.395  10.592
36192W        W 2623  33.431  32.079   3.630
36193W        W 2624  27.472  18.352   4.235
36194W        W 2625  12.228  16.798   2.818
36195W        W 2626  27.896  23.576   4.154
36196W        W 2627  43.463  29.488  14.684
36197W        W 2628  29.445   9.615   1.279
36198W        W 2629   8.142   0.489   2.076
36199W        W 2630  20.021  19.714   2.908
36200W        W 2631   8.442  38.775  13.460
36201W        W 2632  37.412  28.184   3.636
36202W        W 2633   8.806  12.044   2.220
36203W        W 2634  39.731   9.367  11.069
36204W        W 2635  27.730  25.578   2.380
36205W        W 2636   1.332  10.923  13.858
36206W        W 2637  12.877  40.368   0.063
36207W        W 2638  18.559  28.340   3.945
36208W        W 2639   9.829  36.260   0.646
36209W        W 2640  28.863  26.922   3.889
36210W        W 2641  29.575  11.127   2.586
36211W        W 2642  31.399  17.077  14.327
36212W        W 2643   7.930  41.286  11.148
36213W        W 2644  25.958  20.381  10.751
36214W        W 2645  19.645  43.219  14.314
36215W        W 2646  28.235  27.586  14.757
36216W        W 2647  14.231  11.075  13.460
36217W        W 2648  30.040   4.245  11.744
36218W        W 2649  22.181  37.007   2.127
36219W        W 2650   0.446  21.390   0.930
36220W        W 2651   0.993  23.701  12.176
36221W        W 2652  12.691  44.304  14.277
36222W        W 2653  19.347  35.946   1.386
36223W        W 2654   4.226  39.074   1.838
36224W        W 2655  41.588  12.582  11.027
36225W        W 2656  31.812  25.318  10.905
36226W        W 2657  11.662  19.788  12.109
36227W        W 2658   1.398  26.935  10.802
36228W        W 2659  42.266  20.760   2.239
36229W        W 2660  26.394  14.570  12.975
36230W        W 2661  28.721  33.905  11.073
36231W        W 2662   9.747  44.181   0.480
36232W        W 2663  43.508  25.858  10.619
36233W        W 2664  23.651   0.199   0.445
36234W        W 2665  19.540  43.849   3.401
36235W        W 2666  32.180   5.667  11.989
36236W        W 2667  23.258  27.142   3.089
36237W        W 2668  27.487  16.353  12.592
36238W        W 2669  35.569   1.387  14.849
36239W        W 2670  23.377  43.827   2.930
36240W        W 2671   3.628  17.314   5.180
36241W        W 2672   4.625  20.696  12.902
36242W        W 2673  26.184  27.294   0.330
36243W        W 2674   0.485   4.793   1.483
36244W        W 2675  15.766  12.764   0.741
36245W        W 2676  12.111  36.936  12.969
36246W        W 2677  29.517  18.841  14.523
36247W        W 2678  31.852  27.476   1.265
36248W        W 2679  36.576  16.581   3.058
36249W        W 2680  32.452  39.024  14.414
36250W        W 2681  33.108  28.484   0.996
36251W        W 2682   4.292  21.502   4.082
36252W        W 2683  35.594  29.200  11.547
36253W        W 2684   4.320   9.985  13.501
36254W        W 2685  14.757  14.560  12.138
36255W        W 2686  18.780  39.413   1.867
36256W        W 2687  14.408   9.218   3.638
36257W        W 2688   5.890  44.077  14.963
36258W        W 2689  11.218  38.858   0.401
36259W        W 2690   2.206  29.618   3.191
36260W        W 2691   6.195  41.263  10.809
36261W        W 2692  14.148   4.046  13.861
36262W        W 2693  22.781  31.679   2.179
36263W        W 2694  42.151  35.605  14.324
36264W        W 2695  18.302  31.950   2.874
36265W        W 2696  25.451   0.193   2.788
36266W        W 2697  19.465   2.205   3.241
36267W        W 2698  40.880  18.343  14.499
36268W        W 2699  19.453  15.938  11.152
36269W        W 2700  38.390  27.050   1.891
36270W        W 2701   9.433  43.113   1.002
36271W        W 2702  23.445  21.808  11.132
36272W        W 2703  38.895  34.907  10.809
36273W        W 2704   4.857  20.557  13.805
36274W        W 2705  44.335  20.241  11.516
36275W        W 2706  40.276  28.584  13.838
36276W        W 2707  30.511   2.468   0.866
36277W        W 2708  32.756  39.991  10.817
36278W        W 2709  23.242  21.597  10.680
36279W        W 2710  24.065  19.855   1.183
36280W        W 2711   3.713   2.342  13.115
36281W        W 2712  31.442  34.357   2.857
36282W        W 2713  31.871   1.902  11.252
36283W        W 2714  13.135   7.195  11.109
36284W        W 2715  44.521  33.024  12.054
36285W        W 2716  38.221  29.094  13.099
36286W        W 2717  20.517  18.709   3.388
36287W        W 2718  25.890  26.993  12.390
36288W        W 2719   4.153  11.398   3.780
36289W        W 2720  21.269  43.199   1.345
36290W        W 2721  10.349  29.567  13.913
36291W        W 2722  37.366  40.361  12.128
36292W        W 2723   1.301  11.446  13.844
36293W        W 2724  27.860  34.436  10.448
36294W        W 2725  31.637  23.671  13.421
36295W        W 2726  44.118  35.538   3.520
36296W        W 2727  35.420   9.981  10.885
36297W        W 2728  41.048  23.537   0.807
36298W        W 2729   4.943  37.527   2.259
36299W        W 2730   3.721  42.987  11.073
36300W        W 2731  21.522  12.891   4.241
36301W        W 2732  14.632   2.297  10.149
36302W        W 2733  25.440  24.479   1.779
36303W        W 2734  39.528  33.662   4.106
36304W        W 2735  42.659  22.143   0.909
36305W        W 2736  12.771  20.254  12.167
36306W        W 2737   8.936  20.831   2.851
36307W        W 2738  22.049  27.130  14.522
36308W        W 2739   1.117  19.290  11.048
36309W        W 2740  14.644  42.934   1.557
36310W        W 2741  22.508  15.603  14.198
36311W        W 2742  14.371   9.523  12.577
36312W        W 2743  15.268  20.881  11.595
36313W        W 2744  37.467  19.309   1.395
36314W        W 2745  25.164  37.841   2.341
36315W        W 2746   3.156   8.170   1.810
36316W        W 2747  35.660   3.730  14.031
36317W        W 2748  15.155  43.932   0.711
36318W        W 2749  35.046  39.093  13.057
36319W        W 2750  15.584  31.514   0.269
36320W        W 2751   6.325  18.756   1.939
36321W        W 2752  25.514   9.728   4.267
36322W        W 2753   3.953  14.394   9.911
36323W        W 2754  29.488   8.697  14.047
36324W        W 2755  25.832  33.404   2.689
36325W        W 2756  37.662   8.228  13.508
36326W        W 2757  43.539  15.132  12.613
36327W        W 2758  20.778  41.506  14.321
36328W        W 2759  36.785  19.042   1.477
36329W        W 2760   1.038  43.586  10.999
36330W        W 2761  18.578  15.572   3.662
36331W        W 2762   5.259  29.588  10.629
36332W        W 2763  25.153  29.429   2.259
36333W        W 2764  37.953  20.224   1.808
36334W        W 2765  27.900   4.950   1.923
36335W        W 2766   6.469  33.906  12.281
36336W        W 2767  19.624   6.855  14.989
36337W        W 2768   2.534  44.703  12.052
36338W        W 2769  15.530  13.773   2.443
36339W        W 2770  30.576  17.273  14.898
36340W        W 2771  30.625  18.734  13.526
36341W        W 2772   8.853  41.788  12.148
36342W        W 2773  29.504  13.796   3.825
36343W        W 2774  11.502  16.204   1.315
36344W        W 2775   5.726  41.138  11.031
36345W        W 2776  41.945  40.599  12.462
36346W        W 2777   1.657  31.220  14.826
36347W        W 2778  15.650  24.428  12.165
36348W        W 2779  13.114  35.791   2.788
36349W        W 2780  29.556  11.932   3.667
36350W        W 2781  14.083   5.417   1.321
36351W        W 2782  38.656  10.225  14.369
36352W        W 2783  31.483  21.591  12.574
36353W        W 2784  36.421   3.478  10.219
36354W        W 2785  44.213  39.938  11.956
36355W        W 2786   4.721  44.041   1.067
36356W        W 2787  17.685  29.389  12.102
36357W        W 2788   6.263  36.499  10.725
36358W        W 2789  32.028  26.738   1.785
36359W        W 2790  27.401  29.575   1.014
36360W        W 2791   0.230   4.481  10.952
36361W        W 2792  30.025   1.662  12.215
36362W        W 2793  37.460  39.762   1.500
36363W        W 2794  26.698  37.984  14.459
36364W        W 2795  27.965  11.709  12.999
36365W        W 2796  30.724  14.631  10.783
36366W        W 2797  26.782  33.714   2.830
36367W        W 2798  39.373  22.597   1.709
36368W        W 2799  39.361  27.467  12.585
36369W        W 2800  29.170  40.986  13.950
36370W        W 2801  30.218  31.139  12.519
36371W        W 2802  41.651   0.417   3.845
36372W        W 2803   3.937  30.879  14.215
36373W        W 2804  14.003  39.177   3.302
36374W        W 2805  26.140  13.394   3.181
36375W        W 2806  13.417  37.949  10.761
36376W        W 2807  15.127  23.198   1.744
36377W        W 2808  12.309  17.389  13.129
36378W        W 2809   7.444  16.027  14.769
36379W        W 2810   9.429  38.144  10.722
36380W        W 2811  21.499  43.936   1.195
36381W        W 2812  21.313   3.594   1.715
36382W        W 2813  16.981  34.407   4.476
36383W        W 2814  36.850  24.681  11.529
36384W        W 2815   1.014  10.852   0.746
36385W        W 2816  36.384  33.687   2.873
36386W        W 2817  28.790  40.327   1.390
36387W        W 2818  38.982  15.309   4.098
36388W        W 2819   1.658  33.901   1.671
36389W        W 2820  29.585  22.526   2.162
36390W        W 2821  21.764  13.232   3.915
36391W        W 2822  15.772  33.949   3.697
36392W        W 2823   7.848  19.757   4.480
36393W        W 2824  31.520   8.374  11.134
36394W        W 2825   2.663  33.605   1.476
36395W        W 2826  35.401  24.427  13.295
36396W        W 2827  24.798   9.830   0.223
36397W        W 2828  21.147  16.927  14.840
36398W        W 2829   5.939  34.473   0.752
36399W        W 2830  43.579  23.490   0.932
36400W        W 2831  26.972  29.556  10.789
36401W        W 2832  41.305  10.278   0.071
36402W        W 2833  13.142   2.701   3.590
36403W        W 2834  44.761  17.489   2.310
36404W        W 2835  24.405  40.316  13.965
36405W        W 2836  30.550   1.207  11.178
36406W        W 2837  10.636   0.162   4.118
36407W        W 2838  12.554  31.954  12.905
36408W        W 2839   2.808   6.189  13.037
36409W        W 2840   2.908  37.421   0.197
36410W        W 2841  39.153  27.262   2.286
36411W        W 2842  35.876  13.498   0.092
36412W        W 2843  38.466  17.310  13.334
36413W        W 2844  15.642  43.798  10.972
36414W        W 2845  38.014  33.351  12.991
36415W        W 2846  27.117   8.654  14.348
36416W        W 2847  42.348  37.954  11.415
36417W        W 2848  25.572  25.610   2.342
36418W        W 2849  41.448  37.574  10.621
36419W        W 2850  27.684   2.791  12.848
36420W        W 2851   3.456  19.272  10.241
36421W        W 2852  43.989  27.475  11.755
36422W        W 2853   2.504  31.904  12.065
36423W        W 2854   3.411  13.384   0.360
36424W        W 2855  38.532  24.479  12.013
36425W        W 2856  34.360  33.345  13.023
36426W        W 2857   5.740  32.449   4.816
36427W        W 2858  29.582  34.096  10.946
36428W        W 2859  37.953  13.528  10.693
36429W        W 2860  24.346  41.035   3.094
36430W        W 2861  19.977   4.034   1.143
36431W        W 2862  34.955  20.147   4.748
36432W        W 2863  34.554  16.482  14.460
36433W        W 2864  33.390  33.848   4.491
36434W        W 2865   0.772  17.660   0.276
36435W        W 2866   0.087   5.886  12.368
36436W        W 2867  15.083  28.015   2.810
36437W        W 2868  24.056  41.107  11.583
36438W        W 2869  23.775  35.782  11.299
36439W        W 2870  24.060  43.886  11.204
36440W        W 2871  21.077  42.086  13.844
36441W        W 2872   5.253  17.024  12.681
36442W        W 2873  14.321  26.487  12.058
36443W        W 2874  20.275   0.913   1.509
36444W        W 2875  24.040  31.487   4.058
36445W        W 2876  11.872   8.374  14.476
36446W        W 2877  15.242   0.831   0.201
36447W        W 2878  17.304  16.236  13.521
36448W        W 2879   0.348  18.758   2.342
36449W        W 2880  21.017   5.301   4.747
36450W        W 2881  28.293  12.069  14.356
36451W        W 2882  29.087   8.437   2.263
36452W        W 2883  39.231  37.552  14.108
36453W        W 2884  36.325   4.223   1.797
36454W        W 2885  36.776  37.018   1.205
36455W        W 2886  30.653  24.550   4.128
36456W        W 2887  17.056  19.086   1.657
36457W        W 2888  19.340   1.315  14.420
36458W        W 2889   6.770  35.795  13.356
36459W        W 2890   9.857   3.424   0.746
36460W        W 2891  42.408  23.565   0.343
36461W        W 2892  18.369   3.862  11.484
36462W        W 2893  37.951  20.691   3.057
36463W        W 2894   5.927  17.793  13.313
36464W        W 2895  33.562   9.399   0.803
36465W        W 2896   3.801  31.101   1.358
36466W        W 2897  28.050   0.601   2.532
36467W        W 2898  33.651   6.599  12.555
36468W        W 2899  41.495  25.136   0.281
36469W        W 2900  42.391  11.748   3.937
36470W        W 2901  31.600  21.493  13.090
36471W        W 2902  13.819   0.220   3.249
36472W        W 2903  39.269  21.623   3.658
36473W        W 2904   7.933  38.825   2.175
36474W        W 2905   5.388  18.817   4.289
36475W        W 2906  41.561  40.051   4.189
36476W        W 2907  24.081   5.884  12.949
36477W        W 2908  29.952  15.179  10.729
36478W        W 2909  19.563  18.527  14.459
36479W        W 2910   8.712  39.899  14.544
36480W        W 2911  40.837   4.433  10.761
36481W        W 2912  16.133  37.275   1.702
36482W        W 2913   1.734  44.481   2.524
36483W        W 2914  31.815   0.372  14.387
36484W        W 2915   6.823  16.566  14.516
36485W        W 2916  42.031  15.022  13.915
36486W        W 2917  38.535  13.623  13.196
36487W        W 2918  31.341  44.189  14.939
36488W        W 2919   6.168  43.355   2.440
36489W        W 2920  42.309  28.391   2.409
36490W        W 2921  31.606  39.262  11.885
36491W        W 2922  21.037  24.793   1.788
36492W        W 2923  15.495  17.797  12.841
36493W        W 2924   2.663  16.305  12.050
36494W        W 2925   3.951   1.641   4.207
36495W        W 2926   1.701  10.447   0.463
36496W        W 2927  42.074  40.857   2.613
36497W        W 2928  37.175   4.107  11.624
36498W        W 2929   7.917  10.313  11.451
36499W        W 2930  26.584  17.234  11.934
36500W        W 2931   2.877  35.150   0.503
36501W        W 2932   0.533  10.627   3.333
36502W        W 2933  23.513   6.259   2.719
36503W        W 2934  39.568  21.691  14.340
36504W        W 2935  18.134   1.858  13.054
36505W        W 2936  27.310   6.476   2.370
36506W        W 2937  16.832  10.410   4.325
36507W        W 2938  35.077  27.617  14.300
36508W        W 2939  44.842  37.892  12.008
36509W        W 2940  33.397  37.120  14.420
36510W        W 2941   1.418  41.391   4.018
36511W        W 2942  44.012  25.946  14.313
36512W        W 2943  31.308  34.878   4.150
36513W        W 2944   6.693  27.602  13.436
36514W        W 2945  43.744  12.843   0.895
36515W        W 2946  16.807  20.700   1.825
36516W        W 2947   7.634   0.490   3.030
36517W        W 2948  13.037  35.622   4.955
36518W        W 2949  44.241  24.471   4.689
36519W        W 2950  10.584  43.782   2.810
36520W        W 2951   0.243  22.018   1.796
36521W        W 2952   9.603  23.933   0.911
36522W        W 2953  31.466  44.961  12.444
36523W        W 2954  26.698  17.739  11.719
36524W        W 2955  43.637   8.649  13.514
36525W        W 2956  24.527   6.783   1.904
36526W        W 2957   0.384  39.607  13.821
36527W        W 2958  15.267   8.272  11.440
36528W        W 2959  14.262  37.369   3.696
36529W        W 2960  33.014   0.035   0.902
36530W        W 2961  32.562   7.187  10.612
36531W        W 2962   6.331   0.831  11.183
36532W        W 2963   7.923  38.508   1.750
36533W        W 2964  37.747   1.703   3.550
36534W        W 2965  15.837  40.702   2.643
36535W        W 2966   7.202  35.634   3.815
36536W        W 2967  44.022  28.957  14.282
36537W        W 2968  44.296  41.696  14.843
36538W        W 2969   6.269  17.787   0.878
36539W        W 2970  32.289  35.351   0.792
36540W        W 2971  44.773  22.694  11.274
36541W        W 2972  34.674  41.928   2.342
36542W        W 2973  43.982  26.484   1.375
36543W        W 2974  24.992  44.528  11.521
36544W        W 2975  24.071  40.694   0.288
36545W        W 2976  42.811  23.949   0.813
36546W        W 2977   3.674  34.484   4.613
36547W        W 2978  19.697  14.387   2.260
36548W        W 2979  12.321   8.271  13.112
36549W        W 2980   3.347   2.373  13.513
36550W        W 2981  25.705  20.068  12.033
36551W        W 2982   6.288  12.371  13.444
36552W        W 2983   3.650  24.034  11.044
36553W        W 2984  30.188   1.165   2.124
36554W        W 2985  40.193  10.359   0.047
36555W        W 2986  37.968  33.109   0.274
36556W        W 2987  43.928  18.577  11.102
36557W        W 2988  43.404  38.088  13.726
36558W        W 2989  44.764   3.799  11.066
36559W        W 2990  27.909  13.807  14.685
36560W        W 2991  43.837   9.725  10.612
36561W        W 2992  42.802  28.370  14.625
36562W        W 2993  11.874  39.007   4.114
36563W        W 2994  27.065  22.280   2.324
36564W        W 2995  24.850  24.977  13.839
36565W        W 2996  20.701   5.677   1.332
36566W        W 2997  22.489  38.441  12.069
36567W        W 2998  34.374   1.281   1.234
36568W        W 2999  44.212   1.174   1.878
36569W        W 3000  17.320  10.572   4.970
36570W        W 3001  35.061  42.564   1.746
36571W        W 3002   2.198  24.206   3.758
36572W        W 3003  10.275   1.868  13.985
36573W        W 3004  15.085  25.993  12.490
36574W        W 3005  38.531  39.950   2.329
36575W        W 3006  21.972  22.543   4.830
36576W        W 3007  16.264  11.049   4.978
36577W        W 3008   5.670  44.926   2.395
36578W        W 3009  20.086   3.154   0.621
36579W        W 3010  23.553  15.544   0.228
36580W        W 3011  44.393  28.997  14.991
36581W        W 3012  29.124  21.768   1.309
36582W        W 3013  22.730  16.525  10.971
36583W        W 3014   1.187  16.160   1.413
36584W        W 3015   3.514  14.395   4.512
36585W        W 3016  34.906  34.920  13.279
36586W        W 3017   1.300  28.791  12.079
36587W        W 3018  20.193   8.166   1.842
36588W        W 3019  42.975  24.438  14.513
36589W        W 3020  34.413   5.351  13.952
36590W        W 3021  41.822  19.567   0.296
36591W        W 3022  24.067   1.417  14.785
36592W        W 3023  17.315  23.691  12.991
36593W        W 3024  35.176  36.904  12.994
36594W        W 3025  33.685  35.773   3.127
36595W        W 3026  42.980  31.615  14.039
36596W        W 3027  37.355  31.568   1.424
36597W        W 3028   5.716   8.030  14.823
36598W        W 3029  12.707   2.388   0.477
36599W        W 3030   5.591  37.356   0.002
36600W        W 3031  43.305  25.263  11.965
36601W        W 3032   5.654  35.514  12.968
36602W        W 3033  15.274   2.889   3.598
36603W        W 3034   8.434  24.442  12.034
36604W        W 3035   9.860  17.635  14.342
36605W        W 3036  28.373  12.421  11.127
36606W        W 3037  32.332  34.658  11.558
36607W        W 3038   3.795   3.140   3.284
36608W        W 3039  16.107  19.919   3.642
36609W        W 3040  18.579  12.589   3.176
36610W        W 3041  10.180   3.844  13.944
36611W        W 3042  12.191  28.612   4.500
36612W        W 3043  26.005  28.416  14.373
36613W        W 3044  42.046  30.333  12.100
36614W        W 3045   9.972  30.414   0.883
36615W        W 3046  33.551  15.160  10.761
36616W        W 3047  31.000  31.026  11.524
36617W        W 3048   9.708  32.043   3.588
36618W        W 3049  22.694   4.611   0.330
36619W        W 3050  12.848   7.968  10.665
36620W        W 3051  25.704  39.861  12.934
36621W        W 3052   2.184  31.552   3.274
36622W        W 3053   3.917  43.382   3.755
36623W        W 3054  23.498  40.177   4.536
36624W        W 3055  41.985  29.196   4.414
36625W        W 3056  10.343  22.257   4.563
36626W        W 3057  40.448   7.243   1.090
36627W        W 3058  10.867  14.180  13.532
36628W        W 3059  13.237  43.451   0.275
36629W        W 3060  13.640  13.102  10.691
36630W        W 3061  30.668  19.359  12.443
36631W        W 3062  36.771  30.508   1.049
36632W        W 3063  26.103  29.692  14.846
36633W        W 3064   0.395  10.390   0.377
36634W        W 3065  17.209  30.579   3.236
36635W        W 3066  15.403  34.009   1.328
36636W        W 3067  10.871   0.554   1.343
36637W        W 3068  10.281  41.498  11.613
36638W        W 3069  29.367  24.026   4.295
36639W        W 3070  23.145  35.331  10.767
36640W        W 3071  18.771  33.911  11.156
36641W        W 3072   0.715  31.382   4.899
36642W        W 3073  36.795  30.350  14.360
36643W        W 3074  23.226  31.070   1.967
36644W        W 3075   9.439  16.085   2.419
36645W        W 3076  19.251  29.506  11.716
36646W        W 3077   5.717  28.480   1.744
36647W        W 3078   8.840  35.239  13.196
36648W        W 3079  43.016  11.551   1.749
36649W        W 3080  28.680  39.440  14.935
36650W        W 3081  43.828  13.838   1.331
36651W        W 3082  33.078  25.408  13.513
36652W        W 3083   5.619  23.198  11.879
36653W        W 3084  29.141   4.327   3.793
36654W        W 3085  32.032   9.943   1.721
36655W        W 3086   3.955  43.298   1.119
36656W        W 3087  36.660  39.018   1.005
36657W        W 3088  40.925  40.949   1.224
36658W        W 3089  24.571  26.199  13.927
36659W        W 3090  10.173  36.319  14.751
36660W        W 3091   4.745  35.513  11.460
36661W        W 3092   0.958  14.436   2.797
36662W        W 3093  41.350  11.310   1.473
36663W        W 3094   9.761  35.134  11.220
36664W        W 3095   8.670  15.301   0.280
36665W        W 3096   3.485  28.376   0.947
36666W        W 3097  17.645  29.911   3.970
36667W        W 3098  44.317  21.597  13.593
36668W        W 3099  13.371  20.402  11.715
36669W        W 3100  33.828  44.253   1.751
36670W        W 3101  40.533  33.363  13.210
36671W        W 3102  40.401  37.591  12.661
36672W        W 3103  21.138   2.662   3.530
36673W        W 3104  17.824  19.279  13.631
36674W        W 3105   3.680   6.711   0.712
36675W        W 3106  11.903  18.633  10.707
36676W        W 3107  31.956  12.260   4.647
36677W        W 3108  20.188  38.364  13.601
36678W        W 3109   2.961   7.017  13.554
36679W        W 3110   7.346   8.930  14.789
36680W        W 3111  24.608  13.536   1.116
36681W        W 3112   8.243  15.076   3.361
36682W        W 3113  11.339   7.319   0.761
36683W        W 3114   3.861   7.010   1.103
36684W        W 3115   7.623  15.869  13.171
36685W        W 3116  22.270  27.201  10.669
36686W        W 3117   2.535  11.960  11.591
36687W        W 3118  21.597  30.372  14.833
36688W        W 3119  38.990   9.962  12.113
36689W        W 3120  33.104  36.376   4.985
36690W        W 3121  32.850  26.988   2.626
36691W        W 3122  33.379  34.496   4.777
36692W        W 3123  15.092  19.288  13.033
36693W        W 3124  36.398  18.033  13.406
36694W        W 3125  25.987  36.386  10.989
36695W        W 3126   8.242  13.547   3.755
36696W        W 3127  11.572   1.338  14.796
36697W        W 3128   1.291  30.036   4.623
36698W        W 3129  22.257  17.120  10.973
36699W        W 3130   6.148  24.817   4.084
36700W        W 3131  26.094   1.671  11.092
36701W        W 3132  19.193  32.451  13.806
36702W        W 3133  16.707  22.735   2.610
36703W        W 3134  44.657  34.059  13.432
36704W        W 3135  42.284  28.605  13.840
36705W        W 3136   7.115  42.837   0.971
36706W        W 3137  38.395   4.029  13.552
36707W        W 3138  15.496  25.152   1.651
36708W        W 3139  38.297  30.861   0.072
36709W        W 3140  26.089  15.985  11.246
36710W        W 3141  32.634  17.234  12.980
36711W        W 3142  21.527  18.604   2.316
36712W        W 3143  26.458  43.007  10.161
36713W        W 3144  20.713  13.264   3.769
36714W        W 3145  16.219  28.025  10.663
36715W        W 3146  26.938  31.466   0.452
36716W        W 3147  32.563  19.142  11.961
36717W        W 3148  32.868  26.991   4.153
36718W        W 3149   9.697  38.725   0.688
36719W        W 3150  25.696   0.033   4.140
36720W        W 3151  29.835   0.616   4.143
36721W        W 3152  31.843  24.551   2.369
36722W        W 3153  14.691  42.833   2.052
36723W        W 3154   7.389  21.545   1.795
36724W        W 3155  11.936  38.975  11.172
36725W        W 3156  10.602   4.857  14.576
36726W        W 3157  30.166  43.364   1.944
36727W        W 3158  43.501  41.776  12.280
36728W        W 3159  42.315  20.679  11.146
36729W        W 3160  44.234  28.281   4.367
36730W        W 3161  13.243  13.033   4.732
36731W        W 3162  40.685  22.640   1.780
36732W        W 3163  36.145  12.274   0.310
36733W        W 3164  22.110  14.784  10.505
36734W        W 3165  40.122   3.346   0.707
36735W        W 3166  39.283  29.602  12.359
36736W        W 3167  37.007  38.267   0.700
36737W        W 3168  42.339  26.046  14.784
36738W        W 3169   7.250  12.839   2.661
36739W        W 3170  20.551  29.470   1.415
36740W        W 3171  25.358  30.228   1.838
36741W        W 3172  36.112  29.215  10.689
36742W        W 3173  27.066  11.341   4.560
36743W        W 3174  19.202  24.230   3.149
36744W        W 3175   6.159  42.322   1.934
36745W        W 3176  31.372   1.646  13.935
36746W        W 3177  44.862  13.761   1.445
36747W        W 3178  31.556  20.623  14.838
36748W        W 3179  40.596  42.751   3.228
36749W        W 3180  36.007  17.544   2.665
36750W        W 3181  36.340  31.053  11.178
36751W        W 3182  24.621  29.442   0.514
36752W        W 3183  35.867  26.952  13.515
36753W        W 3184  14.090  21.551   0.421
36754W        W 3185  40.964  26.674   3.205
36755W        W 3186   7.419  41.288   1.474
36756W        W 3187  36.141  40.445  13.957
36757W        W 3188  37.531  24.644   2.407
36758W        W 3189  34.468  39.846   1.387
36759W        W 3190   5.171  21.285  11.953
36760W        W 3191  16.825  34.626   3.178
36761W        W 3192   4.253  13.774  13.010
36762W        W 3193  12.090  40.410   0.323
36763W        W 3194  15.164  36.931   0.272
36764W        W 3195  32.582   7.286   0.407
36765W        W 3196  31.908  14.162  14.751
36766W        W 3197  21.736  18.093  14.233
36767W        W 3198  22.015  16.168  14.357
36768W        W 3199  11.204  20.126  14.290
36769W        W 3200  32.037   1.707  12.558
36770W        W 3201  11.356  42.048  14.910
36771W        W 3202  17.075   1.878   3.396
36772W        W 3203   1.278  11.659  12.465
36773W        W 3204   0.439  42.980  12.218
36774W        W 3205  32.774  12.190   1.705
36775W        W 3206  26.443  32.294  12.901
36776W        W 3207   3.124  25.229  10.317
36777W        W 3208  14.130  19.690   0.736
36778W        W 3209  32.883  32.544   3.177
36779W        W 3210  23.988  19.601   5.243
36780W        W 3211  28.735  36.537   0.863
36781W        W 3212  12.348   1.927  14.846
36782W        W 3213  19.363  36.867   0.265
36783W        W 3214   2.749  10.384   2.685
36784W        W 3215  33.458  42.431   1.177
36785W        W 3216  43.052  15.151  10.795
36786W        W 3217  10.606  41.835  12.280
36787W        W 3218  42.523  23.130  11.150
36788W        W 3219  27.131  35.860   0.323
36789W        W 3220  22.686   1.371   2.184
36790W        W 3221   1.267  34.406  12.779
36791W        W 3222  15.562  12.853   1.217
36792W        W 3223  33.850   2.366   3.053
36793W        W 3224  38.550   9.043  14.367
36794W        W 3225   6.511   1.218  12.476
36795W        W 3226  24.628  27.950   1.146
36796W        W 3227  27.674  14.905   4.754
36797W        W 3228  29.045   3.582   1.898
36798W        W 3229   2.257   0.451   0.391
36799W        W 3230  39.277  34.131   3.335
36800W        W 3231  29.297  32.974  13.433
36801W        W 3232  44.991  21.064   3.128
36802W        W 3233  27.142   4.337   3.330
36803W        W 3234   6.430  15.725  10.735
36804W        W 3235  24.670  23.798  14.981
36805W        W 3236  41.537   8.190   4.243
36806W        W 3237  32.130  42.184   1.273
36807W        W 3238  40.827  24.426   1.783
36808W        W 3239  13.789   5.072  13.452
36809W        W 3240  31.007  40.461   2.848
36810W        W 3241  10.403  30.454   3.716
36811W        W 3242  30.600  21.158   2.931
36812W        W 3243  20.567  39.080  14.046
36813W        W 3244  33.371  23.717   2.690
36814W        W 3245  20.284  28.102   0.449
36815W        W 3246  11.056  28.937   2.151
36816W        W 3247  16.389  28.822  13.366
36817W        W 3248  16.978  37.096  11.385
36818W        W 3249   7.948  20.787   4.569
36819W        W 3250  19.631  16.272  13.830
36820W        W 3251  25.217  42.299  10.749
36821W        W 3252  40.959  34.114  13.496
36822W        W 3253  23.350  39.409  11.541
36823W        W 3254   3.886   5.301   2.914
36824W        W 3255  24.896  23.854   2.185
36825W        W 3256   4.753   6.232   4.998
36826W        W 3257  39.252  24.469  10.949
36827W        W 3258  25.750  22.376  13.880
36828W        W 3259  30.455  43.331  13.758
36829W        W 3260  31.949  37.252  13.036
36830W        W 3261  23.255  39.358  12.469
36831W        W 3262  21.234  37.199  11.511
36832W        W 3263  13.554  30.951   0.816
36833W        W 3264  44.309   8.683   0.096
36834W        W 3265   8.895  24.566  14.309
36835W        W 3266  39.765  15.357  13.177
36836W        W 3267  30.018  12.206   3.530
36837W        W 3268  43.008  38.335   0.840
36838W        W 3269  16.459  40.407  11.903
36839W        W 3270   0.352  37.941   0.863
36840W        W 3271  44.524   3.782   4.913
36841W        W 3272  13.077  30.657   2.702
36842W        W 3273  10.418  38.168   1.316
36843W        W 3274  41.541  30.739   1.389
36844W        W 3275  17.582  34.559  13.640
36845W        W 3276  25.065  18.830   2.910
36846W        W 3277  29.454   8.875  11.693
36847W        W 3278  12.122  44.069   4.123
36848W        W 3279  14.192  18.272  13.402
36849W        W 3280  18.075   0.308   1.716
36850W        W 3281  42.999   5.435  13.006
36851W        W 3282  35.568   2.890   3.595
36852W        W 3283  28.460  31.495   3.615
36853W        W 3284  21.522  12.585  14.506
36854W        W 3285  33.181  30.172  13.403
36855W        W 3286  20.300  15.061   0.062
36856W        W 3287  31.307   5.776   2.911
36857W        W 3288  21.980  19.601  11.608
36858W        W 3289  29.532  12.830   3.713
36859W        W 3290  13.088  11.258  12.928
36860W        W 3291  22.531  19.129   2.292
36861W        W 3292  10.340  20.243   3.693
36862W        W 3293  23.268  28.990  13.791
36863W        W 3294  42.651  16.250  12.465
36864W        W 3295  25.583  22.679   4.775
36865W        W 3296  36.524   8.438   5.019
36866W        W 3297  42.237  41.950   0.880
36867W        W 3298  13.595   2.039   2.418
36868W        W 3299  35.213  35.647   3.223
36869W        W 3300   6.505  12.121   2.698
36870W        W 3301  30.999  26.381  14.682
36871W        W 3302  12.586  15.863  10.643
36872W        W 3303  38.423  21.767   3.808
36873W        W 3304  35.512  41.944   9.457
36874W        W 3305  30.560  16.361  13.278
36875W        W 3306  11.839  20.734  14.684
36876W        W 3307   7.299  41.009   2.632
36877W        W 3308  13.341  41.821   4.412
36878W        W 3309   0.994  13.629   0.370
36879W        W 3310  26.969   4.215   3.805
36880W        W 3311  35.101  13.929  13.351
36881W        W 3312   2.413  25.174   4.622
36882W        W 3313  38.158  41.440   4.204
36883W        W 3314  39.437  41.508  13.046
36884W        W 3315  21.455  33.348  14.436
36885W        W 3316   8.848  35.916   0.912
36886W        W 3317  19.380  28.286   4.192
36887W        W 3318  44.507  19.103   0.271
36888W        W 3319  38.419   0.710  13.473
36889W        W 3320   6.732  23.320  11.201
36890W        W 3321  31.094  31.711   2.950
36891W        W 3322  14.366  14.303  14.355
36892W        W 3323   6.256  28.526   0.350
36893W        W 3324  12.176  41.501  13.873
36894W        W 3325  14.792   8.723  11.064
36895W        W 3326  34.556  16.846   0.412
36896W        W 3327  16.673  41.491  13.323
36897W        W 3328  40.192  24.306  11.471
36898W        W 3329  17.138   9.938   4.972
36899W        W 3330  25.097  28.871  14.204
36900W        W 3331  16.335  35.861  14.869
36901W        W 3332  39.526   2.966  14.232
36902W        W 3333  41.849  19.574   2.092
36903W        W 3334   7.406  18.248  11.022
36904W        W 3335  31.307   9.911   0.156
36905W        W 3336  10.389  22.049   0.981
36906W        W 3337  28.133  30.189   0.066
36907W        W 3338   2.957  31.693   3.662
36908W        W 3339  39.962  29.413  10.511
36909W        W 3340  34.462  26.276   2.897
36910W        W 3341   9.734   8.185  13.964
36911W        W 3342  22.505  23.623   0.190
36912W        W 3343  20.190   6.177  14.350
36913W        W 3344  30.227  41.424  11.420
36914W        W 3345  14.652  27.202  13.368
36915W        W 3346  17.229  19.335  10.588
36916W        W 3347  37.251  12.655  12.496
36917W        W 3348  31.498   5.277  14.425
36918W        W 3349  19.891  23.620   3.139
36919W        W 3350  22.801  17.417  13.612
36920W        W 3351  44.678  23.012  14.279
36921W        W 3352   8.329  24.616   2.686
36922W        W 3353  41.717   9.844   1.890
36923W        W 3354  18.521  20.240   1.335
36924W        W 3355   5.926   0.505  12.902
36925W        W 3356  42.255   4.398   0.787
36926W        W 3357  22.053  14.837   0.722
36927W        W 3358  12.320   1.017  13.908
36928W        W 3359  41.274  41.703  13.047
36929W        W 3360  14.139   8.278  12.618
36930W        W 3361  25.442  23.971   3.497
36931W        W 3362   7.577  15.672  13.984
36932W        W 3363  29.016  26.228  12.390
36933W        W 3364  33.410  14.315  11.051
36934W        W 3365   5.383  22.654   3.382
36935W        W 3366  35.682  19.668  13.047
36936W        W 3367  37.249   2.403   4.114
36937W        W 3368  12.826   3.993  13.636
36938W        W 3369   2.498  10.484   1.843
36939W        W 3370  41.797  22.949   3.321
36940W        W 3371  40.663  23.252  13.332
36941W        W 3372  35.056   1.464   0.980
36942W        W 3373  43.031  27.511  11.562
36943W        W 3374  21.010  26.931  14.531
36944W        W 3375  32.769  16.184   3.356
36945W        W 3376  16.367  23.667   1.266
36946W        W 3377  20.892  41.654   4.710
36947W        W 3378  26.945  12.252  13.324
36948W        W 3379  37.580  15.736   1.614
36949W        W 3380   6.041  26.465  10.511
36950W        W 3381  27.468  10.424  14.656
36951W        W 3382  11.969   7.750  11.629
36952W        W 3383   1.515  10.692  13.283
36953W        W 3384  44.322   3.259  10.319
36954W        W 3385  14.640   8.661   4.536
36955W        W 3386   1.137   6.265   3.239
36956W        W 3387  36.635   9.006  14.501
36957W        W 3388  23.836  34.160  10.169
36958W        W 3389  32.382  36.010   5.075
36959W        W 3390   9.370  18.168   0.229
36960W        W 3391  17.992   0.713  10.754
36961W        W 3392   0.240  35.572   4.014
36962W        W 3393  25.599   4.022  11.964
36963W        W 3394   2.233  30.873   2.794
36964W        W 3395  30.968  24.305  12.975
36965W        W 3396   7.090  42.473   2.780
36966W        W 3397  44.572  21.153   3.432
36967W        W 3398  40.814   1.287  10.807
36968W        W 3399   5.140  37.363   2.707
36969W        W 3400  32.271  42.356  11.083
36970W        W 3401   8.388  13.750   1.961
36971W        W 3402  28.118  14.710  12.484
36972W        W 3403   0.782   1.968   5.144
36973W        W 3404  36.247  25.714   4.136
36974W        W 3405  10.320  25.779  14.531
36975W        W 3406   5.381  30.603  13.812
36976W        W 3407  44.176  23.579  13.560
36977W        W 3408  29.131   2.163  14.856
36978W        W 3409  29.717  35.499   2.671
36979W        W 3410  16.929  18.588   9.965
36980W        W 3411  36.295  11.235   3.198
36981W        W 3412   0.059  22.516  10.753
36982W        W 3413  43.028  40.412   4.393
36983W        W 3414  20.290  24.953   1.183
36984W        W 3415   8.504  44.532   3.041
36985W        W 3416  17.052  44.582   2.427
36986W        W 3417  35.360  35.226  13.439
36987W        W 3418   0.971  32.929  14.715
36988W        W 3419  22.244  13.132   2.358
36989W        W 3420  36.864   4.469  14.766
36990W        W 3421  42.792   3.570   4.247
36991W        W 3422  13.878  44.771   2.266
36992W        W 3423  42.306  26.733  13.783
36993W        W 3424   4.161  43.444   0.073
36994W        W 3425  12.237  18.350  10.433
36995W        W 3426   3.250  31.129  11.972
36996W        W 3427  16.866  19.985   0.814
36997W        W 3428  15.666  33.115  11.624
36998W        W 3429  19.563  29.148  11.994
36999W        W 3430  32.123   8.931   3.461
37000W        W 3431  22.022  28.502   1.814
37001W        W 3432  22.011  14.736  14.710
37002W        W 3433  26.999  21.220   0.321
37003W        W 3434  13.169  14.165  10.456
37004W        W 3435  21.249  29.098   1.698
37005W        W 3436  22.539  44.870   0.647
37006W        W 3437  36.044  40.930   1.179
37007W        W 3438   3.431  26.192  12.071
37008W        W 3439  31.682  28.636   3.697
37009W        W 3440   9.329  16.148  13.431
37010W        W 3441  43.820  21.173   2.881
37011W        W 3442  35.908   9.101  14.358
37012W        W 3443  24.437   0.819  10.513
37013W        W 3444  35.345  24.935  11.522
37014W        W 3445  34.436  14.725   2.374
37015W        W 3446  17.237   2.185  14.576
37016W        W 3447  38.371  43.389  11.190
37017W        W 3448  31.200  37.351  14.872
37018W        W 3449   1.262  29.989  10.832
37019W        W 3450  12.718  12.380  14.355
37020W        W 3451  27.756  13.055  12.144
37021W        W 3452  24.271  42.441  14.306
37022W        W 3453  31.339  31.002  11.908
37023W        W 3454   9.745   8.564   2.674
37024W        W 3455  34.471  11.684   2.100
37025W        W 3456  39.475  19.085   3.603
37026W        W 3457  15.611  18.578  11.563
37027W        W 3458  23.724  24.130  13.843
37028W        W 3459   6.230  20.161   1.730
37029W        W 3460   4.316  44.700   1.366
37030W        W 3461   7.064  41.159   2.195
37031W        W 3462  19.795  26.889   3.132
37032W        W 3463  37.639  21.678  12.340
37033W        W 3464  21.135  21.393   1.811
37034W        W 3465  38.502  23.912  14.453
37035W        W 3466   4.282  24.485   2.191
37036W        W 3467   4.764   5.522   4.922
37037W        W 3468  32.660  26.161   2.443
37038W        W 3469  28.063  17.139  12.350
37039W        W 3470  27.920  19.570   1.294
37040W        W 3471  27.129  43.942   3.681
37041W        W 3472  18.061  13.320  10.721
37042W        W 3473   6.143  40.437   4.953
37043W        W 3474  32.667  14.800   1.678
37044W        W 3475  38.478  13.848   2.817
37045W        W 3476   6.283  42.250   3.861
37046W        W 3477   4.387  16.804   2.481
37047W        W 3478  41.487   0.938   4.122
37048W        W 3479  40.335  17.947   2.794
37049W        W 3480   0.770  18.797   1.794
37050W        W 3481   9.112  22.882  10.988
37051W        W 3482  12.695  30.498  14.125
37052W        W 3483  35.165  37.526  12.614
37053W        W 3484   3.547  34.003  13.369
37054W        W 3485  20.532  33.854  12.882
37055W        W 3486  30.523  14.089   2.120
37056W        W 3487  43.748   7.835  11.556
37057W        W 3488  32.131  10.363  12.402
37058W        W 3489  25.263  41.110   0.242
37059W        W 3490  11.084  13.285   4.074
37060W        W 3491  39.529   9.339   1.266
37061W        W 3492  15.583  36.457   0.722
37062W        W 3493  15.937  36.709   2.744
37063W        W 3494  42.275  16.162   2.060
37064W        W 3495  19.697  40.657  12.772
37065W        W 3496  42.312  24.724  14.507
37066W        W 3497  36.483   2.200  14.115
37067W        W 3498  28.211  18.288   3.678
37068W        W 3499  21.961  37.570   4.491
37069W        W 3500  39.250  32.270   0.861
37070W        W 3501  29.382  36.958  13.899
37071W        W 3502  20.665  22.737   4.055
37072W        W 3503  16.184  41.515  13.485
37073W        W 3504  39.417  29.165  12.849
37074W        W 3505  16.639  29.096  14.108
37075W        W 3506  11.377  27.683  14.820
37076W        W 3507   9.686   0.518   0.785
37077W        W 3508  16.298  18.248   3.161
37078W        W 3509  27.043   3.886  14.337
37079W        W 3510  37.111  21.333  12.983
37080W        W 3511   5.723  27.052   2.438
37081W        W 3512  17.225  25.959   1.950
37082W        W 3513  22.984   2.345  14.960
37083W        W 3514  31.290  28.345   0.202
37084W        W 3515   5.371  38.902   1.312
37085W        W 3516  11.290  26.135  14.855
37086W        W 3517  20.549  38.483  12.845
37087W        W 3518  26.850  38.386   1.814
37088W        W 3519   3.867  44.531  12.511
37089W        W 3520  24.113  32.128  12.056
37090W        W 3521  15.530   0.563  14.844
37091W        W 3522  28.757   5.826  11.226
37092W        W 3523  25.496  18.105   0.010
37093W        W 3524  27.103  32.113   1.207
37094W        W 3525  22.437  23.054   3.631
37095W        W 3526  18.099  31.972   3.835
37096W        W 3527   2.494  43.588   2.276
37097W        W 3528  41.565  27.996  14.018
37098W        W 3529   0.071  19.145   5.057
37099W        W 3530   6.477  33.485  11.272
37100W        W 3531  27.651  19.224   0.637
37101W        W 3532  38.031  21.401   1.286
37102W        W 3533  27.154  31.005   0.327
37103W        W 3534  35.029   5.348   4.476
37104W        W 3535  28.137  25.165   1.468
37105W        W 3536  42.445  21.168   0.669
37106W        W 3537  17.074   2.779   3.256
37107W        W 3538  23.693  38.530   0.912
37108W        W 3539   1.069  29.198  11.811
37109W        W 3540  38.241   2.303   2.228
37110W        W 3541   5.866  19.831  11.239
37111W        W 3542  22.067  29.402   1.357
37112W        W 3543  37.319  10.100  11.461
37113W        W 3544  31.235  42.339   2.286
37114W        W 3545  24.667  39.302  11.515
37115W        W 3546  20.780  29.734  14.451
37116W        W 3547  12.144   0.492  11.585
37117W        W 3548  32.601  41.365   3.832
37118W        W 3549  32.499  25.739  12.068
37119W        W 3550   6.393  39.322  11.636
37120W        W 3551  43.925   3.765   2.093
37121W        W 3552  35.352   4.111  14.902
37122W        W 3553   1.017  32.861  11.953
37123W        W 3554   5.418  29.499   0.971
37124W        W 3555  23.221  42.328  10.965
37125W        W 3556  17.060   2.761   0.839
37126W        W 3557   2.377  33.552  11.114
37127W        W 3558  40.073  23.685   0.989
37128W        W 3559   0.212   7.650  12.080
37129W        W 3560  26.619  12.717   9.843
37130W        W 3561   1.516  41.896  10.800
37131W        W 3562  28.139  39.398  10.739
37132W        W 3563  38.867  29.586  11.317
37133W        W 3564  37.310  25.135   4.748
37134W        W 3565  37.081  26.966   4.260
37135W        W 3566  39.527  26.484   4.714
37136W        W 3567   2.971  12.991  13.081
37137W        W 3568  18.029  14.736  12.086
37138W        W 3569   7.280  25.814  12.781
37139W        W 3570  22.341  19.996  11.581
37140W        W 3571  14.339   1.714   1.643
37141W        W 3572  11.128  10.578   3.269
37142W        W 3573  22.753  29.531  12.595
37143W        W 3574  14.382  39.972  14.525
37144W        W 3575  12.645   7.604   3.405
37145W        W 3576  42.390  30.976  10.553
37146W        W 3577  41.093  38.587   1.819
37147W        W 3578  16.294  23.230  11.118
37148W        W 3579  20.658   5.129  14.058
37149W        W 3580  42.685  32.634   3.511
37150W        W 3581  43.981  17.196  14.427
37151W        W 3582  29.553  18.390  10.077
37152W        W 3583   8.553   6.556  10.659
37153W        W 3584  43.707   3.335   5.006
37154W        W 3585  17.071  35.505   2.139
37155W        W 3586  26.340   8.166  13.406
37156W        W 3587  44.519  42.461   0.844
37157W        W 3588  26.372  31.732  10.739
37158W        W 3589  11.948  23.337  13.120
37159W        W 3590  22.589  23.681  11.984
37160W        W 3591  16.549  39.190  12.623
37161W        W 3592  37.974   9.155  13.523
37162W        W 3593  33.557  13.295  12.909
37163W        W 3594  34.580   6.942  12.496
37164W        W 3595  16.071  41.835  12.357
37165W        W 3596  33.642  19.342  12.885
37166W        W 3597  44.970  43.876   1.204
37167W        W 3598  38.532  13.671   1.360
37168W        W 3599  15.663  28.531   1.270
37169W        W 3600   3.854  44.323   3.554
37170W        W 3601   1.640  18.060  13.467
37171W        W 3602   0.780  26.702   0.405
37172W        W 3603   7.632  12.666   3.451
37173W        W 3604  31.289  10.939   4.726
37174W        W 3605  36.046   3.729  14.877
37175W        W 3606  20.387  30.901  14.092
37176W        W 3607  22.162   5.783   0.291
37177W        W 3608  18.238  43.408   4.017
37178W        W 3609  38.377  13.233  14.474
37179W        W 3610   3.741  33.573  11.600
37180W        W 3611  27.026   4.401  14.672
37181W        W 3612  24.985  30.782  14.289
37182W        W 3613  14.268  24.313  14.231
37183W        W 3614   3.729   5.983  14.512
37184W        W 3615  43.053   5.555   1.399
37185W        W 3616  11.463  14.811  11.418
37186W        W 3617  38.712  42.068  13.036
37187W        W 3618  25.146   1.297   2.235
37188W        W 3619  41.316  21.241   3.415
37189W        W 3620   9.868  40.210  11.862
37190W        W 3621  26.406  22.688  10.640
37191W        W 3622  22.977  28.946   4.927
37192W        W 3623  27.603   2.334   0.936
37193W        W 3624  33.191  13.527   4.350
37194W        W 3625  31.402  20.138   0.268
37195W        W 3626  24.220  38.522  13.145
37196W        W 3627   2.735   8.775   0.242
37197W        W 3628  14.375  32.478  13.035
37198W        W 3629  27.531  21.741  11.596
37199W        W 3630  42.261   4.305   2.750
37200W        W 3631  32.607  32.140  11.784
37201W        W 3632   9.503  20.005  14.614
37202W        W 3633  16.813  12.248  12.151
37203W        W 3634   4.796  11.447  12.636
37204W        W 3635   0.744   2.214  14.872
37205W        W 3636   8.864  29.767   4.380
37206W        W 3637  38.500   1.492  13.132
37207W        W 3638  26.876  19.972  10.728
37208W        W 3639   7.987  12.930  12.757
37209W        W 3640  42.902   9.092   4.615
37210W        W 3641  20.992  38.800   1.021
37211W        W 3642  23.996  18.135   3.836
37212W        W 3643  30.916  25.040  11.473
37213W        W 3644  24.353  38.951  14.935
37214W        W 3645  16.730  22.661   1.704
37215W        W 3646  23.610  40.245  13.347
37216W        W 3647  29.400  30.421  10.856
37217W        W 3648   2.397   8.615  12.135
37218W        W 3649  32.157  42.856  11.180
37219W        W 3650  23.506   9.824  13.805
37220W        W 3651  17.209  25.591   3.744
37221W        W 3652  37.315  14.600  11.366
37222W        W 3653   5.546  33.005   4.282
37223W        W 3654  37.475  21.050   2.251
37224W        W 3655  37.922  37.920  13.417
37225W        W 3656  24.734  14.291   0.773
37226W        W 3657   2.979   3.807  11.333
37227W        W 3658   5.134   2.547   2.709
37228W        W 3659  35.441   0.797  14.015
37229W        W 3660  29.401  23.068   4.605
37230W        W 3661  43.202  11.092   0.300
37231W        W 3662  43.190   1.795   0.002
37232W        W 3663  21.231   1.568  12.903
37233W        W 3664  42.797   7.679  14.053
37234W        W 3665  33.800   3.029  13.109
37235W        W 3666   8.130   9.862   0.419
37236W        W 3667  42.436  17.570  13.097
37237W        W 3668  38.918  41.376  12.543
37238W        W 3669  20.376  39.370   2.909
37239W        W 3670  38.467  33.944  14.135
37240W        W 3671   9.751  38.886  12.301
37241W        W 3672  16.673  30.595   2.784
37242W        W 3673   4.858   3.270  11.997
37243W        W 3674  23.779  15.593  12.388
37244W        W 3675  39.882  40.922  12.475
37245W        W 3676  21.696   0.210   3.324
37246W        W 3677  19.250  19.004  12.044
37247W        W 3678   0.175  42.015   4.056
37248W        W 3679   0.811  14.074  10.787
37249W        W 3680  38.468  22.677  13.267
37250W        W 3681  20.707   8.418  14.817
37251W        W 3682  37.703  21.912   1.994
37252W        W 3683  13.869  40.051  11.609
37253W        W 3684  39.384  14.378   2.883
37254W        W 3685  27.192  12.444  12.052
37255W        W 3686  31.431  15.437   4.043
37256W        W 3687   3.855  13.004  13.330
37257W        W 3688  35.589  44.029   3.292
37258W        W 3689   6.545   6.653  10.896
37259W        W 3690  33.644  22.182   0.872
37260W        W 3691   0.997  22.756  10.455
37261W        W 3692  13.267   1.612   1.524
37262W        W 3693  26.502  29.371  13.873
37263W        W 3694  27.584  42.744  12.488
37264W        W 3695  28.026  16.543   0.519
37265W        W 3696  37.978   0.411  13.514
37266W        W 3697  36.353   4.903  14.655
37267W        W 3698  24.782  43.881  10.739
37268W        W 3699   7.279  19.716  12.947
37269W        W 3700   9.102  28.542  11.925
37270W        W 3701   1.082  34.963  14.484
37271W        W 3702  36.601  13.826   0.978
37272W        W 3703   8.529  25.375   5.156
37273W        W 3704  34.800   7.987   4.681
37274W        W 3705   0.041  19.254  11.626
37275W        W 3706  25.994   3.236  11.044
37276W        W 3707  20.591  41.923  11.134
37277W        W 3708  19.978  31.091   2.343
37278W        W 3709  28.036   6.407   1.320
37279W        W 3710   9.731  22.029  10.494
37280W        W 3711  23.797   1.689   2.605
37281W        W 3712  25.001   6.688  14.337
37282W        W 3713  40.319  10.700   2.248
37283W        W 3714  27.130   3.059   4.490
37284W        W 3715  21.192  14.590  12.762
37285W        W 3716   4.710  13.819  14.217
37286W        W 3717  40.134   7.350  12.462
37287W        W 3718   8.637  20.348   3.310
37288W        W 3719   0.386  42.898   2.866
37289W        W 3720  25.234  34.505  14.780
37290W        W 3721  19.112  27.018  12.502
37291W        W 3722  33.894  28.019  10.221
37292W        W 3723   3.278  22.608  11.570
37293W        W 3724  38.343  11.356  13.389
37294W        W 3725  20.571  26.677   2.681
37295W        W 3726  13.144  31.497  10.755
37296W        W 3727  31.075  37.820  13.986
37297W        W 3728   0.605   5.235   3.772
37298W        W 3729  23.109   3.779  13.924
37299W        W 3730  25.498  42.484   0.274
37300W        W 3731   0.938  19.415  13.134
37301W        W 3732  16.168  13.583   4.355
37302W        W 3733  30.950  27.259  11.158
37303W        W 3734  29.889   4.730  12.493
37304W        W 3735  24.236   0.694   0.231
37305W        W 3736   1.909   1.654  13.953
37306W        W 3737  14.366  21.804  11.127
37307W        W 3738   8.860  24.119  11.076
37308W        W 3739   7.913   1.020   1.005
37309W        W 3740   5.940  32.915  10.742
37310W        W 3741  32.906  44.480   1.722
37311W        W 3742  25.560  43.781   0.232
37312W        W 3743  19.711  29.111  14.473
37313W        W 3744  31.945  14.089   1.290
37314W        W 3745  26.067   3.252  12.486
37315W        W 3746  41.614   2.432  13.041
37316W        W 3747  21.207  21.582  10.727
37317W        W 3748  13.814  16.910   1.198
37318W        W 3749  41.105  15.813  11.508
37319W        W 3750   0.283  38.046  13.203
37320W        W 3751  35.819  27.573  11.676
37321W        W 3752  36.753  38.866  12.247
37322W        W 3753   7.708  17.885   2.218
37323W        W 3754  44.252   3.743   2.713
37324W        W 3755  44.288  27.120  13.266
37325W        W 3756  15.063  39.405  12.517
37326W        W 3757  11.787  35.703   0.006
37327W        W 3758  44.907   1.996   3.846
37328W        W 3759   2.195   7.209   3.159
37329W        W 3760  24.513  20.809  14.220
37330W        W 3761   7.197  15.142   3.153
37331W        W 3762  15.510  31.064   4.037
37332W        W 3763  41.696  28.180   3.192
37333W        W 3764  16.725  35.318   0.691
37334W        W 3765   8.628  21.193  12.412
37335W        W 3766  26.092  27.959  13.363
37336W        W 3767  35.274  11.229  11.961
37337W        W 3768  28.999  20.019   3.929
37338W        W 3769  21.189  10.338  13.049
37339W        W 3770  20.984   1.962  11.863
37340W        W 3771   7.705  38.616   4.564
37341W        W 3772  42.420  26.939  11.161
37342W        W 3773  24.213  29.976   1.391
37343W        W 3774  18.576  10.575   4.559
37344W        W 3775  12.665  12.150   1.362
37345W        W 3776   4.783  44.790   3.366
37346W        W 3777  11.889  20.054  11.703
37347W        W 3778  26.095  24.747  12.962
37348W        W 3779  13.167  30.431  11.507
37349W        W 3780  40.930  19.463  11.113
37350W        W 3781  34.520   2.819  10.713
37351W        W 3782  32.222  33.416  14.874
37352W        W 3783   7.680  21.297  11.225
37353W        W 3784  39.355  33.924  14.355
37354W        W 3785  15.554  12.607  11.037
37355W        W 3786  23.267  12.603  13.914
37356W        W 3787   0.814  18.527  12.673
37357W        W 3788  41.161  15.113  13.004
37358W        W 3789  32.415   4.248   3.888
37359W        W 3790   2.092  32.960   4.796
37360W        W 3791  30.706   4.978   2.382
37361W        W 3792   5.516   3.347  14.936
37362W        W 3793  38.164   6.831   2.767
37363W        W 3794  21.734  42.556   4.139
37364W        W 3795  36.026  42.050  11.510
37365W        W 3796  42.292  24.786  12.546
37366W        W 3797  27.644   7.887  14.321
37367W        W 3798  34.805  40.000  14.007
37368W        W 3799  31.684   0.230  14.885
37369W        W 3800  29.030  15.827   2.157
37370W        W 3801  34.066   0.879   0.930
37371W        W 3802   3.426  43.083   0.401
37372W        W 3803  19.263   9.142  13.272
37373W        W 3804  38.581   6.712   1.280
37374W        W 3805   0.460  11.601  11.545
37375W        W 3806   4.763   1.834   4.919
37376W        W 3807  21.712  39.590   4.683
37377W        W 3808  30.925  26.079   2.600
37378W        W 3809  15.775  27.523   3.022
37379W        W 3810  20.977  27.638   2.671
37380W        W 3811  31.398  13.307  14.926
37381W        W 3812  43.879  44.200  11.603
37382W        W 3813  16.269  23.754  12.144
37383W        W 3814  28.677   4.488   2.206
37384W        W 3815   3.772  38.295   4.708
37385W        W 3816  24.506  38.548  11.034
37386W        W 3817  15.009  39.820  12.890
37387W        W 3818  35.307  44.069   2.388
37388W        W 3819  44.347  18.156   2.690
37389W        W 3820  33.102  39.924   2.796
37390W        W 3821  13.576   7.849  14.426
37391W        W 3822  41.076  40.777   2.752
37392W        W 3823  14.513  20.698  11.150
37393W        W 3824  14.198  28.984  11.195
37394W        W 3825  34.682  18.606  10.746
37395W        W 3826  13.387   4.206  14.364
37396W        W 3827  18.090  29.994  13.991
37397W        W 3828  40.566  38.875  12.052
37398W        W 3829  39.571  12.865  12.083
37399W        W 3830   7.678   1.443  11.210
37400W        W 3831  14.126  28.209  14.011
37401W        W 3832  37.318  22.098   1.701
37402W        W 3833  43.956  12.090   4.488
37403W        W 3834  19.539  28.471  14.411
37404W        W 3835  21.029  28.376   4.063
37405W        W 3836  22.767  18.047  12.096
37406W        W 3837  42.786   3.744   3.755
37407W        W 3838  14.722  31.561   1.431
37408W        W 3839  32.433   6.829   4.337
37409W        W 3840  25.576  16.597   2.842
37410W        W 3841  26.924  21.595   3.160
37411W        W 3842  33.682   2.776  11.249
37412W        W 3843  32.604  26.957   0.275
37413W        W 3844  33.340  15.862   2.878
37414W        W 3845  27.632  30.938   3.777
37415W        W 3846  21.070  38.953  13.980
37416W        W 3847  30.038   4.468   1.326
37417W        W 3848  10.588  25.155   2.797
37418W        W 3849  23.302  17.165   3.194
37419W        W 3850  15.133   2.700  11.891
37420W        W 3851  40.629  35.756  12.230
37421W        W 3852  38.946   7.231  11.428
37422W        W 3853   1.424  34.817   4.545
37423W        W 3854  20.996   7.168  10.753
37424W        W 3855  19.050   2.329  10.964
37425W        W 3856   6.227  22.994   4.972
37426W        W 3857  21.028  40.312  14.724
37427W        W 3858  40.195  17.587   0.291
37428W        W 3859  43.782  20.562   2.338
37429W        W 3860  33.131  30.718  14.909
37430W        W 3861  44.055  43.934   2.662
37431W        W 3862  32.904  40.423  10.587
37432W        W 3863   1.930  38.172  12.525
37433W        W 3864  16.484  37.883   3.634
37434W        W 3865  35.983  34.584   3.126
37435W        W 3866  32.482   7.471  11.072
37436W        W 3867  39.587  37.555  10.661
37437W        W 3868   9.292  26.936  12.514
37438W        W 3869  19.967  14.668   0.018
37439W        W 3870  32.408  26.021  10.610
37440W        W 3871  33.067   2.223  12.444
37441W        W 3872   3.940  13.429   4.655
37442W        W 3873  23.715  31.696  10.359
37443W        W 3874  36.805   3.414   3.823
37444W        W 3875  16.292   6.903   3.192
37445W        W 3876  13.044  12.495   4.982
37446W        W 3877  42.462  28.091  10.541
37447W        W 3878   5.192  37.387   4.614
37448W        W 3879  12.287  43.088  14.800
37449W        W 3880  14.747  11.252   1.189
37450W        W 3881  18.324  10.053  14.382
37451W        W 3882  35.602  26.968  13.964
37452W        W 3883  22.497  35.887  10.448
37453W        W 3884  26.418  21.984  10.923
37454W        W 3885  38.643  21.425  13.463
37455W        W 3886  15.004  36.098  13.863
37456W        W 3887   9.861   1.726   3.835
37457W        W 3888  41.532  15.072   2.766
37458W        W 3889   6.250  28.930   3.211
37459W        W 3890  32.514  11.766  12.776
37460W        W 3891  20.092  11.046  11.097
37461W        W 3892  29.034  20.673   2.955
37462W        W 3893   7.406  16.852   2.696
37463W        W 3894  20.828  13.635   2.192
37464W        W 3895  25.112  36.585   2.712
37465W        W 3896  27.943   9.989   5.156
37466W        W 3897   0.270   1.084  11.555
37467W        W 3898  34.873  13.164   3.991
37468W        W 3899  10.263  27.932   3.992
37469W        W 3900  23.670  13.345   0.813
37470W        W 3901  27.070   0.038  14.907
37471W        W 3902  26.587  28.136   4.439
37472W        W 3903   7.850  43.029   3.280
37473W        W 3904  16.834  14.677  12.991
37474W        W 3905  37.439   2.235   3.167
37475W        W 3906  40.458  38.579   4.833
37476W        W 3907  29.704  22.706   1.191
37477W        W 3908  25.139  28.343  14.505
37478W        W 3909  29.628  42.032  12.108
37479W        W 3910  16.526  37.020   3.342
37480W        W 3911  32.669   8.167  12.591
37481W        W 3912  25.766  35.895   2.278
37482W        W 3913  30.576  24.979  14.221
37483W        W 3914  38.073  36.549  14.371
37484W        W 3915  25.081  11.487   4.103
37485W        W 3916   5.946  38.795   2.708
37486W        W 3917  12.346  30.114   1.321
37487W        W 3918  26.000  18.062   1.374
37488W        W 3919  28.072  28.089  13.324
37489W        W 3920   0.951  34.522  13.178
37490W        W 3921  41.079   9.200  12.817
37491W        W 3922  10.355  15.289   2.894
37492W        W 3923  10.021  29.235   0.346
37493W        W 3924   8.291  34.947  10.521
37494W        W 3925  41.528  41.249  13.127
37495W        W 3926  23.645   5.876   3.805
37496W        W 3927  20.848   9.872  14.484
37497W        W 3928  19.195   8.206  13.366
37498W        W 3929  38.410   8.322   4.256
37499W        W 3930   5.918  19.725   1.690
37500W        W 3931   7.982   7.739  11.146
37501W        W 3932  44.600   0.456   0.351
37502W        W 3933  19.263  14.666  12.810
37503W        W 3934   9.085  14.221   3.121
37504W        W 3935  27.730  22.614  12.483
37505W        W 3936  17.411  44.506   1.760
37506W        W 3937  15.297  12.341  13.437
37507W        W 3938  21.693  34.051   4.574
37508W        W 3939  26.957  10.257  13.386
37509W        W 3940  16.807  18.664   1.871
37510W        W 3941   1.383  31.913  14.375
37511W        W 3942  25.238   4.312   2.732
37512W        W 3943  36.788  28.482  12.306
37513W        W 3944  16.471  39.720  12.553
37514W        W 3945  17.133  26.047  14.055
37515W        W 3946  10.159   6.302   2.430
37516W        W 3947  40.522  34.536   4.958
37517W        W 3948  43.815  27.592  14.162
37518W        W 3949  41.445   9.934   2.733
37519W        W 3950  31.190  23.019   2.242
37520W        W 3951  39.952   0.946   0.852
37521W        W 3952   9.616  38.545  13.378
37522W        W 3953  36.228  16.368   4.020
37523W        W 3954   1.352  36.845   2.877
37524W        W 3955  35.495  16.078  12.037
37525W        W 3956  40.071  16.400   0.085
37526W        W 3957  10.254  11.859   4.277
37527W        W 3958  41.514  32.497  14.049
37528W        W 3959  25.543  35.688  12.561
37529W        W 3960  10.905  30.402  13.549
37530W        W 3961  39.924  44.692   4.806
37531W        W 3962  26.960   1.727  11.033
37532W        W 3963  36.830  13.932  13.827
37533W        W 3964   9.595   3.463  13.451
37534W        W 3965  12.867  37.073  12.541
37535W        W 3966   2.205  39.358   0.955
37536W        W 3967  24.721  44.206   2.654
37537W        W 3968  15.227  20.938   0.968
37538W        W 3969   1.062  41.846   1.736
37539W        W 3970  32.548   5.085   3.339
37540W        W 3971   7.908  42.150   4.543
37541W        W 3972  31.358  16.366   1.250
37542W        W 3973  20.971  36.503   2.332
37543W        W 3974  43.797  38.532  14.808
37544W        W 3975  19.729  40.669  11.418
37545W        W 3976  19.014  12.165  13.391
37546W        W 3977  16.167  10.948   4.320
37547W        W 3978  27.988   7.354   0.823
37548W        W 3979  39.603  16.055  12.513
37549W        W 3980  12.102  44.468   0.847
37550W        W 3981  20.997  12.941   4.242
37551W        W 3982   2.151  20.997   0.930
37552W        W 3983  12.758  21.748  10.861
37553W        W 3984   2.320  13.144  12.184
37554W        W 3985  33.812  11.737  12.897
37555W        W 3986  41.875  38.888  12.594
37556W        W 3987  24.506  39.195   3.285
37557W        W 3988  21.857   7.896   3.677
37558W        W 3989  20.071   6.390  12.485
37559W        W 3990  22.716   6.436   2.471
37560W        W 3991  24.480  21.230   0.923
37561W        W 3992  16.152  25.974   1.757
37562W        W 3993  33.876  42.428   0.251
37563W        W 3994   9.972  14.406   4.485
37564W        W 3995  44.911  12.507   0.527
37565W        W 3996  35.936  14.526  14.831
37566W        W 3997  16.333  36.557  11.130
37567W        W 3998  26.910   5.914   3.571
37568W        W 3999   7.061   4.773  10.717
37569W        W 4000   0.309   3.678  11.384
37570W        W 4001   0.355   2.371  11.875
37571W        W 4002  12.283  15.198   3.194
37572W        W 4003  11.290  27.956   1.718
37573W        W 4004  17.453  23.127  10.094
37574W        W 4005  29.131  18.498  14.021
37575W        W 4006  16.179  22.580   4.619
37576W        W 4007  18.987  26.848   1.813
37577W        W 4008  17.173  25.128   0.292
37578W        W 4009  33.596  44.230   4.909
37579W        W 4010  34.863  28.436   2.170
37580W        W 4011  13.653  19.994  11.620
37581W        W 4012   1.781  43.339   2.739
37582W        W 4013   2.561  44.325  10.665
37583W        W 4014  16.741   6.864   0.292
37584W        W 4015   4.876  29.664  14.772
37585W        W 4016  35.626  17.167  13.866
37586W        W 4017  15.536  22.963   4.109
37587W        W 4018  20.597  17.775  10.631
37588W        W 4019  33.979  10.148  11.081
37589W        W 4020  17.998  12.316  13.544
37590W        W 4021  19.251  15.075  11.965
37591W        W 4022  25.655  22.776  10.857
37592W        W 4023  27.240  27.632   3.593
37593W        W 4024   3.430  10.743   0.483
37594W        W 4025   6.913  22.264   2.233
37595W        W 4026  32.630  30.878   2.692
37596W        W 4027   1.200   9.444  11.686
37597W        W 4028  10.744  10.696  12.897
37598W        W 4029  20.456  20.548  11.084
37599W        W 4030  19.117  25.256  11.183
37600W        W 4031  31.666  16.265  10.766
37601W        W 4032   5.424   6.204  12.302
37602W        W 4033   7.950  42.726   0.738
37603W        W 4034  32.598  16.371   0.293
37604W        W 4035  28.239  20.784   0.972
37605W        W 4036  36.588  34.140  10.702
37606W        W 4037  20.790  24.108   4.619
37607W        W 4038  35.475  15.043   4.952
37608W        W 4039   5.430  37.886  14.188
37609W        W 4040   2.012  27.524   2.300
37610W        W 4041  25.272   1.346  11.496
37611W        W 4042  35.600  28.061  11.606
37612W        W 4043  31.081   3.492   3.847
37613W        W 4044   2.807   5.627  13.740
37614W        W 4045   5.775  14.043  11.669
37615W        W 4046   3.494   4.608  13.337
37616W        W 4047   9.543  24.628  13.414
37617W        W 4048   9.447  26.974   1.587
37618W        W 4049  30.418  10.163   3.169
37619W        W 4050  39.013  34.228   0.354
37620W        W 4051  33.648   5.831  13.860
37621W        W 4052  32.248  39.836  10.720
37622W        W 4053  15.739  18.511   1.005
37623W        W 4054  25.193   3.873  14.849
37624W        W 4055  27.178   1.050  14.114
37625W        W 4056   9.194  30.136  13.273
37626W        W 4057  33.952  27.541  14.976
37627W        W 4058  17.370   6.969   4.496
37628W        W 4059  40.366   2.883  12.168
37629W        W 4060  14.661  24.454  13.839
37630W        W 4061  29.349  13.147   1.755
37631W        W 4062  12.689  36.595   2.327
37632W        W 4063  27.728  29.504  11.150
37633W        W 4064  21.416  16.501  13.426
37634W        W 4065   6.994  14.091  11.098
37635W        W 4066  13.022  39.928  12.918
37636W        W 4067  16.793   7.336  11.126
37637W        W 4068   5.982  18.250   0.818
37638W        W 4069  13.955   8.772  12.458
37639W        W 4070  33.379  21.764   3.575
37640W        W 4071  21.276   4.889   3.006
37641W        W 4072  20.027  43.306  13.548
37642W        W 4073  27.838  37.115  13.937
37643W        W 4074   0.239  24.635  11.094
37644W        W 4075  23.253  32.543   3.653
37645W        W 4076  16.965   4.899   1.311
37646W        W 4077  11.678  43.043   2.429
37647W        W 4078  28.174  43.413  14.932
37648W        W 4079  16.776  33.368   2.781
37649W        W 4080  22.985  29.110  12.398
37650W        W 4081  41.431   0.458   1.026
37651W        W 4082  27.982  27.798   0.156
37652W        W 4083  13.690  28.279  13.519
37653W        W 4084  25.960  43.482  12.086
37654W        W 4085  20.855  34.949  10.564
37655W        W 4086   6.040  44.431   4.524
37656W        W 4087  44.532  31.047  11.664
37657W        W 4088  41.480  22.904  14.876
37658W        W 4089   9.219  26.229  10.739
37659W        W 4090  36.859  14.281  12.929
37660W        W 4091  12.744  10.131  13.219
37661W        W 4092  11.369  37.624   4.526
37662W        W 4093  20.676  19.002   3.788
37663W        W 4094  27.850  17.782   2.338
37664W        W 4095  42.022  36.211  10.742
37665W        W 4096  41.041  11.860  12.685
37666W        W 4097  40.971  18.104  14.054
37667W        W 4098  37.365  18.365   1.444
37668W        W 4099  21.703  36.680   2.862
37669W        W 4100  20.997  10.234  10.677
37670W        W 4101  24.895  30.178  12.340
37671W        W 4102  33.261  24.865  10.961
37672W        W 4103  26.938   3.382   2.419
37673W        W 4104  22.958  24.034  12.095
37674W        W 4105  14.129  33.472  10.999
37675W        W 4106  33.660  26.711  14.422
37676W        W 4107  43.491  33.528  14.753
37677W        W 4108  36.915   3.856  10.843
37678W        W 4109  17.940   3.026   4.816
37679W        W 4110  13.798  12.192   0.334
37680W        W 4111   8.115  19.252   3.049
37681W        W 4112  41.003  29.505  14.527
37682W        W 4113  22.229  21.727   3.049
37683W        W 4114  35.508  27.970   0.660
37684W        W 4115   2.497  35.374  12.089
37685W        W 4116  43.010   9.730  13.706
37686W        W 4117  31.566  32.372   4.517
37687W        W 4118  17.823   6.855  11.242
37688W        W 4119  22.284  19.627   2.191
37689W        W 4120  16.669  35.848  11.203
37690W        W 4121  42.823  42.915  11.935
37691W        W 4122  15.565  29.019   4.524
37692W        W 4123  35.648  28.388  12.964
37693W        W 4124  12.908  32.670   1.738
37694W        W 4125  18.527  25.685  13.447
37695W        W 4126   5.790  43.040  13.919
37696W        W 4127  31.690   3.233  11.614
37697W        W 4128  33.145   5.146   4.689
37698W        W 4129  37.593   1.769  14.763
37699W        W 4130  30.137  32.817  13.263
37700W        W 4131  15.270   8.423   0.616
37701W        W 4132   6.672   4.466   1.363
37702W        W 4133  18.986  31.408   0.383
37703W        W 4134  35.864  44.208  10.716
37704W        W 4135  10.167  11.860  12.739
37705W        W 4136  30.805  28.167   2.192
37706W        W 4137  20.162  34.837   0.819
37707W        W 4138  38.152  27.044   1.420
37708W        W 4139  22.054   2.156  11.101
37709W        W 4140  14.689   1.388  14.930
37710W        W 4141   1.233  13.560   2.439
37711W        W 4142  31.483  44.546   2.224
37712W        W 4143   1.496  15.209  11.441
37713W        W 4144   9.270  39.506  12.372
37714W        W 4145  17.017  14.593  14.429
37715W        W 4146  25.447  19.968  13.905
37716W        W 4147  12.335  26.672  11.640
37717W        W 4148  11.680  35.573  12.455
37718W        W 4149  29.488  19.519   5.037
37719W        W 4150   1.502   1.406  13.117
37720W        W 4151  44.145   3.732   1.235
37721W        W 4152  10.669  42.433  13.867
37722W        W 4153  31.159  20.478   2.657
37723W        W 4154   5.698  18.260  12.657
37724W        W 4155  15.743  42.536  10.546
37725W        W 4156   6.421  12.784  12.156
37726W        W 4157  28.894   0.034  12.477
37727W        W 4158  13.023  15.236   0.353
37728W        W 4159  36.144  23.686  14.410
37729W        W 4160  43.383  33.196  11.684
37730W        W 4161  23.967  23.721   0.672
37731W        W 4162  29.985  19.768  14.769
37732W        W 4163  21.621   6.284  11.132
37733W        W 4164  42.387  11.751   3.440
37734W        W 4165   0.878   8.627  11.313
37735W        W 4166   3.791   3.114  11.601
37736W        W 4167   2.299  44.390  10.211
37737W        W 4168  27.144  37.287  13.509
37738W        W 4169   2.682  11.561  13.993
37739W        W 4170  16.796  22.611   0.097
37740W        W 4171  10.135  22.545   0.816
37741W        W 4172  44.123  13.323  12.881
37742W        W 4173  33.340  11.263   0.829
37743W        W 4174   1.410  19.490  10.671
37744W        W 4175  23.009  25.016   3.513
37745W        W 4176  23.564  36.296   0.508
37746W        W 4177  19.660   9.661  12.005
37747W        W 4178  17.667  17.843   2.182
37748W        W 4179   9.714  37.205  12.903
37749W        W 4180  28.040   4.213  13.548
37750W        W 4181  21.990  26.735   0.496
37751W        W 4182  24.150  10.884   1.352
37752W        W 4183  30.864  29.971  10.706
37753W        W 4184   6.201  26.188   3.677
37754W        W 4185  37.908  43.184  11.132
37755W        W 4186  34.958  23.982   1.405
37756W        W 4187  44.052  21.646   0.077
37757W        W 4188   3.004  24.960  12.923
37758W        W 4189   2.574  26.667   2.325
37759W        W 4190  35.526  44.783   4.644
37760W        W 4191  35.106  24.885   4.330
37761W        W 4192  31.144  34.049   2.204
37762W        W 4193  33.546  23.628   3.635
37763W        W 4194  37.443   5.906   0.186
37764W        W 4195  44.264   0.046   0.409
37765W        W 4196  27.169   3.127   2.800
37766W        W 4197  43.449  10.365  11.980
37767W        W 4198  44.920   1.809  10.479
37768W        W 4199  14.809  44.319  14.013
37769W        W 4200  38.839  11.828   4.053
37770W        W 4201  21.837  30.916  13.860
37771W        W 4202  36.619   1.457   2.852
37772W        W 4203  36.135  27.880  14.708
37773W        W 4204  32.939  18.576   0.091
37774W        W 4205  13.684  28.448   1.527
37775W        W 4206  37.383  18.580   4.971
37776W        W 4207  31.180  18.328  10.334
37777W        W 4208  17.547  38.596  11.123
37778W        W 4209  19.303  24.206   0.377
37779W        W 4210   1.985  33.912   1.260
37780W        W 4211  42.415  36.790  12.042
37781W        W 4212   9.629  25.248  12.062
37782W        W 4213  44.523  40.922  12.984
37783W        W 4214  21.909   3.148  12.039
37784W        W 4215  34.858  12.115   0.115
37785W        W 4216  24.831  26.608  14.740
37786W        W 4217  42.054   6.769  11.058
37787W        W 4218  16.537   7.732   4.003
37788W        W 4219  17.485  16.853   1.998
37789W        W 4220  42.102  19.138   0.344
37790W        W 4221  40.325  16.492   2.707
37791W        W 4222  15.165  13.791   5.259
37792W        W 4223  40.986  20.631   2.437
37793W        W 4224  29.611  42.386   2.351
37794W        W 4225  25.491  19.462  13.735
37795W        W 4226   3.928   2.327  12.093
37796W        W 4227  36.564  41.242  12.132
37797W        W 4228   4.439  27.575  12.837
37798W        W 4229  23.291  37.614   4.436
37799W        W 4230  23.956  17.739   0.924
37800W        W 4231  32.428  14.252   2.145
37801W        W 4232  40.365  28.717  12.504
37802W        W 4233  23.503  15.364   1.783
37803W        W 4234  41.082  42.505   2.380
37804W        W 4235  13.799  14.730   2.168
37805W        W 4236  43.410  44.782  11.386
37806W        W 4237   3.595   5.252   1.738
37807W        W 4238   1.898  31.207   1.426
37808W        W 4239  42.106  32.529  12.313
37809W        W 4240  41.843  12.515   2.313
37810W        W 4241  21.289  15.251   1.334
37811W        W 4242  36.616  11.851   3.215
37812W        W 4243  26.152  43.329  11.172
37813W        W 4244  37.134  10.107   4.813
37814W        W 4245   0.771  22.544  12.867
37815W        W 4246  37.511  13.939  10.734
37816W        W 4247  18.604  41.773   4.779
37817W        W 4248   8.281  35.193  12.584
37818W        W 4249  16.760  30.746   2.294
37819W        W 4250   7.488  29.276  13.569
37820W        W 4251  40.746  15.933  13.362
37821W        W 4252  24.706  39.930  13.845
37822W        W 4253   2.688  11.865  14.406
37823W        W 4254  21.048  27.453  14.498
37824W        W 4255   5.772  14.102  10.098
37825W        W 4256  40.864  25.560   2.656
37826W        W 4257  15.463  18.493   5.123
37827W        W 4258  12.249  38.935  11.641
37828W        W 4259  29.882  26.471  11.186
37829W        W 4260   7.800  32.696  14.308
37830W        W 4261  34.299   0.160   3.244
37831W        W 4262  33.372  11.063   1.403
37832W        W 4263   3.317  27.728   4.507
37833W        W 4264  25.463  28.894   5.475
37834W        W 4265  37.472  43.303  10.229
37835W        W 4266   1.287  10.687   0.311
37836W        W 4267  12.163  23.677   1.164
37837W        W 4268  37.965   8.164   0.696
37838W        W 4269  33.189  14.159  13.451
37839W        W 4270   8.854  42.242  14.257
37840W        W 4271  38.567  23.537  12.884
37841W        W 4272  34.867  15.487   0.224
37842W        W 4273  14.383   5.175   0.980
37843W        W 4274  23.080  35.843  13.328
37844W        W 4275  30.278   4.217   4.565
37845W        W 4276  34.808  28.969   0.957
37846W        W 4277  29.184  18.236   2.169
37847W        W 4278   1.912  38.790   1.830
37848W        W 4279  41.733  27.692  11.184
37849W        W 4280  22.839  19.759  11.647
37850W        W 4281  15.672  17.364  13.065
37851W        W 4282  44.849  11.154   3.827
37852W        W 4283   7.820  33.886   2.601
37853W        W 4284  19.075  19.088   2.993
37854W        W 4285   9.282   8.172   3.350
37855W        W 4286   6.858  18.160  14.207
37856W        W 4287  43.994  41.979  12.050
37857W        W 4288   7.630   0.685  10.823
37858W        W 4289  10.320  29.325   2.659
37859W        W 4290   4.807  31.975  11.639
37860W        W 4291   8.387   1.372   2.710
37861W        W 4292  23.158  20.080  12.595
37862W        W 4293  41.463  40.802  12.455
37863W        W 4294  21.689   0.075   1.821
37864W        W 4295  22.123  35.152   1.816
37865W        W 4296  37.797  22.781  14.003
37866W        W 4297   4.042  39.854   0.918
37867W        W 4298  44.280  38.876   2.700
37868W        W 4299  44.526  32.363   0.258
37869W        W 4300   1.783  27.160  11.217
37870W        W 4301  34.430   2.430  14.267
37871W        W 4302  10.639  16.865  13.800
37872W        W 4303  11.633  16.437  12.037
37873W        W 4304  11.548  17.834  11.014
37874W        W 4305  26.369   5.006   5.023
37875W        W 4306   6.080  20.024   4.189
37876W        W 4307  28.481  44.704  12.482
37877W        W 4308  24.157  41.002   2.270
37878W        W 4309  16.745  28.766   0.916
37879W        W 4310  31.253  44.885  11.895
37880W        W 4311  29.187   8.351  13.790
37881W        W 4312   5.886  28.940  10.555
37882W        W 4313  23.169  21.397   1.156
37883W        W 4314  32.655  29.992   4.685
37884W        W 4315  30.630  38.084   2.895
37885W        W 4316  35.914  25.253   3.244
37886W        W 4317  17.318  11.127   1.360
37887W        W 4318  18.714  38.050   1.936
37888W        W 4319  21.181  33.045  12.545
37889W        W 4320   6.833  28.700   1.409
37890W        W 4321  20.470  19.461   2.852
37891W        W 4322  21.416   0.094  11.106
37892W        W 4323  37.306  24.805   1.199
37893W        W 4324  32.667  32.844   2.737
37894W        W 4325  41.458   9.132   1.676
37895W        W 4326  37.830  23.179  14.770
37896W        W 4327  42.350   0.698   1.293
37897W        W 4328  27.432   1.588  11.120
37898W        W 4329   6.502  27.519  14.842
37899W        W 4330   5.046  43.857  14.599
37900W        W 4331   3.543  30.270   1.346
37901W        W 4332   2.008  42.283  12.446
37902W        W 4333  33.984   6.801  13.111
37903W        W 4334   5.264  23.205  12.856
37904W        W 4335  10.059  43.562  11.893
37905W        W 4336  31.480  18.414  14.021
37906W        W 4337  14.266  25.670   1.734
37907W        W 4338  25.710  43.624  13.032
37908W        W 4339  21.730  29.316   0.782
37909W        W 4340   3.368   6.978  13.937
37910W        W 4341  20.736  15.230   2.403
37911W        W 4342  23.944  20.247   1.747
37912W        W 4343  17.721  38.256   0.895
37913W        W 4344  15.889  35.981  14.046
37914W        W 4345   6.852  25.579  12.954
37915W        W 4346  26.261  36.843   1.349
37916W        W 4347  41.035  37.514  10.952
37917W        W 4348   7.818  41.765  11.075
37918W        W 4349  11.779  26.874  13.288
37919W        W 4350   4.321  29.702   0.915
37920W        W 4351  13.632   4.427   2.191
37921W        W 4352  29.989  18.623   0.335
37922W        W 4353   1.434  15.294  10.929
37923W        W 4354  23.700   7.211   2.116
37924W        W 4355   1.759  28.392   4.511
37925W        W 4356  37.791  17.784  12.227
37926W        W 4357  21.234  40.361   4.700
37927W        W 4358   9.219  10.001  14.639
37928W        W 4359  21.561  26.810   3.492
37929W        W 4360  43.885  41.924   3.723
37930W        W 4361  29.427   3.907   1.746
37931W        W 4362   1.236   1.812  12.915
37932W        W 4363  44.249  17.115   2.369
37933W        W 4364   2.366  37.738   2.809
37934W        W 4365  12.314  36.452   0.716
37935W        W 4366  35.796  14.209  13.820
37936W        W 4367  17.245   8.403   0.383
37937W        W 4368  34.145  36.977  13.250
37938W        W 4369   1.197  40.540   1.862
37939W        W 4370  42.072  28.050  12.196
37940W        W 4371  34.003  36.481  13.344
37941W        W 4372  39.399  32.634   3.415
37942W        W 4373   5.749   8.207  10.810
37943W        W 4374  14.697  44.732   1.262
37944W        W 4375  28.999  43.343  11.055
37945W        W 4376  16.591  27.081   1.250
37946W        W 4377  16.809  31.381  11.934
37947W        W 4378  13.680  35.858   2.897
37948W        W 4379  32.978  17.290   3.697
37949W        W 4380  20.466  29.094   4.451
37950W        W 4381   6.361   0.265   2.820
37951W        W 4382  19.171  16.981   3.283
37952W        W 4383   5.754   3.889   1.326
37953W        W 4384  43.171  11.786   2.200
37954W        W 4385   2.470   8.289   4.380
37955W        W 4386  15.281  18.105  10.476
37956W        W 4387  19.205   5.826   3.156
37957W        W 4388   9.268   0.973  11.517
37958W        W 4389  37.013   9.944   2.152
37959W        W 4390  36.155  17.091  10.000
37960W        W 4391   5.837  31.894  14.141
37961W        W 4392  42.299   2.313   3.959
37962W        W 4393   5.262  42.665   3.259
37963W        W 4394  32.205   3.763  13.360
37964W        W 4395  29.945  33.980   1.690
37965W        W 4396  23.666  15.371  14.326
37966W        W 4397  11.573  10.863  14.418
37967W        W 4398  34.160  12.312   0.327
37968W        W 4399  11.132  17.153  11.653
37969W        W 4400   1.269  13.980  10.555
37970W        W 4401  35.061   9.486   2.225
37971W        W 4402  37.019  43.727   1.328
37972W        W 4403  43.149  42.076   0.849
37973W        W 4404  36.837  10.837  12.452
37974W        W 4405  23.441  16.690  12.056
37975W        W 4406  11.930   7.281  10.921
37976W        W 4407  40.882   1.530  13.789
37977W        W 4408  28.008  41.261   4.874
37978W        W 4409   5.169   2.811   4.159
37979W        W 4410  39.746   2.419   0.875
37980W        W 4411  12.899  22.129   2.205
37981W        W 4412  22.697   2.742   2.956
37982W        W 4413   0.159  26.239  13.045
37983W        W 4414  28.474   2.392   3.548
37984W        W 4415  25.002  31.198  11.482
37985W        W 4416  20.865   3.423   1.902
37986W        W 4417  18.672  20.553   1.744
37987W        W 4418  32.353  15.824  14.513
37988W        W 4419  44.153  26.703  14.326
37989W        W 4420  25.236  36.017  12.216
37990W        W 4421  26.646  38.770  14.076
37991W        W 4422  13.942  34.009   3.620
37992W        W 4423  31.244  10.277  14.381
37993W        W 4424   0.605  17.250  12.040
37994W        W 4425   1.674  33.452   1.430
37995W        W 4426  10.631   0.542   3.134
37996W        W 4427  33.501  23.608  13.552
37997W        W 4428  13.221  39.139   2.406
37998W        W 4429   3.096  31.426  12.354
37999W        W 4430  11.337   9.393  14.271
38000W        W 4431  21.562  25.093   2.860
38001W        W 4432  31.063  32.816   2.205
38002W        W 4433  24.069   9.047  11.464
38003W        W 4434  31.657  38.230   1.417
38004W        W 4435  38.730  12.910  10.953
38005W        W 4436  43.524  12.998   1.351
38006W        W 4437   2.330  40.919  11.991
38007W        W 4438   9.929  22.715   3.939
38008W        W 4439   0.476   9.867  10.844
38009W        W 4440   5.983  14.833   2.286
38010W        W 4441  33.969  18.770  13.634
38011W        W 4442  44.279  13.500   1.354
38012W        W 4443  17.140  30.954   1.025
38013W        W 4444   9.026   2.723  14.439
38014W        W 4445  32.711  31.388  12.843
38015W        W 4446  16.117  43.817  10.813
38016W        W 4447  36.417  19.899  14.010
38017W        W 4448  29.109   7.206  13.353
38018W        W 4449  16.107  13.020  10.295
38019W        W 4450  31.810  21.176   4.156
38020W        W 4451  38.138   2.817   4.865
38021W        W 4452  28.547  11.107  14.281
38022W        W 4453  14.371  16.054   0.855
38023W        W 4454  33.970  24.901   2.606
38024W        W 4455  15.324   4.005  14.403
38025W        W 4456  38.005  36.112   1.297
38026W        W 4457  19.229  28.661  13.850
38027W        W 4458  24.613   2.447   3.815
38028W        W 4459  18.553  29.848  13.821
38029W        W 4460   1.792  43.482   0.359
38030W        W 4461  16.312  29.963   2.299
38031W        W 4462  10.985  17.778   2.128
38032W        W 4463  36.351   5.682   3.208
38033W        W 4464  21.617  15.754   3.226
38034W        W 4465  29.203  22.535   1.820
38035W        W 4466  11.289  30.669   1.935
38036W        W 4467  38.713  29.240   2.279
38037W        W 4468  23.484  37.799   2.777
38038W        W 4469  43.303  17.312   4.509
38039W        W 4470   4.971  14.341   2.837
38040W        W 4471  25.217  36.410   3.188
38041W        W 4472  31.445  29.052  11.494
38042W        W 4473  39.605   0.517  11.605
38043W        W 4474   9.666  37.851   1.892
38044W        W 4475  10.810  11.212  14.789
38045W        W 4476  20.271  16.250   2.777
38046W        W 4477  26.926   0.033   0.827
38047W        W 4478   6.931  32.918   2.870
38048W        W 4479  27.415   0.781   0.862
38049W        W 4480  19.591  44.501  10.887
38050W        W 4481  20.319  33.302  13.960
38051W        W 4482  29.485   3.386  11.456
38052W        W 4483  21.118  17.839  10.730
38053W        W 4484  34.821  31.517  13.065
38054W        W 4485  31.784   9.145   4.942
38055W        W 4486  30.601  28.585   3.423
38056W        W 4487   1.193  42.361   2.673
38057W        W 4488  18.318  10.815  10.928
38058W        W 4489  40.957  11.337   2.751
38059W        W 4490  43.351  30.433   3.175
38060W        W 4491  42.910   0.317   2.746
38061W        W 4492  25.848  25.283  12.439
38062W        W 4493  43.171  37.569   4.233
38063W        W 4494   4.417   6.733  11.506
38064W        W 4495  20.216  36.939   4.085
38065W        W 4496  16.997  20.916  11.126
38066W        W 4497  42.475  20.398  10.746
38067W        W 4498   1.764   7.382   4.332
38068W        W 4499   6.348  10.572   4.893
38069W        W 4500  11.255   5.704   1.229
38070W        W 4501  30.856  32.414  11.637
38071W        W 4502  36.355  38.795   2.830
38072W        W 4503  27.097  21.486   0.997
38073W        W 4504   4.002  25.223   2.667
38074W        W 4505  14.541  10.187  13.386
38075W        W 4506  16.753  40.513  12.375
38076W        W 4507  31.913  27.062   3.664
38077W        W 4508  32.003   8.113   3.857
38078W        W 4509  44.687   7.743   5.053
38079W        W 4510  17.986  40.562  13.957
38080W        W 4511   5.331  39.274  12.493
38081W        W 4512  42.447  44.850  14.705
38082W        W 4513  22.469  22.466   1.227
38083W        W 4514  38.307   8.661  14.632
38084W        W 4515  27.769  21.774   2.710
38085W        W 4516   6.390  36.504   3.229
38086W        W 4517  23.161   1.834   1.829
38087W        W 4518   3.730  10.740  10.878
38088W        W 4519  44.893  10.316   0.259
38089W        W 4520  11.307  41.936   3.133
38090W        W 4521  44.835  31.427   2.641
38091W        W 4522  44.106  17.591   3.143
38092W        W 4523  27.563  37.265  11.134
38093W        W 4524   3.909   5.267   2.368
38094W        W 4525   9.138  37.842   4.592
38095W        W 4526  10.400  35.022  12.467
38096W        W 4527   3.364  17.223   3.206
38097W        W 4528  24.567   2.332  10.630
38098W        W 4529   6.227  33.379   1.539
38099W        W 4530  24.789   0.906   3.209
38100W        W 4531  42.303  44.332   1.457
38101W        W 4532   0.469  16.436  12.402
38102W        W 4533  40.527  42.324  14.280
38103W        W 4534  23.425  35.936   4.215
38104W        W 4535   3.763  33.298  14.160
38105W        W 4536  36.562  21.279   1.515
38106W        W 4537  44.282   7.958   1.683
38107W        W 4538   5.182  20.020  12.464
38108W        W 4539  41.264  39.920   4.587
38109W        W 4540   1.146  43.567   3.766
38110W        W 4541  15.877  30.849   0.961
38111W        W 4542  10.884  42.839   1.847
38112W        W 4543  11.557  31.058   1.191
38113W        W 4544  39.602  22.050   2.799
38114W        W 4545  32.403  32.384  12.644
38115W        W 4546  38.498  32.484   3.845
38116W        W 4547  34.327  13.548   3.351
38117W        W 4548  36.389  21.214  12.576
38118W        W 4549   4.105  40.169   0.464
38119W        W 4550   8.894   1.360   3.574
38120W        W 4551  31.685  21.010  10.665
38121W        W 4552  30.923  18.462  12.848
38122W        W 4553  21.078  14.514   2.149
38123W        W 4554  17.340  17.205   2.729
38124W        W 4555  27.795  38.879   3.341
38125W        W 4556  14.801   7.573  11.611
38126W        W 4557  42.292  25.081   2.078
38127W        W 4558  34.851  32.076  12.792
38128W        W 4559   1.738  44.386   0.256
38129W        W 4560  10.961  24.561   2.638
38130W        W 4561  39.290   3.702  10.703
38131W        W 4562  17.115  11.032  14.969
38132W        W 4563  10.629   8.869  11.472
38133W        W 4564  43.659  21.980   0.767
38134W        W 4565  30.580  21.746  12.446
38135W        W 4566  26.463  42.033  12.929
38136W        W 4567  14.454  12.883  10.359
38137W        W 4568  23.965  18.294   2.204
38138W        W 4569  19.530   1.309  10.876
38139W        W 4570  29.885  17.549  13.354
38140W        W 4571   0.476  16.606   4.045
38141W        W 4572  21.940  29.178  12.477
38142W        W 4573  12.037  13.620  14.845
38143W        W 4574  21.737  10.170  12.128
38144W        W 4575  37.980  12.148   2.621
38145W        W 4576  29.369  33.807  12.566
38146W        W 4577  32.651  42.371  13.809
38147W        W 4578  30.457   7.598  14.021
38148W        W 4579  21.635  37.553   0.876
38149W        W 4580  23.949   7.508  13.844
38150W        W 4581   3.883  34.722   3.306
38151W        W 4582  29.092  35.899  14.410
38152W        W 4583  39.682  25.952  13.838
38153W        W 4584  19.480  18.719  12.856
38154W        W 4585  11.717  27.372  13.404
38155W        W 4586   1.197  18.343  13.858
38156W        W 4587  26.922  29.218  13.605
38157W        W 4588  32.321  36.024   2.886
38158W        W 4589  11.206   2.626  13.674
38159W        W 4590  16.338   6.736   4.571
38160W        W 4591   8.610  31.120   0.674
38161W        W 4592   7.431   4.702   0.622
38162W        W 4593  30.471  15.104  10.775
38163W        W 4594   9.679  17.228  11.657
38164W        W 4595  16.952   7.373   3.716
38165W        W 4596  44.786   5.068  14.405
38166W        W 4597  16.276  42.778   3.711
38167W        W 4598  22.655  25.866   4.408
38168W        W 4599  26.180  10.294  10.661
38169W        W 4600  40.085   3.522  14.684
38170W        W 4601  34.011  43.063   1.256
38171W        W 4602  28.037  10.577   0.834
38172W        W 4603  19.287  22.467   3.668
38173W        W 4604   5.476  16.523   1.734
38174W        W 4605  22.413  37.360   4.360
38175W        W 4606  31.474  17.545  10.886
38176W        W 4607  34.532  43.727  14.635
38177W        W 4608   2.756  21.227  14.411
38178W        W 4609  19.792  22.920   3.082
38179W        W 4610  29.588  20.596  13.901
38180W        W 4611   6.898  16.061   2.235
38181W        W 4612  41.908  16.109   0.300
38182W        W 4613  20.161  21.428  13.396
38183W        W 4614  18.234  13.458   2.617
38184W        W 4615  29.634  17.506  11.104
38185W        W 4616  16.665  37.015   0.018
38186W        W 4617  19.953  10.166   3.008
38187W        W 4618  35.134  14.318   2.129
38188W        W 4619  44.167  33.326   0.672
38189W        W 4620  33.120   8.246   2.465
38190W        W 4621  24.542   3.823  11.177
38191W        W 4622   5.211  35.079   1.741
38192W        W 4623  19.215  15.668  12.997
38193W        W 4624  42.298  10.696   1.994
38194W        W 4625   2.317  30.363  13.130
38195W        W 4626   2.716  12.231  13.479
38196W        W 4627  21.087  30.113  12.966
38197W        W 4628   9.451  42.571  12.586
38198W        W 4629  11.157   5.681   3.743
38199W        W 4630  31.155  12.318   4.242
38200W        W 4631   8.744   3.536  14.440
38201W        W 4632  10.616   4.852  10.917
38202W        W 4633  16.598  12.299  14.846
38203W        W 4634  36.951  29.854  14.374
38204W        W 4635   2.426  38.124  14.810
38205W        W 4636   4.411  39.024   3.170
38206W        W 4637  14.913   5.898   4.806
38207W        W 4638  36.083  11.827   2.467
38208W        W 4639  34.466   2.941   4.388
38209W        W 4640   2.318  20.859   2.258
38210W        W 4641   0.904  31.510   3.625
38211W        W 4642  26.052  21.532   1.620
38212W        W 4643  21.129  17.741   2.682
38213W        W 4644   6.885  12.294  14.753
38214W        W 4645  29.722   1.316   2.423
38215W        W 4646  38.761  41.821   3.761
38216W        W 4647  40.804  23.155  11.155
38217W        W 4648  28.014  30.400   3.171
38218W        W 4649  43.429  11.475  10.744
38219W        W 4650  27.866   8.133  12.056
38220W        W 4651  32.056  14.602   1.396
38221W        W 4652  34.851  26.838  10.124
38222W        W 4653   3.245   5.978   1.844
38223W        W 4654  30.197   4.498  11.007
38224W        W 4655   2.896  16.335  12.977
38225W        W 4656  20.315  40.060  12.203
38226W        W 4657  39.793  37.002  14.268
38227W        W 4658  14.319  14.466   1.661
38228W        W 4659   2.663  20.775  10.546
38229W        W 4660  12.814  10.347  13.667
38230W        W 4661  31.146  17.282   2.107
38231W        W 4662  32.475  13.430  14.380
38232W        W 4663  12.751  28.061   0.125
38233W        W 4664  28.940  41.666  14.938
38234W        W 4665  40.371  35.652  13.955
38235W        W 4666   3.403  37.237   5.087
38236W        W 4667  14.992  29.518   1.400
38237W        W 4668  30.897  42.321  11.713
38238W        W 4669  13.584   5.787   2.415
38239W        W 4670  10.645  12.666   2.658
38240W        W 4671  21.327  43.186   0.821
38241W        W 4672   8.890  34.899  11.169
38242W        W 4673  41.472  13.496   4.705
38243W        W 4674  13.305  37.810  14.527
38244W        W 4675  30.572   8.686   4.382
38245W        W 4676  40.909   8.716  12.084
38246W        W 4677  16.047  35.539   1.418
38247W        W 4678  42.467  29.132   3.354
38248W        W 4679  28.866  25.647   3.856
38249W        W 4680  19.657  15.561  14.046
38250W        W 4681   1.525  15.017   0.742
38251W        W 4682  22.107   1.625  12.818
38252W        W 4683  29.231   8.443   9.765
38253W        W 4684  11.320  37.980  11.927
38254W        W 4685  21.829  43.988   0.436
38255W        W 4686  16.053  17.266  14.750
38256W        W 4687  42.308  20.681   4.553
38257W        W 4688  13.610   0.686   3.445
38258W        W 4689  41.022  21.289  10.771
38259W        W 4690  13.076  40.797  13.795
38260W        W 4691  15.289  44.018  12.529
38261W        W 4692  24.635  20.074   4.883
38262W        W 4693  29.610  27.828   4.757
38263W        W 4694   3.963  36.938   1.125
38264W        W 4695   2.534  41.458  10.086
38265W        W 4696   8.225  22.959   3.395
38266W        W 4697  29.436  10.788   0.739
38267W        W 4698   6.399  42.418  14.541
38268W        W 4699  39.061  27.104   4.330
38269W        W 4700  29.503  23.146   0.991
38270W        W 4701  13.735   6.971  14.192
38271W        W 4702  26.853   3.265  11.147
38272W        W 4703  17.674  39.927  10.416
38273W        W 4704  42.795  20.696   3.717
38274W        W 4705   0.547  41.386   3.747
38275W        W 4706   8.313  43.028   2.657
38276W        W 4707  28.182   5.046   4.179
38277W        W 4708  36.976  35.179   3.601
38278W        W 4709  44.329  28.098   3.480
38279W        W 4710  41.494  15.739  11.176
38280W        W 4711   2.825  15.806   3.097
38281W        W 4712  21.245   1.867   4.741
38282W        W 4713   0.236  25.096   1.946
38283W        W 4714  22.929  44.509  13.969
38284W        W 4715  42.002  36.897  12.317
38285W        W 4716  24.066  41.144  12.493
38286W        W 4717  21.152  33.513   1.659
38287W        W 4718  30.607  22.657   4.351
38288W        W 4719  29.308  43.603   2.831
38289W        W 4720  21.089  37.390   0.598
38290W        W 4721  25.640  37.915  13.105
38291W        W 4722  19.532  29.654  12.109
38292W        W 4723  36.546  11.884   0.990
38293W        W 4724   4.365  21.440   0.049
38294W        W 4725  21.465  15.721  13.886
38295W        W 4726  19.781  23.489  13.008
38296W        W 4727  21.409  19.995  10.962
38297W        W 4728  19.604  11.796   1.286
38298W        W 4729  30.674  18.780   3.578
38299W        W 4730  32.872  40.678   4.086
38300W        W 4731  20.837  13.689   4.660
38301W        W 4732  38.457   4.557  11.147
38302W        W 4733   5.823  36.236   4.326
38303W        W 4734  20.565  20.286   0.863
38304W        W 4735  42.326  13.061   0.835
38305W        W 4736  10.649  12.672   3.539
38306W        W 4737   6.135   0.210   1.870
38307W        W 4738  40.966  31.250  14.287
38308W        W 4739  10.597  29.918   3.249
38309W        W 4740   9.480   2.280   4.364
38310W        W 4741  31.132  20.561   0.463
38311W        W 4742  35.386  10.979  10.637
38312W        W 4743  44.685   6.290   2.129
38313W        W 4744   4.258  38.211   1.531
38314W        W 4745   6.762  17.090  14.515
38315W        W 4746   8.836   1.227  10.758
38316W        W 4747  35.834  24.781   4.496
38317W        W 4748  20.114   3.913  14.829
38318W        W 4749  20.972  11.579  11.518
38319W        W 4750  35.626  16.243  12.520
38320W        W 4751  29.713  31.351  12.545
38321W        W 4752  26.172  42.522   1.461
38322W        W 4753  28.844  38.426   4.883
38323W        W 4754   3.522  30.175   4.402
38324W        W 4755  27.249  19.000   3.955
38325W        W 4756  16.005   4.497  12.212
38326W        W 4757  31.584   7.713  13.247
38327W        W 4758  21.307  19.585   3.159
38328W        W 4759   5.727  39.631  14.499
38329W        W 4760   5.488  21.557  14.846
38330W        W 4761   6.330  26.682  13.835
38331W        W 4762   7.878  25.500  12.993
38332W        W 4763  16.516  10.615   2.683
38333W        W 4764  28.487  31.278  14.387
38334W        W 4765   7.174   9.897  12.084
38335W        W 4766  39.915  17.989  14.103
38336W        W 4767  40.609  40.263  10.675
38337W        W 4768   6.804  19.040  12.880
38338W        W 4769  15.824  38.635   1.620
38339W        W 4770  31.016  35.015   3.490
38340W        W 4771  28.376  14.790  12.910
38341W        W 4772  43.974  22.853  14.791
38342W        W 4773  35.592  32.330  10.246
38343W        W 4774  44.391  41.980  13.196
38344W        W 4775  40.506  24.790  11.671
38345W        W 4776   1.447  19.107   1.098
38346W        W 4777  33.718  22.034   3.203
38347W        W 4778  15.918  24.809   0.411
38348W        W 4779  28.958   1.916  11.534
38349W        W 4780  22.560  44.552   3.859
38350W        W 4781  40.379  10.236  12.946
38351W        W 4782   3.491  30.054   3.895
38352W        W 4783  32.594  31.106  14.081
38353W        W 4784  22.952  17.033   3.574
38354W        W 4785   0.391  22.779  14.750
38355W        W 4786  15.625  34.113  13.035
38356W        W 4787  25.572  41.434   4.061
38357W        W 4788  27.176  30.546   3.062
38358W        W 4789  19.669  36.137   4.152
38359W        W 4790  22.219  27.744  10.531
38360W        W 4791  19.335  11.254   0.740
38361W        W 4792   4.716  10.328  13.386
38362W        W 4793  39.938  33.947   4.286
38363W        W 4794  37.810  30.879   1.804
38364W        W 4795  36.979   7.653   0.494
38365W        W 4796  34.881  37.982   4.869
38366W        W 4797  29.575  33.523  13.804
38367W        W 4798  27.070  31.804  14.487
38368W        W 4799  10.587  28.698   1.939
38369W        W 4800  13.841   3.296  11.473
38370W        W 4801   3.216  39.574  13.440
38371W        W 4802  44.883   7.107  13.404
38372W        W 4803  10.339  39.027  13.449
38373W        W 4804  17.638  42.273  12.445
38374W        W 4805   7.240  12.810  12.592
38375W        W 4806   0.652  40.965   1.293
38376W        W 4807  13.938   0.545  10.735
38377W        W 4808   2.536   5.087  11.871
38378W        W 4809  14.262  13.960  13.760
38379W        W 4810  27.023   6.657   0.403
38380W        W 4811  18.566  11.719  11.063
38381W        W 4812  32.124   6.280  10.685
38382W        W 4813  21.376  19.137   5.391
38383W        W 4814   0.787  38.565  14.954
38384W        W 4815  28.444  34.832   0.389
38385W        W 4816  17.167   4.689   3.165
38386W        W 4817  13.178   0.912  13.637
38387W        W 4818   8.215   6.802   3.249
38388W        W 4819  10.306  34.330  10.927
38389W        W 4820  35.557   4.321  12.061
38390W        W 4821  33.111  43.148   0.443
38391W        W 4822  40.099  33.624  12.959
38392W        W 4823  23.480  44.491   3.441
38393W        W 4824  26.747   9.224   0.194
38394W        W 4825  25.158  41.940   5.129
38395W        W 4826  33.669   9.196   3.759
38396W        W 4827  31.477  43.537  13.484
38397W        W 4828  32.593  28.865  11.550
38398W        W 4829   9.679  12.858   3.707
38399W        W 4830  17.996  34.587  14.909
38400W        W 4831   1.882   7.812   1.911
38401W        W 4832  31.182  39.984   2.712
38402W        W 4833  19.187  37.518   3.541
38403W        W 4834  26.145   1.155  11.029
38404W        W 4835   4.723  23.283   4.210
38405W        W 4836  20.010  34.922   1.755
38406W        W 4837  27.848  26.088  11.635
38407W        W 4838  11.009   1.507  12.635
38408W        W 4839   7.205   4.658   3.209
38409W        W 4840  38.888  19.672  14.783
38410W        W 4841  37.556  42.016   2.729
38411W        W 4842  38.547  24.151  10.671
38412W        W 4843  33.351  14.121   1.346
38413W        W 4844  36.068  27.435  13.464
38414W        W 4845  39.444  22.717  10.715
38415W        W 4846  28.916  24.041   4.594
38416W        W 4847   6.948  29.035   4.233
38417W        W 4848  32.179  36.623   4.451
38418W        W 4849   7.904  12.231   4.162
38419W        W 4850  42.756  34.967  11.062
38420W        W 4851  44.221  32.506   0.945
38421W        W 4852  35.653  23.738   3.191
38422W        W 4853  18.462  44.671   3.752
38423W        W 4854  16.571  12.832  11.024
38424W        W 4855  24.178  32.007   0.195
38425W        W 4856  36.696  24.061   0.771
38426W        W 4857  14.865   5.167  13.342
38427W        W 4858  44.850   2.845   1.012
38428W        W 4859  35.666  21.583  10.718
38429W        W 4860  12.387   5.640  11.168
38430W        W 4861  28.987  30.129  10.739
38431W        W 4862  21.586  25.414  12.585
38432W        W 4863  44.083  15.225  10.642
38433W        W 4864  40.417  37.961   1.755
38434W        W 4865  32.471   3.232   1.399
38435W        W 4866  21.543  34.046   3.641
38436W        W 4867  37.035  13.447   3.737
38437W        W 4868   3.510  34.533  13.471
38438W        W 4869  43.177  23.175   1.189
38439W        W 4870  43.970  25.984  13.372
38440W        W 4871  39.798  13.336   2.050
38441W        W 4872  10.453  25.720   1.395
38442W        W 4873  15.330   4.997   4.496
38443W        W 4874  22.804  10.410   4.231
38444W        W 4875  30.990   3.979   4.507
38445W        W 4876  24.302  13.615   0.274
38446W        W 4877  15.925  32.688  13.872
38447W        W 4878  36.601   2.869   3.647
38448W        W 4879  21.192  29.391  14.450
38449W        W 4880  27.810   3.935   2.722
38450W        W 4881  14.724  22.661   1.732
38451W        W 4882  25.120  38.995   4.386
38452W        W 4883  16.675  34.423  14.067
38453W        W 4884   6.199  35.419  12.846
38454W        W 4885  25.952  21.401   1.138
38455W        W 4886  38.276  22.073  11.168
38456W        W 4887  13.948   2.783   0.734
38457W        W 4888  30.137   3.388   3.238
38458W        W 4889  33.474  15.674   2.373
38459W        W 4890   4.789  35.437  13.239
38460W        W 4891  16.176  21.502   2.547
38461W        W 4892  44.768  32.935   4.088
38462W        W 4893  16.668  20.113  10.668
38463W        W 4894  16.538  15.078  13.344
38464W        W 4895  14.139   1.950  11.232
38465W        W 4896   7.480   9.123  12.568
38466W        W 4897  24.020  13.879  11.958
38467W        W 4898  23.770  11.124  13.524
38468W        W 4899   0.545  29.451  13.344
38469W        W 4900  26.217  27.529  11.658
38470W        W 4901  16.162  33.394  14.395
38471W        W 4902  13.246  31.093  12.574
38472W        W 4903   2.178  24.516  14.788
38473W        W 4904  22.012   5.418   2.904
38474W        W 4905  44.016  12.373   1.911
38475W        W 4906  27.460  41.013  13.955
38476W        W 4907  30.552  44.828   3.181
38477W        W 4908  25.057  43.294  11.166
38478W        W 4909  15.166  43.055   4.864
38479W        W 4910  20.181  12.828   0.880
38480W        W 4911  30.398  27.067   0.270
38481W        W 4912  22.620  12.381   2.946
38482W        W 4913   3.923   2.616  11.585
38483W        W 4914  23.063  21.570  14.366
38484W        W 4915  10.226  22.845  12.435
38485W        W 4916   1.068  22.512   3.726
38486W        W 4917   6.253  36.337   2.286
38487W        W 4918  34.712  24.523   2.315
38488W        W 4919  39.789   4.429  11.641
38489W        W 4920  23.479   7.204   4.055
38490W        W 4921  39.533  25.147   1.979
38491W        W 4922  12.773  15.686   0.325
38492W        W 4923  20.805  33.651   1.245
38493W        W 4924  26.697  40.230   4.029
38494W        W 4925  34.101  22.986   0.467
38495W        W 4926   5.264  44.836   3.571
38496W        W 4927   7.005  44.605   0.824
38497W        W 4928   5.361  27.293  12.536
38498W        W 4929  36.511  28.441  12.752
38499W        W 4930  35.097   7.822  10.633
38500W        W 4931  10.562  13.791   3.315
38501W        W 4932   9.086  36.501  10.733
38502W        W 4933  38.730  44.895   4.038
38503W        W 4934  21.537  28.602   0.523
38504W        W 4935  40.206  15.424  12.623
38505W        W 4936  11.416  44.339  13.026
38506W        W 4937  36.460  18.817   4.053
38507W        W 4938   1.913  43.922   0.044
38508W        W 4939  15.143  11.117   1.786
38509W        W 4940   0.677  25.232   4.159
38510W        W 4941  13.147   1.768   2.411
38511W        W 4942  40.843  24.537  14.245
38512W        W 4943  20.969  13.282   9.944
38513W        W 4944  44.342  31.223  13.502
38514W        W 4945   1.939   9.551   1.653
38515W        W 4946  35.087  29.338   0.714
38516W        W 4947  34.396  40.326  13.050
38517W        W 4948   3.930  18.521  10.689
38518W        W 4949   3.039   5.188  12.077
38519W        W 4950  13.810  34.644  11.160
38520W        W 4951  39.507   0.984   3.562
38521W        W 4952   4.511  33.170  12.589
38522W        W 4953  42.015  43.061   1.370
38523W        W 4954  38.018   5.004  10.729
38524W        W 4955  15.014  23.153   0.344
38525W        W 4956   2.789  32.775  10.589
38526W        W 4957   0.530  20.594  13.591
38527W        W 4958  38.636  36.899  11.600
38528W        W 4959   7.752  10.362   3.067
38529W        W 4960  21.644   1.802  13.659
38530W        W 4961   0.990  17.287  13.903
38531W        W 4962  29.951  16.625   2.211
38532W        W 4963  16.133  21.322  12.816
38533W        W 4964   2.561  22.211   4.840
38534W        W 4965   1.949   9.437   2.278
38535W        W 4966   9.078   0.456   4.094
38536W        W 4967  41.809  27.505   2.787
38537W        W 4968  16.588  12.265  14.324
38538W        W 4969  18.238  30.567   3.361
38539W        W 4970  24.922  15.141   2.779
38540W        W 4971  14.274  42.200  13.069
38541W        W 4972  22.537  44.728  11.905
38542W        W 4973  18.534  10.070   4.556
38543W        W 4974  39.057  23.708   3.729
38544W        W 4975  15.366   9.912  13.505
38545W        W 4976  35.167  27.172   1.353
38546W        W 4977  11.674  30.276  11.749
38547W        W 4978  36.298  35.268   3.946
38548W        W 4979   7.063  14.623  13.917
38549W        W 4980  40.019  14.919   1.128
38550W        W 4981  37.452  31.770  13.555
38551W        W 4982  43.797   1.542   0.624
38552W        W 4983  18.562  12.312   3.668
38553W        W 4984  41.762  37.438  12.350
38554W        W 4985  15.559  26.243  14.898
38555W        W 4986  37.395  10.298  13.507
38556W        W 4987   1.209  25.505  11.170
38557W        W 4988  22.888  36.695  13.381
38558W        W 4989  11.745  37.492  10.721
38559W        W 4990  34.187  16.241  12.517
38560W        W 4991  27.724  36.422   4.514
38561W        W 4992  29.409  27.550   2.328
38562W        W 4993   1.970   4.966  13.740
38563W        W 4994  39.087  12.122  12.496
38564W        W 4995  24.789  32.069   5.039
38565W        W 4996   3.769  37.202  13.610
38566W        W 4997   8.661   4.537  14.464
38567W        W 4998  19.035   5.156   2.403
38568W        W 4999  31.364   8.784   1.127
38569W        W 5000  33.402  33.823  13.030
38570W        W 5001   0.816   2.467   2.895
38571W        W 5002   7.915   0.356  12.533
38572W        W 5003   0.031   8.078  14.298
38573W        W 5004  36.440   1.717  10.447
38574W        W 5005   5.972  10.678  11.534
38575W        W 5006  15.169  26.352  13.638
38576W        W 5007  35.391  23.656   4.219
38577W        W 5008  29.467  35.653   0.312
38578W        W 5009  27.028  35.823  12.560
38579W        W 5010  18.795  20.430   0.468
38580W        W 5011   9.476  16.387  11.666
38581W        W 5012  31.018  21.890   0.762
38582W        W 5013  17.302  39.021  10.956
38583W        W 5014   1.055  21.994   4.504
38584W        W 5015   6.651  27.203   2.197
38585W        W 5016  30.899   9.757  11.542
38586W        W 5017  39.008  43.837   2.692
38587W        W 5018  11.160  15.672  13.282
38588W        W 5019  32.986  35.295  11.561
38589W        W 5020  38.895  29.136  11.586
38590W        W 5021   2.229   6.118  14.941
38591W        W 5022   6.934  20.001   2.061
38592W        W 5023  22.136  18.513   1.030
38593W        W 5024  36.656   8.373  10.745
38594W        W 5025  16.500  43.153   4.496
38595W        W 5026   3.544  18.378  12.005
38596W        W 5027  13.723  22.737  14.716
38597W        W 5028  21.214  36.341   2.770
38598W        W 5029  11.985  25.961  10.203
38599W        W 5030  20.737   5.685   2.852
38600W        W 5031  43.308   5.737  10.342
38601W        W 5032  30.991  36.814   2.752
38602W        W 5033   8.000  35.803  11.978
38603W        W 5034   3.928   7.843   3.599
38604W        W 5035  34.910   3.170  10.724
38605W        W 5036  33.858  34.638  13.112
38606W        W 5037  39.981  15.516  14.031
38607W        W 5038  39.753   0.953   1.837
38608W        W 5039  41.546  41.439   3.744
38609W        W 5040  42.510  22.209  12.090
38610W        W 5041   6.458   4.938  14.745
38611W        W 5042   1.818  12.041  13.335
38612W        W 5043  31.686  39.071   0.519
38613W        W 5044  22.309  44.038   0.015
38614W        W 5045  23.939   6.551   3.644
38615W        W 5046   2.633   0.691  12.773
38616W        W 5047  15.028  12.526  13.881
38617W        W 5048  20.109  42.050   1.646
38618W        W 5049  25.644   9.833  14.844
38619W        W 5050   9.101   1.865   0.498
38620W        W 5051  19.147  34.569   4.641
38621W        W 5052  22.193  36.991  12.850
38622W        W 5053  25.767  34.044   4.596
38623W        W 5054   5.639  13.201  11.890
38624W        W 5055  29.619   5.829  14.300
38625W        W 5056  27.222   3.427  14.558
38626W        W 5057   9.741  35.088  14.760
38627W        W 5058  25.520  37.097  11.635
38628W        W 5059  38.541  24.478  14.778
38629W        W 5060  36.838   6.675   4.493
38630W        W 5061  12.655  37.048  14.347
38631W        W 5062  28.443   8.535  14.547
38632W        W 5063  14.226  12.789  13.008
38633W        W 5064  29.051   3.178   3.176
38634W        W 5065  34.653  12.204  13.923
38635W        W 5066  34.944   9.805   0.374
38636W        W 5067  16.825  18.204   1.612
38637W        W 5068   4.428  32.988  13.951
38638W        W 5069  35.457   4.837  12.124
38639W        W 5070  28.347  42.228  10.753
38640W        W 5071  26.666   8.280  13.036
38641W        W 5072  37.448  24.232   4.244
38642W        W 5073  25.473  34.038  14.809
38643W        W 5074   6.304  42.795  11.013
38644W        W 5075   0.927  11.396  11.695
38645W        W 5076  43.557   0.003  12.566
38646W        W 5077   5.213  20.158   1.876
38647W        W 5078  18.692  27.139  14.900
38648W        W 5079  42.104   9.773  13.886
38649W        W 5080  40.262  15.989   4.114
38650W        W 5081  28.207   2.017   4.845
38651W        W 5082  16.609  38.845  10.177
38652W        W 5083  28.926  25.523  10.743
38653W        W 5084  44.554  27.173   0.349
38654W        W 5085   5.768  36.657   3.039
38655W        W 5086  37.570  31.630  14.489
38656W        W 5087  31.364  18.727   1.753
38657W        W 5088  14.443  40.525  12.787
38658W        W 5089  33.442  10.196   4.923
38659W        W 5090  43.254  10.267  11.096
38660W        W 5091  35.316  37.881  11.294
38661W        W 5092  44.985  13.572  13.015
38662W        W 5093  31.359  27.013   0.706
38663W        W 5094  44.527   1.732  11.152
38664W        W 5095  26.270  31.685  14.821
38665W        W 5096  35.077  35.961  14.008
38666W        W 5097  42.004  39.916   0.004
38667W        W 5098  20.186  33.649  13.332
38668W        W 5099  39.485   3.983   3.361
38669W        W 5100  17.399  15.300  13.294
38670W        W 5101  44.964  18.714   0.832
38671W        W 5102  19.299   9.527   0.032
38672W        W 5103  30.370   0.220   3.629
38673W        W 5104  13.336   6.145   4.212
38674W        W 5105  21.703  22.015  12.454
38675W        W 5106  37.262   7.924   0.162
38676W        W 5107  36.967  13.517   3.149
38677W        W 5108  16.239  37.115  10.679
38678W        W 5109  32.047  31.514   4.350
38679W        W 5110  30.857   7.327   5.009
38680W        W 5111  37.872  13.176  13.361
38681W        W 5112  22.038   3.169  13.001
38682W        W 5113  29.709  10.732  10.940
38683W        W 5114  19.234  35.018  14.809
38684W        W 5115  37.524  20.247  10.920
38685W        W 5116  28.110   1.839  10.626
38686W        W 5117  21.383   7.758   2.905
38687W        W 5118  31.467  42.195  14.373
38688W        W 5119  31.220  23.706   3.635
38689W        W 5120  41.665  42.086  12.447
38690W        W 5121  15.788  38.056   0.856
38691W        W 5122   4.393  24.614  11.042
38692W        W 5123  31.921  15.542  13.976
38693W        W 5124  44.990  18.574  12.123
38694W        W 5125  32.796  41.134  14.819
38695W        W 5126  23.267  21.711  13.400
38696W        W 5127  19.620  44.896  11.659
38697W        W 5128   4.184  29.401   4.871
38698W        W 5129  31.778  27.992   1.264
38699W        W 5130  24.511   0.415   3.094
38700W        W 5131  42.100  26.096  13.380
38701W        W 5132  43.291   0.946   0.358
38702W        W 5133   8.229  31.599  12.508
38703W        W 5134  34.863  33.583  12.928
38704W        W 5135  36.149  17.187  12.916
38705W        W 5136  22.962  10.702  10.512
38706W        W 5137  43.256  32.002   4.098
38707W        W 5138  18.667  38.817   2.745
38708W        W 5139  31.196   7.876  14.418
38709W        W 5140  44.425  35.842  12.522
38710W        W 5141  39.260  34.320  11.920
38711W        W 5142  23.482  37.129  11.654
38712W        W 5143  15.195  27.634  14.530
38713W        W 5144  22.513   9.797  13.988
38714W        W 5145   5.305  22.520   4.198
38715W        W 5146  36.978  20.142   0.537
38716W        W 5147  24.633  13.871  12.656
38717W        W 5148  17.721  41.554   4.520
38718W        W 5149  40.084  24.516   4.179
38719W        W 5150  17.160  40.545  11.464
38720W        W 5151   5.800  33.036   1.724
38721W        W 5152   1.849  42.872  11.145
38722W        W 5153   9.089   0.248   4.573
38723W        W 5154   6.764  21.991   0.311
38724W        W 5155  43.665  35.011  13.985
38725W        W 5156  16.486  32.437  10.510
38726W        W 5157   5.894  12.298   4.089
38727W        W 5158   9.265  40.199   1.728
38728W        W 5159  35.992  27.043   2.458
38729W        W 5160   0.065  38.816  11.637
38730W        W 5161  16.027   9.918  11.832
38731W        W 5162   1.494  12.923  11.294
38732W        W 5163   6.507   1.708  14.531
38733W        W 5164  19.818  11.772  12.353
38734W        W 5165   4.622  38.096  10.587
38735W        W 5166  39.971  19.718  12.028
38736W        W 5167  25.364  11.053  13.808
38737W        W 5168  11.084  43.526  12.440
38738W        W 5169   8.123  36.094   3.212
38739W        W 5170  18.134   9.246  11.395
38740W        W 5171  11.033   0.772  13.409
38741W        W 5172   7.626   9.975   5.034
38742W        W 5173  33.581  10.417  12.856
38743W        W 5174  17.884  27.417   2.304
38744W        W 5175  18.187  28.524   1.940
38745W        W 5176  17.382  30.354  10.914
38746W        W 5177  14.828  17.054  13.107
38747W        W 5178   1.848  31.062  12.127
38748W        W 5179  30.507  36.997  12.480
38749W        W 5180   9.604  28.022   3.197
38750W        W 5181  44.555  34.971  10.930
38751W        W 5182  19.870  43.319  12.295
38752W        W 5183  27.635  10.885  12.326
38753W        W 5184  36.667  27.071   0.291
38754W        W 5185  17.608  20.991  11.880
38755W        W 5186  38.959  23.547   1.831
38756W        W 5187   0.865   8.557  12.188
38757W        W 5188  41.608   8.935   4.616
38758W        W 5189  18.826  36.013   1.201
38759W        W 5190   1.075  34.196   2.773
38760W        W 5191  43.528  30.420  14.350
38761W        W 5192  23.366  41.283   3.315
38762W        W 5193  36.692  15.397  12.532
38763W        W 5194  15.002   2.680   3.995
38764W        W 5195  11.006  44.844  11.420
38765W        W 5196  13.229  20.356  14.919
38766W        W 5197  43.538  23.794  12.048
38767W        W 5198  11.257   4.687   1.331
38768W        W 5199  44.281  14.779   4.587
38769W        W 5200   3.269   7.319  11.439
38770W        W 5201  28.067  22.110   0.367
38771W        W 5202  31.047  17.053   3.189
38772W        W 5203   3.349  43.012   4.162
38773W        W 5204   1.214  31.627  13.413
38774W        W 5205  40.957  44.718  14.101
38775W        W 5206   1.672   9.915  12.572
38776W        W 5207  16.073  22.079   0.402
38777W        W 5208  42.722  44.050  14.952
38778W        W 5209   4.324   6.864  12.284
38779W        W 5210   7.225  44.786   3.240
38780W        W 5211   5.400  35.566   0.837
38781W        W 5212  25.161   3.797   3.676
38782W        W 5213  38.281  19.810   1.810
38783W        W 5214   2.170  16.317   4.501
38784W        W 5215  32.165  20.090   1.890
38785W        W 5216  22.653  38.378   3.285
38786W        W 5217  28.675  13.591  12.057
38787W        W 5218   7.883  19.012  14.388
38788W        W 5219   3.617  34.636  14.563
38789W        W 5220  28.929  20.771  11.581
38790W        W 5221  39.566  15.522  12.498
38791W        W 5222  35.143   8.317   4.374
38792W        W 5223   3.212  36.672   0.469
38793W        W 5224  24.202  39.451   3.614
38794W        W 5225  22.558  44.609   4.379
38795W        W 5226   1.990  29.893   1.386
38796W        W 5227  31.057   2.711  14.790
38797W        W 5228  42.015  13.079   4.029
38798W        W 5229  13.671   8.826  10.110
38799W        W 5230  17.521  16.906   4.963
38800W        W 5231  37.844  14.646   0.350
38801W        W 5232  41.840  42.761  13.006
38802W        W 5233  17.458  44.940   4.721
38803W        W 5234  39.467   7.484  14.432
38804W        W 5235  21.758  43.396  10.192
38805W        W 5236   8.764   4.932   4.650
38806W        W 5237  34.029   4.152   0.852
38807W        W 5238  32.698  30.177   3.277
38808W        W 5239  20.238   5.666  13.282
38809W        W 5240  23.629  40.782  12.476
38810W        W 5241  16.414  20.078  12.099
38811W        W 5242  22.246  37.774  12.140
38812W        W 5243  43.881  33.538  12.476
38813W        W 5244  19.082   5.696  14.375
38814W        W 5245  39.359  28.677  13.878
38815W        W 5246   3.427  20.092  12.050
38816W        W 5247  10.444  16.231  12.563
38817W        W 5248   6.233  37.418   1.643
38818W        W 5249  12.201   4.454   3.068
38819W        W 5250  40.143  43.986  11.507
38820W        W 5251  12.826  22.999  13.343
38821W        W 5252  38.053  10.980   4.665
38822W        W 5253  28.961  19.219  12.967
38823W        W 5254  23.027  34.587  14.174
38824W        W 5255  34.411  29.019  14.366
38825W        W 5256   9.312   5.301   3.714
38826W        W 5257   4.872   8.595  10.816
38827W        W 5258  39.005  37.868   1.288
38828W        W 5259   9.952  17.707  10.757
38829W        W 5260  14.379   5.717  14.973
38830W        W 5261  31.567  37.641   0.783
38831W        W 5262  26.649  23.140  14.298
38832W        W 5263  35.523  44.434   0.442
38833W        W 5264   0.774  23.959  14.004
38834W        W 5265  11.193  38.338  13.610
38835W        W 5266  16.304   6.860   2.409
38836W        W 5267  29.506  11.586   2.828
38837W        W 5268  43.001  14.632   0.183
38838W        W 5269  20.341  16.908   1.640
38839W        W 5270  37.049  20.676   3.312
38840W        W 5271  33.485   6.192   0.259
38841W        W 5272  42.034   7.996   1.733
38842W        W 5273   8.465  36.846  14.401
38843W        W 5274  13.578   9.529   2.137
38844W        W 5275  36.398  44.840  14.494
38845W        W 5276   4.875   0.753   4.061
38846W        W 5277  43.422  21.609  13.280
38847W        W 5278  24.698  38.289   1.290
38848W        W 5279   2.770  17.631  13.756
38849W        W 5280  18.628  44.169   1.291
38850W        W 5281  21.518  31.315   2.673
38851W        W 5282  31.896  14.193  11.947
38852W        W 5283  40.983  44.417  10.998
38853W        W 5284  21.554  40.912   9.767
38854W        W 5285  39.541   4.676   3.913
38855W        W 5286   2.727   6.444  10.730
38856W        W 5287   7.164   3.951   2.748
38857W        W 5288  12.860  34.885  11.242
38858W        W 5289   8.563  20.862   5.008
38859W        W 5290  25.273  31.876  12.595
38860W        W 5291  37.128   0.706  13.945
38861W        W 5292  28.579  26.210   1.345
38862W        W 5293   7.699  37.019   1.422
38863W        W 5294   6.908  33.314  11.032
38864W        W 5295  35.799  19.855  10.929
38865W        W 5296   2.357  30.578   4.062
38866W        W 5297  26.930  13.204  12.532
38867W        W 5298  44.922  14.991   0.965
38868W        W 5299  38.584  19.060   0.540
38869W        W 5300  43.719  41.395  11.069
38870W        W 5301  16.808   6.695   2.311
38871W        W 5302  15.011  38.898  11.339
38872W        W 5303   2.062  43.154  14.009
38873W        W 5304  38.947  41.462  14.394
38874W        W 5305  11.315   2.252  13.312
38875W        W 5306  35.603  28.637   2.849
38876W        W 5307   7.255  39.910   3.745
38877W        W 5308  21.987  36.046  14.741
38878W        W 5309   1.383  38.471  13.287
38879W        W 5310  34.643   2.424  12.541
38880W        W 5311  12.749  15.817  11.121
38881W        W 5312  20.077   8.448   0.053
38882W        W 5313  35.042   3.739   1.163
38883W        W 5314  25.563  24.505  12.861
38884W        W 5315  40.455  13.798  14.812
38885W        W 5316  28.149  23.501   4.597
38886W        W 5317  43.819  32.409   3.824
38887W        W 5318  39.956  29.987   1.138
38888W        W 5319   2.022   7.074   4.662
38889W        W 5320   4.750  10.720   2.518
38890W        W 5321  31.558  25.661  11.868
38891W        W 5322  13.694  18.221   3.249
38892W        W 5323  33.919   5.675  12.574
38893W        W 5324  42.358  21.143   1.184
38894W        W 5325  17.863  37.638   0.443
38895W        W 5326   6.448  14.080   2.841
38896W        W 5327  30.547  15.229   4.391
38897W        W 5328   1.167  21.762   3.114
38898W        W 5329  15.221  21.210   2.012
38899W        W 5330  12.570  37.468   0.692
38900W        W 5331  23.032   5.223  14.333
38901W        W 5332   3.888   6.756  14.026
38902W        W 5333  29.520  15.133  10.998
38903W        W 5334   8.924  23.634  14.453
38904W        W 5335   3.959  32.579   1.259
38905W        W 5336  17.445  17.147   0.348
38906W        W 5337  29.969  37.076   4.586
38907W        W 5338  38.243  39.800  12.522
38908W        W 5339  29.097  22.072  13.378
38909W        W 5340   6.747   9.412   1.683
38910W        W 5341  40.930  36.805  11.202
38911W        W 5342  23.182  29.059   5.388
38912W        W 5343  38.147  11.356  12.092
38913W        W 5344  39.334  40.849  11.736
38914W        W 5345  32.503  30.970  11.213
38915W        W 5346  34.557   1.874   3.044
38916W        W 5347  26.598  38.114  11.075
38917W        W 5348  43.942  12.805  10.777
38918W        W 5349  17.360  27.700  13.191
38919W        W 5350  10.396  31.410  10.962
38920W        W 5351  28.027  39.543  11.647
38921W        W 5352   7.417   5.762  10.679
38922W        W 5353   2.556  43.010   3.696
38923W        W 5354  20.619  32.678   0.896
38924W        W 5355  12.783  33.843  14.096
38925W        W 5356  40.075  25.621   3.817
38926W        W 5357  17.571  12.734   0.345
38927W        W 5358  10.426  17.590   4.178
38928W        W 5359  44.568  15.751   2.265
38929W        W 5360  38.127  12.101   3.112
38930W        W 5361   3.989  13.769   2.217
38931W        W 5362  28.205  28.985   2.823
38932W        W 5363  38.646  15.210   2.416
38933W        W 5364   4.395  15.229   0.938
38934W        W 5365  27.616   9.397  14.292
38935W        W 5366  20.679  20.464   5.058
38936W        W 5367   9.661  15.880  12.402
38937W        W 5368   0.788  26.715   2.664
38938W        W 5369  11.068   3.801   1.212
38939W        W 5370  39.990  26.189  11.543
38940W        W 5371  10.310   2.714   4.693
38941W        W 5372  43.963  26.904   4.561
38942W        W 5373   5.662  16.612   1.268
38943W        W 5374  17.989  39.724  10.003
38944W        W 5375  32.938  34.046   4.303
38945W        W 5376  34.623  22.935   1.757
38946W        W 5377  31.886  35.069  10.735
38947W        W 5378  37.977  30.609   0.399
38948W        W 5379  29.993  22.575   2.452
38949W        W 5380  41.809  44.663   0.746
38950W        W 5381  24.963  25.707  11.632
38951W        W 5382  17.383  39.600   2.185
38952W        W 5383  32.597   7.295  13.980
38953W        W 5384  43.570   9.795  11.088
38954W        W 5385   1.769  28.471   2.525
38955W        W 5386  14.356  38.768  10.653
38956W        W 5387  32.633  27.469  14.468
38957W        W 5388   5.474  16.378   0.835
38958W        W 5389  21.231  17.062   1.706
38959W        W 5390  10.343   3.580   0.829
38960W        W 5391  36.551  19.938  10.303
38961W        W 5392   9.168   3.705  14.208
38962W        W 5393  18.216  11.157  13.562
38963W        W 5394  42.959  35.849  12.154
38964W        W 5395  21.643  34.415  12.361
38965W        W 5396   7.954   8.651  13.114
38966W        W 5397  14.135   0.342  14.886
38967W        W 5398  17.605  33.923  14.463
38968W        W 5399  26.493  23.843   4.112
38969W        W 5400  26.771   0.753  14.234
38970W        W 5401  37.196  43.082  11.588
38971W        W 5402  10.630  16.992   3.576
38972W        W 5403  43.458   0.154   1.848
38973W        W 5404  40.540  11.483   0.899
38974W        W 5405  28.606  25.771   2.302
38975W        W 5406   0.019  11.642   1.034
38976W        W 5407  18.282  41.389   4.558
38977W        W 5408  37.364  23.115   2.631
38978W        W 5409  10.018  36.605   5.146
38979W        W 5410   8.239  28.395  12.339
38980W        W 5411  25.678   2.721   0.902
38981W        W 5412  43.044  28.643   3.642
38982W        W 5413  33.614   9.343  14.270
38983W        W 5414  42.817  13.390  13.462
38984W        W 5415  20.133  39.486   1.960
38985W        W 5416  11.973   7.299   1.835
38986W        W 5417  29.344  11.797  13.459
38987W        W 5418  36.678  41.353   0.041
38988W        W 5419  20.154  31.839  13.106
38989W        W 5420  42.542   3.825   2.071
38990W        W 5421   3.485  16.090  13.697
38991W        W 5422  41.974   2.691   2.334
38992W        W 5423  25.444  38.855  11.887
38993W        W 5424  21.355   5.704   4.201
38994W        W 5425  12.063  21.896  13.048
38995W        W 5426  13.094  11.592   3.598
38996W        W 5427   7.335   5.549   4.194
38997W        W 5428  41.370  20.152   2.914
38998W        W 5429  17.831   9.754  10.949
38999W        W 5430  17.617  31.717  12.433
39000W        W 5431  17.074   9.615  10.356
39001W        W 5432  37.296  32.091  14.471
39002W        W 5433  24.152  33.870   0.495
39003W        W 5434  21.494  31.867   2.472
39004W        W 5435  10.399   0.333  12.484
39005W        W 5436   0.921   6.859   3.160
39006W        W 5437   2.223  34.534   0.252
39007W        W 5438  25.270  14.288   5.099
39008W        W 5439  31.960   6.770   4.549
39009W        W 5440  12.228  36.241   2.633
39010W        W 5441  27.627  14.726   3.464
39011W        W 5442  41.854  34.189  12.774
39012W        W 5443  21.572  38.928   2.228
39013W        W 5444  15.819  31.480  11.898
39014W        W 5445  25.450  28.214  10.668
39015W        W 5446  44.217   0.764   4.603
39016W        W 5447  21.809  25.720   0.710
39017W        W 5448  10.027  35.620  14.460
39018W        W 5449  40.032  14.669   4.647
39019W        W 5450  16.589   8.265  13.605
39020W        W 5451  21.919   3.452  12.502
39021W        W 5452  23.761  39.866   2.343
39022W        W 5453  19.404  19.072   0.395
39023W        W 5454  15.208  29.214   3.117
39024W        W 5455  18.764  22.026  11.104
39025W        W 5456  43.767   0.908  12.943
39026W        W 5457  41.064  29.657   1.840
39027W        W 5458   2.728  30.966   2.631
39028W        W 5459  30.587  39.438   4.065
39029W        W 5460  24.087  32.148   5.476
39030W        W 5461  34.852   9.858   3.672
39031W        W 5462  18.026   3.027  12.038
39032W        W 5463   0.126   3.516   3.930
39033W        W 5464  26.652   6.674  12.636
39034W        W 5465  25.310  19.712   0.994
39035W        W 5466  22.437  40.704  11.908
39036W        W 5467  11.292  14.070  10.817
39037W        W 5468  18.600   2.872  11.480
39038W        W 5469   6.436  20.213   4.577
39039W        W 5470  27.737  14.930  10.604
39040W        W 5471  20.930  30.195  14.654
39041W        W 5472  16.539  26.539  11.341
39042W        W 5473  20.300  38.311   3.654
39043W        W 5474  22.747  44.951  12.567
39044W        W 5475  31.483   3.269   1.916
39045W        W 5476   4.815  27.182   3.328
39046W        W 5477   8.692  26.575   5.039
39047W        W 5478  23.989  32.013  12.894
39048W        W 5479  19.508  44.746   3.598
39049W        W 5480   9.190  19.517  13.278
39050W        W 5481  40.896  35.542   0.194
39051W        W 5482  39.588  37.043   4.496
39052W        W 5483  35.016   8.750   0.305
39053W        W 5484  19.932   9.563  14.623
39054W        W 5485  11.724   0.487   1.399
39055W        W 5486   0.936  35.961   9.977
39056W        W 5487  15.980  21.897   4.999
39057W        W 5488  25.627  14.042   1.257
39058W        W 5489  18.571  41.886  14.906
39059W        W 5490  33.361   7.515  12.462
39060W        W 5491  41.320   1.659   2.690
39061W        W 5492  22.986  33.987   1.755
39062W        W 5493   5.737  28.239  12.546
39063W        W 5494  34.448   2.637  11.205
39064W        W 5495   6.435  13.546   2.850
39065W        W 5496  21.844  24.265  14.679
39066W        W 5497   9.601  22.507   0.795
39067W        W 5498   1.695   2.126   2.710
39068W        W 5499   0.349  29.039   0.458
39069W        W 5500   5.765  11.786  10.491
39070W        W 5501  17.504  24.711  11.113
39071W        W 5502  15.524   3.351  13.375
39072W        W 5503  11.283  23.258   3.999
39073W        W 5504  41.160   5.189   1.885
39074W        W 5505  10.706  27.439  12.443
39075W        W 5506  22.016  18.300  12.454
39076W        W 5507  21.869  27.660  11.471
39077W        W 5508  38.045  30.608  14.142
39078W        W 5509  12.675  37.528  11.626
39079W        W 5510  19.043  39.656  13.978
39080W        W 5511  10.947  23.888   0.116
39081W        W 5512   0.272   3.298   0.306
39082W        W 5513  43.778  42.532   4.509
39083W        W 5514  18.725   0.077  11.191
39084W        W 5515  22.978  42.982   2.311
39085W        W 5516  19.702  22.752   3.528
39086W        W 5517  26.155  14.483  13.915
39087W        W 5518  37.067   7.216   2.100
39088W        W 5519  34.747  19.771   2.825
39089W        W 5520  34.868   4.000  12.093
39090W        W 5521  31.630  22.637  12.537
39091W        W 5522  27.916   9.296   2.385
39092W        W 5523  11.784  30.184   0.874
39093W        W 5524  39.633  32.713   0.134
39094W        W 5525   3.150  14.626   2.872
39095W        W 5526   8.067  26.406  10.226
39096W        W 5527  25.500   0.756  13.445
39097W        W 5528  23.239  43.340  11.215
39098W        W 5529  18.728  19.525   3.666
39099W        W 5530  11.564  34.183  14.369
39100W        W 5531  38.094   7.567   2.389
39101W        W 5532  20.242   5.748  11.914
39102W        W 5533  35.812  44.179  14.306
39103W        W 5534  23.587  30.673   1.148
39104W        W 5535  26.895  33.938  12.470
39105W        W 5536   3.664   7.050  14.396
39106W        W 5537  18.766  12.599   4.202
39107W        W 5538  33.608  26.773   3.088
39108W        W 5539   6.667  31.375   2.627
39109W        W 5540  44.066  24.288   0.405
39110W        W 5541  29.640  14.619   0.674
39111W        W 5542  31.954   9.664   1.296
39112W        W 5543  18.499  34.448   4.711
39113W        W 5544  19.412  37.084   2.834
39114W        W 5545  24.202   7.678  13.423
39115W        W 5546  29.653  27.067  11.068
39116W        W 5547  21.230  24.457   0.293
39117W        W 5548  12.389  13.836   4.317
39118W        W 5549   6.869   2.913   4.290
39119W        W 5550   0.266  41.128  11.599
39120W        W 5551  28.024   2.276  12.055
39121W        W 5552   2.143  17.281  12.107
39122W        W 5553  15.460  33.673   0.677
39123W        W 5554  22.846  35.617   2.259
39124W        W 5555  32.615  25.013   0.331
39125W        W 5556  16.687  35.380   2.559
39126W        W 5557  41.858  19.092  11.105
39127W        W 5558   0.184  33.176  12.656
39128W        W 5559   1.451   9.546  14.326
39129W        W 5560  22.188   8.159  12.335
39130W        W 5561   3.778   5.434   3.953
39131W        W 5562  28.892  35.512  11.596
39132W        W 5563   1.307  17.412  12.552
39133W        W 5564  34.426  10.805   3.639
39134W        W 5565   5.358   9.192   0.302
39135W        W 5566  15.375   8.483  14.384
39136W        W 5567  15.044   6.831  12.644
39137W        W 5568  31.570  25.144   0.360
39138W        W 5569  12.725  26.014  12.864
39139W        W 5570  28.477  27.618   0.740
39140W        W 5571  21.362  20.237  11.895
39141W        W 5572  43.205  41.015  13.414
39142W        W 5573  34.354  10.630  12.186
39143W        W 5574  40.813  24.976  12.561
39144W        W 5575  22.773  29.084  13.943
39145W        W 5576  31.853   6.284  12.941
39146W        W 5577  22.542  38.395   0.266
39147W        W 5578  21.537  32.814  10.196
39148W        W 5579   9.894   3.224  12.865
39149W        W 5580   5.718   3.711   2.670
39150W        W 5581  17.619   1.582  14.704
39151W        W 5582  40.428  15.091   2.845
39152W        W 5583  35.833  33.993  13.102
39153W        W 5584  21.797  35.103  10.459
39154W        W 5585  31.431  24.038   2.926
39155W        W 5586  12.045  23.114   4.945
39156W        W 5587  35.502  40.344   1.841
39157W        W 5588  15.613  34.051  14.457
39158W        W 5589   4.466  14.352   0.486
39159W        W 5590   2.628  40.318   1.845
39160W        W 5591  37.546  39.437   1.932
39161W        W 5592  27.568   2.312   4.381
39162W        W 5593  44.324  40.031  10.241
39163W        W 5594  25.017  16.582   3.380
39164W        W 5595  24.661   1.701   2.859
39165W        W 5596  17.095  19.828  12.437
39166W        W 5597  36.053  16.868  14.574
39167W        W 5598  35.600  34.256  10.910
39168W        W 5599  19.888  39.935   4.006
39169W        W 5600  19.331  43.760  10.581
39170W        W 5601  17.063   3.656  11.211
39171W        W 5602  34.909  11.175  13.358
39172W        W 5603  13.191  35.856   0.766
39173W        W 5604  26.496   3.871   0.277
39174W        W 5605  26.036  23.238  14.805
39175W        W 5606  31.656   5.663   4.228
39176W        W 5607  20.451  10.912   0.632
39177W        W 5608   0.311  23.464   4.368
39178W        W 5609  20.262   6.236   2.642
39179W        W 5610  31.379  26.588  12.487
39180W        W 5611  39.718  15.553  14.932
39181W        W 5612  17.063  13.977   0.312
39182W        W 5613  31.991  13.558   1.282
39183W        W 5614  38.003   0.717  11.153
39184W        W 5615  41.003  38.304  10.234
39185W        W 5616   5.409  30.567  14.892
39186W        W 5617  21.141  27.953   3.130
39187W        W 5618  27.138  44.692   0.311
39188W        W 5619   9.352  22.834  13.181
39189W        W 5620   2.350  20.094   0.921
39190W        W 5621  44.557  41.472   0.831
39191W        W 5622  14.057   8.710   0.098
39192W        W 5623  43.388  11.748  11.166
39193W        W 5624   8.602  34.525  11.368
39194W        W 5625  11.812  43.209   4.244
39195W        W 5626   9.148  18.118  13.399
39196W        W 5627  31.020  41.561  14.524
39197W        W 5628   1.946  32.640   0.409
39198W        W 5629  29.638  39.934  11.457
39199W        W 5630  24.463   1.683  14.058
39200W        W 5631   9.145  20.165   4.909
39201W        W 5632  12.883   5.406  10.478
39202W        W 5633  15.179  32.421  11.192
39203W        W 5634   1.764  33.609  10.438
39204W        W 5635  11.463  29.598  11.197
39205W        W 5636  44.323  16.227   1.346
39206W        W 5637  31.882   1.837   1.314
39207W        W 5638  26.660  34.895   4.274
39208W        W 5639  19.312  30.855  12.864
39209W        W 5640  38.477  40.447  13.658
39210W        W 5641  33.596  28.051   2.300
39211W        W 5642  30.260  28.225  12.401
39212W        W 5643  29.139  41.159   3.690
39213W        W 5644  25.570  22.232  11.576
39214W        W 5645  30.822  42.899  13.446
39215W        W 5646  10.033  12.273  14.975
39216W        W 5647   0.632  20.756  14.092
39217W        W 5648   9.945   6.747  14.240
39218W        W 5649  37.472  29.675  11.101
39219W        W 5650  38.582  25.476  14.481
39220W        W 5651   9.776  24.471  14.748
39221W        W 5652  13.442  30.323  11.941
39222W        W 5653  15.527  23.074  11.694
39223W        W 5654   5.341  16.637  12.365
39224W        W 5655  34.841  26.401   5.084
39225W        W 5656  41.561  30.999   2.195
39226W        W 5657  29.705   3.722  13.326
39227W        W 5658  37.841   0.587  12.389
39228W        W 5659  40.364  12.261   0.320
39229W        W 5660  43.946   5.909   2.470
39230W        W 5661  26.657  27.578   1.316
39231W        W 5662  38.349  37.552   3.511
39232W        W 5663  18.193  22.326  13.392
39233W        W 5664  36.066  14.208  14.283
39234W        W 5665  29.993  38.617   4.253
39235W        W 5666  32.508  19.817   2.569
39236W        W 5667  33.934   5.393  13.025
39237W        W 5668  43.393  30.850   0.889
39238W        W 5669  11.635  15.716   1.230
39239W        W 5670   7.925  25.211  14.329
39240W        W 5671  15.394  42.083  13.509
39241W        W 5672  19.719  21.272   3.708
39242W        W 5673  33.903   5.159   1.162
39243W        W 5674   7.876  30.499   2.201
39244W        W 5675  35.368  13.178  11.516
39245W        W 5676  17.812   1.021  13.870
39246W        W 5677  42.521  17.749   3.346
39247W        W 5678  44.954  15.600  10.757
39248W        W 5679  22.073  32.414   0.957
39249W        W 5680  33.387  40.546   3.270
39250W        W 5681  39.000  33.012  11.526
39251W        W 5682  24.295   5.424   3.402
39252W        W 5683  39.447  14.933  13.175
39253W        W 5684   5.293  20.071   0.498
39254W        W 5685   9.631  16.354   9.805
39255W        W 5686  42.111   9.748   4.693
39256W        W 5687  11.668  10.818   2.400
39257W        W 5688  23.941   0.929  14.885
39258W        W 5689  42.222   4.364  12.572
39259W        W 5690  15.574   1.448  14.699
39260W        W 5691  22.453   9.080   4.209
39261W        W 5692  29.192  37.280  13.056
39262W        W 5693  35.619   2.047   3.690
39263W        W 5694  41.001  24.011  12.862
39264W        W 5695  18.797  16.621   3.269
39265W        W 5696  15.177  34.055   3.363
39266W        W 5697   3.435  36.383   2.272
39267W        W 5698  13.232  39.005   2.928
39268W        W 5699  38.097   0.991   4.713
39269W        W 5700   7.619  14.472   3.795
39270W        W 5701  27.061  40.233  14.750
39271W        W 5702  35.868  17.860   0.880
39272W        W 5703  38.293  19.619   0.482
39273W        W 5704  23.613  12.511  14.707
39274W        W 5705  34.014  32.660   4.597
39275W        W 5706   1.432  16.086   0.247
39276W        W 5707  11.130  25.808  11.510
39277W        W 5708  12.615  15.797  13.785
39278W        W 5709   8.611  16.555  13.874
39279W        W 5710  14.191  21.537   1.293
39280W        W 5711   0.293   9.345  13.205
39281W        W 5712   3.914  36.616   0.726
39282W        W 5713  38.449  36.379  13.920
39283W        W 5714  28.854   8.080   9.865
39284W        W 5715  23.716  11.271   1.322
39285W        W 5716  10.714  38.608   1.255
39286W        W 5717  21.183  35.138  12.466
39287W        W 5718  39.039  19.601   1.575
39288W        W 5719   1.419  40.400  12.026
39289W        W 5720  22.473  31.432  14.855
39290W        W 5721   8.004  15.117   0.765
39291W        W 5722  35.366  39.955   2.181
39292W        W 5723  23.835  14.346   2.887
39293W        W 5724  25.087  38.001  12.310
39294W        W 5725  41.869  16.154  10.619
39295W        W 5726  11.786  40.039  11.562
39296W        W 5727  25.426  15.143   2.742
39297W        W 5728   0.747  31.112   0.438
39298W        W 5729  44.565  43.229  10.254
39299W        W 5730  41.709   4.414  12.492
39300W        W 5731  29.176  19.751  14.652
39301W        W 5732  24.987  27.703  13.247
39302W        W 5733  12.119  44.023  14.901
39303W        W 5734  16.315  35.762   3.807
39304W        W 5735  37.326   1.412  14.493
39305W        W 5736  40.519  31.249  12.111
39306W        W 5737  17.000  36.511  12.029
39307W        W 5738   2.898  24.821  12.075
39308W        W 5739  33.305  36.078  13.109
39309W        W 5740  40.995  19.606   2.322
39310W        W 5741  15.083  33.512   2.665
39311W        W 5742  14.138  31.978   1.369
39312W        W 5743  23.485  36.338  14.241
39313W        W 5744  21.161   4.834  10.290
39314W        W 5745  28.205  37.007  10.733
39315W        W 5746  42.056  32.056  11.546
39316W        W 5747  19.349  33.902   2.102
39317W        W 5748  19.455  22.493  10.798
39318W        W 5749  29.020   6.187   2.716
39319W        W 5750   6.833  29.921   1.602
39320W        W 5751   6.036  21.192  11.583
39321W        W 5752   0.396  21.325   3.347
39322W        W 5753  18.245  31.540  12.105
39323W        W 5754  22.823  21.331  14.818
39324W        W 5755  30.206   5.344   0.957
39325W        W 5756  15.061   3.452  13.630
39326W        W 5757  10.390  41.037  12.003
39327W        W 5758  37.932   8.541   0.230
39328W        W 5759  15.232  21.792  10.201
39329W        W 5760  27.961  40.493  14.744
39330W        W 5761  38.934  10.849  12.562
39331W        W 5762  16.685  44.913   1.170
39332W        W 5763  25.587   1.265   1.939
39333W        W 5764  27.021   7.293   4.808
39334W        W 5765  27.059  35.417   1.774
39335W        W 5766  12.369  11.203   1.190
39336W        W 5767  32.610  26.492  12.957
39337W        W 5768  14.161  33.274   0.990
39338W        W 5769  27.550  31.829   2.208
39339W        W 5770  21.176   0.180  13.290
39340W        W 5771  17.725   2.103  14.749
39341W        W 5772  41.414   4.551   2.363
39342W        W 5773  28.369  32.091  10.605
39343W        W 5774  16.708  14.362   3.383
39344W        W 5775  14.168   3.233  13.612
39345W        W 5776  31.159  29.528  10.702
39346W        W 5777  22.768  22.886  10.691
39347W        W 5778  23.586  28.184  13.428
39348W        W 5779  11.316  29.496   4.658
39349W        W 5780  22.097  29.716   4.170
39350W        W 5781  38.359  42.407  11.156
39351W        W 5782  39.583   0.888  14.914
39352W        W 5783  38.367  10.310   2.733
39353W        W 5784  38.298  35.514   3.866
39354W        W 5785  43.902   5.398   2.418
39355W        W 5786   0.086   9.135  11.099
39356W        W 5787  43.375  27.850  10.835
39357W        W 5788  16.526  27.744   1.787
39358W        W 5789  43.471  37.012  11.551
39359W        W 5790  31.521  40.664  14.239
39360W        W 5791  40.543  44.995   1.214
39361W        W 5792   5.444  29.613   4.531
39362W        W 5793  27.097  23.163  14.555
39363W        W 5794  15.715  23.718  11.661
39364W        W 5795  27.459   4.019  11.685
39365W        W 5796  10.383   1.273   5.074
39366W        W 5797  41.055   5.461   0.288
39367W        W 5798  39.135  40.647  10.726
39368W        W 5799   5.134  32.580   2.287
39369W        W 5800   2.889  32.935  11.087
39370W        W 5801  26.626   6.530  10.623
39371W        W 5802  37.671   3.866  14.107
39372W        W 5803  35.602  25.966  11.517
39373W        W 5804   2.375  22.315  11.105
39374W        W 5805  33.537  44.786  11.362
39375W        W 5806   9.224  32.833  13.955
39376W        W 5807  22.683  33.013  11.603
39377W        W 5808   5.478  18.220   0.980
39378W        W 5809  20.659  30.748   4.371
39379W        W 5810  38.575  11.910  11.142
39380W        W 5811  40.530   9.533   0.322
39381W        W 5812   8.785  37.397  10.190
39382W        W 5813   4.677  32.912   2.069
39383W        W 5814  12.629  38.280   1.830
39384W        W 5815  27.157   8.888   4.935
39385W        W 5816  30.408  14.228   0.734
39386W        W 5817  10.985  15.009  10.902
39387W        W 5818  39.391  13.914  11.418
39388W        W 5819   0.002  33.267   2.790
39389W        W 5820  43.992  20.396   0.019
39390W        W 5821  13.700  43.795   2.273
39391W        W 5822  37.003  32.505  10.805
39392W        W 5823  14.323  43.402   2.704
39393W        W 5824  34.824  31.834  11.889
39394W        W 5825  17.034  23.724  14.953
39395W        W 5826  43.344  33.874   3.392
39396W        W 5827  12.097  44.979   0.298
39397W        W 5828   7.676  19.505   2.842
39398W        W 5829   3.518  11.764  11.291
39399W        W 5830  32.940   9.634  12.948
39400W        W 5831  24.311  20.147   5.285
39401W        W 5832  36.417  20.564  10.215
39402W        W 5833  30.349   7.523  11.684
39403W        W 5834  40.052  25.490   0.910
39404W        W 5835  11.786  23.966   1.404
39405W        W 5836  13.009   4.846   4.015
39406W        W 5837  30.038  15.564   3.774
39407W        W 5838  20.838  42.795  12.153
39408W        W 5839  21.755   7.779   0.512
39409W        W 5840  12.919   0.325  10.652
39410W        W 5841  35.511  21.966   4.670
39411W        W 5842  11.314   8.714  13.825
39412W        W 5843  28.589   0.204  11.664
39413W        W 5844  26.661  27.499   0.370
39414W        W 5845  20.443  14.034   3.080
39415W        W 5846  33.195  30.107   3.145
39416W        W 5847  10.124  13.864   1.301
39417W        W 5848  39.493  14.264   3.875
39418W        W 5849  34.492  26.188   3.742
39419W        W 5850  38.033  24.618   2.822
39420W        W 5851  14.570   1.958  12.015
39421W        W 5852  36.096   3.023  14.419
39422W        W 5853  38.413   1.199   2.739
39423W        W 5854  33.002  31.643   1.587
39424W        W 5855   2.290  27.647   0.441
39425W        W 5856  31.401  33.399   4.731
39426W        W 5857  41.695  18.747   1.030
39427W        W 5858  32.042  30.462   0.722
39428W        W 5859  18.488  31.552  10.834
39429W        W 5860  35.415  34.453   1.794
39430W        W 5861  37.081  44.283  10.720
39431W        W 5862  12.700  13.088   4.699
39432W        W 5863  16.013  21.906  12.694
39433W        W 5864  31.825  10.326   4.085
39434W        W 5865   0.351  39.457   1.425
39435W        W 5866  37.489  40.578   4.541
39436W        W 5867  13.884   7.642  11.507
39437W        W 5868  17.218  12.261  12.463
39438W        W 5869   1.895   7.807   3.948
39439W        W 5870  34.988  41.329  11.343
39440W        W 5871  29.171  10.219  14.021
39441W        W 5872  17.836  28.374   1.086
39442W        W 5873  36.522  10.182   2.279
39443W        W 5874  22.217  22.008  12.500
39444W        W 5875  37.054  21.665   0.272
39445W        W 5876  24.569   9.027  13.369
39446W        W 5877   2.201  26.310   2.782
39447W        W 5878  18.219  23.825   1.695
39448W        W 5879  25.743  36.595  14.422
39449W        W 5880  17.576  27.899  10.612
39450W        W 5881  10.204   8.072  12.407
39451W        W 5882   5.868  26.047  11.687
39452W        W 5883  39.438  14.245   3.365
39453W        W 5884   5.517  28.086  11.575
39454W        W 5885   2.012  18.458  12.648
39455W        W 5886  33.029  20.508   0.799
39456W        W 5887   1.159   9.376  13.916
39457W        W 5888  20.506  18.716  14.221
39458W        W 5889  15.904  43.004  14.091
39459W        W 5890   6.272  22.390   4.481
39460W        W 5891   1.866  28.923   0.361
39461W        W 5892   3.362   0.235   2.338
39462W        W 5893  14.184  28.474  11.104
39463W        W 5894   8.383  31.118   4.777
39464W        W 5895  44.511  14.593   5.025
39465W        W 5896  41.110   2.253  12.962
39466W        W 5897  23.514  18.154  14.947
39467W        W 5898   1.726  24.054  13.912
39468W        W 5899  15.662  17.028   0.039
39469W        W 5900   7.554  37.108  10.797
39470W        W 5901  31.090   5.854  11.363
39471W        W 5902   4.719  43.130  11.747
39472W        W 5903  17.384  41.891   2.306
39473W        W 5904  23.280  41.921  12.048
39474W        W 5905   3.167  44.250   2.369
39475W        W 5906  21.217  42.532  11.827
39476W        W 5907   8.172  21.568  11.901
39477W        W 5908  21.474  17.728   0.816
39478W        W 5909  32.932  10.383   1.760
39479W        W 5910  22.321  20.596  14.772
39480W        W 5911   0.237  39.329  12.844
39481W        W 5912   6.627  16.544   2.330
39482W        W 5913   8.684  23.103   2.551
39483W        W 5914  25.862  42.763   3.416
39484W        W 5915   8.703  41.985  13.131
39485W        W 5916  10.909  44.847   1.781
39486W        W 5917   8.441   4.389  11.461
39487W        W 5918  30.195   0.694  13.452
39488W        W 5919  44.004  20.029  11.843
39489W        W 5920  23.443  29.565   4.148
39490W        W 5921  20.738  13.140  13.725
39491W        W 5922  22.754   3.883   4.311
39492W        W 5923  38.356   9.406   2.674
39493W        W 5924  15.585   0.047  10.637
39494W        W 5925  27.610  25.146   1.560
39495W        W 5926  16.204   5.311   2.902
39496W        W 5927   3.925  38.527  13.882
39497W        W 5928  28.406   9.275   4.681
39498W        W 5929  24.584   0.246  13.568
39499W        W 5930   3.318   5.418   1.324
39500W        W 5931   5.293  27.099  11.509
39501W        W 5932  22.654  39.610   2.750
39502W        W 5933  34.729  35.210  12.879
39503W        W 5934   6.903  12.706   1.871
39504W        W 5935   8.864   4.249  10.707
39505W        W 5936  17.839  22.493   3.908
39506W        W 5937   1.304   5.298   0.241
39507W        W 5938   5.907   1.249   1.871
39508W        W 5939   3.293  36.114  11.097
39509W        W 5940  10.866  22.997  10.156
39510W        W 5941  35.367   1.341   0.348
39511W        W 5942  43.801  12.873   3.763
39512W        W 5943  44.000  27.161  10.733
39513W        W 5944  29.174   9.164   4.080
39514W        W 5945  19.899  24.790   2.465
39515W        W 5946  43.349  28.424  11.109
39516W        W 5947  29.439  29.441   1.618
39517W        W 5948  32.127  14.094  13.474
39518W        W 5949  35.320  34.138   4.708
39519W        W 5950   0.009   5.783  10.879
39520W        W 5951  29.962  13.653   3.982
39521W        W 5952   7.466   3.986   4.117
39522W        W 5953  13.681  19.177   1.892
39523W        W 5954  19.735   5.757  13.101
39524W        W 5955  23.347   0.479  13.284
39525W        W 5956  23.923  26.577  11.703
39526W        W 5957   1.294  26.018   3.366
39527W        W 5958  23.932   3.216   0.070
39528W        W 5959  31.411  35.884  11.172
39529W        W 5960  16.690   9.970  11.082
39530W        W 5961   1.097   3.784  14.320
39531W        W 5962  27.229  28.335   2.018
39532W        W 5963  20.221   9.667   4.262
39533W        W 5964  28.000  13.063   3.135
39534W        W 5965  27.975  40.483  10.754
39535W        W 5966  35.320  44.721   1.281
39536W        W 5967  13.300   4.906   0.846
39537W        W 5968  14.920  41.512  11.942
39538W        W 5969  37.783  25.703  11.147
39539W        W 5970   1.530  23.039  13.353
39540W        W 5971  15.571  11.734  12.526
39541W        W 5972  15.753   6.006   3.708
39542W        W 5973  22.424  40.945   3.294
39543W        W 5974  42.410  26.905   2.129
39544W        W 5975  25.041  22.445  11.155
39545W        W 5976  38.530  20.843   0.689
39546W        W 5977  17.172  24.360   0.675
39547W        W 5978  18.266  23.109  14.921
39548W        W 5979  16.530  19.088  14.917
39549W        W 5980  35.612  22.526  11.574
39550W        W 5981  11.826  41.908   0.339
39551W        W 5982  20.351  40.911  14.900
39552W        W 5983  11.713  41.517  13.609
39553W        W 5984  37.380   9.904  11.947
39554W        W 5985   4.648   1.418  11.628
39555W        W 5986  14.157  30.683   1.468
39556W        W 5987   3.970  24.924   5.220
39557W        W 5988  18.822  14.226   3.615
39558W        W 5989   7.002  15.143   0.827
39559W        W 5990   5.234  43.807  11.334
39560W        W 5991  42.434  19.963  10.466
39561W        W 5992  38.239  23.573  12.480
39562W        W 5993   5.587  15.535   1.676
39563W        W 5994   0.544  12.536  14.833
39564W        W 5995   8.658  28.718  12.410
39565W        W 5996  13.364  44.366  10.784
39566W        W 5997  18.827  38.478   0.594
39567W        W 5998  25.564  19.875   1.429
39568W        W 5999  15.212   3.129   4.917
39569W        W 6000  18.632  40.897   0.007
39570W        W 6001   9.327   8.659  10.769
39571W        W 6002  12.225   2.418   3.254
39572W        W 6003  35.144  41.483   3.685
39573W        W 6004  27.668  18.187   4.685
39574W        W 6005  18.635   0.895   4.110
39575W        W 6006   6.157  25.171   4.506
39576W        W 6007  11.390  17.578  14.466
39577W        W 6008  30.219  19.587   4.136
39578W        W 6009   5.368  44.863   1.503
39579W        W 6010  24.223  34.081   1.963
39580W        W 6011  17.621  24.625   3.719
39581W        W 6012  36.398  10.332   0.441
39582W        W 6013  15.084   1.789   2.140
39583W        W 6014   8.363  15.553  12.601
39584W        W 6015   4.673  11.672  12.003
39585W        W 6016  35.692  30.866  11.931
39586W        W 6017  38.403  29.390   0.359
39587W        W 6018  24.451  44.294   0.931
39588W        W 6019  29.510   4.722   3.970
39589W        W 6020  16.738  20.992  14.542
39590W        W 6021  10.896  17.628  11.610
39591W        W 6022  26.548   5.694   1.628
39592W        W 6023   3.454  22.210   4.812
39593W        W 6024  11.920  11.818  12.475
39594W        W 6025  42.768  34.108   2.029
39595W        W 6026  20.073  14.884  14.517
39596W        W 6027  14.299  23.876  12.483
39597W        W 6028  43.869  43.958  11.154
39598W        W 6029  18.954  13.074   4.195
39599W        W 6030  18.178  15.177  13.378
39600W        W 6031  23.435  35.871  14.051
39601W        W 6032  25.198  39.452  13.344
39602W        W 6033  10.220  14.124  14.702
39603W        W 6034  31.420   8.085  12.858
39604W        W 6035  35.439   5.761  12.456
39605W        W 6036  16.377   9.876   0.331
39606W        W 6037   7.237  11.416  14.796
39607W        W 6038   8.006  12.253   2.177
39608W        W 6039  41.706  30.912   3.405
39609W        W 6040   4.825   2.309  13.766
39610W        W 6041  18.814  33.958  13.053
39611W        W 6042  30.335  14.680   3.916
39612W        W 6043  30.209  29.663  13.059
39613W        W 6044  10.734  22.909  11.082
39614W        W 6045  34.674  16.571  11.470
39615W        W 6046   2.918   2.824   4.626
39616W        W 6047   0.036  44.189   3.770
39617W        W 6048  17.331   4.829   1.667
39618W        W 6049  21.566  37.519   3.702
39619W        W 6050   8.705  41.053   4.765
39620W        W 6051  18.088  22.090   3.117
39621W        W 6052  19.760  12.860  13.421
39622W        W 6053  18.147   4.682   1.331
39623W        W 6054  35.609  26.853   2.801
39624W        W 6055  14.552  23.028  11.968
39625W        W 6056  17.490   9.525  11.283
39626W        W 6057  41.410  38.433   0.908
39627W        W 6058  11.823  26.091   0.065
39628W        W 6059  26.488  32.045  11.548
39629W        W 6060  28.779  29.467  12.042
39630W        W 6061   6.939  24.136   4.830
39631W        W 6062  39.456   7.207  11.572
39632W        W 6063  43.636  20.772  13.490
39633W        W 6064  24.489   4.132  13.999
39634W        W 6065  29.482  15.581   2.257
39635W        W 6066   9.798  23.503   0.228
39636W        W 6067  11.508  12.865  10.215
39637W        W 6068   5.194   5.452  11.926
39638W        W 6069  42.841  20.017  14.106
39639W        W 6070  27.933  42.312   4.826
39640W        W 6071  22.558  43.688  12.120
39641W        W 6072  23.497  19.507  12.084
39642W        W 6073  31.398  35.038  11.663
39643W        W 6074  24.609  20.686  14.726
39644W        W 6075  43.240  39.797  11.154
39645W        W 6076  23.536  34.685   3.830
39646W        W 6077  31.429  11.262   1.460
39647W        W 6078  14.617  40.960  12.571
39648W        W 6079  18.291  37.960  11.991
39649W        W 6080  25.052  22.032  11.980
39650W        W 6081  25.477  11.437   3.228
39651W        W 6082  26.465  16.745  13.037
39652W        W 6083  43.481  19.694  11.973
39653W        W 6084  43.315   1.263   3.926
39654W        W 6085   6.965   0.535  13.486
39655W        W 6086  35.811  31.469  13.540
39656W        W 6087  27.596  19.141   2.139
39657W        W 6088  27.869  27.543  12.013
39658W        W 6089   7.671   1.180   1.438
39659W        W 6090   6.924  13.712  14.235
39660W        W 6091   4.196   1.443  10.844
39661W        W 6092   1.270  28.212  14.986
39662W        W 6093  25.481  38.951   2.693
39663W        W 6094  30.382  37.646  10.781
39664W        W 6095  31.544  29.431   2.428
39665W        W 6096  21.212  33.099  13.956
39666W        W 6097  43.853  32.943  11.690
39667W        W 6098  13.658  21.520   1.815
39668W        W 6099   3.347  32.704   2.282
39669W        W 6100   7.321  19.160  12.916
39670W        W 6101  44.536  13.540   4.140
39671W        W 6102  15.923   1.368  11.926
39672W        W 6103   2.388  32.020   0.275
39673W        W 6104  34.394   5.819   2.266
39674W        W 6105   4.452  29.358  14.695
39675W        W 6106  44.985  14.525   3.677
39676W        W 6107  41.025  32.463   4.521
39677W        W 6108  26.509   0.721   1.844
39678W        W 6109  36.456   8.587   1.195
39679W        W 6110   5.938   6.795   3.158
39680W        W 6111  11.882  17.425  14.877
39681W        W 6112  28.926  14.252  10.392
39682W        W 6113  32.672  33.605  14.729
39683W        W 6114  13.026  25.612  12.110
39684W        W 6115  41.517  11.391  11.754
39685W        W 6116  26.731  12.209  13.779
39686W        W 6117   1.026  39.370   0.297
39687W        W 6118  36.357   1.903   0.862
39688W        W 6119  34.846   1.319  11.108
39689W        W 6120  14.252  44.322   1.910
39690W        W 6121  26.717  25.990   0.691
39691W        W 6122   8.912  35.102   0.365
39692W        W 6123  27.889   3.717   4.935
39693W        W 6124  24.034  31.037  14.292
39694W        W 6125  27.920   2.956  13.939
39695W        W 6126  37.373  21.589   1.729
39696W        W 6127  21.972   3.181   2.839
39697W        W 6128  13.177  42.890   1.535
39698W        W 6129  28.213  18.806   3.619
39699W        W 6130  21.142  43.335  12.250
39700W        W 6131  37.992  32.379   1.361
39701W        W 6132  44.333  28.399   5.012
39702W        W 6133  15.071   3.964  13.798
39703W        W 6134   4.819   1.756  13.797
39704W        W 6135  12.701  20.481   0.926
39705W        W 6136  12.946  27.971  14.681
39706W        W 6137  36.319  29.174   2.760
39707W        W 6138   9.209  44.707   1.514
39708W        W 6139  12.243   8.170   4.149
39709W        W 6140  29.849  14.143  11.554
39710W        W 6141  29.542  42.261   3.257
39711W        W 6142  31.180  31.935  11.172
39712W        W 6143  19.798  19.287  11.603
39713W        W 6144  10.981  26.170  11.119
39714W        W 6145  27.250  12.718  13.480
39715W        W 6146  37.395  17.704   3.242
39716W        W 6147  39.475  43.958   2.816
39717W        W 6148  15.837  43.025  12.701
39718W        W 6149  23.295  11.352  14.419
39719W        W 6150   0.694  16.560   2.197
39720W        W 6151   4.385  38.722   1.476
39721W        W 6152  41.814  14.063   2.290
39722W        W 6153  39.064   5.491   2.781
39723W        W 6154  36.864   4.261   4.810
39724W        W 6155  37.955  17.585  11.301
39725W        W 6156  36.079  13.043   4.593
39726W        W 6157  10.499   8.733   3.953
39727W        W 6158  43.279  37.442  14.324
39728W        W 6159   2.059  21.332  12.972
39729W        W 6160  26.667   0.776  13.735
39730W        W 6161   3.765   5.904   0.392
39731W        W 6162  37.915  41.064  12.876
39732W        W 6163  35.343   1.874   4.105
39733W        W 6164   2.079   2.779  11.996
39734W        W 6165   6.777  36.986   1.274
39735W        W 6166   9.348  42.031  12.134
39736W        W 6167  14.217  43.779  10.710
39737W        W 6168  10.253  32.601  11.553
39738W        W 6169  41.337  31.469   2.264
39739W        W 6170  30.044   2.952  14.867
39740W        W 6171  12.914  29.183   0.571
39741W        W 6172   4.281   9.024   4.672
39742W        W 6173   8.184  21.134  12.648
39743W        W 6174  23.105   0.590  14.852
39744W        W 6175  10.413   0.807   4.759
39745W        W 6176  34.995   6.363   1.420
39746W        W 6177  24.351  32.899   2.403
39747W        W 6178  23.048   1.347  10.913
39748W        W 6179  24.693  38.484  12.886
39749W        W 6180  21.463   2.162   1.223
39750W        W 6181  38.704  30.356   0.702
39751W        W 6182  37.609  38.934  13.574
39752W        W 6183  15.118  34.632  12.366
39753W        W 6184  37.665  27.073  13.027
39754W        W 6185  24.468  33.601   5.007
39755W        W 6186  30.387   0.881  10.819
39756W        W 6187  34.869  38.032   4.362
39757W        W 6188  26.779  33.429  13.934
39758W        W 6189  26.878  29.077   2.870
39759W        W 6190  26.503  21.416   0.317
39760W        W 6191  39.962  24.214  12.256
39761W        W 6192  22.044  42.543   0.990
39762W        W 6193  40.851  14.395   4.585
39763W        W 6194  40.249  21.430  13.816
39764W        W 6195   0.424  28.372   3.105
39765W        W 6196  12.104  36.602   3.718
39766W        W 6197  11.741  37.450  11.223
39767W        W 6198  36.478  21.253   5.243
39768W        W 6199  19.651   8.401   4.244
39769W        W 6200  29.983   5.614  12.541
39770W        W 6201  41.321  43.959  13.907
39771W        W 6202  35.510  16.326  11.196
39772W        W 6203  43.607  23.500  12.513
39773W        W 6204   3.039   1.179   2.176
39774W        W 6205  36.368  34.539   2.772
39775W        W 6206  25.388   4.354  12.557
39776W        W 6207  12.256  22.730  13.794
39777W        W 6208  38.712   8.566  10.031
39778W        W 6209  42.957  10.232  12.967
39779W        W 6210  33.876   0.830   2.307
39780W        W 6211  24.981  14.623  12.647
39781W        W 6212  15.390   7.662  12.879
39782W        W 6213  20.029  30.453   3.640
39783W        W 6214   8.004  44.744   0.366
39784W        W 6215  30.174  16.040  13.377
39785W        W 6216  41.038  30.878   0.746
39786W        W 6217  25.949  20.303  11.628
39787W        W 6218   6.997   5.244   3.135
39788W        W 6219  18.919  37.401   4.474
39789W        W 6220   3.102   4.953   1.805
39790W        W 6221  27.027  21.170  12.096
39791W        W 6222  43.716  21.024   0.810
39792W        W 6223  39.209  34.508   1.244
39793W        W 6224  28.527  23.191  13.791
39794W        W 6225   0.126  19.200  10.690
39795W        W 6226  37.139  24.236  11.612
39796W        W 6227  36.386  36.412   2.169
39797W        W 6228   3.114   3.787   0.829
39798W        W 6229  37.930  11.584   3.170
39799W        W 6230  28.878  21.143  14.221
39800W        W 6231   3.930  42.075  13.181
39801W        W 6232  12.044  12.331  13.002
39802W        W 6233  37.124  33.043   0.233
39803W        W 6234  20.198  17.944   1.387
39804W        W 6235  33.025  22.205   4.587
39805W        W 6236  41.010  15.823   2.867
39806W        W 6237  18.498  35.000  12.064
39807W        W 6238   7.369  42.082  14.075
39808W        W 6239  15.423  28.475  13.480
39809W        W 6240  26.473  43.619  12.117
39810W        W 6241  16.233  28.715   1.888
39811W        W 6242  44.354   6.955   1.192
39812W        W 6243  43.455  38.415  11.440
39813W        W 6244  13.920  38.926  14.058
39814W        W 6245  44.923  42.876  14.243
39815W        W 6246  21.195  32.372   4.817
39816W        W 6247  42.422  29.157  14.469
39817W        W 6248  37.390  26.638  12.992
39818W        W 6249   2.363  32.167   3.957
39819W        W 6250  15.820   8.581   1.760
39820W        W 6251  27.613  24.595   2.426
39821W        W 6252  33.025  39.523   1.716
39822W        W 6253   4.900  17.803  12.136
39823W        W 6254  34.328   7.667   3.907
39824W        W 6255  21.841  36.549  13.527
39825W        W 6256  17.386  33.677   1.011
39826W        W 6257   1.503   3.516  13.426
39827W        W 6258  29.345  11.523  10.758
39828W        W 6259  33.494  10.898  11.486
39829W        W 6260  28.577  35.001  13.280
39830W        W 6261  40.939   4.936   0.331
39831W        W 6262  16.257  37.859  11.120
39832W        W 6263   6.181  25.710  12.335
39833W        W 6264   9.362  18.628  13.373
39834W        W 6265  28.251  40.370   0.216
39835W        W 6266  32.310  24.160  14.465
39836W        W 6267  26.575   5.413   0.338
39837W        W 6268  20.059  19.838  11.936
39838W        W 6269  30.390  43.318  14.269
39839W        W 6270  29.397  27.699   0.296
39840W        W 6271  13.310   7.393   3.818
39841W        W 6272  10.457  19.246   3.648
39842W        W 6273  22.190   6.431  10.635
39843W        W 6274   7.587   7.908   2.921
39844W        W 6275  33.805  34.148  14.393
39845W        W 6276  15.395   9.828  14.346
39846W        W 6277  28.644  32.683  14.385
39847W        W 6278  14.157  17.381  13.000
39848W        W 6279  29.936   0.494  12.949
39849W        W 6280  25.731  11.837   3.597
39850W        W 6281  36.858  13.847   0.174
39851W        W 6282   5.028  35.861  11.730
39852W        W 6283  44.247  20.274  12.328
39853W        W 6284   3.358  29.178   4.877
39854W        W 6285   6.125   7.232   0.017
39855W        W 6286  19.113  15.832  14.834
39856W        W 6287   1.235  17.153   0.797
39857W        W 6288  10.738  12.887   3.994
39858W        W 6289  42.993  42.325   1.846
39859W        W 6290  37.178  24.288  14.269
39860W        W 6291  17.906   5.957  13.337
39861W        W 6292   7.955  34.406   1.663
39862W        W 6293  11.770   2.706  10.837
39863W        W 6294   4.405  10.689   2.136
39864W        W 6295  24.837  15.556  13.010
39865W        W 6296  44.259  35.673  13.817
39866W        W 6297  21.158   5.770  11.154
39867W        W 6298   5.963  30.688  11.229
39868W        W 6299  11.394  14.769   2.272
39869W        W 6300  35.283   5.354  14.835
39870W        W 6301  32.110   3.875   0.951
39871W        W 6302   1.812   6.582   2.735
39872W        W 6303  17.075  10.264   2.665
39873W        W 6304  36.238  36.630  11.622
39874W        W 6305  42.301  15.677  11.945
39875W        W 6306  21.322   3.120   3.676
39876W        W 6307  18.565  15.948   4.945
39877W        W 6308  26.983  15.778   3.840
39878W        W 6309  17.274  33.890   2.359
39879W        W 6310  39.442  30.497   4.504
39880W        W 6311  36.703   8.337  13.736
39881W        W 6312  39.816  35.618   3.725
39882W        W 6313  15.312  26.285  12.092
39883W        W 6314  33.624  27.553   0.988
39884W        W 6315  18.761   3.685  14.592
39885W        W 6316   1.981  11.073  14.364
39886W        W 6317  44.697   7.410  11.590
39887W        W 6318  29.466  22.545   3.185
39888W        W 6319   0.412  26.162  13.504
39889W        W 6320   7.211  32.552  13.439
39890W        W 6321   6.672   9.443   3.336
39891W        W 6322   7.661  31.426   3.654
39892W        W 6323  38.021  36.096  14.611
39893W        W 6324  10.900  20.838  11.722
39894W        W 6325  43.641  30.858   1.956
39895W        W 6326   4.460  29.206   0.922
39896W        W 6327   5.249  11.771  12.913
39897W        W 6328  42.006  36.215   2.426
39898W        W 6329   0.398  16.769   2.589
39899W        W 6330  31.392   6.029   2.460
39900W        W 6331  18.709  30.120   0.871
39901W        W 6332   8.997  35.690   4.128
39902W        W 6333  14.399  11.322  12.120
39903W        W 6334  13.565  26.696   4.400
39904W        W 6335   7.355  41.852  10.797
39905W        W 6336  26.502  38.542   4.351
39906W        W 6337  10.458  19.655  11.607
39907W        W 6338  42.437  25.806  12.444
39908W        W 6339  20.479  12.122  12.416
39909W        W 6340  42.949   5.211  12.119
39910W        W 6341  18.271  34.069  11.171
39911W        W 6342  18.203  16.692  12.496
39912W        W 6343  16.735  31.861  14.790
39913W        W 6344  36.884  26.225  11.191
39914W        W 6345  44.412  30.120  12.209
39915W        W 6346  18.605  13.881  12.474
39916W        W 6347  18.261  22.574  14.978
39917W        W 6348  20.340  42.950   4.648
39918W        W 6349  19.756   6.075   2.807
39919W        W 6350  30.391   8.255  12.923
39920W        W 6351  34.098  38.440   0.664
39921W        W 6352  41.743  38.946   1.876
39922W        W 6353  25.451   9.748   1.384
39923W        W 6354  34.600  37.933  14.455
39924W        W 6355  18.033  44.287  10.036
39925W        W 6356  15.586  11.345   2.933
39926W        W 6357  10.415  26.485   0.918
39927W        W 6358  21.556  11.661   0.533
39928W        W 6359  36.463  27.583   0.421
39929W        W 6360  31.752  12.836   3.676
39930W        W 6361   6.891   3.971  12.090
39931W        W 6362  39.530  40.755   3.512
39932W        W 6363  34.630  12.265   0.541
39933W        W 6364  33.665   4.244  13.367
39934W        W 6365  12.882  18.304   0.260
39935W        W 6366  21.755  15.930   4.212
39936W        W 6367  32.030  28.926   1.964
39937W        W 6368   1.969   7.652  14.846
39938W        W 6369  39.988  16.123  14.070
39939W        W 6370  38.505  18.364   1.814
39940W        W 6371  18.578  42.370   3.640
39941W        W 6372  39.555  33.696   3.236
39942W        W 6373  38.511  21.324   4.141
39943W        W 6374  26.996   6.942  14.955
39944W        W 6375   7.105  10.237  11.632
39945W        W 6376   4.769  35.346   1.087
39946W        W 6377  21.547   7.099   3.974
39947W        W 6378   9.792   1.725  11.161
39948W        W 6379  39.896  28.186   2.712
39949W        W 6380   3.445  33.387   4.807
39950W        W 6381  20.937  10.390  14.471
39951W        W 6382  33.118  27.541   0.938
39952W        W 6383  37.388  20.798  13.970
39953W        W 6384  13.797  12.308  13.373
39954W        W 6385  35.646  28.531   1.973
39955W        W 6386  16.638  19.777   1.275
39956W        W 6387   1.805   3.057  14.937
39957W        W 6388  30.663  32.384  14.350
39958W        W 6389  43.676  15.885  14.996
39959W        W 6390  13.169  43.081   2.882
39960W        W 6391  32.137   4.720  11.987
39961W        W 6392  44.114   4.456   0.922
39962W        W 6393  26.617  43.963  12.896
39963W        W 6394  24.719  11.617   1.917
39964W        W 6395  38.465  18.823   2.724
39965W        W 6396  42.379  40.403   0.635
39966W        W 6397   9.841   6.902  10.706
39967W        W 6398   2.510  35.540   1.365
39968W        W 6399   4.265  17.165   5.565
39969W        W 6400  41.268  38.258  13.877
39970W        W 6401  18.391   6.474  12.126
39971W        W 6402  12.789   9.435   2.108
39972W        W 6403  22.957  17.463   4.515
39973W        W 6404  12.890  21.939   2.719
39974W        W 6405   9.175  36.130   5.213
39975W        W 6406  29.131  25.639   4.912
39976W        W 6407   5.808  25.630  11.976
39977W        W 6408  26.052  44.788   2.190
39978W        W 6409  14.659  41.719   0.705
39979W        W 6410   3.158  12.248  14.470
39980W        W 6411   8.966  16.162   2.198
39981W        W 6412   9.798  41.769  12.056
39982W        W 6413   2.261   0.753   3.729
39983W        W 6414  22.969  40.121   3.642
39984W        W 6415  44.428   4.570   5.197
39985W        W 6416   4.044   9.131  11.758
39986W        W 6417  10.849  28.460  11.611
39987W        W 6418  40.498  10.691   3.202
39988W        W 6419  16.045   5.327  12.509
39989W        W 6420  35.593   2.667   3.120
39990W        W 6421  40.795   4.498   3.688
39991W        W 6422  24.344   5.651  14.243
39992W        W 6423  20.986  12.955  12.837
39993W        W 6424  21.201  12.235   0.877
39994W        W 6425  37.852   8.615  14.374
39995W        W 6426  38.428  32.660   4.306
39996W        W 6427  33.060   5.598   4.451
39997W        W 6428  33.504  33.387   0.531
39998W        W 6429   6.041  15.097  13.772
39999W        W 6430  41.021  28.284  12.045
40000W        W 6431  27.159  10.943   1.149
40001W        W 6432   2.159  21.011  12.373
40002W        W 6433  35.858   8.324   0.313
40003W        W 6434  16.523  38.084  11.514
40004W        W 6435  40.427  39.817  13.797
40005W        W 6436  42.902  39.919   2.598
40006W        W 6437   1.391  26.055  11.279
40007W        W 6438  17.357   0.533   3.648
40008W        W 6439   4.350  21.671  12.089
40009W        W 6440  33.653  22.791  11.649
40010W        W 6441  14.778  15.294  10.618
40011W        W 6442  26.720  37.578  13.428
40012W        W 6443   4.440  28.521   1.312
40013W        W 6444  18.063  41.550   3.257
40014W        W 6445  39.654  44.206  12.124
40015W        W 6446  14.397  32.499   3.221
40016W        W 6447   6.399  39.546   1.173
40017W        W 6448   1.701  25.752   3.920
40018W        W 6449  32.194   1.528   0.017
40019W        W 6450  16.660  24.595   1.914
40020W        W 6451  15.527  18.725   3.257
40021W        W 6452   3.929   0.486   1.293
40022W        W 6453  24.680   2.918  11.412
40023W        W 6454   6.005  33.298   5.077
40024W        W 6455  36.746  25.683   1.364
40025W        W 6456  42.369  23.885  14.943
40026W        W 6457  36.850  24.632   1.354
40027W        W 6458  44.765  13.832  13.998
40028W        W 6459  26.962  31.426   1.355
40029W        W 6460   9.701  34.031  13.187
40030W        W 6461  40.582  24.461   0.076
40031W        W 6462   5.951  33.458   4.558
40032W        W 6463  31.605   6.296  12.497
40033W        W 6464  44.715  33.782  13.867
40034W        W 6465  35.046  20.622   3.802
40035W        W 6466  44.686  37.688  11.203
40036W        W 6467   5.768  39.938  10.727
40037W        W 6468  26.459  28.694   2.667
40038W        W 6469  23.683  20.124  13.876
40039W        W 6470   0.318   8.747   0.088
40040W        W 6471  36.312  19.627   0.257
40041W        W 6472  30.480   9.339   2.275
40042W        W 6473  32.874  15.469   0.356
40043W        W 6474  16.610   6.390   0.512
40044W        W 6475  13.698  36.416   0.701
40045W        W 6476  24.608  35.698  13.120
40046W        W 6477  21.020  41.219  12.940
40047W        W 6478  40.862  41.751   3.886
40048W        W 6479  43.185   9.255   1.339
40049W        W 6480   3.430  13.110   3.630
40050W        W 6481  24.500  21.770  10.314
40051W        W 6482  18.912   3.941  12.818
40052W        W 6483  28.743  32.376  10.328
40053W        W 6484  43.962  25.485  14.826
40054W        W 6485  31.041  30.323   0.770
40055W        W 6486  11.587  38.324  10.602
40056W        W 6487  39.831  35.893  12.662
40057W        W 6488   7.248  43.973   0.053
40058W        W 6489  28.611  22.085   3.371
40059W        W 6490  12.654  19.528  12.513
40060W        W 6491  24.577  15.000  14.769
40061W        W 6492  28.015  26.472   2.225
40062W        W 6493   2.651   4.083   0.789
40063W        W 6494  18.584  23.721  12.436
40064W        W 6495  22.783  19.713  13.986
40065W        W 6496  13.077  25.200   4.497
40066W        W 6497  34.523  12.669  13.648
40067W        W 6498  23.655  35.120   4.110
40068W        W 6499  35.885   1.282   2.292
40069W        W 6500   3.789  33.006   2.604
40070W        W 6501  24.006  29.626   1.767
40071W        W 6502   6.965   9.553   0.836
40072W        W 6503  15.826  44.200  12.855
40073W        W 6504  41.874   6.847  12.859
40074W        W 6505  27.142  43.270   1.348
40075W        W 6506  26.665  20.766  10.912
40076W        W 6507  33.693  10.044  10.583
40077W        W 6508   7.479   0.462   1.671
40078W        W 6509  39.519  25.048   2.492
40079W        W 6510   1.018  41.834  10.650
40080W        W 6511  35.683  37.545  12.652
40081W        W 6512  11.155   3.387  10.703
40082W        W 6513  27.504   5.170  14.822
40083W        W 6514   3.766  29.876   1.645
40084W        W 6515  37.444   0.882   2.877
40085W        W 6516  28.967  28.254  14.944
40086W        W 6517  31.696   5.593   3.334
40087W        W 6518  44.736  22.681  12.118
40088W        W 6519  33.475   3.464   2.700
40089W        W 6520  19.851  25.144   0.296
40090W        W 6521  43.239  28.586   1.817
40091W        W 6522  39.071  20.992  11.601
40092W        W 6523   9.336   4.895   3.404
40093W        W 6524  28.018  20.961   1.437
40094W        W 6525  31.981  17.162   4.547
40095W        W 6526  25.520  10.234   2.758
40096W        W 6527  37.064   8.986  11.627
40097W        W 6528   0.362  37.887  11.224
40098W        W 6529  33.023  38.036  10.615
40099W        W 6530  18.133  42.522   3.264
40100W        W 6531  35.500  44.687  12.140
40101W        W 6532   7.728   8.229  10.568
40102W        W 6533  15.842   7.171  11.754
40103W        W 6534  42.301  29.535  10.742
40104W        W 6535  15.104  18.210   2.914
40105W        W 6536   5.344  14.460  13.211
40106W        W 6537  15.785   0.922  11.727
40107W        W 6538  37.568  35.891  14.586
40108W        W 6539   6.069  39.988  11.135
40109W        W 6540  11.083  36.154   0.286
40110W        W 6541  11.868  34.178   3.594
40111W        W 6542   5.845   3.880  14.818
40112W        W 6543  43.487  20.669   1.877
40113W        W 6544   2.251  20.167  14.544
40114W        W 6545  28.045  24.121  13.047
40115W        W 6546  19.984   5.146  14.334
40116W        W 6547   7.656  36.017   4.526
40117W        W 6548  27.488  32.463   1.353
40118W        W 6549  32.661  16.366   4.675
40119W        W 6550  18.234  29.727  14.399
40120W        W 6551  32.937   1.754   2.195
40121W        W 6552  43.271  19.538   3.069
40122W        W 6553  21.862  27.227   5.761
40123W        W 6554   0.669   6.436   3.370
40124W        W 6555  34.629  22.431   3.786
40125W        W 6556  15.668  33.511  10.572
40126W        W 6557  14.944  21.949   4.766
40127W        W 6558  11.241  12.751  12.850
40128W        W 6559  26.734  19.040  13.133
40129W        W 6560   9.095   3.342  13.458
40130W        W 6561  37.659  37.801  10.713
40131W        W 6562   0.381   0.772   2.801
40132W        W 6563  28.503   4.693   3.070
40133W        W 6564  37.397  42.536   0.876
40134W        W 6565  31.616   5.099   3.231
40135W        W 6566  27.575   0.918  14.892
40136W        W 6567   2.938  22.760   3.856
40137W        W 6568  43.663  19.499   3.655
40138W        W 6569  13.120  11.180   1.810
40139W        W 6570  21.072  33.874  12.809
40140W        W 6571  20.105  22.192  10.500
40141W        W 6572  12.314  37.660  13.414
40142W        W 6573   3.874  32.004   0.358
40143W        W 6574  17.650  19.300   0.009
40144W        W 6575   9.977  33.146  14.510
40145W        W 6576  28.766  14.633   2.287
40146W        W 6577  26.506  16.079  14.395
40147W        W 6578   6.661   0.868  10.781
40148W        W 6579  19.873  19.744  14.899
40149W        W 6580  35.638  23.691  14.308
40150W        W 6581  23.991  36.062   0.741
40151W        W 6582  35.689  33.090   1.737
40152W        W 6583   3.442  28.773   1.321
40153W        W 6584   3.163  29.518  12.028
40154W        W 6585  42.749   6.575  11.989
40155W        W 6586  43.725  31.884  12.419
40156W        W 6587   3.238  12.717  12.365
40157W        W 6588  32.063  39.764  12.905
40158W        W 6589  32.392  36.535   2.668
40159W        W 6590   0.618  42.375  14.979
40160W        W 6591  38.395  19.630  10.738
40161W        W 6592  31.666   5.099  11.169
40162W        W 6593  17.944  43.444  14.512
40163W        W 6594  14.591  37.495   4.119
40164W        W 6595   5.707   2.728   3.820
40165W        W 6596   5.824   8.233   0.921
40166W        W 6597   6.839   9.762  14.880
40167W        W 6598  34.568  21.944  13.073
40168W        W 6599   9.064  15.255  12.009
40169W        W 6600  39.869  40.400   1.950
40170W        W 6601  41.983  43.476   2.440
40171W        W 6602  30.427  13.520  12.612
40172W        W 6603  31.239  29.007  10.685
40173W        W 6604  21.118   8.033  14.045
40174W        W 6605  30.537  31.656  11.078
40175W        W 6606  15.119  10.203  14.747
40176W        W 6607  22.228   8.368  11.364
40177W        W 6608   1.847  18.950   1.396
40178W        W 6609  37.124  42.664   4.988
40179W        W 6610  18.981  37.303   4.991
40180W        W 6611  26.395   9.484  13.181
40181W        W 6612  13.610  42.810   2.919
40182W        W 6613  39.455  37.554  12.759
40183W        W 6614  27.642  34.937   3.246
40184W        W 6615   5.946  18.973  11.133
40185W        W 6616  19.634  17.683  11.843
40186W        W 6617  12.615  43.873   2.869
40187W        W 6618   6.250   1.069   4.537
40188W        W 6619  13.029  42.953   3.761
40189W        W 6620  24.568  24.182   2.977
40190W        W 6621   7.731  36.091   4.015
40191W        W 6622  15.622  13.716   5.027
40192W        W 6623  18.927  36.927   2.837
40193W        W 6624  38.343  37.389  12.334
40194W        W 6625  32.790  42.933  12.471
40195W        W 6626   9.141  43.940   2.693
40196W        W 6627  12.744   3.178  14.285
40197W        W 6628  25.455   3.250   2.083
40198W        W 6629  29.143  25.962   3.439
40199W        W 6630   6.436   4.494   0.870
40200W        W 6631  18.434  42.454   0.668
40201W        W 6632  38.828  44.573  11.212
40202W        W 6633  38.469  39.467  14.270
40203W        W 6634  15.297  36.906   0.804
40204W        W 6635  41.601  11.105   2.007
40205W        W 6636  20.836  25.212   2.147
40206W        W 6637   6.578  42.651   3.600
40207W        W 6638   3.291  12.917   4.074
40208W        W 6639  18.730  17.130  14.802
40209W        W 6640  43.319  43.744   3.790
40210W        W 6641   3.218  13.507   1.753
40211W        W 6642  13.310   6.681  12.125
40212W        W 6643  40.483  44.435   0.599
40213W        W 6644  33.670  36.927  12.017
40214W        W 6645  15.626  43.309  13.774
40215W        W 6646  44.302   9.630   0.347
40216W        W 6647  31.444  22.253   4.173
40217W        W 6648  16.196  32.274   4.205
40218W        W 6649  39.019   4.585  10.459
40219W        W 6650  25.622  29.139   2.259
40220W        W 6651  22.677  30.876  14.263
40221W        W 6652  33.991  36.844   0.248
40222W        W 6653  37.856  29.043   3.829
40223W        W 6654  44.799   8.172  13.479
40224W        W 6655   6.372  12.177  11.161
40225W        W 6656  33.570  13.377   2.463
40226W        W 6657   3.460  29.776   2.886
40227W        W 6658  17.294  16.879  12.966
40228W        W 6659  10.890  30.536  12.617
40229W        W 6660  29.819   2.738  11.491
40230W        W 6661  33.610  22.263  13.105
40231W        W 6662   4.296  26.303   1.889
40232W        W 6663  11.310  19.538   1.272
40233W        W 6664  43.707  36.390  12.494
40234W        W 6665   4.628  40.368  14.454
40235W        W 6666  38.112  33.121  11.712
40236W        W 6667  25.105  38.338  14.092
40237W        W 6668  35.894  18.758   3.232
40238W        W 6669  13.273  39.603  11.214
40239W        W 6670  22.784  26.524   5.040
40240W        W 6671  34.988  17.383  13.546
40241W        W 6672   4.811  16.129   0.450
40242W        W 6673  42.573  11.380   1.478
40243W        W 6674   5.783  26.497   3.659
40244W        W 6675  17.659  38.378  14.191
40245W        W 6676   8.773  16.296   0.239
40246W        W 6677  14.298  33.388   1.494
40247W        W 6678  41.519   4.890   4.712
40248W        W 6679  28.892  23.532   3.070
40249W        W 6680  21.272  24.531  14.803
40250W        W 6681  24.129  43.821   4.657
40251W        W 6682  44.355  14.213  13.101
40252W        W 6683  34.536  16.298   1.258
40253W        W 6684  25.909  15.262   2.621
40254W        W 6685  17.543  27.517  14.355
40255W        W 6686  40.202  23.497  13.260
40256W        W 6687  20.962   3.717   4.325
40257W        W 6688  22.282   4.710   4.590
40258W        W 6689   7.526  35.637   4.207
40259W        W 6690  26.781  18.169   4.979
40260W        W 6691  41.757   0.201  13.995
40261W        W 6692  20.997  37.873  12.535
40262W        W 6693   6.783  17.351   2.860
40263W        W 6694  23.633  28.056   0.131
40264W        W 6695  18.691  20.328   4.277
40265W        W 6696  23.370  28.699  14.363
40266W        W 6697   0.849  35.422  14.400
40267W        W 6698  14.477   3.290  12.313
40268W        W 6699   7.821  26.851   1.170
40269W        W 6700  34.087  39.044  14.513
40270W        W 6701   8.176   0.278   3.792
40271W        W 6702  25.492  27.666   4.923
40272W        W 6703  43.864  41.494   2.307
40273W        W 6704   7.420  11.771   2.935
40274W        W 6705   2.898  16.133   4.071
40275W        W 6706  17.717  43.883  13.062
40276W        W 6707  19.589   5.272  12.828
40277W        W 6708  34.896  14.533  14.139
40278W        W 6709  10.611  10.769   2.068
40279W        W 6710  39.871  27.180  12.552
40280W        W 6711   2.294   2.880   4.142
40281W        W 6712  26.383  25.624   2.862
40282W        W 6713  26.024   9.292   1.949
40283W        W 6714  17.807   5.787   4.143
40284W        W 6715  23.107   9.932   2.088
40285W        W 6716  25.999  42.833  11.492
40286W        W 6717  15.878   9.790   0.285
40287W        W 6718  15.283  29.082   1.716
40288W        W 6719  10.301  29.133  13.399
40289W        W 6720  33.303  34.407   1.778
40290W        W 6721  14.329  13.302  12.985
40291W        W 6722  17.177   6.866  14.524
40292W        W 6723  27.161  22.554   3.642
40293W        W 6724   0.750  11.224  11.251
40294W        W 6725   9.332  17.896  11.677
40295W        W 6726  16.469   6.274  10.994
40296W        W 6727   4.006  30.039   1.216
40297W        W 6728  26.591  17.075  10.639
40298W        W 6729  40.037  21.534  13.347
40299W        W 6730  34.037  26.075  12.327
40300W        W 6731  38.316  35.872   1.872
40301W        W 6732  18.704   1.026  10.307
40302W        W 6733   6.728  16.016  11.782
40303W        W 6734  16.821  18.263   3.111
40304W        W 6735  24.557  43.160   4.090
40305W        W 6736  16.563  38.637   3.320
40306W        W 6737  20.630  31.665   2.691
40307W        W 6738  31.426   3.256  13.833
40308W        W 6739  29.531  31.331  14.802
40309W        W 6740  39.446  22.475   4.095
40310W        W 6741  30.031   8.317   3.688
40311W        W 6742  16.071  41.499   2.911
40312W        W 6743  24.592  40.862  10.636
40313W        W 6744  29.248   3.730  11.119
40314W        W 6745  14.830  24.116   2.831
40315W        W 6746  42.622  15.384  12.902
40316W        W 6747  13.208  21.747   1.994
40317W        W 6748   5.434  30.076  13.994
40318W        W 6749  29.180   9.957  13.405
40319W        W 6750   2.286  29.941  12.822
40320W        W 6751   5.732  10.304  12.608
40321W        W 6752  14.279  34.605   3.121
40322W        W 6753  16.990  30.088   3.195
40323W        W 6754  43.087  33.924  10.653
40324W        W 6755  25.891   3.984  11.544
40325W        W 6756  30.513  17.795   3.729
40326W        W 6757  41.769  23.557   2.931
40327W        W 6758   3.880  17.785  10.202
40328W        W 6759  37.987  20.721   4.326
40329W        W 6760  14.403  25.361  12.034
40330W        W 6761  20.814  31.222  13.595
40331W        W 6762  33.108   6.253  11.515
40332W        W 6763  28.753  15.985  11.714
40333W        W 6764  16.337  13.277   9.773
40334W        W 6765   5.694   9.052   1.958
40335W        W 6766  32.500  33.112  13.394
40336W        W 6767  15.772  19.683   0.244
40337W        W 6768  41.987  36.357  14.285
40338W        W 6769  20.060  37.490   3.394
40339W        W 6770  18.102  32.321   3.392
40340W        W 6771  11.994  28.890   0.882
40341W        W 6772   0.161  44.526   1.437
40342W        W 6773  18.340  24.985   4.092
40343W        W 6774  28.456  41.726   1.774
40344W        W 6775  10.689  40.495  13.367
40345W        W 6776  42.477  34.902   2.216
40346W        W 6777  25.636  43.995  12.690
40347W        W 6778  22.998   9.944   4.088
40348W        W 6779  35.919  25.503  14.738
40349W        W 6780   1.441  32.916  11.185
40350W        W 6781   7.040  19.255   4.905
40351W        W 6782  31.410  35.366   1.252
40352W        W 6783   2.841  12.289  10.876
40353W        W 6784  26.888  32.969  12.478
40354W        W 6785  12.903   1.052  14.950
40355W        W 6786  38.669  35.549  13.722
40356W        W 6787   9.231  18.579  10.406
40357W        W 6788  16.304  43.891   2.324
40358W        W 6789  35.842  34.314   2.718
40359W        W 6790  35.787  41.528  13.435
40360W        W 6791  16.104   1.934   3.910
40361W        W 6792  44.477   1.763   0.324
40362W        W 6793  42.275  31.553   4.833
40363W        W 6794  35.622  26.050  13.936
40364W        W 6795  40.836  41.507  13.338
40365W        W 6796  16.209  17.640   0.391
40366W        W 6797  34.927  31.664   2.250
40367W        W 6798  36.257   7.250  12.859
40368W        W 6799  12.550  17.083   1.889
40369W        W 6800  43.356  10.334   1.665
40370W        W 6801  23.627  44.610   3.929
40371W        W 6802  17.095  36.920  12.581
40372W        W 6803  44.740  28.225  12.595
40373W        W 6804  37.118  13.956   3.656
40374W        W 6805   6.791   8.379  13.893
40375W        W 6806  20.612  15.092  12.380
40376W        W 6807  41.846  39.082   2.396
40377W        W 6808  35.978  35.589   1.973
40378W        W 6809  22.250   4.119  12.988
40379W        W 6810   3.447  14.222   0.641
40380W        W 6811  31.627  26.283   3.748
40381W        W 6812  18.640  24.102   1.862
40382W        W 6813   6.147  43.772   0.776
40383W        W 6814  29.741  14.817   4.663
40384W        W 6815  42.075   0.894  13.513
40385W        W 6816  35.934  42.488   1.818
40386W        W 6817   4.362  30.661  11.597
40387W        W 6818  18.096  19.655  13.423
40388W        W 6819  35.359  27.430  13.020
40389W        W 6820   7.636  28.141   4.602
40390W        W 6821  20.361   8.274  12.408
40391W        W 6822  31.488  22.778   1.016
40392W        W 6823  13.198  42.729  12.466
40393W        W 6824  30.413   1.370  10.700
40394W        W 6825  10.232   0.421   4.326
40395W        W 6826   8.197  20.065   1.431
40396W        W 6827   2.599   8.879   2.169
40397W        W 6828  43.722  36.847   4.506
40398W        W 6829  44.302   3.230   1.263
40399W        W 6830   2.016  44.263  10.665
40400W        W 6831  32.109   7.640   4.770
40401W        W 6832  24.925   7.882  12.108
40402W        W 6833  43.889  25.952   2.237
40403W        W 6834  27.004   9.524  14.790
40404W        W 6835   2.447  12.801   0.670
40405W        W 6836  26.604  33.142  10.671
40406W        W 6837   3.214  13.182  14.904
40407W        W 6838  24.660  33.971  10.411
40408W        W 6839  22.672  32.405   4.229
40409W        W 6840  31.690   5.889   2.047
40410W        W 6841   7.735  11.230   0.772
40411W        W 6842  14.564  35.183  11.313
40412W        W 6843   1.619  31.991  13.074
40413W        W 6844  23.698  34.355   1.135
40414W        W 6845  34.507  18.032   4.762
40415W        W 6846  27.416  19.507   1.220
40416W        W 6847  34.101   4.916   0.228
40417W        W 6848   5.589  41.835  12.560
40418W        W 6849  21.234  19.056   4.538
40419W        W 6850  14.721  34.819  11.608
40420W        W 6851  36.918   4.355   0.291
40421W        W 6852  44.345  28.974  12.904
40422W        W 6853   5.715  20.104  12.419
40423W        W 6854  10.282  40.921  13.582
40424W        W 6855  11.742   4.601   4.996
40425W        W 6856  44.533  21.237   0.402
40426W        W 6857  30.616  25.119  13.258
40427W        W 6858   5.284  44.480  12.612
40428W        W 6859  12.311  29.878  14.068
40429W        W 6860  36.304   7.712  12.630
40430W        W 6861  25.195  39.907   2.304
40431W        W 6862  32.808  13.152   2.796
40432W        W 6863  14.573   8.283   2.812
40433W        W 6864  37.889  17.662  14.388
40434W        W 6865  10.427  44.370  12.421
40435W        W 6866  22.451   2.177  14.089
40436W        W 6867  12.819  40.321  13.788
40437W        W 6868   2.005  41.697  13.990
40438W        W 6869  30.033   5.480  14.055
40439W        W 6870  37.965  26.167  14.920
40440W        W 6871  20.624   9.947   0.442
40441W        W 6872  25.612  29.069   3.211
40442W        W 6873  25.639  28.141  14.129
40443W        W 6874  21.971  10.812  12.138
40444W        W 6875  39.499   3.947   1.192
40445W        W 6876   6.127  15.877   3.453
40446W        W 6877  41.278  38.354  11.009
40447W        W 6878  24.729  19.296   3.682
40448W        W 6879  21.337  10.069  14.547
40449W        W 6880   7.864  16.731   0.504
40450W        W 6881  28.043   4.401   5.568
40451W        W 6882   8.567  41.986   4.522
40452W        W 6883  12.088  40.583   3.133
40453W        W 6884  26.210   8.046  12.485
40454W        W 6885  12.638  15.656  13.289
40455W        W 6886  44.151  33.866  13.497
40456W        W 6887  27.839  39.144   4.227
40457W        W 6888   7.268  42.985  11.200
40458W        W 6889   0.775  25.654  10.663
40459W        W 6890  14.518  10.634  14.293
40460W        W 6891  24.288  15.326   1.526
40461W        W 6892  40.456  38.080   2.736
40462W        W 6893  26.550   1.515   2.186
40463W        W 6894  29.508  37.071   0.437
40464W        W 6895  44.830  29.521  14.356
40465W        W 6896  43.530  43.057   4.123
40466W        W 6897  26.656  12.441  12.036
40467W        W 6898  28.453  39.042  13.988
40468W        W 6899  41.882  44.028  11.255
40469W        W 6900  10.846  16.804   1.020
40470W        W 6901  42.833   6.437   4.724
40471W        W 6902   1.190  25.050   1.408
40472W        W 6903  30.616  10.111   3.998
40473W        W 6904  40.893   1.581  14.802
40474W        W 6905  23.492  31.646  12.072
40475W        W 6906  25.922  30.616   1.694
40476W        W 6907  36.976  12.190  11.175
40477W        W 6908  14.860  27.529  11.001
40478W        W 6909  23.642  10.666  13.204
40479W        W 6910  17.232   6.753  11.624
40480W        W 6911  10.263   6.034   4.117
40481W        W 6912  43.396   3.957  13.996
40482W        W 6913   3.733  30.534  10.245
40483W        W 6914   9.642  38.396  11.125
40484W        W 6915  28.799  28.157   2.753
40485W        W 6916  15.534  36.448  12.955
40486W        W 6917  27.460  19.718  11.054
40487W        W 6918  31.395  30.479   3.347
40488W        W 6919  18.347  16.812   2.380
40489W        W 6920  11.760   7.174   4.814
40490W        W 6921  35.544   1.720   3.287
40491W        W 6922  27.730  10.495  14.063
40492W        W 6923  43.877  15.343  13.344
40493W        W 6924  29.355  44.574   1.483
40494W        W 6925  35.374  17.695  13.791
40495W        W 6926  26.789  42.056  11.262
40496W        W 6927  28.299  43.564  10.411
40497W        W 6928  10.965  20.542   3.176
40498W        W 6929  43.829  31.786   0.495
40499W        W 6930  14.054   5.438   0.311
40500W        W 6931  11.863  26.061  13.447
40501W        W 6932   1.186  41.984   5.279
40502W        W 6933  38.240  22.079   3.237
40503W        W 6934  29.385  19.582   1.480
40504W        W 6935  18.361  37.359   3.756
40505W        W 6936  25.024  42.041  14.421
40506W        W 6937   5.791  29.467  11.416
40507W        W 6938  36.605  44.173  10.497
40508W        W 6939  21.692  29.172  11.996
40509W        W 6940  25.370  43.417   0.532
40510W        W 6941   5.392  28.574  11.459
40511W        W 6942   5.466  12.889   0.447
40512W        W 6943  24.513  32.405   2.292
40513W        W 6944  34.659  18.638  12.449
40514W        W 6945  30.898  34.661  13.102
40515W        W 6946  11.657  33.425  14.747
40516W        W 6947  36.038  16.367  14.413
40517W        W 6948  38.715  19.421   0.206
40518W        W 6949  20.623  16.591   2.652
40519W        W 6950  33.131  25.113   0.383
40520W        W 6951  20.014  27.930   0.861
40521W        W 6952  13.947  33.644   0.649
40522W        W 6953  28.699   5.341  14.373
40523W        W 6954  14.390  25.943   4.966
40524W        W 6955  18.769   2.263   2.266
40525W        W 6956  39.988  32.412   4.502
40526W        W 6957  21.724  18.879  14.356
40527W        W 6958  19.555  39.108   2.382
40528W        W 6959  44.595   1.276  12.120
40529W        W 6960  23.844  32.547  12.214
40530W        W 6961  40.847  20.724  13.019
40531W        W 6962  32.327  20.454   3.707
40532W        W 6963  42.995  38.165   1.789
40533W        W 6964  22.894  13.689   4.841
40534W        W 6965  20.299   4.152  13.601
40535W        W 6966   1.509  27.041   4.341
40536W        W 6967  10.574  13.646  10.508
40537W        W 6968  39.875  12.276  14.004
40538W        W 6969   7.614  40.421   4.906
40539W        W 6970  29.660  39.850  13.746
40540W        W 6971  36.881  41.286   0.504
40541W        W 6972   1.469   9.780   1.718
40542W        W 6973   2.712  41.486  14.476
40543W        W 6974  22.784  35.994  11.968
40544W        W 6975   9.812   2.727   3.073
40545W        W 6976  19.494  24.582   1.799
40546W        W 6977  27.724  34.218   1.602
40547W        W 6978  18.363  17.190   2.730
40548W        W 6979  19.606  34.092  11.584
40549W        W 6980   4.432   1.637   0.888
40550W        W 6981  16.065  43.497  13.975
40551W        W 6982  37.913  25.891   3.258
40552W        W 6983  19.243  28.008   3.798
40553W        W 6984  15.509  35.879  12.577
40554W        W 6985  28.156  14.661   2.294
40555W        W 6986   5.067  44.702  13.028
40556W        W 6987  23.077   7.012  14.432
40557W        W 6988  32.025  26.700  12.105
40558W        W 6989  17.838  34.799   0.358
40559W        W 6990   9.638  23.489   5.110
40560W        W 6991  16.338  33.503   2.144
40561W        W 6992   2.477  38.631  13.141
40562W        W 6993   4.133  37.373  12.973
40563W        W 6994  17.026  28.837  12.450
40564W        W 6995  10.305  28.439   3.705
40565W        W 6996  43.748  23.936  14.818
40566W        W 6997  18.011   9.433  12.187
40567W        W 6998  23.482   6.697  13.016
40568W        W 6999   4.665  18.788  13.866
40569W        W 7000  13.236   3.053   3.946
40570W        W 7001  31.233  11.669   1.874
40571W        W 7002  18.744  10.172   1.119
40572W        W 7003  21.261   8.794   0.397
40573W        W 7004   7.447  18.611   3.368
40574W        W 7005  36.618  28.281  13.239
40575W        W 7006  18.350  34.543   3.308
40576W        W 7007  16.686   5.394   3.058
40577W        W 7008  43.873  26.898   3.687
40578W        W 7009   9.326   8.804  14.462
40579W        W 7010  35.500  15.663  14.235
40580W        W 7011  34.403  37.903  12.134
40581W        W 7012   4.916   1.744  12.887
40582W        W 7013   4.891   6.627   0.382
40583W        W 7014  31.197  14.673   1.751
40584W        W 7015  36.433  16.728  13.759
40585W        W 7016  35.469   8.627  11.920
40586W        W 7017  13.838  27.850  14.806
40587W        W 7018   2.507  17.642   4.765
40588W        W 7019  38.775  44.627   0.660
40589W        W 7020  21.826  17.227  14.588
40590W        W 7021  24.788  24.509   4.611
40591W        W 7022  19.805  17.058   0.696
40592W        W 7023   2.760  35.586   4.406
40593W        W 7024  19.795  17.225  14.807
40594W        W 7025   2.289  10.098  12.177
40595W        W 7026  36.336   8.301   3.629
40596W        W 7027   3.809  38.868   0.259
40597W        W 7028  17.141  19.769  13.408
40598W        W 7029  27.792  31.687   0.827
40599W        W 7030  44.097  34.388  12.631
40600W        W 7031  23.382  28.408   9.935
40601W        W 7032  35.377  10.445  12.299
40602W        W 7033  32.845  34.897   3.407
40603W        W 7034  44.005  11.693  13.138
40604W        W 7035  19.899  42.413  12.041
40605W        W 7036  30.833  42.543  11.247
40606W        W 7037   9.401  27.158  12.991
40607W        W 7038  38.962  30.430   4.272
40608W        W 7039  36.367  29.342   4.547
40609W        W 7040  43.168  21.121   2.177
40610W        W 7041  17.151  23.830  12.489
40611W        W 7042  20.831  21.674   0.672
40612W        W 7043  37.571  11.725  13.758
40613W        W 7044  30.139  24.925   3.273
40614W        W 7045  32.967   6.404  13.764
40615W        W 7046  40.600  18.050  12.346
40616W        W 7047  18.705  31.389  11.273
40617W        W 7048  29.870  41.565   0.755
40618W        W 7049  44.093   9.168   1.328
40619W        W 7050  39.119  41.515  11.687
40620W        W 7051  13.617  20.340  11.251
40621W        W 7052  42.238  41.079   3.456
40622W        W 7053  18.610  28.705   1.737
40623W        W 7054  30.332  38.915   0.431
40624W        W 7055  27.228  43.364  14.955
40625W        W 7056  13.961  28.407   3.241
40626W        W 7057  33.064  35.402   3.293
40627W        W 7058   3.018  26.179   2.994
40628W        W 7059   9.092  20.837  14.879
40629W        W 7060  36.801   7.303  10.583
40630W        W 7061  43.790  29.561   2.107
40631W        W 7062   4.166   8.542   4.905
40632W        W 7063  27.997  11.825  14.733
40633W        W 7064   5.795  33.366  11.930
40634W        W 7065   5.783  12.615   3.378
40635W        W 7066  28.984  22.668   0.474
40636W        W 7067  21.311   5.750  12.644
40637W        W 7068  31.931  20.997  14.824
40638W        W 7069  31.089  32.997  14.472
40639W        W 7070  29.567  35.436  14.314
40640W        W 7071  42.327  10.146   0.654
40641W        W 7072  31.561  10.700   4.316
40642W        W 7073  34.620  29.851   4.144
40643W        W 7074  14.370   7.903  11.585
40644W        W 7075  37.310  14.251   3.191
40645W        W 7076  42.946  25.415  12.685
40646W        W 7077  20.573   4.734   1.229
40647W        W 7078  27.944   5.038  13.933
40648W        W 7079  17.702  40.499   4.334
40649W        W 7080   1.974  33.241  12.835
40650W        W 7081  30.934  25.885  14.501
40651W        W 7082  12.605  23.900   4.982
40652W        W 7083  10.148  12.348   1.294
40653W        W 7084   2.439  12.808   1.198
40654W        W 7085  27.022  33.543   0.711
40655W        W 7086  26.385   3.341  11.402
40656W        W 7087   3.556   8.971  12.938
40657W        W 7088  24.088   4.991  11.940
40658W        W 7089   2.530   5.296  14.572
40659W        W 7090  15.057  12.130   2.765
40660W        W 7091   6.595  32.961   2.302
40661W        W 7092  38.887  10.691  14.418
40662W        W 7093  18.689  43.924  11.697
40663W        W 7094  41.656  11.796   1.298
40664W        W 7095  26.728  10.874  12.113
40665W        W 7096  32.572   2.838   2.634
40666W        W 7097  17.147  10.046  14.840
40667W        W 7098  21.468   5.356   3.189
40668W        W 7099  31.245  13.802  14.996
40669W        W 7100  35.325  22.609  11.181
40670W        W 7101  11.232   6.208  14.867
40671W        W 7102  44.963  16.582   2.762
40672W        W 7103  12.631   2.154  13.043
40673W        W 7104  39.885   3.200   2.289
40674W        W 7105   3.302   2.812   0.253
40675W        W 7106  22.993  42.926  14.267
40676W        W 7107  38.553  29.596   1.695
40677W        W 7108   6.707  14.556   2.863
40678W        W 7109  11.938   7.315  12.873
40679W        W 7110  13.609   9.366  12.150
40680W        W 7111  40.088  42.931  12.477
40681W        W 7112   9.253  18.872  12.901
40682W        W 7113  40.866   9.521  12.340
40683W        W 7114  27.472  18.291   3.139
40684W        W 7115   3.955  23.527  13.447
40685W        W 7116  37.630   4.208  11.912
40686W        W 7117  28.628  39.117  12.158
40687W        W 7118  39.039  36.279   0.385
40688W        W 7119  11.582  25.582  11.690
40689W        W 7120  10.512  29.460   0.318
40690W        W 7121  31.860  16.449  14.021
40691W        W 7122   4.222  36.320   2.772
40692W        W 7123  18.568  31.447  12.546
40693W        W 7124  27.370  25.409   0.306
40694W        W 7125  21.671  35.352  13.466
40695W        W 7126  12.796   8.261   2.971
40696W        W 7127  36.330  28.714   0.693
40697W        W 7128  31.015  13.260  14.557
40698W        W 7129  35.671  34.045  14.971
40699W        W 7130  35.855  25.585  13.989
40700W        W 7131  16.016  36.522   0.420
40701W        W 7132   5.493  31.492   2.131
40702W        W 7133  28.462  11.929  11.017
40703W        W 7134  37.330   0.166   4.090
40704W        W 7135  27.170   7.716  14.526
40705W        W 7136  19.696  41.058  13.727
40706W        W 7137   7.017  12.499  13.940
40707W        W 7138  39.501  19.242  13.577
40708W        W 7139  28.198  38.487   1.549
40709W        W 7140   4.188  29.551  11.988
40710W        W 7141  14.141  43.674   0.942
40711W        W 7142  31.815  12.097   1.682
40712W        W 7143   5.133  24.236   4.124
40713W        W 7144  25.003  29.019   0.345
40714W        W 7145  12.137   7.167  13.810
40715W        W 7146  29.690  39.119  14.389
40716W        W 7147  24.711  16.997   3.667
40717W        W 7148  26.637   8.921   2.695
40718W        W 7149   2.940  31.173   3.655
40719W        W 7150  19.466  30.498  11.606
40720W        W 7151  20.948   4.326  11.557
40721W        W 7152   9.307   6.123   4.561
40722W        W 7153  31.314  36.847  14.803
40723W        W 7154  33.927  37.672   1.848
40724W        W 7155  38.257  32.531   0.820
40725W        W 7156   6.900  40.581  10.915
40726W        W 7157  24.008  15.325   3.678
40727W        W 7158  42.269  20.715   0.443
40728W        W 7159  26.864  25.665   2.680
40729W        W 7160   5.819  41.330   1.715
40730W        W 7161  26.453  20.861  12.874
40731W        W 7162  26.974  12.843   2.391
40732W        W 7163  42.905  34.973   1.922
40733W        W 7164  17.012  37.979  11.528
40734W        W 7165  12.659  35.362  11.115
40735W        W 7166  25.293  43.474   2.494
40736W        W 7167  11.289   7.223   5.030
40737W        W 7168  32.353  26.012   0.187
40738W        W 7169  15.598  29.270   3.471
40739W        W 7170  24.689  24.974  12.962
40740W        W 7171   8.662  29.051   3.186
40741W        W 7172  42.768   1.703  12.056
40742W        W 7173  34.358  26.775   2.874
40743W        W 7174  42.046  35.452  13.439
40744W        W 7175   6.697  35.019   4.619
40745W        W 7176  25.607  13.348   0.846
40746W        W 7177  42.126   2.626  14.886
40747W        W 7178  12.846   7.483   0.004
40748W        W 7179  38.401  28.067  10.550
40749W        W 7180  14.187  15.166   2.897
40750W        W 7181  14.403   0.436  13.389
40751W        W 7182   5.998   7.660   3.764
40752W        W 7183   1.759   7.204  14.941
40753W        W 7184  36.581  40.720  13.446
40754W        W 7185   4.339  10.772   0.676
40755W        W 7186  26.382   6.947   1.151
40756W        W 7187  31.842  18.765   1.951
40757W        W 7188  11.179   5.805  12.524
40758W        W 7189  35.015  22.742  12.536
40759W        W 7190   6.537  38.848  11.551
40760W        W 7191   4.213  13.889   0.385
40761W        W 7192  19.584   8.869   3.447
40762W        W 7193  36.160  32.402  14.376
40763W        W 7194  24.785  37.321  10.730
40764W        W 7195  38.958  21.123  12.092
40765W        W 7196  16.351  31.033   2.786
40766W        W 7197  14.683  20.613   4.547
40767W        W 7198  30.889  39.596  13.929
40768W        W 7199  32.056  21.921  14.762
40769W        W 7200   6.354  10.426   3.484
40770W        W 7201  25.955  13.357   2.670
40771W        W 7202   0.492  31.467  12.464
40772W        W 7203   5.921  12.783   1.698
40773W        W 7204  40.808   4.848   3.218
40774W        W 7205  22.230  38.438  13.389
40775W        W 7206  31.893  36.023  12.027
40776W        W 7207  35.500  26.107   0.411
40777W        W 7208   8.390  28.631   3.281
40778W        W 7209  24.228   3.839   4.053
40779W        W 7210  32.065  37.450   4.711
40780W        W 7211  22.513   0.473  13.082
40781W        W 7212  30.452  19.340   0.708
40782W        W 7213  33.050  30.496  13.855
40783W        W 7214  20.982  15.292   0.897
40784W        W 7215  31.345  17.291  14.800
40785W        W 7216  35.422  13.841  13.779
40786W        W 7217  30.433   5.757   0.781
40787W        W 7218   4.290  43.606   1.450
40788W        W 7219  15.423  38.314  13.477
40789W        W 7220  30.436  43.702   1.388
40790W        W 7221  18.591  40.034  14.468
40791W        W 7222  11.653  15.554   0.460
40792W        W 7223   7.193  36.293   0.371
40793W        W 7224  21.732  41.509   3.029
40794W        W 7225  13.631  42.388   0.001
40795W        W 7226  14.172   0.906   1.210
40796W        W 7227   1.495  25.979  10.788
40797W        W 7228  17.738  36.553   3.256
40798W        W 7229  17.212  40.051  13.954
40799W        W 7230  32.571  23.169  13.026
40800W        W 7231  21.322  39.625   2.139
40801W        W 7232   5.734   1.688   0.782
40802W        W 7233  23.752  34.411  10.652
40803W        W 7234  44.811  10.658  12.132
40804W        W 7235  39.108  43.919   4.070
40805W        W 7236  15.188  33.736  10.987
40806W        W 7237  39.357  16.747  13.439
40807W        W 7238  28.326  38.781   2.025
40808W        W 7239  16.863  39.605  14.858
40809W        W 7240  41.875  39.250   4.109
40810W        W 7241  30.235  19.750  11.721
40811W        W 7242  10.894  44.564  12.412
40812W        W 7243  36.058  32.153   0.577
40813W        W 7244   0.874  15.526   0.441
40814W        W 7245  34.702   3.813   4.390
40815W        W 7246  35.391  37.096   0.326
40816W        W 7247  27.144   9.771   0.929
40817W        W 7248  36.902  35.604  14.505
40818W        W 7249  22.044  38.115  11.381
40819W        W 7250  28.971  39.571  10.761
40820W        W 7251  19.844   6.482   0.274
40821W        W 7252  18.198  34.464  10.553
40822W        W 7253  16.199  39.347   1.570
40823W        W 7254  38.918  27.063  14.461
40824W        W 7255   8.908   0.378   3.574
40825W        W 7256  40.841  31.105  14.845
40826W        W 7257  24.165  16.343  10.920
40827W        W 7258  44.761   6.143   1.187
40828W        W 7259   9.519   9.557  13.877
40829W        W 7260  41.496  29.131  11.140
40830W        W 7261  41.365  15.018   1.225
40831W        W 7262  29.554  44.806   3.259
40832W        W 7263   1.716  44.440   1.283
40833W        W 7264  11.682  16.628   0.391
40834W        W 7265  35.623  26.212  10.649
40835W        W 7266   4.929  19.683  13.835
40836W        W 7267  17.602  29.862  12.251
40837W        W 7268  23.195  39.464  13.565
40838W        W 7269  14.323  42.179  10.740
40839W        W 7270   2.292  34.552   1.256
40840W        W 7271  19.070  13.363   4.594
40841W        W 7272  23.806  19.223  13.557
40842W        W 7273  36.489  41.975   2.292
40843W        W 7274  21.125  13.308  14.967
40844W        W 7275  19.330  32.637   4.704
40845W        W 7276   5.781   6.126  12.662
40846W        W 7277  39.564  25.271   1.486
40847W        W 7278  34.160  10.601  11.642
40848W        W 7279  37.362  24.124  12.960
40849W        W 7280  11.610  20.242  13.415
40850W        W 7281  11.720  27.469   2.372
40851W        W 7282  13.203  31.977   3.946
40852W        W 7283  34.285   7.945  13.607
40853W        W 7284  27.881  40.359  12.079
40854W        W 7285   7.513   6.241   2.214
40855W        W 7286  34.597  44.076  12.720
40856W        W 7287  36.137  41.857   0.346
40857W        W 7288   2.836  44.869   4.557
40858W        W 7289  31.892   4.439  13.115
40859W        W 7290  12.154  18.805   3.295
40860W        W 7291  31.821   1.670   2.715
40861W        W 7292  27.637  27.954   2.196
40862W        W 7293  25.189  18.551   0.003
40863W        W 7294   8.040  14.590  14.984
40864W        W 7295  31.450  26.570  11.451
40865W        W 7296   8.228  29.518  10.342
40866W        W 7297  14.919  23.670   0.266
40867W        W 7298  41.279  14.370  10.770
40868W        W 7299   0.666  21.259  11.980
40869W        W 7300   6.842   9.212  13.406
40870W        W 7301  42.982  18.729  10.923
40871W        W 7302  21.129  35.845   2.846
40872W        W 7303  27.362  42.741   5.338
40873W        W 7304   8.599  28.463  13.604
40874W        W 7305   9.340   2.780   4.531
40875W        W 7306  22.238  34.794  13.257
40876W        W 7307  28.109  13.038  10.607
40877W        W 7308   7.815  16.766   2.330
40878W        W 7309  17.753  16.012  11.532
40879W        W 7310  40.131  15.917  14.955
40880W        W 7311  23.772  17.000   0.393
40881W        W 7312   8.020  25.294   2.801
40882W        W 7313   2.270  24.117   0.521
40883W        W 7314  25.196  37.823  14.859
40884W        W 7315   2.429  34.370   1.768
40885W        W 7316   1.563   4.294  12.553
40886W        W 7317  25.965  40.560   2.276
40887W        W 7318  15.463  42.297   4.571
40888W        W 7319   0.466  43.551   3.213
40889W        W 7320  20.756  20.463   9.768
40890W        W 7321   9.925  38.645   3.959
40891W        W 7322  44.885  33.681   0.359
40892W        W 7323  29.634   7.880   0.979
40893W        W 7324  11.366  11.088   1.950
40894W        W 7325  14.949  43.959  12.919
40895W        W 7326  42.787  19.632   3.270
40896W        W 7327  39.624   3.274   2.744
40897W        W 7328   6.381  17.971  14.372
40898W        W 7329  38.117  38.183   2.857
40899W        W 7330   4.929  10.393   1.205
40900W        W 7331  12.621  18.083  13.340
40901W        W 7332   2.348  19.272   3.185
40902W        W 7333  36.919  20.141   2.845
40903W        W 7334  34.364  16.619  14.931
40904W        W 7335  35.913  24.141  14.451
40905W        W 7336   9.149  27.627  10.450
40906W        W 7337  18.608  24.081   0.362
40907W        W 7338  14.399  17.255  13.437
40908W        W 7339  42.577  17.510   2.875
40909W        W 7340  26.676   9.785  13.507
40910W        W 7341  44.511  41.535  10.672
40911W        W 7342  37.564  26.401  11.078
40912W        W 7343   9.137  20.094  12.454
40913W        W 7344   4.893   6.216  11.088
40914W        W 7345  25.141  16.763   1.448
40915W        W 7346   7.348  21.623   4.494
40916W        W 7347  26.546  36.393   2.868
40917W        W 7348  44.713  24.153   1.906
40918W        W 7349  17.024  27.743   3.333
40919W        W 7350  32.297   8.649   1.963
40920W        W 7351  13.186  41.721   1.778
40921W        W 7352  12.087   1.733  14.399
40922W        W 7353  28.393  16.212   4.715
40923W        W 7354   9.336  15.069  10.665
40924W        W 7355   0.926  33.074  14.209
40925W        W 7356  42.323  20.151  11.203
40926W        W 7357   2.962   6.099   4.115
40927W        W 7358   0.757  39.991  13.916
40928W        W 7359  26.502  25.536   0.821
40929W        W 7360  28.032   2.667  13.500
40930W        W 7361  18.378   2.455  14.128
40931W        W 7362  10.160  10.061  11.267
40932W        W 7363  36.447  23.728  10.788
40933W        W 7364  19.015  17.149   0.257
40934W        W 7365   6.124  11.352   3.758
40935W        W 7366  38.808  23.096  14.484
40936W        W 7367  39.487  38.767  11.421
40937W        W 7368  30.664  18.331  12.416
40938W        W 7369   3.792   7.282  13.922
40939W        W 7370  43.519   5.422   0.706
40940W        W 7371  36.863  41.324   3.700
40941W        W 7372   7.341  40.276   1.797
40942W        W 7373   9.626   1.224  13.890
40943W        W 7374  25.423  23.551   3.212
40944W        W 7375  37.942  16.893   0.472
40945W        W 7376  14.472  21.732   3.586
40946W        W 7377  11.868   3.701  12.450
40947W        W 7378  28.184  28.595  13.963
40948W        W 7379   8.382   7.081   4.182
40949W        W 7380  40.829  25.026   0.914
40950W        W 7381  14.719  23.448   4.926
40951W        W 7382  18.188  22.300  11.526
40952W        W 7383  26.997  31.150  13.044
40953W        W 7384  31.321  31.263  13.114
40954W        W 7385   5.708  23.116   2.647
40955W        W 7386   3.736   8.349  12.850
40956W        W 7387  19.727  22.423  13.941
40957W        W 7388  33.840  29.495  10.926
40958W        W 7389  32.812  30.056  13.725
40959W        W 7390  18.617  40.989   1.418
40960W        W 7391  39.243  30.670  13.070
40961W        W 7392  18.182  11.579   1.272
40962W        W 7393  16.521  31.044   3.269
40963W        W 7394   2.408   9.817  13.055
40964W        W 7395  34.151  33.105   2.829
40965W        W 7396  21.198  44.685  13.592
40966W        W 7397  26.527  25.386  14.381
40967W        W 7398  23.708  24.140  10.691
40968W        W 7399  15.429  31.481   3.669
40969W        W 7400  17.265  38.512   0.445
40970W        W 7401   2.147  13.722   3.730
40971W        W 7402  39.172  15.384   2.230
40972W        W 7403   9.649  15.764   3.438
40973W        W 7404   6.816  15.687   4.114
40974W        W 7405  39.281   3.970   4.226
40975W        W 7406  23.941  24.003   3.690
40976W        W 7407  38.435  28.689  13.904
40977W        W 7408  27.974  32.168   0.693
40978W        W 7409  32.845  18.983  12.365
40979W        W 7410  10.036  24.752  13.373
40980W        W 7411   4.566  16.111   3.234
40981W        W 7412  24.733  22.186   3.821
40982W        W 7413  21.757  26.203   0.414
40983W        W 7414   4.436  35.624   2.282
40984W        W 7415  17.147   2.022   1.291
40985W        W 7416  35.179  26.583   2.622
40986W        W 7417  35.637  32.991  11.078
40987W        W 7418  16.727  23.603  10.286
40988W        W 7419  26.971  31.573   3.727
40989W        W 7420   8.751   6.834   2.423
40990W        W 7421  22.923  20.666  14.057
40991W        W 7422  18.265  33.438  12.487
40992W        W 7423  20.533   7.901  11.646
40993W        W 7424  26.465   0.916  11.829
40994W        W 7425  38.911  11.108   2.235
40995W        W 7426  37.855  27.935   1.235
40996W        W 7427  35.402   1.866   2.755
40997W        W 7428  41.525  15.162   1.740
40998W        W 7429  21.225  15.674  12.354
40999W        W 7430  26.623  16.604  13.531
41000W        W 7431  26.482  38.814   2.916
41001W        W 7432  24.660  41.275   1.026
41002W        W 7433  35.873   2.638  12.975
41003W        W 7434   5.145  39.491   3.387
41004W        W 7435  34.136  22.007  11.478
41005W        W 7436  15.028  31.736   4.980
41006W        W 7437  10.170  20.797  11.190
41007W        W 7438   9.638   4.347  14.384
41008W        W 7439   0.648  34.487   4.105
41009W        W 7440  14.265   8.292  13.118
41010W        W 7441  29.557  13.127   4.581
41011W        W 7442  21.920  15.071  11.534
41012W        W 7443   3.466  37.530   2.105
41013W        W 7444  26.569  19.604  10.524
41014W        W 7445  33.585  33.391  12.581
41015W        W 7446  18.832  39.491   2.852
41016W        W 7447   7.235   7.508   1.769
41017W        W 7448  13.252   2.330  10.383
41018W        W 7449  34.313   1.984   3.936
41019W        W 7450  29.953  27.182   0.527
41020W        W 7451  43.175  36.957   1.329
41021W        W 7452  31.011  37.111   5.337
41022W        W 7453   3.430  24.597  11.394
41023W        W 7454  16.131  40.980   4.383
41024W        W 7455  23.017  23.537  12.300
41025W        W 7456  15.539  33.520   3.842
41026W        W 7457  38.857  11.081  14.797
41027W        W 7458  17.203   0.030  14.793
41028W        W 7459  11.828  20.300  12.639
41029W        W 7460  14.735  40.059  11.080
41030W        W 7461  34.593  43.459  12.764
41031W        W 7462  19.197  30.091   2.313
41032W        W 7463   3.658  30.920  12.304
41033W        W 7464  41.835  32.816  12.638
41034W        W 7465  17.709   8.956  12.604
41035W        W 7466  24.518  32.742   9.789
41036W        W 7467  22.095  18.139  14.755
41037W        W 7468  21.365  42.678   0.694
41038W        W 7469  43.495  10.661  12.425
41039W        W 7470  17.551  14.026  10.816
41040W        W 7471  43.220  13.400   1.385
41041W        W 7472  41.083  20.756  11.600
41042W        W 7473  32.020  40.101  10.338
41043W        W 7474  31.172  10.151   0.821
41044W        W 7475  26.771  26.838   3.912
41045W        W 7476   2.320  23.437  12.115
41046W        W 7477  18.256  31.826   3.372
41047W        W 7478  34.377  20.611   1.136
41048W        W 7479  40.745  23.056  14.352
41049W        W 7480  20.607   3.451  12.934
41050W        W 7481  25.496   6.033   4.777
41051W        W 7482  11.245  10.105  12.019
41052W        W 7483  26.583  13.383  12.067
41053W        W 7484  21.300  23.197   4.678
41054W        W 7485   8.910  18.772   3.240
41055W        W 7486   3.022  42.281   1.658
41056W        W 7487  16.418  42.084  10.943
41057W        W 7488  31.996   9.895   3.886
41058W        W 7489   4.910  26.802   9.871
41059W        W 7490   2.584  29.696  11.075
41060W        W 7491  12.417  28.585  10.613
41061W        W 7492  37.878  11.130  12.492
41062W        W 7493   0.432   5.267  13.104
41063W        W 7494  31.946  36.129   4.378
41064W        W 7495  26.758  42.812   0.724
41065W        W 7496   1.171  33.497  12.467
41066W        W 7497  18.333   2.428  11.294
41067W        W 7498   8.741  39.456  13.056
41068W        W 7499  28.994   8.463  12.941
41069W        W 7500  32.835   6.147  12.919
41070W        W 7501  30.917   5.403  14.027
41071W        W 7502  10.657  42.809  12.156
41072W        W 7503   1.432   4.128  12.085
41073W        W 7504  23.367  13.981  14.516
41074W        W 7505  40.501   7.656   2.365
41075W        W 7506  25.056  41.923   4.606
41076W        W 7507  26.038   5.650  11.229
41077W        W 7508   1.448   7.903   2.184
41078W        W 7509  12.866  16.262  14.859
41079W        W 7510  13.151  18.778   4.384
41080W        W 7511  28.586  21.558   1.126
41081W        W 7512  24.449  33.986   9.655
41082W        W 7513  43.538  26.255   3.268
41083W        W 7514  32.793   2.833  10.907
41084W        W 7515  33.876   4.852   1.835
41085W        W 7516  34.143  20.636   4.497
41086W        W 7517  35.040   0.934  13.353
41087W        W 7518  18.269  37.981  13.484
41088W        W 7519  18.902   1.507  11.468
41089W        W 7520   5.720  18.679   0.934
41090W        W 7521  32.721  35.638   0.798
41091W        W 7522  27.174  44.555   1.718
41092W        W 7523  18.213  12.663   2.153
41093W        W 7524  41.855  16.591   0.146
41094W        W 7525  29.468   9.273  10.123
41095W        W 7526  15.174   7.569   0.293
41096W        W 7527   6.985  36.060  11.191
41097W        W 7528  43.449  23.994   3.297
41098W        W 7529  39.258  44.875   3.984
41099W        W 7530  34.161  43.558  12.486
41100W        W 7531  13.783  10.616  13.942
41101W        W 7532  24.269  26.045  10.509
41102W        W 7533  40.769   1.786  12.004
41103W        W 7534   4.335  29.202  10.755
41104W        W 7535  14.659  44.554  11.605
41105W        W 7536  26.889   9.325   4.936
41106W        W 7537  10.222  30.561   1.861
41107W        W 7538   0.902  39.108  14.824
41108W        W 7539   2.882   2.579  13.378
41109W        W 7540  25.089  35.046   2.718
41110W        W 7541  42.006   2.196  11.722
41111W        W 7542  39.585  40.393  11.614
41112W        W 7543  23.031  29.899   0.072
41113W        W 7544  16.538  44.444  10.196
41114W        W 7545  15.637  43.879   0.443
41115W        W 7546  36.994  21.187  13.933
41116W        W 7547  29.245  34.922   3.436
41117W        W 7548   0.422   3.759   4.710
41118W        W 7549  19.561  44.217  13.912
41119W        W 7550  12.376  22.545  14.783
41120W        W 7551  44.366   5.865   2.164
41121W        W 7552  43.683   7.181   4.203
41122W        W 7553  44.002   6.221  13.442
41123W        W 7554   2.403   5.240   3.857
41124W        W 7555  17.618  16.979   3.104
41125W        W 7556   2.242  14.847  13.827
41126W        W 7557  13.558   2.794  10.644
41127W        W 7558  37.601  14.710  14.880
41128W        W 7559  15.865  41.330  11.175
41129W        W 7560  44.894   4.611  13.436
41130W        W 7561  32.303  28.206   4.672
41131W        W 7562  14.207  30.297   3.296
41132W        W 7563  16.239  27.292  11.948
41133W        W 7564  21.255  16.099   4.227
41134W        W 7565  23.661   3.057  12.648
41135W        W 7566  19.628  30.677  12.464
41136W        W 7567  40.695  43.448   4.704
41137W        W 7568   0.513  26.100  10.742
41138W        W 7569  30.543  16.463   3.498
41139W        W 7570   0.166  30.623  11.244
41140W        W 7571   3.302  27.987   0.188
41141W        W 7572  27.683  33.567  13.448
41142W        W 7573  25.969  22.028  11.178
41143W        W 7574  20.104  35.811   0.446
41144W        W 7575  18.299  20.689   3.423
41145W        W 7576  20.545  15.943   4.052
41146W        W 7577  24.986  36.302   2.280
41147W        W 7578  11.404  19.622  10.624
41148W        W 7579  43.925  42.927  14.022
41149W        W 7580   0.970  40.027  10.363
41150W        W 7581  42.520  37.115   3.821
41151W        W 7582  23.628  11.354   4.524
41152W        W 7583  15.514  12.984  10.172
41153W        W 7584  18.513  21.711   2.290
41154W        W 7585  16.222  39.068   0.325
41155W        W 7586  36.048  29.602  13.895
41156W        W 7587  43.020  15.707  10.305
41157W        W 7588  21.919  41.102   5.465
41158W        W 7589  10.196  34.417  11.432
41159W        W 7590  15.093  37.098  13.031
41160W        W 7591  27.051  33.657   3.888
41161W        W 7592  37.411   1.191   2.457
41162W        W 7593  43.815   0.985   4.876
41163W        W 7594  27.537  22.222   4.385
41164W        W 7595   5.424  29.563   3.198
41165W        W 7596   7.397  43.846  14.577
41166W        W 7597   5.540  16.028   1.811
41167W        W 7598  26.434  22.449  11.143
41168W        W 7599  11.262   6.735   4.443
41169W        W 7600  25.997  43.918   3.328
41170W        W 7601  36.892   7.571  14.989
41171W        W 7602  40.763   3.250  11.228
41172W        W 7603  22.346  32.904   0.796
41173W        W 7604   9.837  24.522  12.954
41174W        W 7605   7.497  43.844  13.546
41175W        W 7606   3.624  28.050  13.044
41176W        W 7607  24.074  19.081   0.015
41177W        W 7608  21.984  30.683   0.010
41178W        W 7609   0.619   8.967  13.099
41179W        W 7610   6.747  35.558   2.167
41180W        W 7611  33.946  20.226   4.848
41181W        W 7612   8.744  37.873  11.175
41182W        W 7613   8.355  21.498  14.852
41183W        W 7614  42.324  28.116   1.534
41184W        W 7615  12.771  11.112   4.468
41185W        W 7616  40.015  34.027   1.220
41186W        W 7617  26.940  11.128  11.675
41187W        W 7618  39.955  26.237   2.518
41188W        W 7619  30.155  10.589   3.253
41189W        W 7620  24.682  16.493   2.241
41190W        W 7621  26.750  20.180  12.064
41191W        W 7622  33.928  41.927   0.763
41192W        W 7623  12.088  10.828  11.689
41193W        W 7624  17.112  29.477  14.331
41194W        W 7625  30.494   4.330  11.389
41195W        W 7626  36.647  42.514   0.879
41196W        W 7627  24.691  39.906   4.638
41197W        W 7628  22.540   0.748  12.193
41198W        W 7629  29.141   9.699  13.863
41199W        W 7630  19.748  12.863   4.389
41200W        W 7631  36.861  27.873  13.440
41201W        W 7632   7.628  17.151  12.514
41202W        W 7633   8.825   5.188   0.936
41203W        W 7634  19.008  16.918   1.084
41204W        W 7635  37.659  22.747  13.432
41205W        W 7636   4.730  21.685   1.317
41206W        W 7637   4.014  28.427  10.407
41207W        W 7638  16.225  20.844  14.892
41208W        W 7639  39.922  26.655  12.590
41209W        W 7640  20.560  13.090  12.552
41210W        W 7641  18.105   9.318  10.883
41211W        W 7642  34.113  14.670   2.772
41212W        W 7643   8.101   9.827   1.363
41213W        W 7644   9.298  40.736   2.766
41214W        W 7645  32.628  30.997   3.735
41215W        W 7646  29.130   6.018   1.418
41216W        W 7647   2.072  21.908   1.607
41217W        W 7648  32.211  13.592   2.736
41218W        W 7649  15.062  42.062  12.682
41219W        W 7650  10.188  16.134   4.549
41220W        W 7651   7.711  17.252   0.461
41221W        W 7652  16.257  31.946   0.948
41222W        W 7653  34.967  41.714  10.050
41223W        W 7654  44.725  11.154   1.777
41224W        W 7655  25.398  11.630  13.132
41225W        W 7656   0.539  23.718  13.630
41226W        W 7657  31.052  20.100   2.266
41227W        W 7658  28.169  14.332   2.748
41228W        W 7659  11.382  11.835   4.402
41229W        W 7660  23.069  28.468   2.328
41230W        W 7661  13.353  29.500  14.735
41231W        W 7662  25.046  41.750  14.834
41232W        W 7663  43.606  39.353   1.596
41233W        W 7664  11.259  20.521  13.922
41234W        W 7665  33.769  38.553   3.168
41235W        W 7666  30.625  28.986   4.713
41236W        W 7667  31.164  25.723   0.861
41237W        W 7668  31.589  36.842  10.498
41238W        W 7669  16.900  18.140  10.250
41239W        W 7670  26.507  20.614  12.005
41240W        W 7671  13.396  20.467   1.421
41241W        W 7672  26.189  41.541  13.437
41242W        W 7673  35.850  24.105   2.893
41243W        W 7674  29.093  35.843  13.514
41244W        W 7675  40.083  32.609   0.854
41245W        W 7676   4.701  26.415   0.732
41246W        W 7677  14.270  37.489   3.188
41247W        W 7678  27.741  24.926  12.310
41248W        W 7679   7.260   5.666   1.391
41249W        W 7680  37.687  34.625   4.085
41250W        W 7681   2.271  26.687  13.125
41251W        W 7682  10.384  33.797   3.668
41252W        W 7683   0.500  16.782  12.822
41253W        W 7684  33.421  35.635  11.635
41254W        W 7685  30.383  12.819   4.142
41255W        W 7686  44.890  35.277   3.738
41256W        W 7687  14.100   7.772   2.869
41257W        W 7688  36.844   9.820   0.439
41258W        W 7689  42.396  42.337  14.223
41259W        W 7690   8.750  42.292   3.678
41260W        W 7691  44.348   7.433   1.003
41261W        W 7692  34.815  23.952   4.212
41262W        W 7693  26.265   0.958   2.879
41263W        W 7694  22.269  34.335  11.907
41264W        W 7695  22.172  18.654  14.456
41265W        W 7696  40.761  36.046   0.229
41266W        W 7697  27.678  35.276  10.534
41267W        W 7698  19.288  22.013  11.954
41268W        W 7699   3.946  18.095   0.512
41269W        W 7700  33.927  38.742   1.392
41270W        W 7701  35.919  44.220   3.655
41271W        W 7702  32.924   8.867  11.623
41272W        W 7703   2.861  41.350  11.406
41273W        W 7704  38.372  16.827  10.447
41274W        W 7705  38.020  13.097  14.823
41275W        W 7706   5.334   1.246  14.937
41276W        W 7707   1.308   5.282   1.683
41277W        W 7708  31.964  28.612  12.210
41278W        W 7709  44.987   5.225   3.130
41279W        W 7710  39.057  12.648  13.438
41280W        W 7711  24.716   3.267  10.148
41281W        W 7712   5.484   7.340  10.905
41282W        W 7713  40.728  29.987   2.833
41283W        W 7714  24.582  13.089   2.393
41284W        W 7715  38.974  30.569  11.229
41285W        W 7716  12.355  26.790   2.718
41286W        W 7717  33.114  38.749   3.698
41287W        W 7718  42.044  38.404  12.863
41288W        W 7719   6.594  15.046  14.494
41289W        W 7720   2.367  24.514  12.135
41290W        W 7721  16.935  40.518  14.814
41291W        W 7722  10.225  19.713   3.708
41292W        W 7723  17.584   6.656   4.132
41293W        W 7724   2.211  16.628   0.887
41294W        W 7725  22.208  11.013   4.051
41295W        W 7726   4.162  15.325  10.957
41296W        W 7727  16.991  36.993   3.560
41297W        W 7728  16.275  33.839  13.469
41298W        W 7729  34.579  16.851  11.913
41299W        W 7730   7.360  23.469   3.801
41300W        W 7731  37.456  29.903  12.580
41301W        W 7732   2.350  34.255   4.620
41302W        W 7733  18.536  17.360   4.925
41303W        W 7734   3.523  44.412  11.583
41304W        W 7735  12.099  13.084  11.574
41305W        W 7736  23.541  38.127  11.194
41306W        W 7737  32.364  29.633   0.704
41307W        W 7738  41.583  43.042  11.219
41308W        W 7739  17.112   3.262   3.598
41309W        W 7740  20.813   3.260   2.897
41310W        W 7741   0.833  21.536   4.636
41311W        W 7742  30.536  30.953  11.695
41312W        W 7743  12.889  34.051  12.548
41313W        W 7744  37.400  23.992  12.044
41314W        W 7745  37.281   0.073  13.854
41315W        W 7746  37.861  27.703   3.732
41316W        W 7747  43.958  30.825   4.717
41317W        W 7748  18.805  40.389   2.926
41318W        W 7749   8.297  15.016  10.717
41319W        W 7750  27.565  11.971  13.840
41320W        W 7751   8.416  32.143  10.213
41321W        W 7752   4.322  44.850  14.105
41322W        W 7753  36.873   1.953   0.796
41323W        W 7754   7.929  16.074  14.053
41324W        W 7755  32.553  40.764  12.155
41325W        W 7756   6.312   9.915  13.426
41326W        W 7757   1.761  34.114  10.340
41327W        W 7758  19.597  14.785   3.766
41328W        W 7759  20.665  14.115   1.365
41329W        W 7760  34.841  31.534  13.566
41330W        W 7761  12.864  42.787   2.600
41331W        W 7762   5.450  38.967   0.772
41332W        W 7763  24.093   2.340  13.722
41333W        W 7764  22.418  34.302  10.861
41334W        W 7765  11.651  38.051  12.455
41335W        W 7766  37.498  42.045   3.703
41336W        W 7767  15.068  14.393   1.247
41337W        W 7768  26.597  39.743   2.752
41338W        W 7769   7.787  30.637  10.838
41339W        W 7770   0.902  12.776  11.374
41340W        W 7771   6.389  10.223   4.013
41341W        W 7772  10.374   5.923   4.975
41342W        W 7773  24.159  19.682   0.563
41343W        W 7774   0.219   6.862   1.480
41344W        W 7775  39.538   5.231   2.790
41345W        W 7776   1.563   8.764   2.268
41346W        W 7777  37.609   2.155   1.282
41347W        W 7778   9.785  29.104  14.107
41348W        W 7779  10.685  41.423  14.072
41349W        W 7780  20.500  23.939  11.624
41350W        W 7781  38.485  20.143   3.365
41351W        W 7782   0.392  44.739  14.493
41352W        W 7783  34.008  30.399   3.057
41353W        W 7784   6.219   0.341  11.568
41354W        W 7785  32.007  33.356   0.762
41355W        W 7786  16.008  26.659  12.554
41356W        W 7787   5.777  14.105   1.258
41357W        W 7788  30.013  14.053  12.041
41358W        W 7789  25.980  27.206   2.759
41359W        W 7790  33.259  35.301   5.064
41360W        W 7791   0.044  17.829   0.925
41361W        W 7792   3.536  17.401  14.136
41362W        W 7793   3.317  25.384   4.195
41363W        W 7794  40.986  13.356  14.382
41364W        W 7795  42.750  32.203   4.154
41365W        W 7796  27.995  35.094   0.316
41366W        W 7797  44.993  10.169   3.812
41367W        W 7798  35.504   0.241   4.936
41368W        W 7799   2.479  13.500   3.252
41369W        W 7800  42.778  16.147  13.941
41370W        W 7801  39.348  35.793   2.367
41371W        W 7802  23.075  26.687   0.811
41372W        W 7803   6.459  32.000  13.464
41373W        W 7804   1.902  40.764  12.629
41374W        W 7805  34.098  11.445   2.404
41375W        W 7806  12.200  35.728   2.608
41376W        W 7807   6.443  44.449  11.909
41377W        W 7808  28.207  17.096   1.749
41378W        W 7809  34.657  32.942   2.714
41379W        W 7810  40.726  28.914   4.043
41380W        W 7811  42.951  28.126  10.945
41381W        W 7812  14.359   9.774   1.800
41382W        W 7813  32.028  23.039  14.744
41383W        W 7814   7.752  41.937  12.380
41384W        W 7815  29.439  13.325   3.589
41385W        W 7816  37.775  26.345   2.380
41386W        W 7817   8.961   1.324  11.748
41387W        W 7818  21.257  19.108   2.804
41388W        W 7819  24.915  14.157   3.173
41389W        W 7820  36.418  16.107  13.205
41390W        W 7821  31.390   9.832  13.961
41391W        W 7822  38.089   3.299  13.145
41392W        W 7823  19.461  16.532   0.728
41393W        W 7824   4.465   9.767   4.513
41394W        W 7825  44.785   1.840   0.775
41395W        W 7826  22.627  32.548   2.219
41396W        W 7827  28.722  21.368   0.321
41397W        W 7828  43.406  41.752   3.674
41398W        W 7829   1.588  27.018  11.685
41399W        W 7830  34.630  16.832  14.041
41400W        W 7831  24.111  43.469   0.886
41401W        W 7832  42.969  30.705  11.273
41402W        W 7833   4.704  44.420  12.018
41403W        W 7834  10.246  38.942  11.586
41404W        W 7835   2.063  25.612  11.530
41405W        W 7836  31.967  40.823  11.532
41406W        W 7837  27.375  28.190   1.284
41407W        W 7838  33.072  32.393  13.423
41408W        W 7839  18.551  21.577  11.899
41409W        W 7840   6.134  21.313   4.372
41410W        W 7841  41.847   2.425  10.788
41411W        W 7842  25.770  40.024  11.054
41412W        W 7843  26.040  19.855  10.757
41413W        W 7844   2.439  10.542  10.699
41414W        W 7845  33.519  23.045  14.293
41415W        W 7846  41.075  17.394  11.709
41416W        W 7847  40.077  37.432  10.664
41417W        W 7848  28.916  40.841   3.060
41418W        W 7849   9.727  32.921  13.720
41419W        W 7850  10.487   0.418  11.992
41420W        W 7851   7.220  36.242  10.760
41421W        W 7852  10.242  21.773   3.349
41422W        W 7853  30.105  24.364   1.895
41423W        W 7854   1.500  16.811  13.335
41424W        W 7855   8.873  13.273   1.789
41425W        W 7856  43.962  25.455   1.116
41426W        W 7857  31.292  28.209  14.366
41427W        W 7858  27.149  24.131   0.450
41428W        W 7859  14.642  10.845  12.914
41429W        W 7860  10.714  37.107   3.978
41430W        W 7861  15.837  37.673  13.978
41431W        W 7862  40.637  32.793  13.809
41432W        W 7863  26.839  24.059  10.426
41433W        W 7864  22.703  42.729  12.257
41434W        W 7865   2.999  39.901   0.700
41435W        W 7866  40.937  13.184  12.090
41436W        W 7867   6.538  40.508   1.941
41437W        W 7868  30.491   3.405   2.848
41438W        W 7869  17.144  12.500  13.902
41439W        W 7870   3.783  17.416   1.260
41440W        W 7871  14.215  26.130  10.741
41441W        W 7872   8.728  27.546   2.629
41442W        W 7873  21.222  26.214   0.360
41443W        W 7874  43.102  15.770  14.072
41444W        W 7875  30.981   8.287  13.729
41445W        W 7876  16.536  39.878   2.731
41446W        W 7877  40.575  28.922  13.557
41447W        W 7878  11.633  36.352   3.753
41448W        W 7879  16.723  29.394   4.771
41449W        W 7880   0.786  42.454  12.959
41450W        W 7881  40.163  26.061   3.438
41451W        W 7882  17.682  25.248   9.790
41452W        W 7883   7.864  19.566   0.893
41453W        W 7884   4.426   4.282   0.518
41454W        W 7885  10.415  19.048  14.268
41455W        W 7886  27.340   6.475   2.871
41456W        W 7887  39.309  23.217  14.478
41457W        W 7888   8.680  39.528  11.640
41458W        W 7889  17.113   2.269  10.970
41459W        W 7890  14.805  10.342   0.774
41460W        W 7891  29.674   0.499  12.499
41461W        W 7892  41.478  22.529   2.105
41462W        W 7893  27.513   6.502  12.880
41463W        W 7894  40.814   9.832   3.367
41464W        W 7895   0.470  19.112   1.491
41465W        W 7896   6.333   1.378   3.404
41466W        W 7897   4.808  31.797   3.112
41467W        W 7898  38.054  34.448   2.284
41468W        W 7899  29.675   8.884   2.388
41469W        W 7900  23.697  28.210   1.266
41470W        W 7901  38.971  22.366  13.843
41471W        W 7902  13.686  31.453   2.948
41472W        W 7903  10.207   0.333   3.332
41473W        W 7904   5.231   6.323  10.034
41474W        W 7905   7.642  13.234  13.509
41475W        W 7906   6.452  31.521  10.916
41476W        W 7907  37.518  12.100   1.420
41477W        W 7908  30.713  31.051   2.188
41478W        W 7909  17.795   5.527  11.505
41479W        W 7910  22.572  10.794  14.378
41480W        W 7911   1.924   2.940  12.467
41481W        W 7912  41.562  19.003   4.941
41482W        W 7913   5.183  39.068   3.696
41483W        W 7914   1.520  43.198   3.714
41484W        W 7915   3.194  40.340   4.552
41485W        W 7916  43.381  42.860   4.582
41486W        W 7917  37.472  16.810  11.339
41487W        W 7918   9.842  25.355   2.127
41488W        W 7919  16.796   6.770  13.389
41489W        W 7920   3.396  34.485  11.708
41490W        W 7921  43.945  22.597   1.828
41491W        W 7922  20.939  34.453   4.294
41492W        W 7923  13.788  20.697  11.674
41493W        W 7924  43.414  25.405   4.676
41494W        W 7925  19.565  33.598  11.912
41495W        W 7926   1.393   8.608  14.181
41496W        W 7927   5.657  25.005   1.376
41497W        W 7928  31.980  15.993  12.843
41498W        W 7929  42.911  14.541  11.673
41499W        W 7930  31.540   2.495  12.482
41500W        W 7931  28.532  23.498   1.722
41501W        W 7932   2.753  37.517   0.697
41502W        W 7933  41.432  44.568   0.193
41503W        W 7934  15.784  14.900  14.974
41504W        W 7935   9.933  28.399  14.841
41505W        W 7936  40.415  34.913   2.820
41506W        W 7937  23.505  20.609  13.546
41507W        W 7938  27.612  44.875   0.402
41508W        W 7939  41.995  39.833  14.096
41509W        W 7940  23.639   2.305  10.825
41510W        W 7941   3.621   3.674   0.795
41511W        W 7942  18.165   3.413  14.010
41512W        W 7943   7.243  43.814   2.903
41513W        W 7944  25.171  17.782   3.844
41514W        W 7945   7.141  13.370  14.952
41515W        W 7946   4.995  31.378   4.287
41516W        W 7947  44.469  23.644  11.574
41517W        W 7948  38.728  18.227  12.035
41518W        W 7949  10.660  38.068  14.439
41519W        W 7950  34.373   8.798   4.035
41520W        W 7951  38.808  33.221  14.872
41521W        W 7952   0.386   0.112   0.951
41522W        W 7953  39.391  23.957   4.559
41523W        W 7954  40.751   5.917   3.195
41524W        W 7955   1.572  17.921   0.187
41525W        W 7956  21.030  20.241  10.147
41526W        W 7957  23.749  42.219  13.415
41527W        W 7958   7.895  24.978   3.242
41528W        W 7959  35.344  38.571   9.963
41529W        W 7960   9.803  17.747   2.311
41530W        W 7961  18.831  24.657  11.534
41531W        W 7962  11.131  20.038   2.551
41532W        W 7963  27.684  41.325   4.454
41533W        W 7964  38.138  20.254  14.327
41534W        W 7965  42.953  22.950  13.383
41535W        W 7966  33.999  34.550  12.073
41536W        W 7967  33.126  31.074   3.415
41537W        W 7968   2.487  17.613   1.242
41538W        W 7969  40.967  22.343  10.758
41539W        W 7970  21.055  14.173   4.723
41540W        W 7971  25.584  29.444  13.181
41541W        W 7972  20.287  43.733  14.309
41542W        W 7973  28.443  27.251  13.441
41543W        W 7974   7.304  35.471  13.000
41544W        W 7975  33.601  36.630   4.501
41545W        W 7976  15.329  26.707  14.993
41546W        W 7977  31.652  22.688  11.582
41547W        W 7978  23.911  15.102   4.120
41548W        W 7979  10.393  35.746  11.128
41549W        W 7980  18.409  11.206   4.240
41550W        W 7981  13.503  25.206   2.545
41551W        W 7982  34.338  27.576  10.569
41552W        W 7983  13.869  13.593   4.865
41553W        W 7984  39.813  19.498  14.322
41554W        W 7985  14.263  15.342  11.602
41555W        W 7986  28.435  36.525   0.415
41556W        W 7987  37.616  14.850  11.030
41557W        W 7988  26.122   8.948   4.478
41558W        W 7989   9.318  12.180  11.233
41559W        W 7990  29.687  27.156   0.977
41560W        W 7991  19.211  17.577  12.567
41561W        W 7992   2.276  37.916  13.356
41562W        W 7993  39.954  42.791   4.535
41563W        W 7994   9.087  26.081   0.998
41564W        W 7995  11.161  22.239   4.183
41565W        W 7996   6.538   8.882  10.859
41566W        W 7997  25.212  14.173   0.965
41567W        W 7998  27.475   9.821   3.151
41568W        W 7999  12.250   1.389   3.233
41569W        W 8000  23.807   0.967  11.592
41570W        W 8001  25.883  16.527  10.442
41571W        W 8002  29.551  19.067  13.608
41572W        W 8003  12.444  14.509  14.901
41573W        W 8004  25.081  14.259   2.513
41574W        W 8005  42.057  11.102  13.749
41575W        W 8006  32.107  29.051  11.919
41576W        W 8007  20.543  41.612   0.726
41577W        W 8008   1.905  41.232  12.436
41578W        W 8009  36.496  39.839  14.473
41579W        W 8010  36.134   8.715   3.853
41580W        W 8011  18.120   5.419   4.398
41581W        W 8012  30.042  24.528   0.426
41582W        W 8013  28.163   7.884  12.416
41583W        W 8014  17.848  10.784  13.501
41584W        W 8015  21.936  28.674  12.025
41585W        W 8016  41.112  31.956  11.566
41586W        W 8017  17.835  23.677   2.792
41587W        W 8018  32.339   5.644  14.087
41588W        W 8019  26.740  32.656   3.465
41589W        W 8020  40.800  23.741   0.377
41590W        W 8021  20.648  30.372  12.175
41591W        W 8022  24.005   5.820  11.827
41592W        W 8023  29.622  30.417   1.376
41593W        W 8024   4.703  31.009   4.517
41594W        W 8025  27.182  27.738   2.116
41595W        W 8026  26.301  24.687   4.493
41596W        W 8027  41.381  28.230   2.350
41597W        W 8028  34.155  18.745  11.567
41598W        W 8029  33.829  44.371   3.219
41599W        W 8030  33.971  24.648   3.810
41600W        W 8031   3.613  12.142  12.580
41601W        W 8032  24.344   4.914   3.668
41602W        W 8033  12.276  18.242   3.986
41603W        W 8034  39.826  32.644   2.817
41604W        W 8035  24.925  13.901   3.981
41605W        W 8036  18.886  37.933   0.910
41606W        W 8037   3.841  25.665   2.448
41607W        W 8038  13.157  16.706  14.962
41608W        W 8039  14.365  25.534  13.820
41609W        W 8040  39.763  30.620   4.111
41610W        W 8041  41.557  35.607   1.687
41611W        W 8042  42.884  44.532  14.778
41612W        W 8043  42.178  40.044   1.366
41613W        W 8044  37.684   1.269   3.848
41614W        W 8045  10.925  17.182  11.186
41615W        W 8046  21.275  43.828  12.410
41616W        W 8047  19.030   1.980   4.578
41617W        W 8048   4.810  16.163   3.724
41618W        W 8049  30.334  21.118  13.987
41619W        W 8050  14.564  12.389  13.072
41620W        W 8051  42.060  23.509   0.746
41621W        W 8052  41.034  36.796  12.670
41622W        W 8053  13.283   1.349   3.318
41623W        W 8054  30.967  22.219   4.388
41624W        W 8055  42.616  25.747   3.268
41625W        W 8056  37.580  44.539   2.112
41626W        W 8057   7.128  20.187  14.744
41627W        W 8058  17.263  43.363  11.204
41628W        W 8059  18.079   9.796   4.537
41629W        W 8060  16.124   5.282  11.638
41630W        W 8061  17.346   5.899  11.996
41631W        W 8062  15.588  42.214   4.092
41632W        W 8063  13.239  21.238   4.402
41633W        W 8064  37.644  22.321  13.865
41634W        W 8065  40.210  22.516   1.569
41635W        W 8066  37.452   8.362  14.965
41636W        W 8067  37.423  22.594   1.730
41637W        W 8068   7.636  20.655   4.138
41638W        W 8069  41.040  14.097  13.007
41639W        W 8070  32.198   0.219  14.917
41640W        W 8071  41.799  29.217  11.569
41641W        W 8072  29.374  25.652   3.784
41642W        W 8073  10.823  36.766  11.566
41643W        W 8074   3.320  32.593   1.777
41644W        W 8075  21.980  37.983   3.726
41645W        W 8076  33.389  41.430   1.587
41646W        W 8077   5.652  35.473  14.496
41647W        W 8078   5.672  13.579  12.927
41648W        W 8079   5.670   0.604   0.405
41649W        W 8080  14.688  26.510  12.908
41650W        W 8081  34.560   3.160  10.300
41651W        W 8082  29.236  18.576   3.547
41652W        W 8083  35.054   4.744   3.633
41653W        W 8084  42.075   4.550   4.161
41654W        W 8085  38.944   8.694   2.259
41655W        W 8086   5.399   0.433  11.237
41656W        W 8087  34.311   7.090   0.776
41657W        W 8088  16.163   7.905  14.750
41658W        W 8089  11.225  34.058  11.548
41659W        W 8090  22.504   5.659  13.522
41660W        W 8091   9.849  13.851   1.748
41661W        W 8092  33.971   2.775   4.516
41662W        W 8093  25.071   5.737  11.931
41663W        W 8094   6.163  30.987   4.416
41664W        W 8095  39.901  32.832  13.902
41665W        W 8096   5.184   5.467   3.715
41666W        W 8097   1.336   8.735   2.830
41667W        W 8098  26.381  16.767   0.973
41668W        W 8099  11.846  32.674   4.604
41669W        W 8100  13.387  44.084   1.256
41670W        W 8101  30.035  25.592  13.298
41671W        W 8102  12.692   6.644  12.102
41672W        W 8103  42.029  16.066  11.621
41673W        W 8104  18.103  17.633  10.254
41674W        W 8105  38.718   6.721  11.525
41675W        W 8106   2.369   8.197   3.406
41676W        W 8107  17.690   6.516  11.633
41677W        W 8108  32.339  10.290   4.829
41678W        W 8109   9.612  27.578  10.687
41679W        W 8110   0.398  36.939  14.224
41680W        W 8111  30.403  39.844   3.146
41681W        W 8112  26.503  10.976   2.404
41682W        W 8113  32.091  11.697  14.488
41683W        W 8114  24.109  34.058   0.979
41684W        W 8115  32.452  23.342   4.283
41685W        W 8116  32.432  43.926   0.428
41686W        W 8117   2.681  43.263   1.651
41687W        W 8118  34.480  17.779  12.348
41688W        W 8119  22.504   7.771  14.027
41689W        W 8120  23.087  32.979  12.349
41690W        W 8121  35.034   9.391   3.574
41691W        W 8122  11.870   4.019   3.900
41692W        W 8123  35.486  38.499   3.397
41693W        W 8124   5.871   1.447   3.149
41694W        W 8125  22.720  17.347  14.121
41695W        W 8126  41.937  37.687  14.921
41696W        W 8127  39.666  12.326   3.337
41697W        W 8128  20.676  24.201  13.039
41698W        W 8129  40.697  42.904   0.721
41699W        W 8130   1.857  20.645   0.632
41700W        W 8131  38.890  23.933  12.833
41701W        W 8132  30.117  35.581   0.866
41702W        W 8133  19.638  44.328  14.440
41703W        W 8134  26.751   1.347   4.689
41704W        W 8135   3.924  29.516   2.826
41705W        W 8136   2.398   6.391   0.739
41706W        W 8137  14.815  14.232   3.274
41707W        W 8138   4.013  26.158  13.301
41708W        W 8139  16.128   4.616  10.790
41709W        W 8140   3.223  30.287  13.295
41710W        W 8141  16.503  38.393   4.362
41711W        W 8142  21.099  16.987  12.875
41712W        W 8143   2.757  22.966   4.717
41713W        W 8144  40.971   9.341   3.501
41714W        W 8145  29.891  15.807  12.911
41715W        W 8146  28.604  14.921  10.730
41716W        W 8147  31.184  29.515  13.117
41717W        W 8148   5.239  26.521   1.429
41718W        W 8149   7.120  40.892   1.232
41719W        W 8150  31.093  12.105   0.266
41720W        W 8151  17.046  10.832   0.481
41721W        W 8152  35.821  39.364  11.581
41722W        W 8153  28.431  17.497  14.359
41723W        W 8154   6.187  18.252   1.865
41724W        W 8155  28.548  18.178   2.890
41725W        W 8156   5.255  26.951   2.713
41726W        W 8157  18.384  10.171  12.468
41727W        W 8158  22.584  23.842   1.249
41728W        W 8159   6.593  19.660   1.183
41729W        W 8160  16.933  44.095  11.088
41730W        W 8161  20.557  12.647  13.008
41731W        W 8162  21.888  39.194  10.761
41732W        W 8163  18.270  23.268   3.747
41733W        W 8164  10.204  17.777   1.673
41734W        W 8165  17.823  23.428   1.236
41735W        W 8166  31.375   7.203  14.411
41736W        W 8167  17.584  19.775  12.255
41737W        W 8168  44.075  39.553   4.604
41738W        W 8169  31.841   7.224   2.849
41739W        W 8170  34.873  35.612  12.576
41740W        W 8171   0.830   7.654  14.287
41741W        W 8172  31.105  43.015  13.010
41742W        W 8173  43.030  20.792   2.802
41743W        W 8174  22.649  11.175  11.697
41744W        W 8175   6.480  19.708  10.767
41745W        W 8176   5.223  35.083   3.566
41746W        W 8177   8.309  39.218   1.102
41747W        W 8178  29.175  14.000   1.815
41748W        W 8179  25.664   2.876  10.396
41749W        W 8180  30.740  11.134  12.951
41750W        W 8181  20.127  12.087  14.247
41751W        W 8182  35.561  17.347   4.486
41752W        W 8183  43.074  34.529  11.103
41753W        W 8184   1.782  10.262   9.923
41754W        W 8185  18.075  33.570   0.352
41755W        W 8186  40.769   1.888  11.504
41756W        W 8187  37.959  42.934  13.802
41757W        W 8188  26.079  29.769   1.441
41758W        W 8189  30.003  38.244   3.900
41759W        W 8190  44.365  20.514  10.640
41760W        W 8191  39.208  19.726   3.471
41761W        W 8192   8.452   6.886   3.712
41762W        W 8193  34.937   9.310  12.025
41763W        W 8194  18.279  10.680  13.767
41764W        W 8195   6.677  18.692   0.639
41765W        W 8196  13.286  19.299   3.666
41766W        W 8197  11.579  14.139  11.232
41767W        W 8198  11.405  11.259   2.858
41768W        W 8199   8.829  32.603   0.402
41769W        W 8200  44.313   4.056  11.246
41770W        W 8201   7.909  14.168   0.874
41771W        W 8202  40.004   4.804  11.031
41772W        W 8203  31.920   6.205  11.143
41773W        W 8204  38.727  27.939   0.902
41774W        W 8205  28.094  19.268   3.409
41775W        W 8206   2.632  38.620  14.994
41776W        W 8207   6.454  24.395  12.018
41777W        W 8208  15.627  25.718  11.683
41778W        W 8209  32.922  34.026   1.537
41779W        W 8210   2.995  10.462  11.535
41780W        W 8211  32.679  10.208  12.851
41781W        W 8212  17.267  37.019  10.513
41782W        W 8213   5.812   6.202  10.801
41783W        W 8214  19.143  43.922  12.441
41784W        W 8215  40.509  26.779  10.730
41785W        W 8216   7.260  44.272  10.740
41786W        W 8217  35.871  44.980  11.970
41787W        W 8218  17.897  22.167   5.029
41788W        W 8219   5.161  23.459  13.815
41789W        W 8220   1.339  20.087  11.489
41790W        W 8221  18.878   8.569   3.802
41791W        W 8222  42.605  17.523  10.768
41792W        W 8223  14.326  44.570  11.147
41793W        W 8224  34.000   0.226  12.524
41794W        W 8225   8.881  23.901   1.336
41795W        W 8226  37.133  33.099  13.565
41796W        W 8227  21.794  18.592   1.397
41797W        W 8228  35.458   0.519   3.716
41798W        W 8229  28.845   8.281   3.839
41799W        W 8230  26.797  28.066   2.156
41800W        W 8231  40.916  27.615  13.168
41801W        W 8232  15.639   7.727   4.093
41802W        W 8233  18.864  22.531  11.136
41803W        W 8234   6.717  31.068  11.592
41804W        W 8235  13.014   2.825   1.272
41805W        W 8236  13.690  22.307   3.215
41806W        W 8237  43.307   0.002  11.831
41807W        W 8238  22.016  26.420   4.577
41808W        W 8239  34.938   9.173  10.884
41809W        W 8240  37.494  23.547  14.592
41810W        W 8241   8.069   5.298  13.388
41811W        W 8242  20.705  42.716   1.783
41812W        W 8243  24.628  10.676   1.243
41813W        W 8244  44.780  16.265  11.800
41814W        W 8245  34.993  14.739  13.361
41815W        W 8246  29.727  23.133   1.484
41816W        W 8247   2.573  21.948   2.344
41817W        W 8248   8.448   9.759   4.815
41818W        W 8249  42.102  12.844  12.136
41819W        W 8250  29.701  32.663  13.512
41820W        W 8251   1.280  22.087  13.028
41821W        W 8252  36.048  26.152   2.435
41822W        W 8253   7.474  34.362   1.859
41823W        W 8254  24.070  42.697   1.532
41824W        W 8255  20.745  32.856  12.021
41825W        W 8256  33.537  15.653   3.307
41826W        W 8257  34.509  39.627   3.659
41827W        W 8258  19.090  10.759  12.834
41828W        W 8259  25.104  18.334   0.958
41829W        W 8260  44.449  36.051   3.496
41830W        W 8261   2.649  27.635  12.600
41831W        W 8262  33.730  20.723  10.780
41832W        W 8263   5.399   6.676  11.535
41833W        W 8264  25.601  10.686   1.491
41834W        W 8265  42.996  18.533  12.934
41835W        W 8266   8.864  27.245   3.786
41836W        W 8267  36.799  20.364  10.503
41837W        W 8268  25.556   6.174  14.298
41838W        W 8269  19.455  42.651   4.908
41839W        W 8270  20.677  12.335   3.621
41840W        W 8271  15.673  14.316  12.491
41841W        W 8272  25.458  11.638  14.050
41842W        W 8273  20.767  15.084   1.398
41843W        W 8274  17.595   7.345   1.448
41844W        W 8275  27.229  31.745   0.807
41845W        W 8276  29.905  21.899   3.205
41846W        W 8277  33.124  36.762  11.168
41847W        W 8278  16.142  40.209  10.594
41848W        W 8279   6.154   1.903   3.377
41849W        W 8280  36.624   7.446  13.277
41850W        W 8281  16.641  42.378   3.756
41851W        W 8282  44.039  30.411  14.358
41852W        W 8283   5.890  28.495   3.668
41853W        W 8284   6.695   2.777  13.412
41854W        W 8285   0.729  40.491  12.607
41855W        W 8286  27.017  18.731  10.185
41856W        W 8287  22.184   3.280  14.432
41857W        W 8288  14.606  25.802  10.338
41858W        W 8289  22.599  30.708   1.398
41859W        W 8290  21.466  10.048   4.685
41860W        W 8291  33.631   8.741   1.445
41861W        W 8292  37.896  22.359  10.307
41862W        W 8293  43.411  12.218  14.065
41863W        W 8294   5.903   4.143   1.782
41864W        W 8295  16.599   1.426  14.843
41865W        W 8296   8.890  27.097   2.404
41866W        W 8297  35.984   2.344  13.377
41867W        W 8298  31.056  44.218   5.070
41868W        W 8299  17.578   4.939  13.243
41869W        W 8300  27.253  10.666   1.896
41870W        W 8301  38.102  23.026   4.908
41871W        W 8302  32.436   7.195   1.451
41872W        W 8303  42.910  11.061   2.829
41873W        W 8304  27.956  18.012   1.883
41874W        W 8305  23.518  31.474   1.407
41875W        W 8306  22.517  15.725  10.641
41876W        W 8307  34.530  34.308   9.463
41877W        W 8308  26.490  30.537   2.580
41878W        W 8309  26.618  25.942   3.200
41879W        W 8310  35.091  34.924  11.632
41880W        W 8311  35.577  38.342  13.070
41881W        W 8312  11.238  42.861   2.218
41882W        W 8313  22.321  24.994   1.731
41883W        W 8314  35.564  27.103   0.437
41884W        W 8315  40.435  26.157   2.754
41885W        W 8316  31.169  25.676   2.809
41886W        W 8317  43.781  40.310  14.912
41887W        W 8318  10.198  16.918  11.998
41888W        W 8319  37.287  40.854  12.459
41889W        W 8320  19.160  24.099  14.571
41890W        W 8321  33.171  42.968   2.663
41891W        W 8322  26.516  29.311  13.012
41892W        W 8323  41.464  43.908  10.374
41893W        W 8324  11.732  27.137  12.421
41894W        W 8325  21.647  14.602  11.559
41895W        W 8326  27.447  10.069   0.059
41896W        W 8327  41.538  37.804   0.415
41897W        W 8328  35.504  36.456   2.615
41898W        W 8329  11.565  24.497   3.120
41899W        W 8330  11.814  25.284   9.899
41900W        W 8331  32.475  23.155  13.541
41901W        W 8332  41.800  34.003   1.672
41902W        W 8333  12.125  19.970   4.903
41903W        W 8334  44.366  10.303   2.121
41904W        W 8335  11.307   2.924   4.782
41905W        W 8336   1.418  33.154  12.164
41906W        W 8337  14.532  19.749   0.351
41907W        W 8338  34.622  16.778   3.296
41908W        W 8339  13.109  18.668  13.844
41909W        W 8340  17.414  10.030  11.123
41910W        W 8341   1.889  19.754   4.390
41911W        W 8342  10.777  41.758   0.332
41912W        W 8343   2.278   0.461  11.223
41913W        W 8344  19.312  41.465   1.232
41914W        W 8345  37.454   2.958   4.665
41915W        W 8346  33.199  36.545   1.197
41916W        W 8347  30.146  39.928  13.542
41917W        W 8348  22.587  14.330   0.043
41918W        W 8349  19.112  13.367   3.294
41919W        W 8350   7.983  42.804   3.729
41920W        W 8351  43.547  30.411   3.639
41921W        W 8352  41.001   3.636  11.007
41922W        W 8353   8.332   4.162  13.993
41923W        W 8354  12.778  15.166   3.021
41924W        W 8355  23.225  26.991   4.887
41925W        W 8356   2.823  36.072  14.411
41926W        W 8357  38.376  25.723   1.237
41927W        W 8358   9.209  19.682   4.656
41928W        W 8359  43.100  30.962   2.376
41929W        W 8360  15.316  22.929  11.176
41930W        W 8361  33.396  11.395  12.942
41931W        W 8362  18.702  43.977   1.772
41932W        W 8363  17.842   3.417  12.815
41933W        W 8364  37.281   8.833   9.769
41934W        W 8365  30.342  41.790   0.699
41935W        W 8366  36.035  28.961  13.472
41936W        W 8367  14.357  40.869  10.677
41937W        W 8368  23.516  25.530   1.385
41938W        W 8369   7.439  11.986   4.771
41939W        W 8370   7.460   0.611  11.421
41940W        W 8371   4.270   0.733   2.373
41941W        W 8372  36.571   1.688  11.127
41942W        W 8373  30.623  44.428   1.624
41943W        W 8374  41.275  38.340   2.216
41944W        W 8375  15.598   9.384  11.386
41945W        W 8376  11.112  19.054   1.301
41946W        W 8377  15.616  43.003  10.750
41947W        W 8378  14.175  39.760  12.549
41948W        W 8379  19.811  36.378  12.548
41949W        W 8380   9.125  31.645  14.996
41950W        W 8381  44.793  16.251   4.552
41951W        W 8382  38.333   1.221  13.572
41952W        W 8383  40.493   4.685  12.484
41953W        W 8384  15.417  26.086  11.280
41954W        W 8385  15.096   4.733  13.149
41955W        W 8386  23.346  27.687  14.327
41956W        W 8387  38.589  40.928   2.323
41957W        W 8388  41.051  37.318  11.427
41958W        W 8389   7.288  36.246   4.814
41959W        W 8390  25.230  24.591  11.213
41960W        W 8391  21.103   1.026  14.272
41961W        W 8392   6.346   0.760   4.120
41962W        W 8393  12.751  43.509   1.950
41963W        W 8394  27.303  36.865   0.369
41964W        W 8395  13.745   2.110  12.518
41965W        W 8396  41.039  18.855  11.008
41966W        W 8397  30.548   5.196  11.585
41967W        W 8398  37.933  22.744  10.690
41968W        W 8399  44.049   0.265  12.639
41969W        W 8400   2.477  33.425  12.899
41970W        W 8401   7.466   3.654   3.092
41971W        W 8402  44.906  10.175  10.960
41972W        W 8403  24.706  12.118   2.049
41973W        W 8404   7.091  19.231  12.397
41974W        W 8405  18.098  16.625   1.503
41975W        W 8406  36.441  44.327  12.139
41976W        W 8407  16.876   4.724  14.474
41977W        W 8408  22.261  16.140  13.873
41978W        W 8409   3.157  34.290  13.067
41979W        W 8410  30.064  18.306   4.040
41980W        W 8411  22.469  37.787   2.176
41981W        W 8412  22.074  23.576  13.950
41982W        W 8413  26.157  10.431   0.320
41983W        W 8414   1.896  24.560  10.594
41984W        W 8415  34.973  21.008   4.165
41985W        W 8416   7.081   1.841   1.752
41986W        W 8417   7.503  11.741   0.723
41987W        W 8418  29.454  43.030  11.065
41988W        W 8419  30.620  17.110   2.187
41989W        W 8420  15.858  29.361  14.890
41990W        W 8421  23.082  44.870   3.893
41991W        W 8422  32.705  41.780  13.064
41992W        W 8423  38.906  23.233   1.431
41993W        W 8424  30.899   1.950  11.345
41994W        W 8425   3.683  44.357  14.875
41995W        W 8426  22.917  18.544  11.586
41996W        W 8427   7.618  26.070  13.894
41997W        W 8428  17.220  38.699  13.444
41998W        W 8429  23.773  19.557  11.245
41999W        W 8430  15.236  36.741   4.001
42000W        W 8431  44.726  43.748   3.588
42001W        W 8432   8.965  21.647   1.750
42002W        W 8433  39.355  35.086   3.563
42003W        W 8434  15.163   6.213  14.980
42004W        W 8435   1.760   0.946   0.912
42005W        W 8436  22.257  29.135  13.871
42006W        W 8437  30.619  37.922   3.384
42007W        W 8438  27.477  30.890  10.535
42008W        W 8439   3.716  12.806   2.274
42009W        W 8440  44.805  37.314   2.018
42010W        W 8441  42.336   2.394   1.418
42011W        W 8442  23.472  36.112   3.198
42012W        W 8443  43.310  33.910   1.030
42013W        W 8444  31.975  14.207   4.616
42014W        W 8445  43.909  12.585  12.718
42015W        W 8446  35.536  20.899  13.369
42016W        W 8447  23.571  39.161   1.820
42017W        W 8448   8.705   4.306   2.327
42018W        W 8449   3.686   7.914   0.625
42019W        W 8450  25.178   1.491   1.705
42020W        W 8451  11.405  37.357  14.984
42021W        W 8452   9.507   8.232  11.124
42022W        W 8453   6.140  19.563   0.218
42023W        W 8454  30.528  19.824   0.891
42024W        W 8455  25.589   2.381  10.637
42025W        W 8456  21.464  17.186  12.113
42026W        W 8457   9.461   7.451  12.990
42027W        W 8458  13.757  31.668   4.462
42028W        W 8459  28.676  35.122   0.751
42029W        W 8460   9.903   0.007   1.909
42030W        W 8461  24.900   0.487   1.266
42031W        W 8462  26.981  26.221  14.842
42032W        W 8463  34.839  11.455   2.353
42033W        W 8464  29.525  23.256   2.846
42034W        W 8465   0.024   7.026   3.641
42035W        W 8466   7.943  11.568  10.848
42036W        W 8467  31.010  32.556  11.170
42037W        W 8468  34.403  42.635  10.935
42038W        W 8469   3.830  43.199  14.278
42039W        W 8470  11.413  35.329   1.328
42040W        W 8471   9.271   7.070   2.670
42041W        W 8472   6.618   9.759   4.766
42042W        W 8473   1.462  44.354  10.651
42043W        W 8474  16.158  28.992  10.574
42044W        W 8475  20.043  25.008   5.037
42045W        W 8476  16.026  20.351   3.904
42046W        W 8477   1.474  44.833  14.495
42047W        W 8478  34.933  44.005   1.862
42048W        W 8479  25.328  26.057   2.274
42049W        W 8480  15.736  36.283  11.498
42050W        W 8481  11.577   0.909  12.078
42051W        W 8482  44.307  37.832  14.979
42052W        W 8483  24.026   8.920   1.408
42053W        W 8484  10.916  31.353   3.707
42054W        W 8485  44.742  25.752  14.402
42055W        W 8486   4.487  23.087   2.443
42056W        W 8487  26.053   4.467  13.202
42057W        W 8488   5.774  20.038  14.932
42058W        W 8489  35.395  44.483  14.433
42059W        W 8490   4.113  33.880  14.957
42060W        W 8491  37.084  18.812  14.323
42061W        W 8492   5.419  31.396   1.154
42062W        W 8493  17.219  35.129   2.608
42063W        W 8494   0.298  15.381  12.441
42064W        W 8495   6.387  31.062   3.417
42065W        W 8496  26.639   1.141  10.645
42066W        W 8497  17.287   1.022  11.707
42067W        W 8498  28.923   2.302  14.375
42068W        W 8499  14.503  16.783  10.681
42069W        W 8500  17.233  35.899  13.468
42070W        W 8501   1.836  10.031  11.937
42071W        W 8502   9.264   0.467  11.561
42072W        W 8503  30.649  31.097   0.796
42073W        W 8504  38.326  26.113   4.638
42074W        W 8505  23.190  19.081   4.260
42075W        W 8506  20.095  25.075  10.690
42076W        W 8507  26.153   5.963  14.733
42077W        W 8508   2.801  27.026   3.574
42078W        W 8509  26.233  27.019  10.443
42079W        W 8510  16.951  31.365   3.286
42080W        W 8511  40.405  11.818  11.932
42081W        W 8512  37.040  28.868  12.566
42082W        W 8513  29.702  23.498   2.418
42083W        W 8514  21.217  22.109  11.573
42084W        W 8515   5.916   2.701   4.631
42085W        W 8516  43.208  39.886  13.549
42086W        W 8517   2.119  43.553  11.598
42087W        W 8518  13.901  44.885  12.949
42088W        W 8519  41.823  14.161  10.602
42089W        W 8520   7.267   3.424   2.670
42090W        W 8521  34.656  10.203   1.881
42091W        W 8522  27.660  33.010  12.856
42092W        W 8523  10.102  12.745  10.993
42093W        W 8524   6.161   0.817   2.656
42094W        W 8525  27.458  39.825  12.883
42095W        W 8526   1.301  29.569  12.991
42096W        W 8527   8.137  12.868   2.730
42097W        W 8528  16.211  31.494   2.580
42098W        W 8529  37.290  44.765  10.617
42099W        W 8530  18.210  23.637   2.417
42100W        W 8531   4.769  41.769   0.826
42101W        W 8532   1.726  44.866  14.013
42102W        W 8533  42.379   4.930   2.058
42103W        W 8534  20.278   6.441   0.837
42104W        W 8535  30.267   2.869  14.406
42105W        W 8536  23.449  10.270  11.164
42106W        W 8537  32.392   7.283  14.476
42107W        W 8538  38.561  15.040  14.286
42108W        W 8539   4.918  13.441   3.711
42109W        W 8540  37.514  25.212   3.728
42110W        W 8541  29.944  16.766  12.103
42111W        W 8542  43.990  24.478   0.884
42112W        W 8543  16.728  34.766  10.502
42113W        W 8544  16.207   5.492   1.902
42114W        W 8545  30.734  17.446   3.059
42115W        W 8546  34.837   0.160   3.249
42116W        W 8547  40.396  20.975  12.987
42117W        W 8548  16.818  16.357   4.070
42118W        W 8549  17.082   1.337   1.778
42119W        W 8550   3.609  13.116  12.326
42120W        W 8551  36.915  20.648   2.825
42121W        W 8552  27.350  21.550   0.497
42122W        W 8553   9.676  26.493  10.690
42123W        W 8554   1.462  42.325   4.047
42124W        W 8555   8.871  39.510   4.240
42125W        W 8556  12.667  23.199   3.640
42126W        W 8557  36.598  12.637   3.568
42127W        W 8558  31.928  36.003   0.335
42128W        W 8559   1.812  26.043  11.560
42129W        W 8560  40.378  39.556  11.092
42130W        W 8561  26.331   6.195  14.258
42131W        W 8562  19.745   8.357   4.790
42132W        W 8563  10.911  38.813   0.803
42133W        W 8564  16.029  14.779  14.261
42134W        W 8565   9.894  43.041   1.816
42135W        W 8566   1.527  42.621   4.897
42136W        W 8567  12.114  32.522   0.372
42137W        W 8568  40.022  27.434   3.296
42138W        W 8569  20.636  40.289   1.741
42139W        W 8570  28.922   1.720  13.982
42140W        W 8571  39.893   1.195   4.422
42141W        W 8572  39.871  39.699  11.145
42142W        W 8573  23.485  44.315  14.953
42143W        W 8574   6.380  42.917   2.701
42144W        W 8575  40.849  17.537  10.910
42145W        W 8576   6.358  39.500   4.025
42146W        W 8577  31.960  22.234  11.574
42147W        W 8578  43.317  34.732   1.283
42148W        W 8579  28.428  23.246   1.120
42149W        W 8580  20.361  39.532   2.418
42150W        W 8581  40.759  16.252   4.125
42151W        W 8582  21.686  22.788  12.849
42152W        W 8583  39.801  24.611   2.424
42153W        W 8584  39.453  41.488  14.603
42154W        W 8585   9.969  24.820   1.181
42155W        W 8586  18.071  42.511  12.240
42156W        W 8587  10.776   9.167   4.564
42157W        W 8588  31.098  16.325  12.943
42158W        W 8589   1.949  19.278  13.019
42159W        W 8590  30.518  25.258  14.978
42160W        W 8591   9.383   0.012   0.589
42161W        W 8592  35.519   3.313  14.310
42162W        W 8593   2.713  30.944   2.106
42163W        W 8594   6.292  30.720  13.843
42164W        W 8595  35.563  18.621  11.041
42165W        W 8596  41.966   5.568   0.166
42166W        W 8597   3.807  33.885   3.109
42167W        W 8598   6.646  42.054   4.179
42168W        W 8599  19.647  11.021  13.630
42169W        W 8600  23.897  40.225  14.101
42170W        W 8601  41.532  44.730  13.409
42171W        W 8602  17.430  13.240   4.555
42172W        W 8603  35.672  35.426   4.153
42173W        W 8604  14.979  12.050  12.144
42174W        W 8605  39.052  28.668   4.488
42175W        W 8606   1.460  42.994  14.921
42176W        W 8607  40.627  43.803  11.559
42177W        W 8608  24.426  15.303  13.622
42178W        W 8609  23.105  21.778  11.503
42179W        W 8610   3.713  18.669  12.563
42180W        W 8611  10.692  11.776   2.554
42181W        W 8612   0.146  26.343   0.677
42182W        W 8613  30.901  44.035  14.374
42183W        W 8614  41.414  33.496   3.928
42184W        W 8615  33.143  23.918   0.753
42185W        W 8616  23.574  29.643   0.863
42186W        W 8617   6.352  11.602  14.744
42187W        W 8618  31.222  29.456   2.823
42188W        W 8619   3.384   0.467   1.865
42189W        W 8620  37.878   3.495  10.753
42190W        W 8621  25.330  33.438   1.970
42191W        W 8622  25.730   8.670   3.622
42192W        W 8623  13.833   4.831   3.698
42193W        W 8624   6.258  18.036   0.363
42194W        W 8625  36.945   6.796  14.403
42195W        W 8626  42.343  22.539  14.818
42196W        W 8627   9.566  10.325   3.206
42197W        W 8628  32.521  27.497  12.906
42198W        W 8629  33.598  10.374   4.048
42199W        W 8630  31.881  38.942   3.595
42200W        W 8631  15.704  27.955   0.270
42201W        W 8632  39.345  14.501  14.605
42202W        W 8633  29.176  22.070  12.473
42203W        W 8634  19.249  12.802   2.417
42204W        W 8635  34.820  44.097  14.351
42205W        W 8636   0.343  21.560  13.482
42206W        W 8637  12.685  28.302   1.480
42207W        W 8638  33.007  36.404  12.533
42208W        W 8639   2.304  19.481   2.702
42209W        W 8640  26.926  19.941   3.172
42210W        W 8641  30.445  14.753  11.204
42211W        W 8642  15.697   0.654   4.128
42212W        W 8643  20.792   6.983   3.284
42213W        W 8644  22.513   7.701   1.238
42214W        W 8645  18.822  36.369   3.150
42215W        W 8646  40.031  20.491   0.485
42216W        W 8647  24.872  12.426   3.867
42217W        W 8648  28.204  22.433   3.666
42218W        W 8649  20.212  37.407  14.403
42219W        W 8650  27.730  32.985   3.906
42220W        W 8651  15.331   0.238  14.439
42221W        W 8652   3.264  29.237   0.387
42222W        W 8653  12.923  14.258  12.745
42223W        W 8654  40.855  22.064   1.224
42224W        W 8655  27.539  39.793   3.120
42225W        W 8656   8.651  37.461   2.343
42226W        W 8657  19.092  13.549   2.810
42227W        W 8658  34.843   0.772  12.068
42228W        W 8659  25.395  27.289  14.192
42229W        W 8660  28.177  10.359   0.376
42230W        W 8661  34.333  40.988   4.593
42231W        W 8662  41.485  10.341   3.082
42232W        W 8663  24.213  16.361   1.343
42233W        W 8664  20.214  30.126   3.231
42234W        W 8665  43.879   6.963  11.078
42235W        W 8666  27.507   3.946   0.280
42236W        W 8667  26.488  18.672   3.109
42237W        W 8668  39.927  30.738  14.205
42238W        W 8669   3.973   3.316   0.962
42239W        W 8670  13.802  24.873   3.156
42240W        W 8671  21.210  24.472  10.509
42241W        W 8672  40.616  11.043  11.482
42242W        W 8673  39.955  39.722  13.976
42243W        W 8674  14.714   1.927  10.496
42244W        W 8675   3.349  41.789  13.967
42245W        W 8676  30.467   7.022  11.670
42246W        W 8677   4.804   0.765   4.581
42247W        W 8678  25.086  10.372  12.132
42248W        W 8679  28.521  31.858   1.850
42249W        W 8680  30.599  17.559  11.918
42250W        W 8681   1.415  39.097   0.486
42251W        W 8682  29.600  23.283  11.476
42252W        W 8683  18.073  32.832   3.220
42253W        W 8684  20.101   8.770   3.537
42254W        W 8685  14.561  19.092  10.675
42255W        W 8686  37.530   5.499   3.132
42256W        W 8687  20.263  30.041  13.558
42257W        W 8688  22.082  12.070  10.931
42258W        W 8689  24.490  21.152   1.423
42259W        W 8690  22.246  33.825   1.356
42260W        W 8691  33.037  22.611   0.216
42261W        W 8692   8.376   5.426   2.599
42262W        W 8693  21.206  32.052  11.117
42263W        W 8694   0.463  35.867   3.148
42264W        W 8695  31.050  11.522   2.717
42265W        W 8696  26.419   5.606   3.672
42266W        W 8697  15.164  38.604   2.773
42267W        W 8698  23.237  39.905  11.647
42268W        W 8699  25.228  40.283   2.705
42269W        W 8700   7.779   8.717   2.150
42270W        W 8701   9.549  22.435  14.060
42271W        W 8702  44.150  20.212  12.844
42272W        W 8703   7.233  40.545   0.776
42273W        W 8704  19.587  18.944   3.065
42274W        W 8705   0.920  44.686  10.699
42275W        W 8706  14.257  22.023   4.048
42276W        W 8707  23.947  10.370   9.757
42277W        W 8708  21.562   3.178   2.087
42278W        W 8709  34.409  22.288  11.099
42279W        W 8710  36.376  44.310   4.031
42280W        W 8711  22.610   0.913  13.646
42281W        W 8712  24.105  33.919   5.235
42282W        W 8713  12.846  19.495   4.464
42283W        W 8714  21.126  20.375   1.741
42284W        W 8715  21.697  19.389   2.880
42285W        W 8716  35.380  25.601   4.374
42286W        W 8717  36.296   6.163  14.500
42287W        W 8718   5.561  43.363   3.583
42288W        W 8719  27.183  22.928   4.153
42289W        W 8720  18.205  37.054  13.993
42290W        W 8721  14.132  32.375   2.783
42291W        W 8722  31.508  42.792  12.423
42292W        W 8723  26.953  14.484   3.049
42293W        W 8724   0.792   4.104  12.486
42294W        W 8725  20.433  27.743   2.654
42295W        W 8726  13.757   0.066  11.622
42296W        W 8727   2.706  21.866   0.797
42297W        W 8728  37.097  22.695   2.795
42298W        W 8729  28.652  33.363   4.309
42299W        W 8730  17.283  20.153  13.732
42300W        W 8731   9.523  11.923  12.072
42301W        W 8732  19.579   4.409  11.344
42302W        W 8733  31.537  11.756  13.808
42303W        W 8734  11.223  30.220   1.686
42304W        W 8735   5.420   2.412   3.500
42305W        W 8736  41.707  30.068  11.179
42306W        W 8737   2.859  36.006   4.683
42307W        W 8738  13.030  43.311   3.320
42308W        W 8739   4.757  43.557   2.589
42309W        W 8740  43.329  19.782  12.447
42310W        W 8741  41.290  23.084  11.277
42311W        W 8742  41.650  26.567   0.356
42312W        W 8743   4.245   1.931   3.437
42313W        W 8744  36.776  28.115  10.565
42314W        W 8745  33.517   0.168   0.923
42315W        W 8746   9.771  37.990  11.844
42316W        W 8747  30.492  36.975   0.980
42317W        W 8748   7.814  24.439   0.471
42318W        W 8749  13.587  23.075   4.437
42319W        W 8750  33.043  16.273   3.796
42320W        W 8751   0.708  12.354   1.722
42321W        W 8752  24.949   3.398  14.881
42322W        W 8753   3.846  12.944  11.582
42323W        W 8754  26.711  36.359   4.744
42324W        W 8755  42.752  12.593  12.972
42325W        W 8756  43.814   2.921  10.954
42326W        W 8757  43.721  24.986  11.046
42327W        W 8758  16.295  31.468   3.918
42328W        W 8759  37.359  36.927  11.126
42329W        W 8760  40.337   2.674   2.722
42330W        W 8761  23.978  27.056  11.893
42331W        W 8762  34.933  38.994   2.740
42332W        W 8763   2.812  37.062  14.230
42333W        W 8764  20.193   8.248   4.277
42334W        W 8765  36.338  13.755  11.108
42335W        W 8766  43.093  26.518   3.192
42336W        W 8767  33.079   3.942   2.216
42337W        W 8768  37.041   7.151  13.114
42338W        W 8769  24.259  20.738  11.410
42339W        W 8770  19.733   4.832   0.983
42340W        W 8771  25.533  15.324  11.183
42341W        W 8772  11.808  31.238   0.771
42342W        W 8773  38.121  26.517  10.105
42343W        W 8774  21.176  15.836   2.925
42344W        W 8775  36.575  21.439  14.841
42345W        W 8776  36.177  15.187  13.024
42346W        W 8777  23.128  32.366  12.833
42347W        W 8778  40.374  28.048   4.497
42348W        W 8779  44.091  40.622   2.387
42349W        W 8780  43.787  16.902  11.854
42350W        W 8781  38.408  33.127   4.044
42351W        W 8782  44.903  39.237   1.295
42352W        W 8783  41.997  43.816   2.826
42353W        W 8784  13.287  14.869  12.157
42354W        W 8785   3.901  13.558  12.179
42355W        W 8786  13.618  41.557   0.453
42356W        W 8787  31.449   2.745  12.950
42357W        W 8788  35.438  44.761   4.128
42358W        W 8789  25.720  41.420   1.332
42359W        W 8790  13.576  12.109   4.351
42360W        W 8791  34.374  28.113  14.415
42361W        W 8792  29.707   4.591  10.857
42362W        W 8793  17.818  29.579   2.451
42363W        W 8794  44.977  17.940   4.082
42364W        W 8795  40.069  42.701   2.321
42365W        W 8796   0.062  37.110   3.722
42366W        W 8797  15.654  39.024  10.643
42367W        W 8798  17.926  14.662   0.913
42368W        W 8799  38.932  18.273  14.422
42369W        W 8800  22.576   8.950   2.927
42370W        W 8801   6.495  16.382  14.886
42371W        W 8802  15.742  38.863   0.324
42372W        W 8803   5.479   7.617  14.010
42373W        W 8804  42.755   0.972   0.416
42374W        W 8805  26.458   6.321  13.036
42375W        W 8806   3.824   6.791   2.726
42376W        W 8807  37.414   3.507  13.849
42377W        W 8808   4.655  15.608   4.921
42378W        W 8809  17.914  13.042  11.560
42379W        W 8810  19.769   2.291   4.681
42380W        W 8811  31.046   7.489   1.891
42381W        W 8812   9.451  10.676   0.423
42382W        W 8813  31.976   0.756  10.788
42383W        W 8814  18.224  27.448  10.729
42384W        W 8815  42.740   0.567  14.010
42385W        W 8816  25.032  13.443  13.883
42386W        W 8817  20.225  28.986  13.232
42387W        W 8818  28.669  10.262  14.079
42388W        W 8819  37.941  42.872   4.515
42389W        W 8820  32.374   3.675  11.156
42390W        W 8821  16.568  24.049  13.538
42391W        W 8822   2.685  16.314  13.955
42392W        W 8823   3.796  10.180  10.131
42393W        W 8824  28.257  36.569  11.016
42394W        W 8825  40.085  14.800   3.730
42395W        W 8826  21.577  12.419  12.166
42396W        W 8827  29.513  11.728  12.041
42397W        W 8828  41.617  39.802   2.427
42398W        W 8829  44.360   8.199  12.831
42399W        W 8830  41.023  11.807  11.111
42400W        W 8831  27.888  12.066   0.682
42401W        W 8832   9.206  43.754   4.558
42402W        W 8833  12.162  22.759   3.144
42403W        W 8834   4.014  25.518   3.973
42404W        W 8835  44.222  37.626   1.304
42405W        W 8836  13.075  29.672   1.833
42406W        W 8837  14.821  29.422   2.820
42407W        W 8838  29.717  39.314   1.821
42408W        W 8839   3.776  24.472   1.435
42409W        W 8840   1.456   1.926   3.621
42410W        W 8841   6.663  25.877   4.669
42411W        W 8842  25.909  37.420  11.073
42412W        W 8843  38.269  20.153  12.105
42413W        W 8844  28.122  36.301  13.447
42414W        W 8845   7.293  34.594   1.444
42415W        W 8846   7.711  39.994  12.375
42416W        W 8847  27.386  40.830  11.237
42417W        W 8848  41.376   9.802  14.728
42418W        W 8849  19.963  31.952   2.249
42419W        W 8850   2.681  31.210  10.714
42420W        W 8851  30.078  40.494  14.346
42421W        W 8852   0.239  17.096  13.279
42422W        W 8853  30.950  26.010   3.175
42423W        W 8854  21.921   9.073   3.627
42424W        W 8855  17.493  13.097   5.413
42425W        W 8856  15.653  25.880   1.894
42426W        W 8857  23.955   9.807  11.572
42427W        W 8858  26.062  41.768   0.192
42428W        W 8859  27.277   3.686  12.048
42429W        W 8860  19.646  37.941  10.593
42430W        W 8861  36.104  14.673  12.005
42431W        W 8862  33.901  41.963   3.204
42432W        W 8863  28.418  12.150  11.564
42433W        W 8864  38.859   7.891  14.287
42434W        W 8865  13.808  36.823  13.843
42435W        W 8866  32.405  12.324   2.361
42436W        W 8867  11.851  14.255   1.521
42437W        W 8868  16.159  30.011  10.598
42438W        W 8869  37.548  10.993   2.860
42439W        W 8870  16.092  26.032  10.550
42440W        W 8871  17.667  14.203   1.660
42441W        W 8872  33.584   3.036  12.593
42442W        W 8873  12.000  40.994   2.345
42443W        W 8874  15.681  20.173   2.929
42444W        W 8875  41.058  10.397   1.418
42445W        W 8876   4.467  11.884  13.368
42446W        W 8877  30.048  11.882   2.736
42447W        W 8878  32.585  15.188  12.396
42448W        W 8879  34.516   9.997  10.479
42449W        W 8880  40.917  24.153  13.844
42450W        W 8881  29.218  39.168   1.785
42451W        W 8882  31.995   9.123   2.187
42452W        W 8883  41.074  40.890  14.895
42453W        W 8884  38.607  10.810   0.501
42454W        W 8885  36.833  21.522   2.577
42455W        W 8886  23.456  24.598  11.103
42456W        W 8887  26.714  16.255  13.076
42457W        W 8888  22.592  27.621   3.826
42458W        W 8889   6.703  13.258   1.675
42459W        W 8890  17.866  42.585  14.822
42460W        W 8891   4.584  42.491   0.029
42461W        W 8892   2.836   1.922  11.505
42462W        W 8893  30.081   3.887  13.007
42463W        W 8894  19.036  22.141  13.105
42464W        W 8895   0.267   0.174   3.712
42465W        W 8896  33.677  33.581   3.170
42466W        W 8897  25.998  39.544   3.151
42467W        W 8898  11.278  41.648  13.352
42468W        W 8899  33.396  30.428   0.705
42469W        W 8900   8.746   4.771   4.160
42470W        W 8901  10.860  30.716  13.117
42471W        W 8902   0.299  26.464  13.936
42472W        W 8903  36.297  29.136  11.974
42473W        W 8904  31.924   3.651   4.094
42474W        W 8905  32.472   6.933   2.607
42475W        W 8906  43.464  14.848  14.888
42476W        W 8907  14.982   6.105   2.251
42477W        W 8908  19.136  44.463   0.185
42478W        W 8909   0.235  29.563  14.712
42479W        W 8910  12.847  27.410  13.836
42480W        W 8911  23.792  37.872   1.320
42481W        W 8912  43.000   9.381   2.370
42482W        W 8913  37.622  36.929   2.773
42483W        W 8914  32.138  34.700  12.411
42484W        W 8915  26.927  39.882  12.111
42485W        W 8916  28.133   1.267   2.125
42486W        W 8917  13.168  41.913   0.943
42487W        W 8918  38.403  38.662   9.887
42488W        W 8919   3.464  43.968   0.711
42489W        W 8920  26.049  41.857  14.320
42490W        W 8921  40.099   6.225  10.870
42491W        W 8922  28.717  40.924   3.950
42492W        W 8923  39.994  22.198   4.573
42493W        W 8924  33.955  26.060   3.821
42494W        W 8925   4.807  38.865   4.460
42495W        W 8926  21.141  29.990   0.556
42496W        W 8927   7.722   7.975   3.828
42497W        W 8928  30.821  35.272  12.852
42498W        W 8929  24.980   4.693   3.569
42499W        W 8930   0.964  40.378   4.196
42500W        W 8931  14.748  34.866   0.497
42501W        W 8932   8.216  34.970  12.110
42502W        W 8933  18.120  21.666  14.455
42503W        W 8934  35.357  36.896   2.246
42504W        W 8935  17.261  40.949  13.559
42505W        W 8936  16.598  24.053   0.951
42506W        W 8937   8.342  44.034  12.920
42507W        W 8938   0.845   6.885  12.909
42508W        W 8939   7.903  16.244   2.243
42509W        W 8940  39.508  29.946  13.428
42510W        W 8941  18.775  16.827   2.777
42511W        W 8942   1.277  17.728   1.711
42512W        W 8943   7.439   6.899   2.707
42513W        W 8944  16.957  34.006   1.045
42514W        W 8945  30.971  28.883   1.741
42515W        W 8946  14.870   5.068   2.274
42516W        W 8947   6.905  29.526   2.367
42517W        W 8948  38.783  27.563   2.121
42518W        W 8949  36.434  43.366   4.198
42519W        W 8950  44.484  31.363  12.658
42520W        W 8951  28.073  25.854   2.041
42521W        W 8952  10.538  20.175  11.607
42522W        W 8953   5.837  14.119   5.072
42523W        W 8954  32.436  44.757  12.275
42524W        W 8955   6.892  16.660   3.632
42525W        W 8956  18.177  15.184   2.897
42526W        W 8957  16.093  16.655   0.971
42527W        W 8958  31.368  33.951   1.514
42528W        W 8959  27.359  17.425  11.162
42529W        W 8960   0.830  22.373   0.779
42530W        W 8961  41.986  34.782  14.876
42531W        W 8962  40.468  10.948   4.755
42532W        W 8963  24.070  41.675   1.693
42533W        W 8964  15.895  17.526  12.527
42534W        W 8965   0.264  17.373   2.380
42535W        W 8966  40.409  38.569  12.476
42536W        W 8967  32.807  17.563  12.570
42537W        W 8968   9.143   2.577   3.577
42538W        W 8969  27.594  44.253  11.900
42539W        W 8970   6.460   2.692   2.678
42540W        W 8971  40.914  21.448   0.429
42541W        W 8972  36.060  29.890  13.369
42542W        W 8973  23.241  37.643   0.701
42543W        W 8974  33.565  29.121  12.383
42544W        W 8975  11.593  42.967  14.030
42545W        W 8976  29.820  31.113  10.695
42546W        W 8977  26.553  30.747  12.983
42547W        W 8978  40.776   5.393   3.194
42548W        W 8979   7.665  30.401  11.734
42549W        W 8980  29.455  10.902  13.126
42550W        W 8981  19.816  24.878  12.109
42551W        W 8982  38.441  35.076  13.892
42552W        W 8983  14.173  38.304   4.147
42553W        W 8984  21.954  31.655  13.471
42554W        W 8985  17.572  44.263  13.759
42555W        W 8986  29.466  35.962   2.679
42556W        W 8987  40.534  39.118   1.372
42557W        W 8988  16.714  43.781   3.653
42558W        W 8989  15.817  18.058   1.920
42559W        W 8990  36.980   6.672   2.867
42560W        W 8991  28.680  23.556   4.590
42561W        W 8992  22.037   6.857   2.817
42562W        W 8993  19.347  16.111   0.224
42563W        W 8994  31.383   8.827  12.536
42564W        W 8995   4.861  21.796   4.794
42565W        W 8996  17.182  27.268   3.138
42566W        W 8997  32.017   7.904   4.331
42567W        W 8998   4.426  31.582   0.906
42568W        W 8999  10.822  41.822   0.911
42569W        W 9000  23.754  36.318   4.313
42570W        W 9001  34.949  22.678   4.748
42571W        W 9002  32.553  12.332  13.511
42572W        W 9003  31.080  14.288  12.419
42573W        W 9004  39.163  35.618  11.995
42574W        W 9005  25.657  34.622  12.099
42575W        W 9006   0.417  37.433  12.459
42576W        W 9007  29.631  16.771   0.624
42577W        W 9008  31.989  18.971   3.623
42578W        W 9009   7.125  37.236  11.729
42579W        W 9010  20.495   3.695   2.898
42580W        W 9011  18.376  15.748   0.478
42581W        W 9012  26.431  28.448   2.149
42582W        W 9013  26.166  12.113   3.689
42583W        W 9014  16.193  33.047  14.810
42584W        W 9015   0.184  27.144   1.061
42585W        W 9016  12.206   5.732  14.236
42586W        W 9017  36.947  20.319  12.805
42587W        W 9018   7.756  28.171   2.760
42588W        W 9019  38.247  39.964  13.418
42589W        W 9020  41.130  38.145  14.381
42590W        W 9021   8.612   6.398   1.262
42591W        W 9022  14.582   1.488  10.751
42592W        W 9023  25.404   8.377   1.448
42593W        W 9024  37.853  32.834  12.938
42594W        W 9025  16.151  14.106  12.589
42595W        W 9026  34.052  40.894   4.016
42596W        W 9027  35.302  29.105  11.115
42597W        W 9028  37.312   3.458   1.711
42598W        W 9029   6.360  19.974  13.374
42599W        W 9030  44.486  23.129  11.554
42600W        W 9031  21.266  21.528   0.930
42601W        W 9032  20.987  39.937   3.702
42602W        W 9033   9.468  36.793  11.090
42603W        W 9034  36.833  20.999   1.127
42604W        W 9035  24.441  19.489  12.836
42605W        W 9036  29.691  37.004   3.313
42606W        W 9037   4.676  33.163   4.432
42607W        W 9038  12.973  16.228   1.341
42608W        W 9039  11.859   9.892   0.280
42609W        W 9040   3.857  39.715   2.313
42610W        W 9041   8.214  12.733   2.224
42611W        W 9042  29.997  21.748   0.027
42612W        W 9043   4.553  25.949   0.946
42613W        W 9044  11.285  31.956  13.548
42614W        W 9045  17.146  20.010   2.292
42615W        W 9046  31.844  32.377  11.068
42616W        W 9047  43.736   4.605   4.040
42617W        W 9048  34.482  32.863   3.737
42618W        W 9049  25.204   0.928   0.477
42619W        W 9050  31.969  34.158   2.939
42620W        W 9051  19.169  37.386  14.448
42621W        W 9052  18.736   3.749  11.103
42622W        W 9053   6.250  23.412  13.850
42623W        W 9054  36.640  29.129  14.807
42624W        W 9055   5.494  33.486  11.529
42625W        W 9056  40.055  26.424   2.999
42626W        W 9057  14.726  38.134  14.974
42627W        W 9058  32.263  16.254   3.346
42628W        W 9059  20.784  21.510   1.165
42629W        W 9060  14.726  24.274  13.088
42630W        W 9061  10.770  13.171  10.752
42631W        W 9062  17.051  42.819   4.560
42632W        W 9063   2.967  24.336   4.191
42633W        W 9064  27.969  11.837   1.985
42634W        W 9065  19.385   8.804   2.972
42635W        W 9066  34.489   0.365   0.873
42636W        W 9067  28.079   9.906  10.317
42637W        W 9068  28.173   7.125  12.838
42638W        W 9069  43.601  28.784  14.883
42639W        W 9070  28.532  23.023   1.572
42640W        W 9071  14.146   2.287   2.690
42641W        W 9072  37.928  16.390   3.173
42642W        W 9073  30.899  27.451   1.465
42643W        W 9074  16.330   9.748   1.715
42644W        W 9075   8.016  19.998  14.963
42645W        W 9076  32.488  27.626   2.583
42646W        W 9077  23.982  14.138  13.904
42647W        W 9078  26.568  42.135   3.039
42648W        W 9079  12.372  32.894   2.484
42649W        W 9080   5.503  26.006  13.054
42650W        W 9081  29.077  38.914   4.192
42651W        W 9082  31.985  22.512  10.718
42652W        W 9083  17.867   9.825   2.815
42653W        W 9084  42.987  14.349  11.147
42654W        W 9085   6.723  21.767  14.062
42655W        W 9086  42.783  23.546  10.928
42656W        W 9087  22.110   8.552  13.637
42657W        W 9088  27.137  40.470  13.467
42658W        W 9089  18.577  25.712  11.486
42659W        W 9090  34.392  30.924  11.813
42660W        W 9091  16.682  44.641  12.830
42661W        W 9092  15.776  38.879   4.534
42662W        W 9093  26.418   2.800   2.577
42663W        W 9094  32.548  15.102   0.729
42664W        W 9095  35.952  28.353   0.734
42665W        W 9096   8.690  32.857   1.744
42666W        W 9097  19.080  25.853   1.973
42667W        W 9098   9.162  33.019  10.959
42668W        W 9099  32.484  33.694  11.154
42669W        W 9100  11.829   3.786   4.899
42670W        W 9101  26.774  38.132   4.482
42671W        W 9102  10.284  11.417   0.189
42672W        W 9103  15.094  13.707  10.701
42673W        W 9104  28.440  11.409  12.495
42674W        W 9105  39.311  22.491  12.064
42675W        W 9106  37.626  26.477  13.424
42676W        W 9107  35.918  10.397  12.099
42677W        W 9108  17.093  12.233  14.361
42678W        W 9109  25.710  20.748  11.514
42679W        W 9110   9.854  33.373   2.308
42680W        W 9111  16.893  44.885  13.975
42681W        W 9112  25.989   5.851  11.684
42682W        W 9113  26.111  29.020   3.143
42683W        W 9114  20.997  21.138  10.624
42684W        W 9115  18.010  42.725   1.355
42685W        W 9116  44.479  39.610  11.187
42686W        W 9117  31.626  28.506   1.155
42687W        W 9118  34.571  22.028  14.492
42688W        W 9119  31.389  38.831   4.426
42689W        W 9120  14.743  24.562  10.725
42690W        W 9121  21.660  27.718  13.782
42691W        W 9122  30.022  30.321   4.579
42692W        W 9123  23.151  16.621  12.887
42693W        W 9124   8.317   6.805   0.713
42694W        W 9125  30.038  13.657  11.678
42695W        W 9126   5.264  37.886   3.179
42696W        W 9127  13.045   9.159   4.418
42697W        W 9128  14.718  10.254   2.816
42698W        W 9129   7.880  12.848  13.269
42699W        W 9130  42.046  36.362   1.379
42700W        W 9131   2.868  44.243  12.384
42701W        W 9132  21.491   6.935   4.477
42702W        W 9133  25.705   4.239  14.279
42703W        W 9134  27.847  10.284   1.254
42704W        W 9135  18.723  16.696   4.285
42705W        W 9136  30.006  25.929   3.325
42706W        W 9137  36.046   0.187  14.291
42707W        W 9138  29.868  23.286   3.745
42708W        W 9139   4.782   7.691   0.222
42709W        W 9140  36.555  19.789   0.688
42710W        W 9141   0.570  28.578   0.614
42711W        W 9142   4.555   3.912  14.094
42712W        W 9143  12.445  42.072  13.089
42713W        W 9144   5.658  26.564   2.623
42714W        W 9145  22.146  39.805  14.278
42715W        W 9146  44.308  40.772  13.833
42716W        W 9147   1.583  37.071   0.922
42717W        W 9148  24.559  36.100  13.478
42718W        W 9149   5.318   6.343  10.577
42719W        W 9150  12.843  34.390   3.685
42720W        W 9151   4.350  18.200   2.142
42721W        W 9152  33.167  38.200  11.483
42722W        W 9153  30.083  36.086  11.380
42723W        W 9154  24.741   6.309   0.435
42724W        W 9155  15.204  44.924   1.213
42725W        W 9156  11.741   7.671  12.076
42726W        W 9157  40.746  16.648   3.786
42727W        W 9158  18.522   1.977   0.896
42728W        W 9159  10.548  12.931  14.020
42729W        W 9160  27.524  26.481  12.547
42730W        W 9161  22.966  33.593  14.410
42731W        W 9162  15.216   0.381   4.333
42732W        W 9163  39.409   6.421  10.325
42733W        W 9164  37.547  34.341   3.587
42734W        W 9165  16.564   7.435   5.299
42735W        W 9166  21.787  42.653   4.659
42736W        W 9167  22.039  39.858   0.210
42737W        W 9168  44.724  33.190  11.063
42738W        W 9169  21.801  23.552   0.901
42739W        W 9170  41.429  42.487   3.863
42740W        W 9171  12.628  16.563  12.734
42741W        W 9172  43.031  30.280  13.217
42742W        W 9173  33.000  38.923  14.609
42743W        W 9174  41.606  36.811  13.500
42744W        W 9175  28.591  43.236  12.469
42745W        W 9176  38.144   8.083  13.438
42746W        W 9177  19.496   5.136   4.679
42747W        W 9178  42.871  42.982  12.973
42748W        W 9179  43.790   9.210  14.231
42749W        W 9180  29.051  21.732  11.873
42750W        W 9181  23.719  10.655   1.807
42751W        W 9182   6.200   3.462   0.260
42752W        W 9183   6.401  36.149  13.353
42753W        W 9184  13.347   7.220  14.412
42754W        W 9185  42.266  14.574   4.068
42755W        W 9186   2.274  27.361   2.772
42756W        W 9187  38.149  33.634  12.469
42757W        W 9188  33.450  20.220   4.350
42758W        W 9189  21.958  44.954  10.689
42759W        W 9190   5.826  12.756   3.858
42760W        W 9191  23.107  14.054   4.502
42761W        W 9192   6.873  36.281  13.552
42762W        W 9193  44.490   4.482   4.196
42763W        W 9194  18.748   9.768  10.322
42764W        W 9195  33.573   0.716   0.919
42765W        W 9196   0.788  25.202  13.851
42766W        W 9197  37.407   2.031   0.757
42767W        W 9198  32.436  37.655   0.999
42768W        W 9199  11.132  18.526   3.353
42769W        W 9200  14.310  44.093  13.774
42770W        W 9201  22.174   5.926   3.642
42771W        W 9202   8.243  10.291   0.947
42772W        W 9203  36.971   6.163  13.920
42773W        W 9204  12.345  11.803   4.370
42774W        W 9205  15.129  11.363  14.365
42775W        W 9206  22.099  34.355   0.479
42776W        W 9207  41.464  13.991  11.961
42777W        W 9208  21.341  33.040   1.835
42778W        W 9209  37.429   0.935  12.400
42779W        W 9210  25.741  11.801   1.946
42780W        W 9211  10.438  21.751  10.392
42781W        W 9212   5.228  21.528  11.498
42782W        W 9213  29.971  32.107   0.900
42783W        W 9214  44.163  37.545  13.809
42784W        W 9215  16.151  21.026   0.414
42785W        W 9216  16.169  25.493   4.493
42786W        W 9217  11.171   4.705  14.496
42787W        W 9218  31.205  17.514   3.343
42788W        W 9219  15.337   7.348  12.477
42789W        W 9220  34.047  31.014  11.096
42790W        W 9221   6.720  14.140   4.249
42791W        W 9222  12.660   7.367   1.371
42792W        W 9223  32.392  39.051   2.285
42793W        W 9224  24.148   1.973  13.344
42794W        W 9225   1.242  32.417   3.260
42795W        W 9226  21.745   4.460  12.081
42796W        W 9227  20.522  37.313  14.856
42797W        W 9228  33.649  11.471   3.599
42798W        W 9229  28.706   8.144  10.354
42799W        W 9230   5.858  21.396  14.514
42800W        W 9231  27.248  40.903  12.524
42801W        W 9232  19.079  28.004   4.493
42802W        W 9233  34.276  19.591  13.536
42803W        W 9234  31.977  17.728  14.252
42804W        W 9235  40.553  18.560  13.059
42805W        W 9236  14.687  22.614  14.264
42806W        W 9237  16.630  26.273   4.572
42807W        W 9238  34.006   4.672   0.908
42808W        W 9239  22.680  39.817  12.418
42809W        W 9240  18.715  28.347  10.841
42810W        W 9241   5.782  22.753   0.979
42811W        W 9242  32.333   7.897  11.507
42812W        W 9243  43.804  34.480   4.451
42813W        W 9244  40.790  30.592   3.293
42814W        W 9245  28.358  18.677  10.739
42815W        W 9246  38.861  38.480  14.506
42816W        W 9247  29.269  21.574   0.429
42817W        W 9248  31.395  17.115   0.278
42818W        W 9249  22.388  15.948   4.829
42819W        W 9250  10.153   4.761   4.719
42820W        W 9251  27.335  42.505   2.859
42821W        W 9252   0.132  41.911   3.147
42822W        W 9253  40.564  20.827   2.225
42823W        W 9254  22.089  43.261  13.366
42824W        W 9255  20.435  22.773  10.796
42825W        W 9256  33.123  10.440  12.548
42826W        W 9257  26.781  37.529  12.450
42827W        W 9258   1.650  39.497  14.458
42828W        W 9259  44.872  26.824  12.078
42829W        W 9260  26.237  18.171  13.353
42830W        W 9261  43.096   6.237  13.353
42831W        W 9262  37.661  26.969   2.387
42832W        W 9263  12.892  34.614   0.715
42833W        W 9264  27.899  10.100   2.217
42834W        W 9265  25.520  31.523   1.428
42835W        W 9266  36.012   8.655   2.872
42836W        W 9267  33.034  14.824   3.628
42837W        W 9268  32.955   5.363   2.675
42838W        W 9269  29.688  13.768   0.649
42839W        W 9270  42.940   8.116  11.915
42840W        W 9271   4.677   3.052  12.410
42841W        W 9272  43.642   9.230   1.553
42842W        W 9273  28.264  43.249  14.438
42843W        W 9274  30.238   8.097   1.730
42844W        W 9275  18.200  28.482   4.631
42845W        W 9276  24.200  34.162  10.539
42846W        W 9277  29.526   1.587   2.827
42847W        W 9278  34.342  31.552  14.937
42848W        W 9279  43.295  14.339  12.369
42849W        W 9280  13.544  28.350   4.245
42850W        W 9281   7.110   1.308   4.597
42851W        W 9282  42.123  19.198   1.875
42852W        W 9283  35.222  37.623  10.357
42853W        W 9284  23.253   9.325  11.252
42854W        W 9285  14.388   0.556  11.017
42855W        W 9286  25.450   3.314  13.960
42856W        W 9287  36.631  25.791  12.107
42857W        W 9288   3.910  12.245  14.932
42858W        W 9289  32.223  10.310  14.137
42859W        W 9290   0.026   9.248   2.673
42860W        W 9291  18.049  13.240  14.468
42861W        W 9292  15.677   7.418   2.389
42862W        W 9293   0.630   7.978   2.972
42863W        W 9294  11.695  41.440  14.154
42864W        W 9295  25.961   4.355  12.123
42865W        W 9296  35.936  13.372   4.181
42866W        W 9297  16.178  34.049  11.874
42867W        W 9298  13.974  15.916  11.821
42868W        W 9299  32.457  39.510   0.678
42869W        W 9300  43.730  27.534   2.280
42870W        W 9301  14.855   0.340  11.034
42871W        W 9302   9.273  34.861  12.530
42872W        W 9303  14.283   4.561  11.958
42873W        W 9304  43.109  18.305  10.642
42874W        W 9305  23.280  22.245  11.678
42875W        W 9306   7.571  22.835   5.020
42876W        W 9307   1.312   7.588   4.587
42877W        W 9308   3.217  30.573  14.361
42878W        W 9309  22.041   2.458  12.503
42879W        W 9310  25.981  20.561  12.874
42880W        W 9311  26.082  24.707  10.789
42881W        W 9312  27.803  39.432  12.874
42882W        W 9313  40.653   4.638  13.400
42883W        W 9314  18.334  20.080   4.638
42884W        W 9315  31.545  19.300  12.579
42885W        W 9316  28.284   4.385   4.683
42886W        W 9317  38.098  19.197  11.968
42887W        W 9318  32.616  37.071  11.150
42888W        W 9319  43.082  43.439   4.148
42889W        W 9320  30.862  25.709   3.735
42890W        W 9321  23.348  37.539   2.318
42891W        W 9322  23.593  10.812   4.250
42892W        W 9323   4.737  27.228   0.287
42893W        W 9324   7.784  18.062  13.920
42894W        W 9325  22.583  12.386   1.093
42895W        W 9326  21.879  36.500   4.492
42896W        W 9327   0.711  21.348  12.890
42897W        W 9328  18.840   1.497  14.426
42898W        W 9329  25.169  10.172  12.974
42899W        W 9330   4.486   4.278   4.493
42900W        W 9331  12.623  42.392   0.407
42901W        W 9332  10.946  43.708  11.048
42902W        W 9333  22.748  18.343   0.266
42903W        W 9334  12.137  35.282  11.101
42904W        W 9335  14.145  12.594   4.024
42905W        W 9336  29.707  18.583  13.460
42906W        W 9337  13.708  38.753  11.264
42907W        W 9338   0.332  17.601   4.170
42908W        W 9339   5.164  14.899  13.477
42909W        W 9340   3.027  18.567   4.901
42910W        W 9341   2.420  20.167  12.546
42911W        W 9342  20.266  11.991  11.449
42912W        W 9343  32.003  43.004   1.597
42913W        W 9344   1.403  26.251  12.688
42914W        W 9345   9.817   6.119  12.458
42915W        W 9346  43.714   8.698   1.532
42916W        W 9347  26.929   2.518  10.604
42917W        W 9348   2.300  37.939  14.331
42918W        W 9349  29.091  17.995  14.144
42919W        W 9350   2.422  42.633  11.780
42920W        W 9351  32.477   8.957  14.888
42921W        W 9352   4.507  11.694  11.117
42922W        W 9353  12.272  16.263  10.576
42923W        W 9354   9.866  20.655   0.664
42924W        W 9355  14.959  29.012  13.983
42925W        W 9356  32.475  29.945  12.682
42926W        W 9357   2.423  20.553   1.853
42927W        W 9358  15.618  12.708  12.490
42928W        W 9359  26.457   5.840  11.440
42929W        W 9360  27.586   7.978  10.743
42930W        W 9361  11.265   8.895   1.645
42931W        W 9362  29.273  33.633   1.361
42932W        W 9363  26.210   6.461   3.400
42933W        W 9364   7.714  31.177  14.790
42934W        W 9365  10.830  35.492   3.361
42935W        W 9366  26.205  26.544   4.794
42936W        W 9367  31.054  16.116   4.552
42937W        W 9368  25.586  22.325  10.559
42938W        W 9369   8.840   5.021  14.515
42939W        W 9370  10.544  10.121   4.225
42940W        W 9371  26.897  31.269   2.386
42941W        W 9372   4.658   4.513  13.794
42942W        W 9373  12.676  14.926  14.656
42943W        W 9374  41.993  22.299  11.502
42944W        W 9375   3.639  37.348  12.787
42945W        W 9376  36.130  35.589  13.823
42946W        W 9377   5.225   8.061  11.577
42947W        W 9378  44.438   0.930  10.672
42948W        W 9379  28.097   5.887   1.411
42949W        W 9380  32.174  22.144  12.539
42950W        W 9381  10.103  31.444  12.407
42951W        W 9382  13.979   2.894   1.236
42952W        W 9383  42.242  32.671  13.239
42953W        W 9384  41.160   3.427   1.861
42954W        W 9385  22.001  21.961   1.553
42955W        W 9386  13.239   6.181  11.206
42956W        W 9387  20.262  18.662  13.751
42957W        W 9388  42.167  36.540   2.857
42958W        W 9389  34.181   9.854  12.066
42959W        W 9390  30.317  15.124   0.900
42960W        W 9391  31.022   9.367   2.256
42961W        W 9392  23.316  35.647   2.422
42962W        W 9393   2.366  39.104   0.532
42963W        W 9394   9.367  41.249   1.764
42964W        W 9395  42.780  14.398  13.477
42965W        W 9396  38.525  42.872  13.734
42966W        W 9397  31.156  39.269  12.997
42967W        W 9398  37.068   2.913   3.846
42968W        W 9399   9.430  25.183  11.577
42969W        W 9400  10.191  44.024   1.907
42970W        W 9401  22.983  30.432  14.998
42971W        W 9402  25.578  24.263  13.332
42972W        W 9403  29.441  10.264   0.856
42973W        W 9404  33.024  35.629  12.037
42974W        W 9405  15.409   9.974  10.339
42975W        W 9406  17.854  14.521  12.969
42976W        W 9407  19.995  11.718  11.854
42977W        W 9408  42.069  20.061  13.372
42978W        W 9409  20.354  44.236  14.232
42979W        W 9410  31.568  16.646   3.844
42980W        W 9411   3.904  14.319   0.360
42981W        W 9412  17.661  24.368   4.971
42982W        W 9413  19.025   7.774   0.927
42983W        W 9414   5.040  25.181  14.374
42984W        W 9415  43.541  39.751  10.720
42985W        W 9416  16.950   0.203   3.684
42986W        W 9417  23.143  23.581   3.684
42987W        W 9418  29.149  14.281   2.254
42988W        W 9419  19.746   9.880   4.232
42989W        W 9420  32.767  31.880   2.868
42990W        W 9421  44.548   4.750  11.610
42991W        W 9422  40.332  16.724   3.486
42992W        W 9423  13.131  43.756   1.701
42993W        W 9424  43.508  35.497  12.520
42994W        W 9425  36.864   7.657   2.883
42995W        W 9426  10.425  15.598   0.685
42996W        W 9427  26.466   2.993  11.001
42997W        W 9428   0.905  30.731  10.812
42998W        W 9429   1.348   4.829   1.962
42999W        W 9430  27.617  33.484   1.287
43000W        W 9431  34.622  40.788  14.353
43001W        W 9432   1.162  20.349  12.339
43002W        W 9433  44.315   7.265   2.452
43003W        W 9434  13.091   3.485   3.252
43004W        W 9435  32.007  15.174  13.433
43005W        W 9436  32.381  41.322   1.943
43006W        W 9437  35.776  11.168  13.151
43007W        W 9438  33.159  16.322  12.657
43008W        W 9439  21.866  15.173   1.144
43009W        W 9440  40.318  19.678  14.415
43010W        W 9441  40.419  23.505   1.835
43011W        W 9442  28.838  33.490   3.719
43012W        W 9443  11.681  20.807   2.807
43013W        W 9444   4.633  16.108   2.304
43014W        W 9445   0.010  11.290  14.276
43015W        W 9446  33.103  35.899  12.516
43016W        W 9447   4.425  44.293  13.856
43017W        W 9448  17.598   4.398   2.412
43018W        W 9449  25.226  20.848  11.633
43019W        W 9450  24.625  14.480  14.806
43020W        W 9451  21.992   3.674  13.026
43021W        W 9452  38.607  23.363   4.968
43022W        W 9453  39.453   4.875  10.437
43023W        W 9454   4.840  15.671  14.559
43024W        W 9455   4.089  12.470   2.209
43025W        W 9456   3.745  38.875   3.792
43026W        W 9457  20.621  32.117  10.372
43027W        W 9458  38.536  38.466   2.703
43028W        W 9459  31.159   6.210  13.507
43029W        W 9460   4.590  10.297   0.433
43030W        W 9461  19.226  38.707  11.612
43031W        W 9462  19.313  29.092  13.473
43032W        W 9463  38.088  21.912  12.473
43033W        W 9464   8.735  40.771   1.341
43034W        W 9465  25.351  19.544  14.880
43035W        W 9466  26.144  24.044   1.374
43036W        W 9467   1.147  21.186  14.550
43037W        W 9468  34.797  41.465  10.487
43038W        W 9469  19.559  43.211  13.803
43039W        W 9470  43.887  32.034  11.462
43040W        W 9471  37.085  37.040  12.040
43041W        W 9472   1.386  15.023   2.594
43042W        W 9473   4.032  40.442  13.255
43043W        W 9474  44.417  13.580  14.458
43044W        W 9475  27.177  23.208   2.318
43045W        W 9476  13.642  22.512  13.368
43046W        W 9477  25.497  28.513  11.513
43047W        W 9478  27.197   7.971  14.068
43048W        W 9479   3.954  21.039  10.085
43049W        W 9480  33.562   4.391   4.646
43050W        W 9481  36.105  27.207  12.160
43051W        W 9482   2.468  22.564   3.981
43052W        W 9483   6.354  37.467   3.165
43053W        W 9484  28.056  39.778  14.425
43054W        W 9485  39.778  18.742  11.707
43055W        W 9486  24.343  14.328  13.390
43056W        W 9487  31.578  11.599  11.015
43057W        W 9488  41.649  14.537   0.002
43058W        W 9489  44.287   4.844   1.439
43059W        W 9490   2.934  10.115  11.127
43060W        W 9491  14.242  11.093   1.337
43061W        W 9492  16.410  30.876  13.551
43062W        W 9493  10.306  33.929  11.255
43063W        W 9494  10.001  35.406   1.245
43064W        W 9495  26.291  42.392   4.652
43065W        W 9496  22.216  23.176   4.517
43066W        W 9497  17.738  38.588  12.256
43067W        W 9498  33.830  31.477  14.914
43068W        W 9499  37.208  26.399   3.180
43069W        W 9500   4.447  33.573  10.901
43070W        W 9501  19.907   2.383  14.804
43071W        W 9502  22.066  28.672  11.176
43072W        W 9503  30.005  36.108  10.628
43073W        W 9504  33.287  40.764  12.601
43074W        W 9505  26.415  41.626   2.998
43075W        W 9506   2.929   2.504   0.037
43076W        W 9507  22.522  37.372   1.880
43077W        W 9508  35.912  18.454   2.820
43078W        W 9509   7.395  37.503  10.509
43079W        W 9510  41.795  35.810   3.993
43080W        W 9511   4.880  14.005  13.120
43081W        W 9512   4.894  27.989   1.794
43082W        W 9513  42.841   8.993  12.498
43083W        W 9514  18.160   6.770  13.049
43084W        W 9515  22.528  14.645   0.496
43085W        W 9516  35.951  26.923   3.756
43086W        W 9517   9.155  43.428  13.900
43087W        W 9518  31.452  13.079  11.271
43088W        W 9519  30.001   7.185  14.745
43089W        W 9520  13.205  37.434  11.583
43090W        W 9521  41.469   2.913   1.229
43091W        W 9522  36.815   0.885  13.047
43092W        W 9523  13.740  24.652  14.783
43093W        W 9524  41.855   9.856   3.707
43094W        W 9525  11.709  40.061   0.170
43095W        W 9526  24.533  25.553  14.468
43096W        W 9527   9.503  30.529  13.116
43097W        W 9528  10.771  43.974  12.351
43098W        W 9529   9.464  10.915   2.842
43099W        W 9530  10.774   6.175   4.088
43100W        W 9531  28.141  31.312   0.689
43101W        W 9532   0.591   1.753   1.807
43102W        W 9533  35.328  28.621   2.397
43103W        W 9534  36.862  28.886   0.445
43104W        W 9535  32.927  22.658   4.319
43105W        W 9536   7.138  30.615  13.514
43106W        W 9537  29.591  16.080  11.216
43107W        W 9538  39.673   7.713   1.751
43108W        W 9539  15.185  26.618  14.505
43109W        W 9540  36.059   7.268   4.568
43110W        W 9541   4.793   4.647  10.965
43111W        W 9542  44.105  11.225  12.028
43112W        W 9543   9.183  34.262   3.118
43113W        W 9544  27.141  12.254   4.531
43114W        W 9545  40.937  42.070   0.606
43115W        W 9546  26.992  25.550   0.625
43116W        W 9547   0.303  30.400   3.823
43117W        W 9548  21.143  43.824   3.106
43118W        W 9549  12.529  19.480   2.638
43119W        W 9550  15.648  42.108   3.597
43120W        W 9551  36.866   9.514  13.430
43121W        W 9552  38.986  10.862  13.079
43122W        W 9553  10.848  20.702   4.674
43123W        W 9554  41.330  28.134   1.837
43124W        W 9555  39.765   8.701  10.746
43125W        W 9556  10.241   1.349   2.239
43126W        W 9557   1.918  11.372  12.561
43127W        W 9558  38.846   0.090   0.894
43128W        W 9559   0.883  41.955  14.778
43129W        W 9560   2.003   0.921   0.448
43130W        W 9561   4.408  27.840  13.297
43131W        W 9562   9.042  28.523  13.327
43132W        W 9563  44.238   3.013  11.224
43133W        W 9564  10.272  40.572   1.874
43134W        W 9565  32.845   4.166   1.335
43135W        W 9566  36.412  12.381  13.341
43136W        W 9567  43.103  16.619   3.198
43137W        W 9568  17.931  15.866  11.062
43138W        W 9569  44.226   4.284  12.524
43139W        W 9570  21.151  41.200  14.595
43140W        W 9571  32.639  24.000   1.698
43141W        W 9572   1.329   3.414   2.789
43142W        W 9573  41.579  10.943  13.471
43143W        W 9574   9.900  32.449  13.504
43144W        W 9575  32.497  40.250  12.030
43145W        W 9576   6.309   9.357   2.547
43146W        W 9577  30.581  43.762  13.148
43147W        W 9578   8.432   6.859   0.220
43148W        W 9579  35.156  13.091   0.323
43149W        W 9580  42.751  35.954   3.182
43150W        W 9581  39.107  16.696   0.276
43151W        W 9582  20.046  32.031   3.751
43152W        W 9583  19.058   7.310  11.980
43153W        W 9584   8.446   7.346   2.726
43154W        W 9585   3.808   3.973  12.597
43155W        W 9586  38.238   8.689   1.520
43156W        W 9587  40.951   9.886   1.412
43157W        W 9588   9.832  35.690  13.978
43158W        W 9589  13.900  32.550  12.043
43159W        W 9590  39.976  30.057   5.166
43160W        W 9591   7.694  14.153  11.608
43161W        W 9592  38.755  37.262   1.811
43162W        W 9593   1.735  42.305  10.597
43163W        W 9594  12.429  44.531  13.896
43164W        W 9595  22.849  10.041  12.994
43165W        W 9596   4.600  37.974   4.921
43166W        W 9597  44.225   6.449   0.290
43167W        W 9598   7.347  23.250   4.813
43168W        W 9599   4.621  36.443   1.147
43169W        W 9600  13.107  26.314  11.520
43170W        W 9601   7.270  27.919  14.707
43171W        W 9602   1.266  27.059  11.280
43172W        W 9603  34.284   3.807  14.503
43173W        W 9604  34.012  37.327   1.471
43174W        W 9605  32.633  38.967  11.454
43175W        W 9606  33.641  31.950   3.150
43176W        W 9607  10.145  36.037   3.604
43177W        W 9608   7.780  16.061   2.718
43178W        W 9609   2.219  38.974  11.979
43179W        W 9610  12.655  25.844  12.380
43180W        W 9611   3.219  10.848  13.045
43181W        W 9612  36.351  15.201   0.723
43182W        W 9613  11.755  15.976   3.530
43183W        W 9614  41.453  21.709  13.293
43184W        W 9615  35.032   4.808   0.969
43185W        W 9616  38.063  34.899   2.585
43186W        W 9617  31.939  28.121  12.873
43187W        W 9618  16.775  36.088   0.098
43188W        W 9619  10.262   0.853  13.346
43189W        W 9620   3.625  26.938   4.096
43190W        W 9621  15.269   3.190  11.695
43191W        W 9622  27.379  23.996  10.390
43192W        W 9623   9.578  37.112  12.166
43193W        W 9624  36.030  18.610  10.764
43194W        W 9625   0.243  33.403   1.926
43195W        W 9626  41.393  10.363  12.065
43196W        W 9627   0.572  22.776  13.346
43197W        W 9628  42.854  40.339   0.265
43198W        W 9629   0.218  21.249   1.376
43199W        W 9630   3.403  32.899  11.083
43200W        W 9631  38.943  27.503  14.695
43201W        W 9632   3.611   8.699  12.481
43202W        W 9633  36.997  26.175  12.098
43203W        W 9634  16.897  32.598  12.952
43204W        W 9635  28.312   3.888   0.790
43205W        W 9636  34.341  40.558  14.733
43206W        W 9637  36.453  12.356   3.110
43207W        W 9638  16.201  13.822   0.806
43208W        W 9639  21.629  35.258   4.037
43209W        W 9640  19.723  39.624   0.746
43210W        W 9641  21.006  29.753  14.940
43211W        W 9642   8.435  18.073   0.364
43212W        W 9643   6.160  34.522  14.441
43213W        W 9644  24.960  10.661  10.763
43214W        W 9645  20.181  14.927  12.575
43215W        W 9646  34.387   1.409   1.759
43216W        W 9647  41.725  25.719   2.510
43217W        W 9648  37.775   9.367  13.960
43218W        W 9649  38.755  13.935  12.832
43219W        W 9650  14.486  38.254   3.739
43220W        W 9651  40.066  44.614  13.059
43221W        W 9652   9.621  19.835  11.327
43222W        W 9653   5.041  30.151  11.192
43223W        W 9654  31.619  36.104   0.781
43224W        W 9655  41.880   7.701   2.189
43225W        W 9656   7.507  36.431  12.976
43226W        W 9657  23.445  40.296   2.380
43227W        W 9658  25.208  23.679   2.775
43228W        W 9659  28.467   4.608   9.821
43229W        W 9660  35.629  25.302  10.730
43230W        W 9661  20.727   1.597   1.799
43231W        W 9662   4.384  43.526   3.895
43232W        W 9663  20.605  14.596  12.475
43233W        W 9664   7.948  20.044  11.989
43234W        W 9665  36.819  17.690  14.932
43235W        W 9666  15.583  24.187   3.607
43236W        W 9667   3.970   9.647  11.587
43237W        W 9668  44.415  42.272  14.802
43238W        W 9669   2.153  37.156  14.819
43239W        W 9670  31.370   1.157  11.271
43240W        W 9671  35.791  36.384  10.700
43241W        W 9672  33.548  19.082   1.263
43242W        W 9673   4.228  30.176  12.642
43243W        W 9674  12.680  11.572  12.898
43244W        W 9675  17.130  21.980   3.352
43245W        W 9676  16.690  37.126   1.502
43246W        W 9677  26.129  17.317  10.680
43247W        W 9678  28.542   9.075   3.814
43248W        W 9679  26.059  13.092   0.853
43249W        W 9680   4.444  35.846   2.756
43250W        W 9681  20.928   9.126   1.016
43251W        W 9682  30.804   7.905   0.301
43252W        W 9683   2.816  39.305  11.602
43253W        W 9684  10.263  30.076  10.992
43254W        W 9685   6.485  34.181  11.823
43255W        W 9686  15.189  44.750   3.096
43256W        W 9687  38.483   3.953  11.985
43257W        W 9688  15.694  41.948   2.203
43258W        W 9689  24.771  20.246   2.742
43259W        W 9690   0.822  44.964  13.408
43260W        W 9691  11.732  27.641  11.580
43261W        W 9692  16.622   9.910  11.664
43262W        W 9693  28.523  12.289   0.455
43263W        W 9694   8.180   6.427  11.809
43264W        W 9695  15.331   5.926   4.466
43265W        W 9696  35.800  38.457  10.220
43266W        W 9697  20.550  30.687  11.218
43267W        W 9698   4.822  17.079  11.397
43268W        W 9699  32.140  10.917   1.446
43269W        W 9700   0.104  25.052  11.656
43270W        W 9701  30.137  22.796   1.510
43271W        W 9702  15.690   3.213   3.711
43272W        W 9703  41.007   2.369  11.627
43273W        W 9704  35.480  40.433  13.819
43274W        W 9705   1.347  44.351   4.320
43275W        W 9706  23.546   3.421  11.538
43276W        W 9707  28.635  24.939  12.933
43277W        W 9708   6.545  13.297  12.420
43278W        W 9709  42.808   8.441   3.289
43279W        W 9710  13.647  43.234  11.178
43280W        W 9711  30.991  24.276   1.737
43281W        W 9712   1.244   8.946  11.509
43282W        W 9713  29.263  26.218  11.940
43283W        W 9714  37.663  35.520  13.799
43284W        W 9715  36.591  32.902   0.953
43285W        W 9716  36.379  41.216  11.647
43286W        W 9717  23.753   4.481   2.179
43287W        W 9718  37.675  41.969   4.547
43288W        W 9719  12.989  40.932  11.105
43289W        W 9720  28.088   7.825   1.052
43290W        W 9721  33.882  41.066  14.882
43291W        W 9722  28.074  31.877  12.371
43292W        W 9723  26.842   3.473  11.623
43293W        W 9724   3.376  21.319  12.866
43294W        W 9725  29.416  25.858   1.667
43295W        W 9726   2.388  26.955   3.269
43296W        W 9727  39.406  20.207  11.771
43297W        W 9728  22.349  32.218   3.410
43298W        W 9729  40.964  16.277   4.602
43299W        W 9730  20.370  25.419  14.029
43300W        W 9731  40.013  35.128  12.078
43301W        W 9732  39.392  12.145  12.067
43302W        W 9733  29.302   1.302   4.580
43303W        W 9734  11.524  30.074   2.705
43304W        W 9735  42.773  12.868  14.944
43305W        W 9736  34.560  44.182   4.867
43306W        W 9737   1.319  14.878  13.415
43307W        W 9738  21.166  31.168  11.955
43308W        W 9739   9.792   9.636  13.434
43309W        W 9740  19.705  28.454   2.302
43310W        W 9741   3.011  33.410   0.587
43311W        W 9742  36.882  26.975  14.277
43312W        W 9743  27.167  18.320   4.665
43313W        W 9744  41.181  29.109  12.340
43314W        W 9745  11.163  44.472   4.286
43315W        W 9746  34.573   9.551   3.331
43316W        W 9747  34.671  17.077  12.594
43317W        W 9748  17.736  37.118   0.285
43318W        W 9749   9.923  20.793  11.647
43319W        W 9750  40.570  30.663  10.727
43320W        W 9751  29.471  30.554  13.055
43321W        W 9752  28.372  22.741  11.626
43322W        W 9753   1.411  35.895   3.223
43323W        W 9754  15.174  23.398  11.493
43324W        W 9755  35.420  11.776   2.727
43325W        W 9756   1.034  38.293   2.099
43326W        W 9757   1.411  17.565  14.828
43327W        W 9758  10.836  32.274  13.590
43328W        W 9759  27.628  41.622   2.858
43329W        W 9760  22.488  14.904   0.971
43330W        W 9761   2.076   2.037   2.323
43331W        W 9762  14.136  37.477   0.534
43332W        W 9763  27.080  19.086   1.951
43333W        W 9764  32.954   1.285   0.441
43334W        W 9765   9.739  24.235   3.233
43335W        W 9766  19.721   9.650  13.770
43336W        W 9767  10.168  41.956   0.748
43337W        W 9768  21.068  17.826  14.890
43338W        W 9769  13.746  20.552   4.627
43339W        W 9770  36.738  29.586  12.558
43340W        W 9771  26.435  39.008  10.786
43341W        W 9772  31.037  28.911  13.953
43342W        W 9773  42.470   2.721  11.136
43343W        W 9774  42.385  38.106   0.871
43344W        W 9775  32.565  35.102  13.929
43345W        W 9776  10.290   2.491   0.277
43346W        W 9777  35.972  34.500   4.032
43347W        W 9778   2.568  19.621   0.878
43348W        W 9779  17.622  11.706  12.564
43349W        W 9780  17.326  40.936  13.043
43350W        W 9781  40.368   8.596   0.367
43351W        W 9782  25.088  34.766  12.444
43352W        W 9783  18.957  25.343   1.887
43353W        W 9784   7.177   5.586  12.953
43354W        W 9785  14.352  39.600   1.378
43355W        W 9786  24.902  30.054   1.675
43356W        W 9787  14.018  35.593   4.034
43357W        W 9788   8.469  15.374  12.063
43358W        W 9789  25.564  26.913   2.685
43359W        W 9790  30.976   4.443  11.205
43360W        W 9791  39.441  23.501   4.902
43361W        W 9792  16.997  26.775  12.892
43362W        W 9793  19.738  40.791  13.272
43363W        W 9794   6.989   2.185   3.296
43364W        W 9795  10.730  12.681  11.961
43365W        W 9796  38.240  43.032  14.766
43366W        W 9797   8.761   7.798  11.211
43367W        W 9798   0.291  10.324  10.661
43368W        W 9799   7.511  43.535   4.082
43369W        W 9800   4.011  15.937  10.809
43370W        W 9801  43.973   6.451   3.698
43371W        W 9802  22.397   2.812   4.473
43372W        W 9803  42.774  31.657  11.977
43373W        W 9804   2.990  18.850   0.984
43374W        W 9805  29.290  44.510   3.568
43375W        W 9806   9.238  31.186   0.270
43376W        W 9807  32.605   4.252  12.832
43377W        W 9808   0.808  33.963   3.744
43378W        W 9809  38.066  10.697  13.799
43379W        W 9810   5.212  32.377  13.427
43380W        W 9811  10.184  13.428   3.130
43381W        W 9812  19.687  36.716   4.990
43382W        W 9813   0.188  28.767   2.861
43383W        W 9814  11.796  22.889   2.816
43384W        W 9815  31.676  40.689   3.365
43385W        W 9816   4.719   8.026  12.466
43386W        W 9817  23.994   0.710   2.180
43387W        W 9818   2.111  21.646   3.152
43388W        W 9819  38.372  44.751  11.478
43389W        W 9820   9.576   2.612  11.088
43390W        W 9821  19.806  12.436  13.147
43391W        W 9822   0.523   6.805   2.816
43392W        W 9823  30.711  33.973  14.390
43393W        W 9824   0.937   8.262   0.411
43394W        W 9825  31.721   8.456  14.879
43395W        W 9826   0.637  43.819  10.707
43396W        W 9827  25.739  22.161   4.196
43397W        W 9828  12.209  36.419   2.151
43398W        W 9829  20.034  30.980   3.716
43399W        W 9830  33.162   0.949  12.980
43400W        W 9831  30.087  30.612   1.185
43401W        W 9832  16.280  35.987   3.311
43402W        W 9833   1.409  28.563   4.189
43403W        W 9834  11.108  39.740  11.066
43404W        W 9835  39.088  27.917  13.322
43405W        W 9836  32.952  32.695  14.823
43406W        W 9837  21.393  33.488  12.743
43407W        W 9838  26.516  27.773   1.810
43408W        W 9839  27.345  14.206   3.760
43409W        W 9840   4.787  13.457   4.651
43410W        W 9841  25.017  30.893   0.748
43411W        W 9842  35.397  16.143   0.370
43412W        W 9843  40.783  36.315   2.546
43413W        W 9844   5.797  21.016  13.965
43414W        W 9845  33.025  29.577  13.889
43415W        W 9846  25.169   7.455   2.395
43416W        W 9847   0.729  23.662   3.254
43417W        W 9848  24.671  35.349   2.630
43418W        W 9849  44.494  24.253   4.272
43419W        W 9850  43.263  40.048  11.828
43420W        W 9851  39.579   5.372  13.581
43421W        W 9852   2.036  26.066  14.230
43422W        W 9853  14.988  13.810   1.293
43423W        W 9854  15.849  21.550  12.377
43424W        W 9855   6.149  22.463   1.799
43425W        W 9856  10.328  33.088   0.774
43426W        W 9857  34.881   8.140  13.456
43427W        W 9858  23.704  39.386  13.404
43428W        W 9859  44.975  22.973  11.653
43429W        W 9860   3.686  17.205   0.423
43430W        W 9861  26.486  43.557   2.910
43431W        W 9862   9.593  30.630   2.673
43432W        W 9863  43.642  36.540  11.594
43433W        W 9864   6.987  12.258   2.194
43434W        W 9865  24.969  32.782   3.730
43435W        W 9866  23.292  29.048  11.023
43436W        W 9867  12.767  36.895   1.336
43437W        W 9868  27.449  12.110  14.623
43438W        W 9869  21.629  28.091   3.077
43439W        W 9870  13.062   2.500  11.860
43440W        W 9871   2.722  25.624  10.907
43441W        W 9872  39.566   7.388   3.957
43442W        W 9873   7.098  33.093   2.197
43443W        W 9874  33.166  23.623   1.390
43444W        W 9875  14.263  22.214  10.509
43445W        W 9876  12.378  13.255  11.168
43446W        W 9877  30.557  37.597   2.704
43447W        W 9878  17.562   0.372  13.022
43448W        W 9879   4.222  37.057  13.389
43449W        W 9880   3.446   6.526   0.274
43450W        W 9881   2.986  43.101  12.961
43451W        W 9882  28.849  37.200  12.170
43452W        W 9883  27.233  34.057   1.788
43453W        W 9884   3.231   7.524  10.606
43454W        W 9885   5.688  14.735  13.494
43455W        W 9886  19.602  17.290   3.288
43456W        W 9887  11.442  35.097  12.510
43457W        W 9888  19.907  17.446   2.316
43458W        W 9889  27.458   4.837   0.226
43459W        W 9890  30.489  16.726  14.000
43460W        W 9891  35.899  19.209   1.716
43461W        W 9892  39.026   0.867  10.586
43462W        W 9893  22.524  24.912  12.413
43463W        W 9894  18.652  30.487  11.217
43464W        W 9895  34.970   3.829  13.493
43465W        W 9896  44.342  35.569  12.951
43466W        W 9897  38.808  12.545   3.518
43467W        W 9898  43.713  35.704  14.508
43468W        W 9899  43.690  31.517  12.050
43469W        W 9900  29.465   6.632  11.852
43470W        W 9901  21.223  15.180   1.863
43471W        W 9902  36.307  12.873  12.624
43472W        W 9903  15.133   2.314  10.174
43473W        W 9904  21.469  16.690  11.777
43474W        W 9905   1.741  32.605   0.877
43475W        W 9906  23.700  36.923  12.117
43476W        W 9907  34.328  44.439  11.975
43477W        W 9908  35.601   4.675  12.606
43478W        W 9909  26.190  41.816   4.787
43479W        W 9910  41.472  44.914   2.360
43480W        W 9911  15.388  29.940   4.881
43481W        W 9912   0.554  20.243   3.364
43482W        W 9913  23.900  14.406  11.963
43483W        W 9914  30.978  10.227   4.688
43484W        W 9915  23.486   4.972   3.966
43485W        W 9916  21.559  14.315   4.696
43486W        W 9917  27.406  12.561  14.858
43487W        W 9918   4.210  31.008   1.692
43488W        W 9919  32.568  34.536  10.494
43489W        W 9920  43.402   6.767   2.255
43490W        W 9921  27.747  29.094   5.040
43491W        W 9922  42.365   0.071   0.150
43492W        W 9923  16.682   2.220   1.278
43493W        W 9924  24.329  13.595  12.229
43494W        W 9925  38.866  25.049   4.136
43495W        W 9926  18.621  13.784   3.823
43496W        W 9927  33.170  23.528   4.884
43497W        W 9928  35.063  37.858   1.310
43498W        W 9929  31.604  19.563   1.374
43499W        W 9930   5.752  38.321  13.136
43500W        W 9931  27.222  44.781  13.028
43501W        W 9932   1.728  24.474   1.666
43502W        W 9933  34.776  15.069   0.541
43503W        W 9934  25.986   2.600   1.769
43504W        W 9935   0.423  12.426   0.362
43505W        W 9936  25.255   1.456   0.330
43506W        W 9937  22.557  16.145   1.680
43507W        W 9938   6.069  40.016   3.754
43508W        W 9939  43.433  18.154   0.246
43509W        W 9940   1.976  29.569   1.829
43510W        W 9941   1.205  13.784  13.578
43511W        W 9942  40.285   7.964  11.182
43512W        W 9943  21.240   9.603  14.281
43513W        W 9944  21.880  38.848  13.379
43514W        W 9945  19.260  12.906  11.125
43515W        W 9946  34.636  20.984  11.260
43516W        W 9947   1.348   7.278   0.236
43517W        W 9948  10.595  17.823  13.023
43518W        W 9949   8.754  26.437  13.115
43519W        W 9950  38.163  23.462   4.648
43520W        W 9951   5.527  37.389  10.927
43521W        W 9952  23.485  43.516   0.146
43522W        W 9953  21.419  19.705  14.244
43523W        W 9954  28.605  34.861   9.892
43524W        W 9955  41.685   0.430  12.570
43525W        W 9956  28.987  32.137  14.962
43526W        W 9957  10.754  35.589   2.418
43527W        W 9958   1.384  10.951   3.220
43528W        W 9959  34.791  20.163   3.767
43529W        W 9960  20.838  36.328  14.889
43530W        W 9961  40.868  14.763   1.426
43531W        W 9962  13.155  21.709   4.616
43532W        W 9963  20.803  26.200  10.508
43533W        W 9964   8.292  23.884  14.125
43534W        W 9965   6.338   2.798   1.670
43535W        W 9966   2.309  19.760   2.251
43536W        W 9967  41.030  20.522   1.490
43537W        W 9968  19.103  44.503   1.463
43538W        W 9969  37.545   8.141   3.192
43539W        W 9970  10.748   1.801  12.282
43540W        W 9971  23.495   7.848  14.981
43541W        W 9972   1.953  17.043  12.516
43542W        W 9973  11.147  26.961   1.870
43543W        W 9974  18.390   6.025   2.605
43544W        W 9975   6.580   3.269   4.527
43545W        W 9976  28.076  20.988   3.877
43546W        W 9977   3.237  17.608  11.578
43547W        W 9978  39.850  38.085   3.264
43548W        W 9979  14.828  35.161   4.563
43549W        W 9980   3.712  17.763   5.484
43550W        W 9981  18.904  13.847   1.966
43551W        W 9982  33.783  16.586  10.626
43552W        W 9983  14.953   2.332   5.393
43553W        W 9984   7.970   7.700   5.191
43554W        W 9985  31.872  23.677  10.892
43555W        W 9986  25.084  27.978   4.642
43556W        W 9987  11.138  24.240  12.419
43557W        W 9988  40.945  18.150   4.551
43558W        W 9989  18.291   2.211  10.438
43559W        W 9990  36.443   4.819   0.171
43560W        W 9991  42.832  41.804  13.520
43561W        W 9992  25.526   8.906   1.251
43562W        W 9993  24.738   7.623   3.692
43563W        W 9994   0.102   0.118   4.227
43564W        W 9995  30.851  22.283   2.573
43565W        W 9996  36.204   2.238   2.918
43566W        W 9997  20.589  43.368   4.278
43567W        W 9998   0.698   3.293  11.590
43568W        W 9999  30.233   4.735  11.552
43569W        W10000  26.343  33.019   0.873
43570W        W10001  41.872  22.059   2.022
43571W        W10002  19.273  15.894   4.208
43572W        W10003  30.845  11.197   0.202
43573W        W10004  27.426  27.315  12.091
43574W        W10005  16.754  44.417   4.161
43575W        W10006  27.096  27.801  11.236
43576W        W10007  23.848   8.690  14.430
43577W        W10008  36.607  20.381   3.192
43578W        W10009  26.091   2.734  11.192
43579W        W10010  11.263  37.295  10.651
43580W        W10011  20.198  17.378   0.794
43581W        W10012  44.266  20.027  10.496
43582W        W10013  44.215   9.901   4.863
43583W        W10014   3.329  30.525   4.073
43584W        W10015   3.934   0.857  14.401
43585W        W10016  16.667  15.721  12.934
43586W        W10017   5.931  37.050  12.654
43587W        W10018  10.543  28.125   0.708
43588W        W10019  39.562   5.023   3.540
43589W        W10020  25.946  17.533  13.759
43590W        W10021  26.355  44.480   1.448
43591W        W10022  29.549  37.958  13.425
43592W        W10023   8.531  12.423   0.342
43593W        W10024  15.244  17.415  14.296
43594W        W10025  29.065  42.131  14.704
43595W        W10026   1.865   2.305  12.109
43596W        W10027  28.229  38.380   2.733
43597W        W10028  13.704  10.372   2.859
43598W        W10029  42.411   8.771  11.845
43599W        W10030  12.912  39.222  11.204
43600W        W10031  20.370  33.507  12.475
43601W        W10032  30.105  38.555   1.792
43602W        W10033  33.537  29.885  11.545
43603W        W10034  30.031  27.732   3.669
43604W        W10035  30.127  38.174   2.770
43605W        W10036   3.318  37.300  10.639
43606W        W10037  32.547   0.606  14.986
43607W        W10038  43.450  28.443  13.434
43608W        W10039  37.331   1.461   0.086
43609W        W10040   6.380  42.877   4.491
43610W        W10041   3.190  15.974  11.978
43611W        W10042  34.401   3.222   3.223
43612W        W10043  26.246  34.536   1.911
43613W        W10044  14.342  39.755  10.823
43614W        W10045   1.800  41.384   4.380
43615W        W10046   6.417   7.760   1.908
43616W        W10047   8.557  37.902   0.340
43617W        W10048  25.482   6.432  11.437
43618W        W10049  16.673  43.526   2.256
43619W        W10050  33.674  39.861   2.784
43620W        W10051  35.889  34.912   1.306
43621W        W10052  10.630  25.245  11.014
43622W        W10053   2.721   1.087  13.494
43623W        W10054  34.005  21.542  12.665
43624W        W10055   0.420   0.251  11.365
43625W        W10056   4.771  19.553   1.000
43626W        W10057  42.977   5.277  14.043
43627W        W10058   0.505  36.883  13.723
43628W        W10059  13.601  28.417   1.030
43629W        W10060   8.227  43.096  12.065
43630W        W10061  36.434   5.316  14.962
43631W        W10062  42.494  43.539  11.642
43632W        W10063  10.724  28.089   0.230
43633W        W10064  40.248  16.836  13.338
43634W        W10065   3.369   8.596  10.691
43635W        W10066  43.300  41.137   1.325
43636W        W10067   2.027  34.816   0.827
43637W        W10068  12.529  19.676   0.491
43638W        W10069  43.288  35.055  12.338
43639W        W10070   8.529  17.741  10.611
43640W        W10071   4.227  17.685   1.227
43641W        W10072  38.479   7.103  11.248
43642W        W10073   7.511   7.855  11.344
43643W        W10074   1.526  35.598  12.158
43644W        W10075  11.432   5.239  10.782
43645W        W10076  11.937   7.203  11.913
43646W        W10077  31.053  23.496   4.068
43647W        W10078   7.626  32.560  14.768
43648W        W10079  42.989  17.123  10.600
43649W        W10080  22.749  14.831   3.597
43650W        W10081  15.340  22.201   2.748
43651W        W10082  25.537   0.978   2.374
43652W        W10083  32.057   4.478   3.578
43653W        W10084  17.664  12.682   2.229
43654W        W10085  34.500   6.516  11.577
43655W        W10086  21.176  10.853  14.381
43656W        W10087   8.143   1.742  11.632
43657W        W10088  33.007  19.361  13.575
43658W        W10089  21.108   1.895   1.959
43659W        W10090  37.399  27.869  14.301
43660W        W10091  24.914  41.750  13.932
43661W        W10092  18.681   8.354   1.798
43662W        W10093  40.515   9.258   2.149
43663W        W10094  39.837  35.338   4.164
43664W        W10095  29.599  16.241   2.280
43665W        W10096  35.266   4.257   3.647
43666W        W10097  17.574   3.608   3.753
43667W        W10098  31.004   9.791  14.338
43668W        W10099   2.010  23.268   3.411
43669W        W10100  11.203  42.994   4.587
43670W        W10101  18.052  29.777   4.260
43671W        W10102  24.169  16.106   0.333
43672W        W10103  18.688  22.493  12.805
43673W        W10104  11.837  10.281   3.162
43674W        W10105  17.603  38.712  13.805
43675W        W10106  34.149  37.421  11.341
43676W        W10107  14.135  32.070  14.787
43677W        W10108  24.079  12.785  14.899
43678W        W10109   1.254   2.230   2.125
43679W        W10110   0.723  29.980  14.436
43680W        W10111   8.116  39.364  13.430
43681W        W10112  14.356  41.397   0.997
43682W        W10113  12.529   7.715   4.834
43683W        W10114   5.878  26.499  10.990
43684W        W10115   9.040  31.571  11.771
43685W        W10116  12.089   0.763  14.311
43686W        W10117  26.630   9.756  14.527
43687W        W10118  23.693  28.412   5.017
43688W        W10119  23.334  35.687   2.928
43689W        W10120  42.847  15.806  14.524
43690W        W10121   4.394   9.382  13.509
43691W        W10122  29.278  11.112   1.599
43692W        W10123  33.619  40.346  14.277
43693W        W10124   0.418  18.838   3.773
43694W        W10125  17.282  33.801  14.862
43695W        W10126   1.790  38.960  11.103
43696W        W10127  41.248  34.573   0.475
43697W        W10128  10.653  19.086   3.190
43698W        W10129  17.569  21.263   3.664
43699W        W10130  31.511  34.143  14.014
43700W        W10131  44.872  15.296  12.117
43701W        W10132  15.867  26.976   0.386
43702W        W10133  24.028  11.771  13.433
43703W        W10134  17.277  35.962  14.434
43704W        W10135  35.882   7.800   3.447
43705W        W10136  41.209  18.649  11.585
43706W        W10137  40.990  34.051   1.346
43707W        W10138  16.292  13.369   1.392
43708W        W10139  39.593  33.957   3.690
43709W        W10140  37.433  41.298  10.327
43710W        W10141  12.703  17.783   1.322
43711W        W10142   1.551  14.383  11.234
43712W        W10143  16.802  12.730  14.235
43713W        W10144  10.414   9.739   0.408
43714W        W10145  14.864  24.683   2.627
43715W        W10146  37.650  38.898  14.480
43716W        W10147  37.339  17.298  12.308
43717W        W10148  44.420  44.430   0.982
43718W        W10149  33.900  38.254   2.767
43719W        W10150  22.656  24.992   4.467
43720W        W10151  20.611  37.793  12.083
43721W        W10152  10.322  33.786  10.753
43722W        W10153   3.827  38.100  10.550
43723W        W10154  19.424  25.276  14.034
43724W        W10155  17.387  40.752   2.864
43725W        W10156  30.918  34.444  12.172
43726W        W10157  37.851  30.107  14.015
43727W        W10158   3.729   1.806  14.402
43728W        W10159  11.818  26.431  10.476
43729W        W10160  33.578  16.090   1.509
43730W        W10161  12.550  29.070   0.956
43731W        W10162  28.545  13.846  12.646
43732W        W10163  32.017  26.547  14.553
43733W        W10164  31.915  25.293   0.826
43734W        W10165  28.069  16.992  14.857
43735W        W10166   2.040  14.636  10.768
43736W        W10167  31.024  10.100  12.435
43737W        W10168  25.593  37.351   1.147
43738W        W10169  42.046   2.714  13.965
43739W        W10170  22.294  26.992  13.082
43740W        W10171  42.917  18.191   1.644
43741W        W10172  24.485  33.185   1.757
43742W        W10173   2.993  21.008  14.841
43743W        W10174  34.124  44.695   1.663
43744W        W10175  17.309  25.574  12.845
43745W        W10176  25.506  12.270  12.664
43746W        W10177   4.258   1.744  14.930
43747W        W10178  10.523  40.474  14.414
43748W        W10179  17.920   7.429   0.287
43749W        W10180  16.448  22.091  10.691
43750W        W10181  32.089  41.272  13.025
43751W        W10182  41.047  41.340   4.608
43752W        W10183  22.520  34.621  14.055
43753W        W10184  40.719   8.371   4.501
43754W        W10185  39.951  31.207  11.718
43755W        W10186  33.879   4.314   1.316
43756W        W10187  21.358  35.007  11.228
43757W        W10188  36.823   0.243  14.799
43758W        W10189  42.126   6.904  12.423
43759W        W10190  17.691  34.053  13.623
43760W        W10191  31.550   7.871  11.132
43761W        W10192  32.324  44.355   3.124
43762W        W10193  30.035  22.307   1.291
43763W        W10194  27.235  21.526   1.846
43764W        W10195  37.421  41.840   2.220
43765W        W10196  13.929  38.835  14.979
43766W        W10197   5.919  27.964  10.583
43767W        W10198   5.718   6.295  11.292
43768W        W10199  26.479  10.191  14.869
43769W        W10200  28.079  39.898   3.785
43770W        W10201  34.462  10.222  11.842
43771W        W10202  20.118  20.628   4.419
43772W        W10203  22.238   0.764   1.931
43773W        W10204   8.101  39.921   4.160
43774W        W10205   6.032  25.270  14.608
43775W        W10206   0.270  17.068   4.215
43776W        W10207  44.572  16.097  13.581
43777W        W10208  36.719  11.678  14.061
43778W        W10209  16.810  41.797   0.240
43779W        W10210  30.645  44.438  12.530
43780W        W10211   9.913  20.200  14.843
43781W        W10212   1.081   8.700  12.969
43782W        W10213  30.473   7.146   2.301
43783W        W10214  28.650  21.126   0.824
43784W        W10215   5.292  40.142  11.593
43785W        W10216   9.671  24.043   0.367
43786W        W10217  29.511  10.867  12.607
43787W        W10218  40.443  26.955   2.099
43788W        W10219  33.395  19.962  11.041
43789W        W10220  24.019  28.941   1.879
43790W        W10221   9.931  13.172   0.842
43791W        W10222  20.120  34.084   4.246
43792W        W10223  38.630  24.907   5.024
43793W        W10224  29.671  24.243   3.526
43794W        W10225  17.773  29.676   2.965
43795W        W10226  13.350  21.709   2.819
43796W        W10227  41.914  15.165   0.449
43797W        W10228  44.460   8.714  13.840
43798W        W10229  43.946  32.432  10.441
43799W        W10230  35.905  38.794   1.754
43800W        W10231  34.763  15.627  12.053
43801W        W10232   3.037  41.845  10.814
43802W        W10233   6.889  32.214  14.370
43803W        W10234  15.229  20.671  10.698
43804W        W10235  11.309   1.202  13.386
43805W        W10236  19.148  31.576  14.050
43806W        W10237  25.072  22.398   0.736
43807W        W10238  33.141  32.184   1.181
43808W        W10239  20.738   3.851  14.564
43809W        W10240   5.697  20.440   3.331
43810W        W10241  33.896  16.001   4.156
43811W        W10242   2.825  43.237   4.087
43812W        W10243  37.329  21.298  11.552
43813W        W10244  44.920  38.879  10.081
43814W        W10245  44.256  37.115   1.215
43815W        W10246  40.431  41.820   0.355
43816W        W10247  44.461  28.736   2.114
43817W        W10248  24.134  27.647   1.540
43818W        W10249  21.470  26.996   2.200
43819W        W10250  35.632   7.347  13.456
43820W        W10251  35.588   0.087   0.362
43821W        W10252   8.495  42.838  12.488
43822W        W10253  39.240   5.562   2.304
43823W        W10254  38.818  44.403   4.968
43824W        W10255  37.135  20.660  14.766
43825W        W10256   7.441  21.515   0.216
43826W        W10257  42.699  21.407  10.996
43827W        W10258  41.588  16.223  13.443
43828W        W10259  10.429  24.265   2.698
43829W        W10260   6.753  20.703  10.377
43830W        W10261  23.454  32.061   0.798
43831W        W10262  29.585  44.876  11.830
43832W        W10263  20.917  40.655  13.948
43833W        W10264  33.546  18.325  11.958
43834W        W10265  30.932  33.066   2.927
43835W        W10266  28.913   7.963  12.895
43836W        W10267  15.209  29.111  11.390
43837W        W10268  40.556   2.210  14.274
43838W        W10269  16.800  17.811   2.408
43839W        W10270  33.807   0.259   3.599
43840W        W10271   3.270  18.352  11.227
43841W        W10272  19.831  24.948  13.960
43842W        W10273   7.864  34.989  13.017
43843W        W10274  20.012  38.475   3.138
43844W        W10275  37.366  31.170  14.509
43845W        W10276   4.355   5.198  11.578
43846W        W10277  34.516  19.080   1.699
43847W        W10278  21.981   5.299   1.421
43848W        W10279   9.884  39.885  11.086
43849W        W10280  26.499   0.353   1.036
43850W        W10281  41.467  12.587   1.671
43851W        W10282  33.998  20.748   1.844
43852W        W10283   7.660  38.713  12.972
43853W        W10284   7.073   9.529   2.059
43854W        W10285  34.046   9.063  14.373
43855W        W10286  14.728   2.837  12.164
43856W        W10287   3.477   1.270   2.476
43857W        W10288   9.651  38.446  12.034
43858W        W10289  25.411  16.767  12.949
43859W        W10290  28.508  33.914   1.788
43860W        W10291  41.370  35.829   3.699
43861W        W10292  12.885  36.753   4.195
43862W        W10293  43.967   4.216  10.712
43863W        W10294   1.733  33.345  14.522
43864W        W10295  30.905   9.822   0.464
43865W        W10296  10.843   5.802  14.477
43866W        W10297  36.508  30.839   3.557
43867W        W10298  33.456   4.404  13.803
43868W        W10299  38.980  27.534   1.242
43869W        W10300  11.407  10.209   9.621
43870W        W10301  31.551  44.450  10.796
43871W        W10302  23.534   2.301  14.450
43872W        W10303  39.070  28.068   1.288
43873W        W10304  27.945  14.069   3.169
43874W        W10305  17.485  12.281   2.882
43875W        W10306  17.742  39.298   1.925
43876W        W10307   2.957  16.218   1.353
43877W        W10308  30.878  26.191  12.425
43878W        W10309  30.570  26.583  11.523
43879W        W10310  19.661  24.425  11.224
43880W        W10311  24.271  32.966  14.472
43881W        W10312  29.683   3.107  13.181
43882W        W10313   9.720   3.580  12.504
43883W        W10314  40.273   3.414  13.840
43884W        W10315   1.326  41.004   1.678
43885W        W10316  28.187  37.886   0.822
43886W        W10317  14.158  40.880  14.369
43887W        W10318   9.431  29.268  11.176
43888W        W10319  38.828   5.082  14.304
43889W        W10320  12.119   4.704  11.133
43890W        W10321  33.059  33.009  11.106
43891W        W10322  25.988  11.805   2.388
43892W        W10323  34.061  19.165   1.971
43893W        W10324   6.556  24.482   4.151
43894W        W10325  17.514  35.774   1.274
43895W        W10326   8.673  19.876   2.748
43896W        W10327  10.848   5.304  13.337
43897W        W10328  15.265  23.487  13.385
43898W        W10329   7.405  33.524  13.876
43899W        W10330  44.342  10.636  11.459
43900W        W10331   3.910  34.038   2.549
43901W        W10332   5.461  15.241   2.852
43902W        W10333  13.815  24.677  14.251
43903W        W10334  26.042  29.096  10.641
43904W        W10335  39.833  10.268   4.024
43905W        W10336  16.292  37.614  11.602
43906W        W10337  19.002  33.027   2.228
43907W        W10338  37.679  20.467  13.008
43908W        W10339  38.532  39.218   3.090
43909W        W10340  18.421  41.266  11.088
43910W        W10341  38.005   2.495  11.656
43911W        W10342  26.611   9.496   2.327
43912W        W10343  36.476  28.991   1.198
43913W        W10344  29.020  39.129  11.778
43914W        W10345   9.180  34.086  13.323
43915W        W10346  28.572  37.103   2.972
43916W        W10347  25.609   5.130  13.016
43917W        W10348   1.316  42.223  14.616
43918W        W10349   9.844  27.224   3.875
43919W        W10350  15.984  18.310  12.920
43920W        W10351  27.747  41.230   1.882
43921W        W10352  32.358  15.750   2.601
43922W        W10353  40.845  12.182  12.052
43923W        W10354  24.007  40.245   0.500
43924W        W10355  44.747   2.669  10.396
43925W        W10356  29.378  40.172   4.200
43926W        W10357  13.216  34.065  13.912
43927W        W10358   1.910  26.143  11.062
43928W        W10359  39.623   7.555   2.249
43929W        W10360   2.466  37.983  13.843
43930W        W10361   4.325  24.658   4.280
43931W        W10362  21.084   8.020  13.019
43932W        W10363  31.844  33.911   4.288
43933W        W10364  33.383  42.934   4.044
43934W        W10365  21.620  33.676  10.001
43935W        W10366  10.880  22.408  10.992
43936W        W10367  13.130  35.502   3.885
43937W        W10368  38.355  36.236   3.301
43938W        W10369  24.788  16.834  11.196
43939W        W10370  16.203  24.794  14.392
43940W        W10371  15.768  43.438   2.651
43941W        W10372   3.127  40.092   2.813
43942W        W10373  39.995  25.069   1.685
43943W        W10374  35.652  34.829   0.788
43944W        W10375   7.222   3.114   1.326
43945W        W10376  21.174  37.544   1.952
43946W        W10377   7.212  44.320  14.491
43947W        W10378   8.215  19.265  14.063
43948W        W10379  22.284   9.578   0.871
43949W        W10380   2.727  14.336   1.151
43950W        W10381  37.236  22.065   3.131
43951W        W10382  17.450   1.453  12.898
43952W        W10383   6.090  44.000  13.906
43953W        W10384  30.477   4.242  12.953
43954W        W10385  27.048  20.907   4.842
43955W        W10386  34.755  24.991  14.662
43956W        W10387  31.990  16.568  11.202
43957W        W10388  28.651  16.640   2.246
43958W        W10389  39.706   1.327  12.953
43959W        W10390  23.781  34.245   0.577
43960W        W10391  42.459   1.486  13.035
43961W        W10392  29.439  34.434  14.329
43962W        W10393  13.228  33.766  12.138
43963W        W10394  22.919   0.517   4.904
43964W        W10395   5.956  20.300   1.271
43965W        W10396  16.551  16.171   0.440
43966W        W10397  28.621   9.920   0.772
43967W        W10398   4.202  36.985   0.412
43968W        W10399  26.275  12.855   1.773
43969W        W10400  21.163   9.503   3.521
43970W        W10401  18.080  22.014   4.141
43971W        W10402  25.116   5.202   0.185
43972W        W10403  30.085  31.600  11.323
43973W        W10404   3.255  21.858  12.789
43974W        W10405  24.706  38.531  13.401
43975W        W10406  39.048  41.198  14.843
43976W        W10407  28.647   9.790   3.385
43977W        W10408  28.238   7.886   3.110
43978W        W10409   3.488  23.696  13.970
43979W        W10410   6.748  39.112   0.084
43980W        W10411  40.330   9.389   4.360
43981W        W10412  10.811  43.409   0.010
43982W        W10413  42.237  32.102   0.287
43983W        W10414  17.256   5.931   4.571
43984W        W10415  11.356  27.009  13.542
43985W        W10416  28.896   5.899  12.109
43986W        W10417  11.351  33.840   2.381
43987W        W10418  10.279  41.054  10.640
43988W        W10419  26.698   0.223   1.989
43989W        W10420  26.217  41.322  12.963
43990W        W10421  40.848  11.398   1.319
43991W        W10422  33.518  31.493  12.337
43992W        W10423   7.044  44.542   2.130
43993W        W10424  10.406  41.626   4.176
43994W        W10425  18.135  35.533  14.990
43995W        W10426  18.060  12.305  14.488
43996W        W10427  11.673  13.273  14.971
43997W        W10428  19.171  17.729  13.060
43998W        W10429  39.157  33.511  12.673
43999W        W10430  16.608  32.874  11.299
44000W        W10431  34.015   2.843  12.417
44001W        W10432   4.812   4.655  12.941
44002W        W10433  33.430  25.979   0.429
44003W        W10434  35.370  37.167  11.700
44004W        W10435  17.182  17.607   4.606
44005W        W10436  38.527  34.931   2.274
44006W        W10437  20.761  19.207   0.776
44007W        W10438   5.625  12.424   0.323
44008W        W10439  37.872  21.640  14.524
44009W        W10440  15.206  15.837   0.871
44010W        W10441   6.229  19.003  12.040
44011W        W10442  25.364  28.422  11.988
44012W        W10443  41.467  14.025   2.804
44013W        W10444  28.101  42.085   3.070
44014W        W10445  31.508  27.137  14.711
44015W        W10446  31.136  42.554   1.257
44016W        W10447  11.873  30.412   1.316
44017W        W10448  38.044  12.411   1.179
44018W        W10449   4.309  36.917   1.878
44019W        W10450  26.572  18.680   5.495
44020W        W10451   4.754  36.382   3.782
44021W        W10452  40.342  14.260   4.515
44022W        W10453   4.462   0.301  11.233
44023W        W10454   8.737  15.464   0.816
44024W        W10455  19.526  21.940   2.254
44025W        W10456  14.145  44.380  14.673
44026W        W10457   6.351  40.488   0.954
44027W        W10458  16.414  15.588  14.819
44028W        W10459   9.815   0.286   1.288
44029W        W10460  25.369  41.880   1.282
44030W        W10461  15.116  15.184   4.656
44031W        W10462  11.007  14.510   0.007
44032W        W10463  30.405  15.846  11.882
44033W        W10464  26.487  33.584  12.480
44034W        W10465  19.741  33.371   9.944
44035W        W10466  22.631  31.001   0.208
44036W        W10467  15.823  13.536  12.041
44037W        W10468   1.990  42.983  14.910
44038W        W10469   5.933  31.029  13.598
44039W        W10470  32.868  38.295  11.069
44040W        W10471  35.328  35.985   2.372
44041W        W10472  41.794  31.202   2.611
44042W        W10473  12.800  31.512  13.045
44043W        W10474  20.071  20.618  14.446
44044W        W10475   2.423  38.838  14.550
44045W        W10476   1.228   2.662  13.216
44046W        W10477  16.811  33.892  11.886
44047W        W10478  14.303  33.831   2.811
44048W        W10479   8.142  32.884  12.247
44049W        W10480  44.212  43.389   2.689
44050W        W10481  14.647  41.493  13.382
44051W        W10482  29.908   9.756   1.482
44052W        W10483   2.366  16.065   4.071
44053W        W10484   0.483   7.848  11.233
44054W        W10485  36.760  35.467   4.507
44055W        W10486  27.413  21.379   3.945
44056W        W10487  23.256  20.963   9.825
44057W        W10488  44.030   7.966  11.123
44058W        W10489  20.786  18.535  12.097
44059W        W10490   9.398  40.443  11.112
44060W        W10491  33.031  36.100  14.866
44061W        W10492   2.532  19.934   0.451
44062W        W10493  22.152  36.600   1.810
44063W        W10494   1.701  16.645   2.788
44064W        W10495  39.364  29.974  12.013
44065W        W10496  23.661  36.714  10.213
44066W        W10497  22.203  26.666  10.749
44067W        W10498  25.875   1.240  14.310
44068W        W10499   9.043  44.543  11.327
44069W        W10500   7.652  34.830   1.770
44070W        W10501  25.281  25.454  11.156
44071W        W10502  11.437  29.440  14.063
44072W        W10503   2.838  17.590   3.767
44073W        W10504  16.771  41.993   4.663
44074W        W10505  42.939  17.578  13.835
44075W        W10506  43.543  25.054  11.538
44076W        W10507  27.822  28.055   5.010
44077W        W10508  26.743  32.656  10.723
44078W        W10509  40.052  16.308  12.590
44079W        W10510   2.722  37.917   3.663
44080W        W10511  11.326  27.987  10.824
44081W        W10512  15.069  11.703  10.950
44082W        W10513  31.767  16.102  12.273
44083W        W10514  39.643  30.647  10.882
44084W        W10515  12.540  44.392  11.977
44085W        W10516  40.530  42.398   0.672
44086W        W10517  20.178  19.576  10.607
44087W        W10518  39.375  22.519  12.973
44088W        W10519  21.574  14.208   3.823
44089W        W10520   4.262  41.454   4.611
44090W        W10521  34.045  18.148   1.412
44091W        W10522  27.959  13.337  14.906
44092W        W10523   3.041  15.217  14.497
44093W        W10524   6.360   3.938  12.163
44094W        W10525  17.894   2.657  11.144
44095W        W10526   2.196  11.133  12.042
44096W        W10527   0.782  33.445   1.936
44097W        W10528  24.460  38.938  12.972
44098W        W10529  12.760  43.737   3.343
44099W        W10530   5.268  19.228   3.823
44100W        W10531  17.140  34.306  14.797
44101W        W10532  25.697  40.439   3.662
44102W        W10533  23.952  10.183   1.834
44103W        W10534  34.310  18.597  11.108
44104W        W10535  17.869   0.466  11.220
44105W        W10536  23.662  10.684   2.675
44106W        W10537  37.234  17.083  14.273
44107W        W10538  10.540  22.653  13.925
44108W        W10539   1.424  43.828  12.635
44109W        W10540  22.545  23.196  11.086
44110W        W10541   7.766  16.535   3.348
44111W        W10542   3.933  34.358  14.878
44112W        W10543  15.963  10.737   2.798
44113W        W10544  27.692  18.286   3.607
44114W        W10545  25.179   3.114   4.297
44115W        W10546  11.525   2.410  14.800
44116W        W10547  19.238  42.990  14.967
44117W        W10548   2.351  12.360  11.124
44118W        W10549  25.532  42.291  13.080
44119W        W10550  31.003  26.602   9.926
44120W        W10551   6.831   9.257   2.846
44121W        W10552  43.802  25.951  11.027
44122W        W10553  39.720  17.733  11.503
44123W        W10554  43.040  28.614  13.163
44124W        W10555  24.670  30.200   1.201
44125W        W10556  19.119   0.503  14.216
44126W        W10557  23.565  34.142   2.536
44127W        W10558  41.845  42.257   0.468
44128W        W10559  20.112  26.992   4.399
44129W        W10560  35.508  38.490  12.584
44130W        W10561  12.372  10.418  13.962
44131W        W10562  32.484   1.018   2.390
44132W        W10563   8.658  24.739   4.645
44133W        W10564  43.769  26.666   4.129
44134W        W10565  41.835  35.716  10.727
44135W        W10566  43.258  14.131  11.535
44136W        W10567  18.697   0.442   4.368
44137W        W10568  27.665  24.136   0.454
44138W        W10569   8.427  30.513   1.310
44139W        W10570  18.022  31.058   4.044
44140W        W10571   7.981  15.479  12.253
44141W        W10572   0.710   5.464  11.116
44142W        W10573  39.736   0.324  14.258
44143W        W10574  19.323  14.767   2.287
44144W        W10575  15.213  29.623  14.511
44145W        W10576  25.538  20.772   4.982
44146W        W10577  39.903  20.323   3.754
44147W        W10578  13.452  20.129   3.245
44148W        W10579   4.631  28.186  11.147
44149W        W10580   0.286  11.265   0.765
44150W        W10581  16.607  30.461  14.515
44151W        W10582  12.084  28.879   2.158
44152W        W10583  36.708  29.489  12.028
44153W        W10584  27.174  10.182  11.633
44154W        W10585   9.734   2.245   2.187
44155W        W10586  39.960  12.228   4.646
44156W        W10587  25.014  38.103  13.553
44157W        W10588   0.291  22.030  13.823
44158W        W10589   3.388   0.841   5.139
44159W        W10590  11.844  36.041  13.961
44160W        W10591  30.887   2.766   3.175
44161W        W10592  14.548  42.856  12.258
44162W        W10593  40.904  34.365   2.829
44163W        W10594   6.145  25.085  11.558
44164W        W10595   3.338  26.156   1.176
44165W        W10596   6.609  22.721   2.918
44166W        W10597   8.150  43.569  12.895
44167W        W10598  35.229  33.722  10.697
44168W        W10599  11.514  24.415   0.410
44169W        W10600   8.041   6.366   3.049
44170W        W10601  14.146  20.349  11.689
44171W        W10602  20.484  10.781   4.775
44172W        W10603  19.294  23.478  12.861
44173W        W10604   1.876  37.174  10.728
44174W        W10605  21.480  33.892   4.117
44175W        W10606  29.474  12.194  14.230
44176W        W10607  12.643   0.956   1.483
44177W        W10608   9.159  13.566   4.411
44178W        W10609  40.552   6.039  13.498
44179W        W10610  43.036  24.940   3.112
44180W        W10611  17.175  34.887  13.620
44181W        W10612  24.550  40.545  10.203
44182W        W10613  33.001  31.203   2.473
44183W        W10614  17.700  17.738   1.679
44184W        W10615  25.951   3.395   5.021
44185W        W10616  36.768   1.417   1.761
44186W        W10617  33.555  40.862  12.133
44187W        W10618  24.014  33.391  13.784
44188W        W10619  25.762   7.713  10.651
44189W        W10620   7.296  20.699  12.670
44190W        W10621   4.946  19.651   3.732
44191W        W10622  18.797   5.693  13.065
44192W        W10623  25.801  16.924   1.985
44193W        W10624  26.082  36.646  13.936
44194W        W10625  14.337  40.082  13.428
44195W        W10626  24.119  33.537   0.942
44196W        W10627  35.185   0.440   0.301
44197W        W10628  10.269  38.490   3.532
44198W        W10629  20.055   0.837  12.431
44199W        W10630  43.619  21.051   2.408
44200W        W10631   6.217  44.234  11.492
44201W        W10632  40.399   2.880   0.767
44202W        W10633  29.383   9.556  11.643
44203W        W10634   5.399  22.951   1.695
44204W        W10635   8.851  32.448  11.029
44205W        W10636   7.929  22.443   1.464
44206W        W10637   3.927  34.294   4.206
44207W        W10638  12.352  18.273   1.348
44208W        W10639   0.185   6.221   2.159
44209W        W10640  41.392  13.838   3.292
44210W        W10641  28.218   3.008   0.871
44211W        W10642  10.385  32.546   1.633
44212W        W10643   3.246  35.217  12.522
44213W        W10644  11.252  32.624  11.488
44214W        W10645  36.505  43.551   3.294
44215W        W10646  40.993  39.360   0.241
44216W        W10647   4.405   6.195   4.602
44217W        W10648   2.217   7.840   4.368
44218W        W10649  33.918  37.105   3.206
44219W        W10650  15.508  36.068   0.108
44220W        W10651   3.704  31.912  12.348
44221W        W10652  37.396   7.720   3.600
44222W        W10653  11.393   8.720  12.169
44223W        W10654  31.357  25.646   3.608
44224W        W10655  39.667  39.610   0.849
44225W        W10656   2.927  21.356   0.697
44226W        W10657  37.450  41.732   4.130
44227W        W10658   6.862  35.328   1.724
44228W        W10659   9.654  33.922   1.449
44229W        W10660  13.658  36.632  12.779
44230W        W10661  10.036  31.921   0.889
44231W        W10662  27.490  17.583  11.683
44232W        W10663  41.555  14.604   0.956
44233W        W10664   5.131  33.091   2.290
44234W        W10665  14.356   3.336   2.139
44235W        W10666  19.999   7.578   2.334
44236W        W10667  18.020  35.564  11.462
44237W        W10668   8.859  21.939   2.180
44238W        W10669  35.991  14.176   1.518
44239W        W10670  31.038  29.167   2.326
44240W        W10671  34.232  38.952  12.487
44241W        W10672  14.332   1.504   4.923
44242W        W10673   2.731  19.713   2.938
44243W        W10674  14.532  27.553   0.283
44244W        W10675  10.424  25.464   0.853
44245W        W10676  10.378  42.100  13.539
44246W        W10677  18.780  30.497  14.992
44247W        W10678  20.274  31.066  13.625
44248W        W10679   0.202  38.512   4.088
44249W        W10680  14.658  23.097  14.848
44250W        W10681   0.211  10.752   2.073
44251W        W10682  43.735  21.258  11.939
44252W        W10683  11.118  14.715   4.954
44253W        W10684   3.946  13.203   3.805
44254W        W10685  11.863  29.554  12.511
44255W        W10686  21.215  35.432   3.741
44256W        W10687  25.511  25.413   2.802
44257W        W10688   7.919  21.666  10.956
44258W        W10689  29.393  17.698  10.666
44259W        W10690  27.911   9.427   4.630
44260W        W10691  18.995  17.264  11.098
44261W        W10692  44.186  30.760   4.138
44262W        W10693  33.771  42.569  12.568
44263W        W10694   0.825   1.046  14.043
44264W        W10695  11.225  19.175   2.250
44265W        W10696   5.585  25.108   2.317
44266W        W10697  12.613   9.733   4.373
44267W        W10698  28.787  41.530  12.850
44268W        W10699  16.645   9.151  12.865
44269W        W10700  33.029   5.126   0.777
44270W        W10701   3.362  12.758  10.865
44271W        W10702   7.889  35.811   1.821
44272W        W10703  12.751  29.559  10.903
44273W        W10704  10.846  37.827   3.085
44274W        W10705   0.329  34.031   4.704
44275W        W10706  25.455   7.189  12.924
44276W        W10707   9.903  21.462   4.093
44277W        W10708   8.537  31.504  13.152
44278W        W10709  11.651  17.098  10.541
44279W        W10710  12.560  18.602  11.563
44280W        W10711  25.643   2.978   0.462
44281W        W10712  36.269  17.334   1.471
44282W        W10713  25.529   6.735   2.374
44283W        W10714  10.037  36.713   0.896
44284W        W10715  11.681  39.005   0.231
44285W        W10716   1.057  15.695   1.870
44286W        W10717  33.969  21.961   4.235
44287W        W10718  15.155  44.025   0.204
44288W        W10719  17.699  25.570  10.227
44289W        W10720  39.046  25.828  10.622
44290W        W10721   8.246  20.359   0.762
44291W        W10722  22.210   0.929  14.421
44292W        W10723  20.143  21.823   0.353
44293W        W10724  39.795  28.384  13.948
44294W        W10725  43.839  23.094  13.687
44295W        W10726  11.254  12.324   1.480
44296W        W10727   8.745  21.055  12.919
44297W        W10728   5.866  33.430  13.849
44298W        W10729   9.340  26.184   0.135
44299W        W10730  40.084   0.431   0.758
44300W        W10731  31.083   0.196  11.072
44301W        W10732  36.804  32.502   0.701
44302W        W10733  27.682  41.494   3.830
44303W        W10734  24.574   8.939   0.457
44304W        W10735  37.050   8.378   4.203
44305W        W10736  24.801  14.025   5.036
44306W        W10737  24.528  21.723   3.703
44307W        W10738   7.722   3.509  12.927
44308W        W10739  10.267  23.843  12.712
44309W        W10740  43.082   8.294   4.251
44310W        W10741  23.542   3.446  14.725
44311W        W10742  30.671   8.388   0.458
44312W        W10743  40.071   8.267   3.436
44313W        W10744  43.349  13.219   0.903
44314W        W10745  14.833   0.280   1.285
44315W        W10746   2.070  14.182  13.666
44316W        W10747   3.944  20.160   0.250
44317W        W10748  43.279  11.969  10.658
44318W        W10749  26.076  37.831   2.183
44319W        W10750  26.902   7.256   3.809
44320W        W10751  41.169  26.181   3.226
44321W        W10752  11.352  16.187   2.650
44322W        W10753  16.223  21.357   0.019
44323W        W10754  42.893  35.488   1.800
44324W        W10755  44.950   4.430   4.463
44325W        W10756  39.000  39.616  13.015
44326W        W10757  37.194  36.933   2.489
44327W        W10758  18.836   8.294  11.501
44328W        W10759  20.342  41.091   0.698
44329W        W10760  11.175  25.594   2.517
44330W        W10761  31.397  25.603  10.863
44331W        W10762  28.557  42.013   1.340
44332W        W10763  31.541   9.250   3.236
44333W        W10764  20.666  21.328   4.641
44334W        W10765  17.014  27.549   3.823
44335W        W10766  17.859  31.988   2.586
44336W        W10767  26.727  23.242   1.513
44337W        W10768  19.948  30.673   0.586
44338W        W10769  15.641   4.462  12.618
44339W        W10770   1.979  14.411   4.512
44340W        W10771  11.743  18.992   0.549
44341W        W10772   2.735   4.742  12.601
44342W        W10773  27.230  19.518   2.223
44343W        W10774   6.393   9.682  11.661
44344W        W10775  26.032  28.572   3.977
44345W        W10776   2.833  40.913  12.851
44346W        W10777  44.470   6.184   1.633
44347W        W10778   8.278   7.363  12.960
44348W        W10779   6.438  25.254   4.081
44349W        W10780  17.306  42.754   9.343
44350W        W10781  41.928  32.737   4.558
44351W        W10782  11.407  31.610   1.831
44352W        W10783  20.991  20.633  12.589
44353W        W10784  38.802  24.706   4.563
44354W        W10785  12.749  17.045   3.792
44355W        W10786  33.965  25.390  10.516
44356W        W10787  36.794  10.664   0.599
44357W        W10788   3.324  39.010  12.463
44358W        W10789   2.366  19.715   4.174
44359W        W10790  37.531  19.097   0.027
44360W        W10791  25.498  10.794   4.499
44361W        W10792  39.297  21.093  13.903
44362W        W10793  10.751  34.577  10.927
44363W        W10794  27.876   6.172  14.457
44364W        W10795  16.425  35.392  11.051
44365W        W10796  34.062  11.057  12.345
44366W        W10797  14.568  42.979  14.394
44367W        W10798  37.491  42.069  14.401
44368W        W10799  20.528  12.860   1.582
44369W        W10800   4.853   9.185  12.189
44370W        W10801  28.021  24.339  10.162
44371W        W10802  42.378  26.453   0.792
44372W        W10803  36.079  28.676   1.651
44373W        W10804  30.671  34.709  10.679
44374W        W10805  28.338   3.903   2.716
44375W        W10806  28.986  33.521   4.695
44376W        W10807  37.114  25.042  11.871
44377W        W10808  32.368  19.528   4.682
44378W        W10809   6.321  31.695   4.565
44379W        W10810  22.098  35.114  12.302
44380W        W10811  17.730  14.609  10.257
44381W        W10812  40.050  38.181  14.913
44382W        W10813   5.908   0.299  10.392
44383W        W10814   3.749   2.107   4.197
44384W        W10815  29.742  31.404   4.961
44385W        W10816  30.182  21.056   3.267
44386W        W10817  19.744  12.450  14.155
44387W        W10818  13.028  11.332  13.676
44388W        W10819  29.984   0.401   1.573
44389W        W10820  17.698   6.740  13.786
44390W        W10821  33.552  10.274  12.328
44391W        W10822   2.770  43.272   2.593
44392W        W10823  14.842   0.716  14.917
44393W        W10824  23.018  37.759  13.904
44394W        W10825   7.803   1.245  14.312
44395W        W10826  34.101  13.786  10.424
44396W        W10827   2.702  13.125   4.599
44397W        W10828   0.253   1.711  14.316
44398W        W10829  33.262  31.978   2.733
44399W        W10830   6.692  38.996  12.452
44400W        W10831   7.131  11.137   3.697
44401W        W10832  26.535  26.153   4.626
44402W        W10833  22.467  21.537  12.523
44403W        W10834  32.385   0.898   4.606
44404W        W10835   8.723   1.337   1.288
44405W        W10836  27.605  38.614   4.485
44406W        W10837  29.607   8.818   0.422
44407W        W10838  35.555  44.960  14.520
44408W        W10839  37.815   7.411  12.882
44409W        W10840   2.202  18.532   2.711
44410W        W10841  21.059  42.382   2.784
44411W        W10842  15.595  10.150   1.891
44412W        W10843  15.716  11.970   1.333
44413W        W10844  33.726  43.373  13.415
44414W        W10845  11.149  43.994   1.674
44415W        W10846  40.487   6.157  12.560
44416W        W10847   4.986  14.998  12.882
44417W        W10848  27.082  27.777  12.464
44418W        W10849  10.393  27.472  13.781
44419W        W10850  36.615  37.816  10.512
44420W        W10851  44.753  27.643   1.596
44421W        W10852  33.124  24.093   1.808
44422W        W10853   7.807  40.071   1.898
44423W        W10854  37.102  16.327   3.678
44424W        W10855  18.618  38.821  13.864
44425W        W10856  11.408  29.427   3.278
44426W        W10857  21.272  33.469   2.509
44427W        W10858  17.647  10.148   0.035
44428W        W10859   8.265  37.281  12.523
44429W        W10860  19.368  16.100   2.770
44430W        W10861  18.842  20.297  12.643
44431W        W10862   5.874  34.310   4.267
44432W        W10863  31.120  38.530  12.406
44433W        W10864  28.284  41.478  12.996
44434W        W10865  24.451  42.742  11.703
44435W        W10866  10.394  23.821  11.278
44436W        W10867  26.781  11.843   1.956
44437W        W10868  32.578  44.876   1.804
44438W        W10869  33.891   1.922  14.767
44439W        W10870  26.933   6.120  12.054
44440W        W10871  15.109   7.752   2.158
44441W        W10872   1.133  33.911  10.034
44442W        W10873  24.667  13.066   4.279
44443W        W10874  17.600   0.327   2.378
44444W        W10875   0.872  40.755   0.837
44445W        W10876   3.408  16.276  13.225
44446W        W10877   9.057  25.160   2.002
44447W        W10878  29.412  14.091   0.962
44448W        W10879   4.357  16.002   3.993
44449W        W10880  39.028  14.012   4.547
44450W        W10881  42.078  31.681   0.724
44451W        W10882  34.795  26.933  14.871
44452W        W10883  35.546   0.388  13.623
44453W        W10884  28.168  12.517  10.646
44454W        W10885  21.704   4.239   2.276
44455W        W10886   4.175  38.005   2.539
44456W        W10887  17.605  20.561   2.253
44457W        W10888  11.497   9.253  11.040
44458W        W10889  40.948   6.248  11.398
44459W        W10890  28.315  25.121   0.508
44460W        W10891  18.527  39.674  14.100
44461W        W10892  34.923  40.162  13.078
44462W        W10893  38.004  24.690   4.769
44463W        W10894  44.244  22.532  12.895
44464W        W10895   8.129   2.267   4.493
44465W        W10896   2.955  37.778  13.908
44466W        W10897  29.475  40.666   2.847
44467W        W10898  32.172  26.537  10.288
44468W        W10899  43.256  17.989   3.498
44469W        W10900   3.362  10.142  10.414
44470W        W10901  18.662   4.626   1.219
44471W        W10902  12.993   8.788  10.214
44472W        W10903  17.183  19.146   3.589
44473W        W10904  30.398  20.128   1.413
44474W        W10905   7.552  41.324   2.962
44475W        W10906  31.596   2.331   0.608
44476W        W10907  12.230  23.465   3.728
44477W        W10908  22.191  34.529   3.883
44478W        W10909  37.222  15.267  12.983
44479W        W10910   0.538  43.449  13.977
44480W        W10911  14.781  33.885   4.133
44481W        W10912  38.449  20.546  12.436
44482W        W10913  21.487  31.347   0.039
44483W        W10914  16.392   2.395   2.261
44484W        W10915  27.983  41.385  12.361
44485W        W10916   7.367  13.679  12.451
44486W        W10917   9.004   5.228   4.137
44487W        W10918  33.558  14.828   3.644
44488W        W10919  12.552   4.001   5.606
44489W        W10920  22.601  36.620  11.565
44490W        W10921  24.289  32.603  11.963
44491W        W10922   3.698  13.664  14.059
44492W        W10923  16.243  38.096   4.036
44493W        W10924   8.775  23.183  11.487
44494W        W10925  28.667  41.056   4.453
44495W        W10926  31.685  29.699  14.896
44496W        W10927  32.959  39.700   0.568
44497W        W10928  31.351  22.562   3.172
44498W        W10929   3.416  13.597  12.376
44499W        W10930  10.310   0.783   0.017
44500W        W10931  21.638  28.696   4.804
44501W        W10932  41.386  26.680   4.199
44502W        W10933  18.308   8.302   3.153
44503W        W10934  39.390  33.427  11.413
44504W        W10935  33.453  42.231  13.448
44505W        W10936  20.019   6.212  11.990
44506W        W10937  19.097  15.095   1.292
44507W        W10938  22.001   8.838  10.683
44508W        W10939  26.022  30.967   2.895
44509W        W10940  11.043  14.896  14.123
44510W        W10941  12.224  43.612   2.215
44511W        W10942  44.422  13.033   3.303
44512W        W10943  13.210  42.102  14.364
44513W        W10944  15.283  31.656  12.071
44514W        W10945  11.642  38.136  13.413
44515W        W10946  12.776  44.656   4.575
44516W        W10947   2.778   9.635  14.795
44517W        W10948  32.517  35.472   1.251
44518W        W10949  24.831  12.864   1.467
44519W        W10950  41.717  19.170  14.352
44520W        W10951  34.968  19.052   3.277
44521W        W10952   4.335  41.502  11.595
44522W        W10953  21.004  43.783  11.991
44523W        W10954  24.470  29.850   0.906
44524W        W10955  23.630  21.750   1.319
44525W        W10956  21.833   7.099  12.550
44526W        W10957  20.025  33.415   2.843
44527W        W10958  33.882  17.078  10.762
44528W        W10959  27.681  16.367  10.716
44529W        W10960  29.195   4.677  13.675
44530W        W10961  32.127  21.225   2.312
44531W        W10962  26.012  28.728  13.425
44532W        W10963  34.103  40.669   0.169
44533W        W10964  31.963  21.964   1.829
44534W        W10965  34.669  40.232  12.589
44535W        W10966   7.647  29.647  14.628
44536W        W10967  32.436  12.787  12.559
44537W        W10968  30.279  32.020  12.538
44538W        W10969  31.697  31.357  11.650
44539W        W10970   4.914  31.645  10.267
44540W        W10971  16.424   2.857   1.983
44541W        W10972  24.029   7.961  12.065
44542W        W10973  10.085   8.258  14.898
44543W        W10974  21.684  27.026  12.592
44544W        W10975  43.191  21.060   1.663
44545W        W10976  39.798  11.118  11.031
44546W        W10977  38.029  37.025   4.862
44547W        W10978  10.571  14.116   3.714
44548W        W10979   6.828  11.760   0.013
44549W        W10980   3.662   7.932   2.282
44550W        W10981  25.024  14.085  14.947
44551W        W10982  12.090  30.499   0.423
44552W        W10983   1.942  15.328   0.825
44553W        W10984   9.831   5.271   0.304
44554W        W10985  21.688  14.554   0.500
44555W        W10986  28.667  40.353  13.401
44556W        W10987  43.852  24.637  11.652
44557W        W10988   1.806  42.709  13.970
44558W        W10989  33.416  43.764   4.654
44559W        W10990  39.315  19.245   2.591
44560W        W10991  38.359  21.081  12.791
44561W        W10992   2.495   6.778   3.256
44562W        W10993  31.934  27.638  11.144
44563W        W10994  33.420   6.978   2.725
44564W        W10995  38.527  12.803   3.850
44565W        W10996  26.232  24.376  11.179
44566W        W10997  12.741   3.720   1.262
44567W        W10998  34.948  31.509   3.276
44568W        W10999  32.883  41.310  14.290
44569W        W11000  32.847  19.155   3.797
44570W        W11001  22.228   7.387   0.399
44571W        W11002  40.982  37.371  13.411
44572W        W11003  28.260  30.346  11.609
44573W        W11004  25.652  39.821  10.587
44574W        W11005  43.979  34.149   2.228
44575W        W11006  36.008  34.641   0.428
44576W        W11007  22.117   4.943   3.068
44577W        W11008   0.441   6.196   1.704
44578W        W11009   7.399   8.961  12.086
44579W        W11010  28.944  30.535   2.290
44580W        W11011  31.597  25.661   0.509
44581W        W11012  10.268  31.978   2.783
44582W        W11013  11.631   4.162   0.909
44583W        W11014  23.175  32.865  11.470
44584W        W11015  14.355  22.013  13.971
44585W        W11016  13.603  38.877  14.529
44586W        W11017  15.527  18.060   3.677
44587W        W11018  29.520  12.603  10.639
44588W        W11019  35.648  10.998  14.484
44589W        W11020   4.232   0.709   2.903
44590W        W11021  20.256  16.461  10.495
44591W        W11022  20.767  39.869  11.760
44592W        W11023  10.869  22.277  13.910
44593W        W11024  18.853   0.237   0.090
44594W        W11025  44.424  35.149  11.729
44595W        W11026  28.394  35.660  11.598
44596W        W11027  31.172   3.781  12.101
44597W        W11028  17.086  17.208   2.258
44598W        W11029  36.283  17.856  12.594
44599W        W11030  22.010  42.799  11.057
44600W        W11031   4.044  33.376   1.735
44601W        W11032  13.693  35.179  11.240
44602W        W11033   0.906   8.285  12.613
44603W        W11034  16.585   2.590   0.912
44604W        W11035  11.888  42.289   4.760
44605W        W11036  44.201   2.384  14.200
44606W        W11037  19.509  31.405  13.707
44607W        W11038  29.510  21.051   1.091
44608W        W11039   0.386  40.778   2.508
44609W        W11040  28.007  40.557   4.185
44610W        W11041  25.969  33.933  12.564
44611W        W11042  31.026   0.766   1.034
44612W        W11043  43.298  24.688   2.642
44613W        W11044  17.509  26.665   4.998
44614W        W11045  12.557  39.057   1.388
44615W        W11046  13.539   5.548   2.975
44616W        W11047   0.490  27.098  14.499
44617W        W11048  41.857  43.785  12.151
44618W        W11049  22.820  31.771   1.343
44619W        W11050  22.957  34.238   0.402
44620W        W11051  10.233  14.585   1.903
44621W        W11052  33.647  43.430  12.479
44622W        W11053  26.486   3.193  13.901
44623W        W11054  33.411  32.905  12.713
44624W        W11055  27.722  12.034  12.067
44625W        W11056  24.718  44.461   3.517
44626W        W11057  31.636  39.070  11.256
44627W        W11058  12.345  21.215   1.016
44628W        W11059  43.519  16.804  10.550
44629W        W11060  35.559  32.230   3.257
44630W        W11061  33.574  18.020  14.042
44631W        W11062   7.843   3.998   0.674
44632W        W11063  27.743  40.401   0.212
44633W        W11064  12.399  34.578  14.700
44634W        W11065  30.907  10.325   1.280
44635W        W11066  31.641  41.852   4.631
44636W        W11067   5.284  26.444   1.927
44637W        W11068  22.486  15.290   3.594
44638W        W11069  10.646   0.185  13.783
44639W        W11070  42.025  30.586  10.346
44640W        W11071  31.500  41.632   1.449
44641W        W11072   0.067  13.456  11.177
44642W        W11073  37.885  13.848  11.090
44643W        W11074  41.028  26.235  11.954
44644W        W11075  23.072  16.196  11.130
44645W        W11076   4.876  28.598  12.525
44646W        W11077  28.091   9.726   2.592
44647W        W11078   6.792  19.766  11.191
44648W        W11079  14.947  24.823  10.309
44649W        W11080  31.704   0.435   3.879
44650W        W11081  19.846   0.898  13.375
44651W        W11082   0.569   8.161   0.029
44652W        W11083  44.696  13.104  10.750
44653W        W11084  33.986  21.749   0.852
44654W        W11085  18.808  42.954  11.581
44655W        W11086   5.871   6.739   0.241
44656W        W11087  18.222  27.969   1.686
44657W        W11088  25.619  19.600   4.268
44658W        W11089   9.096   4.033   0.363
44659W        W11090   7.627  18.175   1.572
44660W        W11091  24.644  10.834  12.335
44661W        W11092  35.868  32.575  13.778
44662W        W11093  43.943  19.153   1.499
44663W        W11094  13.586  17.829  14.323
44664W        W11095  19.886  42.321  10.339
44665W        W11096  37.968  41.998  10.160
44666W        W11097  23.092  38.667   3.230
44667W        W11098  22.065  39.055  13.820
44668W        W11099  24.434  12.339   2.962
44669W        W11100  22.565   1.168   2.627
44670W        W11101  14.977  22.316  14.589
44671W        W11102  25.172   8.120   1.881
44672W        W11103  10.918  22.968  13.354
44673W        W11104  33.070  14.165  11.717
44674W        W11105  37.830  24.371  14.854
44675W        W11106   0.444   4.360   4.039
44676W        W11107  11.743  11.038  11.287
44677W        W11108  18.591  28.022  14.837
44678W        W11109  20.334  40.188   0.319
44679W        W11110   3.694  16.762   1.897
44680W        W11111  24.973  17.021   2.804
44681W        W11112  21.009  21.145  14.412
44682W        W11113  17.384  13.052  11.493
44683W        W11114  23.170  21.593   3.344
44684W        W11115  42.034  17.173  11.201
44685W        W11116  30.062  39.185   3.185
44686W        W11117  25.476  37.901  11.965
44687W        W11118  16.333  25.881  12.909
44688W        W11119  40.545  24.592   3.230
44689W        W11120  34.375  22.282  14.051
44690W        W11121  29.546  25.952   4.171
44691W        W11122  38.468  36.629   3.779
44692W        W11123  14.320  36.830  13.877
44693W        W11124   7.723  10.080  10.365
44694W        W11125   0.762   5.337   2.940
44695W        W11126  20.358   3.309   1.950
44696W        W11127  26.156  29.449  11.806
44697W        W11128  11.316  41.383  14.644
44698W        W11129  31.479  17.706  11.378
44699W        W11130  32.405  10.871   0.356
44700W        W11131  26.624  34.575  10.500
44701W        W11132  12.776  34.325  12.064
44702W        W11133   4.237   2.864   1.388
44703W        W11134   5.649   6.786   0.729
44704W        W11135  34.304  12.811  11.172
44705W        W11136  10.052   3.767   3.739
44706W        W11137   9.548  21.229   1.202
44707W        W11138   0.306   3.586   2.696
44708W        W11139   6.321  30.913   1.284
44709W        W11140  21.004  38.045  11.549
44710W        W11141  29.646   0.311   0.752
44711W        W11142  13.412   4.854  13.790
44712W        W11143  43.850   8.319   4.724
44713W        W11144  33.819  36.935   2.680
44714W        W11145  29.528   6.999   3.651
44715W        W11146  20.892  34.888  11.407
44716W        W11147  33.904  35.541  11.443
44717W        W11148   0.350  34.553  11.979
44718W        W11149  29.981  42.352  11.983
44719W        W11150  40.486  40.544  11.155
44720W        W11151  41.949  41.913   1.328
44721W        W11152   1.754   3.191  11.129
44722W        W11153  33.079  37.285  11.199
44723W        W11154  29.920  27.088  12.982
44724W        W11155  42.555   3.260  14.424
44725W        W11156   8.910   3.257  12.872
44726W        W11157   4.751   0.742   3.567
44727W        W11158  29.061  17.324  11.524
44728W        W11159  29.699   5.979  13.345
44729W        W11160  41.823  22.471  14.845
44730W        W11161  34.609  40.261  14.416
44731W        W11162   2.207  18.203  10.298
44732W        W11163   9.608  29.489  12.852
44733W        W11164  13.622  33.438  11.121
44734W        W11165  28.722  31.644   1.248
44735W        W11166   7.663  38.044   1.423
44736W        W11167  38.594  29.056  13.551
44737W        W11168  40.234  22.523   2.077
44738W        W11169  39.121  35.144   4.043
44739W        W11170  24.139  30.402  10.758
44740W        W11171  31.494  18.350  14.879
44741W        W11172  11.319  16.745  14.732
44742W        W11173  10.079  15.163   3.838
44743W        W11174  28.195  26.543  13.910
44744W        W11175  23.239  13.554  12.979
44745W        W11176  36.443  21.220   3.857
44746W        W11177  44.862  31.267  13.019
44747W        W11178  15.701  11.905  11.582
44748W        W11179  13.877   3.312   9.705
44749W        W11180  41.629  32.339  12.362
44750W        W11181   1.801   9.662   4.466
44751W        W11182   5.675   5.137   3.721
44752W        W11183  17.085  25.369   0.729
44753W        W11184  15.596  32.722   0.937
44754W        W11185  34.389  10.506  12.705
44755W        W11186  24.635  26.936   3.635
44756W        W11187  30.405   9.790   0.552
44757W        W11188  32.515  23.973  11.614
44758W        W11189  41.236   5.960   0.297
44759W        W11190   5.827  16.765  14.336
44760W        W11191   8.105  22.452   4.232
44761W        W11192   3.835   3.646   4.088
44762W        W11193  38.355  35.827   4.751
44763W        W11194   3.965   1.487   2.716
44764W        W11195  27.655  20.787   1.761
44765W        W11196  34.641  35.071  14.639
44766W        W11197   2.828  10.615  11.060
44767W        W11198  21.639  43.535   3.156
44768W        W11199   5.856  10.641  14.518
44769W        W11200  17.090  39.672   1.256
44770W        W11201  18.257  38.515  13.492
44771W        W11202   7.398  27.109   1.020
44772W        W11203  18.778   4.570   0.706
44773W        W11204  33.625  40.968   2.147
44774W        W11205  23.498  34.966  14.983
44775W        W11206  40.843   7.254   4.514
44776W        W11207  43.410  24.032  11.092
44777W        W11208   5.986  37.977  10.515
44778W        W11209   2.719  24.918   4.960
44779W        W11210  41.036  17.631   4.115
44780W        W11211   7.663  30.208   4.229
44781W        W11212  26.703  23.023   4.346
44782W        W11213   0.866  43.861  13.972
44783W        W11214   5.048  30.304  12.883
44784W        W11215  30.139  26.422  10.735
44785W        W11216  18.368  15.789   1.507
44786W        W11217  23.511  28.320   3.642
44787W        W11218  14.826   6.817  12.152
44788W        W11219  33.084  16.612   3.377
44789W        W11220  38.096  17.337   3.375
44790W        W11221  14.753  14.133   0.754
44791W        W11222  42.869  31.744  13.553
44792W        W11223  18.542  36.353  11.670
44793W        W11224  23.730  14.349   0.931
44794W        W11225  20.911  43.852   4.454
44795W        W11226  14.095  36.549   2.918
44796W        W11227  38.979  29.953   0.509
44797W        W11228   1.247  21.675  14.789
44798W        W11229  34.943  17.028   0.810
44799W        W11230  36.133  31.133   0.286
44800W        W11231  18.555  20.773   2.618
44801W        W11232  34.618  29.739   2.175
44802W        W11233  27.177   4.613   4.192
44803W        W11234  27.347   1.731   4.977
44804W        W11235   5.901  40.153   2.281
44805W        W11236  42.412  44.750   2.254
44806W        W11237   4.795  43.851   3.419
44807W        W11238  18.777  21.964   3.253
44808W        W11239  14.330  34.849   0.191
44809W        W11240  27.690  34.380  12.545
44810W        W11241  33.487   3.868   3.720
44811W        W11242  32.512  11.388  13.163
44812W        W11243  38.286   6.374   3.670
44813W        W11244  24.455  21.561   5.538
44814W        W11245  39.912  14.335   3.557
44815W        W11246  40.898  25.227  13.485
44816W        W11247   2.728  27.541  13.569
44817W        W11248  26.014  16.590  12.163
44818W        W11249   6.182   9.109  13.028
44819W        W11250  15.748  44.543  10.548
44820W        W11251  21.997  38.054   1.480
44821W        W11252  18.746  13.056  11.223
44822W        W11253   1.228  26.625  14.400
44823W        W11254  25.608   5.774  12.048
44824W        W11255   1.885   8.245  12.547
44825W        W11256  29.707  17.253   0.819
44826W        W11257   8.328  33.911  13.598
44827W        W11258  28.255  17.626   1.171
44828W        W11259   7.312  10.114   3.764
44829W        W11260   3.436  42.364  14.073
44830W        W11261   2.792  20.800   2.788
44831W        W11262  20.072  39.508  13.439
44832W        W11263  37.632  16.495  14.978
44833W        W11264  40.750  27.498  14.676
44834W        W11265  18.559  38.556  12.812
44835W        W11266  33.592   0.696  11.949
44836W        W11267  39.861  17.334  14.773
44837W        W11268   0.799   6.594  14.359
44838W        W11269  11.252  36.034   2.764
44839W        W11270   0.080  10.617   3.106
44840W        W11271  37.499   9.574   1.409
44841W        W11272  29.472  34.131   0.324
44842W        W11273  15.965  18.732   2.399
44843W        W11274  11.248  15.820   0.220
44844W        W11275  26.076  16.092  12.276
44845W        W11276   2.011  24.783   3.591
44846W        W11277  25.082  21.595   1.289
44847W        W11278  34.935  28.524  11.605
44848W        W11279  28.527  33.790   0.253
44849W        W11280   4.679  26.714   0.306
44850W        W11281  32.508  29.409   2.803
44851W        W11282  34.972   4.432   0.549
44852W        W11283   1.697  18.522   2.620
44853W        W11284   1.287  35.648   2.105
44854W        W11285  43.967  39.486   1.969
44855W        W11286  36.433  12.477  10.881
44856W        W11287  43.768  43.143   0.837
44857W        W11288   3.328   1.843   3.246
44858W        W11289  29.855  14.825  12.778
44859W        W11290  20.037  43.414   0.266
44860W        W11291  39.159  21.273   4.015
44861W        W11292  16.616   1.806   4.099
44862W        W11293  44.009   5.725  10.763
44863W        W11294  42.670   2.434  13.420
44864W        W11295  38.426   0.539   1.643
44865W        W11296  32.845  42.408  12.483
44866W        W11297  41.824   6.718   0.590
44867W        W11298  17.149  19.724   3.777
44868W        W11299  36.825  31.826   2.249
44869W        W11300  21.264  22.653  11.110
44870W        W11301  38.038  40.215  11.566
44871W        W11302  37.113  20.851  10.018
44872W        W11303  32.921   2.245   4.166
44873W        W11304  39.136   6.777  13.891
44874W        W11305  32.339  17.191  12.557
44875W        W11306  29.302   2.691   2.054
44876W        W11307  43.236  25.095  10.985
44877W        W11308  37.301   4.241   2.767
44878W        W11309  23.707  12.653  14.234
44879W        W11310  28.413   0.296   3.260
44880W        W11311  40.639  36.076   2.102
44881W        W11312   0.776   0.722  10.617
44882W        W11313   5.393  17.324  13.083
44883W        W11314  25.598  39.764   4.890
44884W        W11315  26.309   0.422   2.850
44885W        W11316  17.377   1.212   3.226
44886W        W11317  40.511  18.266   4.884
44887W        W11318   9.118  21.712  13.915
44888W        W11319  33.544  42.861   0.359
44889W        W11320  31.170  10.672   0.972
44890W        W11321  28.996  26.982  14.091
44891W        W11322   7.967   0.162  13.061
44892W        W11323  40.990  14.195  12.080
44893W        W11324  29.789  21.841  11.206
44894W        W11325  41.398  27.107  14.157
44895W        W11326  21.858  38.416   2.792
44896W        W11327  44.739   2.986  13.501
44897W        W11328  42.097  35.293  14.761
44898W        W11329  33.626   2.773   0.485
44899W        W11330  34.811  19.169   3.759
44900W        W11331  17.697  34.551   4.167
44901W        W11332  36.646   8.171   0.935
44902W        W11333   2.540  39.130  12.983
44903W        W11334  44.736  20.143  10.790
44904W        W11335  33.202  10.196  11.504
44905W        W11336  20.511   2.627  14.906
44906W        W11337  39.394  10.732  14.306
44907W        W11338  14.929   6.228  13.789
44908W        W11339  35.567  27.636  13.465
44909W        W11340  25.894  33.013  11.694
44910W        W11341  21.572  26.293   3.333
44911W        W11342  42.357  25.280  14.267
44912W        W11343  12.473  20.735   3.933
44913W        W11344   9.402  40.651  13.079
44914W        W11345  32.806  18.765   1.582
44915W        W11346  15.262  19.289   2.030
44916W        W11347  21.102  23.809   1.337
44917W        W11348  35.658  11.269  11.015
44918W        W11349  36.555  24.235  10.765
44919W        W11350  11.582   1.966  12.972
44920W        W11351  19.119   7.600  14.844
44921W        W11352  18.311  31.072   2.688
44922W        W11353   5.916  38.872  10.771
44923W        W11354  30.551  26.234   4.095
44924W        W11355   3.739  13.254  14.921
44925W        W11356   8.921   0.285  12.460
44926W        W11357  34.937  42.572   2.801
44927W        W11358  34.452  37.104  11.660
44928W        W11359  43.529  39.676  13.896
44929W        W11360  10.391   3.419   1.871
44930W        W11361  43.747  22.147   1.976
44931W        W11362  22.116  21.976  14.797
44932W        W11363   0.316  21.665  12.974
44933W        W11364  36.039  22.307  12.995
44934W        W11365  43.938  26.463  12.893
44935W        W11366  25.816  29.681  12.280
44936W        W11367  39.665   2.822   1.979
44937W        W11368  34.282  41.165  12.494
44938W        W11369  32.210  14.630   1.878
44939W        W11370   4.024  10.172  13.915
44940W        W11371   8.024  15.327  11.040
44941W        W11372  10.309  31.378   2.333
44942W        W11373   3.375   8.646   1.783
44943W        W11374  14.640  38.502   4.177
44944W        W11375   9.232  11.908   1.983
44945W        W11376   8.369  32.870   0.296
44946W        W11377  41.277  37.406   4.113
44947W        W11378  36.611  30.898   0.232
44948W        W11379  39.497  16.696   4.585
44949W        W11380   4.647  40.310  10.321
44950W        W11381   3.857  19.985  13.101
44951W        W11382  26.088  17.109  12.104
44952W        W11383   5.212  31.633   3.579
44953W        W11384  31.998  28.116   2.002
44954W        W11385  25.716  22.435  13.058
44955W        W11386   5.912  10.416   4.115
44956W        W11387  23.547  23.276  14.443
44957W        W11388  32.520   5.169  10.736
44958W        W11389   6.752  18.157  12.483
44959W        W11390  10.876  36.989  12.499
44960W        W11391  12.897   1.184   3.626
44961W        W11392  18.086   5.519  13.039
44962W        W11393  32.868   6.747  14.810
44963W        W11394   0.513   3.180  10.642
44964W        W11395  32.181  18.634   2.325
44965W        W11396  43.119  28.591   0.065
44966W        W11397  32.792  28.800  14.651
44967W        W11398  17.489  19.977  12.739
44968W        W11399  13.209  31.020  13.611
44969W        W11400  40.353  24.603   3.735
44970W        W11401  33.464  25.164   4.851
44971W        W11402  42.854  27.760  10.594
44972W        W11403  25.081  42.324  12.091
44973W        W11404  13.732   0.432   0.852
44974W        W11405   5.892  29.636   1.212
44975W        W11406  43.784  21.841  10.549
44976W        W11407  36.354  23.571   1.855
44977W        W11408   7.427  41.457  12.634
44978W        W11409  44.296  41.257  14.029
44979W        W11410  25.384   0.188  13.394
44980W        W11411  39.359  26.972  13.655
44981W        W11412   2.630  23.760   0.691
44982W        W11413  40.732  10.121   1.869
44983W        W11414  19.118  14.279  13.379
44984W        W11415  11.711  16.214  13.640
44985W        W11416   2.469  39.090  10.487
44986W        W11417  36.202  29.506   0.498
44987W        W11418  33.846  18.824  11.170
44988W        W11419  29.235  14.623   0.355
44989W        W11420  16.155   6.225  12.805
44990W        W11421  28.427  11.362   3.146
44991W        W11422  40.977  35.173  12.993
44992W        W11423  39.623   5.413  13.060
44993W        W11424   4.274  25.035   1.443
44994W        W11425  29.028  15.219  10.821
44995W        W11426  35.812   6.471  12.289
44996W        W11427   0.547  34.074   1.449
44997W        W11428   2.953   5.254   0.185
44998W        W11429  34.124  24.556  12.037
44999W        W11430  12.663  25.058   1.796
45000W        W11431   3.001  19.198  12.983
45001W        W11432   2.903  39.805  11.523
45002W        W11433  38.535  16.547  14.568
45003W        W11434   7.979  27.237   3.720
45004W        W11435  10.246  36.835  14.777
45005W        W11436  31.187  13.671   0.756
45006W        W11437  16.355  28.509   1.418
45007W        W11438  32.261  24.699   0.088
45008W        W11439  38.492  37.864  14.394
45009W        W11440   5.641  29.889   3.571
45010W        W11441  24.508  38.597  10.184
45011W        W11442  15.615  40.345  11.562
45012W        W11443  43.212  23.499  11.769
45013W        W11444  19.080  15.651   2.607
45014W        W11445  44.722  38.977  12.601
45015W        W11446  24.031  28.081  13.886
45016W        W11447  41.499  33.110   3.601
45017W        W11448  33.566  20.418   3.160
45018W        W11449  20.233  13.618  13.299
45019W        W11450  26.416   9.506   0.489
45020W        W11451  25.739  25.225   3.740
45021W        W11452  33.267  21.690  14.504
45022W        W11453  27.032  43.526   1.822
45023W        W11454  36.460  14.243   5.018
45024W        W11455  15.684   0.304   1.826
45025W        W11456  34.023   7.828  14.049
45026W        W11457  16.749  44.523   0.360
45027W        W11458  35.511  26.548   4.606
45028W        W11459   2.663   3.213   3.131
45029W        W11460   3.769  30.338   1.859
45030W        W11461   0.482  19.847  12.222
45031W        W11462   1.467  17.949  10.717
45032W        W11463   7.911   7.127   0.246
45033W        W11464  19.516  31.681   0.395
45034W        W11465  26.941  39.401   0.381
45035W        W11466  30.429  21.276  11.110
45036W        W11467  12.465   1.667   3.606
45037W        W11468  23.498  30.576   4.251
45038W        W11469  43.032  41.271   2.908
45039W        W11470  34.049   7.919   1.229
45040W        W11471  13.948  35.399  10.798
45041W        W11472  41.353  37.386   2.174
45042W        W11473   0.735  16.433   1.426
45043W        W11474   7.107   6.318  14.500
45044W        W11475  23.055  25.314   1.249
45045W        W11476  39.882   3.743  13.841
45046W        W11477  44.999   2.379  14.408
45047W        W11478  30.543   5.968   0.314
45048W        W11479  20.568  43.848  14.743
45049W        W11480  38.070  10.859  12.915
45050W        W11481   5.233  14.132   1.472
45051W        W11482  33.783  35.883  10.493
45052W        W11483  33.541  43.957   3.286
45053W        W11484  11.313  33.572  10.596
45054W        W11485  19.239  33.012   2.674
45055W        W11486  28.575   9.816  10.261
45056W        W11487  31.375   3.809   1.774
45057W        W11488  33.903  10.430  13.427
45058W        W11489  27.701   6.179  13.965
45059W        W11490   8.342  13.128  10.544
45060W        W11491  32.250  34.507   0.625
45061W        W11492  29.018  11.215   3.782
45062W        W11493   5.353  16.224  13.792
45063W        W11494  11.058  12.045   2.016
45064W        W11495  42.015  22.776  10.426
45065W        W11496  43.224  40.953  11.484
45066W        W11497   8.868  17.541  12.519
45067W        W11498  34.854  31.429  10.316
45068W        W11499  13.574   4.262  13.081
45069W        W11500   7.337  14.300   2.576
45070W        W11501  13.307  44.950   2.686
45071W        W11502  19.547  30.388   0.750
45072W        W11503   5.149   2.738   3.204
45073W        W11504  21.197  37.662  13.054
45074W        W11505   6.238  35.744  12.449
45075W        W11506  22.576  28.879  13.339
45076W        W11507  14.124  15.192   0.376
45077W        W11508  32.231  11.699  11.986
45078W        W11509  20.248  33.840  10.797
45079W        W11510  39.512  44.025  12.589
45080W        W11511   9.323  22.594   0.375
45081W        W11512  33.200   8.128  12.598
45082W        W11513  13.082  26.469  13.585
45083W        W11514  28.333  37.637   2.744
45084W        W11515  17.213  33.558  11.638
45085W        W11516   4.128  35.328  14.817
45086W        W11517  33.132   7.465  11.693
45087W        W11518  10.357  37.302   2.962
45088W        W11519  44.651  16.044  10.862
45089W        W11520  15.696  39.534   0.959
45090W        W11521   3.890  42.931   4.061
45091W        W11522   2.994  16.279   3.178
45092W        W11523  15.335  22.232  12.982
45093W        W11524   3.792  36.113   0.806
45094W        W11525  35.940  14.312   4.254
45095W        W11526  15.191  37.465   1.013
45096W        W11527  13.891  22.464  10.263
45097W        W11528  22.296   4.795  14.473
45098W        W11529  21.409  41.089   4.223
45099W        W11530  22.977  12.705   3.084
45100W        W11531  36.199   5.360  13.520
45101W        W11532  19.934  23.678   1.603
45102W        W11533  18.269  34.551  14.437
45103W        W11534  27.903  42.525  11.485
45104W        W11535  35.572  41.974   1.322
45105W        W11536  27.443  16.067   1.346
45106W        W11537  30.461   9.122   4.045
45107W        W11538  31.106  43.891   0.872
45108W        W11539  18.221  21.141  10.247
45109W        W11540   2.695   4.588   0.711
45110W        W11541  11.333  30.436   0.942
45111W        W11542  26.508  12.059   4.366
45112W        W11543  24.639   4.246  13.268
45113W        W11544   1.095  11.789   2.885
45114W        W11545  28.045  13.166   2.358
45115W        W11546   1.702  16.190  14.789
45116W        W11547  24.395  39.430  13.954
45117W        W11548  19.758  12.626  10.275
45118W        W11549  21.698  12.119   1.928
45119W        W11550  43.399  17.105   0.898
45120W        W11551  11.924  26.990   0.051
45121W        W11552  23.669  11.163  11.705
45122W        W11553  39.775  41.862   4.544
45123W        W11554  35.620  44.361  12.559
45124W        W11555  31.002  29.923   3.932
45125W        W11556  40.389  12.951   4.630
45126W        W11557  11.646  40.339  10.658
45127W        W11558  33.801  41.826   2.736
45128W        W11559  11.533  40.964  12.848
45129W        W11560  41.971   6.725   3.621
45130W        W11561  37.509  13.056  11.168
45131W        W11562  17.778  33.683  13.991
45132W        W11563   2.819  21.143   4.941
45133W        W11564  42.387  40.940   4.473
45134W        W11565  16.672  31.242   2.433
45135W        W11566  17.323  32.376  14.555
45136W        W11567  41.329  38.071  10.563
45137W        W11568  25.879  19.666  14.011
45138W        W11569  29.362  43.426  12.917
45139W        W11570  18.037  27.963   4.606
45140W        W11571  12.817   4.788  11.647
45141W        W11572  28.664  36.898  10.946
45142W        W11573  29.625  12.781  13.531
45143W        W11574  36.804  36.350   1.866
45144W        W11575  33.347  44.485   4.157
45145W        W11576  26.482   0.336  12.965
45146W        W11577   7.401  10.597  14.402
45147W        W11578  30.089  10.440  13.450
45148W        W11579  36.636  26.507  12.531
45149W        W11580  36.483  38.076  13.406
45150W        W11581  35.711  36.920  13.022
45151W        W11582  35.830  26.101  12.454
45152W        W11583  41.823   6.183   3.658
45153W        W11584  30.599   5.439  12.530
45154W        W11585   3.316  36.369  13.545
45155W        W11586   8.449   0.867   1.182
45156W        W11587  41.080  23.661  14.386
45157W        W11588  33.000  31.116  11.133
45158W        W11589   7.326  30.362  10.889
45159W        W11590  26.232  29.937  12.049
45160W        W11591  23.113  13.193   4.846
45161W        W11592  15.864   0.311   0.200
45162W        W11593  32.646  10.386  12.364
45163W        W11594  11.168  17.230   0.825
45164W        W11595  33.908  23.736   0.889
45165W        W11596   3.784  23.238   3.898
45166W        W11597  34.638  28.704   0.466
45167W        W11598  11.821  22.099  10.642
45168W        W11599   6.895   9.759  11.658
45169W        W11600  40.817  22.834  10.767
45170W        W11601  25.168  14.815  13.659
45171W        W11602  22.563  28.447   1.918
45172W        W11603  19.788  40.834  11.895
45173W        W11604  36.027   0.411   4.449
45174W        W11605  20.501  16.679  12.979
45175W        W11606  27.986  41.069  14.043
45176W        W11607  17.758  39.011  10.682
45177W        W11608  27.917  35.558  13.108
45178W        W11609  34.111  12.741   0.985
45179W        W11610   5.959  16.926  13.863
45180W        W11611  16.733   7.405   0.936
45181W        W11612   0.278  42.714   3.361
45182W        W11613  43.461  13.814   2.663
45183W        W11614  18.636  16.801   0.717
45184W        W11615  37.483  13.263  10.677
45185W        W11616  36.378  21.785   2.614
45186W        W11617  44.193  17.650  14.285
45187W        W11618  18.873  23.376   0.783
45188W        W11619  19.110   1.490   1.399
45189W        W11620   6.118  12.203  10.504
45190W        W11621   8.239  27.502  12.592
45191W        W11622  37.080  10.034  10.985
45192W        W11623  16.421  38.622  12.611
45193W        W11624  17.176  33.518   0.329
45194W        W11625   0.687   1.769   0.900
45195W        W11626  34.437   6.785  13.851
45196W        W11627  25.550  37.844   4.802
45197W        W11628  36.747  44.370  10.009
45198W        W11629  38.820  31.838  14.222
45199W        W11630  37.407  13.819   0.263
45200W        W11631  26.602  26.511   1.565
45201W        W11632  14.911   9.227   3.665
45202W        W11633  27.963  41.890   1.760
45203W        W11634  22.924   0.384   3.918
45204W        W11635  17.989  14.861   3.772
45205W        W11636   3.477  40.927   0.561
45206W        W11637   1.107  17.278  12.104
45207W        W11638  31.474  23.261   3.378
45208W        W11639   3.470   8.307  14.372
45209W        W11640  18.163  28.917   1.199
45210W        W11641   4.019  22.898   3.203
45211W        W11642   8.702  16.862   2.909
45212W        W11643  12.884  32.535  12.098
45213W        W11644  36.644  38.960  13.286
45214W        W11645  40.952   2.784   1.235
45215W        W11646  33.922  42.454  13.501
45216W        W11647   7.878  28.017   5.047
45217W        W11648  39.073  25.891  14.967
45218W        W11649  23.095  13.718   4.118
45219W        W11650  43.760  17.220   3.191
45220W        W11651  17.878  39.738  14.751
45221W        W11652   2.199  35.620   2.137
45222W        W11653  30.328  41.284   3.352
45223W        W11654  13.063   9.414  13.865
45224W        W11655   6.824  21.302   1.768
45225W        W11656  39.525  19.926  13.964
45226W        W11657  11.442  14.250   3.404
45227W        W11658   8.668   3.522  14.965
45228W        W11659  12.111  21.140   1.914
45229W        W11660  30.982  22.039  13.845
45230W        W11661  10.585  37.353  12.848
45231W        W11662  33.012   5.235   3.711
45232W        W11663  41.954  41.399  14.895
45233W        W11664  13.235  42.074  14.889
45234W        W11665  30.236  35.065  14.815
45235W        W11666   2.507  21.386   2.255
45236W        W11667  25.222   6.420  14.722
45237W        W11668  31.109   2.970   2.121
45238W        W11669  37.009  39.501  13.488
45239W        W11670  43.051  30.079  13.699
45240W        W11671   8.805   8.774   2.187
45241W        W11672  10.377  24.699   1.966
45242W        W11673   4.395  16.559  11.959
45243W        W11674  16.590  31.062  12.594
45244W        W11675  43.817  34.704  10.603
45245W        W11676  13.573   6.058   2.855
45246W        W11677   5.689  18.231  12.145
45247W        W11678  40.441  42.987   4.559
45248W        W11679   1.900  26.115   0.739
45249W        W11680  25.501  40.078  12.025
45250W        W11681  16.443  38.948  14.316
45251W        W11682  26.196  16.948  10.296
45252W        W11683  36.074   6.026  14.958
45253W        W11684  41.577  37.152  14.384
45254W        W11685  21.710  13.126   0.272
45255W        W11686   5.330  43.462   4.950
45256W        W11687  36.519   6.861  12.633
45257W        W11688  34.363  35.911  10.732
45258W        W11689  21.232  13.790  11.650
45259W        W11690  21.078   2.513   1.146
45260W        W11691  21.826   0.400  11.595
45261W        W11692  34.828  16.263   4.087
45262W        W11693   3.682  30.594  13.268
45263W        W11694   8.372  31.991   1.296
45264W        W11695   5.932   7.709  11.919
45265W        W11696  23.469  17.661   0.146
45266W        W11697  32.037  30.517  13.843
45267W        W11698  24.492  25.596   3.367
45268W        W11699  26.355  35.974  14.310
45269W        W11700  20.302  16.201   4.540
45270W        W11701  43.357   8.432  13.110
45271W        W11702  37.579  17.244   5.112
45272W        W11703  26.453  17.668   1.283
45273W        W11704  10.272  22.572  11.396
45274W        W11705  21.751   9.307   2.383
45275W        W11706   2.513  23.475   4.105
45276W        W11707  13.624  25.139   3.562
45277W        W11708  27.567  44.363   2.821
45278W        W11709  11.137  39.890   3.605
45279W        W11710  35.473  21.272   2.631
45280W        W11711  22.240  18.237   0.250
45281W        W11712  18.820  42.629  12.795
45282W        W11713  28.555  37.625   4.593
45283W        W11714   9.878  25.637  14.341
45284W        W11715   6.254   1.704   1.220
45285W        W11716  11.675  33.856  11.948
45286W        W11717  43.349   4.641  11.175
45287W        W11718   3.958   3.754  12.161
45288W        W11719   7.328  32.035  14.692
45289W        W11720  39.781   9.771  11.670
45290W        W11721  36.167   9.317  12.109
45291W        W11722  21.328  39.682   3.983
45292W        W11723  15.577  18.074   2.788
45293W        W11724  30.172  10.373  12.959
45294W        W11725  35.029   9.212   4.062
45295W        W11726  19.504  22.059  12.416
45296W        W11727   4.438   2.291  13.430
45297W        W11728  10.410   4.931   2.214
45298W        W11729  17.306  34.420   1.769
45299W        W11730   8.833  41.465  13.063
45300W        W11731  27.755  34.005   0.512
45301W        W11732   0.541  42.863  14.831
45302W        W11733  13.521   6.904  13.707
45303W        W11734   2.798   4.697   2.157
45304W        W11735  23.773   3.884  10.651
45305W        W11736  17.717  22.953  13.037
45306W        W11737  18.677   0.688  11.217
45307W        W11738  33.184  11.386   1.771
45308W        W11739  15.494  16.468  14.314
45309W        W11740   0.390  22.262   2.228
45310W        W11741  32.706  33.684   1.187
45311W        W11742  34.270  13.229  11.478
45312W        W11743   9.738  34.628  14.421
45313W        W11744  16.204  16.195  12.633
45314W        W11745  37.303   8.619   1.290
45315W        W11746   6.470   6.670  11.464
45316W        W11747  43.669  29.924  14.313
45317W        W11748  26.276  12.389  10.660
45318W        W11749   0.295   3.161  12.202
45319W        W11750  17.527   2.165   0.951
45320W        W11751  16.540  10.713   1.375
45321W        W11752  40.975   5.159   3.627
45322W        W11753  11.383  40.631  14.816
45323W        W11754  18.810  10.868   4.199
45324W        W11755  13.452  28.444  11.571
45325W        W11756  37.000  27.926   4.325
45326W        W11757   2.795  31.687  12.702
45327W        W11758   0.836  24.114   4.561
45328W        W11759  10.857  11.798  13.364
45329W        W11760  38.489  30.940   2.381
45330W        W11761  13.735   9.409  14.369
45331W        W11762   3.346  34.209   1.053
45332W        W11763  39.006  35.249   4.948
45333W        W11764  30.028  29.059  12.040
45334W        W11765   9.313  23.947   3.337
45335W        W11766  43.001  40.426   4.913
45336W        W11767   1.824   7.167  10.915
45337W        W11768  11.961  34.956   2.240
45338W        W11769   1.213  43.980   3.253
45339W        W11770  17.039  44.949  13.060
45340W        W11771  22.981  31.192   0.643
45341W        W11772  31.480  17.710   4.596
45342W        W11773  30.612  35.124   4.676
45343W        W11774  31.680   4.466  14.803
45344W        W11775  37.173  32.871  11.148
45345W        W11776  26.472   5.263  12.126
45346W        W11777  20.119  14.068   5.394
45347W        W11778  30.659  33.722  11.602
45348W        W11779  39.443   1.673  10.383
45349W        W11780  24.230  24.176   0.818
45350W        W11781  21.823  28.229  11.148
45351W        W11782  36.099   3.795  12.424
45352W        W11783  13.654  41.936  12.396
45353W        W11784  23.238   1.778   2.784
45354W        W11785  44.811   7.909  13.005
45355W        W11786  14.832  26.643   4.629
45356W        W11787   8.967  42.012   2.707
45357W        W11788  34.675   5.951   3.101
45358W        W11789  44.015  25.033  14.532
45359W        W11790   0.783  16.857   4.361
45360W        W11791   7.806   3.929   3.335
45361W        W11792   8.143  37.161  14.098
45362W        W11793  33.785   2.585  12.839
45363W        W11794   2.170  22.639   0.980
45364W        W11795  35.633   8.201   3.217
45365W        W11796  23.087  25.211  11.729
45366W        W11797  38.765  25.471   3.102
45367W        W11798  37.617  33.267  13.735
45368W        W11799  22.995   8.778  14.937
45369W        W11800   3.947  13.082   1.902
45370W        W11801   1.918  44.761  14.879
45371W        W11802  39.283  44.818   0.597
45372W        W11803  22.105   8.403  10.374
45373W        W11804  24.399  30.483  13.542
45374W        W11805  12.436  22.115   0.855
45375W        W11806  44.502  36.748   1.553
45376W        W11807  42.353   6.356  11.153
45377W        W11808   5.904  29.055   0.884
45378W        W11809  22.616  32.522   1.704
45379W        W11810  14.557  42.431  11.108
45380W        W11811  26.587  41.156   0.529
45381W        W11812  15.747   9.377   4.776
45382W        W11813   5.845   7.185   3.546
45383W        W11814   5.798  42.050   3.966
45384W        W11815  35.978  20.441   1.469
45385W        W11816  12.511  37.632  12.939
45386W        W11817  44.325   7.286  14.325
45387W        W11818   3.790  23.184  14.904
45388W        W11819  30.811  25.039   4.101
45389W        W11820  39.482  31.335  10.035
45390W        W11821   7.396  14.778  11.654
45391W        W11822  40.362  25.639   3.182
45392W        W11823   5.216   3.444   2.159
45393W        W11824  32.876  23.340  11.566
45394W        W11825  27.890  29.328   1.635
45395W        W11826  14.683  31.219   2.472
45396W        W11827  15.351  40.964   0.307
45397W        W11828  26.525  13.120   1.097
45398W        W11829  42.014  17.583   1.455
45399W        W11830  32.188  17.780   3.366
45400W        W11831  34.676  13.572  13.163
45401W        W11832  13.179  31.895  13.047
45402W        W11833  38.358   2.006  11.022
45403W        W11834  19.287  42.965   4.545
45404W        W11835  15.059  26.133  10.316
45405W        W11836   2.383  17.281   2.777
45406W        W11837  17.201  12.742   3.602
45407W        W11838  40.619  12.722   0.353
45408W        W11839  18.213   5.168  14.510
45409W        W11840   9.885  16.761  11.587
45410W        W11841  14.705  40.384  14.407
45411W        W11842   1.501   6.811   0.470
45412W        W11843  38.549  25.851  13.305
45413W        W11844   0.692  37.135   1.259
45414W        W11845   5.700  39.029   3.693
45415W        W11846  32.998  39.591   3.224
45416W        W11847  25.910  10.966   3.210
45417W        W11848  19.009  43.259   0.323
45418W        W11849  37.605  15.152   2.834
45419W        W11850  40.452   5.062   0.203
45420W        W11851  12.696  14.761  13.312
45421W        W11852  42.785  31.949  10.671
45422W        W11853   9.250  23.561   4.505
45423W        W11854  23.866  33.927  13.305
45424W        W11855  33.343  29.094  13.405
45425W        W11856  37.641  27.440   4.112
45426W        W11857  29.508  33.380  10.362
45427W        W11858  23.439  17.773   0.986
45428W        W11859  14.667   6.509  12.847
45429W        W11860  27.102  31.137  12.194
45430W        W11861  40.797   0.507   3.626
45431W        W11862  21.304  23.589   4.314
45432W        W11863  43.507   3.280   2.821
45433W        W11864  14.114  27.508   0.581
45434W        W11865   1.877  38.679  13.327
45435W        W11866  29.049  39.698  14.246
45436W        W11867   3.493  14.296   3.647
45437W        W11868   7.214  14.691  13.073
45438W        W11869   8.117  20.682   2.353
45439W        W11870   6.733   6.704   0.785
45440W        W11871  41.549  30.550  13.028
45441W        W11872  42.841  14.922  12.015
45442W        W11873   2.897   5.340   4.494
45443W        W11874  28.550  34.039   4.139
45444W        W11875  41.809  11.355  11.336
45445W        W11876   6.754   5.269  10.700
45446W        W11877  12.112   7.271  10.435
45447W        W11878  37.008  30.803  10.297
45448W        W11879  13.491   6.750   0.154
45449W        W11880   1.212  31.865   2.158
45450W        W11881  22.779  23.647   0.638
45451W        W11882  20.589  36.292   1.766
45452W        W11883  43.582  23.284  12.041
45453W        W11884  28.045  23.498   1.390
45454W        W11885  17.168  37.968   1.126
45455W        W11886  44.742  36.889   4.472
45456W        W11887  43.392  20.495  14.472
45457W        W11888  18.062  17.329   4.027
45458W        W11889   8.975   5.265   3.293
45459W        W11890  43.749  23.594  11.046
45460W        W11891  34.311  23.889   4.131
45461W        W11892  29.230   2.335  11.450
45462W        W11893  34.567   5.333   3.646
45463W        W11894  21.673  20.716   2.625
45464W        W11895  10.753  39.542  13.050
45465W        W11896  12.044  19.631   2.724
45466W        W11897  24.560  21.151  10.604
45467W        W11898  28.006  17.061   0.429
45468W        W11899  25.114  17.278   3.789
45469W        W11900  30.369   4.229   1.020
45470W        W11901  30.846  17.086   4.071
45471W        W11902  38.539  40.225   5.507
45472W        W11903  36.967   9.858  14.793
45473W        W11904  39.291  11.598  14.014
45474W        W11905   0.952  39.390   4.254
45475W        W11906  41.965  37.946  12.144
45476W        W11907  26.462  27.091  14.946
45477W        W11908  43.783   2.870  14.645
45478W        W11909  13.093  39.486   3.067
45479W        W11910  32.083  29.881  11.689
45480W        W11911  35.916   8.341   1.786
45481W        W11912  23.474   5.081   0.019
45482W        W11913  33.479  21.277  13.446
45483W        W11914   3.912  21.625  11.794
45484W        W11915  31.289   4.561  12.314
45485W        W11916  26.764  39.026   3.293
45486W        W11917  40.285  34.950  11.272
45487W        W11918  39.642   8.295  12.398
45488W        W11919  24.551   8.051  13.467
45489W        W11920  31.789  26.150  14.298
45490W        W11921  41.942   3.172   3.106
45491W        W11922  18.470  10.040   3.778
45492W        W11923  12.034   7.776   1.643
45493W        W11924  15.639  17.983  14.823
45494W        W11925  34.536  24.283   0.348
45495W        W11926  20.006   8.709   4.495
45496W        W11927  20.258  44.313  11.564
45497W        W11928   3.715  19.182  12.442
45498W        W11929  41.550  43.215  13.013
45499W        W11930   2.870  27.948  13.289
45500W        W11931  29.021   4.472   2.993
45501W        W11932  25.229   2.335   4.396
45502W        W11933  17.179  31.100   2.351
45503W        W11934  11.703  44.519   1.165
45504W        W11935   8.521   6.391  13.197
45505W        W11936   7.296  13.091  12.153
45506W        W11937   9.446  35.556  14.796
45507W        W11938  35.380  29.440  14.291
45508W        W11939  37.143   1.973  13.393
45509W        W11940  34.074  23.928   1.353
45510W        W11941   5.969   0.755  13.366
45511W        W11942  27.585  40.334  11.618
45512W        W11943  14.705  41.447   3.869
45513W        W11944  28.130  33.583  13.695
45514W        W11945  18.070   9.344  12.686
45515W        W11946   6.958  22.164  14.855
45516W        W11947   3.181  24.080   2.929
45517W        W11948  40.075  16.846   1.975
45518W        W11949   4.222  38.437  10.611
45519W        W11950  31.657  44.163  11.751
45520W        W11951  20.571  16.739   1.187
45521W        W11952  10.914  38.130  13.226
45522W        W11953  20.508  39.865   2.790
45523W        W11954  30.290  27.711  12.473
45524W        W11955  19.135  23.037   2.795
45525W        W11956   3.074   8.679   0.705
45526W        W11957  32.469  32.074   0.787
45527W        W11958   7.453  27.002   2.434
45528W        W11959   8.709  36.148  13.313
45529W        W11960  16.642  42.562  12.489
45530W        W11961  41.409  35.465   0.270
45531W        W11962  31.793  26.118  11.229
45532W        W11963  35.687  31.496   3.683
45533W        W11964  37.972  32.039  13.052
45534W        W11965  39.867  11.481  14.876
45535W        W11966  10.236  42.711  14.493
45536W        W11967  34.991  39.860  13.509
45537W        W11968  11.760  25.514   0.735
45538W        W11969  36.428  19.827   5.196
45539W        W11970  15.385  35.083  13.098
45540W        W11971  38.751  38.881  12.549
45541W        W11972  43.087  35.824  14.613
45542W        W11973  26.609  13.166   2.590
45543W        W11974  41.920  26.763   4.089
45544W        W11975  39.970  26.008  11.037
45545W        W11976  20.716  33.553   3.458
45546W        W11977  38.212  16.343  13.128
45547W        W11978  31.892   6.239   1.696
45548W        W11979  17.323  11.347  13.629
45549W        W11980   8.116  22.667  14.721
45550W        W11981  38.304  16.467  10.835
45551W        W11982  34.492  12.371   3.629
45552W        W11983   8.854  17.583   1.672
45553W        W11984   8.895  37.477   4.177
45554W        W11985   4.491  38.526   2.334
45555W        W11986   4.876  29.314   1.858
45556W        W11987  19.675  13.789  14.074
45557W        W11988  44.892  15.563  14.470
45558W        W11989   3.296  12.298  10.607
45559W        W11990  22.685  16.343  13.023
45560W        W11991  19.548  16.292  12.927
45561W        W11992  40.644   4.147   4.139
45562W        W11993  28.619  10.152  12.667
45563W        W11994  25.409  21.198  13.531
45564W        W11995   7.461  22.612  13.028
45565W        W11996  17.768  20.134   0.505
45566W        W11997  11.653  39.589   1.926
45567W        W11998  16.260   2.646  11.611
45568W        W11999  14.754  20.810   1.210
45569W        W12000   9.405  32.637  11.205
45570W        W12001  18.087  10.301   2.821
45571W        W12002  40.344   0.972  14.484
45572W        W12003  10.225   4.734  13.088
45573W        W12004   6.416  41.782   3.675
45574W        W12005  21.572   6.269  11.645
45575W        W12006  19.537  44.087  11.185
45576W        W12007  18.554  38.071  13.033
45577W        W12008  24.125  35.807   0.281
45578W        W12009  19.112  19.202   3.533
45579W        W12010  41.330  22.691  10.921
45580W        W12011  15.783  20.726   0.192
45581W        W12012   8.944  28.626   1.088
45582W        W12013  30.154   4.480  13.832
45583W        W12014  13.289  40.359   0.946
45584W        W12015  11.696  28.683   4.275
45585W        W12016   0.376  39.524   1.953
45586W        W12017  14.073  38.202   2.839
45587W        W12018  28.455  42.250  12.486
45588W        W12019  14.268  38.342  10.916
45589W        W12020  39.416  22.224   3.655
45590W        W12021  35.811  26.926  11.272
45591W        W12022  15.541  36.517   1.797
45592W        W12023   6.577  19.179  12.418
45593W        W12024  18.113  13.511  13.126
45594W        W12025  31.600  21.592   1.856
45595W        W12026  10.165   8.267   1.465
45596W        W12027  34.861  11.922   4.281
45597W        W12028  12.127   0.900   3.281
45598W        W12029  42.613   1.281   2.123
45599W        W12030   7.034  15.036  14.218
45600W        W12031  18.299   2.382   0.368
45601W        W12032   1.321  26.482   3.661
45602W        W12033  35.621  21.698  11.626
45603W        W12034  43.137   1.419  10.781
45604W        W12035  14.541  28.325  13.731
45605W        W12036  30.129  44.806   3.852
45606W        W12037  31.385  21.098  14.778
45607W        W12038   6.276  35.783   3.991
45608W        W12039  32.043  38.709  10.144
45609W        W12040   4.701   7.895   4.218
45610W        W12041  31.597  38.222  10.961
45611W        W12042  14.164  17.116   3.591
45612W        W12043   3.253  35.225   3.627
45613W        W12044   0.972  22.930  14.058
45614W        W12045   7.806  39.509  12.597
45615W        W12046  25.780  43.518   0.821
45616W        W12047  15.237  42.834   4.401
45617W        W12048  18.613  34.875   0.611
45618W        W12049  10.271  34.560  11.930
45619W        W12050  13.754  36.819  14.849
45620W        W12051  28.094  26.703   4.124
45621W        W12052  31.988   6.812   5.057
45622W        W12053  30.311   1.347   0.555
45623W        W12054  11.429  20.668   3.805
45624W        W12055  30.276  42.035   1.587
45625W        W12056   8.285  30.565  10.411
45626W        W12057  14.692  21.301  14.427
45627W        W12058  35.445   4.919  13.050
45628W        W12059  40.071   0.263   4.086
45629W        W12060   6.683  29.222  14.438
45630W        W12061  41.025  30.133   2.233
45631W        W12062  34.037  11.657  11.558
45632W        W12063  25.929  18.322   1.882
45633W        W12064  27.140  18.370  12.003
45634W        W12065   9.339  11.129   2.382
45635W        W12066  14.315  33.468  10.510
45636W        W12067  20.903  44.769   1.397
45637W        W12068  37.688   8.122  14.310
45638W        W12069  13.362   9.537   1.375
45639W        W12070   1.935   0.153  12.949
45640W        W12071  34.893   5.482  10.964
45641W        W12072  27.550  31.687  11.583
45642W        W12073  27.199  21.054  13.984
45643W        W12074  20.415   1.940  11.058
45644W        W12075  19.068  27.879   0.574
45645W        W12076  21.599  30.107   1.950
45646W        W12077  38.494  38.007   3.261
45647W        W12078   9.115  27.058  12.046
45648W        W12079  22.381  11.878   0.267
45649W        W12080  38.741   4.533   0.779
45650W        W12081   8.930  22.819   1.269
45651W        W12082  43.958  14.513  11.100
45652W        W12083  38.849  11.156  11.365
45653W        W12084  32.206   6.412  11.537
45654W        W12085  33.886  21.086   4.626
45655W        W12086  12.104   1.863  11.155
45656W        W12087  21.431  33.503  11.327
45657W        W12088   3.188  35.932  11.969
45658W        W12089  13.385  25.333  13.906
45659W        W12090   1.433  42.288  13.622
45660W        W12091   2.945  31.963   0.345
45661W        W12092  36.128  11.715   3.341
45662W        W12093  43.978   2.832   4.086
45663W        W12094  11.432  44.747   2.464
45664W        W12095  18.546  39.845  14.953
45665W        W12096   7.428  22.259   2.328
45666W        W12097  17.810   4.376   1.089
45667W        W12098  29.199   8.352   4.645
45668W        W12099  33.027  37.307   2.798
45669W        W12100  32.593  26.933  12.649
45670W        W12101   1.399  33.874   4.509
45671W        W12102  12.229  37.483  14.760
45672W        W12103  36.946   1.127  12.281
45673W        W12104  25.961  28.303   2.298
45674W        W12105  13.908   1.033   4.298
45675W        W12106  21.800  36.940  14.452
45676W        W12107   4.910  23.116  14.969
45677W        W12108   4.367  44.797  13.592
45678W        W12109  20.967  33.456  13.129
45679W        W12110   2.245  13.608   2.231
45680W        W12111  31.988  18.554  14.944
45681W        W12112   1.445   4.338  11.600
45682W        W12113  34.836  29.645   1.684
45683W        W12114  42.497   5.697   3.238
45684W        W12115  13.113  35.052  13.547
45685W        W12116  14.288  41.792   3.901
45686W        W12117  11.618  36.999  10.979
45687W        W12118  21.519   7.396  11.185
45688W        W12119  24.288  21.700  13.669
45689W        W12120  33.269  40.751   3.730
45690W        W12121  32.608  22.467  12.446
45691W        W12122   6.346   1.988  12.837
45692W        W12123  44.572  24.502  12.388
45693W        W12124  26.058   9.995   3.309
45694W        W12125  17.986  26.671   2.172
45695W        W12126  28.065  12.061   2.463
45696W        W12127   4.808  29.948   3.054
45697W        W12128  23.779  32.938   4.202
45698W        W12129  20.530  34.119   1.309
45699W        W12130  37.386  37.783   2.247
45700W        W12131  18.892  16.326   2.716
45701W        W12132  31.466   2.668  11.054
45702W        W12133  18.737  19.237   1.978
45703W        W12134  20.263  15.044  13.604
45704W        W12135  28.145   1.839  14.437
45705W        W12136  13.555   2.394  12.877
45706W        W12137   2.787  11.419  12.819
45707W        W12138  36.427  20.061  12.675
45708W        W12139  31.760  11.610  12.271
45709W        W12140  27.096   0.241   3.315
45710W        W12141  42.568  20.605  13.577
45711W        W12142  17.909  30.983  13.780
45712W        W12143   1.809  37.651  13.409
45713W        W12144  31.403   0.381  12.042
45714W        W12145  20.999  23.034   4.303
45715W        W12146   6.717  12.673  11.193
45716W        W12147  26.786  42.694  13.500
45717W        W12148  35.063  24.523  11.184
45718W        W12149  39.932  36.874  12.936
45719W        W12150   3.362   4.175   0.073
45720W        W12151  28.979  25.053  11.664
45721W        W12152  40.558   6.660  12.685
45722W        W12153  32.974  31.182   0.030
45723W        W12154  18.385  35.074  14.272
45724W        W12155  32.487   3.770   3.731
45725W        W12156  42.848  19.087  14.918
45726W        W12157  27.648  25.149  12.849
45727W        W12158  43.970  38.470  11.105
45728W        W12159  14.607   7.055  10.334
45729W        W12160  16.045  39.429  11.247
45730W        W12161  15.207  39.560   4.554
45731W        W12162   2.852  39.010   4.734
45732W        W12163  21.018  10.391  12.554
45733W        W12164  29.744  38.962  13.545
45734W        W12165  25.922  16.996   2.923
45735W        W12166  16.117  36.788   1.875
45736W        W12167  33.742   1.856  13.868
45737W        W12168   0.267   5.078  14.187
45738W        W12169  11.659  43.912   1.867
45739W        W12170  24.941   6.776   3.359
45740W        W12171  27.715   2.450  11.651
45741W        W12172  22.960  27.586   0.682
45742W        W12173  21.744   0.939   4.552
45743W        W12174  13.370  39.908   4.427
45744W        W12175  16.828  25.265   4.511
45745W        W12176  28.588  12.630  12.114
45746W        W12177  33.867  42.863  14.928
45747W        W12178   6.972  44.570  11.056
45748W        W12179  29.139  37.551   2.281
45749W        W12180   9.741  11.720   3.148
45750W        W12181  31.695  16.364  11.801
45751W        W12182  43.566  12.568   0.449
45752W        W12183   7.685  17.065  13.499
45753W        W12184  38.766  23.780  10.368
45754W        W12185  19.204  44.978  10.967
45755W        W12186  38.891  13.669  10.652
45756W        W12187   5.699   7.514  14.862
45757W        W12188   3.751  36.092  13.400
45758W        W12189  31.176   4.219  14.551
45759W        W12190  15.601  13.463   1.836
45760W        W12191  38.778  11.353   1.325
45761W        W12192  13.385  10.467  11.510
45762W        W12193   2.360   2.161  11.914
45763W        W12194  38.338  42.919  10.979
45764W        W12195   0.033  29.599   2.562
45765W        W12196  10.601  43.843  14.866
45766W        W12197  38.179   4.368   0.360
45767W        W12198  17.771  42.900   3.431
45768W        W12199  21.764  28.199  13.906
45769W        W12200  19.115  29.036   2.905
45770W        W12201   9.099  16.239   9.869
45771W        W12202  39.145  11.940   4.437
45772W        W12203  37.418  23.220   4.063
45773W        W12204   7.944   2.484   0.911
45774W        W12205   4.265   7.742   4.964
45775W        W12206   0.810  38.072  13.343
45776W        W12207  15.514  34.841  11.658
45777W        W12208   4.641  17.753  13.925
45778W        W12209  43.788   8.292  12.840
45779W        W12210  26.969   4.882   1.505
45780W        W12211  15.342  41.731  14.395
45781W        W12212  24.198  18.693   3.087
45782W        W12213  20.354  29.360   0.865
45783W        W12214  43.718  29.354  13.460
45784W        W12215  37.980  23.004   2.805
45785W        W12216  41.313  12.571   3.674
45786W        W12217   3.660  12.099   1.728
45787W        W12218  18.196  27.946  11.214
45788W        W12219  11.037  26.683  11.142
45789W        W12220   1.396   1.368  12.145
45790W        W12221  28.712  28.923  12.890
45791W        W12222  39.951  10.757   4.837
45792W        W12223  35.605  18.797   0.009
45793W        W12224  21.183   1.271  11.188
45794W        W12225   8.425  17.582   2.404
45795W        W12226  28.348  38.580  12.987
45796W        W12227   4.821  30.444   3.880
45797W        W12228   9.780  10.236  11.558
45798W        W12229  10.557   3.915   1.172
45799W        W12230  44.887  21.573  11.198
45800W        W12231  25.071  27.908   1.896
45801W        W12232  11.282  22.575   1.149
45802W        W12233  39.318  31.162  14.058
45803W        W12234  15.207  17.627  13.822
45804W        W12235   6.399  17.410  11.924
45805W        W12236  38.753  18.689   1.397
45806W        W12237  25.614  17.669   4.155
45807W        W12238  30.018   5.614  13.129
45808W        W12239  32.187   8.386  11.650
45809W        W12240  21.961  12.947   1.006
45810W        W12241  21.692  25.340  13.787
45811W        W12242  15.672  28.927   0.178
45812W        W12243   6.707  35.488   3.905
45813W        W12244   9.742  39.888  13.827
45814W        W12245  25.462  23.197  10.612
45815W        W12246  20.957  40.325  11.932
45816W        W12247  11.270   2.502  10.750
45817W        W12248  36.561  12.384  11.898
45818W        W12249   6.473  26.600  14.998
45819W        W12250   4.185   6.012   0.950
45820W        W12251   9.068  41.786   4.380
45821W        W12252  41.586   2.981  14.026
45822W        W12253  27.841   1.343  11.876
45823W        W12254  16.084  37.746  14.884
45824W        W12255  17.266  38.037   4.121
45825W        W12256  16.420  15.612  13.405
45826W        W12257  23.714  27.575  10.322
45827W        W12258  38.304   8.144  11.302
45828W        W12259   7.425  10.853   2.695
45829W        W12260   3.778  12.342   2.687
45830W        W12261  30.680   3.410   0.879
45831W        W12262  12.134   8.222  10.747
45832W        W12263  41.393  11.358   4.629
45833W        W12264  43.321   7.079  12.428
45834W        W12265  10.582  42.284  12.503
45835W        W12266   8.073  34.890   3.614
45836W        W12267   0.698  18.630   2.734
45837W        W12268  14.725  43.335   0.815
45838W        W12269   1.278  38.348   2.920
45839W        W12270  35.435  34.350   0.671
45840W        W12271  35.441  23.443   0.267
45841W        W12272  39.613   3.325   1.849
45842W        W12273  31.067  27.630  12.401
45843W        W12274  11.098   0.749   3.047
45844W        W12275  38.236  26.276   3.337
45845W        W12276  27.864  26.594   1.660
45846W        W12277  20.766  17.156   1.462
45847W        W12278   9.846  34.386   2.778
45848W        W12279  36.039  10.671   4.901
45849W        W12280  11.317  12.528  10.553
45850W        W12281  37.586   6.858   1.281
45851W        W12282  27.246  36.946   2.385
45852W        W12283  38.329  29.635  13.049
45853W        W12284   1.080  12.179  12.979
45854W        W12285   2.706   8.923  12.391
45855W        W12286  44.036  36.551  12.915
45856W        W12287   6.326   9.149  13.941
45857W        W12288  20.103  38.378   1.407
45858W        W12289  30.686  37.325  14.967
45859W        W12290  25.752  42.016  11.208
45860W        W12291  36.950  34.035   1.722
45861W        W12292  18.999  15.126  14.398
45862W        W12293  20.748   4.249   1.107
45863W        W12294  19.977  38.471  12.549
45864W        W12295  11.982  29.572  11.226
45865W        W12296  11.376  13.242   1.005
45866W        W12297  38.813  44.073  11.228
45867W        W12298  14.370  40.026   4.766
45868W        W12299  18.505  24.430  11.153
45869W        W12300  43.315  16.408   3.980
45870W        W12301   5.172  15.203   1.440
45871W        W12302  23.704  16.227   2.168
45872W        W12303   2.893  13.989  13.063
45873W        W12304  25.451   5.892  11.578
45874W        W12305  40.291  14.622  14.257
45875W        W12306  43.326  19.632  10.607
45876W        W12307  27.691  19.183  11.873
45877W        W12308  42.727  19.529  11.455
45878W        W12309  28.390   7.345   3.676
45879W        W12310  15.797  20.751  13.821
45880W        W12311  44.883  44.268  12.890
45881W        W12312  34.137   0.548   3.880
45882W        W12313  14.183  35.017  13.460
45883W        W12314  15.181   6.912   1.861
45884W        W12315  13.705  27.490   1.256
45885W        W12316  32.783  18.235   3.900
45886W        W12317   5.808  21.492  10.749
45887W        W12318  16.200  41.215   2.017
45888W        W12319   6.113  15.116   3.125
45889W        W12320  18.369  29.576   3.294
45890W        W12321  16.628  26.533   2.801
45891W        W12322   0.829  10.740  13.906
45892W        W12323   4.395  29.855  14.902
45893W        W12324  21.147   3.062  13.082
45894W        W12325   5.897  23.703   4.016
45895W        W12326   3.770  31.863   1.719
45896W        W12327  19.620   0.077  12.137
45897W        W12328  33.526  15.806  11.984
45898W        W12329  11.541  13.614  10.931
45899W        W12330  28.227  16.348   2.161
45900W        W12331   4.404   2.819  12.785
45901W        W12332   9.051  22.271   4.224
45902W        W12333   4.615  12.031   2.751
45903W        W12334  40.941  13.606  10.688
45904W        W12335  10.552  40.560  13.882
45905W        W12336  31.337  14.181  11.984
45906W        W12337  44.171  37.414  12.877
45907W        W12338  22.086  17.331   0.332
45908W        W12339   1.951  27.530   0.809
45909W        W12340  43.891   8.772  10.774
45910W        W12341   4.316  40.063   2.257
45911W        W12342   9.722   7.908   3.114
45912W        W12343  30.742   3.231   3.438
45913W        W12344  22.453  10.951   2.191
45914W        W12345  39.368  40.401   2.121
45915W        W12346   0.307  15.061  11.991
45916W        W12347  40.417   8.688  14.350
45917W        W12348   8.218   0.224  13.851
45918W        W12349  44.642  14.789  10.383
45919W        W12350   2.461  40.786   2.785
45920W        W12351  30.708   9.204  10.729
45921W        W12352  37.958  24.418   1.626
45922W        W12353  24.610  28.801  13.049
45923W        W12354   8.394   1.474   1.848
45924W        W12355  37.480  33.187   1.540
45925W        W12356  42.868  26.738  14.424
45926W        W12357  20.605   8.894  11.541
45927W        W12358  24.498  41.877   2.657
45928W        W12359  39.916  41.232  13.821
45929W        W12360  14.590  33.003   1.297
45930W        W12361  11.283  13.759   3.435
45931W        W12362  31.124  38.228  11.144
45932W        W12363  22.948  32.013   0.909
45933W        W12364  17.964   8.189  14.073
45934W        W12365  22.799  41.432   1.309
45935W        W12366  43.760  30.863   3.776
45936W        W12367  38.625  34.153  11.132
45937W        W12368  42.029   1.449  13.446
45938W        W12369  14.059  20.982  13.903
45939W        W12370  35.635  14.710  13.916
45940W        W12371   4.677  15.086   1.344
45941W        W12372  11.865  42.888   2.899
45942W        W12373   8.452  44.236   0.966
45943W        W12374  20.280  14.238  12.108
45944W        W12375  37.204  34.443   1.504
45945W        W12376   4.511  41.905   2.821
45946W        W12377  16.860  25.662  13.835
45947W        W12378  42.898   4.234   2.502
45948W        W12379  39.140   8.276  12.324
45949W        W12380  16.348  17.034   2.773
45950W        W12381  35.541  32.293   0.534
45951W        W12382  17.246  34.293   4.036
45952W        W12383  29.603  13.057   2.654
45953W        W12384  29.729  23.304  12.313
45954W        W12385  15.673  41.210   4.223
45955W        W12386  15.765  24.246   0.887
45956W        W12387  35.495  33.557  11.634
45957W        W12388  30.381  14.685   1.275
45958W        W12389   8.169  11.392   1.840
45959W        W12390  12.174  35.432   0.874
45960W        W12391  13.963  33.508   1.874
45961W        W12392  11.623   3.769  12.914
45962W        W12393  14.763  17.453  10.015
45963W        W12394  20.157  27.650   1.309
45964W        W12395  30.067  39.138   2.669
45965W        W12396  44.387  13.520  14.969
45966W        W12397  36.370  22.245   2.931
45967W        W12398  17.780   8.831   3.692
45968W        W12399   6.900  28.938  14.054
45969W        W12400  24.553  26.514   4.576
45970W        W12401  41.538  22.316  11.216
45971W        W12402  22.173  25.708   3.410
45972W        W12403  34.013  27.738   4.473
45973W        W12404  33.487   3.542  14.831
45974W        W12405  38.840   5.868  14.919
45975W        W12406  36.841  10.817  10.926
45976W        W12407  22.424  21.370  13.763
45977W        W12408   6.019  22.951  11.045
45978W        W12409   5.939  24.276  12.924
45979W        W12410  35.615  12.188  11.199
45980W        W12411  31.863  16.457  12.663
45981W        W12412  11.181  25.153   4.051
45982W        W12413  23.039  13.116   2.770
45983W        W12414  22.234  37.830   5.071
45984W        W12415  22.777   9.271  14.784
45985W        W12416   6.790  17.719  12.031
45986W        W12417  21.329  23.805  12.766
45987W        W12418  41.912  18.757   2.730
45988W        W12419  10.334   7.308  14.915
45989W        W12420  11.364  16.278  14.466
45990W        W12421  12.735  32.081  11.909
45991W        W12422  42.107  28.606   0.275
45992W        W12423  14.709  26.656   3.638
45993W        W12424  13.053  16.104   3.806
45994W        W12425  16.078  38.287  14.873
45995W        W12426  30.199   0.874   4.625
45996W        W12427  11.385   7.494   3.627
45997W        W12428  32.086  11.585   5.063
45998W        W12429  27.036  44.039  14.237
45999W        W12430  33.160   4.430   0.073
46000W        W12431  43.773  40.488  13.959
46001W        W12432  10.346  29.628  14.491
46002W        W12433  12.360  28.714   1.333
46003W        W12434  14.703   1.917   5.013
46004W        W12435  41.323   0.452  11.438
46005W        W12436  14.559  14.368   4.609
46006W        W12437  11.759  33.310   1.520
46007W        W12438  12.389  15.646   3.463
46008W        W12439  34.586  41.778  13.081
46009W        W12440   4.281  35.515  13.127
46010W        W12441   1.260  21.067  11.433
46011W        W12442  17.300  13.741   4.493
46012W        W12443  30.445   8.291  11.090
46013W        W12444  13.858  30.054  11.771
46014W        W12445   9.915  44.262   3.135
46015W        W12446  37.514   2.821   2.136
46016W        W12447   9.141  25.226   1.487
46017W        W12448  17.692  31.504  11.568
46018W        W12449  23.943  39.222  13.819
46019W        W12450  38.216  43.713   0.815
46020W        W12451  24.027  43.879  13.359
46021W        W12452  24.039  37.883  11.429
46022W        W12453  39.092  26.613   4.459
46023W        W12454  35.188  15.044  12.932
46024W        W12455   7.600  19.608  11.636
46025W        W12456  13.391  16.013  10.240
46026W        W12457  12.259  25.626  14.258
46027W        W12458  26.560  28.340  14.967
46028W        W12459  37.028  19.314   2.664
46029W        W12460  24.551  39.543   4.288
46030W        W12461  23.728  36.771  13.638
46031W        W12462  32.114   2.250   4.495
46032W        W12463  15.074  42.502  13.522
46033W        W12464  42.246   1.206  10.752
46034W        W12465  16.219  44.343   4.174
46035W        W12466   7.813  37.491  12.438
46036W        W12467  14.766  15.823  10.646
46037W        W12468  10.808  41.898  13.346
46038W        W12469  33.465   5.263   1.392
46039W        W12470  14.143  36.477   4.583
46040W        W12471   4.846  44.552   0.940
46041W        W12472  42.163  22.284   4.279
46042W        W12473   8.770  25.960  13.338
46043W        W12474  38.300  39.583  11.994
46044W        W12475   8.402  23.984  12.517
46045W        W12476   0.888   2.229  13.098
46046W        W12477  14.561  31.144  12.935
46047W        W12478  39.170  14.423  10.750
46048W        W12479  17.723  18.127   2.847
46049W        W12480  22.059  14.834   1.835
46050W        W12481  12.696   7.927  12.942
46051W        W12482  35.908  33.427  10.838
46052W        W12483  16.752  30.393   0.565
46053W        W12484  43.287   4.455  13.909
46054W        W12485  24.446  33.153  13.996
46055W        W12486  34.018  19.518  11.979
46056W        W12487   0.837  44.504  11.160
46057W        W12488  16.149   5.666   3.719
46058W        W12489  25.357  33.084  13.568
46059W        W12490  35.827  17.166  13.348
46060W        W12491   9.186  28.259  11.083
46061W        W12492  20.465  18.796   1.454
46062W        W12493  19.610  23.216  14.352
46063W        W12494  16.571  29.764   0.767
46064W        W12495  30.631  27.993  11.630
46065W        W12496  36.998  12.834   4.338
46066W        W12497   8.305  44.745   5.013
46067W        W12498  33.326  43.876   2.360
46068W        W12499  35.056  19.773  10.988
46069W        W12500  39.630  37.081  12.086
46070W        W12501   8.468  11.121   4.471
46071W        W12502   2.814  24.746  14.459
46072W        W12503  33.652  11.892   3.220
46073W        W12504  38.000  27.487  14.753
46074W        W12505  33.834  36.358   0.265
46075W        W12506  31.217  38.731  11.071
46076W        W12507  43.012  36.472   1.324
46077W        W12508  43.020  27.530  11.039
46078W        W12509   7.248  43.191   1.864
46079W        W12510  35.789   3.999  14.501
46080W        W12511   2.160  18.962   0.478
46081W        W12512  12.273  31.846  11.232
46082W        W12513  29.833  18.587   3.407
46083W        W12514  28.908  31.748   3.662
46084W        W12515  34.504  37.056  10.644
46085W        W12516   1.536  43.225  14.030
46086W        W12517  43.321  42.921  11.689
46087W        W12518  36.535  43.248  12.144
46088W        W12519  44.714  23.466  13.451
46089W        W12520   7.580   7.983  13.623
46090W        W12521  21.145  38.467  14.752
46091W        W12522  23.580  42.197  13.912
46092W        W12523  29.129  20.332   1.376
46093W        W12524   8.719  32.190  12.973
46094W        W12525  30.969  33.273   2.431
46095W        W12526  37.914   4.267  14.339
46096W        W12527  25.065  24.373  14.465
46097W        W12528   0.325  27.703  13.517
46098W        W12529  43.853  22.156  12.036
46099W        W12530  33.080  27.180  13.276
46100W        W12531   4.229  26.730  10.676
46101W        W12532   1.446  30.720  13.704
46102W        W12533  37.395  23.516  14.081
46103W        W12534  21.636  22.776   3.168
46104W        W12535  14.748  16.013  14.754
46105W        W12536  34.371  18.240  11.605
46106W        W12537   6.280   4.411   3.217
46107W        W12538  19.353   0.910  14.943
46108W        W12539  11.132   0.819  10.680
46109W        W12540  37.271  30.374  12.474
46110W        W12541   3.541  15.227  14.250
46111W        W12542  28.463  34.599  14.552
46112W        W12543  28.160  23.528  14.959
46113W        W12544  44.244  11.371   0.808
46114W        W12545  35.163  34.491  10.816
46115W        W12546   0.721  32.831  12.882
46116W        W12547  38.642  41.568   0.907
46117W        W12548  15.117  36.434  14.902
46118W        W12549  22.233  41.390   2.930
46119W        W12550  36.484   3.356   1.694
46120W        W12551  19.780   8.851   3.945
46121W        W12552  24.714   6.379   2.271
46122W        W12553  17.675  43.897  14.598
46123W        W12554  18.904  36.649  10.816
46124W        W12555  18.431  40.935   4.092
46125W        W12556  40.172  31.071   2.615
46126W        W12557  39.809  19.788   4.657
46127W        W12558   8.859  29.054   0.765
46128W        W12559   2.764  42.549   3.576
46129W        W12560  21.165  21.820  11.998
46130W        W12561  32.697   8.688  13.015
46131W        W12562   0.630  42.148   1.755
46132W        W12563  30.096  12.932   2.822
46133W        W12564  12.723  23.548  12.567
46134W        W12565   0.067  29.395   0.688
46135W        W12566  44.073  27.858  13.307
46136W        W12567  35.013  31.991   3.544
46137W        W12568   3.905  43.038   5.146
46138W        W12569   8.143   2.475   4.005
46139W        W12570  14.868  40.424   2.422
46140W        W12571  10.737  39.921   0.947
46141W        W12572   6.236   1.206  13.315
46142W        W12573  38.683  18.582  12.883
46143W        W12574  22.997  17.539   0.362
46144W        W12575  29.553  16.342   2.783
46145W        W12576  31.973  40.859  14.432
46146W        W12577  30.165  12.640  14.293
46147W        W12578   5.689  23.907  14.594
46148W        W12579  44.507  17.667  11.949
46149W        W12580  31.099   3.092   0.415
46150W        W12581  15.842   1.813   4.970
46151W        W12582  21.428   1.282  12.413
46152W        W12583  35.978  12.014  14.438
46153W        W12584   9.344  25.661   1.278
46154W        W12585  37.038  35.338  10.785
46155W        W12586  22.448  13.894  10.939
46156W        W12587  22.799  11.745  10.606
46157W        W12588  40.284   2.299   2.354
46158W        W12589  28.229  42.760  11.805
46159W        W12590  29.008  23.128   0.739
46160W        W12591  24.981  28.416   1.828
46161W        W12592  36.114  21.288   4.256
46162W        W12593  25.794   8.877   0.278
46163W        W12594  22.256  10.720   1.231
46164W        W12595   4.881  34.930   1.358
46165W        W12596  33.530   2.568  12.369
46166W        W12597  15.067  17.624  11.500
46167W        W12598  24.660  36.453   4.050
46168W        W12599  41.555  29.438  14.514
46169W        W12600  33.456  27.161  14.231
46170W        W12601   8.195   3.643  13.130
46171W        W12602  19.688  16.215  11.512
46172W        W12603  14.480  35.849  11.341
46173W        W12604  28.457   7.311  13.974
46174W        W12605  33.461  38.000  12.941
46175W        W12606  32.976  25.097  13.119
46176W        W12607  43.952  22.635   1.305
46177W        W12608  43.759  15.901  11.883
46178W        W12609  12.359  13.606  12.810
46179W        W12610   3.764  16.032   2.757
46180W        W12611   3.444  19.926   1.417
46181W        W12612  35.866  12.797  12.091
46182W        W12613  44.166  35.119  13.872
46183W        W12614  24.709  37.578   2.158
46184W        W12615  20.219  17.062   2.124
46185W        W12616  26.196  35.527   1.759
46186W        W12617  32.717  22.760  13.330
46187W        W12618   1.148  30.069   3.775
46188W        W12619   7.328  29.548   5.104
46189W        W12620  36.083  43.280  14.436
46190W        W12621   8.459  16.652  12.470
46191W        W12622  32.746  44.650  10.355
46192W        W12623  35.307  27.158  14.353
46193W        W12624   0.703   9.231  14.153
46194W        W12625  32.862  29.671   3.903
46195W        W12626   9.425  33.450   1.416
46196W        W12627  28.884   6.196  13.433
46197W        W12628  41.968   7.740   0.443
46198W        W12629  30.158  26.568   4.143
46199W        W12630  44.746  32.965  11.547
46200W        W12631  24.180  17.285  12.006
46201W        W12632  11.376   2.432  12.787
46202W        W12633   4.755   6.657   1.683
46203W        W12634  40.303   1.238   3.719
46204W        W12635  29.135  43.320   1.984
46205W        W12636   8.329  29.912  13.649
46206W        W12637  17.726  41.005  13.892
46207W        W12638  32.842  28.382   1.963
46208W        W12639   3.804  15.113  13.806
46209W        W12640  11.950  34.631  14.965
46210W        W12641  16.656  10.118  12.536
46211W        W12642  20.969  38.068   3.599
46212W        W12643  35.527  29.851   3.352
46213W        W12644  42.948  35.800  10.857
46214W        W12645   0.267  36.842  14.968
46215W        W12646  24.010  39.878  11.149
46216W        W12647   8.161  44.935   1.285
46217W        W12648   2.730  20.787  11.899
46218W        W12649  31.433  33.602   2.471
46219W        W12650  21.617  24.643  10.830
46220W        W12651  20.188   1.014  13.791
46221W        W12652  25.889  22.085  13.402
46222W        W12653  19.240  26.144  14.056
46223W        W12654  38.322  41.529   3.733
46224W        W12655  10.523  19.694  14.051
46225W        W12656  41.179  16.560  12.108
46226W        W12657  15.616  14.554  12.036
46227W        W12658  12.228  15.673  14.161
46228W        W12659   1.353  26.053  11.789
46229W        W12660  38.367  27.069   3.795
46230W        W12661  24.566  44.052  11.185
46231W        W12662   9.205   7.710  11.485
46232W        W12663  25.041   6.812  13.465
46233W        W12664   4.940  28.313   2.871
46234W        W12665  15.820   3.873   1.889
46235W        W12666  39.258  24.916  10.667
46236W        W12667  20.032   9.107   2.206
46237W        W12668   9.897  11.045   0.362
46238W        W12669   6.439  25.941  14.557
46239W        W12670  31.457  41.001  13.022
46240W        W12671  32.068  40.281   2.932
46241W        W12672  22.112  12.911   1.893
46242W        W12673  18.278  28.472  13.933
46243W        W12674  11.135  18.349   0.785
46244W        W12675   9.409  13.285   1.848
46245W        W12676   1.719  43.645   1.974
46246W        W12677  19.088   6.221   3.954
46247W        W12678  37.527  24.562   2.926
46248W        W12679  13.096  28.629   4.075
46249W        W12680  40.818  35.703   2.400
46250W        W12681  16.588  37.395  14.400
46251W        W12682  43.792  13.116   2.468
46252W        W12683  18.803  26.182  11.417
46253W        W12684  31.986   9.249  11.252
46254W        W12685  30.982  40.933   0.464
46255W        W12686  10.214   7.991   4.086
46256W        W12687   0.694  33.712  11.661
46257W        W12688   9.892  31.502   3.763
46258W        W12689  31.488  25.707  11.358
46259W        W12690   0.737  20.187  10.703
46260W        W12691  26.210  19.255  14.864
46261W        W12692  40.319  17.838   0.911
46262W        W12693  17.558  40.828  10.996
46263W        W12694   0.492  37.847  14.470
46264W        W12695  21.865  34.684  11.959
46265W        W12696  11.763  36.455  13.028
46266W        W12697  32.620  31.062  13.472
46267W        W12698   1.810  32.550   4.613
46268W        W12699   1.337  35.904   4.616
46269W        W12700  20.656  40.085  13.146
46270W        W12701   9.867   8.367  10.779
46271W        W12702  36.146   2.004  11.196
46272W        W12703  34.956  25.422   3.655
46273W        W12704  19.703  32.202  14.048
46274W        W12705   3.129  18.788  13.712
46275W        W12706  24.977   0.089  14.514
46276W        W12707  24.898  24.615   2.954
46277W        W12708  15.665  29.668   3.872
46278W        W12709  33.625   1.756   0.196
46279W        W12710   4.896  35.830  13.872
46280W        W12711   0.924  40.250  10.837
46281W        W12712  10.139   4.792  12.057
46282W        W12713   4.221  14.134   3.140
46283W        W12714  37.466   2.751   3.127
46284W        W12715  29.952  44.415  12.058
46285W        W12716   3.291   6.091   0.499
46286W        W12717   9.755  11.875   2.655
46287W        W12718  30.536  20.113   3.887
46288W        W12719   1.428   1.859  11.477
46289W        W12720  23.147   8.225   4.927
46290W        W12721  14.635  30.627   1.297
46291W        W12722   6.815   6.910   1.438
46292W        W12723  40.632   9.212  13.095
46293W        W12724  40.621  40.343  11.609
46294W        W12725   5.366   9.461   2.726
46295W        W12726  25.309   4.482   4.471
46296W        W12727  23.443   6.757   1.873
46297W        W12728  33.926  39.502   4.245
46298W        W12729  40.762  18.692   1.432
46299W        W12730  33.148  14.130  12.586
46300W        W12731  43.957  20.362  13.413
46301W        W12732  41.413   7.139   3.228
46302W        W12733  11.755   5.001   3.546
46303W        W12734   9.615  36.418   3.809
46304W        W12735  44.973  28.634   1.991
46305W        W12736   3.993  29.638  12.447
46306W        W12737   0.559  44.793  13.884
46307W        W12738  34.078  33.182   0.629
46308W        W12739  32.464   6.455  14.921
46309W        W12740  20.086  44.565  10.996
46310W        W12741  38.294  28.029   3.726
46311W        W12742  26.767   0.289  13.985
46312W        W12743  35.512  11.317   4.507
46313W        W12744  23.712  15.890  14.254
46314W        W12745  11.889  31.133   3.599
46315W        W12746  17.702  37.936   1.819
46316W        W12747  30.585  40.798  14.966
46317W        W12748  36.705   5.479   1.685
46318W        W12749  24.127   9.550   4.822
46319W        W12750  30.577   7.760  13.010
46320W        W12751  10.790  41.839   1.970
46321W        W12752  20.023   6.950   3.728
46322W        W12753  33.186  32.749  11.546
46323W        W12754   0.910  17.554  14.306
46324W        W12755  38.680  11.276  12.132
46325W        W12756  13.649  43.800  13.562
46326W        W12757  12.105  16.558   0.027
46327W        W12758  44.938  13.584  14.427
46328W        W12759  17.486   3.362   9.845
46329W        W12760  40.950  19.670   3.724
46330W        W12761   9.742   6.808  12.226
46331W        W12762   7.838  11.466   0.322
46332W        W12763  29.418  20.621  10.728
46333W        W12764  19.130  10.212  11.001
46334W        W12765  16.120   5.659   1.405
46335W        W12766  18.895   0.975   3.154
46336W        W12767  30.508   3.413  14.288
46337W        W12768  26.986  12.155  14.425
46338W        W12769  12.358   1.351   0.258
46339W        W12770   3.981  41.016   4.531
46340W        W12771  19.728  19.356  12.138
46341W        W12772  19.014  16.701  13.874
46342W        W12773  37.895  33.649  11.027
46343W        W12774  17.322  18.284   3.198
46344W        W12775  41.271  32.664   0.956
46345W        W12776  31.126  43.779  13.950
46346W        W12777   2.663  30.570  11.261
46347W        W12778  35.945  36.439   4.274
46348W        W12779  29.083  35.624  10.819
46349W        W12780  27.797  27.843   1.313
46350W        W12781  12.764  41.370   2.407
46351W        W12782  29.358  15.624  11.146
46352W        W12783  22.951   1.872   0.738
46353W        W12784   9.950  35.320   4.403
46354W        W12785  39.372  40.386  12.087
46355W        W12786  14.242  34.444   3.627
46356W        W12787   6.851  33.679   2.306
46357W        W12788  17.099   5.184  12.192
46358W        W12789  15.713  21.021   2.309
46359W        W12790  26.956   2.964  13.902
46360W        W12791  10.410  18.215  14.057
46361W        W12792   8.220  14.203  11.695
46362W        W12793  13.283  42.872   0.515
46363W        W12794   3.730  22.494  11.829
46364W        W12795   8.635  36.560  12.165
46365W        W12796  38.174  29.782  10.355
46366W        W12797  19.017  10.250   4.545
46367W        W12798  29.547  40.853   1.327
46368W        W12799  35.115  37.595   0.801
46369W        W12800  38.087  29.376   1.606
46370W        W12801   2.998  43.697  11.111
46371W        W12802  32.291   8.353  13.908
46372W        W12803  44.991   0.039   2.224
46373W        W12804  40.209   1.602   4.553
46374W        W12805  43.703  27.215   0.841
46375W        W12806  44.219  17.832  12.332
46376W        W12807  32.465  38.594   0.672
46377W        W12808  34.503   3.622  12.039
46378W        W12809   5.255   3.857   4.002
46379W        W12810  24.965   7.249  10.668
46380W        W12811  30.106  42.312  13.457
46381W        W12812  43.012   4.829  12.438
46382W        W12813   2.971  43.715   0.852
46383W        W12814   2.837  32.062  13.955
46384W        W12815  20.623  35.898   3.103
46385W        W12816   9.307  20.534  13.519
46386W        W12817  35.807  30.131   2.685
46387W        W12818   0.642  43.095  13.548
46388W        W12819   7.285  41.155  11.614
46389W        W12820  20.114  40.512  12.094
46390W        W12821  34.317  12.905   1.439
46391W        W12822  21.996  41.503  13.901
46392W        W12823  43.328  28.843   2.248
46393W        W12824  31.437  22.504   3.709
46394W        W12825  15.562  34.724   4.227
46395W        W12826  18.272  43.095  14.008
46396W        W12827   0.215  34.508   4.925
46397W        W12828   1.845  28.683   4.944
46398W        W12829  41.719   3.998   3.586
46399W        W12830   4.848  15.456   0.055
46400W        W12831   3.308  20.426   1.397
46401W        W12832  13.864  29.155   2.040
46402W        W12833  13.599  21.787   0.433
46403W        W12834  43.831  18.440   1.771
46404W        W12835  27.951  33.197   0.983
46405W        W12836  23.816   6.043   0.902
46406W        W12837   7.810  34.946  12.456
46407W        W12838  38.999  32.005   3.303
46408W        W12839   1.591  21.721   1.727
46409W        W12840  23.039  44.791   0.755
46410W        W12841  15.300  25.970   2.426
46411W        W12842  30.670  23.307   0.995
46412W        W12843   8.530   2.526  14.465
46413W        W12844  39.330   3.401  14.403
46414W        W12845  25.613  37.518   4.370
46415W        W12846  24.077  18.508  13.787
46416W        W12847  42.532  37.504  11.286
46417W        W12848  39.874  23.737  13.601
46418W        W12849  20.364  35.755  13.881
46419W        W12850  18.362  11.616   2.286
46420W        W12851  20.508  15.580  11.601
46421W        W12852  38.372   2.850   3.084
46422W        W12853  28.909  22.059   4.222
46423W        W12854  23.775   9.261   1.099
46424W        W12855   8.376   0.957  11.890
46425W        W12856   4.197  25.197   4.407
46426W        W12857  43.907  37.434   2.433
46427W        W12858  40.946  15.185  11.248
46428W        W12859  17.756  40.031  13.323
46429W        W12860  26.947  25.589   1.928
46430W        W12861   7.985  18.220  11.891
46431W        W12862   1.498  10.915   4.087
46432W        W12863  36.719   4.852   1.662
46433W        W12864  10.414  20.291  14.833
46434W        W12865  20.898  29.377   3.286
46435W        W12866   7.690  38.636  14.323
46436W        W12867  36.054   0.991  11.108
46437W        W12868  33.118  36.448  13.864
46438W        W12869   4.969   8.115  12.024
46439W        W12870  17.189  21.659  14.865
46440W        W12871  44.240  32.009  13.126
46441W        W12872  32.645  43.427  12.474
46442W        W12873  25.969  24.181  11.626
46443W        W12874  25.174  10.872  11.883
46444W        W12875  12.451   7.254   2.066
46445W        W12876  19.637   6.288  14.845
46446W        W12877  39.389  11.925   3.518
46447W        W12878  18.393   9.858   2.911
46448W        W12879  33.912  43.418  13.918
46449W        W12880  37.299  44.625   0.164
46450W        W12881   4.800  26.385   1.745
46451W        W12882  17.278  44.009  12.778
46452W        W12883   9.011  22.414   0.758
46453W        W12884  10.727  13.161  12.645
46454W        W12885  33.919  35.971   1.237
46455W        W12886   7.357  41.274  12.125
46456W        W12887  17.019  40.463  14.291
46457W        W12888  35.068   4.481  12.046
46458W        W12889  39.089   9.201   2.284
46459W        W12890  21.098  40.594   2.329
46460W        W12891  43.371  24.982   1.472
46461W        W12892  21.757  12.613   0.402
46462W        W12893   8.794  17.748   3.250
46463W        W12894   5.857   9.029   3.825
46464W        W12895  28.070  43.941  12.737
46465W        W12896   2.769  14.726  14.505
46466W        W12897  11.347  35.537   3.251
46467W        W12898   6.335   4.159  11.674
46468W        W12899  44.298   5.812  11.218
46469W        W12900  19.679  18.579   4.098
46470W        W12901   8.407  10.965   1.636
46471W        W12902   6.451  38.945  12.923
46472W        W12903   2.874  27.059   3.063
46473W        W12904   7.145  18.701   1.431
46474W        W12905   2.486  33.784  13.293
46475W        W12906  37.503  35.982  10.641
46476W        W12907  24.392  36.435  12.584
46477W        W12908   1.957  12.590   1.257
46478W        W12909   4.433   0.777  11.020
46479W        W12910  33.056   0.102   4.827
46480W        W12911  34.086  30.881   3.174
46481W        W12912   0.318   2.022   0.660
46482W        W12913  25.061  43.828  11.164
46483W        W12914   2.781  42.781   1.836
46484W        W12915   7.354  33.976  10.737
46485W        W12916  36.968  37.534  11.432
46486W        W12917  27.059  26.216   0.356
46487W        W12918   7.750  23.912  10.705
46488W        W12919  21.453  27.892   1.183
46489W        W12920  25.952  26.698   2.962
46490W        W12921  32.147  20.216  11.964
46491W        W12922  26.466  24.424  11.677
46492W        W12923  22.073  37.176   0.245
46493W        W12924  31.442  14.096   4.747
46494W        W12925  14.355   6.910   3.326
46495W        W12926   1.399  39.329  14.016
46496W        W12927   8.315  25.706   2.496
46497W        W12928  15.347  44.810  14.846
46498W        W12929  44.856  16.254  13.997
46499W        W12930  20.874  35.882   1.525
46500W        W12931  36.095   1.787  12.516
46501W        W12932   5.130  37.528  14.883
46502W        W12933  35.760  20.146  11.789
46503W        W12934  13.393   6.327  13.793
46504W        W12935  18.910  43.501  12.656
46505W        W12936  42.986  40.330   3.390
46506W        W12937  20.993   1.392   2.766
46507W        W12938  44.344  31.820   3.226
46508W        W12939   2.464  28.924   3.733
46509W        W12940  10.875  38.860  12.548
46510W        W12941   3.265  31.686  14.982
46511W        W12942  15.330  27.215   3.109
46512W        W12943   7.345  31.872  12.452
46513W        W12944  19.307  13.079   2.859
46514W        W12945  13.179  24.851   3.597
46515W        W12946  35.045  17.128   2.385
46516W        W12947  42.507   8.124  12.625
46517W        W12948   8.608  12.242   3.195
46518W        W12949  30.818  44.742  11.025
46519W        W12950  33.884  31.511  11.959
46520W        W12951  43.224  23.565  11.189
46521W        W12952  13.664  12.293   1.457
46522W        W12953  18.645  14.789  12.721
46523W        W12954  23.250  28.079   4.015
46524W        W12955  26.958  27.563  12.026
46525W        W12956  18.009  31.639   1.351
46526W        W12957  27.066  26.206   4.403
46527W        W12958  17.397  33.307  14.893
46528W        W12959   8.110   0.945   2.803
46529W        W12960   0.216  33.938   1.849
46530W        W12961  40.336  28.987   1.814
46531W        W12962  34.010   3.715   4.683
46532W        W12963  31.870  29.451   3.607
46533W        W12964  23.710  36.569   3.684
46534W        W12965   2.756   9.649   4.284
46535W        W12966   2.049  24.599   1.194
46536W        W12967  21.481  13.664   0.841
46537W        W12968  10.119   1.817  13.079
46538W        W12969  41.278  20.779  11.104
46539W        W12970  41.677  29.990  12.158
46540W        W12971  22.915  20.855   4.281
46541W        W12972  18.602  15.135  13.100
46542W        W12973  30.378  21.218  13.474
46543W        W12974  35.836  17.032  11.541
46544W        W12975   2.343   9.676  14.039
46545W        W12976  16.238  41.443   1.286
46546W        W12977  38.559  37.096   3.619
46547W        W12978  33.420  14.297  13.906
46548W        W12979  24.566  43.215  11.771
46549W        W12980  44.520  21.691  12.581
46550W        W12981   8.132  26.553   3.335
46551W        W12982  21.861  12.362  13.053
46552W        W12983  44.197  29.142   0.907
46553W        W12984   1.364  13.100   1.201
46554W        W12985  32.537  30.665  13.809
46555W        W12986  18.462  32.978   2.313
46556W        W12987  23.528  39.850  14.259
46557W        W12988  44.931  26.070  11.951
46558W        W12989  29.024  16.087  12.164
46559W        W12990   9.524   3.810   1.107
46560W        W12991  21.602  10.252  13.397
46561W        W12992   3.736  26.445  14.314
46562W        W12993   2.902   2.651   2.294
46563W        W12994   4.180  24.085   3.950
46564W        W12995   5.327  24.047   0.680
46565W        W12996  23.242   2.720  14.375
46566W        W12997   8.052  12.694  11.122
46567W        W12998  28.505  29.466  11.591
46568W        W12999  38.976   1.426  10.340
46569W        W13000  16.169   7.633   0.189
46570W        W13001   7.205  38.812   2.522
46571W        W13002  21.196  37.457  13.536
46572W        W13003  36.135  13.785  13.073
46573W        W13004   8.838   2.255   3.273
46574W        W13005  36.457   6.215   1.187
46575W        W13006   8.722  22.164  10.399
46576W        W13007  29.180  31.035  13.957
46577W        W13008  40.427   4.817   2.844
46578W        W13009  17.353  21.278  12.421
46579W        W13010  12.117  28.158  13.168
46580W        W13011  27.957   9.305  13.320
46581W        W13012   2.787  28.417   0.405
46582W        W13013  22.251   5.310   1.855
46583W        W13014  13.234   4.196  12.349
46584W        W13015  18.197  11.628  13.362
46585W        W13016  21.438   3.782   2.194
46586W        W13017   2.264  35.067   1.313
46587W        W13018  22.923   9.386  12.870
46588W        W13019  25.550  27.659  13.436
46589W        W13020  31.856   3.888   4.554
46590W        W13021  23.603   0.121   1.532
46591W        W13022  36.631   1.392  12.964
46592W        W13023   7.042  19.032   0.732
46593W        W13024   3.891   7.384  12.567
46594W        W13025  12.538  28.191  12.854
46595W        W13026   9.873  39.335  11.574
46596W        W13027  11.007  33.522  12.950
46597W        W13028   4.601   3.815  10.638
46598W        W13029   1.197  11.397  11.072
46599W        W13030  18.302  32.042  10.727
46600W        W13031  10.515  37.519  10.497
46601W        W13032   4.773  23.521   2.296
46602W        W13033   5.983  22.499  10.798
46603W        W13034  17.183  28.152  13.358
46604W        W13035  15.073   9.740  14.995
46605W        W13036  43.465  30.065  13.354
46606W        W13037  30.119  38.860  14.432
46607W        W13038  26.113  14.721   4.327
46608W        W13039  34.007   8.545   2.356
46609W        W13040  16.717  35.606  14.343
46610W        W13041  17.916   5.384  10.554
46611W        W13042  42.586  35.494   1.397
46612W        W13043  17.662  18.787  12.072
46613W        W13044  19.821  14.914   2.292
46614W        W13045  30.669  10.249  12.774
46615W        W13046  25.911  20.036   4.134
46616W        W13047   1.562  23.771   1.654
46617W        W13048  20.716  39.557  13.927
46618W        W13049   6.377  29.758   3.552
46619W        W13050  14.628  10.284   3.741
46620W        W13051  38.964  43.915   3.540
46621W        W13052  33.541  29.867   0.782
46622W        W13053  43.683  16.118   0.944
46623W        W13054  32.435   0.399  11.616
46624W        W13055   5.288  35.886   2.148
46625W        W13056  22.849   8.855   0.784
46626W        W13057  33.882  26.491   1.262
46627W        W13058  39.146  11.529  10.618
46628W        W13059  10.113  16.205   9.919
46629W        W13060   0.861   3.024  13.019
46630W        W13061  21.553  19.502   3.749
46631W        W13062  40.434  44.452  14.067
46632W        W13063  25.465  43.309   2.939
46633W        W13064  44.477  38.791   0.106
46634W        W13065   8.946  16.314  10.834
46635W        W13066  21.622  35.155   2.760
46636W        W13067  34.825  20.424   0.926
46637W        W13068   6.849  43.957  14.493
46638W        W13069  25.477  42.769   1.342
46639W        W13070   2.439  37.734   1.957
46640W        W13071  42.860   5.716  11.649
46641W        W13072   8.537  13.452  12.110
46642W        W13073   6.949   9.728   4.031
46643W        W13074  41.691  16.793   3.522
46644W        W13075  30.121  44.460   3.443
46645W        W13076  28.987   5.882  10.770
46646W        W13077   6.075  26.468   4.970
46647W        W13078  32.296  36.088  11.707
46648W        W13079  30.134   1.551   3.866
46649W        W13080  25.292  36.154   3.683
46650W        W13081  31.452  37.418   1.657
46651W        W13082  20.302  17.433   1.316
46652W        W13083  26.705  41.446   1.535
46653W        W13084  15.655   2.472  12.475
46654W        W13085  23.237   5.900  12.462
46655W        W13086  42.015  35.087  13.075
46656W        W13087  41.375  23.207   4.543
46657W        W13088   3.372  25.530   2.778
46658W        W13089  29.515   0.066  10.844
46659W        W13090  40.887  29.602   4.584
46660W        W13091  16.169  12.264  11.433
46661W        W13092  15.733  22.527   1.920
46662W        W13093  10.315   2.604  13.441
46663W        W13094  38.479  35.318  14.951
46664W        W13095  40.819  41.298   3.151
46665W        W13096  42.765  26.136  11.157
46666W        W13097  10.023  17.070   2.681
46667W        W13098   4.307  24.193  12.327
46668W        W13099  34.507  43.259   4.336
46669W        W13100   0.034  10.710  13.515
46670W        W13101  31.042  42.308  10.790
46671W        W13102  17.879   6.396  14.590
46672W        W13103   5.724  33.432   4.050
46673W        W13104  39.759   4.934  12.911
46674W        W13105   4.259  12.334  13.558
46675W        W13106  11.784  32.971   1.090
46676W        W13107  42.530  22.415  13.439
46677W        W13108  39.478   4.886  13.766
46678W        W13109  27.891  25.360   0.290
46679W        W13110   9.835  33.501   0.291
46680W        W13111  35.975  34.529  11.173
46681W        W13112  21.199  30.978   4.917
46682W        W13113   4.720   6.324  13.242
46683W        W13114  16.828   1.856  10.975
46684W        W13115  22.193   0.865   3.780
46685W        W13116  43.297  36.607  11.207
46686W        W13117  40.874  42.215  11.679
46687W        W13118  32.633  33.997   3.724
46688W        W13119   8.360  15.366   2.420
46689W        W13120  10.615  33.062  13.593
46690W        W13121  36.047   0.760  10.661
46691W        W13122  25.592  19.209   3.527
46692W        W13123   8.863   8.676   1.613
46693W        W13124  40.390  26.465   3.782
46694W        W13125   0.284  16.267   2.407
46695W        W13126   8.946   7.022   3.720
46696W        W13127  25.463  16.699   1.027
46697W        W13128  26.043  42.333  12.904
46698W        W13129   3.331  18.311   3.757
46699W        W13130  43.720   5.934   4.509
46700W        W13131   1.506   3.049   1.870
46701W        W13132  36.321   2.725   4.363
46702W        W13133  16.618  39.085  14.816
46703W        W13134   2.824  15.115  11.092
46704W        W13135   4.839  43.385   4.660
46705W        W13136  20.258  16.829  13.414
46706W        W13137  34.954  32.445   4.538
46707W        W13138  30.121  42.985  13.969
46708W        W13139  32.107  28.385  11.576
46709W        W13140  35.047  43.743  11.004
46710W        W13141  14.976  26.976  12.359
46711W        W13142  19.097   9.420   3.745
46712W        W13143  16.288   5.601   0.451
46713W        W13144   0.264  44.873   2.686
46714W        W13145  35.546  10.675  13.152
46715W        W13146  40.330  20.512  12.072
46716W        W13147  15.228   8.337   4.584
46717W        W13148  26.575   3.751   2.617
46718W        W13149  44.122  40.951  11.183
46719W        W13150  22.683  16.129  12.032
46720W        W13151  38.457  24.236   3.146
46721W        W13152  37.831   4.919  12.472
46722W        W13153  13.786  14.103   4.898
46723W        W13154   4.750  43.413   3.094
46724W        W13155  40.348   4.591   3.300
46725W        W13156  12.275   7.660  12.042
46726W        W13157  12.802  38.483   2.927
46727W        W13158   0.540  22.113   4.538
46728W        W13159  16.009  37.526  12.026
46729W        W13160  21.255  30.857   0.901
46730W        W13161  30.407  18.678   0.043
46731W        W13162  38.558  23.602   3.860
46732W        W13163  24.079  30.202   3.857
46733W        W13164  16.631   7.285  13.456
46734W        W13165  22.069  22.566  12.351
46735W        W13166  14.345  38.883  12.593
46736W        W13167   8.131  41.479  10.698
46737W        W13168   2.499  15.731   3.694
46738W        W13169  40.348   7.157  12.884
46739W        W13170   1.416  37.860  13.967
46740W        W13171  14.725  39.362   4.519
46741W        W13172   8.803  32.487  14.552
46742W        W13173  43.953   6.165  14.894
46743W        W13174  36.909  20.972  11.448
46744W        W13175  21.494  22.245  11.988
46745W        W13176  23.234  36.013   3.739
46746W        W13177   5.132   7.940   4.550
46747W        W13178  20.648  25.336  12.484
46748W        W13179   0.523  34.118  14.599
46749W        W13180  39.391  10.008   4.689
46750W        W13181  30.586  30.577   0.855
46751W        W13182  44.717  35.402   0.069
46752W        W13183  44.409  27.152  14.474
46753W        W13184  10.900   7.781  14.866
46754W        W13185   8.105  42.495  13.719
46755W        W13186   6.324   2.838  10.743
46756W        W13187  26.263  33.835  14.784
46757W        W13188  28.673  19.585   4.135
46758W        W13189  38.592  36.491   4.271
46759W        W13190  44.849   7.352  10.761
46760W        W13191  41.203  31.113   4.116
46761W        W13192  42.712   4.725  12.818
46762W        W13193  34.663  39.670  14.999
46763W        W13194  10.765  27.508   3.380
46764W        W13195  19.392  30.405  13.886
46765W        W13196  40.325   6.670  10.727
46766W        W13197  18.006  12.498  14.008
46767W        W13198  20.088  15.567   1.285
46768W        W13199  27.542  40.490  12.570
46769W        W13200  41.835  11.123  13.017
46770W        W13201   7.196  26.038   3.370
46771W        W13202  14.700  15.011   2.787
46772W        W13203   5.899   5.936   1.477
46773W        W13204  36.767  36.075  11.156
46774W        W13205  35.845   5.188  14.884
46775W        W13206  39.834  14.159  12.005
46776W        W13207  42.986   6.104  11.940
46777W        W13208  42.135  18.672  11.183
46778W        W13209  13.279  42.002   3.411
46779W        W13210  38.495  22.691   4.951
46780W        W13211  38.374  12.194   4.450
46781W        W13212   3.318  44.974  14.275
46782W        W13213  25.808  12.503  10.432
46783W        W13214  19.765  29.168   0.017
46784W        W13215  17.887  13.998  13.040
46785W        W13216  18.578  14.786  14.415
46786W        W13217  24.835  24.535   0.449
46787W        W13218  31.194  36.332  14.893
46788W        W13219   9.246  25.700   0.334
46789W        W13220  12.588   1.465  13.932
46790W        W13221  40.422  21.815   0.532
46791W        W13222   9.995  32.763  12.844
46792W        W13223  20.912  15.574   4.890
46793W        W13224  36.204  18.016   3.587
46794W        W13225  38.326  12.416   2.189
46795W        W13226   5.774   3.306   2.997
46796W        W13227  10.562  17.552   0.338
46797W        W13228  28.701  24.196   0.331
46798W        W13229  15.642   6.113   0.811
46799W        W13230  22.431   5.932  14.847
46800W        W13231  10.903  21.377  13.971
46801W        W13232  28.962  18.794   3.170
46802W        W13233  27.443  36.555  10.785
46803W        W13234  13.785   1.591  11.421
46804W        W13235  27.144   7.661   3.064
46805W        W13236   2.980  22.535  14.392
46806W        W13237  37.548  10.218   4.539
46807W        W13238  13.880  24.200  12.095
46808W        W13239  13.440  30.711  11.137
46809W        W13240  11.579  20.493  14.322
46810W        W13241  40.350  29.988   5.549
46811W        W13242  41.090  14.572   2.802
46812W        W13243  42.789  27.562   4.568
46813W        W13244  37.546  12.725  12.953
46814W        W13245   5.163  42.515  11.264
46815W        W13246   2.390   0.451   0.896
46816W        W13247  22.914  34.117   3.914
46817W        W13248  19.395   4.847  13.015
46818W        W13249  15.400   1.216   0.505
46819W        W13250  24.190   2.288   1.278
46820W        W13251   6.910  13.023  13.938
46821W        W13252   5.117   1.883  10.763
46822W        W13253  22.579  35.136   0.376
46823W        W13254  17.810  27.489  13.328
46824W        W13255  30.050  18.803   2.234
46825W        W13256  24.067  36.084  12.362
46826W        W13257  27.771  10.811   1.943
46827W        W13258   0.871  29.182  10.816
46828W        W13259  32.911   2.884   4.617
46829W        W13260  34.303   5.830   2.778
46830W        W13261  24.230  36.548   2.919
46831W        W13262  22.651   7.009   3.207
46832W        W13263  28.159  37.900  14.249
46833W        W13264  14.183  30.068  13.975
46834W        W13265  36.499  35.036   3.528
46835W        W13266  28.104  17.166   5.013
46836W        W13267   5.424  30.542   4.575
46837W        W13268  16.639  28.935   3.483
46838W        W13269  17.577  29.067   1.253
46839W        W13270   5.843  29.997  10.555
46840W        W13271  41.871   2.628  12.404
46841W        W13272   5.981  32.934   3.984
46842W        W13273  29.884   0.822  10.845
46843W        W13274   9.662  35.693   4.207
46844W        W13275   0.211  13.176  10.774
46845W        W13276  23.454  26.673   0.450
46846W        W13277   2.142  37.075   1.248
46847W        W13278  19.468   0.583   2.506
46848W        W13279  37.484  42.095  11.690
46849W        W13280  17.259  24.018   0.303
46850W        W13281   7.307  43.845   2.375
46851W        W13282  41.033  14.332  14.470
46852W        W13283   6.544  26.449   5.210
46853W        W13284  36.915  31.111  13.991
46854W        W13285  13.744  20.529   3.717
46855W        W13286  31.023  25.889  11.577
46856W        W13287  42.644  42.380  10.834
46857W        W13288   9.919  27.147   1.441
46858W        W13289  42.308  21.719  11.069
46859W        W13290  29.241   0.412   0.423
46860W        W13291  10.904  10.781   0.052
46861W        W13292  30.079  13.792  14.340
46862W        W13293  12.313  31.957   4.430
46863W        W13294  33.044  23.589   3.841
46864W        W13295  24.258   8.839   0.912
46865W        W13296  37.046   7.384  13.562
46866W        W13297  19.278  19.463  10.637
46867W        W13298  10.722  40.827  12.357
46868W        W13299  41.333   2.937  10.617
46869W        W13300  32.454  35.198  11.635
46870W        W13301  25.024  28.674  13.359
46871W        W13302   5.423   5.198  11.281
46872W        W13303  35.776  35.788  13.439
46873W        W13304  27.592  15.572   2.390
46874W        W13305  24.070  44.601   4.194
46875W        W13306  31.991  35.040  13.446
46876W        W13307   7.670  31.829  13.758
46877W        W13308   1.011  29.525   2.839
46878W        W13309  25.798   4.712  12.481
46879W        W13310  23.925   6.937  12.093
46880W        W13311  32.626  11.485   9.652
46881W        W13312  32.061   7.418  11.590
46882W        W13313  12.801  41.690   0.640
46883W        W13314   3.847  32.491  12.840
46884W        W13315  14.929  28.708   1.698
46885W        W13316  40.734  40.176  13.133
46886W        W13317  12.344  35.534   1.732
46887W        W13318  43.542  43.072  12.174
46888W        W13319   2.458  27.618  13.104
46889W        W13320  35.098  32.650  12.168
46890W        W13321  31.955  13.120  11.546
46891W        W13322  34.524  15.424  14.356
46892W        W13323  39.359  18.734   4.055
46893W        W13324  37.173  28.439  14.447
46894W        W13325  21.257  30.989   1.802
46895W        W13326   2.864  22.248  10.840
46896W        W13327   0.516   1.344  11.979
46897W        W13328  16.052  29.681   1.875
46898W        W13329   7.413  15.628   3.309
46899W        W13330   9.853  26.693   4.692
46900W        W13331  31.382  13.569  13.468
46901W        W13332  22.134  23.443  11.907
46902W        W13333  16.347   2.795   4.017
46903W        W13334   0.872  20.765   0.356
46904W        W13335   0.033   0.895  14.359
46905W        W13336  36.356  14.633  14.331
46906W        W13337  38.193   7.848   4.770
46907W        W13338  15.952  19.137  13.403
46908W        W13339  24.723  10.635  11.882
46909W        W13340  30.383  39.134   5.047
46910W        W13341   0.375  33.484  12.024
46911W        W13342  12.913  18.284  12.867
46912W        W13343  37.335  10.831  14.306
46913W        W13344  42.494  35.362   4.197
46914W        W13345  33.270  19.149  13.183
46915W        W13346  25.239  36.953  13.107
46916W        W13347   6.507  23.131  13.474
46917W        W13348  18.334  23.647   2.940
46918W        W13349  27.943  17.419  13.412
46919W        W13350  31.848  32.146   2.760
46920W        W13351  43.835  18.564   3.201
46921W        W13352  39.100  20.125  12.408
46922W        W13353  36.558  31.960   0.710
46923W        W13354  14.613  14.871  11.148
46924W        W13355  44.729  41.337  11.137
46925W        W13356   7.785  27.350   1.342
46926W        W13357  44.808  40.062  14.105
46927W        W13358  31.372  11.114   2.489
46928W        W13359   0.866  19.945   2.570
46929W        W13360  18.953  39.712   0.236
46930W        W13361  25.706  14.970   1.188
46931W        W13362  32.608  28.686   1.503
46932W        W13363   5.655   3.734   0.274
46933W        W13364   7.155  20.605   0.590
46934W        W13365  22.437  43.878  10.292
46935W        W13366  42.943   1.430  13.284
46936W        W13367  11.163  25.455   3.036
46937W        W13368  14.044  29.958  14.997
46938W        W13369  42.261  21.195  11.101
46939W        W13370  26.912   9.398  13.218
46940W        W13371   9.680  16.555   1.226
46941W        W13372   1.787   6.237  14.249
46942W        W13373  31.592  11.228   4.412
46943W        W13374   9.801  32.391  12.548
46944W        W13375  40.835  31.222   0.362
46945W        W13376   5.365  33.087  10.753
46946W        W13377  44.296  14.517  14.788
46947W        W13378  11.301   0.958   3.494
46948W        W13379  44.561  19.573  13.333
46949W        W13380  14.890  37.780   5.070
46950W        W13381  14.872  40.281  12.652
46951W        W13382  23.664   4.739   0.382
46952W        W13383  23.291  25.277   0.652
46953W        W13384  18.504   4.832   2.422
46954W        W13385   3.720  17.633   2.513
46955W        W13386  29.375  41.646   1.955
46956W        W13387  30.024  35.198  14.358
46957W        W13388   4.037   1.048   3.287
46958W        W13389  41.293  35.864   1.234
46959W        W13390  26.806   4.338   4.548
46960W        W13391   6.523  21.774   0.821
46961W        W13392   7.270   8.703   4.031
46962W        W13393  35.167   2.473  12.485
46963W        W13394  38.938  38.653  14.017
46964W        W13395  31.400   0.193  11.482
46965W        W13396  31.649  39.843   4.553
46966W        W13397  20.665  13.597  12.493
46967W        W13398  14.179  31.159  11.598
46968W        W13399   7.682  41.780   0.432
46969W        W13400   3.507  18.233   0.284
46970W        W13401  17.592  28.465  11.635
46971W        W13402   0.364  42.304   0.948
46972W        W13403  26.069   2.291   3.279
46973W        W13404   4.726  35.908   1.938
46974W        W13405  25.466  44.261   0.035
46975W        W13406  26.645  11.929   3.782
46976W        W13407  32.688  31.014  10.732
46977W        W13408  12.079  35.619  12.071
46978W        W13409  20.981  39.531  12.073
46979W        W13410   4.378  35.116   1.357
46980W        W13411   0.167  13.747  11.650
46981W        W13412  13.577  13.894   2.917
46982W        W13413   7.205   8.122  12.500
46983W        W13414  21.827  42.519  13.885
46984W        W13415  15.655   5.301   2.720
46985W        W13416  31.196  12.328  12.476
46986W        W13417  15.205  26.372   2.737
46987W        W13418  37.442  30.033   0.677
46988W        W13419  14.564  13.773   3.271
46989W        W13420  36.658  37.067   9.791
46990W        W13421  40.968   5.706  14.785
46991W        W13422  41.642  11.707  10.262
46992W        W13423  21.196  27.095   1.740
46993W        W13424  10.793  39.090   1.410
46994W        W13425  31.644  25.011   4.732
46995W        W13426  43.019  24.263  13.952
46996W        W13427   0.852  39.587   1.349
46997W        W13428  18.832  39.327   2.365
46998W        W13429  37.155  23.148   1.647
46999W        W13430  41.474  41.313   0.832
47000W        W13431  19.185   5.236  11.011
47001W        W13432  36.540  39.964   1.006
47002W        W13433   0.590   1.785  11.079
47003W        W13434   2.641  25.970   3.452
47004W        W13435  38.520  31.745   4.162
47005W        W13436  21.522  42.221  13.569
47006W        W13437   7.495  30.683  11.282
47007W        W13438  31.203  20.980   0.810
47008W        W13439  24.192  30.987  13.519
47009W        W13440   2.177   0.481   3.100
47010W        W13441  11.362  39.039   4.168
47011W        W13442  32.913   0.722   2.253
47012W        W13443   2.879  20.507   3.786
47013W        W13444   0.916  18.659  13.544
47014W        W13445  35.055  17.304  14.422
47015W        W13446  15.799  25.121   1.192
47016W        W13447   4.243  36.562   1.455
47017W        W13448  38.811  41.120  12.985
47018W        W13449   2.520  28.323   0.828
47019W        W13450  11.701   5.453   2.601
47020W        W13451   5.368  25.742  12.591
47021W        W13452   8.015  23.879   1.861
47022W        W13453  42.993  38.438   3.701
47023W        W13454  39.851  25.645   3.353
47024W        W13455  36.836  39.464   1.224
47025W        W13456  34.534  24.364  11.129
47026W        W13457  36.457  40.345  14.364
47027W        W13458  11.075  24.283   4.085
47028W        W13459  40.791  38.374  11.222
47029W        W13460  40.359  25.460  13.920
47030W        W13461   9.127  42.845  12.871
47031W        W13462   5.478  30.518   0.849
47032W        W13463  34.404  39.756   4.217
47033W        W13464  22.173  27.224  12.644
47034W        W13465   2.723  22.359   3.568
47035W        W13466  32.458  22.007   3.550
47036W        W13467  38.063  11.800   0.376
47037W        W13468  11.921  16.789   1.852
47038W        W13469   9.183  29.563  14.863
47039W        W13470  40.008  32.552   2.325
47040W        W13471   3.967  34.478  12.515
47041W        W13472  24.486  19.331  14.668
47042W        W13473  20.956  10.355   3.155
47043W        W13474  41.316   3.674   0.731
47044W        W13475   8.937  23.875  12.494
47045W        W13476  28.406   4.422  13.261
47046W        W13477  19.803  22.051  11.958
47047W        W13478   6.041  33.243  13.411
47048W        W13479   9.970  16.270  11.652
47049W        W13480  31.993  25.081   3.411
47050W        W13481  34.805  18.657   1.477
47051W        W13482  22.238  13.664   2.394
47052W        W13483   3.270  20.720   4.372
47053W        W13484  23.617  18.233   3.033
47054W        W13485  32.406   5.745   0.385
47055W        W13486  10.766   9.822  10.606
47056W        W13487  18.940   3.917  10.639
47057W        W13488   6.931  13.573   2.906
47058W        W13489   7.415  14.060   0.606
47059W        W13490  16.968  28.824  13.795
47060W        W13491   6.480  32.893   4.236
47061W        W13492  27.638  25.147   0.687
47062W        W13493   4.160  30.739  12.537
47063W        W13494  33.230  29.356   4.143
47064W        W13495  22.616  42.337  12.651
47065W        W13496  26.466  12.619  13.912
47066W        W13497  26.899  21.729   0.216
47067W        W13498  18.358   0.267  14.901
47068W        W13499   3.689  35.852  11.977
47069W        W13500  26.059  40.926  13.287
47070W        W13501  16.064  42.025  14.811
47071W        W13502  27.187  32.339  13.507
47072W        W13503  42.336  16.359   0.544
47073W        W13504  27.447  22.227   1.493
47074W        W13505  34.010  16.320  11.006
47075W        W13506   3.330  34.131   3.724
47076W        W13507  22.985  43.027  11.569
47077W        W13508  41.899  40.385  13.403
47078W        W13509  30.460  31.551  13.373
47079W        W13510  27.310  39.356  12.699
47080W        W13511  10.562  36.841   0.869
47081W        W13512  35.543  40.493  12.299
47082W        W13513  15.259  17.504   2.137
47083W        W13514  23.155  36.368   0.217
47084W        W13515  39.217  29.116   2.940
47085W        W13516   9.619   4.573  14.854
47086W        W13517  36.028   6.728   2.676
47087W        W13518   4.624  33.610   4.148
47088W        W13519  17.363  12.767   1.813
47089W        W13520  25.247  24.782   4.579
47090W        W13521  15.616  21.949   3.225
47091W        W13522  24.154  30.671  10.277
47092W        W13523  11.031  15.491  10.657
47093W        W13524  25.137  35.554   0.743
47094W        W13525  11.788  30.740  13.111
47095W        W13526  38.085  16.789   0.979
47096W        W13527   0.516  27.450  14.929
47097W        W13528   3.292  11.589  11.720
47098W        W13529   6.910  16.827  14.078
47099W        W13530  43.733  39.107   3.790
47100W        W13531  19.966  14.224  13.949
47101W        W13532  43.801  20.260   2.768
47102W        W13533  21.636  30.701  13.438
47103W        W13534  44.842  36.328  14.169
47104W        W13535  30.050   6.646   0.486
47105W        W13536  24.223  21.031   4.147
47106W        W13537   6.158  31.555  12.405
47107W        W13538  35.424  24.267   1.364
47108W        W13539  31.949  12.388   2.131
47109W        W13540  10.516  33.193   2.820
47110W        W13541  20.680   7.546   2.389
47111W        W13542   0.131  30.545  12.637
47112W        W13543  34.072  23.908  13.220
47113W        W13544  22.128  27.582  11.029
47114W        W13545   9.371  31.942  14.598
47115W        W13546  38.241   6.851  11.628
47116W        W13547  39.833   0.843  14.444
47117W        W13548  34.004  30.986   2.243
47118W        W13549   6.348   0.501   2.301
47119W        W13550  14.354  27.445  11.127
47120W        W13551  23.388  33.005   1.800
47121W        W13552   2.963  35.936  11.521
47122W        W13553   0.871  32.343  13.935
47123W        W13554  28.736  34.369   1.685
47124W        W13555   5.315  37.097  11.968
47125W        W13556  22.991  20.275   1.848
47126W        W13557   2.468  35.538   0.491
47127W        W13558  41.895  24.507  12.722
47128W        W13559  43.882   7.185   1.157
47129W        W13560  13.160  35.524  11.622
47130W        W13561  10.214  20.114   0.291
47131W        W13562  19.559  21.219  14.473
47132W        W13563  29.223  34.415  11.206
47133W        W13564  42.157   3.028   2.646
47134W        W13565  43.007  14.095  11.992
47135W        W13566  16.491  32.256  12.878
47136W        W13567   7.682   7.847  14.606
47137W        W13568  42.108  42.190   3.355
47138W        W13569  22.607  20.783  12.925
47139W        W13570  17.926   6.259  12.902
47140W        W13571  27.905  16.851   0.902
47141W        W13572  41.811  28.900  10.309
47142W        W13573  21.679  28.964   3.337
47143W        W13574   3.897  30.936   2.720
47144W        W13575  32.574  15.871  12.173
47145W        W13576  44.326   7.892   0.758
47146W        W13577  39.243  33.413   4.503
47147W        W13578   3.938  26.133   3.177
47148W        W13579  16.028  27.851   1.701
47149W        W13580  32.905   3.309   1.868
47150W        W13581  24.796  29.969   3.323
47151W        W13582  32.023   5.458  14.491
47152W        W13583  15.699  20.529   2.115
47153W        W13584  36.323  14.085  13.848
47154W        W13585  35.925  32.989   4.170
47155W        W13586  22.346   2.491  10.812
47156W        W13587  43.796   1.341   2.145
47157W        W13588  27.094  27.219   2.187
47158W        W13589  24.435  23.784  14.507
47159W        W13590  10.208  37.203   0.994
47160W        W13591  20.918  15.188   3.751
47161W        W13592  38.171   0.419  11.967
47162W        W13593  20.633  37.497  12.511
47163W        W13594  22.540  17.126   2.721
47164W        W13595   0.072  40.545   4.567
47165W        W13596  15.884   5.957  10.333
47166W        W13597  23.568  29.672   2.868
47167W        W13598  16.241  29.185  12.038
47168W        W13599  18.833  41.394  14.417
47169W        W13600  22.429   0.371  11.061
47170W        W13601   4.535   5.956  10.787
47171W        W13602  23.987  43.408  13.046
47172W        W13603   3.814  13.790  11.693
47173W        W13604  33.008   3.337  14.733
47174W        W13605  26.286  18.333  10.566
47175W        W13606  10.656   9.357   2.321
47176W        W13607  28.967  17.289   1.313
47177W        W13608  14.898  24.570   4.062
47178W        W13609  19.033  38.988   1.721
47179W        W13610  33.646   7.413  10.428
47180W        W13611   8.030  43.539   4.144
47181W        W13612  15.849  25.563   1.462
47182W        W13613  11.340   5.986  11.168
47183W        W13614   2.837   0.315   2.331
47184W        W13615   9.957  43.866  13.056
47185W        W13616  19.604  39.801  13.492
47186W        W13617  33.376  13.405  11.417
47187W        W13618  42.045  18.264   2.966
47188W        W13619  15.006  15.261  11.053
47189W        W13620  43.016  25.702   2.715
47190W        W13621  27.992  43.092  12.696
47191W        W13622   9.150   0.321  11.091
47192W        W13623  16.212  40.342  12.825
47193W        W13624  34.583  40.903  12.154
47194W        W13625  18.206  43.845  12.847
47195W        W13626  26.908  22.774   2.230
47196W        W13627   5.030  27.499  12.133
47197W        W13628  23.608  17.834   2.694
47198W        W13629   3.281   2.013  10.793
47199W        W13630  15.554   2.694   0.226
47200W        W13631  15.038   2.759   2.185
47201W        W13632  36.489  14.072   2.841
47202W        W13633  23.314  26.827   9.787
47203W        W13634  37.110  33.356  11.928
47204W        W13635   2.637   1.453   5.159
47205W        W13636  24.252  39.835  12.920
47206W        W13637   5.260  19.739  14.722
47207W        W13638  21.280  38.928  14.503
47208W        W13639  23.737  18.839  12.491
47209W        W13640  31.710  16.159   0.914
47210W        W13641  14.094  32.069  10.567
47211W        W13642  10.297  38.725  10.560
47212W        W13643  21.348  25.962   0.870
47213W        W13644  31.884  26.956   1.289
47214W        W13645  34.029   5.150   4.437
47215W        W13646  21.743  28.761   0.028
47216W        W13647  21.247  31.568   3.741
47217W        W13648  25.491   7.283  10.744
47218W        W13649  41.838   5.848  13.671
47219W        W13650   9.241  41.663   3.402
47220W        W13651  26.626  30.543   1.239
47221W        W13652  20.301   8.605   0.495
47222W        W13653  37.511   6.300   4.786
47223W        W13654  36.015  40.434  12.090
47224W        W13655  11.290  26.728   1.427
47225W        W13656   2.102   2.480  10.969
47226W        W13657   0.895  13.914   1.881
47227W        W13658  23.752  31.153   4.937
47228W        W13659  15.092   5.346   2.719
47229W        W13660  28.599  14.401  10.753
47230W        W13661  29.513  16.530   1.465
47231W        W13662  36.416  33.582  14.501
47232W        W13663  42.780  39.089   1.830
47233W        W13664  39.905  10.769  12.661
47234W        W13665   3.282   8.300  12.509
47235W        W13666  30.446   1.179  12.800
47236W        W13667   5.744  23.209  11.376
47237W        W13668  29.975  15.031  12.310
47238W        W13669  12.093   6.278   1.041
47239W        W13670  11.032   8.952  13.451
47240W        W13671  18.059  42.977  13.548
47241W        W13672  36.358  34.826   2.044
47242W        W13673  14.082  31.660  11.618
47243W        W13674  10.389  12.846  11.463
47244W        W13675   8.343  17.609  12.525
47245W        W13676  25.340  40.816   3.700
47246W        W13677  15.453   5.426   5.577
47247W        W13678  29.448  34.890  11.147
47248W        W13679  17.011  12.473   3.174
47249W        W13680  12.373  19.215   1.352
47250W        W13681   1.357   3.799  12.539
47251W        W13682  27.423  23.381   4.063
47252W        W13683  13.493  15.143   2.318
47253W        W13684  34.239   7.765   4.800
47254W        W13685  21.644  40.078   4.895
47255W        W13686  44.440  23.355  12.523
47256W        W13687  25.225  37.990  12.807
47257W        W13688  24.613  35.405  14.321
47258W        W13689   3.057  29.184  13.403
47259W        W13690  28.134  21.725   4.115
47260W        W13691  38.539  28.446  14.371
47261W        W13692   9.849  16.356  13.809
47262W        W13693   9.347  41.438  11.226
47263W        W13694  41.999   4.184   4.543
47264W        W13695   0.774   2.486   1.364
47265W        W13696  32.538  33.166  11.082
47266W        W13697  31.360  15.846  10.680
47267W        W13698  25.062  24.625  13.040
47268W        W13699  35.542   6.889   4.550
47269W        W13700  24.305  29.104   0.822
47270W        W13701  28.908  15.898  13.377
47271W        W13702  39.768  42.909   2.697
47272W        W13703  19.531  16.547   1.778
47273W        W13704  29.477  12.296   4.360
47274W        W13705  31.693  39.983   2.738
47275W        W13706  28.425  21.634  11.794
47276W        W13707  22.981  42.332  12.047
47277W        W13708  18.493  18.065   0.432
47278W        W13709  26.255   3.819  14.839
47279W        W13710   7.640  27.551  12.552
47280W        W13711  26.554   8.687  11.168
47281W        W13712  29.055   5.928  13.925
47282W        W13713  41.597  25.479   4.610
47283W        W13714   4.420  28.685  11.187
47284W        W13715  34.489   8.938  10.391
47285W        W13716  11.695  42.405   0.092
47286W        W13717   8.718  23.810   4.566
47287W        W13718  16.726   0.917   0.154
47288W        W13719  20.817  25.058   4.612
47289W        W13720  32.405   1.802  13.981
47290W        W13721  27.032  34.108   4.159
47291W        W13722  30.167  34.334  13.956
47292W        W13723   6.237   9.188  11.650
47293W        W13724   2.258   2.758   1.320
47294W        W13725   5.376   4.841   4.514
47295W        W13726  17.594  35.386  14.266
47296W        W13727   1.902  38.543   4.661
47297W        W13728  19.006  12.758  14.921
47298W        W13729  35.270  13.828   4.033
47299W        W13730  14.982  21.597   0.256
47300W        W13731   3.964   9.875   4.447
47301W        W13732  28.461  36.406  13.042
47302W        W13733   3.045  36.014   2.297
47303W        W13734  40.387  17.827  14.867
47304W        W13735   4.999  30.831  14.080
47305W        W13736   6.643  19.976   5.119
47306W        W13737  15.005  29.641  12.076
47307W        W13738  26.042  34.299   3.386
47308W        W13739  43.872  38.992   0.658
47309W        W13740  21.285  36.955   4.894
47310W        W13741  22.175  39.080   1.802
47311W        W13742   5.709  32.915  13.147
47312W        W13743  21.945  43.852   0.916
47313W        W13744   2.479  12.853  12.988
47314W        W13745  15.244  14.357  14.520
47315W        W13746  17.524  24.050  10.223
47316W        W13747  41.949  13.283   0.286
47317W        W13748  24.406  26.508  12.621
47318W        W13749   4.168   2.141  11.521
47319W        W13750  44.458  41.973   4.496
47320W        W13751  26.234  20.244   0.893
47321W        W13752  29.451   6.926   1.854
47322W        W13753   5.111  19.257   1.972
47323W        W13754  37.765  34.563  11.823
47324W        W13755  15.736  19.018  14.062
47325W        W13756   1.800  39.173  13.662
47326W        W13757  24.958   6.370   4.162
47327W        W13758  11.304   7.504  13.441
47328W        W13759  25.525  44.029  10.845
47329W        W13760  21.694   4.412   1.417
47330W        W13761  21.122   7.391   3.188
47331W        W13762   9.737  33.523  11.532
47332W        W13763  21.435  10.520   3.275
47333W        W13764  11.310  22.027  13.479
47334W        W13765  29.486  15.326   3.801
47335W        W13766  42.260  23.556  11.072
47336W        W13767  11.709  21.725  12.443
47337W        W13768  21.593  29.839   0.766
47338W        W13769  12.201  10.884  13.843
47339W        W13770  20.845  11.323   2.415
47340W        W13771  26.237  19.338  10.838
47341W        W13772  24.600   8.191  10.579
47342W        W13773   2.359  14.845  12.004
47343W        W13774  16.526   8.532   4.229
47344W        W13775  11.965  12.289  12.119
47345W        W13776   2.884  32.735   2.509
47346W        W13777  34.687  20.906  13.853
47347W        W13778   1.991  21.267   2.273
47348W        W13779   3.989  11.895  14.316
47349W        W13780   3.892  13.241  10.476
47350W        W13781   7.164  39.363   3.250
47351W        W13782   7.130  42.551   3.720
47352W        W13783  33.318  41.983  14.893
47353W        W13784  10.476  21.434   4.170
47354W        W13785   0.093  20.147  11.208
47355W        W13786  40.493   6.397   4.603
47356W        W13787  38.603   2.828   4.575
47357W        W13788  20.060  43.316   3.366
47358W        W13789   6.333  36.387   1.360
47359W        W13790  21.787  24.276   1.942
47360W        W13791  32.686  26.203  11.947
47361W        W13792   6.954  22.594  12.883
47362W        W13793  20.940   4.570   1.949
47363W        W13794   8.359  37.130  14.825
47364W        W13795  44.393   6.684   1.721
47365W        W13796  36.338  29.616   4.978
47366W        W13797  27.095  22.258  11.935
47367W        W13798  44.741  40.874   4.168
47368W        W13799  42.385  16.974  13.858
47369W        W13800  39.882  39.627  13.022
47370W        W13801  41.614   3.409   3.476
47371W        W13802   0.859  17.117  12.574
47372W        W13803  24.629  31.899   0.481
47373W        W13804  35.319   3.199  11.170
47374W        W13805  32.973  16.535   4.288
47375W        W13806  13.864  14.656  12.932
47376W        W13807  42.577  26.604  12.084
47377W        W13808   5.919  38.363   0.764
47378W        W13809   9.647  23.425   2.260
47379W        W13810  13.445  25.252  12.942
47380W        W13811  30.294  19.040  11.043
47381W        W13812  36.180   4.617   1.494
47382W        W13813  39.067  43.092   5.093
47383W        W13814  41.996   0.676   0.765
47384W        W13815  39.773  24.279  11.776
47385W        W13816  29.274  27.794  13.875
47386W        W13817  18.026  32.078  13.505
47387W        W13818  34.051   3.834  11.839
47388W        W13819  15.987  22.328  14.940
47389W        W13820   2.963  15.243   4.319
47390W        W13821  30.124  37.099  11.909
47391W        W13822   6.164   2.015   0.796
47392W        W13823   8.101  35.190   2.757
47393W        W13824  13.757  15.911  14.364
47394W        W13825  24.673   7.920   3.270
47395W        W13826  28.149  42.421  13.515
47396W        W13827  20.820  26.499  11.855
47397W        W13828  15.597  41.518  13.991
47398W        W13829   1.477   6.757  14.951
47399W        W13830   6.883  27.241  12.899
47400W        W13831   8.579  32.915  11.585
47401W        W13832  24.388  23.804  12.417
47402W        W13833   4.431  26.981   2.418
47403W        W13834  23.069  31.479   1.690
47404W        W13835   0.444   5.034   1.039
47405W        W13836  12.852  25.544   0.866
47406W        W13837  18.960  40.568   1.412
47407W        W13838  39.765  26.009  12.312
47408W        W13839  16.166   4.965  13.364
47409W        W13840  23.450  27.603   5.414
47410W        W13841  29.222  19.755   2.222
47411W        W13842  13.774  19.017  14.732
47412W        W13843  40.556  19.524  10.766
47413W        W13844   2.155   3.814  10.824
47414W        W13845   1.362  12.635  11.713
47415W        W13846  24.937  29.911  11.567
47416W        W13847   9.366  44.627   0.232
47417W        W13848  29.721   1.250   4.941
47418W        W13849  17.040  43.712   0.971
47419W        W13850  30.899  11.726  13.271
47420W        W13851  10.196  21.690  11.388
47421W        W13852  14.917  40.069   9.994
47422W        W13853  21.835  40.616   1.768
47423W        W13854  42.953   6.284   1.823
47424W        W13855  35.364  11.406   3.091
47425W        W13856   3.935  40.123   3.643
47426W        W13857  23.068   8.533  12.621
47427W        W13858  39.020  30.164   2.232
47428W        W13859  14.338  43.940   4.611
47429W        W13860  14.758  15.957   1.487
47430W        W13861   6.414  28.102  10.663
47431W        W13862  42.266  42.525   0.220
47432W        W13863  38.544   3.826  12.532
47433W        W13864   5.563  39.889   3.620
47434W        W13865  18.565  13.236  14.449
47435W        W13866  24.982   4.860  13.892
47436W        W13867   7.429  38.081  11.667
47437W        W13868  42.909  17.597   3.663
47438W        W13869  28.893  13.546   2.640
47439W        W13870   0.736  14.724   2.078
47440W        W13871  37.618   1.777  13.521
47441W        W13872  38.616  17.836  10.578
47442W        W13873  21.735  36.161   0.188
47443W        W13874  16.845  26.878   3.155
47444W        W13875  44.427  21.665   0.979
47445W        W13876  30.248  12.410  11.075
47446W        W13877  10.932   7.742   3.562
47447W        W13878  14.312  19.533  10.559
47448W        W13879  41.226  44.657  12.068
47449W        W13880  12.425  41.771   4.428
47450W        W13881  37.709   3.932   2.811
47451W        W13882   8.415   3.260  11.270
47452W        W13883  20.715  33.377  12.112
47453W        W13884  23.576   4.967  11.441
47454W        W13885  28.379  13.621   1.303
47455W        W13886  35.949  36.640   1.869
47456W        W13887  32.212  20.398  13.113
47457W        W13888  44.756  13.739  13.455
47458W        W13889  21.198  19.574   0.138
47459W        W13890   8.235   3.412  13.624
47460W        W13891   4.772   2.542   2.315
47461W        W13892  27.650  19.243   1.632
47462W        W13893  40.469  18.349  14.847
47463W        W13894  10.338   7.686  12.717
47464W        W13895  24.294  35.843  11.962
47465W        W13896  35.566   6.443   2.628
47466W        W13897   7.989   0.281   1.635
47467W        W13898   7.680   3.973  11.648
47468W        W13899   8.564  35.417   2.886
47469W        W13900  29.740  16.192   1.783
47470W        W13901  33.096  18.581  12.556
47471W        W13902   8.838  22.050  11.892
47472W        W13903  39.014  24.073  13.316
47473W        W13904  35.524  17.278   2.586
47474W        W13905  31.930  10.681  11.178
47475W        W13906   0.812  43.108  11.142
47476W        W13907  33.541   1.730  11.865
47477W        W13908  32.140  27.201   0.331
47478W        W13909  30.962  21.967   2.981
47479W        W13910  12.327   1.811   4.951
47480W        W13911   3.430  14.098  11.499
47481W        W13912  20.681  35.960   1.055
47482W        W13913  28.941  40.931   0.485
47483W        W13914  37.789  26.625  10.488
47484W        W13915  41.542  29.549  13.066
47485W        W13916  43.234  21.575   4.584
47486W        W13917  23.686  17.322  13.319
47487W        W13918  41.139  11.239  12.168
47488W        W13919  25.893  32.427   4.077
47489W        W13920  16.666  32.095   1.224
47490W        W13921  22.194   6.869   1.296
47491W        W13922  34.105  44.845  12.215
47492W        W13923   7.604   9.767   0.427
47493W        W13924   3.561  16.799  10.175
47494W        W13925  33.643  22.638   1.654
47495W        W13926  39.804  28.787   3.147
47496W        W13927  32.347  40.082   2.205
47497W        W13928   0.686   8.197  13.555
47498W        W13929  13.642   0.995  10.662
47499W        W13930  11.563  34.902  13.258
47500W        W13931  10.397  39.537   3.109
47501W        W13932  23.705  25.121   2.709
47502W        W13933   2.976  40.454   1.462
47503W        W13934  19.080   6.744  10.661
47504W        W13935  27.793  26.548  14.875
47505W        W13936   8.342  21.076   4.333
47506W        W13937  19.984  38.332  10.700
47507W        W13938  22.000  44.360   0.763
47508W        W13939  44.373   9.125  11.607
47509W        W13940  25.629  11.104  14.732
47510W        W13941  26.008  39.439  14.034
47511W        W13942  42.094   8.739   4.644
47512W        W13943   4.584  31.481  12.402
47513W        W13944  16.239  39.791   2.337
47514W        W13945  22.184  40.817   3.796
47515W        W13946  20.519  28.143  12.398
47516W        W13947   6.843   0.685  12.989
47517W        W13948  27.076  16.266   3.616
47518W        W13949  20.230  23.123  13.991
47519W        W13950  21.674   0.044   4.297
47520W        W13951  25.026  34.575  11.001
47521W        W13952  16.263  41.213  10.832
47522W        W13953   2.365  24.112   1.817
47523W        W13954   0.626  38.936   3.510
47524W        W13955   8.702  18.373  12.999
47525W        W13956  39.657   4.697   0.774
47526W        W13957  38.490  35.750   3.433
47527W        W13958  10.599   7.742   1.932
47528W        W13959   2.260  24.999  13.624
47529W        W13960  37.111  10.853   0.259
47530W        W13961  17.623  17.682  13.530
47531W        W13962  36.605  39.490  14.845
47532W        W13963  41.758  21.152  14.931
47533W        W13964  16.290  16.365  10.761
47534W        W13965   4.881   9.295   3.527
47535W        W13966  13.622   6.205   3.727
47536W        W13967  10.437   8.133  11.426
47537W        W13968  25.400  31.759   4.531
47538W        W13969  20.597  25.496  11.726
47539W        W13970   9.718  19.581   3.687
47540W        W13971  34.162  28.073   4.100
47541W        W13972  13.879  24.186  14.545
47542W        W13973  15.170   5.320   3.623
47543W        W13974   3.668  22.667  13.270
47544W        W13975  32.047  29.466   3.133
47545W        W13976   9.262  22.154  12.578
47546W        W13977  10.001   7.484   1.923
47547W        W13978  19.805  38.194   0.890
47548W        W13979  44.845   2.483  13.569
47549W        W13980  19.570  34.467   3.850
47550W        W13981  37.629   6.246  13.940
47551W        W13982  29.900  15.846   2.138
47552W        W13983  11.699  36.761  13.499
47553W        W13984  15.766  22.585  11.959
47554W        W13985  28.351   2.850  14.910
47555W        W13986  40.508   0.526  11.188
47556W        W13987  14.927   2.893   1.589
47557W        W13988  33.636  26.044   2.127
47558W        W13989  15.353  20.474  13.688
47559W        W13990  23.001  22.258  11.236
47560W        W13991   4.487  37.984   1.034
47561W        W13992   7.659  31.514  13.355
47562W        W13993  23.624   0.445  10.932
47563W        W13994  14.874  27.482   3.133
47564W        W13995  28.295  20.117   2.196
47565W        W13996  41.328   1.912  14.827
47566W        W13997  10.091  33.532   0.728
47567W        W13998  21.086  32.567  10.991
47568W        W13999   4.128  16.833  13.844
47569W        W14000  14.664  18.992  14.881
47570W        W14001  19.504  40.061  12.520
47571W        W14002  20.285  27.151  12.357
47572W        W14003  35.793   6.236   0.371
47573W        W14004  36.985  19.526   3.570
47574W        W14005  10.112   0.186  11.713
47575W        W14006  33.122  22.611  12.465
47576W        W14007  40.010   3.610   2.588
47577W        W14008  37.414   4.318   3.872
47578W        W14009  15.306  11.595  14.820
47579W        W14010  18.998  27.581   3.674
47580W        W14011  13.148   2.355  14.339
47581W        W14012  40.362  27.269  10.621
47582W        W14013  33.451   2.194   3.371
47583W        W14014  10.112  33.377   3.621
47584W        W14015  34.629  20.674  10.680
47585W        W14016  44.985  30.443   2.928
47586W        W14017  10.843  22.995   3.272
47587W        W14018  21.032  12.286   2.629
47588W        W14019  10.300  12.946   3.276
47589W        W14020  27.190  33.399   2.784
47590W        W14021  42.296   4.496  13.953
47591W        W14022  31.534  38.740   1.387
47592W        W14023  14.585  40.953   1.156
47593W        W14024  31.731  27.557   4.239
47594W        W14025  27.748  20.257  11.269
47595W        W14026  27.061  34.127   2.280
47596W        W14027   3.812  17.569   3.464
47597W        W14028  37.907  16.046   0.005
47598W        W14029   5.261  35.879   3.091
47599W        W14030  27.092  13.372  12.084
47600W        W14031   3.788  25.041  12.558
47601W        W14032  43.262  40.960   3.329
47602W        W14033  23.167  12.322  13.251
47603W        W14034  37.930  11.061  14.996
47604W        W14035  35.117  21.598  10.643
47605W        W14036  34.999  36.614  11.145
47606W        W14037   8.720   3.743   4.171
47607W        W14038   4.939  17.261  14.805
47608W        W14039  38.835  18.208   3.720
47609W        W14040  36.056  41.364  13.025
47610W        W14041  12.134  30.019  10.887
47611W        W14042  17.844  18.833  14.926
47612W        W14043  27.371   2.423  10.859
47613W        W14044   4.335  18.804   0.588
47614W        W14045   9.627  23.020  11.103
47615W        W14046  33.265  43.330  13.652
47616W        W14047  30.523  10.588   4.119
47617W        W14048  30.464  18.902   1.916
47618W        W14049  43.932  32.696  10.872
47619W        W14050  12.740  37.358  13.938
47620W        W14051  42.463  12.823   1.281
47621W        W14052  25.065  19.294  13.459
47622W        W14053  41.844  13.573   4.110
47623W        W14054  41.795  37.917   3.274
47624W        W14055  30.416  34.204   3.448
47625W        W14056  12.754  33.890   3.755
47626W        W14057   1.879   6.126   4.143
47627W        W14058  21.358  42.537  10.178
47628W        W14059  11.158  23.430   0.238
47629W        W14060  33.144  18.558  11.574
47630W        W14061  14.289  13.819  11.682
47631W        W14062  21.020  31.488   1.802
47632W        W14063  19.007   1.944  12.672
47633W        W14064   4.198   1.963  10.771
47634W        W14065  29.056   2.511   4.317
47635W        W14066  39.504  18.461   1.616
47636W        W14067  16.772  40.316   0.262
47637W        W14068  30.080   7.872  13.065
47638W        W14069  19.703  42.751   2.402
47639W        W14070  21.404  12.154   0.408
47640W        W14071  42.379  33.386   3.183
47641W        W14072  40.084  26.924   3.194
47642W        W14073  29.081  43.854  12.912
47643W        W14074   2.376  20.514   3.591
47644W        W14075   5.218  23.994   2.765
47645W        W14076  20.726   1.337   3.658
47646W        W14077  33.226  35.933  14.029
47647W        W14078  33.639   7.930  10.334
47648W        W14079   2.511  17.049   0.882
47649W        W14080  19.074  37.456  12.025
47650W        W14081  28.501  29.596   1.236
47651W        W14082  11.690  35.472   3.749
47652W        W14083  16.907  28.228  12.930
47653W        W14084  20.615  21.718  13.392
47654W        W14085  34.973   0.034   2.748
47655W        W14086  12.606  12.972  11.672
47656W        W14087  37.303   8.242  12.190
47657W        W14088  37.311   9.249   1.044
47658W        W14089  42.341  31.552   4.315
47659W        W14090  15.345  26.023   0.306
47660W        W14091  26.147  21.768   4.530
47661W        W14092  34.941  36.359   1.427
47662W        W14093  36.302  39.542  11.467
47663W        W14094  11.761  19.128  11.425
47664W        W14095  21.820   1.757   2.711
47665W        W14096  21.604  29.081  13.575
47666W        W14097  18.067  34.430  13.579
47667W        W14098  27.518  40.522   4.319
47668W        W14099  34.860  24.898   2.713
47669W        W14100  19.538  36.586   3.577
47670W        W14101  37.027  17.810   0.388
47671W        W14102  40.275   0.889  13.569
47672W        W14103  42.011   1.612   4.361
47673W        W14104  14.171  44.192   3.800
47674W        W14105   0.975  19.351   0.334
47675W        W14106  26.648  32.632   0.684
47676W        W14107   0.931  37.597  10.119
47677W        W14108  24.204   5.223   1.013
47678W        W14109  10.242  11.248  10.720
47679W        W14110  36.834  12.412   2.290
47680W        W14111  14.543  19.995   0.859
47681W        W14112   4.896   9.302   1.254
47682W        W14113  33.070   1.450   1.783
47683W        W14114   1.459  16.933  12.682
47684W        W14115  32.515  30.619   0.901
47685W        W14116  33.866  35.083   0.187
47686W        W14117   2.486  14.343   4.475
47687W        W14118  44.507  30.165   1.098
47688W        W14119   5.635  43.446   3.091
47689W        W14120  24.550  42.817   0.407
47690W        W14121   2.462  19.587  11.469
47691W        W14122  15.618   1.166  12.848
47692W        W14123  42.020  15.914   3.926
47693W        W14124  28.654   1.863  14.415
47694W        W14125  20.581  40.244   3.554
47695W        W14126  23.301  11.715   2.672
47696W        W14127  24.903  37.824  11.328
47697W        W14128  43.644  10.670   0.332
47698W        W14129  20.164  41.459  14.756
47699W        W14130  25.135  35.957   1.477
47700W        W14131  28.608  13.381  14.417
47701W        W14132  25.092  42.252  13.962
47702W        W14133  43.835  33.454  11.569
47703W        W14134  25.466   3.224  11.731
47704W        W14135  38.172  18.645  14.972
47705W        W14136  15.736   1.758  14.332
47706W        W14137   6.695  10.825  11.990
47707W        W14138   3.780  22.168  14.643
47708W        W14139  21.576   7.613   3.994
47709W        W14140  44.591   9.839  11.204
47710W        W14141  35.170  44.843  11.772
47711W        W14142   5.495   0.898  11.504
47712W        W14143  15.841   4.694  14.352
47713W        W14144  35.367  23.932  12.372
47714W        W14145  17.260  36.334   3.238
47715W        W14146  11.439  30.185   4.240
47716W        W14147  22.132  38.538   2.324
47717W        W14148  15.551   0.272  11.896
47718W        W14149  44.247  11.172  13.398
47719W        W14150  29.991  13.771  13.036
47720W        W14151  38.490  35.573  13.255
47721W        W14152  35.634   8.638  12.918
47722W        W14153  19.346  40.395  13.132
47723W        W14154  13.821   5.026  12.601
47724W        W14155  39.100  22.801  11.101
47725W        W14156   5.877  34.870   2.395
47726W        W14157  23.746  40.249  11.584
47727W        W14158   6.384  36.784  12.569
47728W        W14159  23.506   8.732   0.056
47729W        W14160  42.855  25.976   2.297
47730W        W14161   5.369  26.769  12.580
47731W        W14162   7.659  10.821   3.325
47732W        W14163  30.276  35.381  12.509
47733W        W14164  38.138  22.912   1.956
47734W        W14165  14.081  16.240   0.477
47735W        W14166   8.763  27.059  12.436
47736W        W14167  17.169   2.843  14.851
47737W        W14168  31.382  11.842  14.888
47738W        W14169  11.370  21.532   4.033
47739W        W14170  38.956  14.359   2.179
47740W        W14171   3.869   9.823  10.708
47741W        W14172  38.879  18.795  14.306
47742W        W14173  32.821  29.776   0.944
47743W        W14174  28.131  11.998  10.632
47744W        W14175  25.340  27.604   3.085
47745W        W14176  31.631   4.276  10.965
47746W        W14177  43.479  38.904   1.334
47747W        W14178  14.749  42.012  11.905
47748W        W14179  30.376  22.138   1.662
47749W        W14180   2.487  17.279  11.136
47750W        W14181  40.911  28.841  13.959
47751W        W14182   8.344  38.988  12.165
47752W        W14183  37.537  43.795   0.197
47753W        W14184  20.026  42.717  14.419
47754W        W14185  37.580  40.676  14.337
47755W        W14186  35.504  15.182  14.447
47756W        W14187  25.075  36.011   0.469
47757W        W14188   0.005   1.627  14.834
47758W        W14189   7.193  18.319   1.817
47759W        W14190  36.320   0.330  14.727
47760W        W14191  43.423  23.119   2.240
47761W        W14192  18.549  40.075   4.042
47762W        W14193  19.071  27.941   1.079
47763W        W14194  18.195   6.487  11.657
47764W        W14195  28.594  22.592  12.066
47765W        W14196  23.971  12.653   1.694
47766W        W14197  11.635  44.704   3.425
47767W        W14198  30.088  37.338   2.792
47768W        W14199   2.991  35.286  10.830
47769W        W14200  37.518  15.604   4.121
47770W        W14201  35.697  43.355  12.474
47771W        W14202  39.476  24.744  11.633
47772W        W14203   1.084  32.024   0.787
47773W        W14204  21.208  26.487   4.932
47774W        W14205  39.933  15.108   4.379
47775W        W14206  23.054   7.344   3.202
47776W        W14207  20.242  43.509  12.613
47777W        W14208  44.324   0.275   2.825
47778W        W14209  41.564  14.677   3.634
47779W        W14210  20.244  21.597  10.412
47780W        W14211   8.153  31.544   2.538
47781W        W14212  29.885  40.148  12.040
47782W        W14213   3.961  19.621  13.918
47783W        W14214   1.265  25.558   1.231
47784W        W14215  14.536   1.104  12.047
47785W        W14216   8.513  19.687  10.698
47786W        W14217   1.928   3.257   4.180
47787W        W14218   3.288  26.250   0.368
47788W        W14219  14.139   0.830  11.811
47789W        W14220  35.600   7.428   4.856
47790W        W14221  38.058   9.787  13.923
47791W        W14222   8.052  21.530  10.461
47792W        W14223  36.402  18.973  14.137
47793W        W14224  28.111  42.853   1.345
47794W        W14225  14.079  34.464   1.770
47795W        W14226  29.868   9.175  14.850
47796W        W14227  20.968  30.889   1.382
47797W        W14228  30.048  34.044  11.175
47798W        W14229  21.813   3.487   1.737
47799W        W14230  32.595  22.982  12.512
47800W        W14231  15.499  16.411  13.015
47801W        W14232  28.091  13.278   3.611
47802W        W14233  42.552   0.020  11.740
47803W        W14234  23.202  34.590  12.002
47804W        W14235  25.641   5.210  13.912
47805W        W14236   9.279  38.404   3.244
47806W        W14237  43.005  39.865  10.701
47807W        W14238  39.460  41.469   0.107
47808W        W14239  37.829  21.174  10.741
47809W        W14240  40.003   0.449  11.942
47810W        W14241  41.781   2.269   2.136
47811W        W14242  43.401  17.205  10.220
47812W        W14243  44.805   6.628   3.362
47813W        W14244  34.123  23.407  13.078
47814W        W14245  27.998  13.771  13.819
47815W        W14246  44.399  16.506  11.537
47816W        W14247  23.125   4.800  13.051
47817W        W14248  36.780  28.046   1.259
47818W        W14249  15.725  44.918   2.180
47819W        W14250  15.662   1.253   4.903
47820W        W14251   7.461  40.850   0.239
47821W        W14252  40.451   0.701   5.013
47822W        W14253  12.865  36.871  11.873
47823W        W14254  18.929  31.617   4.059
47824W        W14255  44.727  38.559   2.773
47825W        W14256  31.470  16.150  14.506
47826W        W14257  19.400  23.437  11.184
47827W        W14258  19.251  19.521  11.974
47828W        W14259  43.201  27.513  12.528
47829W        W14260  35.536  36.390  14.841
47830W        W14261   0.237  33.174  11.557
47831W        W14262  38.636   8.360   0.944
47832W        W14263  41.152  25.247  11.640
47833W        W14264  35.932  22.894   1.247
47834W        W14265  34.858  18.590  13.974
47835W        W14266  40.588   6.941   2.929
47836W        W14267  24.715  13.810  14.438
47837W        W14268   0.072  15.186   4.521
47838W        W14269   6.825   4.816  13.397
47839W        W14270  12.052   2.419   4.581
47840W        W14271   1.404   3.040  12.881
47841W        W14272  32.471  22.231  14.041
47842W        W14273  40.758  17.664  11.410
47843W        W14274  33.080  36.430   2.571
47844W        W14275  18.554  18.600   4.057
47845W        W14276  26.482  25.398  12.489
47846W        W14277   8.326   4.025  10.703
47847W        W14278  36.435  12.841  12.133
47848W        W14279  25.593  40.000   0.498
47849W        W14280   2.676  26.530   4.727
47850W        W14281  28.575  44.247   2.731
47851W        W14282  11.395  30.897   0.704
47852W        W14283   5.217  14.333   3.302
47853W        W14284  15.382  14.531   0.853
47854W        W14285  35.367  34.985   1.400
47855W        W14286   7.843  25.699   2.254
47856W        W14287  23.780   4.374  13.519
47857W        W14288   6.076  17.547  12.856
47858W        W14289  42.449  12.051  14.941
47859W        W14290  11.311   9.037  10.601
47860W        W14291  25.584  19.630  10.463
47861W        W14292  43.284   3.310   2.362
47862W        W14293  15.572  14.249  11.616
47863W        W14294   7.329  11.638  14.353
47864W        W14295  14.575  15.465   1.569
47865W        W14296   6.760  28.673  11.746
47866W        W14297  26.905   4.386  12.537
47867W        W14298  39.079  28.536  11.663
47868W        W14299  43.970   9.651   4.030
47869W        W14300  12.752  22.767  10.682
47870W        W14301  37.420  22.019  13.534
47871W        W14302   1.470   0.888   0.473
47872W        W14303  31.439   4.826   4.719
47873W        W14304  40.252  13.297   2.901
47874W        W14305   3.973   0.253   3.655
47875W        W14306  18.643  31.902  14.835
47876W        W14307  23.568  38.021   0.876
47877W        W14308  38.048  37.099   3.634
47878W        W14309  23.918  30.487   3.338
47879W        W14310  31.517  11.944  11.965
47880W        W14311  42.363  39.321  12.619
47881W        W14312   3.506  36.198   3.539
47882W        W14313  16.514  21.531  11.479
47883W        W14314  15.211  18.187  13.557
47884W        W14315  38.237  38.801  12.454
47885W        W14316  40.767  26.134  12.757
47886W        W14317  22.160  20.323  12.152
47887W        W14318  24.015  28.814  11.525
47888W        W14319  32.837  44.288  10.797
47889W        W14320   5.158   5.012  12.246
47890W        W14321  29.287  36.786  13.012
47891W        W14322  30.690  35.841   2.560
47892W        W14323  33.826  16.716  12.573
47893W        W14324  13.368  31.314  12.109
47894W        W14325   3.909  15.572  14.064
47895W        W14326   9.133  18.009   0.667
47896W        W14327  42.382   1.425   3.929
47897W        W14328   3.930   3.182   4.975
47898W        W14329  17.183  16.558  13.916
47899W        W14330  30.083  44.910   4.773
47900W        W14331  40.618  28.947   3.539
47901W        W14332  28.782  44.776   4.177
47902W        W14333  13.279   4.267   0.110
47903W        W14334  28.084  28.196   2.302
47904W        W14335  15.687   4.675   0.550
47905W        W14336  14.076  13.639   1.171
47906W        W14337  12.085  16.079  12.036
47907W        W14338  40.552   1.441   0.410
47908W        W14339  17.683  17.284  13.875
47909W        W14340  15.213  11.199  10.557
47910W        W14341  13.202  25.714   4.648
47911W        W14342   5.766  31.572  12.960
47912W        W14343  21.022  36.985  11.958
47913W        W14344  14.165  26.872  14.959
47914W        W14345  24.844   7.813   4.744
47915W        W14346  16.635  19.935   2.242
47916W        W14347  29.684  36.907   0.938
47917W        W14348   3.475  17.727   0.473
47918W        W14349  23.289  16.763   1.846
47919W        W14350  43.015   3.842   0.787
47920W        W14351  33.739  17.501  12.051
47921W        W14352  35.033  34.018   4.218
47922W        W14353  10.362   6.404  13.000
47923W        W14354  26.721   6.862   4.082
47924W        W14355  10.638   9.080   1.364
47925W        W14356  37.785  33.346   1.961
47926W        W14357   0.533  28.587  13.700
47927W        W14358  41.519  17.252  12.377
47928W        W14359  35.345   1.901  13.001
47929W        W14360  35.862   5.184  12.010
47930W        W14361  21.366  29.067   2.662
47931W        W14362   0.089   0.353   2.883
47932W        W14363  12.752   7.903  12.009
47933W        W14364  18.184  20.704  14.408
47934W        W14365  27.079  44.522   0.791
47935W        W14366   2.574  18.987  14.369
47936W        W14367  20.129  43.020  14.908
47937W        W14368  29.604  20.062  13.840
47938W        W14369   4.923  40.249   0.860
47939W        W14370  10.274  11.696  14.282
47940W        W14371  22.013  21.302  13.445
47941W        W14372  26.188  44.896  12.926
47942W        W14373  39.493  41.978   4.116
47943W        W14374  15.803  40.960  10.806
47944W        W14375   4.780  43.354   3.613
47945W        W14376   1.930  19.543   3.918
47946W        W14377  18.989  23.775  14.012
47947W        W14378  28.856  42.446   0.475
47948W        W14379  20.272  17.041  11.476
47949W        W14380  41.705  41.708   4.145
47950W        W14381  27.911  30.967   1.390
47951W        W14382  10.128  10.683   1.850
47952W        W14383   5.005  34.651  10.305
47953W        W14384  41.294  26.552  11.585
47954W        W14385   8.758   6.035  11.651
47955W        W14386  22.088  40.350   4.954
47956W        W14387  17.202   5.570  12.531
47957W        W14388   6.771  10.987   0.799
47958W        W14389   3.444   8.962   2.272
47959W        W14390  27.864  30.446   0.893
47960W        W14391  35.303  19.256  11.827
47961W        W14392   8.683  34.070   3.120
47962W        W14393  14.251   8.680   2.651
47963W        W14394   2.695  37.523   4.699
47964W        W14395  19.707  21.242   1.886
47965W        W14396   6.996  15.127   1.727
47966W        W14397  36.620  19.126   3.623
47967W        W14398   9.374  27.311   3.666
47968W        W14399  15.548  34.917  11.118
47969W        W14400   6.918   3.239  13.334
47970W        W14401  11.837  31.910   4.151
47971W        W14402  18.282  26.595  11.228
47972W        W14403  28.242  13.871  11.902
47973W        W14404  28.565  33.740  13.428
47974W        W14405  22.502  27.141   3.718
47975W        W14406  12.837   8.339  12.286
47976W        W14407  20.064   5.320   2.776
47977W        W14408  20.424   9.518   1.981
47978W        W14409  43.708  18.938   0.208
47979W        W14410   2.283  42.539  14.932
47980W        W14411  44.062   8.322   1.279
47981W        W14412   1.218  26.541  11.118
47982W        W14413  19.681  18.841   4.544
47983W        W14414  39.885  30.580  14.704
47984W        W14415  31.634   4.317  14.298
47985W        W14416  23.605  18.811   1.352
47986W        W14417  33.660  24.380   3.439
47987W        W14418  21.742  41.060  11.040
47988W        W14419  26.624  40.074  12.490
47989W        W14420  41.492  43.048   1.370
47990W        W14421  35.859  24.634   3.637
47991W        W14422  30.947  19.819   3.666
47992W        W14423  27.669  13.867  11.656
47993W        W14424   1.000  25.412   2.108
47994W        W14425  25.135  37.050  14.059
47995W        W14426  17.255  26.789   4.117
47996W        W14427  24.094  26.249   1.798
47997W        W14428  23.561  35.949  12.449
47998W        W14429  42.474  17.637   4.971
47999W        W14430  24.996   4.933  10.717
48000W        W14431   9.833  37.077  14.510
48001W        W14432  14.303  14.765   5.045
48002W        W14433  25.712  11.915   4.988
48003W        W14434  20.241  42.485   4.856
48004W        W14435   9.946  36.584   2.201
48005W        W14436  43.328  15.889   3.856
48006W        W14437  26.113  36.961  14.534
48007W        W14438   2.842  31.854  10.208
48008W        W14439  38.228   7.400   1.124
48009W        W14440   1.311  37.325   2.401
48010W        W14441  16.312  36.414  13.402
48011W        W14442   0.590  34.700   3.069
48012W        W14443  40.454  33.012  12.737
48013W        W14444  22.517  37.097  13.308
48014W        W14445  31.130  34.897  14.956
48015W        W14446   3.309  25.258  12.164
48016W        W14447  22.088  36.692  11.447
48017W        W14448   9.618  33.466  14.836
48018W        W14449  17.098  13.238   2.750
48019W        W14450   8.521  43.068  10.246
48020W        W14451  25.821  16.170   2.655
48021W        W14452  26.564  36.926  10.465
48022W        W14453  29.932  19.276   2.054
48023W        W14454   1.216  32.979   4.364
48024W        W14455  41.405  14.377  13.606
48025W        W14456   7.621  26.855  10.976
48026W        W14457  32.106   4.351   4.680
48027W        W14458   3.957  29.008   5.179
48028W        W14459  19.470  13.404  14.354
48029W        W14460   8.450  19.184  11.917
48030W        W14461  29.110  25.999  14.819
48031W        W14462  38.602  41.358   1.989
48032W        W14463   5.498   4.721  13.969
48033W        W14464  44.506   5.896  10.197
48034W        W14465   8.399   4.405  14.886
48035W        W14466  16.363  33.471   0.752
48036W        W14467  25.715   9.311   1.521
48037W        W14468   2.920  17.156   2.842
48038W        W14469   9.307  12.861  10.549
48039W        W14470  22.125  21.305   2.755
48040W        W14471  38.846  22.777  10.658
48041W        W14472  22.859  37.990   0.495
48042W        W14473  37.883  15.308   2.390
48043W        W14474   1.242  39.346   2.216
48044W        W14475   5.951  44.283  11.069
48045W        W14476  35.386  27.130  13.472
48046W        W14477  23.518  15.313  12.722
48047W        W14478  41.877  18.209   3.461
48048W        W14479  42.457  36.495  13.969
48049W        W14480   7.884   2.395   1.799
48050W        W14481   9.405  25.776   3.740
48051W        W14482  34.376   1.691  14.679
48052W        W14483  41.692  25.472  14.901
48053W        W14484  28.559  32.189  13.455
48054W        W14485   3.292  23.977   1.943
48055W        W14486  22.872   8.923  13.955
48056W        W14487  10.712  17.208  13.383
48057W        W14488  13.745   2.291   4.212
48058W        W14489   4.120   7.071  13.064
48059W        W14490  26.794  37.081   0.448
48060W        W14491  20.701  41.298  11.983
48061W        W14492  32.515  31.390   4.579
48062W        W14493  25.718  28.961   3.720
48063W        W14494   5.916  39.941   4.610
48064W        W14495  15.779  12.256  13.645
48065W        W14496  23.435  41.506   4.610
48066W        W14497  31.748  21.095   1.978
48067W        W14498  39.493  12.334   2.834
48068W        W14499  27.969  38.866  13.924
48069W        W14500  37.626  10.090  13.054
48070W        W14501  36.047  39.998   4.524
48071W        W14502  16.468  21.341   1.333
48072W        W14503   1.343  15.822   2.299
48073W        W14504  14.330  26.765   4.599
48074W        W14505   3.628  32.827  12.439
48075W        W14506  12.524  44.074   0.233
48076W        W14507   3.511   7.227   2.680
48077W        W14508  11.925  28.142   3.646
48078W        W14509  36.614  37.596   0.468
48079W        W14510  44.363  41.444  13.556
48080W        W14511  21.461  30.986  11.141
48081W        W14512   1.734  33.055   4.444
48082W        W14513  23.596  39.391  12.879
48083W        W14514  34.351  14.594  14.674
48084W        W14515  28.181   9.909  14.946
48085W        W14516  20.762  34.927   4.310
48086W        W14517   4.960   2.138   3.579
48087W        W14518  36.862   5.411   0.876
48088W        W14519  28.641  33.074  10.519
48089W        W14520  43.070  38.892  12.616
48090W        W14521   9.220   5.595  13.950
48091W        W14522   1.302  11.591   4.600
48092W        W14523  25.066  36.831  13.597
48093W        W14524  14.223  21.060   3.255
48094W        W14525  12.211   8.366  11.647
48095W        W14526  21.986   7.171  11.144
48096W        W14527  12.861  10.352  14.163
48097W        W14528  19.337  31.586   3.093
48098W        W14529  13.325  43.197   4.184
48099W        W14530  27.926  26.554  13.414
48100W        W14531  34.593  34.897  11.561
48101W        W14532  37.646  18.936   4.107
48102W        W14533  38.625  36.577  13.383
48103W        W14534   8.065  31.882   1.695
48104W        W14535  44.461  33.423   4.767
48105W        W14536  34.391  24.551  11.597
48106W        W14537  42.370  13.912  13.085
48107W        W14538  19.747   5.325  10.305
48108W        W14539  22.952   2.776  13.934
48109W        W14540   7.823  29.583  12.093
48110W        W14541  30.467  34.280   1.171
48111W        W14542   1.447  12.899  14.006
48112W        W14543  32.438  25.720   4.695
48113W        W14544   5.686  19.998  10.748
48114W        W14545   9.231  10.374  10.461
48115W        W14546  28.662  29.430  13.498
48116W        W14547  27.656  32.061  12.615
48117W        W14548  30.494  29.750  11.052
48118W        W14549   9.316  39.193  14.434
48119W        W14550  23.982  23.404   2.258
48120W        W14551  38.725  11.740  12.482
48121W        W14552  35.910  11.378  11.596
48122W        W14553   4.384  39.831  11.117
48123W        W14554  16.037  15.735   4.419
48124W        W14555  23.474  35.657   3.422
48125W        W14556  14.282  37.261  12.986
48126W        W14557   2.250  40.936   3.723
48127W        W14558  25.480  13.833  12.615
48128W        W14559  20.989   6.385   1.370
48129W        W14560   5.450  17.638  13.497
48130W        W14561  17.742  11.348  10.911
48131W        W14562  31.355  36.844  14.282
48132W        W14563  13.178  23.279   3.666
48133W        W14564  26.903  39.058  12.846
48134W        W14565  29.049   9.597  10.184
48135W        W14566  44.817   0.400   3.902
48136W        W14567  42.482  21.703   2.350
48137W        W14568  43.385  15.811   1.228
48138W        W14569  38.963  40.687  12.042
48139W        W14570  43.457  35.977  14.133
48140W        W14571  26.985  30.113  11.548
48141W        W14572   6.755  30.854  14.869
48142W        W14573  32.853   7.957  14.745
48143W        W14574  34.692  17.533   1.691
48144W        W14575   2.479  19.193  12.996
48145W        W14576  19.314  17.131   1.504
48146W        W14577  15.699  29.361   1.681
48147W        W14578  14.020  25.976  13.919
48148W        W14579   0.967  13.340  12.014
48149W        W14580  35.862  27.019   4.685
48150W        W14581  38.168  32.920  11.231
48151W        W14582  43.395  42.131  13.105
48152W        W14583  22.174  30.927  12.869
48153W        W14584  30.072   3.374  10.201
48154W        W14585  28.514  34.317   0.334
48155W        W14586  44.434  26.760   1.312
48156W        W14587   3.494  14.693   3.296
48157W        W14588  34.404   1.314  14.305
48158W        W14589  25.420  32.570  13.346
48159W        W14590  11.010  24.270   1.788
48160W        W14591  22.042  31.984   0.630
48161W        W14592  11.271  21.685  11.216
48162W        W14593  16.687  37.544  11.278
48163W        W14594  37.358  24.405  11.137
48164W        W14595   8.267  23.727   3.737
48165W        W14596  10.864  33.253  14.025
48166W        W14597  40.653  28.242   4.103
48167W        W14598   1.208   9.302   1.749
48168W        W14599  11.324   0.915  11.541
48169W        W14600  27.693   4.169   2.265
48170W        W14601   2.577   7.310   1.932
48171W        W14602  24.462  37.540  11.211
48172W        W14603  37.911  27.883   4.324
48173W        W14604  27.491  43.228  12.595
48174W        W14605   9.136  41.336   4.617
48175W        W14606  36.991   7.484   3.343
48176W        W14607  34.417   8.181   0.958
48177W        W14608   3.026  35.472   1.356
48178W        W14609  28.656  23.681  12.447
48179W        W14610  42.544  22.314  14.359
48180W        W14611  20.153  31.143   3.249
48181W        W14612  23.152  22.536  13.917
48182W        W14613  42.469  20.979  11.526
48183W        W14614  38.370   1.356  12.634
48184W        W14615  33.304  41.033  11.698
48185W        W14616  14.060   1.317  12.031
48186W        W14617  40.666   3.279  12.255
48187W        W14618   0.941  16.607  12.592
48188W        W14619   8.307  37.253  13.352
48189W        W14620  41.345  27.859   4.526
48190W        W14621   3.684   0.446  13.501
48191W        W14622  16.625   4.152  14.786
48192W        W14623  31.003  38.441   2.865
48193W        W14624  14.765  44.263   4.626
48194W        W14625   2.731  44.970   2.703
48195W        W14626  23.473  25.084  14.330
48196W        W14627  44.802  36.363  13.642
48197W        W14628  11.230  33.229  14.442
48198W        W14629   9.423  39.896   4.394
48199W        W14630  27.426  28.472   4.302
48200W        W14631  23.025  33.562  10.911
48201W        W14632  30.467  44.017  13.578
48202W        W14633  30.522  15.209   1.397
48203W        W14634  29.432   0.580  10.759
48204W        W14635  11.302  13.306  13.535
48205W        W14636  18.450   4.344   3.613
48206W        W14637   1.332  19.280  12.355
48207W        W14638   6.801  13.693  11.570
48208W        W14639   0.779  38.530   4.801
48209W        W14640  26.103  31.130  10.113
48210W        W14641  22.836  28.247  14.499
48211W        W14642  20.466  23.986   4.215
48212W        W14643  25.085  35.368   4.166
48213W        W14644  13.313  13.100  13.357
48214W        W14645  41.861  36.770  13.943
48215W        W14646  31.607  37.758  10.710
48216W        W14647   1.936  16.546  13.138
48217W        W14648  26.446  38.601  11.170
48218W        W14649   0.111   0.334   0.202
48219W        W14650   4.624  34.514   4.868
48220W        W14651  37.739  11.677  14.334
48221W        W14652  22.139   9.863   1.288
48222W        W14653  29.681  40.405  12.451
48223W        W14654  41.482  28.631  11.188
48224W        W14655  37.024   3.042  13.514
48225W        W14656  34.157  44.406   0.653
48226W        W14657  20.515  21.427   2.892
48227W        W14658  28.462  36.992  12.412
48228W        W14659  22.476  28.595   0.703
48229W        W14660  13.876  37.792   3.072
48230W        W14661  29.346  35.181  13.914
48231W        W14662  27.714  27.499  12.508
48232W        W14663  41.539  25.437  11.363
48233W        W14664  13.360  44.200   3.872
48234W        W14665  27.690  37.809   4.255
48235W        W14666   9.916  27.107  11.552
48236W        W14667   8.828  24.693   3.066
48237W        W14668  23.986  39.940   3.695
48238W        W14669  44.195   4.136   5.044
48239W        W14670  13.180  29.235   4.725
48240W        W14671  26.125  23.191  14.253
48241W        W14672   9.011  18.265  14.344
48242W        W14673   0.519  23.034   4.540
48243W        W14674  34.749  35.644  13.770
48244W        W14675  17.307   2.706   2.354
48245W        W14676  19.658  16.246   4.302
48246W        W14677   6.221  10.271  12.438
48247W        W14678  42.257  13.843   1.989
48248W        W14679  32.113  37.889  12.073
48249W        W14680  40.621  24.031   5.038
48250W        W14681  26.687  21.556  11.653
48251W        W14682  22.729  31.432   4.552
48252W        W14683  41.342   9.374  14.394
48253W        W14684   5.734  23.296  14.832
48254W        W14685  13.814  37.617   1.408
48255W        W14686  35.358   0.786  12.025
48256W        W14687  31.669  37.494   3.892
48257W        W14688   5.291  14.283   2.433
48258W        W14689   4.911  33.447   1.459
48259W        W14690  28.407  22.097  12.022
48260W        W14691  14.038  42.911   3.851
48261W        W14692   3.380  11.640   0.602
48262W        W14693  40.523  24.773   4.194
48263W        W14694  36.926  22.029   3.514
48264W        W14695  33.338  39.439  14.370
48265W        W14696   8.405  25.041   3.165
48266W        W14697  29.905  17.407  11.523
48267W        W14698  42.962   8.789   4.150
48268W        W14699   6.208  18.555   0.448
48269W        W14700  39.398  11.890  10.916
48270W        W14701  31.084  35.449   3.785
48271W        W14702  15.388   2.338  14.376
48272W        W14703  20.821  17.210  13.759
48273W        W14704  35.822  24.738  13.161
48274W        W14705  27.919  38.398   3.177
48275W        W14706  37.263  20.266   4.936
48276W        W14707  29.636   2.491  11.053
48277W        W14708  11.979  16.580  13.379
48278W        W14709  23.759   8.972   2.699
48279W        W14710   5.449  32.617  11.562
48280W        W14711  11.883  36.845   1.865
48281W        W14712  18.898  10.916  11.458
48282W        W14713  44.552   9.976  14.406
48283W        W14714  34.398  31.915   4.175
48284W        W14715  23.849  35.061   0.811
48285W        W14716  34.086  35.853   4.657
48286W        W14717   3.982  30.499   4.396
48287W        W14718  15.612  39.503   4.164
48288W        W14719  38.033  44.054   0.198
48289W        W14720  28.052  37.454  10.989
48290W        W14721  42.396  16.259   4.705
48291W        W14722   7.309  15.638  14.438
48292W        W14723  39.062  14.165   0.207
48293W        W14724  40.389   3.393   2.263
48294W        W14725  37.300   3.984   1.861
48295W        W14726  28.584  13.337  10.732
48296W        W14727   7.110  22.549   2.733
48297W        W14728  12.974  38.432   0.242
48298W        W14729  21.304   9.071  14.043
48299W        W14730  18.555   8.845   1.947
48300W        W14731  11.819  40.513  13.977
48301W        W14732  29.376  32.963   4.930
48302W        W14733  34.130  13.809  11.899
48303W        W14734  12.153   3.893  12.016
48304W        W14735  42.986   3.279   2.822
48305W        W14736  27.056  40.877   1.850
48306W        W14737  27.140   0.391  14.352
48307W        W14738   7.183   1.452  11.390
48308W        W14739   8.816  13.750  10.883
48309W        W14740  37.435  20.724   2.906
48310W        W14741  44.969  43.866   0.680
48311W        W14742  38.996  43.120   4.222
48312W        W14743  44.859  31.412  10.753
48313W        W14744  33.565  44.786  13.405
48314W        W14745  30.016  18.586   1.725
48315W        W14746  39.338  33.482   3.658
48316W        W14747   4.855  14.735  10.803
48317W        W14748  38.424  15.574  14.289
48318W        W14749  16.587   7.787  13.409
48319W        W14750  17.728   6.912   1.699
48320W        W14751  22.203   8.463   1.805
48321W        W14752  44.960  26.979   1.504
48322W        W14753  21.780  31.849  14.410
48323W        W14754   4.287   5.798   0.415
48324W        W14755   4.744  36.039   1.437
48325W        W14756  39.504  29.270   4.039
48326W        W14757  14.293  14.361  12.940
48327W        W14758  22.547  25.100   1.135
48328W        W14759   5.466  17.066  13.543
48329W        W14760  17.823  24.911   4.145
48330W        W14761  36.589  40.869   1.193
48331W        W14762   6.215  15.661   2.726
48332W        W14763  18.354  14.681  13.125
48333W        W14764   5.874  31.929  13.541
48334W        W14765  41.597   1.352   0.347
48335W        W14766  11.168  40.751  11.130
48336W        W14767   9.995   9.481   3.502
48337W        W14768  35.643  32.891  13.431
48338W        W14769  30.400  28.643  13.373
48339W        W14770  29.146  19.640   0.149
48340W        W14771  13.700  40.289   4.351
48341W        W14772   7.282   2.938   3.849
48342W        W14773  18.891  28.242   0.190
48343W        W14774  22.545  13.886   1.020
48344W        W14775   4.411  40.126  13.352
48345W        W14776  25.945  17.741  13.280
48346W        W14777  39.000  36.083  11.570
48347W        W14778  13.115  16.017  13.945
48348W        W14779  34.556  10.051  12.848
48349W        W14780  27.146  12.740  12.465
48350W        W14781   0.879  33.896   4.765
48351W        W14782   0.230  23.057  14.336
48352W        W14783  25.641  17.541  10.711
48353W        W14784  14.984  18.407  14.379
48354W        W14785  26.770  20.525   1.382
48355W        W14786   1.638  41.290  14.889
48356W        W14787  12.436  25.004  11.135
48357W        W14788  29.699  25.210  14.503
48358W        W14789  20.722  15.176  14.779
48359W        W14790   2.266  32.398  11.934
48360W        W14791   4.603  25.010  12.162
48361W        W14792  37.316  44.205   4.113
48362W        W14793  15.934  35.267  11.136
48363W        W14794  13.181  29.112  10.448
48364W        W14795   3.881  39.037  13.781
48365W        W14796   0.453   3.752  12.310
48366W        W14797  29.043   9.808   3.709
48367W        W14798   5.198  12.285   4.513
48368W        W14799  38.866  26.068   0.886
48369W        W14800  14.263   2.376  10.978
48370W        W14801  39.972   5.656  12.110
48371W        W14802  17.537  31.569  11.087
48372W        W14803  31.184  34.617  13.965
48373W        W14804  33.921  37.812   1.302
48374W        W14805   4.727  24.713  11.582
48375W        W14806  17.713  23.176  10.936
48376W        W14807   3.430  25.496   0.848
48377W        W14808  42.303   4.546  13.060
48378W        W14809  38.370   6.348  11.633
48379W        W14810  18.096  12.804   0.326
48380W        W14811  43.341   9.124   4.854
48381W        W14812  15.293  19.725  12.037
48382W        W14813  36.427  13.288   1.831
48383W        W14814  43.332  34.992  14.391
48384W        W14815  14.400  34.512  13.364
48385W        W14816  43.862  12.689  14.135
48386W        W14817   5.844   0.997  12.075
48387W        W14818   4.374  27.734   3.763
48388W        W14819  22.946  41.411  14.756
48389W        W14820  19.650  22.236   1.829
48390W        W14821  16.994   8.466   2.510
48391W        W14822  42.991  37.345   0.716
48392W        W14823  31.864  43.259  11.353
48393W        W14824  17.399  38.811   3.626
48394W        W14825   1.600   9.226   1.408
48395W        W14826  21.707  32.711  12.964
48396W        W14827   6.795  18.695  13.299
48397W        W14828  40.955  28.506   3.750
48398W        W14829   9.427   1.783  14.987
48399W        W14830  34.841  26.062  11.156
48400W        W14831   6.300   4.491   1.745
48401W        W14832  27.236  22.712  14.349
48402W        W14833  33.990  44.720  11.010
48403W        W14834  12.760  25.752   3.889
48404W        W14835   5.334   7.756   1.362
48405W        W14836   7.200  31.897   0.864
48406W        W14837  10.078  19.154   0.677
48407W        W14838  11.795   4.238   3.278
48408W        W14839   1.353  42.769   1.438
48409W        W14840  17.162  42.298   3.711
48410W        W14841  36.534  11.096   4.167
48411W        W14842  43.374  16.090  13.025
48412W        W14843  25.721  36.053   4.607
48413W        W14844  40.291   8.488   4.136
48414W        W14845  32.405   1.024  13.813
48415W        W14846  15.773  42.519  12.859
48416W        W14847  23.534  42.870   3.191
48417W        W14848  19.686  28.902  13.984
48418W        W14849  43.014  42.929   4.082
48419W        W14850  35.376  37.995  12.684
48420W        W14851  41.202  15.792   4.594
48421W        W14852  23.300  38.103   1.882
48422W        W14853  22.734  34.477  11.252
48423W        W14854  18.693  40.224   0.929
48424W        W14855  44.758  38.483  12.814
48425W        W14856   9.625  40.441   1.428
48426W        W14857  28.279   3.426  13.843
48427W        W14858  36.024  10.516   2.187
48428W        W14859  26.185  22.638   2.685
48429W        W14860  16.747  41.438   1.196
48430W        W14861  30.995  39.029   4.139
48431W        W14862  31.174  12.018  12.886
48432W        W14863  23.558  20.347  12.340
48433W        W14864  36.801  42.059  10.574
48434W        W14865  19.539   1.834   3.778
48435W        W14866  17.926  17.031   1.189
48436W        W14867  37.850  29.134  11.091
48437W        W14868  17.826  18.654   1.599
48438W        W14869   3.776  16.242   5.839
48439W        W14870  23.468  40.067   1.625
48440W        W14871  29.769  11.909   4.141
48441W        W14872  44.744  20.744   3.722
48442W        W14873  43.038   7.592   1.378
48443W        W14874  21.486  24.045   3.853
48444W        W14875  12.071  33.017  12.042
48445W        W14876  20.245   0.373  12.192
48446W        W14877  18.071  14.706   2.749
48447W        W14878  18.479  32.534   2.023
48448W        W14879  35.603   9.136  12.637
48449W        W14880  12.147  40.675  10.111
48450W        W14881   4.334  40.368   0.003
48451W        W14882  31.135  26.138   3.732
48452W        W14883   1.504  31.988  12.119
48453W        W14884   1.344  36.144   4.064
48454W        W14885  41.836  40.254  12.072
48455W        W14886  32.690  11.335  11.292
48456W        W14887  43.367  12.964   4.613
48457W        W14888  12.594  18.680   0.490
48458W        W14889  40.309  28.864   0.893
48459W        W14890  36.645  27.557  14.376
48460W        W14891   9.227  41.502  10.733
48461W        W14892  32.245  11.231  13.917
48462W        W14893  29.111  22.001  14.338
48463W        W14894  33.077   2.326  11.648
48464W        W14895   3.330  15.596   4.980
48465W        W14896  30.041  16.495   3.813
48466W        W14897  14.059  36.004  12.434
48467W        W14898  20.689  34.485   3.787
48468W        W14899  29.198  27.287  13.730
48469W        W14900  27.887  12.691   1.173
48470W        W14901  24.794  42.249   3.383
48471W        W14902   3.229  19.678  10.598
48472W        W14903   7.847  32.891   0.413
48473W        W14904  26.743  35.861   4.591
48474W        W14905  41.941  40.037  11.459
48475W        W14906  13.039  14.645  13.975
48476W        W14907  30.130   0.060   0.825
48477W        W14908  19.584   8.242   1.693
48478W        W14909  20.247  37.092  14.009
48479W        W14910  38.386  25.201  11.356
48480W        W14911  34.570  29.921   3.393
48481W        W14912  42.374   9.686  14.829
48482W        W14913   3.077   8.146  13.526
48483W        W14914  31.092  12.142   1.739
48484W        W14915  41.773  34.315   2.503
48485W        W14916  21.105   6.722  14.392
48486W        W14917  20.685  43.339  12.841
48487W        W14918  28.841  26.955  13.595
48488W        W14919  33.345   0.932   0.484
48489W        W14920  24.143  38.601  14.510
48490W        W14921  16.182   6.720  12.459
48491W        W14922  37.495  36.612   3.589
48492W        W14923  40.050  36.514  10.625
48493W        W14924  19.298  30.969   4.698
48494W        W14925   1.025  39.426  12.112
48495W        W14926  28.770   6.692  11.059
48496W        W14927  23.893  12.163  11.125
48497W        W14928  39.400  13.806   0.734
48498W        W14929  34.114   8.653   0.271
48499W        W14930  22.677   1.894  13.134
48500W        W14931  10.496  34.398  14.907
48501W        W14932  25.454  24.168  11.392
48502W        W14933  27.587  32.348  10.532
48503W        W14934  16.239   6.995  12.025
48504W        W14935  11.410  23.602   2.251
48505W        W14936  36.924  23.435   3.280
48506W        W14937  32.616  40.312   1.177
48507W        W14938   5.767  21.190   2.815
48508W        W14939  38.503  21.233  10.209
48509W        W14940   0.984  39.856   0.396
48510W        W14941  41.329  36.804   4.162
48511W        W14942  42.334  44.553  11.433
48512W        W14943   5.405   7.793   1.894
48513W        W14944  21.865  31.423   1.367
48514W        W14945  31.502  28.969   1.532
48515W        W14946   1.402  27.649   4.068
48516W        W14947  27.360  28.743  14.660
48517W        W14948   0.243  40.113  13.816
48518W        W14949  24.545  20.309  11.402
48519W        W14950  37.526   9.683   4.284
48520W        W14951  22.686  17.117   1.010
48521W        W14952  22.280  18.282   2.324
48522W        W14953   9.216  17.430   3.317
48523W        W14954   0.945  35.613  10.753
48524W        W14955  41.562   5.200  11.679
48525W        W14956  12.555   5.676  13.019
48526W        W14957  24.172  28.451  11.163
48527W        W14958  44.902  37.791   4.574
48528W        W14959   4.254  44.961   1.806
48529W        W14960  23.055  40.039  14.434
48530W        W14961  14.121  32.426  11.549
48531W        W14962  44.746  43.327   2.716
48532W        W14963  22.095  30.314   1.828
48533W        W14964  37.694  24.568  13.422
48534W        W14965   0.948  13.179   4.112
48535W        W14966  25.509  39.426   1.404
48536W        W14967  36.057  25.231   2.190
48537W        W14968  37.276   9.654   0.222
48538W        W14969  13.054  17.013   1.976
48539W        W14970   4.833   0.247   4.128
48540W        W14971  33.496  17.145  11.128
48541W        W14972  44.449  24.600   3.897
48542W        W14973  20.474  17.406   1.813
48543W        W14974  21.294  19.101  10.676
48544W        W14975  29.572   3.277   4.510
48545W        W14976  25.115  43.602   5.057
48546W        W14977   9.250  37.769  11.054
48547W        W14978  38.227  42.281  14.894
48548W        W14979  17.704   4.777  12.750
48549W        W14980  29.685   9.290   2.772
48550W        W14981  28.383  13.657  14.811
48551W        W14982  31.288  14.110   4.249
48552W        W14983   5.222  38.408  11.496
48553W        W14984  42.111  33.226   0.885
48554W        W14985  44.868  36.675   4.029
48555W        W14986   2.728  40.375  13.560
48556W        W14987   3.905  28.543  13.262
48557W        W14988  32.829  14.153   1.228
48558W        W14989   6.832  33.834   1.169
48559W        W14990   6.436  28.122   2.060
48560W        W14991  36.811  19.887   4.780
48561W        W14992  12.565   9.612  14.839
48562W        W14993  10.354  43.091  10.926
48563W        W14994   6.814  30.186  13.423
48564W        W14995  32.544   2.285   2.929
48565W        W14996  17.237  33.926   3.649
48566W        W14997  42.970  31.595   1.063
48567W        W14998  13.018  41.424   4.545
48568W        W14999   3.724  41.482   4.590
48569W        W15000   3.003  17.354  11.162
48570W        W15001  25.043  16.217   1.980
48571W        W15002  38.042  26.203   1.958
48572W        W15003  36.538  31.389  12.912
48573W        W15004  29.520  25.374   4.683
48574W        W15005  21.658  37.352   1.880
48575W        W15006   9.885  42.857  13.543
48576W        W15007  33.594  39.002   1.709
48577W        W15008  42.372   1.216   0.738
48578W        W15009   5.430  15.621   4.555
48579W        W15010  18.794  17.712  11.963
48580W        W15011  10.764  20.570   1.772
48581W        W15012  31.010  38.794  13.748
48582W        W15013  25.624  37.948  13.625
48583W        W15014  32.856  17.765  14.402
48584W        W15015  44.094  15.391  12.862
48585W        W15016  44.259  22.286   5.051
48586W        W15017  21.028  14.271   3.774
48587W        W15018  33.095  22.666   3.822
48588W        W15019  28.504  17.289  13.530
48589W        W15020  24.714  22.318  10.710
48590W        W15021  16.652  35.449   1.189
48591W        W15022  33.813   2.881   2.818
48592W        W15023  19.477   0.308  13.111
48593W        W15024  32.492  20.497   1.879
48594W        W15025  34.755  35.898  12.065
48595W        W15026  44.281   5.904   1.206
48596W        W15027  39.524  37.988  14.154
48597W        W15028  42.472   3.911  12.478
48598W        W15029  41.817  12.001   2.300
48599W        W15030  23.704  34.681   4.898
48600W        W15031  12.423  24.607  10.744
48601W        W15032  31.536  20.299  12.640
48602W        W15033  40.534  21.697   1.027
48603W        W15034  11.108   7.597   0.395
48604W        W15035  42.446  30.966  14.829
48605W        W15036  20.285  27.863   2.188
48606W        W15037  18.641  13.628   2.356
48607W        W15038  34.678  33.602  12.065
48608W        W15039  24.424  27.724  12.046
48609W        W15040  37.643  23.056   1.817
48610W        W15041  44.029  16.671  10.621
48611W        W15042   3.826  15.293   3.776
48612W        W15043  31.023  29.794   0.712
48613W        W15044  28.581  10.652   3.182
48614W        W15045  36.108  28.711   2.834
48615W        W15046  44.294  32.870   2.129
48616W        W15047  44.887  39.551   2.132
48617W        W15048   9.665  42.383  11.359
48618W        W15049  16.387  37.512   1.282
48619W        W15050  35.818  26.895  14.997
48620W        W15051   3.602  28.230   3.353
48621W        W15052  18.725  24.903  11.104
48622W        W15053  14.885  16.751   0.440
48623W        W15054  21.602  20.975  13.357
48624W        W15055  18.220   6.167  14.278
48625W        W15056  25.922  41.586  13.900
48626W        W15057   4.473  27.199   5.081
48627W        W15058  19.989  42.620   1.961
48628W        W15059  43.818  27.172   4.153
48629W        W15060  17.145  13.628   0.736
48630W        W15061   9.379  28.980  14.450
48631W        W15062  43.361  32.897   0.852
48632W        W15063  23.033  20.038   1.365
48633W        W15064  27.685  20.124   3.596
48634W        W15065  35.986  39.468   3.573
48635W        W15066  13.054   4.853   3.165
48636W        W15067  32.453  15.792   3.110
48637W        W15068  42.078   5.433  13.859
48638W        W15069  28.390  21.407   3.794
48639W        W15070  23.763  42.211  14.866
48640W        W15071  10.869  21.895  10.951
48641W        W15072  38.417  36.798  14.749
48642W        W15073   6.222  31.383  14.850
48643W        W15074  28.242  39.993   2.463
48644W        W15075  27.629   9.416  12.947
48645W        W15076  22.304  22.954  14.848
48646W        W15077  39.102   8.346  13.564
48647W        W15078   4.286  24.077   2.986
48648W        W15079  27.190  32.036   3.770
48649W        W15080  39.107  15.209   2.705
48650W        W15081   4.916  11.654   4.089
48651W        W15082  19.511   6.000   2.224
48652W        W15083  40.168  11.595  13.488
48653W        W15084   4.752  15.741  13.552
48654W        W15085  44.485  38.844   4.470
48655W        W15086  21.631  43.905  10.331
48656W        W15087  15.145  13.165   1.864
48657W        W15088  17.727  34.076   4.832
48658W        W15089  44.715   6.209   0.178
48659W        W15090  14.850   5.705   3.756
48660W        W15091   9.121  33.583  13.183
48661W        W15092  42.359  42.834  12.935
48662W        W15093  10.710  16.064  14.758
48663W        W15094  34.915  24.422   4.381
48664W        W15095  17.806  10.635  14.940
48665W        W15096  16.310   3.908   1.657
48666W        W15097  28.362  10.379  14.845
48667W        W15098  41.990   9.720  13.333
48668W        W15099  13.540   7.016  12.606
48669W        W15100   4.000  12.137  13.147
48670W        W15101  43.141  30.424  10.675
48671W        W15102   4.927  35.691  12.342
48672W        W15103  24.151  24.020  14.884
48673W        W15104  34.637  37.079   4.562
48674W        W15105   9.368   0.538  14.018
48675W        W15106   3.001  10.282   3.121
48676W        W15107  22.263  16.586  14.117
48677W        W15108  36.352  28.373  10.692
48678W        W15109  44.172  10.617   0.341
48679W        W15110  42.683   1.877  14.969
48680W        W15111  37.945  33.793  10.175
48681W        W15112  39.527  20.231   4.565
48682W        W15113  30.199  32.597  14.266
48683W        W15114  43.206  23.997  11.612
48684W        W15115  36.302  19.229   1.380
48685W        W15116  22.727  22.760  12.860
48686W        W15117   2.015   0.949  11.866
48687W        W15118  40.858   8.275  11.828
48688W        W15119  17.518  19.102   4.362
48689W        W15120  35.609  40.896   4.160
48690W        W15121  34.721  25.527  11.213
48691W        W15122  34.567   1.074  12.381
48692W        W15123  13.196  34.664   3.441
48693W        W15124  43.394  42.516   2.634
48694W        W15125  15.854  13.164  12.406
48695W        W15126  22.666  33.417   4.596
48696W        W15127  13.954  33.921   4.502
48697W        W15128  31.482  23.774   4.219
48698W        W15129   9.111   7.943  14.791
48699W        W15130  16.678  25.771   1.918
48700W        W15131  41.402   8.455  11.137
48701W        W15132  34.642  14.244  14.473
48702W        W15133  34.292   5.364   2.530
48703W        W15134  43.344  32.368   0.836
48704W        W15135  33.833  17.224   3.315
48705W        W15136  27.100  32.360   9.827
48706W        W15137  43.307  23.670   4.640
48707W        W15138   6.291   4.946   1.996
48708W        W15139  13.078   8.746  14.958
48709W        W15140  16.245  11.244  12.876
48710W        W15141  12.062  23.246   0.215
48711W        W15142  24.110   1.630   2.159
48712W        W15143  33.421   7.881   4.809
48713W        W15144  11.807   5.885   2.936
48714W        W15145  30.576  18.645   4.579
48715W        W15146  31.083   2.251   0.789
48716W        W15147  13.166   6.684  12.635
48717W        W15148  25.610  29.430   1.520
48718W        W15149   6.409  11.210  10.819
48719W        W15150   4.915   9.354   3.019
48720W        W15151   0.902  26.484   4.554
48721W        W15152  24.711  39.389  10.647
48722W        W15153  19.189  34.717   4.117
48723W        W15154  13.561  20.008   1.174
48724W        W15155  16.288   9.218  14.122
48725W        W15156   0.132  39.876   0.067
48726W        W15157  23.026  26.063  10.751
48727W        W15158  34.483   9.631   4.606
48728W        W15159   3.836  44.689   1.748
48729W        W15160  20.142  10.376  13.050
48730W        W15161  42.350  36.585   3.764
48731W        W15162  41.575  41.709   2.156
48732W        W15163   3.692  17.234  12.198
48733W        W15164  21.683  29.957   3.323
48734W        W15165  20.189  43.968   2.668
48735W        W15166   2.055  27.276   1.234
48736W        W15167   2.908  42.964   0.325
48737W        W15168  15.849   3.683   0.265
48738W        W15169  20.004  30.998  14.438
48739W        W15170  16.033  29.950  14.881
48740W        W15171  31.915  30.118   4.237
48741W        W15172  15.837   5.420   3.209
48742W        W15173  26.999  17.752  13.103
48743W        W15174   0.494  35.145  14.777
48744W        W15175  25.225   9.337   4.508
48745W        W15176  24.931  17.864  13.613
48746W        W15177  28.913  11.174  11.479
48747W        W15178  21.639  31.393  12.101
48748W        W15179  24.182  12.428  10.789
48749W        W15180  37.874  15.560   0.204
48750W        W15181  29.082   1.316   2.663
48751W        W15182  39.287  38.158   4.471
48752W        W15183  41.803   9.790  14.403
48753W        W15184  33.775  32.462   3.546
48754W        W15185  34.505  29.048   3.243
48755W        W15186  40.038  13.594  13.743
48756W        W15187   6.781  22.547   4.419
48757W        W15188  38.511  42.941   3.278
48758W        W15189   1.989  21.535  12.005
48759W        W15190  40.032   2.792  12.539
48760W        W15191  26.761   6.489   5.168
48761W        W15192  42.825  27.900  14.417
48762W        W15193  10.928   1.060   1.353
48763W        W15194  37.423   8.800   0.814
48764W        W15195   2.743  31.370  13.951
48765W        W15196   5.368  14.188   4.298
48766W        W15197  44.602  31.125   1.545
48767W        W15198  31.363  10.404  13.883
48768W        W15199  20.161  44.011   1.624
48769W        W15200   2.616  32.438   3.323
48770W        W15201   4.866   6.478  11.536
48771W        W15202  30.864  34.988  11.487
48772W        W15203  37.142  27.427   3.204
48773W        W15204  36.565  33.936  10.236
48774W        W15205  37.561  24.158   0.242
48775W        W15206   9.161   4.722   4.912
48776W        W15207  22.711  40.560   5.122
48777W        W15208  34.864  28.099  14.299
48778W        W15209  22.117  35.328  13.154
48779W        W15210  19.140  44.994   1.328
48780W        W15211  25.217   4.127   4.083
48781W        W15212  31.175  20.533   1.327
48782W        W15213  41.132  20.486  13.430
48783W        W15214  18.514  44.989  13.092
48784W        W15215  33.996   3.257  14.040
48785W        W15216  17.280   6.212   1.686
48786W        W15217  31.319  39.821   2.194
48787W        W15218  10.657  21.619  13.003
48788W        W15219  18.043  11.142   3.183
48789W        W15220  36.515  12.590  14.006
48790W        W15221  20.200   9.667   0.570
48791W        W15222  21.283   9.253   0.124
48792W        W15223  44.033  41.808  11.565
48793W        W15224  13.231   5.621  14.257
48794W        W15225  19.001  27.885  14.283
48795W        W15226  44.746  28.107   3.190
48796W        W15227  31.682  24.035   3.833
48797W        W15228  18.627   7.777   0.574
48798W        W15229   9.706  30.443  10.625
48799W        W15230  11.894  36.665   2.471
48800W        W15231  36.522  39.118   1.487
48801W        W15232  31.470  27.583   0.922
48802W        W15233   6.825   1.048  14.279
48803W        W15234  44.586  25.051  11.632
48804W        W15235   3.780  33.262  11.172
48805W        W15236  17.833  14.142   2.688
48806W        W15237  36.833  27.198  14.743
48807W        W15238   1.706  14.175   4.132
48808W        W15239  41.142  39.522  12.590
48809W        W15240  27.238  20.814   2.293
48810W        W15241   8.994  43.463   4.186
48811W        W15242  26.654   3.288   1.365
48812W        W15243  23.166  44.967  14.001
48813W        W15244   5.077  37.387  14.379
48814W        W15245  38.307  19.537  12.433
48815W        W15246  32.151  11.132  14.861
48816W        W15247   4.760  20.402   0.943
48817W        W15248  15.332  37.798   4.084
48818W        W15249  24.759  43.777  12.830
48819W        W15250   6.686  25.988  12.206
48820W        W15251  22.953  13.225  10.932
48821W        W15252   4.901  41.843  13.195
48822W        W15253  20.928   9.362  11.098
48823W        W15254  30.106  41.366  12.437
48824W        W15255  11.606  30.163  14.519
48825W        W15256  14.921   7.038   4.185
48826W        W15257  36.539   7.405   4.368
48827W        W15258  19.159  11.236  13.638
48828W        W15259  17.051  12.651  11.150
48829W        W15260  24.158   3.272  12.537
48830W        W15261  35.930   8.795   0.021
48831W        W15262  15.270   1.908   2.630
48832W        W15263  32.787  36.594  12.102
48833W        W15264  30.011  30.831   4.634
48834W        W15265  16.273  30.691   0.297
48835W        W15266  25.492  30.456  13.508
48836W        W15267  41.071  12.605   4.130
48837W        W15268  37.453  30.850   0.541
48838W        W15269  11.241  12.123   0.526
48839W        W15270  30.368  35.408   0.387
48840W        W15271   3.366  19.884   4.842
48841W        W15272   0.145  31.896  13.370
48842W        W15273   6.213   7.994  11.040
48843W        W15274   0.196  44.727  11.989
48844W        W15275   7.170  22.849   0.006
48845W        W15276   9.471   7.246  12.176
48846W        W15277   6.730  19.621  11.691
48847W        W15278  17.032  29.132  12.869
48848W        W15279  22.248  14.775   3.649
48849W        W15280  19.836   0.507  11.885
48850W        W15281  39.349   0.033   1.842
48851W        W15282  24.731  14.829  14.302
48852W        W15283  20.245   5.785   3.783
48853W        W15284  20.696  28.853   2.382
48854W        W15285   5.558  32.183   4.406
48855W        W15286  22.035   7.589  13.640
48856W        W15287  16.582  15.409  12.496
48857W        W15288  41.242  21.514  12.885
48858W        W15289  11.876  43.031   0.914
48859W        W15290  16.406  21.476   4.038
48860W        W15291  31.339  22.112   2.651
48861W        W15292  44.489  41.855   2.556
48862W        W15293  22.647  15.243  12.982
48863W        W15294  36.247  24.494   4.602
48864W        W15295   6.643  36.905   0.321
48865W        W15296  19.252  13.258   0.016
48866W        W15297  41.709  12.799   2.756
48867W        W15298  19.651  26.427  13.916
48868W        W15299  10.646  15.253   1.596
48869W        W15300  14.644  29.098   0.420
48870W        W15301   4.342  10.983  13.284
48871W        W15302   5.739   6.659  13.408
48872W        W15303  29.379  42.996   1.652
48873W        W15304   8.357  38.790   1.881
48874W        W15305   7.394  39.449   4.164
48875W        W15306  10.271  38.908  14.406
48876W        W15307  16.049   9.320   1.063
48877W        W15308   4.955  26.423  12.049
48878W        W15309  31.704   6.701  11.129
48879W        W15310  36.873  26.657  12.982
48880W        W15311  41.325   7.926   2.842
48881W        W15312  35.521  39.340   1.724
48882W        W15313  21.639  20.828  11.156
48883W        W15314  40.991   7.569  14.416
48884W        W15315   2.182  14.820  14.959
48885W        W15316   3.191   0.782  13.470
48886W        W15317  15.592  15.701  12.985
48887W        W15318  23.715  28.466  10.310
48888W        W15319  31.115  44.406   4.215
48889W        W15320  30.018  44.471   0.341
48890W        W15321  27.564  43.489  10.794
48891W        W15322  40.409  28.189   1.399
48892W        W15323   0.441  30.532  11.677
48893W        W15324  43.789   3.717  13.285
48894W        W15325  42.375  22.458   0.341
48895W        W15326  27.660  25.658   0.681
48896W        W15327  17.636  15.631  14.876
48897W        W15328   8.135  44.949  12.156
48898W        W15329  15.375   6.058  10.326
48899W        W15330  37.922  24.448   4.312
48900W        W15331  31.757  26.980  13.238
48901W        W15332  42.514  27.134   4.489
48902W        W15333   4.605  23.998   2.242
48903W        W15334  22.106  16.732  14.573
48904W        W15335   8.683  29.808  11.608
48905W        W15336  17.907  32.385  10.583
48906W        W15337  37.885  36.909  11.145
48907W        W15338  17.027  34.642  12.020
48908W        W15339  13.807  11.961   1.872
48909W        W15340  36.104  18.067   4.449
48910W        W15341  29.021  11.710   4.837
48911W        W15342  17.618   6.004  11.565
48912W        W15343   0.064   9.511  13.625
48913W        W15344  26.585  15.329   3.771
48914W        W15345  18.575  13.756  14.378
48915W        W15346   6.419  16.560   1.831
48916W        W15347  41.067  27.032  13.787
48917W        W15348  17.953  13.072   2.413
48918W        W15349  21.028  25.592   1.839
48919W        W15350  24.133  23.720   2.700
48920W        W15351  16.646   9.236  10.876
48921W        W15352   5.911  38.948   3.206
48922W        W15353  26.584  11.398   2.698
48923W        W15354  40.996  16.181  11.147
48924W        W15355  15.815   6.096  11.236
48925W        W15356  40.306  20.507  10.850
48926W        W15357   0.355  16.672   1.124
48927W        W15358  31.211   5.081   2.252
48928W        W15359  31.418  11.319   0.925
48929W        W15360  19.461   9.806   3.751
48930W        W15361  20.196  41.433  11.085
48931W        W15362   9.809  13.782  14.870
48932W        W15363  30.119  37.755   4.051
48933W        W15364  10.257   1.247   4.552
48934W        W15365   2.859  23.844   4.234
48935W        W15366  24.669  16.596   1.342
48936W        W15367  16.145  20.230   1.602
48937W        W15368   0.854  14.153   3.205
48938W        W15369  27.002  28.234  13.442
48939W        W15370  26.036  12.269   1.814
48940W        W15371  14.804  26.952   0.799
48941W        W15372  11.238  33.553   3.798
48942W        W15373  28.401  12.689   1.209
48943W        W15374  16.446  28.173   4.922
48944W        W15375  14.610  18.786   0.345
48945W        W15376  32.126  32.438  14.882
48946W        W15377   7.543  30.798  12.524
48947W        W15378  39.031  11.185   0.820
48948W        W15379  39.447  19.211   1.200
48949W        W15380   5.820  27.036  12.617
48950W        W15381  36.618  41.323   1.813
48951W        W15382  39.956  34.472   3.837
48952W        W15383  43.182  17.982  13.570
48953W        W15384  21.165  16.267   2.640
48954W        W15385  24.895  23.064   3.545
48955W        W15386  11.769  44.464  10.525
48956W        W15387  25.044   0.484  12.665
48957W        W15388   3.214   6.535   0.769
48958W        W15389  24.364  27.620  11.154
48959W        W15390  31.862   3.251  12.523
48960W        W15391  26.719  17.634   0.847
48961W        W15392  42.440  28.807  11.087
48962W        W15393   2.444  14.845   0.437
48963W        W15394  13.608  15.286  11.053
48964W        W15395   0.280  44.365  11.252
48965W        W15396   3.996  28.530   3.872
48966W        W15397  12.150  26.651   4.890
48967W        W15398   5.688  23.424  13.828
48968W        W15399  21.331  18.215   4.202
48969W        W15400  13.241  36.291   0.463
48970W        W15401  14.092   7.359   4.627
48971W        W15402  19.025  25.325   4.970
48972W        W15403  21.539   5.974  14.098
48973W        W15404   6.231  32.127  11.007
48974W        W15405  11.773  32.936  14.471
48975W        W15406  41.326  34.996   1.311
48976W        W15407   7.156  17.086   3.104
48977W        W15408   6.787  43.287  13.710
48978W        W15409  28.527  22.308   2.854
48979W        W15410  27.563   4.751  10.923
48980W        W15411   9.658  43.594  13.837
48981W        W15412  24.721  38.065   4.575
48982W        W15413  43.752  36.324  13.360
48983W        W15414  31.596  27.721  11.697
48984W        W15415  13.270  10.602  11.043
48985W        W15416  32.016  33.466  13.563
48986W        W15417  39.093  38.993  13.524
48987W        W15418  23.991  31.406  12.572
48988W        W15419  28.086   9.167  14.269
48989W        W15420  13.680   4.349  14.806
48990W        W15421  31.974  30.148  14.824
48991W        W15422  24.896   8.780  12.560
48992W        W15423  40.525  41.940   3.055
48993W        W15424  10.510  38.411   3.039
48994W        W15425  10.935   3.916  12.611
48995W        W15426  32.998  42.656   0.579
48996W        W15427  34.277  10.144   4.526
48997W        W15428  35.828   9.699  10.688
48998W        W15429  40.524   7.069   3.825
48999W        W15430   5.947  43.041   0.197
49000W        W15431  20.153  13.094  11.104
49001W        W15432  27.116   6.801  13.449
49002W        W15433   6.367  32.429   1.154
49003W        W15434  34.062  17.782   4.692
49004W        W15435   2.457  43.897  14.968
49005W        W15436  30.446  22.193   4.518
49006W        W15437  25.636  18.692   4.206
49007W        W15438  18.715  41.831  12.287
49008W        W15439   8.120  36.393  10.701
49009W        W15440  36.052  27.783   1.773
49010W        W15441  33.579  31.856  13.861
49011W        W15442   3.514  23.220  12.557
49012W        W15443  25.094  13.181  12.929
49013W        W15444  40.376  37.261   2.377
49014W        W15445  20.722  21.604   3.335
49015W        W15446  30.898  25.104  12.451
49016W        W15447  16.439   0.219   3.772
49017W        W15448  10.168  18.122   3.088
49018W        W15449  30.423  21.006   1.233
49019W        W15450  23.823  41.102   3.174
49020W        W15451  13.125  11.763  14.794
49021W        W15452  35.554  14.214   3.834
49022W        W15453  39.309  42.471   4.237
49023W        W15454  15.782  28.850   1.672
49024W        W15455  17.523  11.854  14.999
49025W        W15456  26.120  34.356  14.884
49026W        W15457   4.228  23.520  13.013
49027W        W15458  19.231  42.010   2.123
49028W        W15459  41.740  14.630  10.813
49029W        W15460  36.409  20.859   3.081
49030W        W15461  30.823  23.384  14.197
49031W        W15462  18.343  36.879   3.890
49032W        W15463  24.493  27.309  12.957
49033W        W15464  36.773  17.175   1.461
49034W        W15465  44.910  18.568  12.627
49035W        W15466  37.934  39.317  11.332
49036W        W15467  33.370  13.645  12.550
49037W        W15468   0.152  21.127  14.272
49038W        W15469  10.560  15.312  10.824
49039W        W15470  28.326  15.203  14.849
49040W        W15471  34.566   2.563   1.784
49041W        W15472  21.477  43.023  12.768
49042W        W15473   4.966   4.509  12.438
49043W        W15474  24.052  16.633   4.952
49044W        W15475  23.606  17.234   4.581
49045W        W15476  16.354  16.089   1.669
49046W        W15477   2.034  29.607  11.143
49047W        W15478  15.985  30.646  14.374
49048W        W15479  18.107   8.528  13.707
49049W        W15480   6.092  15.102   4.039
49050W        W15481  31.390   1.747  11.200
49051W        W15482  24.264  19.782   2.164
49052W        W15483  29.765  36.389   0.981
49053W        W15484  11.851  33.113   2.569
49054W        W15485  38.242  21.040  11.766
49055W        W15486  18.981  27.575  12.507
49056W        W15487  26.029   3.948  13.067
49057W        W15488  25.636  24.540  13.783
49058W        W15489  30.101  22.151  14.733
49059W        W15490  44.950  44.503   2.834
49060W        W15491  22.240  19.618  12.477
49061W        W15492  27.091  24.179  11.191
49062W        W15493  30.097   2.459  13.624
49063W        W15494  22.995  20.175  14.199
49064W        W15495  15.672   7.406   0.227
49065W        W15496  18.216  38.573   2.879
49066W        W15497  27.050  18.567   5.215
49067W        W15498  30.231  37.778   3.061
49068W        W15499  27.034  34.563   4.388
49069W        W15500   9.407  44.678   3.707
49070W        W15501  13.196  14.243   1.168
49071W        W15502  14.791  42.308   2.182
49072W        W15503  34.817   1.759  14.962
49073W        W15504  12.325   2.886  14.204
49074W        W15505  34.383  13.992   3.102
49075W        W15506  32.422  10.121  11.993
49076W        W15507  11.171   2.127   3.811
49077W        W15508  30.053   0.985  13.051
49078W        W15509  33.064  32.530   1.625
49079W        W15510  15.277  27.680   2.145
49080W        W15511  39.634  37.769   0.926
49081W        W15512  40.028  19.642   0.720
49082W        W15513  23.769   8.650   1.812
49083W        W15514  28.141  42.945  13.614
49084W        W15515   3.801  40.104  12.902
49085W        W15516   5.788  19.296  12.110
49086W        W15517  35.639  13.570   0.790
49087W        W15518  15.311   6.953  14.441
49088W        W15519  32.164  43.328   3.524
49089W        W15520  32.761  27.688   1.282
49090W        W15521  38.780  28.638   1.016
49091W        W15522   6.872  36.964   4.619
49092W        W15523  39.538  20.235  12.660
49093W        W15524  19.531  19.831  12.272
49094W        W15525  12.727  21.107   3.673
49095W        W15526  15.541  35.203  14.962
49096W        W15527  43.241  27.425  10.557
49097W        W15528  17.553  43.987   0.890
49098W        W15529  16.459   9.634   4.592
49099W        W15530  39.766  27.628  14.349
49100W        W15531  40.395   3.498  10.985
49101W        W15532  29.089  29.899  11.181
49102W        W15533  28.506  13.238  11.710
49103W        W15534  39.888   9.176   2.702
49104W        W15535  19.288  18.482  12.015
49105W        W15536  35.662  40.572   3.743
49106W        W15537  44.302  18.184   0.696
49107W        W15538  27.188   0.952   2.552
49108W        W15539  13.852  25.123  12.060
49109W        W15540   7.273  36.432   1.814
49110W        W15541   8.930  11.194  11.032
49111W        W15542  26.363  32.418   3.719
49112W        W15543  17.183  34.283   2.700
49113W        W15544  24.020   7.439  12.094
49114W        W15545  17.648  42.504  11.414
49115W        W15546  42.533  19.051  13.976
49116W        W15547   4.354  15.757  14.371
49117W        W15548   0.853   2.887   3.220
49118W        W15549  44.324  22.879  11.131
49119W        W15550  25.934   4.881  11.615
49120W        W15551  38.396  32.925   3.581
49121W        W15552  30.051   1.692   5.004
49122W        W15553   7.808  29.100  14.915
49123W        W15554   0.233  42.780   4.850
49124W        W15555   3.227  22.507  13.012
49125W        W15556   2.336   5.672  10.679
49126W        W15557   6.144   0.027   3.678
49127W        W15558  29.493  11.063  10.606
49128W        W15559  11.857  26.622  11.448
49129W        W15560  11.572  32.557   0.215
49130W        W15561  30.571  14.845  13.395
49131W        W15562  15.184  14.710   3.668
49132W        W15563  11.939  24.174  12.316
49133W        W15564  31.140   7.141  12.174
49134W        W15565  12.649  33.455  11.028
49135W        W15566  31.456  37.024   4.033
49136W        W15567  34.275   3.531  13.000
49137W        W15568  19.267  39.405   2.056
49138W        W15569  42.103  29.642   1.773
49139W        W15570  18.054   7.854  14.455
49140W        W15571  41.305  30.479  13.500
49141W        W15572   6.003   6.375  13.053
49142W        W15573  15.675  19.727   3.213
49143W        W15574  26.432  16.914  11.564
49144W        W15575  16.618  41.282  11.758
49145W        W15576  43.865  37.475  14.908
49146W        W15577  19.986  44.989   1.181
49147W        W15578  43.493   6.935  14.970
49148W        W15579   6.251  40.796  14.982
49149W        W15580  22.488  19.016   0.792
49150W        W15581  40.003   5.172  12.352
49151W        W15582  14.785   1.833  13.966
49152W        W15583  29.970  43.368  14.567
49153W        W15584  22.609  30.947   0.922
49154W        W15585  33.882  42.895   3.202
49155W        W15586  32.859  12.910  12.907
49156W        W15587  33.462  34.339  12.964
49157W        W15588   0.614  12.383  12.921
49158W        W15589  22.512  14.087  14.546
49159W        W15590  43.381   3.924  11.553
49160W        W15591  31.450  14.813   1.321
49161W        W15592  37.903  34.139   4.200
49162W        W15593  12.245  35.780  11.237
49163W        W15594  23.804  11.597   2.614
49164W        W15595  36.895   3.491  13.811
49165W        W15596  36.119  37.101   2.593
49166W        W15597   3.319  17.796   3.779
49167W        W15598  41.896  14.433  12.413
49168W        W15599  26.504   1.993  10.972
49169W        W15600  15.807  40.763  13.476
49170W        W15601  13.813  30.288  13.593
49171W        W15602  14.064  13.124   4.160
49172W        W15603  20.027  43.881  12.958
49173W        W15604  22.713  10.529   1.960
49174W        W15605   5.340  11.952  12.018
49175W        W15606  25.689  14.665   4.634
49176W        W15607  13.483  37.015   3.597
49177W        W15608   7.495   3.240  11.236
49178W        W15609  19.174  32.671  12.052
49179W        W15610   1.481  31.074  11.737
49180W        W15611   5.661  12.807  14.950
49181W        W15612   6.480  24.078   1.924
49182W        W15613   8.289  10.697  12.567
49183W        W15614  23.732  44.048  12.969
49184W        W15615  38.022  28.175  13.065
49185W        W15616  29.360  30.548   0.879
49186W        W15617  31.185  24.921   1.178
49187W        W15618   5.408   0.201  14.332
49188W        W15619  18.623  20.001  14.026
49189W        W15620  17.751  16.640  12.243
49190W        W15621  30.417  24.181  13.619
49191W        W15622  38.682   2.838  13.763
49192W        W15623  17.224   7.658  14.997
49193W        W15624  23.018   8.610  13.559
49194W        W15625   0.620  19.161   4.167
49195W        W15626  41.011  41.055   0.711
49196W        W15627  28.454  32.389   3.206
49197W        W15628  24.979  24.018   3.715
49198W        W15629  12.924  28.748  12.342
49199W        W15630  33.879  25.429   2.614
49200W        W15631  44.234  10.691   1.255
49201W        W15632  14.805   4.912   2.746
49202W        W15633  34.406  27.702   3.184
49203W        W15634  37.557  40.511   1.620
49204W        W15635  40.592   3.936  11.187
49205W        W15636   2.631  24.477  13.868
49206W        W15637  13.528  20.116   2.286
49207W        W15638   4.621  15.658   2.672
49208W        W15639   7.095   9.048   1.897
49209W        W15640  33.836   0.501  11.547
49210W        W15641  30.496  21.258  12.552
49211W        W15642   7.127  15.612   2.422
49212W        W15643  30.967  42.450   4.847
49213W        W15644   5.899  21.914  14.389
49214W        W15645  42.819  38.809  13.075
49215W        W15646  31.881  16.044   2.830
49216W        W15647  30.519  42.402   4.599
49217W        W15648  31.437  43.466   0.800
49218W        W15649   4.337  25.554   1.251
49219W        W15650  30.007  23.351  13.772
49220W        W15651  25.207  25.089  12.921
49221W        W15652  10.717   3.494  12.137
49222W        W15653  17.197   3.447   4.064
49223W        W15654  25.157  35.511  12.259
49224W        W15655  31.644  12.210  13.583
49225W        W15656  40.301  24.138   3.105
49226W        W15657   7.815  27.128   2.799
49227W        W15658  43.452  32.383   1.724
49228W        W15659  16.073  15.647   1.811
49229W        W15660  44.739  26.200   1.970
49230W        W15661  26.400  26.739   1.977
49231W        W15662  32.871   5.649  12.828
49232W        W15663  10.146   4.236   2.137
49233W        W15664  34.638  14.271   2.278
49234W        W15665  12.085  31.630  14.433
49235W        W15666   7.264  29.855  11.009
49236W        W15667   3.067  32.132  14.824
49237W        W15668  20.680  37.650   4.083
49238W        W15669   7.423   6.135  14.864
49239W        W15670  19.837  44.265   3.646
49240W        W15671  35.998   7.270   2.632
49241W        W15672  43.908  28.905  12.062
49242W        W15673  27.314   5.146   4.162
49243W        W15674  14.423  28.533  10.640
49244W        W15675   0.185   7.404   3.340
49245W        W15676  18.354  16.359   2.650
49246W        W15677   1.252  12.214   3.240
49247W        W15678  14.638  27.615   3.584
49248W        W15679   2.250  38.389  13.547
49249W        W15680  36.334  20.030  14.842
49250W        W15681   4.444   1.848  10.323
49251W        W15682   7.289  22.839  11.287
49252W        W15683  34.880  15.900   1.178
49253W        W15684  13.644  34.493  12.306
49254W        W15685  39.112  20.611  11.938
49255W        W15686  21.242  41.989   2.229
49256W        W15687   7.884   5.483  13.850
49257W        W15688  27.643   4.761  12.954
49258W        W15689   7.749  10.329   3.573
49259W        W15690   6.176  25.319  11.095
49260W        W15691  39.583  26.478   0.318
49261W        W15692  39.345  26.960   2.812
49262W        W15693  22.387  44.508   2.301
49263W        W15694  34.976  21.725  13.410
49264W        W15695  25.506  24.170  11.892
49265W        W15696  20.574   8.756   0.916
49266W        W15697  31.873   0.284   1.167
49267W        W15698  11.826  38.393  13.844
49268W        W15699  14.998  17.635   4.044
49269W        W15700  13.730  17.246   3.334
49270W        W15701  34.758  26.179   4.607
49271W        W15702   0.172  21.803   3.332
49272W        W15703  29.977  20.502  12.647
49273W        W15704  17.299   0.063  11.771
49274W        W15705  34.919  29.714  10.337
49275W        W15706   8.936  38.022  10.725
49276W        W15707  18.510   2.420  13.631
49277W        W15708  19.144  42.856  10.418
49278W        W15709  24.811   3.842  13.549
49279W        W15710  27.735  25.238  14.760
49280W        W15711  25.473  42.738  11.599
49281W        W15712   9.700  17.817  14.968
49282W        W15713  13.251   7.818   3.533
49283W        W15714  14.255  30.006  13.462
49284W        W15715  36.750  19.975  11.314
49285W        W15716  20.008  14.557   1.329
49286W        W15717  43.524  24.801  12.004
49287W        W15718  34.611  37.369  13.481
49288W        W15719  23.202  31.627   4.556
49289W        W15720   5.279  39.421  14.323
49290W        W15721  14.756  34.901  10.347
49291W        W15722   2.474  35.858  13.326
49292W        W15723   5.347   1.274  14.404
49293W        W15724   4.399   1.162   2.674
49294W        W15725  18.249  41.895  14.517
49295W        W15726   2.506  43.708  11.907
49296W        W15727  14.824  32.189  10.842
49297W        W15728  12.251  28.229  10.931
49298W        W15729  13.100   7.716  11.046
49299W        W15730  31.090  12.259  10.681
49300W        W15731  12.703  12.868  12.326
49301W        W15732  22.325   8.612   4.384
49302W        W15733  22.215  28.169  10.822
49303W        W15734  35.479   6.341  12.741
49304W        W15735  33.735  31.920   2.563
49305W        W15736  18.081  29.402   1.400
49306W        W15737   0.704  18.161  14.812
49307W        W15738  28.725  16.692  12.772
49308W        W15739  36.426  30.661  12.080
49309W        W15740   7.404  23.796   2.370
49310W        W15741   8.418   0.293  13.365
49311W        W15742   6.027   4.170   3.620
49312W        W15743  20.242  24.922   1.852
49313W        W15744   4.146   7.399   3.482
49314W        W15745  24.171   9.277  12.810
49315W        W15746  37.642  26.920   3.268
49316W        W15747  44.095  28.127   1.574
49317W        W15748   5.702  32.156   0.473
49318W        W15749  23.788  11.977  14.698
49319W        W15750  31.953  34.174  13.745
49320W        W15751  38.627  10.385   0.862
49321W        W15752  43.029  14.160   1.781
49322W        W15753  27.605  41.056  10.824
49323W        W15754   0.344  18.127   3.011
49324W        W15755  39.320   3.477  13.872
49325W        W15756  44.546  36.558  12.830
49326W        W15757  34.883  43.321  10.770
49327W        W15758   5.203  29.257  12.104
49328W        W15759  22.351  27.485  11.539
49329W        W15760   5.713  10.728   4.476
49330W        W15761   3.200  17.782  13.994
49331W        W15762  24.125  12.840   2.192
49332W        W15763  13.146  35.824   0.263
49333W        W15764  37.338  26.205   3.653
49334W        W15765  15.627  20.226  14.381
49335W        W15766   5.219  25.715   4.672
49336W        W15767  26.986  41.997  14.407
49337W        W15768  10.267  13.250  10.663
49338W        W15769   1.555  34.738  14.436
49339W        W15770   7.214  39.489   2.302
49340W        W15771  17.122  16.339  13.039
49341W        W15772  11.502  37.394  13.134
49342W        W15773  18.046   0.741   0.849
49343W        W15774   7.857  21.711   0.909
49344W        W15775  36.567  20.921  14.083
49345W        W15776  11.260  21.528  12.223
49346W        W15777   1.090   4.483  12.308
49347W        W15778  40.585  12.225   4.147
49348W        W15779  33.022  33.256   2.620
49349W        W15780  41.778  21.711  12.893
49350W        W15781   6.769  27.520  12.488
49351W        W15782  25.134  23.284  13.319
49352W        W15783  23.997   6.357   4.459
49353W        W15784  39.633  20.748   0.306
49354W        W15785  12.285  39.366  13.744
49355W        W15786  44.832  21.437   4.135
49356W        W15787   9.382  26.603   4.987
49357W        W15788  18.597  24.808   0.834
49358W        W15789  13.417  19.419   0.050
49359W        W15790   7.923   3.395  12.455
49360W        W15791  36.511  12.311   4.706
49361W        W15792  40.086  20.617   2.306
49362W        W15793  43.968  16.063  12.335
49363W        W15794   0.048   4.618  14.315
49364W        W15795  27.142  32.391  14.482
49365W        W15796  39.338  43.689   0.809
49366W        W15797   7.541  33.168  14.532
49367W        W15798  43.431  24.408  14.273
49368W        W15799  32.840  32.015   2.381
49369W        W15800  16.505  34.516   4.632
49370W        W15801  15.224  26.261   0.758
49371W        W15802   5.852  18.094   2.264
49372W        W15803  17.043  13.674   2.104
49373W        W15804  13.175  33.449  14.058
49374W        W15805  15.844  13.324   9.973
49375W        W15806  25.563   8.365   4.632
49376W        W15807  40.492  30.357   0.456
49377W        W15808   0.359  41.434  11.183
49378W        W15809  37.697  35.126   0.405
49379W        W15810  21.196  16.738  12.223
49380W        W15811   2.502  29.082  12.689
49381W        W15812  32.463   4.476  11.571
49382W        W15813   7.291  44.375   3.591
49383W        W15814  34.584  22.068   3.425
49384W        W15815  32.251  38.559   3.468
49385W        W15816   6.608  19.282   4.561
49386W        W15817  27.618  37.789  14.994
49387W        W15818   2.257   4.861   0.827
49388W        W15819   3.631  32.541   3.256
49389W        W15820  30.789  24.485  12.172
49390W        W15821  24.178   6.380  12.876
49391W        W15822  18.707  27.707   1.933
49392W        W15823  27.242  18.056  13.418
49393W        W15824  39.593   1.527  14.407
49394W        W15825   9.261  38.769  11.193
49395W        W15826  14.151   9.249   0.271
49396W        W15827  14.165   4.475  14.922
49397W        W15828  12.555  16.226   4.826
49398W        W15829  23.588  41.484  12.056
49399W        W15830   4.701  30.408  10.467
49400W        W15831  28.440  21.574   2.377
49401W        W15832  44.057  16.884   2.919
49402W        W15833  24.752  25.025   4.590
49403W        W15834  13.373  43.707  11.568
49404W        W15835  10.161  10.166   0.685
49405W        W15836  27.995  11.355  14.983
49406W        W15837  15.693  25.712  13.573
49407W        W15838  18.754  27.367   4.099
49408W        W15839  29.035  37.457  11.530
49409W        W15840   4.017  13.165  14.500
49410W        W15841  39.033  36.006  14.885
49411W        W15842  18.473  17.797   5.238
49412W        W15843  16.307  18.827   4.093
49413W        W15844  21.935  29.849   1.635
49414W        W15845  35.611  33.076  14.484
49415W        W15846  41.507  39.429   3.262
49416W        W15847  40.582   4.224   3.033
49417W        W15848  35.362  11.737   0.402
49418W        W15849  35.164  19.108  13.050
49419W        W15850  33.821  12.354   1.168
49420W        W15851  33.455   8.287  12.052
49421W        W15852  21.592   3.673  12.115
49422W        W15853   9.117  29.599  12.402
49423W        W15854  34.885  23.307  14.612
49424W        W15855  42.779  26.598  11.413
49425W        W15856  23.126   9.408   2.164
49426W        W15857  22.945  35.406  13.045
49427W        W15858  20.315  38.364   0.560
49428W        W15859  28.530  33.405   1.672
49429W        W15860  40.424   3.417  12.931
49430W        W15861  27.058  36.608  12.163
49431W        W15862   5.637   1.464  12.174
49432W        W15863  10.378  32.133   0.032
49433W        W15864   5.781   0.086  12.004
49434W        W15865  41.447  27.107  10.737
49435W        W15866  17.037  16.711   4.970
49436W        W15867   3.986  43.445  11.104
49437W        W15868   1.378  34.384  13.466
49438W        W15869  13.796  18.493   2.820
49439W        W15870  41.376  43.544   3.618
49440W        W15871   9.314  28.948  11.641
49441W        W15872   3.562  43.909   9.900
49442W        W15873  28.388  23.759   4.186
49443W        W15874  14.065  42.604  14.822
49444W        W15875  11.001  26.416  13.444
49445W        W15876  28.356  16.656   0.133
49446W        W15877  39.285   7.836  11.116
49447W        W15878  12.713  20.761   4.963
49448W        W15879  35.779  12.637   3.175
49449W        W15880   2.507  22.278   0.484
49450W        W15881   1.234  38.872   9.985
49451W        W15882   1.013   7.641   2.873
49452W        W15883  16.789  34.070  11.060
49453W        W15884   6.865  13.225  14.406
49454W        W15885   2.413  30.170  13.592
49455W        W15886  11.797  31.901  11.422
49456W        W15887   2.802  19.508   3.960
49457W        W15888  16.655  24.150   1.448
49458W        W15889  28.580  11.194  13.353
49459W        W15890  37.385  40.945  12.950
49460W        W15891  27.228  32.936  11.862
49461W        W15892  16.078   1.821  12.161
49462W        W15893  16.542  10.899  11.514
49463W        W15894  31.851  37.570   3.372
49464W        W15895  33.739  39.101   4.972
49465W        W15896  22.540  19.502   2.672
49466W        W15897  30.606  19.675   0.318
49467W        W15898  16.679  12.678   3.571
49468W        W15899  37.233   2.106  14.923
49469W        W15900  40.103  35.801   4.123
49470W        W15901  44.322   7.778   3.561
49471W        W15902  31.952  37.851   1.082
49472W        W15903   1.247  24.628   0.101
49473W        W15904  44.386  37.836  13.048
49474W        W15905  44.397  26.885  10.989
49475W        W15906  30.423   4.426  14.542
49476W        W15907  12.141  16.371  11.068
49477W        W15908  42.719  33.597  10.375
49478W        W15909  10.342  19.492  14.508
49479W        W15910  34.800  17.241  13.079
49480W        W15911  12.126  15.352   2.254
49481W        W15912  22.554  23.634   4.837
49482W        W15913  23.538  13.157  11.119
49483W        W15914   6.190  13.026  10.696
49484W        W15915  19.456  13.793   3.174
49485W        W15916   2.134  40.139   4.024
49486W        W15917   0.331   8.862   2.884
49487W        W15918  15.720  11.615   4.546
49488W        W15919  43.249   5.642  12.044
49489W        W15920  32.429  41.965  12.392
49490W        W15921  12.264  14.382   1.255
49491W        W15922  13.597  40.454   2.767
49492W        W15923  16.702  21.181   0.058
49493W        W15924  38.902  33.687  14.055
49494W        W15925  29.023  37.024   4.477
49495W        W15926  26.090  32.261   2.311
49496W        W15927  14.687  35.955   2.550
49497W        W15928  23.085   3.200  11.581
49498W        W15929   5.302  39.599   4.891
49499W        W15930   9.389  35.967   0.149
49500W        W15931  41.895  16.245  11.126
49501W        W15932   8.973  16.834   1.651
49502W        W15933  18.196  20.048  13.753
49503W        W15934  25.304  29.648  12.453
49504W        W15935   7.845  11.800   4.475
49505W        W15936  15.322   3.104   4.053
49506W        W15937   5.597  29.198   2.252
49507W        W15938   8.818  23.269  10.852
49508W        W15939  42.630  42.874  13.845
49509W        W15940   7.154  21.277  12.513
49510W        W15941  27.155   8.984   3.609
49511W        W15942   8.996  41.056  11.493
49512W        W15943  11.347   4.173   1.430
49513W        W15944  18.694  23.298   2.846
49514W        W15945  36.092   7.738  11.620
49515W        W15946   0.577  13.331  11.098
49516W        W15947  10.193  26.263  11.532
49517W        W15948  34.527   2.934  12.495
49518W        W15949   7.228  33.457  12.500
49519W        W15950   1.157  31.445   4.077
49520W        W15951  21.943  17.249  12.432
49521W        W15952  31.514  18.885   3.766
49522W        W15953   4.187   0.193  11.648
49523W        W15954  37.811   1.326   0.005
49524W        W15955  26.068   2.049   1.867
49525W        W15956  25.071  35.990  13.557
49526W        W15957  10.690  13.115   2.324
49527W        W15958  21.754  31.378  14.054
49528W        W15959  42.774   4.648   4.190
49529W        W15960  44.470  16.149   1.918
49530W        W15961  34.485  12.868   3.804
49531W        W15962  32.576   3.293  13.890
49532W        W15963   9.643   6.856   2.334
49533W        W15964  29.638  29.927  11.733
49534W        W15965  13.653  28.509   4.864
49535W        W15966  19.826  14.079   2.694
49536W        W15967   5.207  40.970  11.038
49537W        W15968   1.814   7.104   3.880
49538W        W15969   7.179  19.323  13.850
49539W        W15970  38.753  14.123  10.876
49540W        W15971  44.422   9.593  12.549
49541W        W15972  15.068   1.701  11.471
49542W        W15973  39.342   3.338  11.979
49543W        W15974  31.749  34.542   0.486
49544W        W15975  23.408  14.645   0.544
49545W        W15976  43.995  44.442   2.862
49546W        W15977  31.492  13.297  10.772
49547W        W15978  35.853  42.900  11.935
49548W        W15979   1.774  26.602   4.297
49549W        W15980  21.250   4.849   4.609
49550W        W15981  29.923  19.276  11.964
49551W        W15982  42.195  21.002  11.950
49552W        W15983   7.972  42.804  12.429
49553W        W15984   5.931  41.571  11.191
49554W        W15985  40.525  27.564   0.154
49555W        W15986   6.189   0.283  13.299
49556W        W15987  41.061  38.851   2.765
49557W        W15988  32.846  41.602   4.227
49558W        W15989  27.192  15.191   1.210
49559W        W15990  40.246  12.822   1.304
49560W        W15991  12.279   2.395  11.049
49561W        W15992  34.835  41.089  10.853
49562W        W15993  42.804  36.938   2.249
49563W        W15994  38.513  32.038   3.102
49564W        W15995   5.497   7.696   4.280
49565W        W15996  27.487  29.890   3.797
49566W        W15997  21.953  26.083  13.923
49567W        W15998  25.161   4.199   0.304
49568W        W15999  19.432   8.473   3.766
49569W        W16000  28.723   7.273  12.064
49570W        W16001   5.971  16.826   1.748
49571W        W16002  34.692  10.834  14.424
49572W        W16003  37.343  12.389   3.184
49573W        W16004   5.922  11.350  13.122
49574W        W16005  18.696  25.184   4.604
49575W        W16006  31.927  41.368   1.664
49576W        W16007  26.016   1.231   0.796
49577W        W16008  41.178  35.319   3.681
49578W        W16009   9.297  40.284   4.035
49579W        W16010  14.140  29.694  12.556
49580W        W16011  17.688  15.118  14.112
49581W        W16012  34.908  19.963   1.748
49582W        W16013  22.292  37.578   0.013
49583W        W16014   9.221  30.991  12.000
49584W        W16015  14.127  10.359   0.222
49585W        W16016   2.426   7.220   0.936
49586W        W16017  32.144  16.739  14.391
49587W        W16018  44.005  24.008  13.315
49588W        W16019   8.077  24.542   4.030
49589W        W16020  44.486  25.638   3.935
49590W        W16021  25.703  41.773   5.009
49591W        W16022  43.531  32.912  12.109
49592W        W16023  27.593   5.711   1.411
49593W        W16024  11.164  32.718   4.229
49594W        W16025  43.203  44.886   2.742
49595W        W16026  36.350  27.009  12.576
49596W        W16027  22.920   3.369  10.718
49597W        W16028  33.637  24.607   2.359
49598W        W16029  34.788  13.107  14.415
49599W        W16030  34.495  15.616  14.852
49600W        W16031  31.617  34.805  12.626
49601W        W16032   1.819   1.550   0.062
49602W        W16033  43.275  37.606   0.207
49603W        W16034  36.637  44.542   3.069
49604W        W16035  21.263   4.525  13.016
49605W        W16036  35.130  21.115  11.218
49606W        W16037  12.405  18.279  12.898
49607W        W16038   0.282  17.276  12.781
49608W        W16039   2.604  19.402   4.926
49609W        W16040   1.470  22.164   3.276
49610W        W16041  19.101  29.773   4.347
49611W        W16042   2.350  33.021  11.138
49612W        W16043  11.379  11.644   0.759
49613W        W16044  29.296   7.917   5.066
49614W        W16045  39.190  15.778   5.009
49615W        W16046  32.044  19.144  11.996
49616W        W16047  14.038  29.490  11.229
49617W        W16048  33.381  23.180   3.794
49618W        W16049  32.886   5.919   1.414
49619W        W16050  11.658  23.761  12.432
49620W        W16051   3.788  14.788  14.426
49621W        W16052  24.715   2.707   0.145
49622W        W16053  27.456  16.149  11.175
49623W        W16054  11.897  24.073  13.650
49624W        W16055   8.415  41.917  10.702
49625W        W16056  32.406   8.390   0.860
49626W        W16057  38.810  43.597  14.959
49627W        W16058  27.781  25.780  12.051
49628W        W16059  16.193  19.258  13.898
49629W        W16060  24.033  25.406  14.327
49630W        W16061  14.153  30.111  14.505
49631W        W16062  22.053  42.243  12.389
49632W        W16063  23.615  15.517  13.782
49633W        W16064  29.691   0.469  11.187
49634W        W16065  12.874  34.952   3.733
49635W        W16066   4.792  16.193  13.869
49636W        W16067  20.070  30.144   2.166
49637W        W16068  41.220  17.284   1.417
49638W        W16069  17.749   8.221   3.176
49639W        W16070  41.011   6.373   4.100
49640W        W16071   0.433  13.874  14.664
49641W        W16072   1.483   9.992  10.849
49642W        W16073  14.616   0.358   2.690
49643W        W16074  39.985  29.285   0.903
49644W        W16075  28.673   4.816  13.564
49645W        W16076  30.616  17.686  14.426
49646W        W16077  29.648  32.513  11.444
49647W        W16078  38.550   8.865   2.752
49648W        W16079   9.814  15.428  11.673
49649W        W16080  11.786  30.515   3.991
49650W        W16081  21.233  18.187  12.027
49651W        W16082  33.642  12.800   0.013
49652W        W16083   4.442  37.886  14.396
49653W        W16084  27.595  18.733  13.262
49654W        W16085  26.894  30.653   1.741
49655W        W16086  40.820  22.291  13.008
49656W        W16087  44.051   3.863   3.411
49657W        W16088  30.523  28.704   2.913
49658W        W16089   9.617  40.446   4.416
49659W        W16090  32.157  32.247  11.509
49660W        W16091  42.510  20.949  10.734
49661W        W16092  29.575  38.478  12.814
49662W        W16093   8.951  19.720  12.743
49663W        W16094   4.298  36.957   4.913
49664W        W16095  30.113  37.872   3.553
49665W        W16096  16.146  21.992  14.018
49666W        W16097   7.921  38.767  12.036
49667W        W16098  41.708  17.731   3.365
49668W        W16099   9.765   9.209   0.741
49669W        W16100  26.961  23.435  13.522
49670W        W16101  36.308  42.497  14.909
49671W        W16102   7.910  28.183   4.177
49672W        W16103  40.138  16.207  13.536
49673W        W16104   4.916  41.525  14.049
49674W        W16105  27.194  34.123   3.680
49675W        W16106  25.125  30.337   0.766
49676W        W16107  28.483  30.473   3.383
49677W        W16108  33.893  17.991  11.780
49678W        W16109  37.551  29.372   0.178
49679W        W16110  18.301  38.549   1.954
49680W        W16111  22.468  44.259  13.996
49681W        W16112  20.715  32.216   9.867
49682W        W16113   8.241  35.091  14.018
49683W        W16114  15.678  37.500  11.063
49684W        W16115   2.035  34.773  13.957
49685W        W16116  27.392   9.937   4.464
49686W        W16117  22.115  36.630   0.277
49687W        W16118  24.492   3.315   3.752
49688W        W16119  21.508  29.156   1.255
49689W        W16120  27.490  44.690   2.403
49690W        W16121  23.079   7.889   3.222
49691W        W16122  13.191  12.216  10.741
49692W        W16123   7.821  32.161  14.477
49693W        W16124  18.066  25.444   1.529
49694W        W16125  11.191  38.736   2.241
49695W        W16126  20.144  14.063   1.361
49696W        W16127  33.814  14.215  10.597
49697W        W16128   3.394  28.503  12.870
49698W        W16129  28.138   3.157   3.726
49699W        W16130   0.716  40.381   1.771
49700W        W16131  11.411   4.249  14.497
49701W        W16132  36.071  21.862   2.211
49702W        W16133   3.316  15.401  11.130
49703W        W16134  32.372  28.106   2.353
49704W        W16135  23.453  14.059   3.261
49705W        W16136  35.804  40.509   0.984
49706W        W16137  19.837  26.542   4.538
49707W        W16138  19.770  28.110  11.071
49708W        W16139  12.683  36.095   2.439
49709W        W16140  40.583  15.582   4.036
49710W        W16141  41.421  34.926  12.333
49711W        W16142  42.265  43.801  13.864
49712W        W16143  35.119  14.181   2.632
49713W        W16144  35.997  38.463  12.419
49714W        W16145  10.683  20.219  14.377
49715W        W16146  31.611  23.514   1.439
49716W        W16147  26.262  12.885   4.082
49717W        W16148  33.009  32.910  13.471
49718W        W16149  31.206   6.991   1.856
49719W        W16150  29.125  43.862  10.969
49720W        W16151   0.338   2.694   3.147
49721W        W16152  30.423  13.442  13.118
49722W        W16153   3.766   3.060   1.372
49723W        W16154  39.908  38.378   2.706
49724W        W16155  33.551  37.132   0.258
49725W        W16156  39.105  36.478  13.490
49726W        W16157  17.572  26.477  14.921
49727W        W16158  31.560  43.193  11.775
49728W        W16159  37.135  41.288  13.309
49729W        W16160   3.359  36.660   2.682
49730W        W16161   5.898  13.202  13.733
49731W        W16162   5.086  29.389   0.282
49732W        W16163  19.512  34.604  11.619
49733W        W16164  21.862  43.066  10.624
49734W        W16165   4.683  17.624   3.427
49735W        W16166  14.393   9.850  10.434
49736W        W16167  25.266  17.559  11.090
49737W        W16168  14.068  32.921   1.338
49738W        W16169  41.141  10.159  13.798
49739W        W16170  24.321  17.389   2.221
49740W        W16171  26.521  27.931  14.609
49741W        W16172  38.658  41.427   4.117
49742W        W16173   1.458   2.302  12.931
49743W        W16174  28.540  28.582   0.716
49744W        W16175  10.418  11.436  11.165
49745W        W16176  44.404   3.734  11.663
49746W        W16177  26.070  33.023  10.744
49747W        W16178  27.903  27.229   2.642
49748W        W16179  39.879  15.738  12.846
49749W        W16180  12.653  22.610  12.229
49750W        W16181  10.649  43.827   1.788
49751W        W16182  29.965  28.875  13.546
49752W        W16183  10.644  12.389  14.081
49753W        W16184   8.418   8.331  13.470
49754W        W16185   6.741  38.087  13.587
49755W        W16186  30.784  34.144   3.061
49756W        W16187  42.381  41.025   3.943
49757W        W16188   0.687  21.671  13.882
49758W        W16189   4.410  30.850  13.491
49759W        W16190  30.879  29.321   0.842
49760W        W16191  36.603  16.054   0.798
49761W        W16192   0.212  26.473  12.567
49762W        W16193   4.383  43.021   3.833
49763W        W16194   3.169   7.676   3.795
49764W        W16195  33.496  32.470   4.421
49765W        W16196  24.790  32.706   3.246
49766W        W16197  27.607   4.411   2.716
49767W        W16198  20.958  22.613  10.708
49768W        W16199   1.039   1.501  11.183
49769W        W16200  29.599  33.967  13.502
49770W        W16201  19.056  17.346   1.919
49771W        W16202   2.510   4.358   1.386
49772W        W16203  17.096  42.196   1.326
49773W        W16204  29.268  39.986  10.604
49774W        W16205  37.364  14.438  10.825
49775W        W16206  21.339  33.087  13.048
49776W        W16207  17.272  24.101  12.026
49777W        W16208  38.265  33.198  12.188
49778W        W16209  31.027   3.807  13.139
49779W        W16210  43.515  33.591   1.367
49780W        W16211  14.200   9.228  14.331
49781W        W16212  36.059  36.605  14.959
49782W        W16213  42.577  25.729  14.424
49783W        W16214  16.179  23.277   0.891
49784W        W16215  20.663  35.906  14.292
49785W        W16216  43.928   1.527   1.128
49786W        W16217   3.649  15.727  12.028
49787W        W16218  39.431  38.625   2.849
49788W        W16219   8.655   7.847   2.730
49789W        W16220   7.419  26.817  12.744
49790W        W16221  21.842  16.348   1.782
49791W        W16222  41.180   6.201   3.169
49792W        W16223  22.606  14.824   2.698
49793W        W16224  14.255  42.889   4.315
49794W        W16225  40.353  12.845  14.028
49795W        W16226  37.305  41.370   2.363
49796W        W16227  17.431  12.955   4.109
49797W        W16228   6.728  22.261   0.758
49798W        W16229   4.857   9.221   4.041
49799W        W16230   6.846  37.302  13.248
49800W        W16231  11.222  26.450   1.915
49801W        W16232  15.071  31.093  12.967
49802W        W16233  32.025  14.123   1.797
49803W        W16234  12.864  20.932   3.217
49804W        W16235  15.498  15.393  11.097
49805W        W16236  32.963   7.406  11.218
49806W        W16237  17.120   2.356  13.409
49807W        W16238  32.897  17.775   0.602
49808W        W16239   3.987  35.385   2.127
49809W        W16240  10.918   3.979   1.692
49810W        W16241  44.039  33.211  13.927
49811W        W16242  37.998  44.365   1.529
49812W        W16243   4.958  24.631  11.113
49813W        W16244  39.709  21.074  10.796
49814W        W16245  32.476  12.609   4.145
49815W        W16246  21.013  12.770  10.740
49816W        W16247   3.356  27.743   2.732
49817W        W16248  38.122  37.537   0.441
49818W        W16249  26.273   9.322   4.125
49819W        W16250  29.494  32.205  13.282
49820W        W16251   1.141  39.072   2.658
49821W        W16252  17.803  13.278  10.265
49822W        W16253  40.364  13.138   0.503
49823W        W16254  32.357   6.446   5.265
49824W        W16255  22.329  26.146   3.714
49825W        W16256  34.443  38.621  13.797
49826W        W16257  20.475  36.068  10.695
49827W        W16258  38.065  14.924   0.731
49828W        W16259  22.604   4.499  14.189
49829W        W16260   9.824  13.180  10.913
49830W        W16261   0.809  19.060  14.481
49831W        W16262  21.003  31.529  12.422
49832W        W16263  22.998  29.513  12.081
49833W        W16264  36.430  17.778  11.158
49834W        W16265   0.632  39.914  13.427
49835W        W16266  18.369  10.176  10.330
49836W        W16267  32.212  37.056   0.181
49837W        W16268  43.482  18.964  13.559
49838W        W16269  24.245  28.589  14.528
49839W        W16270  41.034   4.342  14.513
49840W        W16271  14.515   9.893  12.948
49841W        W16272  23.522  26.933   0.889
49842W        W16273  37.435   0.258  10.708
49843W        W16274  17.497  34.678  14.996
49844W        W16275  18.704  31.697  13.031
49845W        W16276  16.818  34.197   2.321
49846W        W16277  15.630  37.784  14.437
49847W        W16278  41.894   7.801  11.969
49848W        W16279  18.145  39.416  14.411
49849W        W16280   3.874  26.900   0.869
49850W        W16281  42.824  29.964  12.833
49851W        W16282   6.012  23.920   1.810
49852W        W16283  23.719  26.041   2.603
49853W        W16284  20.558   5.724   3.349
49854W        W16285  19.070  38.135  13.918
49855W        W16286   2.229  15.780  14.987
49856W        W16287  18.243   5.138   4.815
49857W        W16288  25.864  26.945  13.379
49858W        W16289  15.389  16.755   0.409
49859W        W16290   1.339  34.435  11.230
49860W        W16291   3.674   2.160  11.630
49861W        W16292   4.439  14.716  12.220
49862W        W16293  28.446  38.259  12.592
49863W        W16294   4.937  44.513   2.239
49864W        W16295  15.740   8.122   9.554
49865W        W16296  19.474   2.794   2.697
49866W        W16297   2.948  34.418   1.889
49867W        W16298   7.880   9.313   1.254
49868W        W16299   8.742  13.775   1.586
49869W        W16300  11.414  19.203  11.860
49870W        W16301  28.752  11.652   1.786
49871W        W16302   5.727  38.383  11.641
49872W        W16303   2.299  30.320   1.310
49873W        W16304  33.199  43.471   2.672
49874W        W16305  18.187  32.084  12.142
49875W        W16306  18.116  34.106   3.445
49876W        W16307  32.368  36.910  12.965
49877W        W16308  23.418  22.574  13.295
49878W        W16309  28.884   9.346  10.972
49879W        W16310  43.928  10.276   4.624
49880W        W16311  20.759  36.979  14.348
49881W        W16312  42.034   4.776  14.762
49882W        W16313  26.693  26.886  12.180
49883W        W16314  16.482  32.993   1.319
49884W        W16315   7.611  28.499  11.177
49885W        W16316  21.229  28.457  14.374
49886W        W16317   1.573  18.000  13.959
49887W        W16318   3.798  11.484  11.639
49888W        W16319  28.949  28.972  13.353
49889W        W16320  20.498  42.423  13.416
49890W        W16321  24.066  39.337  11.209
49891W        W16322  37.125  25.664  12.235
49892W        W16323  41.292  43.432  13.922
49893W        W16324  29.112   7.961   4.147
49894W        W16325  41.803  31.354  12.198
49895W        W16326  11.526  13.139  13.084
49896W        W16327  28.163  19.596  13.442
49897W        W16328  41.924  39.429   1.753
49898W        W16329   1.822  29.501  13.810
49899W        W16330  26.042  21.227  11.689
49900W        W16331   8.381  14.332  13.981
49901W        W16332  36.800  33.166  10.534
49902W        W16333  29.330   9.188  13.879
49903W        W16334   4.430  12.486  14.032
49904W        W16335   1.676   6.487  13.788
49905W        W16336  17.037  40.590   2.349
49906W        W16337  23.391  44.182  11.681
49907W        W16338   3.713  27.885   4.137
49908W        W16339  23.668   2.669   2.937
49909W        W16340   6.377  36.763   2.778
49910W        W16341  37.677   8.608   1.699
49911W        W16342  18.054   8.311   3.601
49912W        W16343   4.948  12.172   4.073
49913W        W16344  39.394   1.778   4.041
49914W        W16345   8.586  40.923  11.216
49915W        W16346  39.280  21.621   2.787
49916W        W16347  23.253  25.175   3.967
49917W        W16348  36.646  28.567  11.059
49918W        W16349  37.060  30.137   0.332
49919W        W16350  11.806   9.793   3.354
49920W        W16351  37.104  14.544  12.562
49921W        W16352  34.869  10.881  13.940
49922W        W16353   4.688  44.417  13.422
49923W        W16354  20.734  26.249  12.606
49924W        W16355  14.773  37.255   3.692
49925W        W16356  10.123  44.841   3.149
49926W        W16357  34.046  22.279  12.281
49927W        W16358   4.357  16.129   0.715
49928W        W16359   2.644  40.394   4.536
49929W        W16360   0.752   2.727  13.431
49930W        W16361  31.816  43.763   4.213
49931W        W16362  24.689  32.686  13.856
49932W        W16363  11.382   6.297  12.515
49933W        W16364   0.553   8.900  11.027
49934W        W16365  10.341  15.578  13.768
49935W        W16366  14.407  18.575  14.109
49936W        W16367  24.142   3.720   3.526
49937W        W16368  19.099  32.170  13.368
49938W        W16369  33.324   9.613   1.845
49939W        W16370  38.946  43.713  13.577
49940W        W16371  12.174  23.660   3.250
49941W        W16372   4.583  41.950  14.154
49942W        W16373  33.893  34.042   4.375
49943W        W16374   4.945  14.775   4.413
49944W        W16375   1.300   7.261  14.701
49945W        W16376  27.184  44.023   1.830
49946W        W16377  17.581   6.738   2.730
49947W        W16378  27.860  41.931   4.051
49948W        W16379  41.462  35.246   4.936
49949W        W16380  15.507  42.244  14.419
49950W        W16381  34.550  24.220  10.616
49951W        W16382  28.059  24.927  14.499
49952W        W16383  42.495  40.669   2.396
49953W        W16384   3.168  24.590   2.837
49954W        W16385  20.224   4.896  13.900
49955W        W16386  38.656  44.537  14.847
49956W        W16387   1.350  11.763  14.276
49957W        W16388  42.452  16.254   3.626
49958W        W16389  38.039  38.121  14.280
49959W        W16390  24.319  33.475   3.524
49960W        W16391  13.581   1.960   1.307
49961W        W16392  42.853  35.517  11.715
49962W        W16393  30.931  37.000  10.732
49963W        W16394   6.929  31.414  11.250
49964W        W16395  30.602  10.780  11.894
49965W        W16396   1.794  20.346  11.569
49966W        W16397  38.545  38.951   1.175
49967W        W16398  36.775  10.204  12.568
49968W        W16399  19.009  34.376   1.922
49969W        W16400  21.062  18.093   3.773
49970W        W16401  41.047   3.938   0.316
49971W        W16402   6.014  27.438   2.750
49972W        W16403  37.219  15.314   3.805
49973W        W16404  26.447  43.912  11.139
49974W        W16405  13.814   1.650   1.690
49975W        W16406  37.328  15.509  12.036
49976W        W16407  44.513   8.400   2.930
49977W        W16408  36.122   1.375   4.952
49978W        W16409  44.143  10.408   0.828
49979W        W16410  41.380  28.914   4.472
49980W        W16411   8.595  11.907  11.588
49981W        W16412   0.666   5.725  14.865
49982W        W16413  21.013  27.579   0.282
49983W        W16414   2.697  44.293   2.194
49984W        W16415  24.971  28.653   4.114
49985W        W16416  41.334  27.352  11.185
49986W        W16417  26.109   5.654  12.150
49987W        W16418  10.450  35.433   4.301
49988W        W16419  24.765   8.789   5.071
49989W        W16420  28.749  32.122   0.844
49990W        W16421  36.135   6.565  10.821
49991W        W16422  14.670  34.639   3.845
49992W        W16423  39.776  42.362  13.338
49993W        W16424  40.065  43.999  12.457
49994W        W16425  18.513  39.005   1.738
49995W        W16426  11.414  25.401   1.158
49996W        W16427  35.372  28.400   4.874
49997W        W16428  34.156  16.052   2.303
49998W        W16429  16.005   5.863   5.081
49999W        W16430  20.598  40.486  12.291
50000W        W16431   9.297  13.750  11.066
50001W        W16432  13.667   0.811   2.405
50002W        W16433  27.120   7.959  11.650
50003W        W16434  38.618  20.735  11.962
50004W        W16435  44.478  28.219  13.426
50005W        W16436   9.824  44.342   4.427
50006W        W16437   9.309   6.829  11.443
50007W        W16438   2.049  34.117  14.923
50008W        W16439  40.039  42.367  12.911
50009W        W16440  35.352  16.937  14.875
50010W        W16441  34.179  36.899  12.050
50011W        W16442  38.074  40.108   3.712
50012W        W16443  27.744  32.265  13.965
50013W        W16444  10.503  40.045  13.558
50014W        W16445  24.262   3.926   1.761
50015W        W16446   9.837  39.571   1.275
50016W        W16447  18.144  28.956  11.195
50017W        W16448  40.068  11.476  14.290
50018W        W16449   9.153  25.133  14.177
50019W        W16450  30.727  30.170  11.976
50020W        W16451  18.634  15.898   2.705
50021W        W16452   8.945   5.287  14.953
50022W        W16453  29.399  28.142   1.745
50023W        W16454  28.415  22.121  10.543
50024W        W16455  17.488  30.143   3.096
50025W        W16456  33.496  34.472  12.010
50026W        W16457  44.026  34.125   0.721
50027W        W16458  27.233   0.993   3.054
50028W        W16459  17.711  24.564  14.017
50029W        W16460  32.123   6.326  12.466
50030W        W16461  26.702  27.860   0.750
50031W        W16462   5.757  37.841  10.959
50032W        W16463  32.644   6.987  11.071
50033W        W16464  32.977  16.536   2.301
50034W        W16465   6.595  32.188  12.973
50035W        W16466  10.810  10.907  10.683
50036W        W16467  14.737  32.850   0.361
50037W        W16468  21.415  17.005  14.359
50038W        W16469  18.490  44.953  10.759
50039W        W16470  17.189  11.795  12.847
50040W        W16471  31.210  33.655   3.646
50041W        W16472  25.627   2.626  12.969
50042W        W16473  34.536  36.556  11.904
50043W        W16474   3.140   1.387  14.317
50044W        W16475   9.732  31.619  14.379
50045W        W16476  12.187   3.460   9.920
50046W        W16477  10.783  36.729   3.563
50047W        W16478  22.724  34.568   1.313
50048W        W16479  44.383   9.065  12.513
50049W        W16480  15.788  27.029  12.037
50050W        W16481  16.590  44.764   2.748
50051W        W16482  18.334  11.109   1.479
50052W        W16483  21.647  30.185   1.299
50053W        W16484  40.755   4.402  14.057
50054W        W16485   9.148   7.008   2.144
50055W        W16486  44.438  39.636   3.205
50056W        W16487   1.220  38.299   0.013
50057W        W16488  18.226   8.774   1.505
50058W        W16489  42.923  42.383   3.883
50059W        W16490  32.980   8.138   4.952
50060W        W16491  17.087  20.515   2.247
50061W        W16492  22.163  37.191  11.529
50062W        W16493   9.079  28.905   2.358
50063W        W16494  12.784  24.052  11.190
50064W        W16495   5.814   3.944  11.141
50065W        W16496  11.002  16.360   4.093
50066W        W16497  36.675  39.509  13.921
50067W        W16498  44.996  34.766  12.951
50068W        W16499  23.981  25.747  11.780
50069W        W16500   9.691  13.321   1.298
50070W        W16501  34.394  15.764   1.299
50071W        W16502  34.414  29.679   1.281
50072W        W16503  17.202  42.411  12.222
50073W        W16504  41.845   2.233  14.011
50074W        W16505  31.745  43.957   4.676
50075W        W16506  44.036  15.270   4.577
50076W        W16507   3.638  39.335   4.634
50077W        W16508  19.659  38.097  14.485
50078W        W16509  22.172  12.996   2.858
50079W        W16510  31.166  38.028  10.678
50080W        W16511  20.283   9.158   4.345
50081W        W16512  28.903   3.668   9.763
50082W        W16513   4.491  42.752  12.935
50083W        W16514  19.490   2.464  13.393
50084W        W16515  41.617  20.627  12.091
50085W        W16516  11.910  41.537   2.141
50086W        W16517  20.071  41.552  12.910
50087W        W16518  39.925  42.818   3.999
50088W        W16519  20.375  40.438   5.106
50089W        W16520  34.761  13.541  11.164
50090W        W16521   0.411  32.340  12.575
50091W        W16522  23.405  39.345   1.081
50092W        W16523  39.896   1.888  10.526
50093W        W16524  44.262  11.347   1.687
50094W        W16525  39.764  11.629   3.708
50095W        W16526  27.424  29.739   2.004
50096W        W16527   0.956  36.154   3.123
50097W        W16528  32.140   4.028  12.915
50098W        W16529  18.058  12.829  10.892
50099W        W16530   2.923  32.551  13.224
50100W        W16531  17.407  35.035   2.141
50101W        W16532   6.295  22.113  12.026
50102W        W16533  44.262  20.797  11.047
50103W        W16534  33.556  28.827   2.317
50104W        W16535   6.003  43.498  14.070
50105W        W16536  41.072  17.120  14.079
50106W        W16537  12.985  27.590  12.375
50107W        W16538   2.538  14.581  10.632
50108W        W16539  13.759  19.504  11.575
50109W        W16540  14.543  17.627  14.446
50110W        W16541   4.211  44.389  14.896
50111W        W16542  21.085  24.933  13.291
50112W        W16543  43.996  30.926   3.297
50113W        W16544  15.051   3.339  13.105
50114W        W16545  29.587   5.295  14.211
50115W        W16546   3.410  22.132   1.922
50116W        W16547  25.511  40.938  11.426
50117W        W16548  22.605  25.157  11.963
50118W        W16549  15.165  20.607   4.841
50119W        W16550  15.158  39.820   1.865
50120W        W16551  29.063  27.371   0.041
50121W        W16552  42.866  34.545  12.056
50122W        W16553   1.094  35.645   0.125
50123W        W16554  10.639   4.495   4.514
50124W        W16555  30.157  20.089  13.898
50125W        W16556  31.998  17.486  10.742
50126W        W16557  23.222  31.428   2.769
50127W        W16558  39.012  33.500   4.052
50128W        W16559   1.794  21.338  12.533
50129W        W16560  42.032  39.494   3.680
50130W        W16561  39.796  26.511   0.792
50131W        W16562  21.103  22.129   5.071
50132W        W16563   7.881  12.621  10.012
50133W        W16564  30.610  25.073   0.456
50134W        W16565  22.828   7.918   3.700
50135W        W16566  11.070  22.766  13.820
50136W        W16567  42.525  31.945   2.116
50137W        W16568  24.764  25.158   9.804
50138W        W16569   3.347  23.138   1.930
50139W        W16570  38.882   8.323   3.574
50140W        W16571  16.610  39.493  13.510
50141W        W16572  33.900  27.456   3.005
50142W        W16573   5.342  21.616   4.569
50143W        W16574  11.667   6.902  11.130
50144W        W16575  23.250  36.685   2.743
50145W        W16576  32.812   3.385   4.161
50146W        W16577  25.628  44.716  12.020
50147W        W16578   6.146  23.947  12.104
50148W        W16579  33.441  20.954  13.075
50149W        W16580  32.176  31.105  10.843
50150W        W16581   6.270  23.023   3.679
50151W        W16582  44.845   4.262   2.913
50152W        W16583  38.533  38.414  12.673
50153W        W16584  44.103  31.001  12.634
50154W        W16585  32.575  43.192   3.817
50155W        W16586  10.202  41.296  13.944
50156W        W16587   2.253  35.949   2.896
50157W        W16588  34.839  19.211  13.469
50158W        W16589  22.775  24.136   3.160
50159W        W16590  42.037  39.540   2.249
50160W        W16591  23.242   9.066  11.710
50161W        W16592  23.724   6.530   0.755
50162W        W16593  29.129   5.938  12.976
50163W        W16594   0.434  35.114  13.820
50164W        W16595   4.338  19.553  12.546
50165W        W16596   1.943  42.165  14.905
50166W        W16597   0.265  10.733  13.036
50167W        W16598  27.558  25.218  11.921
50168W        W16599   6.258  23.210   1.447
50169W        W16600  28.859   9.745  10.671
50170W        W16601  40.903   2.416   0.133
50171W        W16602  25.529   5.033   2.773
50172W        W16603  19.221  27.449   0.364
50173W        W16604  36.411   5.800  13.222
50174W        W16605  17.679   1.017   3.751
50175W        W16606   1.768   5.800   3.291
50176W        W16607  35.499   9.145   2.365
50177W        W16608   3.708  14.155  11.014
50178W        W16609   9.302  25.261   3.680
50179W        W16610  44.586  42.256  13.887
50180W        W16611  17.659  30.999   0.897
50181W        W16612  17.444  18.850   0.712
50182W        W16613  40.551  41.105   2.277
50183W        W16614  16.624   3.307  14.510
50184W        W16615  16.476  14.182  13.790
50185W        W16616  35.268  39.878   4.867
50186W        W16617  31.040  38.610  14.500
50187W        W16618   6.470  32.889   3.206
50188W        W16619  29.643  17.374  14.067
50189W        W16620   9.970  40.855  12.219
50190W        W16621   0.962  19.271  11.624
50191W        W16622   5.652  44.373   0.941
50192W        W16623  40.784  41.820  12.932
50193W        W16624  43.015   2.811  14.724
50194W        W16625   1.090  26.595  14.937
50195W        W16626  22.263  33.343   2.766
50196W        W16627  28.956  32.027   4.598
50197W        W16628  26.241  21.193  14.853
50198W        W16629  13.260  28.240  13.823
50199W        W16630  10.809   6.361   1.631
50200W        W16631  13.897  18.300  14.020
50201W        W16632  20.111   8.585   2.194
50202W        W16633  31.443  11.879  10.609
50203W        W16634  14.648  37.207   4.546
50204W        W16635  24.515  18.374   2.225
50205W        W16636  21.187  40.719  11.661
50206W        W16637  28.779  39.635   3.613
50207W        W16638   9.748   8.415   3.168
50208W        W16639  42.377  42.328  14.743
50209W        W16640   7.936  35.067  10.880
50210W        W16641  13.179   2.262   2.131
50211W        W16642  10.976   4.896  14.927
50212W        W16643   3.471  27.792   3.645
50213W        W16644  12.803   2.712  14.527
50214W        W16645  31.813  38.574   4.208
50215W        W16646  31.867  28.144  13.457
50216W        W16647   4.153  37.438  14.551
50217W        W16648  35.504   6.339  14.422
50218W        W16649  14.228  20.313   4.651
50219W        W16650  34.422  34.793   0.968
50220W        W16651   0.448   7.358   1.461
50221W        W16652  16.223  28.546  12.737
50222W        W16653  33.554   2.097  13.419
50223W        W16654  14.118  42.565   3.199
50224W        W16655  17.106   4.001   1.353
50225W        W16656  41.299  43.468   0.683
50226W        W16657  25.444  39.045   1.813
50227W        W16658  22.549  36.430  14.312
50228W        W16659  13.133  11.752  14.262
50229W        W16660  18.667  21.111  11.644
50230W        W16661  19.783  23.142   3.838
50231W        W16662  26.918  35.288   3.302
50232W        W16663   1.930  42.446   0.360
50233W        W16664  21.534  32.639  12.463
50234W        W16665  25.008   2.315   2.098
50235W        W16666   1.964   4.273  12.953
50236W        W16667  34.387  35.669   1.198
50237W        W16668  19.592  26.295   4.123
50238W        W16669   9.888  28.581   2.557
50239W        W16670  31.933  18.280  10.682
50240W        W16671  41.592  11.058  13.996
50241W        W16672  14.334   9.249   1.825
50242W        W16673  33.549  27.737   3.317
50243W        W16674  43.856  22.097   3.698
50244W        W16675  13.236  30.427   4.554
50245W        W16676  23.412  18.600   4.221
50246W        W16677  26.464  11.689   3.272
50247W        W16678   2.501  10.597  11.554
50248W        W16679  33.554   0.185   1.778
50249W        W16680  13.794  20.279  13.354
50250W        W16681   9.268   3.427  12.014
50251W        W16682  27.500  32.983   2.890
50252W        W16683  15.069  11.855  13.502
50253W        W16684  16.291  41.898  12.871
50254W        W16685   0.756  15.777   4.135
50255W        W16686  34.566  18.754   3.576
50256W        W16687  38.166  36.122   9.647
50257W        W16688  16.084   3.859   0.695
50258W        W16689  26.353  15.826  13.072
50259W        W16690  14.407  25.585   2.261
50260W        W16691  16.809   7.870   4.752
50261W        W16692   8.860  34.500   1.226
50262W        W16693  37.243  43.434   4.579
50263W        W16694  17.202  26.667   1.364
50264W        W16695  41.487   4.344   4.667
50265W        W16696  11.141   8.893  14.278
50266W        W16697  29.508  19.061   2.344
50267W        W16698  42.344  24.534   4.077
50268W        W16699   7.152  10.855  14.013
50269W        W16700   5.155   0.333  13.477
50270W        W16701   6.142  29.003   4.571
50271W        W16702   5.769  37.970  13.567
50272W        W16703  21.503  22.767  13.754
50273W        W16704  33.621  40.449   1.311
50274W        W16705   5.239   8.217   2.760
50275W        W16706  13.625  39.052  12.248
50276W        W16707   7.140  22.039   2.743
50277W        W16708  20.801  37.727   4.931
50278W        W16709   5.684  40.812   4.203
50279W        W16710   0.780  13.154  12.452
50280W        W16711  14.987   5.710  10.380
50281W        W16712  34.668   6.920   3.187
50282W        W16713  44.421  26.240   1.298
50283W        W16714  10.462   3.122  13.371
50284W        W16715  13.145   4.454   3.639
50285W        W16716  34.970  22.265  14.268
50286W        W16717  13.885  22.435   1.708
50287W        W16718  30.896   5.006   1.750
50288W        W16719  27.752  22.962  11.179
50289W        W16720   8.254   2.255  12.618
50290W        W16721  14.332   5.643  11.979
50291W        W16722  10.788  30.401   3.169
50292W        W16723   5.450  21.894  12.698
50293W        W16724   2.479  40.785  10.629
50294W        W16725   9.904  20.437  13.759
50295W        W16726   8.601   1.672  10.822
50296W        W16727  38.324  35.742  14.389
50297W        W16728   7.585  19.158   4.254
50298W        W16729  27.887   2.426   2.697
50299W        W16730  11.162  31.508   1.214
50300W        W16731  25.060  16.056  12.929
50301W        W16732  38.308  12.378  14.363
50302W        W16733  41.507   0.668   2.883
50303W        W16734  12.648  16.294  10.942
50304W        W16735  44.124  43.774  13.663
50305W        W16736  37.306  35.284  12.404
50306W        W16737  24.340  27.562   3.197
50307W        W16738  29.371  38.364   4.709
50308W        W16739  12.913  33.456   1.750
50309W        W16740   4.223  42.255  12.333
50310W        W16741  12.864  30.693   2.236
50311W        W16742   2.163  17.840  14.802
50312W        W16743  39.487  25.529   3.729
50313W        W16744   6.230  36.396   0.162
50314W        W16745  32.086  12.275   0.215
50315W        W16746   2.343   2.755   2.266
50316W        W16747  16.157   1.463   3.150
50317W        W16748   6.085  19.755  10.401
50318W        W16749  12.941  30.148   2.796
50319W        W16750  12.400  32.078   0.268
50320W        W16751  10.778  43.296   4.538
50321W        W16752  28.878  39.555  11.396
50322W        W16753   7.794   3.298  13.404
50323W        W16754   6.157   8.642   1.837
50324W        W16755  11.759  23.732   1.884
50325W        W16756  25.071  23.162  10.960
50326W        W16757  31.160  25.119  10.460
50327W        W16758   9.393   6.657   4.612
50328W        W16759  14.650  39.117   5.007
50329W        W16760  27.347  23.267  10.630
50330W        W16761  26.997  27.175   3.597
50331W        W16762  29.597  18.545   2.276
50332W        W16763  17.090   3.300  12.195
50333W        W16764  32.031  17.061  10.452
50334W        W16765  15.871  29.933   1.289
50335W        W16766  40.971  11.366  12.664
50336W        W16767  42.541  35.789   0.945
50337W        W16768  10.930  19.644   3.592
50338W        W16769   7.244  22.790   1.404
50339W        W16770   0.228  14.276  11.536
50340W        W16771  15.262  41.857   4.832
50341W        W16772  19.097  36.341  12.838
50342W        W16773  44.786  39.053   2.250
50343W        W16774  35.721  31.127   1.977
50344W        W16775   6.271   1.929   5.125
50345W        W16776  35.806  44.508  11.150
50346W        W16777  30.243  33.390   1.238
50347W        W16778  19.538  25.722  12.526
50348W        W16779   0.305  29.414   3.084
50349W        W16780  15.238  18.729   2.763
50350W        W16781  10.238  43.952   0.446
50351W        W16782  27.589  30.681   4.946
50352W        W16783  14.798  38.690   0.791
50353W        W16784  27.105  39.989   3.357
50354W        W16785  42.018  39.621  12.392
50355W        W16786  43.068   9.221  14.736
50356W        W16787   4.126  25.549  11.166
50357W        W16788  30.396   9.171  12.126
50358W        W16789  35.422   4.459   0.296
50359W        W16790  36.527  25.538  12.581
50360W        W16791   4.671  43.939   3.902
50361W        W16792  25.012   3.330   3.844
50362W        W16793  26.510  14.329   3.863
50363W        W16794  31.148  34.516  10.804
50364W        W16795  25.508  37.470   0.668
50365W        W16796   6.357   1.310   1.596
50366W        W16797  22.551  13.526  11.262
50367W        W16798  38.146  44.551  12.583
50368W        W16799  11.178  25.289  11.583
50369W        W16800  38.433  41.912   4.133
50370W        W16801   7.777  39.277  12.105
50371W        W16802  14.448  16.864  11.854
50372W        W16803   5.263  36.066  14.144
50373W        W16804  19.308  37.551  10.543
50374W        W16805  13.165  37.780   4.117
50375W        W16806  30.407  11.350  14.978
50376W        W16807   8.245  18.287  11.413
50377W        W16808   7.436   8.705  12.989
50378W        W16809   3.257   6.313  11.629
50379W        W16810  35.018   7.207  11.710
50380W        W16811   7.866  17.054   0.915
50381W        W16812  16.194  39.838   4.544
50382W        W16813   4.677  19.618   5.031
50383W        W16814  38.871  14.328  14.755
50384W        W16815   6.862  11.288   4.578
50385W        W16816   6.887  19.059  14.319
50386W        W16817  34.399  28.273   0.292
50387W        W16818  33.377  19.631   2.512
50388W        W16819  31.699  25.457  12.855
50389W        W16820   8.776  32.605   2.197
50390W        W16821  21.357  40.743  11.171
50391W        W16822  40.687  43.051   1.778
50392W        W16823  13.113  28.201   1.130
50393W        W16824  31.543   8.976  14.872
50394W        W16825   3.984   7.856  14.636
50395W        W16826   1.886  14.384  11.636
50396W        W16827  39.946  13.357  11.155
50397W        W16828  13.796   4.870  14.894
50398W        W16829  38.782   7.757  13.762
50399W        W16830  36.746  39.369  11.664
50400W        W16831  18.802  42.455  11.122
50401W        W16832  31.525  17.886  13.971
50402W        W16833  34.484  30.573  11.099
50403W        W16834  34.573   0.934   1.538
50404W        W16835  25.646  39.125   3.198
50405W        W16836  29.998  20.652   1.942
50406W        W16837  30.124   4.701   3.140
50407W        W16838  12.491  15.292   0.485
50408W        W16839  13.609  16.055   0.354
50409W        W16840  43.844   4.891  13.378
50410W        W16841  14.184  41.749  12.836
50411W        W16842  42.771  15.673  13.627
50412W        W16843  43.042  24.960  12.852
50413W        W16844   9.587  32.953  11.569
50414W        W16845   5.001  38.764  14.874
50415W        W16846  29.894  20.618  11.482
50416W        W16847   7.345   9.306   4.218
50417W        W16848  19.110  11.899  12.876
50418W        W16849   4.296  13.364   2.131
50419W        W16850  12.265  34.603  13.027
50420W        W16851   6.531  35.016  11.975
50421W        W16852  43.376  31.105  13.672
50422W        W16853  15.407  24.801  13.281
50423W        W16854  33.699  18.071  14.530
50424W        W16855  25.557   6.981   4.625
50425W        W16856  20.152  15.467  10.742
50426W        W16857  17.216  10.229   4.034
50427W        W16858   1.759   2.413  14.035
50428W        W16859   0.806  18.703  10.765
50429W        W16860  19.086   0.661   4.001
50430W        W16861  38.042  31.657   9.521
50431W        W16862  35.825  19.341   3.839
50432W        W16863  11.599   2.852   0.327
50433W        W16864  32.364   6.323  12.929
50434W        W16865  18.977  41.083  10.676
50435W        W16866   3.736  13.558   1.824
50436W        W16867  17.849  13.046   3.250
50437W        W16868  13.265  13.902  14.891
50438W        W16869  30.124  38.728   3.743
50439W        W16870  44.049  30.864  11.658
50440W        W16871  10.609   1.806  12.792
50441W        W16872  34.518   9.780   2.199
50442W        W16873  29.202  17.918   4.051
50443W        W16874   0.342  14.747   0.764
50444W        W16875  15.157   9.304  14.731
50445W        W16876  28.285   8.981   4.257
50446W        W16877  31.303  33.825   4.151
50447W        W16878  17.770  39.180   1.296
50448W        W16879  31.607   6.648   1.868
50449W        W16880  10.305  14.070  12.500
50450W        W16881  23.181   7.487   0.233
50451W        W16882  13.158  28.958   2.299
50452W        W16883  41.955  23.454  10.647
50453W        W16884   9.388  21.550   3.166
50454W        W16885   8.220  44.933   3.382
50455W        W16886  36.744  41.934  11.971
50456W        W16887  19.468  32.084   0.054
50457W        W16888  10.182  11.698   2.855
50458W        W16889  35.547  43.020  11.549
50459W        W16890  37.175   4.236   4.345
50460W        W16891  24.034  43.433   1.791
50461W        W16892  35.405   3.911   1.908
50462W        W16893  27.647  22.923   0.318
50463W        W16894  19.755   7.503   4.528
50464W        W16895  36.091  43.801   0.302
50465W        W16896  13.252   0.243   3.097
50466W        W16897  27.394  30.639  10.071
50467W        W16898  11.392  36.563   0.419
50468W        W16899  31.180  31.639   4.338
50469W        W16900  40.091  22.210  11.033
50470W        W16901   8.511  14.693  14.766
50471W        W16902  23.028  37.908  12.500
50472W        W16903   8.117  40.110  11.131
50473W        W16904  28.909   4.953  10.917
50474W        W16905  31.032  17.163   1.253
50475W        W16906  31.036  26.396  11.677
50476W        W16907   1.339  41.208  14.444
50477W        W16908  30.200  21.990  11.689
50478W        W16909   3.523  21.686  14.576
50479W        W16910   0.381  27.990  10.368
50480W        W16911  16.283  40.169   0.996
50481W        W16912   1.921  27.528  13.975
50482W        W16913  29.966  15.113   0.487
50483W        W16914   3.406  44.105   3.366
50484W        W16915  21.507   4.252  10.703
50485W        W16916   1.995  30.159   2.345
50486W        W16917   8.504  44.850   0.318
50487W        W16918   7.408  25.220   0.390
50488W        W16919  24.230   4.524   2.427
50489W        W16920  34.644  31.995   1.410
50490W        W16921  16.531  41.361  13.872
50491W        W16922   1.992   2.825   1.873
50492W        W16923  25.947  32.139  14.889
50493W        W16924  12.202  23.772  11.655
50494W        W16925  10.154  39.720   3.941
50495W        W16926  14.522  35.890   0.398
50496W        W16927  29.347  17.623  13.224
50497W        W16928  33.627  39.772  13.568
50498W        W16929  14.902   5.735   0.519
50499W        W16930  26.179  24.254   3.691
50500W        W16931  22.797  25.115   1.644
50501W        W16932  38.060  44.495   0.970
50502W        W16933  34.819   8.494   4.741
50503W        W16934  44.943  11.319  11.757
50504W        W16935  37.328  15.574   0.263
50505W        W16936  39.609  44.412   2.613
50506W        W16937  42.545  32.703   2.605
50507W        W16938   7.609  21.707  13.008
50508W        W16939  18.620  33.085  11.482
50509W        W16940   6.059  13.662   5.104
50510W        W16941   7.562   0.655   3.518
50511W        W16942  42.854  41.261  11.708
50512W        W16943   9.856  38.895  10.288
50513W        W16944   0.874  35.938  11.669
50514W        W16945   9.127  33.019  12.476
50515W        W16946  10.365  22.730   1.740
50516W        W16947  12.411  24.146  12.015
50517W        W16948  33.933  39.456   0.246
50518W        W16949  41.066  16.878  11.699
50519W        W16950  14.576  37.345   2.778
50520W        W16951  35.850   1.848  13.376
50521W        W16952  31.456  42.320   4.079
50522W        W16953  10.581   5.937  12.948
50523W        W16954  37.117   2.385  10.783
50524W        W16955  44.101  15.019  14.845
50525W        W16956  14.637  15.598  13.025
50526W        W16957  28.951   1.525   3.681
50527W        W16958  16.134   2.456   2.718
50528W        W16959  26.634  38.619   1.392
50529W        W16960   9.793  12.297   0.900
50530W        W16961  29.501  21.205  10.323
50531W        W16962  23.156  18.037   0.318
50532W        W16963  20.284  11.828  14.891
50533W        W16964  31.889  19.161  12.962
50534W        W16965  22.123  37.446  13.110
50535W        W16966  12.357   9.318   2.900
50536W        W16967   1.691  13.234   0.753
50537W        W16968  12.236  18.163  11.479
50538W        W16969   8.279   1.486  14.462
50539W        W16970   2.514  25.993  14.422
50540W        W16971  19.732  37.580   2.230
50541W        W16972   6.876   7.899   4.097
50542W        W16973  41.541  39.358  14.381
50543W        W16974   3.922  33.489   1.091
50544W        W16975  16.474  17.517  13.447
50545W        W16976  42.820   9.648   0.567
50546W        W16977  38.793  33.737  14.935
50547W        W16978  39.404  24.964  11.165
50548W        W16979   8.815  37.185  14.554
50549W        W16980  42.046  31.162   0.796
50550W        W16981  18.067  14.704  11.216
50551W        W16982  21.540  14.598   4.189
50552W        W16983  37.587   6.199  12.026
50553W        W16984  13.159  34.623  12.877
50554W        W16985   6.012  12.778   0.331
50555W        W16986  35.311  11.354   1.222
50556W        W16987  44.182  27.205  12.764
50557W        W16988   3.953  21.066  10.738
50558W        W16989  18.876  12.170   3.296
50559W        W16990  19.743  17.156  11.535
50560W        W16991  19.720   1.687  10.577
50561W        W16992   3.719   5.925   3.792
50562W        W16993  14.289  19.266   3.739
50563W        W16994  16.230   0.851  10.636
50564W        W16995   4.106  30.187  10.377
50565W        W16996   7.506  28.022  13.153
50566W        W16997  15.859  24.749  13.547
50567W        W16998  33.520  39.064   2.242
50568W        W16999  19.591  17.579  13.502
50569W        W17000  29.010  10.624  11.086
50570W        W17001  15.639   7.615  11.945
50571W        W17002   9.943  29.589  11.168
50572W        W17003   5.131  40.381   3.816
50573W        W17004   7.612  27.198  14.284
50574W        W17005  18.571   3.532  10.660
50575W        W17006  32.190  26.201  12.117
50576W        W17007  33.092   1.340   3.688
50577W        W17008  33.505  36.158  11.657
50578W        W17009   0.824  40.578  11.246
50579W        W17010  43.803  26.697   0.336
50580W        W17011  15.687  26.544   2.732
50581W        W17012  21.201  36.477  12.510
50582W        W17013  37.329  12.556  11.207
50583W        W17014   5.397  36.602  11.950
50584W        W17015  17.235  12.734  10.685
50585W        W17016  27.514  28.906   3.559
50586W        W17017   5.601  33.229   2.166
50587W        W17018   4.352  42.895  10.704
50588W        W17019  31.529   7.535  14.821
50589W        W17020   8.836   6.462   3.734
50590W        W17021  33.120  37.849  11.078
50591W        W17022  18.963  38.002   3.707
50592W        W17023   7.863  41.913  10.594
50593W        W17024  43.652  31.837  14.314
50594W        W17025  22.970  35.423  13.604
50595W        W17026  26.426  18.886  11.861
50596W        W17027  38.645  33.420   2.225
50597W        W17028  14.893  35.059   3.648
50598W        W17029   3.549  27.557   2.305
50599W        W17030   1.502  40.207  14.254
50600W        W17031  29.081  20.832   0.894
50601W        W17032  27.097  10.838  13.460
50602W        W17033  13.402  26.033  13.335
50603W        W17034  43.057   5.763   2.337
50604W        W17035  26.226  12.942   2.865
50605W        W17036  42.424  27.503   0.734
50606W        W17037  40.049  11.230  12.471
50607W        W17038  26.411  21.511  13.918
50608W        W17039   0.958   5.304  14.841
50609W        W17040  36.904   7.184   2.639
50610W        W17041  28.056   3.459   0.694
50611W        W17042   0.236  19.026  12.042
50612W        W17043  35.890  40.450  13.499
50613W        W17044  38.860  26.855  14.003
50614W        W17045  20.682   3.439  10.401
50615W        W17046  39.888  35.510  13.917
50616W        W17047  41.553  24.087   3.824
50617W        W17048   6.798  32.428   1.492
50618W        W17049  29.926   6.527   2.616
50619W        W17050  40.629  37.092   4.551
50620W        W17051  16.679  33.073   0.844
50621W        W17052   7.611  44.160   2.710
50622W        W17053  39.493  43.878   1.323
50623W        W17054   8.668  14.334  14.417
50624W        W17055  25.891  40.822   1.359
50625W        W17056   3.634  15.200   3.292
50626W        W17057  30.906   0.227  13.915
50627W        W17058  21.120  37.946   4.114
50628W        W17059   6.722  19.502   3.621
50629W        W17060  21.297  36.447   0.996
50630W        W17061  14.702   4.080   2.353
50631W        W17062  30.728  24.549   3.271
50632W        W17063  38.993  25.153  14.404
50633W        W17064  26.618  34.418  14.787
50634W        W17065  29.098  38.820   4.679
50635W        W17066  16.449   5.026  13.801
50636W        W17067  16.341  20.655  12.388
50637W        W17068  36.846  17.604   1.813
50638W        W17069  23.189  43.890  14.877
50639W        W17070  44.183  19.257   0.643
50640W        W17071  41.217   4.092   2.186
50641W        W17072  25.992  16.413   4.992
50642W        W17073  17.766  44.911   1.851
50643W        W17074  20.182  29.155  14.667
50644W        W17075  41.451   5.566  13.025
50645W        W17076  30.013  37.939  13.913
50646W        W17077  17.706  17.224  12.962
50647W        W17078  40.453  36.393  12.821
50648W        W17079   1.214  13.753   0.998
50649W        W17080   3.626  34.492  12.157
50650W        W17081   1.172  35.232  13.321
50651W        W17082  40.813  15.393  14.489
50652W        W17083  14.639  12.248   0.037
50653W        W17084  29.380  15.862  13.029
50654W        W17085  14.922  42.488   1.721
50655W        W17086   6.099  28.060   4.577
50656W        W17087  16.053  40.084  14.804
50657W        W17088  43.003   7.264   1.782
50658W        W17089  44.874   6.771  11.860
50659W        W17090  39.448  25.519  14.827
50660W        W17091  18.621  36.109   1.896
50661W        W17092  10.823  23.200   0.677
50662W        W17093  17.046  44.674  14.451
50663W        W17094  30.884  10.766   3.805
50664W        W17095  32.837  34.962   4.249
50665W        W17096  31.509  32.378  12.779
50666W        W17097   1.751  44.061   3.301
50667W        W17098  14.414  33.832   3.746
50668W        W17099  21.221  42.440  10.664
50669W        W17100   3.437   6.350   4.124
50670W        W17101   6.424   8.899  13.429
50671W        W17102  26.400  32.538   4.208
50672W        W17103  22.993  32.087   4.554
50673W        W17104  17.579  10.685   1.390
50674W        W17105  28.898  18.700  10.775
50675W        W17106  35.274  10.837   4.590
50676W        W17107  30.911  42.771   3.429
50677W        W17108  17.320  11.749  11.429
50678W        W17109  31.329  35.722  11.661
50679W        W17110  36.261  25.097   5.036
50680W        W17111  40.956  29.174   3.210
50681W        W17112   0.863   4.953   2.238
50682W        W17113  40.013  16.338   3.572
50683W        W17114  15.335  35.703  11.612
50684W        W17115  13.989  32.460   4.144
50685W        W17116  17.171   4.591  12.861
50686W        W17117   5.846  40.332   0.805
50687W        W17118  13.408  24.327  11.831
50688W        W17119   9.254  39.072   2.353
50689W        W17120   3.255   6.318  14.773
50690W        W17121  26.185  30.222   3.813
50691W        W17122   4.675  37.251  11.773
50692W        W17123  26.775  39.860  13.975
50693W        W17124  27.604  11.488   3.872
50694W        W17125  28.953  17.753   4.479
50695W        W17126   7.185   0.839  12.537
50696W        W17127  39.107   5.421  10.967
50697W        W17128  44.484  14.793  13.807
50698W        W17129   2.447  43.796   3.313
50699W        W17130   8.563  19.673   1.297
50700W        W17131   5.185  28.037  12.956
50701W        W17132  14.567  20.070  12.596
50702W        W17133  27.016  24.828  13.843
50703W        W17134  36.928  42.963   0.838
50704W        W17135   0.724  26.421  11.073
50705W        W17136  14.316  14.227   5.043
50706W        W17137  38.103   4.889   1.912
50707W        W17138  43.755  29.942   3.487
50708W        W17139  15.258  29.685   2.929
50709W        W17140  20.565   6.433  13.591
50710W        W17141  41.317  36.805   1.290
50711W        W17142  44.285   5.943   0.221
50712W        W17143   0.388  12.145  13.366
50713W        W17144   0.915  19.790  11.526
50714W        W17145  31.023  40.840   5.224
50715W        W17146  12.131  17.176  10.766
50716W        W17147  38.255  42.389  12.159
50717W        W17148   5.903  19.851  12.018
50718W        W17149  23.651  17.853  10.300
50719W        W17150  16.244  43.851  14.480
50720W        W17151  15.310  34.207  12.598
50721W        W17152  36.663  13.934  11.449
50722W        W17153  13.341  39.809  13.447
50723W        W17154   2.344  25.172   4.123
50724W        W17155  11.763  42.485   1.054
50725W        W17156  22.750   3.863  10.746
50726W        W17157  23.953  11.100  12.646
50727W        W17158  28.793  44.697   2.809
50728W        W17159  20.947  41.891   2.663
50729W        W17160  34.986  36.764   0.252
50730W        W17161  10.163  24.556   3.238
50731W        W17162  25.116  27.008   3.421
50732W        W17163   8.723  27.944  11.149
50733W        W17164  10.100  29.296   4.412
50734W        W17165  28.403   2.786  12.573
50735W        W17166  37.065  14.245   0.419
50736W        W17167  26.547  36.128   1.905
50737W        W17168   6.645  30.879  12.058
50738W        W17169   3.329  17.813  12.979
50739W        W17170  15.591  40.511  13.967
50740W        W17171   8.025  41.518   2.812
50741W        W17172   5.663   1.208  10.667
50742W        W17173  29.369  24.425   2.296
50743W        W17174  16.812  21.136  11.565
50744W        W17175  20.751   6.695  14.007
50745W        W17176   1.821  34.302  14.464
50746W        W17177  31.457  12.376  14.989
50747W        W17178  25.192  13.616  14.379
50748W        W17179   5.869  16.216   3.726
50749W        W17180  17.582  26.166   3.765
50750W        W17181  34.570  42.146  10.918
50751W        W17182   0.128  12.131   3.790
50752W        W17183  19.923  27.479  13.597
50753W        W17184  13.416  24.401  14.417
50754W        W17185  24.093  44.840   2.438
50755W        W17186  33.022   3.575  13.188
50756W        W17187  24.243  18.829  12.038
50757W        W17188  27.766  44.844   2.833
50758W        W17189  26.614  17.850  11.229
50759W        W17190  29.536  28.357   4.754
50760W        W17191  41.777  23.069  14.027
50761W        W17192  15.236  11.552   4.231
50762W        W17193  13.194  43.457  14.731
50763W        W17194  33.454   2.909   4.583
50764W        W17195  30.361   8.901  11.689
50765W        W17196   4.287   1.814  14.324
50766W        W17197  24.481   0.214   2.608
50767W        W17198   6.225   2.878   2.217
50768W        W17199  25.646  13.597  11.669
50769W        W17200   2.807  19.002   3.883
50770W        W17201  38.132  40.896  13.358
50771W        W17202  10.340  38.009   0.789
50772W        W17203  13.066  41.584   3.184
50773W        W17204  41.574   0.421   3.328
50774W        W17205  42.307  42.957   3.679
50775W        W17206   0.740   3.379  12.091
50776W        W17207  27.046  22.048   0.608
50777W        W17208  30.948  20.041   4.190
50778W        W17209   0.320  16.666  11.168
50779W        W17210   4.957  42.581   2.639
50780W        W17211  20.412  26.127   2.380
50781W        W17212  44.987   3.081  10.637
50782W        W17213  21.226  41.272  11.207
50783W        W17214   8.754  40.519  14.799
50784W        W17215   3.151  24.285  13.858
50785W        W17216   4.874  36.610   4.236
50786W        W17217  35.006  19.592  12.980
50787W        W17218   5.563  19.568  10.470
50788W        W17219  31.154  42.033   1.257
50789W        W17220   9.303   6.216  12.561
50790W        W17221   0.330  21.258   4.148
50791W        W17222  25.997  16.123  14.780
50792W        W17223  39.776  28.968  10.755
50793W        W17224  44.650  41.547  14.438
50794W        W17225   7.437   7.228   3.146
50795W        W17226  36.547   7.601   1.283
50796W        W17227  19.692  25.899  14.711
50797W        W17228   9.514  37.613  10.635
50798W        W17229  37.121   1.028   1.955
50799W        W17230   5.170  17.742  14.825
50800W        W17231   0.713  34.556   3.597
50801W        W17232  43.457  11.796   0.848
50802W        W17233  27.043  10.692  12.975
50803W        W17234  15.260  29.485  10.653
50804W        W17235   0.189   5.336   1.401
50805W        W17236  41.073   6.742   2.934
50806W        W17237  40.441   8.013  11.980
50807W        W17238   1.508  41.883  11.309
50808W        W17239  42.595  31.382   1.455
50809W        W17240  21.907  43.812   1.929
50810W        W17241  17.023  44.250  11.950
50811W        W17242  37.727   7.617   5.160
50812W        W17243  25.629  44.972  10.642
50813W        W17244  39.563  37.014   3.743
50814W        W17245  43.277  11.349   3.539
50815W        W17246  18.243  20.160   0.804
50816W        W17247  19.491  13.616   0.352
50817W        W17248   4.508  30.017  14.433
50818W        W17249  38.343  32.691  12.039
50819W        W17250  10.440   9.448  14.703
50820W        W17251  37.461  18.010   2.793
50821W        W17252  32.283  20.045  11.109
50822W        W17253  28.444   2.452   0.245
50823W        W17254  25.794  21.690  11.607
50824W        W17255  30.672  15.747   4.696
50825W        W17256   8.068  28.084  11.960
50826W        W17257  14.198   7.329   3.589
50827W        W17258  17.125  29.144  12.033
50828W        W17259  28.999  21.557  10.903
50829W        W17260  35.713  13.515  14.598
50830W        W17261   3.686  12.186   3.647
50831W        W17262  20.998  23.088  11.234
50832W        W17263  32.394  17.119   3.586
50833W        W17264  23.093  13.436   1.944
50834W        W17265  25.072   2.311  10.426
50835W        W17266  16.731   6.206   2.468
50836W        W17267  22.272  28.501  11.626
50837W        W17268   1.641  14.304  10.741
50838W        W17269  23.185  26.545   4.106
50839W        W17270  44.167  21.605  14.559
50840W        W17271  28.936  44.025   0.300
50841W        W17272  15.655   8.459   2.358
50842W        W17273  24.726  16.314   0.727
50843W        W17274   9.758  20.128   2.633
50844W        W17275   8.120  24.067  14.569
50845W        W17276  21.063  19.016   1.754
50846W        W17277  33.684   0.792  13.643
50847W        W17278  35.076  28.190   4.447
50848W        W17279  13.844  11.143   2.457
50849W        W17280  44.962  17.104   2.738
50850W        W17281   5.381   4.509  10.751
50851W        W17282  16.834  31.899  13.019
50852W        W17283  30.284  36.140   2.663
50853W        W17284  12.151  15.845   3.884
50854W        W17285  14.452   6.528  10.311
50855W        W17286  37.579  36.464   1.229
50856W        W17287   2.190  28.556   1.148
50857W        W17288  32.169  17.347   0.791
50858W        W17289  34.859   1.507  12.504
50859W        W17290  38.776  11.628  11.564
50860W        W17291  17.554   8.839   0.353
50861W        W17292  29.461  15.290   4.723
50862W        W17293  25.215  11.643   2.821
50863W        W17294  31.896  34.454   2.089
50864W        W17295  30.533  14.226   3.697
50865W        W17296  10.276   2.947  12.501
50866W        W17297   4.483  25.970  14.225
50867W        W17298   5.830   1.503  13.065
50868W        W17299  41.041  21.828  10.800
50869W        W17300  42.478  21.887  13.523
50870W        W17301  35.424  44.835  13.554
50871W        W17302   0.513   0.003   2.264
50872W        W17303  39.738  44.207   2.129
50873W        W17304  37.350  29.022   3.670
50874W        W17305   0.499  30.622   1.352
50875W        W17306  17.112   9.305  11.579
50876W        W17307  44.980  29.048   3.306
50877W        W17308  13.898   9.727   4.539
50878W        W17309  44.524   3.757   3.224
50879W        W17310   6.635  17.776  13.924
50880W        W17311   4.509  14.313  13.279
50881W        W17312  25.929  12.938   3.305
50882W        W17313  26.531  18.607  13.348
50883W        W17314  18.232  31.172  14.724
50884W        W17315  21.211  40.240  11.485
50885W        W17316  33.345  33.435   9.735
50886W        W17317  16.045   7.983  14.250
50887W        W17318  35.163  20.595   4.930
50888W        W17319  31.950  25.227  13.879
50889W        W17320  37.389  25.913   3.211
50890W        W17321  29.902  28.016  14.515
50891W        W17322  15.199  19.226   2.528
50892W        W17323  40.907  23.146   0.508
50893W        W17324  39.596  35.984  13.807
50894W        W17325   3.445  41.774   0.971
50895W        W17326  24.964  15.062  12.366
50896W        W17327  41.456  16.051  14.375
50897W        W17328   6.789  42.551  12.798
50898W        W17329  34.458  35.987   2.694
50899W        W17330  25.577  37.797   1.505
50900W        W17331  28.432  43.730   1.923
50901W        W17332  15.160  44.476   1.480
50902W        W17333  33.061  28.531  10.553
50903W        W17334  22.058  18.381  11.141
50904W        W17335   7.810   4.368   2.402
50905W        W17336  17.587  34.940   4.834
50906W        W17337  20.208  44.396  12.964
50907W        W17338  41.984  35.359   4.203
50908W        W17339  25.303  26.628   4.053
50909W        W17340  44.846  20.231  11.637
50910W        W17341  34.804  41.763   4.389
50911W        W17342  40.024  19.137  14.985
50912W        W17343   6.218  11.409  11.609
50913W        W17344   6.115   5.930   3.699
50914W        W17345  31.492  32.050   1.392
50915W        W17346  39.219  13.485  11.621
50916W        W17347   2.789  37.499  11.716
50917W        W17348  37.329  39.564   4.422
50918W        W17349  26.942  41.063   3.682
50919W        W17350  25.688  42.342   0.740
50920W        W17351  39.618  21.497   4.051
50921W        W17352  27.410  20.491   0.166
50922W        W17353  43.283  20.636   2.351
50923W        W17354  42.094  39.924   1.890
50924W        W17355  38.946   4.525   1.265
50925W        W17356  27.757  36.467   1.677
50926W        W17357   3.051   5.741  12.970
50927W        W17358  24.927  42.709   3.086
50928W        W17359  26.587  39.817  13.480
50929W        W17360  12.686  22.009   9.895
50930W        W17361  22.473   4.349   4.243
50931W        W17362   7.874   8.420   4.111
50932W        W17363  24.049  44.579  12.377
50933W        W17364  39.275  26.463   0.806
50934W        W17365   2.033  44.055   1.022
50935W        W17366  13.384   5.619  13.406
50936W        W17367  16.936  15.617  14.695
50937W        W17368  19.808  43.402  12.866
50938W        W17369  38.876   6.729  14.398
50939W        W17370  25.756   8.259   2.811
50940W        W17371  36.829   8.986  11.153
50941W        W17372  35.317  43.976   3.729
50942W        W17373  13.246   7.416  12.470
50943W        W17374  17.365  12.287  10.929
50944W        W17375   5.522  33.883   1.495
50945W        W17376  35.089  38.569  13.026
50946W        W17377  21.620  17.477  13.459
50947W        W17378   7.938  24.456  12.063
50948W        W17379  28.187  24.391  11.908
50949W        W17380  22.055   5.635   4.532
50950W        W17381  24.761  24.577  12.085
50951W        W17382  27.117  18.245  12.934
50952W        W17383   9.953  19.645  10.377
50953W        W17384   7.464   4.791   3.650
50954W        W17385  28.413  24.258  14.036
50955W        W17386  21.171  19.468   5.022
50956W        W17387  35.252  33.156  10.747
50957W        W17388  12.816  22.979   1.235
50958W        W17389   4.172  17.341  10.252
50959W        W17390  15.549  27.672   2.581
50960W        W17391  29.492  25.161   1.322
50961W        W17392   9.777  30.728   0.499
50962W        W17393  27.726  28.973  11.125
50963W        W17394  31.784  37.901   4.701
50964W        W17395   4.824   7.224   0.818
50965W        W17396  32.994  35.966  13.561
50966W        W17397  34.179  39.752   0.946
50967W        W17398   1.238  39.817  14.069
50968W        W17399  22.986  19.229   1.892
50969W        W17400  32.365  28.348  13.479
50970W        W17401  26.633  28.498  10.411
50971W        W17402  16.755  23.833   3.267
50972W        W17403  33.821   3.522  12.721
50973W        W17404  44.840  34.455  14.918
50974W        W17405  29.883  38.615  10.765
50975W        W17406  28.218  17.116  11.140
50976W        W17407  29.854  21.753  12.000
50977W        W17408  14.537  39.363  12.642
50978W        W17409  35.532  24.826  14.141
50979W        W17410  28.264  33.480   2.850
50980W        W17411  28.495  37.870  12.968
50981W        W17412  36.390   0.389   0.710
50982W        W17413  37.927  44.857  14.333
50983W        W17414  10.372  42.934   2.829
50984W        W17415  33.843  34.108   0.618
50985W        W17416  26.241  23.725   3.681
50986W        W17417   0.540  21.201   0.318
50987W        W17418  27.124  10.104   2.733
50988W        W17419  39.800  34.871  11.101
50989W        W17420  29.654   9.323   4.750
50990W        W17421  27.342  43.886  11.576
50991W        W17422  44.851  24.571  14.880
50992W        W17423  10.932  35.033  12.557
50993W        W17424   7.859  39.196  12.999
50994W        W17425   0.196  32.017   2.314
50995W        W17426  40.676   5.204   2.065
50996W        W17427  34.841  19.195  11.607
50997W        W17428  40.960  26.097   4.058
50998W        W17429  16.054  25.614  12.560
50999W        W17430   9.960   9.130  13.546
51000W        W17431  31.476  15.256  14.889
51001W        W17432  19.039   9.327  11.411
51002W        W17433  44.416  20.779  12.366
51003W        W17434  41.725   1.315  10.714
51004W        W17435  22.675   6.669  14.504
51005W        W17436  35.150  16.605   1.045
51006W        W17437   3.140   2.654  12.028
51007W        W17438   6.662   4.262  11.271
51008W        W17439  39.522  36.564  10.740
51009W        W17440  12.105  11.872  10.880
51010W        W17441  17.057  17.761  11.511
51011W        W17442   0.242  35.110  10.366
51012W        W17443  42.590  37.466  12.939
51013W        W17444  14.642  21.344   3.246
51014W        W17445  27.127  39.727  14.955
51015W        W17446  30.629  22.595   1.750
51016W        W17447  11.674  37.959   2.915
51017W        W17448  19.913  40.710   5.004
51018W        W17449  43.238  38.448  10.491
51019W        W17450  25.515   6.585   1.877
51020W        W17451   3.444   0.364  12.617
51021W        W17452  13.242  10.853  14.782
51022W        W17453  19.801   9.346   4.196
51023W        W17454  41.727  23.966   3.295
51024W        W17455  17.099  40.459   3.653
51025W        W17456  20.468  10.202  10.796
51026W        W17457  19.075  11.655  13.336
51027W        W17458   2.942  18.799  14.864
51028W        W17459  32.457   0.977   4.097
51029W        W17460  24.645   2.608   1.829
51030W        W17461   6.773   3.387   4.079
51031W        W17462   3.515  44.817  10.443
51032W        W17463  31.884   5.888  12.402
51033W        W17464   2.442  30.540   1.777
51034W        W17465  25.102  43.024  10.736
51035W        W17466  34.783  27.173  14.301
51036W        W17467  34.639  27.031   3.231
51037W        W17468  31.417  10.579   3.818
51038W        W17469  26.159  31.982  12.080
51039W        W17470   9.506  16.922  10.289
51040W        W17471  13.760  19.206  11.973
51041W        W17472   6.806  18.873   1.810
51042W        W17473   3.992  27.815   2.458
51043W        W17474  18.005  21.186  14.283
51044W        W17475  18.479  34.261  13.351
51045W        W17476  28.467  18.627   3.174
51046W        W17477  33.053  12.368  13.776
51047W        W17478  28.415  16.774  13.607
51048W        W17479  30.190  39.721  13.049
51049W        W17480  44.662  16.151   2.796
51050W        W17481  29.462  29.826   4.696
51051W        W17482  14.252  34.097   4.981
51052W        W17483  40.932  19.186   1.496
51053W        W17484  25.092   2.463   3.562
51054W        W17485  29.663  25.422   4.183
51055W        W17486  38.972   8.380   4.957
51056W        W17487  40.057  18.594   4.146
51057W        W17488  17.715  18.174   1.389
51058W        W17489  11.326  16.730   2.808
51059W        W17490  37.154  17.262  12.949
51060W        W17491   0.905  13.901   4.465
51061W        W17492  23.438  33.986  11.952
51062W        W17493  16.279   0.867   1.974
51063W        W17494  34.576  13.081  14.902
51064W        W17495   6.322  40.184  11.993
51065W        W17496  24.666  40.768  12.661
51066W        W17497  42.072  43.989  12.559
51067W        W17498  19.609  17.381  12.987
51068W        W17499  11.971  15.130  13.587
51069W        W17500  28.690  23.682  10.707
51070W        W17501  14.989  41.712  11.465
51071W        W17502  32.483  21.107  11.069
51072W        W17503   4.152  33.065   1.309
51073W        W17504  42.358  30.120   1.943
51074W        W17505  24.511  17.278   2.695
51075W        W17506   3.118  14.149   2.340
51076W        W17507  14.259  44.684   0.921
51077W        W17508  39.375  36.138   1.245
51078W        W17509  15.275  30.007   4.383
51079W        W17510  38.970  37.850   0.316
51080W        W17511   2.943  13.650   4.392
51081W        W17512  31.204  40.307   4.152
51082W        W17513   5.704   5.668   1.882
51083W        W17514   4.402  10.196   1.885
51084W        W17515  28.434  32.592   1.271
51085W        W17516  33.166   5.800  10.605
51086W        W17517  32.421  43.989  14.471
51087W        W17518   6.484  30.631   0.679
51088W        W17519  43.327   9.759   0.788
51089W        W17520  17.303  28.806   4.313
51090W        W17521   4.262  13.267  13.521
51091W        W17522  15.762  44.166  13.771
51092W        W17523   9.904  39.838  14.326
51093W        W17524   9.247  10.427   2.806
51094W        W17525  39.086  29.549  10.347
51095W        W17526  16.789  37.978  11.995
51096W        W17527  12.783  44.257   3.345
51097W        W17528  31.483  22.076   0.474
51098W        W17529  42.301  43.519   1.417
51099W        W17530   8.718  14.542   2.289
51100W        W17531  22.982  15.298   1.777
51101W        W17532  43.392  23.719  10.690
51102W        W17533  33.617  24.995  11.309
51103W        W17534  37.228  34.183  13.466
51104W        W17535  36.247  31.912  14.206
51105W        W17536  26.613  24.311   0.870
51106W        W17537   5.638  21.350  13.563
51107W        W17538  23.177  20.762   4.729
51108W        W17539  18.931  25.119  12.417
51109W        W17540  16.522   7.783  14.319
51110W        W17541  34.526  20.305   3.166
51111W        W17542   0.545  15.739   1.907
51112W        W17543  16.488   0.900  11.151
51113W        W17544  37.692  13.117   4.976
51114W        W17545  14.759  36.926   4.094
51115W        W17546  26.949  12.830  13.904
51116W        W17547  40.516  31.389  14.531
51117W        W17548  14.264  18.904  14.540
51118W        W17549  31.119  29.087   4.591
51119W        W17550  44.925  30.938   2.796
51120W        W17551   8.405  33.931   3.883
51121W        W17552  15.324  23.618   1.273
51122W        W17553  34.558   0.773  13.512
51123W        W17554   0.845  17.628  12.452
51124W        W17555  22.593  20.630   1.158
51125W        W17556  19.546  10.807   2.261
51126W        W17557   4.861  14.842  11.941
51127W        W17558  41.394  36.042   3.194
51128W        W17559  27.906  22.471   4.803
51129W        W17560  15.278  37.476  11.396
51130W        W17561  10.074  13.234   4.075
51131W        W17562  19.214  25.018   3.712
51132W        W17563  12.662  39.454   3.948
51133W        W17564   9.268  30.559  14.527
51134W        W17565  33.568  38.121   2.400
51135W        W17566  34.460  40.329  10.715
51136W        W17567   3.949  41.360  14.824
51137W        W17568   7.181  30.589  11.685
51138W        W17569  10.659   8.314  12.504
51139W        W17570  21.273  35.152   1.791
51140W        W17571  36.447  21.265  11.580
51141W        W17572  12.519  28.768   4.105
51142W        W17573  25.106  19.051   3.403
51143W        W17574   5.872  40.507   1.308
51144W        W17575   4.249  10.468  11.944
51145W        W17576   3.742  42.943   0.790
51146W        W17577   4.253  29.686  10.548
51147W        W17578   2.805  36.228  13.565
51148W        W17579   6.941  17.021   0.881
51149W        W17580  15.839   9.820   2.277
51150W        W17581  38.628  12.666   1.821
51151W        W17582  31.625  28.992  11.034
51152W        W17583  18.469   7.639  13.472
51153W        W17584  24.001  24.881  14.256
51154W        W17585  19.272  16.937  10.801
51155W        W17586  19.547  23.253   3.396
51156W        W17587  25.910  29.019   4.204
51157W        W17588  12.175  26.721   1.641
51158W        W17589  26.379  15.377   0.785
51159W        W17590  14.141  13.155   4.939
51160W        W17591   0.852  29.161   0.503
51161W        W17592  21.023  41.666  14.774
51162W        W17593  33.707   5.732  10.617
51163W        W17594  23.416  34.456   0.254
51164W        W17595   9.745  33.577  14.355
51165W        W17596  40.063   0.396  11.427
51166W        W17597  37.549  30.504  13.874
51167W        W17598  29.889  26.742  12.517
51168W        W17599  27.989  16.925  13.276
51169W        W17600  19.604  20.751   0.780
51170W        W17601  17.297  21.425   4.194
51171W        W17602  34.936   9.435  14.796
51172W        W17603  36.264   7.008   1.829
51173W        W17604  32.426  38.522   2.974
51174W        W17605  41.234  10.760  12.994
51175W        W17606  12.296  44.528  12.407
51176W        W17607  27.622  37.782  11.130
51177W        W17608  44.460  19.315  14.432
51178W        W17609   1.515  21.109  10.957
51179W        W17610  16.810   4.915   2.864
51180W        W17611  44.536  31.094   2.040
51181W        W17612  43.532  44.037  14.521
51182W        W17613  27.318  20.082   0.932
51183W        W17614  44.725  43.802   4.539
51184W        W17615   3.037  37.218  11.081
51185W        W17616   6.538  40.925   9.956
51186W        W17617   9.137   7.915   0.816
51187W        W17618  38.428  18.737  11.946
51188W        W17619   4.664   4.153  11.025
51189W        W17620  18.636  20.292  13.585
51190W        W17621   3.286   9.487   5.031
51191W        W17622  29.477   7.583   1.373
51192W        W17623  26.053  14.076   1.990
51193W        W17624  10.684   1.762   0.625
51194W        W17625  37.016  22.209  10.753
51195W        W17626   8.147   5.868   2.870
51196W        W17627  33.620  15.535  12.784
51197W        W17628  15.233  32.659  12.181
51198W        W17629  24.541  11.668   4.738
51199W        W17630  29.520  42.032   4.622
51200W        W17631   5.720  13.309   4.714
51201W        W17632  33.919  39.476  11.134
51202W        W17633  38.521  37.089  13.259
51203W        W17634  36.446  21.746   3.115
51204W        W17635  25.518  39.036   3.754
51205W        W17636  41.531  17.248   3.728
51206W        W17637  26.078  38.591  14.115
51207W        W17638  29.707  27.774  11.670
51208W        W17639  43.928  34.817  12.387
51209W        W17640  42.989  24.092   4.159
51210W        W17641  34.268  13.763   1.347
51211W        W17642  43.342  38.430  12.353
51212W        W17643  43.385   3.400   3.688
51213W        W17644   2.742  23.156  11.950
51214W        W17645   2.193  26.114  13.002
51215W        W17646  37.505  21.107   5.228
51216W        W17647  35.557  19.382   4.787
51217W        W17648  12.926  22.580   0.871
51218W        W17649   3.445  41.507   4.147
51219W        W17650  26.666  17.719   4.160
51220W        W17651  24.503  39.671   2.386
51221W        W17652   6.220   6.481   5.428
51222W        W17653  36.381   9.100   1.258
51223W        W17654  16.159   1.959   2.900
51224W        W17655   0.922  32.968   1.180
51225W        W17656   6.684  26.892   4.749
51226W        W17657  25.425  40.284  14.000
51227W        W17658  34.827   4.269  11.076
51228W        W17659  20.737  25.935  11.303
51229W        W17660   5.229  37.237  10.538
51230W        W17661   8.329  38.744   0.877
51231W        W17662  15.119  44.844   3.599
51232W        W17663  13.145  22.507   2.462
51233W        W17664  16.566  24.610   3.693
51234W        W17665  35.901  11.193  14.929
51235W        W17666  29.091   3.855  12.944
51236W        W17667  10.737  40.247  10.503
51237W        W17668  11.550  23.616  12.913
51238W        W17669  11.164   0.057  13.888
51239W        W17670  27.281  26.628  14.862
51240W        W17671   4.424   5.395   2.114
51241W        W17672  42.610  28.880  12.020
51242W        W17673  17.689  34.509   2.681
51243W        W17674  30.514   2.842   4.442
51244W        W17675  22.639  43.136   4.020
51245W        W17676  38.834  24.447  12.777
51246W        W17677  31.452  20.604   3.780
51247W        W17678  22.188  31.422  13.049
51248W        W17679  20.677  24.876  11.568
51249W        W17680  14.423  38.349  11.409
51250W        W17681  25.999  32.411   4.576
51251W        W17682  38.315   1.554   1.708
51252W        W17683  10.677   7.463   3.157
51253W        W17684   3.807   8.833  10.504
51254W        W17685   1.246  34.331  14.474
51255W        W17686  10.806  36.000   0.785
51256W        W17687  11.871   3.116  10.227
51257W        W17688  27.409  23.202  14.956
51258W        W17689  34.397  10.232   1.411
51259W        W17690   5.215  41.859   4.475
51260W        W17691  41.948  19.719   1.606
51261W        W17692  43.043  19.314   0.424
51262W        W17693  31.951  35.082  11.609
51263W        W17694   2.482  32.440   2.414
51264W        W17695   5.478   5.828   4.666
51265W        W17696  23.431  17.759   3.201
51266W        W17697  33.489  24.829   3.704
51267W        W17698  38.446   0.821  13.971
51268W        W17699  31.610  12.891  12.226
51269W        W17700  19.973  39.800   0.316
51270W        W17701  25.013  28.024  11.437
51271W        W17702  23.697  20.802  12.543
51272W        W17703   6.489   8.856   2.626
51273W        W17704   2.504   9.402   3.314
51274W        W17705  32.604  10.721   0.854
51275W        W17706  20.602   4.193  14.041
51276W        W17707  19.308   8.353   3.258
51277W        W17708  20.386  14.957  10.734
51278W        W17709  41.781  27.525   3.812
51279W        W17710  41.778  35.400  12.480
51280W        W17711  39.804   6.645  10.688
51281W        W17712  29.401  14.281  10.611
51282W        W17713  37.078   3.838   0.365
51283W        W17714  40.959  33.595  13.483
51284W        W17715  24.110  11.067   4.589
51285W        W17716  33.624  25.106   2.280
51286W        W17717  16.068  10.768  13.329
51287W        W17718  37.599  30.190  13.461
51288W        W17719   2.639  19.774  14.856
51289W        W17720  42.544  32.171   2.596
51290W        W17721   4.240  40.569   4.515
51291W        W17722  17.152  41.082   0.549
51292W        W17723  43.371  19.987   0.334
51293W        W17724  41.256   3.246   0.453
51294W        W17725   0.921  17.245   3.666
51295W        W17726  43.858  24.003  10.761
51296W        W17727  17.164  32.999   2.068
51297W        W17728  17.062   0.497   1.873
51298W        W17729  12.705  25.512  14.459
51299W        W17730   0.866   4.850   2.769
51300W        W17731  21.116  26.407  10.136
51301W        W17732  37.560  17.596  13.105
51302W        W17733   2.089  22.628   1.965
51303W        W17734  11.243  23.640   2.780
51304W        W17735  13.150  36.895   4.604
51305W        W17736  10.780  18.450  11.290
51306W        W17737  34.866  23.068  11.182
51307W        W17738  39.552  11.798   1.389
51308W        W17739  27.109   3.813   3.373
51309W        W17740   3.623  32.909  11.540
51310W        W17741  24.159  17.131  12.560
51311W        W17742  10.268  14.437   0.157
51312W        W17743  26.266  36.810  11.145
51313W        W17744  34.811  32.626   0.949
51314W        W17745  35.682  44.546   3.281
51315W        W17746  11.728  26.572  12.349
51316W        W17747  21.681  29.466  10.560
51317W        W17748  15.820  33.549  11.411
51318W        W17749  22.002   6.662  12.806
51319W        W17750  18.899  24.599   1.219
51320W        W17751  24.455  10.617   0.764
51321W        W17752  44.067   8.253   2.688
51322W        W17753  12.743  13.827  11.874
51323W        W17754  14.699   7.278   3.333
51324W        W17755   5.858  28.584  12.193
51325W        W17756  11.848  23.631  13.933
51326W        W17757  23.090  44.457   2.238
51327W        W17758  14.582  26.843  11.749
51328W        W17759   5.583  11.145  11.137
51329W        W17760  35.674   0.032   2.168
51330W        W17761  18.216   2.993  14.979
51331W        W17762  18.841  38.984  14.690
51332W        W17763  33.773  38.504   4.096
51333W        W17764  27.495  28.565  13.352
51334W        W17765   3.399   0.071  13.775
51335W        W17766  35.577   4.683   2.245
51336W        W17767  29.440  32.235  12.746
51337W        W17768   5.806  11.569  11.325
51338W        W17769  33.081  44.806  11.614
51339W        W17770  24.660   9.111  10.648
51340W        W17771   0.321  13.942   3.255
51341W        W17772   9.815  40.977  13.091
51342W        W17773  41.649  21.991  14.958
51343W        W17774  43.806  35.197  14.457
51344W        W17775  41.280  10.443   2.633
51345W        W17776  11.701  39.077   1.177
51346W        W17777  10.217  42.977   3.850
51347W        W17778  23.073  19.801  12.110
51348W        W17779  17.360  26.818   3.280
51349W        W17780  37.545   8.709   2.197
51350W        W17781  37.444   4.949  10.016
51351W        W17782  21.688  14.031   0.525
51352W        W17783   1.204  15.451  12.808
51353W        W17784   6.316  38.292   3.603
51354W        W17785   6.062  20.112   3.181
51355W        W17786   1.696   8.776   0.492
51356W        W17787   7.893  25.756  14.231
51357W        W17788  34.320  16.345   3.225
51358W        W17789  33.422   6.839  13.921
51359W        W17790  16.358  28.071  13.959
51360W        W17791  44.929  30.105  12.098
51361W        W17792   9.388  25.724  11.594
51362W        W17793  43.439   7.366  11.993
51363W        W17794  21.085  43.707   3.615
51364W        W17795  23.072  21.497   0.237
51365W        W17796  23.490  14.636   0.011
51366W        W17797  40.445   6.729   1.265
51367W        W17798   4.433   7.636   2.781
51368W        W17799  31.396  19.317   0.931
51369W        W17800  35.090  33.540   0.010
51370W        W17801  14.748   0.964   3.803
51371W        W17802  28.167  38.917  10.514
51372W        W17803   6.691   7.929  10.758
51373W        W17804  18.126   6.509   1.159
51374W        W17805  26.542  17.253  13.002
51375W        W17806  21.567  24.575   3.131
51376W        W17807  33.533  21.630   0.018
51377W        W17808  40.022  39.512   1.255
51378W        W17809   4.299  32.121  10.653
51379W        W17810  21.794  30.598   2.133
51380W        W17811  42.152  22.411   1.630
51381W        W17812  36.054  39.976   0.280
51382W        W17813  28.993   7.998   5.492
51383W        W17814   4.560  11.407  13.105
51384W        W17815  22.662   9.153   4.663
51385W        W17816  29.493   4.374   0.370
51386W        W17817  36.604  16.001   4.749
51387W        W17818  41.158   8.598  11.550
51388W        W17819   1.966   9.233  11.204
51389W        W17820  23.283  31.931   1.838
51390W        W17821   3.786  28.567   4.887
51391W        W17822   8.821   0.412  13.931
51392W        W17823  34.614   2.943   2.350
51393W        W17824  26.580  14.155  10.466
51394W        W17825  36.532   6.287  14.937
51395W        W17826  20.749  30.142  10.542
51396W        W17827   7.618  21.836   3.660
51397W        W17828  15.282  23.929  12.438
51398W        W17829  33.934  10.610   2.168
51399W        W17830  41.830  23.324   2.447
51400W        W17831  26.168   1.519  11.578
51401W        W17832   0.408   2.176   1.152
51402W        W17833  16.635   0.456   3.277
51403W        W17834  20.443  20.499   2.860
51404W        W17835  34.008   3.665  10.337
51405W        W17836  21.888  40.815  14.866
51406W        W17837  21.202   7.546   3.678
51407W        W17838   9.253  31.939   1.470
51408W        W17839  20.752  31.021  13.045
51409W        W17840  29.871   0.534  14.267
51410W        W17841  20.007  38.129  10.234
51411W        W17842  40.279   4.707  10.178
51412W        W17843   3.755  27.719   1.411
51413W        W17844  17.871   7.839   1.827
51414W        W17845   2.943   6.210   2.187
51415W        W17846  31.597  27.036   1.745
51416W        W17847  11.865  24.146  11.290
51417W        W17848  28.574  29.543   3.358
51418W        W17849  40.162  33.565   1.473
51419W        W17850  25.434   7.161  12.067
51420W        W17851  44.622  24.658  13.851
51421W        W17852   8.119  28.388  14.323
51422W        W17853  42.692  37.042  11.122
51423W        W17854  16.090  33.670   4.514
51424W        W17855  23.690  36.938   2.852
51425W        W17856  22.058  31.029   2.291
51426W        W17857  14.904  40.455  11.956
51427W        W17858  19.214   1.301   2.002
51428W        W17859  13.632  33.437   2.255
51429W        W17860  26.693  20.758  13.396
51430W        W17861   1.456  25.107  14.141
51431W        W17862  34.650  38.975  11.056
51432W        W17863  38.133  31.027  11.535
51433W        W17864  26.673  41.717  13.496
51434W        W17865   8.995   6.261   3.287
51435W        W17866  27.582  22.472  12.021
51436W        W17867  19.463  11.871  11.002
51437W        W17868   7.166  28.572  11.437
51438W        W17869  19.209  29.481  12.635
51439W        W17870  27.150   7.640   2.535
51440W        W17871  14.666   0.515  10.577
51441W        W17872  30.931  35.141  13.980
51442W        W17873  12.564  31.285   1.050
51443W        W17874  26.273  19.117   3.765
51444W        W17875   3.879  32.958  13.757
51445W        W17876  26.825   4.095   2.901
51446W        W17877  35.345  36.886  13.870
51447W        W17878   0.884  15.056   2.417
51448W        W17879  36.827  28.314  11.453
51449W        W17880   3.545  42.645   3.755
51450W        W17881  38.338  33.935  12.842
51451W        W17882  26.007  39.219   4.639
51452W        W17883  37.486  10.376  14.489
51453W        W17884  19.712  35.692  12.918
51454W        W17885  23.019  20.726   3.260
51455W        W17886  38.643  40.843  13.377
51456W        W17887  25.954  34.421   2.894
51457W        W17888  35.825  27.144  14.442
51458W        W17889   0.866  36.514   1.026
51459W        W17890   7.797  32.197   4.733
51460W        W17891  37.623  29.542   4.478
51461W        W17892  36.060  40.947   0.248
51462W        W17893  32.017  23.559  14.676
51463W        W17894  37.613   0.906   2.076
51464W        W17895  30.954  31.509  14.879
51465W        W17896  43.026  42.494  14.802
51466W        W17897  16.062  21.731  13.548
51467W        W17898  18.435  23.483   5.738
51468W        W17899  23.143  39.645   2.920
51469W        W17900  18.834  37.034   3.855
51470W        W17901  38.965  27.793  11.061
51471W        W17902   7.021   4.452  12.223
51472W        W17903  41.597  33.560  14.471
51473W        W17904  14.248   2.902  14.018
51474W        W17905   8.574  29.393   0.219
51475W        W17906  35.074  28.523  11.105
51476W        W17907  18.723  16.718   0.213
51477W        W17908  28.500   8.893  10.257
51478W        W17909  17.710  16.232   5.545
51479W        W17910  33.591  43.295   0.072
51480W        W17911   3.711  16.756  11.108
51481W        W17912   3.083  27.002  11.070
51482W        W17913   8.334   0.679  11.455
51483W        W17914   5.943  36.332  13.151
51484W        W17915   9.604   7.690   1.709
51485W        W17916  23.122   1.604   2.304
51486W        W17917   6.274   4.105  13.586
51487W        W17918  23.109  41.025  12.504
51488W        W17919  29.078   5.430   4.035
51489W        W17920  11.192  13.326   3.192
51490W        W17921  19.683  19.780  10.719
51491W        W17922  17.341  42.126   3.261
51492W        W17923  35.135  40.033  12.167
51493W        W17924   0.788  23.342   9.642
51494W        W17925   4.768   8.811   3.714
51495W        W17926  20.621  35.488  13.335
51496W        W17927  15.057  23.223  12.958
51497W        W17928  25.124  18.547  11.179
51498W        W17929  10.259  42.939   3.342
51499W        W17930  24.979  12.282  14.761
51500W        W17931  20.020  10.263  10.529
51501W        W17932  14.075   4.884   1.363
51502W        W17933  12.488  42.492  13.959
51503W        W17934  26.451  17.830   4.617
51504W        W17935  38.327   4.231   3.765
51505W        W17936  14.265  22.529   5.324
51506W        W17937  27.904  41.502   9.949
51507W        W17938  31.969  33.092  11.719
51508W        W17939  35.785  17.939   3.894
51509W        W17940  11.218   8.550  10.494
51510W        W17941  32.924   1.905  12.065
51511W        W17942  40.112   1.250   2.186
51512W        W17943  19.484  21.998  12.912
51513W        W17944  32.930  14.159   4.704
51514W        W17945   3.650  19.184   1.742
51515W        W17946  32.865   7.864   2.761
51516W        W17947   8.715  43.904  10.060
51517W        W17948  38.840  26.146  12.434
51518W        W17949  10.635   6.298   1.143
51519W        W17950  19.262   6.680  14.268
51520W        W17951  27.814  43.020  11.634
51521W        W17952  21.470  16.289  10.648
51522W        W17953  27.185  13.088   1.929
51523W        W17954  32.367  34.470   2.812
51524W        W17955   9.348  26.882   4.574
51525W        W17956  44.681  44.272  14.910
51526W        W17957  34.630   5.143   2.835
51527W        W17958   5.842  18.687  12.419
51528W        W17959  36.494   6.976   0.734
51529W        W17960  11.991  22.256   4.415
51530W        W17961  16.289  25.096   2.058
51531W        W17962  34.893  12.372   3.270
51532W        W17963   4.349  37.687  12.579
51533W        W17964   8.929   0.539   1.654
51534W        W17965  32.186   6.824  14.608
51535W        W17966  35.898   4.877   1.897
51536W        W17967  43.692  21.594   0.451
51537W        W17968  24.588  40.589  14.391
51538W        W17969  15.343  39.843  13.360
51539W        W17970  35.855   4.987  11.531
51540W        W17971  24.724  34.345  13.523
51541W        W17972  13.851  27.724   1.831
51542W        W17973  12.933  34.904   2.440
51543W        W17974  40.994  10.373   3.274
51544W        W17975  41.090   6.809   4.370
51545W        W17976  42.019  14.863   2.820
51546W        W17977   3.238  18.557  12.395
51547W        W17978  17.530  26.818  12.897
51548W        W17979  38.977  27.968  14.879
51549W        W17980  23.082   2.418  12.155
51550W        W17981  11.635  35.356  13.498
51551W        W17982  22.593  27.018  11.530
51552W        W17983  13.140   1.490  14.818
51553W        W17984  37.482  32.866  14.538
51554W        W17985  22.226  42.325   4.164
51555W        W17986  11.159  22.607  12.487
51556W        W17987   0.994   3.213  14.763
51557W        W17988  21.235  15.285  12.016
51558W        W17989  23.289  26.634  14.259
51559W        W17990  20.757  15.610   3.112
51560W        W17991  12.726  38.644  13.068
51561W        W17992  13.706  14.008   1.014
51562W        W17993   7.338  38.968  12.648
51563W        W17994  23.571  22.745  14.374
51564W        W17995  10.999  19.663   5.252
51565W        W17996  17.484  41.554  13.958
51566W        W17997  41.133   1.223  13.439
51567W        W17998  21.758   8.551   0.221
51568W        W17999   3.683  27.436  13.442
51569W        W18000   1.813  44.882  11.757
51570W        W18001  17.194  29.909   1.752
51571W        W18002  26.745  25.530   5.254
51572W        W18003  14.428  28.553  13.277
51573W        W18004   9.577   2.034   2.636
51574W        W18005   3.456  20.633  13.809
51575W        W18006  22.029  21.316   0.395
51576W        W18007  13.023  44.541  11.955
51577W        W18008   2.964  27.074  13.527
51578W        W18009   4.283   8.890  11.078
51579W        W18010   9.997  26.341  12.577
51580W        W18011  40.280   9.071   0.124
51581W        W18012   6.887  40.723   3.982
51582W        W18013  19.707  26.912   2.600
51583W        W18014  35.842  11.708  12.112
51584W        W18015  10.243  16.148   0.050
51585W        W18016  32.685  38.039  13.358
51586W        W18017  19.091   3.515  11.414
51587W        W18018  22.974  36.485  12.044
51588W        W18019  18.238  37.477  11.517
51589W        W18020  34.448  22.611   4.610
51590W        W18021  41.946  27.664   2.297
51591W        W18022  20.649  22.325   3.750
51592W        W18023   6.199   4.627  10.773
51593W        W18024  33.083  27.506   3.394
51594W        W18025  11.888  35.246   1.806
51595W        W18026  12.153   0.800   1.381
51596W        W18027  31.634  20.153   4.864
51597W        W18028  18.222   7.658  14.004
51598W        W18029  44.487  37.055   3.146
51599W        W18030  38.645  30.447  13.732
51600W        W18031  33.429  26.971  12.046
51601W        W18032  30.002  28.679  13.050
51602W        W18033  36.982  13.204  12.034
51603W        W18034  22.017  14.678  13.268
51604W        W18035  11.860  11.230   1.284
51605W        W18036  39.860  22.273  12.939
51606W        W18037  40.683   4.102  11.680
51607W        W18038  14.675  15.098  11.855
51608W        W18039   3.411  41.412   1.401
51609W        W18040  27.978  14.318  14.682
51610W        W18041  32.949  22.259  11.529
51611W        W18042   8.343  33.898   1.877
51612W        W18043  21.768  23.733   1.842
51613W        W18044  15.659  19.503   0.755
51614W        W18045  41.987  12.077   4.095
51615W        W18046  26.573  10.836  10.752
51616W        W18047  16.851  37.939  10.505
51617W        W18048   5.298   2.387  12.495
51618W        W18049  10.459  21.082   0.736
51619W        W18050  35.966  17.582   4.234
51620W        W18051  37.488  41.081   9.869
51621W        W18052   1.351  16.988  11.751
51622W        W18053   9.266  32.654   2.790
51623W        W18054  38.915   5.989   2.797
51624W        W18055  13.262  25.490   0.527
51625W        W18056  43.029  16.260  14.382
51626W        W18057  19.516   6.943   3.752
51627W        W18058  28.299  21.048  14.881
51628W        W18059  16.561  18.512   0.699
51629W        W18060  37.174  17.979  13.896
51630W        W18061  31.259  33.095   1.330
51631W        W18062  27.539  12.222   0.264
51632W        W18063   8.666  23.400   3.575
51633W        W18064  17.406   3.561   1.396
51634W        W18065  43.813   1.500  12.441
51635W        W18066  25.298  33.439  10.806
51636W        W18067  40.765  30.285  11.122
51637W        W18068  32.506  11.605  14.177
51638W        W18069   9.632  19.094   0.935
51639W        W18070  29.925  10.742   2.765
51640W        W18071   0.940   1.788   0.384
51641W        W18072  18.742  23.917  12.004
51642W        W18073   9.777   0.266  13.054
51643W        W18074  44.335  42.542   1.333
51644W        W18075  30.479  20.576  12.889
51645W        W18076  18.032  21.798   1.335
51646W        W18077  12.931  32.446  11.046
51647W        W18078  11.867  30.553  11.363
51648W        W18079  39.805  21.773  12.027
51649W        W18080  14.130  39.049   1.343
51650W        W18081  18.720   6.914   2.445
51651W        W18082  24.410  39.392   0.811
51652W        W18083  37.031  42.342   1.383
51653W        W18084   0.314  10.651   4.667
51654W        W18085  11.702   5.253   4.348
51655W        W18086  26.582  18.204   3.306
51656W        W18087   6.905  20.066   2.632
51657W        W18088  41.903   3.682   4.376
51658W        W18089  41.302  34.931  11.049
51659W        W18090   3.694  11.757  12.936
51660W        W18091  14.289   0.812  13.745
51661W        W18092  39.945  25.686  13.030
51662W        W18093  35.575  23.768   1.229
51663W        W18094  34.685  17.722  12.818
51664W        W18095  23.672  10.282  13.587
51665W        W18096  35.412  36.671  13.392
51666W        W18097  32.071  30.957   3.548
51667W        W18098   5.257  33.668  14.672
51668W        W18099  31.175  31.013  12.611
51669W        W18100  44.394  38.113   3.107
51670W        W18101   2.388  27.041  10.604
51671W        W18102  13.744  23.886  12.479
51672W        W18103  33.665   0.261  13.612
51673W        W18104  43.825  31.562  10.606
51674W        W18105   6.618  26.536  11.625
51675W        W18106  10.759   4.791   4.050
51676W        W18107  41.365  32.469   4.147
51677W        W18108   5.820   1.796   4.882
51678W        W18109  27.559  10.413   2.696
51679W        W18110  25.137  34.491  11.482
51680W        W18111  21.676  17.572  14.998
51681W        W18112   6.138  12.323  12.124
51682W        W18113  31.629  27.394  12.997
51683W        W18114  29.445  20.193   2.434
51684W        W18115  39.797  29.906  11.128
51685W        W18116  41.460   6.962   3.711
51686W        W18117  12.479  26.647  14.385
51687W        W18118  17.734  32.326   3.769
51688W        W18119   2.833  35.346   2.745
51689W        W18120   6.424  32.557  13.809
51690W        W18121  35.260  44.815   3.117
51691W        W18122  42.482  29.366  11.194
51692W        W18123  26.911  30.233   3.387
51693W        W18124  32.478  30.541   1.412
51694W        W18125  37.803  42.451  13.628
51695W        W18126   1.591  34.174  12.052
51696W        W18127  31.586  38.993  10.771
51697W        W18128  25.770  32.979  13.293
51698W        W18129  20.634  18.468  11.174
51699W        W18130  27.145  17.764   2.726
51700W        W18131  29.531   8.403  11.503
51701W        W18132  42.530   2.461   5.001
51702W        W18133  14.845  26.558  12.087
51703W        W18134  21.340   9.174   3.118
51704W        W18135  39.255  13.945  10.929
51705W        W18136  13.918  37.985  10.756
51706W        W18137  24.091  40.331  13.548
51707W        W18138   3.436   0.696  11.580
51708W        W18139   9.965  34.845  11.590
51709W        W18140  38.422   9.036   0.569
51710W        W18141   2.829  39.015   4.201
51711W        W18142  34.714  21.191  13.371
51712W        W18143  26.681  21.026  13.945
51713W        W18144  24.524  10.095  13.371
51714W        W18145  10.343  19.993   4.139
51715W        W18146   4.348   9.910   0.176
51716W        W18147   0.748  43.891   3.576
51717W        W18148  25.179  39.314  14.981
51718W        W18149  40.933  43.009   2.283
51719W        W18150  19.768  38.077  11.093
51720W        W18151  29.625  10.746   1.767
51721W        W18152  38.384  43.200   2.232
51722W        W18153  38.825  42.632   4.235
51723W        W18154  30.848  26.299   4.640
51724W        W18155  37.354  26.068  12.480
51725W        W18156  12.597  43.476  11.366
51726W        W18157   4.859  28.990   4.173
51727W        W18158  28.932  11.572   3.133
51728W        W18159  10.115  21.574   2.430
51729W        W18160  19.187  30.528   4.992
51730W        W18161   3.491   9.662  12.683
51731W        W18162  12.165   2.469  10.552
51732W        W18163  18.723  33.504  14.344
51733W        W18164   2.505   0.473   2.693
51734W        W18165   5.935   9.782   0.768
51735W        W18166  42.369  39.802  11.697
51736W        W18167  31.121  29.949   4.992
51737W        W18168   8.127  21.451   2.668
51738W        W18169   9.307  10.599  12.317
51739W        W18170  36.936  24.992   4.303
51740W        W18171  18.286  41.788  11.051
51741W        W18172  33.923  21.384  14.086
51742W        W18173  23.999   5.843   0.410
51743W        W18174  40.369  41.304   0.525
51744W        W18175  14.239  13.006   3.694
51745W        W18176   0.341  15.095   1.232
51746W        W18177  31.505  37.298  14.469
51747W        W18178  16.678  43.613   0.387
51748W        W18179  35.781   4.276   3.690
51749W        W18180  36.544  14.640   3.711
51750W        W18181   4.394  36.623  13.992
51751W        W18182  41.087  40.278   4.231
51752W        W18183  19.759  13.224  11.426
51753W        W18184  15.626   6.969   2.128
51754W        W18185  25.270  21.637  11.683
51755W        W18186  37.475  43.760   9.977
51756W        W18187   8.588  10.265   4.912
51757W        W18188  25.221  28.502   4.583
51758W        W18189   1.467  41.955  13.174
51759W        W18190  28.528  20.002  12.901
51760W        W18191   5.853   9.184  14.355
51761W        W18192  36.233  22.520   3.712
51762W        W18193  43.762  14.071   3.104
51763W        W18194  35.048  38.758   5.495
51764W        W18195   6.765   0.027  14.363
51765W        W18196  13.705  21.072   4.581
51766W        W18197   0.765  32.385  11.831
51767W        W18198  20.734  40.578  11.390
51768W        W18199  36.132  40.193   0.747
51769W        W18200  25.972   0.528  12.904
51770W        W18201  11.733  43.693   4.037
51771W        W18202  13.753  33.939   1.665
51772W        W18203  12.207  11.286  11.058
51773W        W18204  32.875  42.600  14.239
51774W        W18205  37.842   4.732  12.967
51775W        W18206  21.042   7.766  14.466
51776W        W18207  31.958  39.396  10.895
51777W        W18208  15.285   2.929   1.216
51778W        W18209  10.103   2.711  14.259
51779W        W18210   2.706  31.457   3.267
51780W        W18211  29.010   5.127  12.611
51781W        W18212  29.979  22.251  12.081
51782W        W18213  32.134  12.211  13.796
51783W        W18214   2.161  43.875   1.506
51784W        W18215   1.339   6.263  12.002
51785W        W18216  21.086  18.998  13.412
51786W        W18217  29.159   0.372   0.968
51787W        W18218   9.428  16.594   1.676
51788W        W18219  39.826   5.893   0.514
51789W        W18220   8.109  12.318   2.858
51790W        W18221  42.983  14.414   3.649
51791W        W18222  35.767  23.216  12.971
51792W        W18223  27.829  13.664   2.155
51793W        W18224  10.836  34.692  13.551
51794W        W18225  34.449  25.749  13.517
51795W        W18226  22.502  12.150  14.661
51796W        W18227  31.165  12.649  12.085
51797W        W18228   4.066  20.152  10.946
51798W        W18229  22.480  14.759  13.103
51799W        W18230  39.556  10.550   0.761
51800W        W18231  41.946  22.766   0.259
51801W        W18232  21.461  41.862   9.806
51802W        W18233  12.325  39.337  12.489
51803W        W18234  23.986  42.381   3.748
51804W        W18235  42.040  26.222   0.459
51805W        W18236  22.281  29.690   2.350
51806W        W18237   7.641  13.616   2.361
51807W        W18238  33.947  13.765  11.430
51808W        W18239  18.259   9.673   1.048
51809W        W18240  39.923  23.210  12.898
51810W        W18241   0.832   3.846  13.863
51811W        W18242  11.391  34.499   4.096
51812W        W18243  40.372  32.644  11.443
51813W        W18244   9.856  32.550   1.772
51814W        W18245  13.378  36.550  14.607
51815W        W18246  30.905  15.198   2.881
51816W        W18247   5.262   7.345   2.218
51817W        W18248  13.387  21.003   3.100
51818W        W18249  29.441  42.226  11.677
51819W        W18250  19.263  15.527   4.640
51820W        W18251   2.010  21.407   1.767
51821W        W18252   0.381  30.905   3.826
51822W        W18253  34.432   8.754   4.534
51823W        W18254  25.564  22.775  10.316
51824W        W18255  10.647  43.914  11.402
51825W        W18256  10.766  39.781  11.470
51826W        W18257  36.994  18.819  12.967
51827W        W18258  11.548  25.964  13.852
51828W        W18259   7.869  36.403   3.592
51829W        W18260  36.847  39.017   1.908
51830W        W18261   9.182  28.556   0.254
51831W        W18262  44.374  34.546  14.733
51832W        W18263  20.653  27.474   1.364
51833W        W18264   1.008  18.231  11.518
51834W        W18265  14.078  40.879   3.598
51835W        W18266  18.439  24.596  14.472
51836W        W18267  39.403  30.242   3.241
51837W        W18268  35.432  40.184  10.521
51838W        W18269   8.927  22.452  11.178
51839W        W18270  43.942  11.142   1.342
51840W        W18271  16.015  42.042  13.517
51841W        W18272   4.724  21.267   0.384
51842W        W18273  17.067  30.894  12.854
51843W        W18274  15.301   7.139  13.029
51844W        W18275   5.126  23.792  11.167
51845W        W18276  19.107   2.813  10.779
51846W        W18277  15.834   0.375  14.289
51847W        W18278  36.574   7.783  10.677
51848W        W18279  17.007  42.021   4.117
51849W        W18280   9.082  20.918   4.969
51850W        W18281  22.591   8.301  10.609
51851W        W18282  11.856  19.373   1.424
51852W        W18283  25.629  27.124  10.559
51853W        W18284  40.391  21.791   3.597
51854W        W18285  14.389   7.370  12.916
51855W        W18286  32.086  36.887   0.650
51856W        W18287  33.320  38.969   0.800
51857W        W18288  17.212  20.681   3.670
51858W        W18289  12.988  36.907   3.714
51859W        W18290  41.464   5.620  14.962
51860W        W18291  27.356  22.378  10.768
51861W        W18292   4.935  40.296   4.285
51862W        W18293  36.233  15.190  11.248
51863W        W18294  13.788   8.529   2.439
51864W        W18295  16.872  40.901   2.750
51865W        W18296   1.858  36.363   0.140
51866W        W18297  22.677  34.661  13.520
51867W        W18298   9.219   0.198  13.286
51868W        W18299  16.715  28.048  12.085
51869W        W18300  13.598  34.114  14.246
51870W        W18301  31.894   6.788  13.574
51871W        W18302  44.565   4.862   1.882
51872W        W18303  26.658  13.764  11.207
51873W        W18304  42.941  26.557  14.967
51874W        W18305   0.646  43.251  12.639
51875W        W18306  20.211  12.659  13.403
51876W        W18307   5.405  28.796   3.659
51877W        W18308  35.187   9.378  12.486
51878W        W18309  10.888  33.161   4.147
51879W        W18310  21.459  36.887   3.260
51880W        W18311  40.991   3.433   2.731
51881W        W18312  12.139  15.609  14.669
51882W        W18313  20.725  16.914   4.146
51883W        W18314   0.771  32.493   0.008
51884W        W18315  33.663  34.524   4.335
51885W        W18316   8.635  42.938   4.540
51886W        W18317   8.393  27.161  14.859
51887W        W18318  23.945  33.021  12.040
51888W        W18319  25.966   3.411  14.758
51889W        W18320  25.031  28.403   0.017
51890W        W18321  13.147  21.952   3.240
51891W        W18322  20.957  24.150  12.592
51892W        W18323   1.152   4.896  13.097
51893W        W18324  28.748  27.678  14.741
51894W        W18325  34.635  39.972  12.039
51895W        W18326  31.358  39.717  11.961
51896W        W18327  27.325   4.033   2.928
51897W        W18328  29.273  10.486  12.082
51898W        W18329  22.987  30.359  13.155
51899W        W18330  41.254  38.307  12.548
51900W        W18331   1.811  32.743  12.814
51901W        W18332  34.931  42.459   4.730
51902W        W18333  17.487  10.597  12.564
51903W        W18334   4.715  43.646  11.630
51904W        W18335   1.699  19.617  12.113
51905W        W18336  13.316  14.894   4.857
51906W        W18337  36.313  32.893  14.997
51907W        W18338  10.374   0.659   3.759
51908W        W18339  23.193  40.617  10.443
51909W        W18340   2.314  13.093  13.908
51910W        W18341  39.449  30.735   1.388
51911W        W18342  44.870  23.243   0.787
51912W        W18343  35.989   6.885  12.588
51913W        W18344  42.751  21.213   3.744
51914W        W18345   7.189  36.804   0.352
51915W        W18346  38.887  19.043  12.489
51916W        W18347   9.001   8.250  11.069
51917W        W18348   7.556  44.601  12.642
51918W        W18349  10.133   3.769  12.794
51919W        W18350  31.510   2.813   4.087
51920W        W18351  25.935  25.038   1.228
51921W        W18352  20.485  31.447  13.908
51922W        W18353  27.183  41.853   1.568
51923W        W18354  26.639   7.501  13.830
51924W        W18355  19.454  25.489   1.921
51925W        W18356  25.906   8.219   3.816
51926W        W18357  26.405  27.562  13.159
51927W        W18358   6.622  14.222  12.359
51928W        W18359  43.093   6.164   0.142
51929W        W18360  32.126  34.830  13.895
51930W        W18361  22.927   0.254   0.923
51931W        W18362  10.061  33.267  12.907
51932W        W18363   0.893  16.789  14.003
51933W        W18364  43.900   5.591   1.956
51934W        W18365  17.674   0.482  13.861
51935W        W18366  12.278   8.004   3.223
51936W        W18367  30.140  25.993  10.437
51937W        W18368   7.802  10.884   2.331
51938W        W18369  15.705  15.313  11.631
51939W        W18370   5.211  33.317   2.838
51940W        W18371   4.823  31.094  13.286
51941W        W18372  33.939  18.902  14.510
51942W        W18373  20.448   8.693   3.144
51943W        W18374  40.050  36.211  13.590
51944W        W18375  42.006   3.152  14.936
51945W        W18376   5.067  31.344  14.109
51946W        W18377  10.449  35.887   4.047
51947W        W18378  33.622   7.761  12.845
51948W        W18379  35.750   0.349   1.139
51949W        W18380  27.246  22.141  13.012
51950W        W18381  34.211  33.844  14.764
51951W        W18382  29.579  12.632   4.747
51952W        W18383  29.043  43.385  13.401
51953W        W18384  28.049  30.604  13.849
51954W        W18385  16.290   8.645   5.024
51955W        W18386  33.385  25.317   3.819
51956W        W18387  39.322   4.798   3.108
51957W        W18388  34.210  10.699   1.222
51958W        W18389  26.268  37.926  12.509
51959W        W18390  38.406  15.134  14.787
51960W        W18391  25.079  32.707  11.075
51961W        W18392  35.112   1.763  11.195
51962W        W18393  36.356  23.450  13.449
51963W        W18394  28.799  25.160   3.016
51964W        W18395  15.868  44.027   3.268
51965W        W18396   3.426   5.376  12.927
51966W        W18397   2.710  34.515  12.922
51967W        W18398  18.039  20.232   2.108
51968W        W18399  32.473   4.968  11.660
51969W        W18400   1.947  17.619   2.892
51970W        W18401  13.312   7.540  11.480
51971W        W18402  35.318  29.652  12.383
51972W        W18403  43.821  11.904  13.988
51973W        W18404  14.954   2.763  14.738
51974W        W18405  18.867   2.463  14.006
51975W        W18406  34.827   7.195   0.563
51976W        W18407  19.802  22.503  11.183
51977W        W18408  39.469  33.182  14.959
51978W        W18409   9.722  25.033  10.522
51979W        W18410  24.089   5.522   1.450
51980W        W18411  28.711   4.303   0.269
51981W        W18412  40.477  13.807   2.461
51982W        W18413  27.692   8.920  13.554
51983W        W18414  42.417  37.341  10.759
51984W        W18415  44.342  29.209   1.401
51985W        W18416  32.354   5.227  13.764
51986W        W18417  27.868  12.338  14.774
51987W        W18418  12.102  20.327   1.381
51988W        W18419  31.533  40.768   1.213
51989W        W18420  27.152   1.364   3.380
51990W        W18421  13.223  43.022  14.465
51991W        W18422  12.452  30.658  11.991
51992W        W18423  13.280   6.630   4.554
51993W        W18424  35.042  11.426   4.274
51994W        W18425  28.276  20.567   0.123
51995W        W18426  38.600  10.645  13.958
51996W        W18427  11.276  38.905  11.593
51997W        W18428  43.558  16.647  13.120
51998W        W18429  38.817  30.470  10.123
51999W        W18430   1.855  44.567   3.026
52000W        W18431   6.272  21.085  14.214
52001W        W18432  44.398  39.615   2.255
52002W        W18433  24.019  36.544   0.472
52003W        W18434  34.563  27.653  14.221
52004W        W18435  25.643  20.990   3.990
52005W        W18436  41.334  16.797   1.262
52006W        W18437  34.980   3.894   0.682
52007W        W18438  40.567   8.981   2.925
52008W        W18439  25.453  10.303   3.634
52009W        W18440  21.984   5.320  12.473
52010W        W18441  33.447   3.012  12.089
52011W        W18442  34.498   0.057   1.410
52012W        W18443  29.925  10.744   3.694
52013W        W18444  35.447  43.041   3.599
52014W        W18445  39.592  35.848   4.135
52015W        W18446  36.549  33.408   3.319
52016W        W18447  27.439  21.513  14.042
52017W        W18448  43.076  25.471   2.216
52018W        W18449  17.085  39.770   1.802
52019W        W18450  36.519   2.700   2.189
52020W        W18451  11.194   7.887  13.079
52021W        W18452  33.446  14.260  13.004
52022W        W18453  17.435  15.369  14.478
52023W        W18454   1.164  31.458   3.193
52024W        W18455  29.457  23.164   0.471
52025W        W18456   3.861  39.264   3.263
52026W        W18457   7.411   3.555  12.504
52027W        W18458  30.024  40.502  13.773
52028W        W18459   5.693  21.190   3.697
52029W        W18460  31.105  10.557  14.848
52030W        W18461  14.177  35.093   1.821
52031W        W18462  37.542  14.715   1.752
52032W        W18463  25.053   2.023   2.982
52033W        W18464  29.474   0.423  11.658
52034W        W18465  15.359  22.215   3.611
52035W        W18466   1.464  35.305   3.806
52036W        W18467   0.618  15.324   2.789
52037W        W18468  43.766  13.898   4.474
52038W        W18469  35.953  34.851   2.693
52039W        W18470  43.545  44.920   4.112
52040W        W18471  42.077  30.368   2.830
52041W        W18472  30.831   8.631  11.130
52042W        W18473   2.290  32.932  10.631
52043W        W18474  21.295  13.057   3.705
52044W        W18475   2.808  37.410   1.618
52045W        W18476  43.826   7.707   1.724
52046W        W18477  44.524  23.662   1.800
52047W        W18478  33.865  19.438   3.206
52048W        W18479  41.008  11.664  13.914
52049W        W18480  40.070  42.425  12.057
52050W        W18481  22.398  22.582  13.783
52051W        W18482  39.520  21.775  13.380
52052W        W18483  17.752  44.754   2.769
52053W        W18484  36.273  26.053   4.731
52054W        W18485  20.584  16.521   3.182
52055W        W18486  44.893   3.437   4.939
52056W        W18487  22.158  30.474  12.083
52057W        W18488  13.171  42.535  13.344
52058W        W18489  15.800  39.746   3.689
52059W        W18490  25.654  11.319   1.271
52060W        W18491   8.468  22.950  11.975
52061W        W18492  14.066  44.002   2.789
52062W        W18493  23.152   6.811   3.185
52063W        W18494  38.311  12.185   0.804
52064W        W18495   4.387  10.204  12.989
52065W        W18496  38.883  29.197   0.424
52066W        W18497  12.217  23.283  11.845
52067W        W18498  37.700  30.466   0.807
52068W        W18499  23.070  32.654  14.415
52069W        W18500  41.498   2.655  11.158
52070W        W18501  30.684   3.129   3.992
52071W        W18502  25.874  31.076   4.187
52072W        W18503  26.002  34.770   3.592
52073W        W18504  39.894   9.818   3.784
52074W        W18505  40.369  41.528  11.131
52075W        W18506   9.172  39.258  11.042
52076W        W18507  13.203  12.749  11.015
52077W        W18508  33.763  29.032   1.292
52078W        W18509  40.744  32.336  11.641
52079W        W18510  27.705  15.566   3.740
52080W        W18511  24.037  12.860   4.602
52081W        W18512  14.176   6.788   1.913
52082W        W18513   8.523  33.439   3.733
52083W        W18514   6.179  13.651  12.922
52084W        W18515  25.955  21.059   2.353
52085W        W18516   5.954  12.179   2.134
52086W        W18517  16.067  28.647   0.351
52087W        W18518  18.694   8.645  12.741
52088W        W18519  10.386  16.692  10.725
52089W        W18520  41.121   3.365  12.021
52090W        W18521  28.039  15.418  12.133
52091W        W18522  10.553  42.598   4.097
52092W        W18523  19.040  40.201   0.119
52093W        W18524  13.566  34.971  14.527
52094W        W18525  21.111  29.483   0.405
52095W        W18526  35.068  17.344  11.084
52096W        W18527   8.417   6.015   1.856
52097W        W18528  20.315   6.661   4.080
52098W        W18529  11.020  30.747   3.502
52099W        W18530  30.071  42.540   4.440
52100W        W18531   2.196   8.899  14.441
52101W        W18532   9.004   3.915  12.038
52102W        W18533   9.334  43.037  12.416
52103W        W18534  39.840   2.790   2.852
52104W        W18535  10.576  15.695   3.176
52105W        W18536  28.686   0.485   4.601
52106W        W18537  19.779  12.983  14.273
52107W        W18538  29.522   8.810  11.169
52108W        W18539  41.574  42.979  12.559
52109W        W18540   7.774  40.260  13.862
52110W        W18541   5.853   9.221  13.405
52111W        W18542  32.864  37.096   4.266
52112W        W18543  33.444  32.381  12.847
52113W        W18544  35.784  29.824   0.504
52114W        W18545  44.713   8.948   0.801
52115W        W18546  34.564   0.421   3.625
52116W        W18547  10.277  13.755  13.776
52117W        W18548  12.863   4.208  14.398
52118W        W18549  10.144  23.112   4.292
52119W        W18550  10.276  32.911   3.714
52120W        W18551  16.587  10.800   3.556
52121W        W18552  16.881  14.575   0.875
52122W        W18553   3.818  21.264  14.511
52123W        W18554  11.046  34.116   4.172
52124W        W18555   9.686  23.659  13.010
52125W        W18556  24.740  33.104  12.981
52126W        W18557  32.116  44.318   0.273
52127W        W18558  35.759  42.287  11.131
52128W        W18559  32.621  38.916  13.253
52129W        W18560   8.333  44.789  10.376
52130W        W18561  37.369  29.919  14.693
52131W        W18562   0.108  30.587   2.418
52132W        W18563   7.453   5.414  11.038
52133W        W18564   9.956  38.096   3.725
52134W        W18565  22.577  35.941  10.960
52135W        W18566  26.141  28.881  11.672
52136W        W18567   0.501  19.757   3.133
52137W        W18568   9.803  44.429   0.012
52138W        W18569  42.522  26.781   1.213
52139W        W18570  15.895   6.441   4.567
52140W        W18571  35.526  40.024  14.415
52141W        W18572   1.043  10.388   1.267
52142W        W18573  32.259  25.630   1.069
52143W        W18574   2.337  34.248  13.696
52144W        W18575  18.535  41.379  14.833
52145W        W18576   6.039   3.224  11.546
52146W        W18577   5.758  11.250   4.457
52147W        W18578  44.997  36.961  11.909
52148W        W18579  11.983  41.555   3.610
52149W        W18580   4.239   5.174   4.647
52150W        W18581  31.855  42.950   3.320
52151W        W18582   7.692  38.741   5.080
52152W        W18583  19.669  34.765   3.079
52153W        W18584   2.391  43.495  12.404
52154W        W18585   7.736  32.693   4.524
52155W        W18586  43.575   4.609   1.939
52156W        W18587  11.105  29.871   3.303
52157W        W18588  40.920  25.250   1.395
52158W        W18589  43.472  10.197   0.153
52159W        W18590  23.306  27.635   3.235
52160W        W18591  32.388  19.408   0.882
52161W        W18592   1.971  21.072  11.193
52162W        W18593  29.208  40.406   3.219
52163W        W18594  14.887   1.114   2.677
52164W        W18595   0.383   2.275  12.377
52165W        W18596  25.258   7.396   4.697
52166W        W18597  27.619  21.273   1.561
52167W        W18598  40.805  13.422   2.358
52168W        W18599  25.531  27.650  10.585
52169W        W18600   1.883  26.098  12.571
52170W        W18601  22.228  33.632  14.785
52171W        W18602  13.668  16.634   4.604
52172W        W18603  28.960   7.351  14.686
52173W        W18604  30.223  33.488  12.568
52174W        W18605  31.487   9.691   0.608
52175W        W18606  21.222  23.212  13.571
52176W        W18607  44.836  41.069  14.619
52177W        W18608  16.273  30.541  10.648
52178W        W18609  44.823  10.432  14.393
52179W        W18610  23.472  22.552   0.976
52180W        W18611  27.648  19.654   4.706
52181W        W18612  33.533  42.905   1.413
52182W        W18613  14.602   1.270   1.687
52183W        W18614   0.816  24.561   2.248
52184W        W18615  28.446  38.618   0.234
52185W        W18616  19.525  20.006   3.974
52186W        W18617  38.942   8.721   4.528
52187W        W18618   8.137   8.736  14.189
52188W        W18619  40.325   1.113   4.686
52189W        W18620  42.924  36.673   1.781
52190W        W18621   5.102  39.632  13.883
52191W        W18622  14.382  39.018  13.109
52192W        W18623  42.687  37.762   9.669
52193W        W18624  39.107  29.096   1.451
52194W        W18625  20.848  28.264  10.207
52195W        W18626  24.039  30.180  14.427
52196W        W18627  32.540  36.623  14.441
52197W        W18628   3.790   0.745   1.714
52198W        W18629  25.901  34.004  11.628
52199W        W18630  25.526  40.512  11.735
52200W        W18631  40.292  27.406   2.848
52201W        W18632  20.968  42.883   4.106
52202W        W18633   3.717  11.166   3.157
52203W        W18634  31.613   2.908  14.541
52204W        W18635  32.597   1.134   0.084
52205W        W18636  26.993  25.166  13.421
52206W        W18637   9.517  42.562   4.146
52207W        W18638  19.685  26.495  11.534
52208W        W18639  40.609  13.127  12.495
52209W        W18640  25.203  26.184  11.608
52210W        W18641  13.926  43.923  14.527
52211W        W18642  32.736  17.863   3.418
52212W        W18643   4.438   5.003  11.108
52213W        W18644   7.629  20.710  13.137
52214W        W18645  24.779   1.416  11.645
52215W        W18646   1.622  17.290  12.131
52216W        W18647  40.368  43.658  13.375
52217W        W18648  42.335  37.950  12.906
52218W        W18649  27.734  11.399  14.280
52219W        W18650  43.001   6.623  14.900
52220W        W18651   2.173  38.488   3.219
52221W        W18652  35.784  36.976  11.139
52222W        W18653  41.500  17.806  12.174
52223W        W18654  32.867  37.760   3.749
52224W        W18655  27.031  21.202  12.639
52225W        W18656  38.374  27.973   1.372
52226W        W18657  34.208  43.494  13.512
52227W        W18658  21.582  35.357   3.232
52228W        W18659   7.417  25.314  12.836
52229W        W18660   9.303   2.836  14.900
52230W        W18661  26.875  10.159  14.315
52231W        W18662   7.337   0.310  10.583
52232W        W18663  12.107  16.641   2.316
52233W        W18664  28.125   6.939  13.338
52234W        W18665   2.170  31.318   0.571
52235W        W18666  40.448   4.213   4.637
52236W        W18667  19.061   8.123   3.656
52237W        W18668  43.534  30.500   4.558
52238W        W18669  17.841  14.205   0.656
52239W        W18670   5.285  22.501  14.771
52240W        W18671  20.812  38.843   1.916
52241W        W18672  11.793  38.866  12.930
52242W        W18673   8.101  28.225  14.826
52243W        W18674  32.107   7.782   1.168
52244W        W18675  26.565  34.558  12.377
52245W        W18676  32.822   3.195   0.785
52246W        W18677   1.927  40.834  10.679
52247W        W18678  29.927  27.560  11.214
52248W        W18679  35.898  10.872  11.351
52249W        W18680  37.840  21.077  12.270
52250W        W18681  18.561   4.819  14.805
52251W        W18682   0.260   8.166  12.894
52252W        W18683  16.236   6.489  11.918
52253W        W18684  11.754  24.617  13.642
52254W        W18685  28.522  41.195   4.975
52255W        W18686  22.050  10.095  12.543
52256W        W18687  37.877  19.148   4.943
52257W        W18688  43.318  18.570   1.848
52258W        W18689  42.775  39.576  11.069
52259W        W18690  23.855  12.229  12.469
52260W        W18691  18.083  12.085   1.371
52261W        W18692  18.149  22.207  14.537
52262W        W18693  41.422  14.159  14.101
52263W        W18694  14.136   6.121   0.868
52264W        W18695   1.662   2.704  11.173
52265W        W18696  14.706   9.538   3.302
52266W        W18697  41.598  10.318   1.475
52267W        W18698   4.608  44.459   2.636
52268W        W18699   6.245   8.727   3.246
52269W        W18700   6.991   1.984  14.482
52270W        W18701  35.677  27.971   2.100
52271W        W18702  15.389  41.426   0.929
52272W        W18703  11.282  22.198  11.220
52273W        W18704  36.909  36.998  10.228
52274W        W18705  21.006  37.180  13.122
52275W        W18706  21.781  35.658   1.287
52276W        W18707  28.539   3.274  12.435
52277W        W18708  20.493  27.108   0.804
52278W        W18709  43.398  43.847   3.249
52279W        W18710  27.412  31.163   4.264
52280W        W18711  11.357  20.551  10.587
52281W        W18712  13.922  29.628  10.637
52282W        W18713  38.923  39.680  14.957
52283W        W18714  39.897  38.275  12.605
52284W        W18715  11.916  33.407   3.350
52285W        W18716  14.712   7.243  14.417
52286W        W18717  39.462  23.273   0.265
52287W        W18718  11.437  14.364  11.671
52288W        W18719  16.023  13.724   3.245
52289W        W18720  28.154  35.534   1.253
52290W        W18721  37.358  33.608   1.842
52291W        W18722  16.160   6.754  10.188
52292W        W18723   5.880  42.532  13.966
52293W        W18724  10.705  12.861   0.366
52294W        W18725  24.159  16.563   3.105
52295W        W18726   7.103  27.512   3.655
52296W        W18727   3.370  17.739   3.272
52297W        W18728   4.204  37.834  10.862
52298W        W18729   0.269  12.639  13.224
52299W        W18730   8.219  21.127  14.343
52300W        W18731  39.891  40.707  13.836
52301W        W18732  16.075  44.921  12.378
52302W        W18733  34.565  25.633   4.447
52303W        W18734  20.718  44.418  13.379
52304W        W18735  40.861  18.017  14.893
52305W        W18736  42.085  13.093  14.337
52306W        W18737  35.040  12.672   2.684
52307W        W18738  39.016  37.458  14.958
52308W        W18739  28.621   1.624   1.322
52309W        W18740  23.501   3.377   1.800
52310W        W18741   5.385  36.558   1.671
52311W        W18742   4.734  33.382   3.026
52312W        W18743  38.640  32.912   2.103
52313W        W18744  28.281  12.858  13.560
52314W        W18745  44.483  26.864   4.546
52315W        W18746  16.678  42.266  12.931
52316W        W18747   0.685  36.488   2.365
52317W        W18748   5.714  13.777   3.749
52318W        W18749  30.121  23.836  13.962
52319W        W18750  33.897  38.021   4.097
52320W        W18751  32.550   7.656   1.797
52321W        W18752  38.596  29.650   4.092
52322W        W18753  44.788  22.099  10.498
52323W        W18754  41.594  32.690   3.274
52324W        W18755  17.733  39.937  10.915
52325W        W18756  31.043  19.748  13.235
52326W        W18757  23.494  36.694   4.526
52327W        W18758  22.668  11.706  12.829
52328W        W18759  41.475  36.627  11.575
52329W        W18760  39.464  23.932   4.024
52330W        W18761  31.019   8.206   2.715
52331W        W18762  44.013  32.257   1.365
52332W        W18763  29.389  25.334  14.878
52333W        W18764  27.731   9.736  13.485
52334W        W18765  29.731  14.736   0.175
52335W        W18766  34.043  29.362  14.456
52336W        W18767  44.858  15.191  12.683
52337W        W18768  33.953  18.191   3.717
52338W        W18769  16.502  27.584   2.689
52339W        W18770  28.050  23.325  10.258
52340W        W18771  29.360  21.027  12.961
52341W        W18772  38.025   7.285  14.285
52342W        W18773  33.244   3.513  11.444
52343W        W18774  24.056  23.646   1.709
52344W        W18775  17.086  25.042   1.645
52345W        W18776  36.557  12.090  13.757
52346W        W18777  19.322  25.749   3.278
52347W        W18778  34.960  11.293  11.546
52348W        W18779   2.013   3.781  13.215
52349W        W18780   3.244  16.935  10.976
52350W        W18781   3.696  24.124   3.786
52351W        W18782  25.653  15.069  10.757
52352W        W18783  17.247  23.580  10.291
52353W        W18784  44.296  10.877   4.487
52354W        W18785  10.863  29.077   0.280
52355W        W18786  19.197  33.168   4.792
52356W        W18787  37.325  13.279   2.825
52357W        W18788  35.701  43.440  13.683
52358W        W18789  26.540   4.798   2.200
52359W        W18790   0.479   4.664  11.621
52360W        W18791  21.716  43.101  14.283
52361W        W18792  17.793  23.968   1.422
52362W        W18793  26.771  42.193  13.357
52363W        W18794  22.534  36.729   5.011
52364W        W18795  32.626   8.793  13.887
52365W        W18796   7.879  16.585  13.345
52366W        W18797  39.762  33.813  13.841
52367W        W18798  31.097  18.070   0.048
52368W        W18799  12.220  13.643  11.517
52369W        W18800  30.133  15.068  14.522
52370W        W18801  34.156  25.797   1.665
52371W        W18802   1.496  25.047   4.520
52372W        W18803  26.194   0.502  11.689
52373W        W18804  43.911  35.830  12.482
52374W        W18805   5.998  29.554  12.320
52375W        W18806  33.975  33.147   4.872
52376W        W18807  16.660   4.137   0.737
52377W        W18808  29.818  33.417  11.613
52378W        W18809  17.121  35.137  14.147
52379W        W18810  30.123  24.008  11.592
52380W        W18811  38.766  22.946  11.461
52381W        W18812   6.247  26.724  12.524
52382W        W18813  15.265  14.167   5.606
52383W        W18814  30.176  12.739  11.478
52384W        W18815  38.731  30.897   1.876
52385W        W18816  31.377  32.843   1.782
52386W        W18817  31.999  19.563  12.576
52387W        W18818   0.374  16.611  13.790
52388W        W18819  23.759  39.056  10.882
52389W        W18820   3.228  23.659   2.332
52390W        W18821  21.903  31.676  14.915
52391W        W18822   9.317  11.388  11.886
52392W        W18823   3.217  19.241   4.144
52393W        W18824  13.226   5.687   4.532
52394W        W18825  31.666  35.411  11.914
52395W        W18826   7.317  22.863  12.618
52396W        W18827  41.913  24.079  14.814
52397W        W18828  10.693  37.531  14.405
52398W        W18829  41.896   8.344  13.936
52399W        W18830   5.054   5.968   1.192
52400W        W18831   8.890  41.608  14.948
52401W        W18832   7.539  44.474   4.601
52402W        W18833  27.500  38.511  12.272
52403W        W18834  42.346   8.329  14.521
52404W        W18835  29.561  10.421   5.278
52405W        W18836  12.186  30.468   1.707
52406W        W18837  29.603  44.607   2.739
52407W        W18838  32.085  38.636  12.539
52408W        W18839  28.647  15.755   0.431
52409W        W18840  12.174  29.455  13.155
52410W        W18841  15.937  22.485   2.395
52411W        W18842  14.888  39.112  13.098
52412W        W18843  24.440   5.125   1.455
52413W        W18844  20.099  32.466   4.007
52414W        W18845  19.617  23.737  12.563
52415W        W18846  28.717  31.941  13.958
52416W        W18847  34.329  25.156   4.338
52417W        W18848  42.862   8.862   0.544
52418W        W18849  34.866   1.514  14.489
52419W        W18850  29.265  34.022   0.799
52420W        W18851  31.881  37.685  14.196
52421W        W18852  36.104  17.622   0.462
52422W        W18853  22.475  16.543  11.811
52423W        W18854  35.340   1.425  13.213
52424W        W18855  43.080  29.993   2.443
52425W        W18856  43.419  22.152  11.149
52426W        W18857  27.441  14.296   3.230
52427W        W18858  32.110  41.587  13.889
52428W        W18859  11.132   4.492  13.511
52429W        W18860  10.828  37.245  13.312
52430W        W18861  11.299  38.967   3.153
52431W        W18862  32.953   1.712   1.300
52432W        W18863  13.328  13.816   4.210
52433W        W18864  12.326  20.116  13.964
52434W        W18865  12.389  44.730   3.658
52435W        W18866  34.022  15.385  14.928
52436W        W18867   7.236  32.877   4.570
52437W        W18868   6.572  33.521   0.210
52438W        W18869  39.427  13.125   2.361
52439W        W18870  12.323  13.402  11.952
52440W        W18871  38.311  40.484   2.214
52441W        W18872  14.837  32.999  13.595
52442W        W18873   2.852   6.674   4.945
52443W        W18874  33.247  12.307   0.819
52444W        W18875   1.296  19.816  12.380
52445W        W18876  12.032  40.263  13.266
52446W        W18877  34.175   5.524  10.723
52447W        W18878  34.515   9.940  10.978
52448W        W18879   2.364  28.832  10.883
52449W        W18880   8.158  27.831   3.450
52450W        W18881  13.193  34.594  13.815
52451W        W18882  16.089  29.231   3.293
52452W        W18883   0.208  42.056  10.685
52453W        W18884   7.774  29.263   5.196
52454W        W18885  15.799  17.866   4.053
52455W        W18886  23.221  27.997  14.786
52456W        W18887  35.413   4.229   0.781
52457W        W18888  13.663  21.238   4.097
52458W        W18889  14.667  43.699   3.915
52459W        W18890  26.651  44.361  10.914
52460W        W18891  17.776  38.069   4.077
52461W        W18892  15.777   5.282  13.093
52462W        W18893  26.943  11.866   3.340
52463W        W18894   7.177  34.884   4.784
52464W        W18895  39.591  41.325  11.628
52465W        W18896  25.668  25.742   3.625
52466W        W18897  37.584  16.583   1.872
52467W        W18898  25.863  42.345   1.843
52468W        W18899  42.632   4.481   1.772
52469W        W18900  29.228   8.263  10.263
52470W        W18901  30.873  26.762   4.892
52471W        W18902  34.093  31.035  14.889
52472W        W18903  29.534  25.508  13.095
52473W        W18904  28.161  30.111  12.912
52474W        W18905  17.642  39.339   0.029
52475W        W18906  29.544  22.525  12.076
52476W        W18907  37.119  27.421  13.436
52477W        W18908  41.566  36.641  14.413
52478W        W18909  15.191   8.898   3.378
52479W        W18910   5.800  38.801  13.899
52480W        W18911  20.113  10.133   3.538
52481W        W18912  43.027  19.588  11.038
52482W        W18913  16.929  13.060   5.329
52483W        W18914  13.051  43.939  10.696
52484W        W18915   8.953  44.877  12.819
52485W        W18916  29.319   3.372  13.449
52486W        W18917  15.861  14.310   1.660
52487W        W18918  21.147  38.416  13.832
52488W        W18919  27.639  40.828  11.677
52489W        W18920  37.985  10.779  10.744
52490W        W18921  12.850  34.943   4.593
52491W        W18922  22.483  28.681   3.681
52492W        W18923   8.344  20.209   2.474
52493W        W18924  41.775  41.212  12.513
52494W        W18925  21.459   5.660   0.797
52495W        W18926  17.633  17.439   3.332
52496W        W18927  44.633  39.461   0.708
52497W        W18928  12.598  21.142   9.933
52498W        W18929  40.025  33.913   0.258
52499W        W18930  27.227  12.114  10.477
52500W        W18931  29.565   2.398  12.450
52501W        W18932   9.750  13.557  11.237
52502W        W18933  23.724  40.565   4.279
52503W        W18934  14.414  23.216   4.027
52504W        W18935  26.585  44.387  13.549
52505W        W18936   4.917  44.985   0.221
52506W        W18937  35.882  35.811   1.515
52507W        W18938   1.087  23.645   0.325
52508W        W18939  23.521   9.903  13.293
52509W        W18940  31.039   4.580   2.295
52510W        W18941  29.497   0.362   1.805
52511W        W18942   2.312  15.511  14.428
52512W        W18943  16.601  27.723   4.136
52513W        W18944  41.322  11.889   4.694
52514W        W18945  40.122  39.059   4.839
52515W        W18946  40.490  11.839  11.131
52516W        W18947   6.637  24.142   2.968
52517W        W18948  17.041  25.709  12.399
52518W        W18949  15.591  26.217  10.411
52519W        W18950   0.378  11.349   4.002
52520W        W18951  22.740  27.201   0.298
52521W        W18952  39.804   5.398   3.235
52522W        W18953  24.417  21.114  13.366
52523W        W18954  36.254  25.953   1.096
52524W        W18955  33.233  21.283   3.374
52525W        W18956  23.233  29.678  14.338
52526W        W18957  41.490  11.334   0.448
52527W        W18958  31.499  42.112   3.613
52528W        W18959  42.452   1.886   4.273
52529W        W18960  11.827  17.261  12.897
52530W        W18961   4.770  39.188   0.092
52531W        W18962   5.294  14.972   1.003
52532W        W18963   0.952  44.246   2.664
52533W        W18964  20.620  39.916  14.937
52534W        W18965   6.936  20.191   0.230
52535W        W18966  30.036  18.289   2.125
52536W        W18967  30.175  38.068  14.417
52537W        W18968   9.771  40.764  13.544
52538W        W18969  13.845  18.013   3.879
52539W        W18970  44.479  22.972   2.971
52540W        W18971  12.542   2.173   3.710
52541W        W18972  19.277  11.347  12.148
52542W        W18973  18.531  36.541   3.573
52543W        W18974  34.921  10.453   2.373
52544W        W18975  12.738  43.000  11.126
52545W        W18976  32.816  36.655  12.951
52546W        W18977  44.304  13.065  14.401
52547W        W18978  31.885  28.629  13.668
52548W        W18979   7.686  20.462   1.625
52549W        W18980  11.299  11.572   3.564
52550W        W18981  44.179  22.965  14.155
52551W        W18982  25.184  12.863  13.332
52552W        W18983   3.451  18.111  14.286
52553W        W18984  10.317  29.937   3.671
52554W        W18985  33.491   1.162   1.651
52555W        W18986  28.219  24.565  10.596
52556W        W18987  27.609  13.334  11.613
52557W        W18988  13.663   1.473  14.793
52558W        W18989  35.513  40.827  13.444
52559W        W18990   3.330  22.054  13.266
52560W        W18991  30.702  17.720   1.241
52561W        W18992  10.253   5.197  11.082
52562W        W18993  34.011  40.289  12.573
52563W        W18994  12.173  12.413  10.884
52564W        W18995  12.262  34.364   3.006
52565W        W18996  43.384  24.179   2.320
52566W        W18997  22.981  35.354   2.743
52567W        W18998   7.905  43.334  12.486
52568W        W18999  22.843   5.404   1.870
52569W        W19000  32.367   0.789   0.438
52570W        W19001   9.326  12.272   4.252
52571W        W19002  22.767  43.403  14.349
52572W        W19003  33.565   2.855   2.358
52573W        W19004  34.384  25.052  10.474
52574W        W19005   5.509  30.714   5.053
52575W        W19006  29.052  29.142   2.271
52576W        W19007   7.420   9.405   1.014
52577W        W19008  26.908  44.432   2.144
52578W        W19009  34.999  27.910   3.995
52579W        W19010  20.720  35.381  12.841
52580W        W19011   5.238  24.738  10.684
52581W        W19012  10.736  22.939  12.502
52582W        W19013   9.484  13.311  13.997
52583W        W19014  21.543  33.116  13.523
52584W        W19015   9.040  40.245  12.908
52585W        W19016  17.500  10.665   2.376
52586W        W19017  15.669  17.986  10.157
52587W        W19018   5.489  37.382  13.974
52588W        W19019  30.545   2.428   1.422
52589W        W19020   0.314  12.605   3.862
52590W        W19021   6.321   3.852  11.264
52591W        W19022  33.486  19.040  10.001
52592W        W19023  38.798  14.124   1.246
52593W        W19024  32.722  40.993  11.711
52594W        W19025  21.943   0.349   2.819
52595W        W19026  30.445  13.999  12.948
52596W        W19027   5.747  39.589   0.041
52597W        W19028  20.632   0.219   0.549
52598W        W19029  12.245  22.043  14.799
52599W        W19030  35.012   4.962  10.903
52600W        W19031  35.000  10.689  10.418
52601W        W19032   0.342  15.331  14.348
52602W        W19033   0.741  13.398  13.543
52603W        W19034  15.431  32.538  13.921
52604W        W19035  26.889  16.821   1.904
52605W        W19036  37.441  32.622   9.609
52606W        W19037  32.060   0.206   4.229
52607W        W19038  24.580  14.571   3.212
52608W        W19039  12.996  22.445   3.183
52609W        W19040  43.862  27.670  10.767
52610W        W19041   9.294  11.545  11.207
52611W        W19042  11.546  20.113   4.994
52612W        W19043  41.552  16.887  12.014
52613W        W19044  39.530   4.737  14.793
52614W        W19045  19.479   4.977   0.553
52615W        W19046  42.813  19.758  13.527
52616W        W19047  24.678  40.045  10.254
52617W        W19048  12.834  42.447   3.763
52618W        W19049  13.218  12.923   2.311
52619W        W19050  23.088  24.218  12.584
52620W        W19051  44.531  43.538   0.394
52621W        W19052  35.080   0.137  14.332
52622W        W19053  25.633   2.291  12.601
52623W        W19054  15.188  30.849  13.440
52624W        W19055  44.210  19.196   2.801
52625W        W19056  31.547  22.109  12.457
52626W        W19057  31.952  40.777  10.713
52627W        W19058  35.194  27.034  12.116
52628W        W19059  40.542  12.680   1.690
52629W        W19060   4.650  42.342   1.638
52630W        W19061  27.768  44.618   3.653
52631W        W19062  21.626  16.830   9.376
52632W        W19063  31.656  20.204   1.759
52633W        W19064  18.972  15.225   3.565
52634W        W19065  21.302   8.682   2.871
52635W        W19066  21.531   8.830   4.477
52636W        W19067   5.501  27.459   2.649
52637W        W19068  30.507  32.280   0.282
52638W        W19069  35.556   9.300   3.290
52639W        W19070  11.809  22.653  11.013
52640W        W19071  10.853  36.262   1.712
52641W        W19072   9.661  44.060   2.717
52642W        W19073  35.349  23.319   3.404
52643W        W19074  34.084  26.076  13.896
52644W        W19075  44.021  22.289  13.332
52645W        W19076  14.427   1.877   2.884
52646W        W19077   4.018  12.586   3.123
52647W        W19078  41.142  11.868  13.442
52648W        W19079   3.194  44.519   5.013
52649W        W19080  32.481  32.361   2.926
52650W        W19081  20.759   7.329   4.577
52651W        W19082  11.842   7.939   3.572
52652W        W19083   6.900  34.052  13.149
52653W        W19084  10.374  31.160   4.654
52654W        W19085  28.916  14.069   0.730
52655W        W19086  22.210  39.456  12.474
52656W        W19087  42.934  33.948  14.135
52657W        W19088  41.301  19.180   3.935
52658W        W19089  43.748  11.668   4.758
52659W        W19090  34.875   8.490   2.104
52660W        W19091   4.857   5.424  12.358
52661W        W19092  21.996  37.972  12.522
52662W        W19093  24.103   3.451   1.888
52663W        W19094   0.423   6.882  12.529
52664W        W19095  28.744   2.930  12.086
52665W        W19096   0.798  18.930  11.223
52666W        W19097  10.229  44.232   9.892
52667W        W19098  21.676   9.451  14.052
52668W        W19099  38.970   5.440   1.780
52669W        W19100  38.970  32.170   4.850
52670W        W19101  36.353  33.343   0.596
52671W        W19102  37.023  23.880   3.489
52672W        W19103  39.375  17.202  10.747
52673W        W19104  39.323   6.259  13.777
52674W        W19105  19.194   2.230  10.475
52675W        W19106   3.746  14.037  10.526
52676W        W19107  11.907   8.179  13.428
52677W        W19108  44.758  12.486   3.785
52678W        W19109   4.741  14.252  11.140
52679W        W19110  38.573  16.005   3.781
52680W        W19111  22.114  19.321  12.048
52681W        W19112  16.333  15.229   3.196
52682W        W19113  12.313  33.781  14.390
52683W        W19114  29.374  41.451   0.760
52684W        W19115  10.024  39.908  14.833
52685W        W19116  37.297  25.150  12.335
52686W        W19117  30.282  18.834   2.748
52687W        W19118  16.382  36.498   3.263
52688W        W19119  15.090   3.649  14.993
52689W        W19120  14.303   8.234   0.812
52690W        W19121  19.797  43.014  11.613
52691W        W19122  14.935  25.475   4.027
52692W        W19123  13.798  38.499  10.822
52693W        W19124  29.952  18.731  12.139
52694W        W19125  12.098  31.494  11.606
52695W        W19126  44.102  30.496   3.687
52696W        W19127  26.526  39.561  10.630
52697W        W19128  41.361   2.823  13.548
52698W        W19129  42.909   2.201  13.853
52699W        W19130  32.706  38.749  12.286
52700W        W19131  15.218  36.422   4.559
52701W        W19132   3.913  19.243   1.282
52702W        W19133   4.495  29.202  11.246
52703W        W19134   5.147  16.633   1.182
52704W        W19135  34.739   7.284  13.145
52705W        W19136  24.011   4.706  11.529
52706W        W19137   2.315   0.924   1.767
52707W        W19138   2.495  25.446  14.407
52708W        W19139   1.775  43.959   0.564
52709W        W19140   0.960   2.413  12.198
52710W        W19141  18.224  22.166   0.953
52711W        W19142  17.521  17.871   0.702
52712W        W19143  21.478  18.678  10.963
52713W        W19144  15.637  32.956   0.464
52714W        W19145  11.593   6.649  14.732
52715W        W19146   8.105   6.283   2.167
52716W        W19147   3.541  44.888  12.376
52717W        W19148  16.292  30.155   0.323
52718W        W19149  43.413  42.553  11.318
52719W        W19150   8.117  39.887  14.902
52720W        W19151   0.910   5.317  12.941
52721W        W19152  35.516  17.073  14.396
52722W        W19153  29.738  27.006   2.432
52723W        W19154  23.262  35.792   1.315
52724W        W19155   2.965   6.025  13.490
52725W        W19156  28.265  17.593  12.575
52726W        W19157   8.946  39.866   1.426
52727W        W19158  41.883  36.159  12.825
52728W        W19159  38.768  37.363   4.381
52729W        W19160  10.284  23.548   1.223
52730W        W19161   2.289  30.543  14.020
52731W        W19162   0.933  37.663  13.662
52732W        W19163   9.754  34.701  12.606
52733W        W19164  42.910  36.330   2.445
52734W        W19165  15.729  17.408  10.827
52735W        W19166   7.631  26.054  11.169
52736W        W19167   7.212  18.200   1.256
52737W        W19168  41.691   5.016  11.189
52738W        W19169  12.546  34.544   0.289
52739W        W19170  43.392   3.527  12.811
52740W        W19171  28.246  28.717   3.779
52741W        W19172  12.391  24.590   1.975
52742W        W19173  12.557  39.417  14.751
52743W        W19174  31.496  21.341  14.336
52744W        W19175   4.163  22.679   2.208
52745W        W19176  27.995  40.003   3.288
52746W        W19177   7.042  10.707  13.393
52747W        W19178  31.129  15.214  14.530
52748W        W19179  43.829  31.976   2.942
52749W        W19180  24.947  42.587   1.298
52750W        W19181   6.803  23.280  14.031
52751W        W19182  30.584  28.164  13.197
52752W        W19183  11.927  22.741   4.587
52753W        W19184  25.102   8.372   4.877
52754W        W19185  35.364  28.070  14.325
52755W        W19186   0.932  22.086   1.225
52756W        W19187  19.291  10.617  11.274
52757W        W19188  21.714   4.567  11.066
52758W        W19189   9.361   5.390  10.738
52759W        W19190  27.565  36.250  13.884
52760W        W19191  28.627  36.117  11.645
52761W        W19192   4.262  41.907  11.967
52762W        W19193  18.825  36.138   3.620
52763W        W19194   5.648  28.388  13.836
52764W        W19195  29.451  22.607  14.195
52765W        W19196  28.669  40.959  14.603
52766W        W19197  40.846  27.500  11.119
52767W        W19198  16.046  30.606   1.685
52768W        W19199   1.894  42.299   4.398
52769W        W19200  38.506   1.687   0.202
52770W        W19201  30.185  36.496  13.938
52771W        W19202  29.524  23.015  11.910
52772W        W19203   3.475   5.164   3.218
52773W        W19204  29.623   9.010   4.281
52774W        W19205  37.846  40.763   5.726
52775W        W19206   2.421   6.212   1.783
52776W        W19207  10.880   9.488  13.526
52777W        W19208  35.020  35.706   0.030
52778W        W19209  33.487   7.797  14.062
52779W        W19210  10.847  27.940   2.535
52780W        W19211  44.212  24.075   1.922
52781W        W19212  16.584  24.227  13.048
52782W        W19213  19.106  31.118   3.827
52783W        W19214  40.268   4.284   0.736
52784W        W19215   3.678  17.299  10.157
52785W        W19216  35.911  14.132  10.950
52786W        W19217  44.910  12.985   0.243
52787W        W19218  20.519  28.568   2.808
52788W        W19219  34.109  21.983   1.279
52789W        W19220  31.336  25.425   1.346
52790W        W19221   7.270  23.099  10.582
52791W        W19222  33.741  41.774  11.208
52792W        W19223  17.097   8.942  12.390
52793W        W19224  15.200  30.911  13.982
52794W        W19225  14.325  16.883  13.104
52795W        W19226  43.732  24.803  13.070
52796W        W19227  34.988  23.302  11.634
52797W        W19228  15.016  20.612  14.443
52798W        W19229  14.822  30.597  13.704
52799W        W19230  39.743  16.860   1.575
52800W        W19231  15.836  40.422  12.456
52801W        W19232  14.610  17.477   3.715
52802W        W19233   6.372  43.529  11.982
52803W        W19234  17.270  13.836  14.850
52804W        W19235   2.219  14.415   1.202
52805W        W19236  12.181  25.237   1.629
52806W        W19237  34.114  32.312  11.217
52807W        W19238   5.077   5.067  13.125
52808W        W19239  20.267   8.700   2.666
52809W        W19240   4.687  33.156   0.291
52810W        W19241  22.332   5.251  11.096
52811W        W19242  26.431  15.803  12.044
52812W        W19243  31.758   4.374   0.323
52813W        W19244  36.497  15.727   3.538
52814W        W19245  19.064  32.560   2.875
52815W        W19246  40.743  15.888   1.911
52816W        W19247  40.788  17.673   3.657
52817W        W19248  41.217  43.038  11.580
52818W        W19249   6.355  22.419   2.276
52819W        W19250   2.676  20.143   2.166
52820W        W19251  39.139  18.188  14.897
52821W        W19252   1.465  12.158  12.491
52822W        W19253  13.365   1.056  14.644
52823W        W19254  24.146  40.198  10.300
52824W        W19255  41.243  44.418   1.187
52825W        W19256  23.748  43.005   1.798
52826W        W19257   6.718  18.287   0.301
52827W        W19258  33.842  34.476  14.824
52828W        W19259  18.360  44.430  13.399
52829W        W19260  23.827  36.320  14.612
52830W        W19261  15.245  16.705  14.918
52831W        W19262  21.113  19.047   2.274
52832W        W19263   3.896  32.642  14.769
52833W        W19264  23.688  31.819   5.474
52834W        W19265  32.328  28.179   0.161
52835W        W19266  20.108  14.489   3.064
52836W        W19267  10.289  43.474   4.573
52837W        W19268   8.133  41.917  13.308
52838W        W19269  19.821  13.285  13.113
52839W        W19270  44.809  41.005  12.512
52840W        W19271  35.652  33.512   3.256
52841W        W19272  28.855   2.734   3.382
52842W        W19273  18.252  40.799  11.050
52843W        W19274   4.251  25.079   0.442
52844W        W19275  44.784  28.995   4.597
52845W        W19276   2.473  22.625  14.420
52846W        W19277  26.623  10.123   4.562
52847W        W19278   2.033  44.837  13.562
52848W        W19279   6.340  21.149   0.296
52849W        W19280  27.011   8.158  13.377
52850W        W19281  23.433   0.994  14.797
52851W        W19282   9.769  33.779   3.595
52852W        W19283   3.842   3.618  13.493
52853W        W19284  17.275  17.841   4.086
52854W        W19285  44.787  21.273   2.694
52855W        W19286  14.955  44.245  10.717
52856W        W19287  16.302  13.155  11.346
52857W        W19288  11.547  33.864   3.310
52858W        W19289  28.173  14.158  10.482
52859W        W19290   0.804  12.841   1.265
52860W        W19291   0.690   2.244   0.376
52861W        W19292  10.216  25.229  14.503
52862W        W19293   6.440  39.624   3.548
52863W        W19294   4.998  10.830  14.321
52864W        W19295  22.159   9.547   4.210
52865W        W19296  20.499  44.575  12.508
52866W        W19297   2.677  38.645  13.643
52867W        W19298   6.906   7.780   2.113
52868W        W19299  19.500  31.178  12.519
52869W        W19300  10.188   2.425  12.262
52870W        W19301  35.541  10.650   3.829
52871W        W19302   5.968   8.136  13.451
52872W        W19303  17.014  10.790   2.664
52873W        W19304  34.067  20.170   2.914
52874W        W19305  40.820  12.289  13.544
52875W        W19306  23.146   5.182   4.327
52876W        W19307   3.976   9.706  12.451
52877W        W19308  20.621  15.647   0.594
52878W        W19309  17.561  13.785   1.351
52879W        W19310   3.191   4.733   0.782
52880W        W19311   6.750  15.325  10.703
52881W        W19312  42.533  17.272   0.331
52882W        W19313   1.885  24.699  13.412
52883W        W19314  23.657  23.042   4.169
52884W        W19315   5.245  14.194  10.242
52885W        W19316   3.519  30.308  11.976
52886W        W19317  26.603  14.517  14.501
52887W        W19318   7.053   5.794  11.786
52888W        W19319  37.228  28.906   2.644
52889W        W19320  18.816  37.409   2.521
52890W        W19321  29.874   3.874  12.528
52891W        W19322   8.067  34.089   1.225
52892W        W19323  27.641  20.320   2.685
52893W        W19324  35.526  26.047   4.131
52894W        W19325  11.216  28.100  12.662
52895W        W19326   4.556  39.596  13.965
52896W        W19327  24.603  14.917   1.783
52897W        W19328   1.377  37.434   5.237
52898W        W19329  10.639  18.019   1.831
52899W        W19330  23.707  13.307   4.316
52900W        W19331  31.504  43.887   3.349
52901W        W19332  42.954  23.663  12.998
52902W        W19333   4.359  19.838   4.679
52903W        W19334  28.342  18.718   0.251
52904W        W19335  28.437  38.375  14.243
52905W        W19336   8.524  34.436   4.784
52906W        W19337  26.792  34.179  12.028
52907W        W19338  35.467  43.894  11.612
52908W        W19339   9.820  10.566   0.822
52909W        W19340  33.971   6.551  14.876
52910W        W19341  22.334  22.514  11.855
52911W        W19342   6.008  40.122  13.547
52912W        W19343  25.471   4.123  13.001
52913W        W19344  12.561  35.356  10.607
52914W        W19345  43.099  29.604   3.748
52915W        W19346  41.267   3.897  14.360
52916W        W19347  28.332  33.192  12.601
52917W        W19348  13.141  15.016  11.058
52918W        W19349  36.335  44.809  12.069
52919W        W19350   7.129  11.299   1.886
52920W        W19351  20.219   9.719  13.644
52921W        W19352   5.046  38.129   0.958
52922W        W19353   5.276  32.834   2.715
52923W        W19354  12.667  30.135   0.860
52924W        W19355   5.192  39.483   4.344
52925W        W19356  13.539  40.488  10.741
52926W        W19357  34.182   4.248  13.496
52927W        W19358  15.643  40.067   1.763
52928W        W19359  32.864   0.771   0.391
52929W        W19360  34.610  44.994  14.519
52930W        W19361  38.016   6.243   0.358
52931W        W19362  30.662  33.060   4.293
52932W        W19363  17.109  11.002  13.921
52933W        W19364   9.132  23.577   3.664
52934W        W19365  29.489  43.294   0.302
52935W        W19366  11.777   1.902  13.966
52936W        W19367  38.494   4.757   1.186
52937W        W19368   0.337  20.983  11.587
52938W        W19369  34.821  29.224  11.219
52939W        W19370  15.747  25.124  13.920
52940W        W19371  37.610   7.596  14.322
52941W        W19372   2.366  24.522  14.307
52942W        W19373  21.522  27.236  11.928
52943W        W19374  44.598  25.062   4.083
52944W        W19375  35.529  43.281   0.102
52945W        W19376  28.361  42.273  11.607
52946W        W19377  39.576  22.724  11.685
52947W        W19378  20.102  35.130   3.274
52948W        W19379  12.436  39.232   0.643
52949W        W19380  26.979  30.989  13.877
52950W        W19381  12.202  37.746   2.825
52951W        W19382   7.569  18.559   0.123
52952W        W19383  38.298  35.085  13.387
52953W        W19384  19.171   6.217  10.732
52954W        W19385  18.315   1.933  13.567
52955W        W19386  10.431  31.004  14.001
52956W        W19387  22.457  25.634  13.485
52957W        W19388   5.700   2.767  13.525
52958W        W19389  19.667   8.323   2.260
52959W        W19390  13.708   2.968   2.096
52960W        W19391  10.399  44.806   3.613
52961W        W19392  19.032  29.819  12.071
52962W        W19393   6.004  33.461  11.477
52963W        W19394   6.272  20.581   3.239
52964W        W19395  15.307   8.148  11.951
52965W        W19396   8.003  24.266   0.025
52966W        W19397  28.388   5.396   3.591
52967W        W19398  38.979   9.343  11.560
52968W        W19399  33.598  41.009  12.980
52969W        W19400   4.888  12.123  11.892
52970W        W19401   0.493  42.303   3.109
52971W        W19402  12.683   5.267  11.462
52972W        W19403  21.700   1.378  10.531
52973W        W19404   7.964  17.331  11.748
52974W        W19405   2.818  13.800  14.476
52975W        W19406  18.830  43.884  10.672
52976W        W19407  31.317  44.387   0.909
52977W        W19408  22.720  29.498   0.249
52978W        W19409  27.470   7.704  10.320
52979W        W19410   6.546  11.348  11.988
52980W        W19411  16.039  17.730  13.233
52981W        W19412   9.466  29.093   3.601
52982W        W19413   0.343  16.651   4.557
52983W        W19414  41.492  26.108  12.139
52984W        W19415   4.591   3.076   3.786
52985W        W19416  35.515  15.480   4.671
52986W        W19417  22.704  36.794   2.809
52987W        W19418  28.518  25.934  14.494
52988W        W19419   5.582   9.793   4.479
52989W        W19420  20.208  13.879  10.751
52990W        W19421  39.842  24.150   1.172
52991W        W19422   1.968  43.029  13.135
52992W        W19423  19.969   6.276   1.260
52993W        W19424  42.665   0.539   0.079
52994W        W19425  35.432  43.335   4.305
52995W        W19426  23.944  34.069  12.660
52996W        W19427  38.569  44.791   3.254
52997W        W19428  11.288   1.886   4.260
52998W        W19429  28.946  24.048   0.751
52999W        W19430   4.066  16.967  12.970
53000W        W19431  35.980   8.910  12.377
53001W        W19432  28.982  34.586  14.532
53002W        W19433  39.472  43.271  12.923
53003W        W19434  37.010  18.826  13.473
53004W        W19435   1.446  44.911   0.037
53005W        W19436   1.942   5.213  11.528
53006W        W19437  39.277  30.793   4.048
53007W        W19438  13.081  21.763  12.561
53008W        W19439  13.858  33.316  11.572
53009W        W19440  30.942  12.354   4.732
53010W        W19441  43.039  12.624   4.123
53011W        W19442  27.550   5.701   2.312
53012W        W19443  15.305  32.968  10.715
53013W        W19444  28.487  16.317  12.515
53014W        W19445  12.669  25.367  10.617
53015W        W19446  10.301  22.067  12.176
53016W        W19447  40.944   1.228  12.959
53017W        W19448  16.825  39.022  13.466
53018W        W19449   6.832  32.510  11.610
53019W        W19450  20.135  38.598  11.999
53020W        W19451  31.705  40.012   0.876
53021W        W19452  25.933   5.254   4.860
53022W        W19453  44.556  43.469  14.065
53023W        W19454  24.658  13.592  11.326
53024W        W19455  14.572  31.501  11.658
53025W        W19456  37.855  28.059   2.882
53026W        W19457  12.151   4.785  10.630
53027W        W19458  31.099  43.519  13.118
53028W        W19459  19.578  13.614   2.703
53029W        W19460  15.822   0.506  10.636
53030W        W19461   4.864  22.834   1.680
53031W        W19462  14.271  18.245   3.694
53032W        W19463  12.566  38.369   0.786
53033W        W19464  38.922  16.186   2.114
53034W        W19465  19.999  13.285   4.229
53035W        W19466  30.102   1.773  10.743
53036W        W19467  21.182  12.311   2.136
53037W        W19468  24.203  32.155   3.303
53038W        W19469  43.922  30.579   1.364
53039W        W19470  38.057   1.770   0.526
53040W        W19471  37.661  39.116   3.543
53041W        W19472  14.810  30.438  11.662
53042W        W19473  13.325   4.914  11.648
53043W        W19474   0.257   3.859  13.051
53044W        W19475  14.662  16.081   4.754
53045W        W19476  17.394  28.444   2.903
53046W        W19477  17.057  30.323  13.888
53047W        W19478  42.877  37.882  13.605
53048W        W19479  38.293   6.646  12.562
53049W        W19480  36.001   9.667  13.076
53050W        W19481   4.158  30.660  13.080
53051W        W19482  38.785   8.183   2.239
53052W        W19483  12.625  20.734  11.098
53053W        W19484  29.412  22.267   0.531
53054W        W19485  17.778   8.770   1.206
53055W        W19486  19.563   2.555  10.671
53056W        W19487  34.462   5.977   4.308
53057W        W19488  39.207   9.382   0.464
53058W        W19489  22.976  25.355   5.065
53059W        W19490  15.846  42.322   0.833
53060W        W19491  18.081  21.225   1.843
53061W        W19492  34.637  11.185   1.947
53062W        W19493  36.526  11.657   3.691
53063W        W19494  18.276  33.006  13.863
53064W        W19495  36.867   4.673   2.161
53065W        W19496  23.987  32.453   2.295
53066W        W19497  41.393  10.406   0.997
53067W        W19498   7.924  19.789  14.074
53068W        W19499   4.207  31.621   4.623
53069W        W19500   9.133  15.299  14.330
53070W        W19501  41.979  34.485   4.161
53071W        W19502  32.250  21.894   1.385
53072W        W19503  20.622  21.336   3.783
53073W        W19504  13.385  21.800   0.976
53074W        W19505   3.343  25.684   1.761
53075W        W19506  38.989  32.515   3.138
53076W        W19507  37.243  36.780  12.472
53077W        W19508  35.719  10.713   1.160
53078W        W19509  22.282  40.509  14.736
53079W        W19510  19.635   2.344   3.787
53080W        W19511  27.788  13.503   4.418
53081W        W19512  26.737  26.975   0.928
53082W        W19513   1.891   0.129   0.243
53083W        W19514  12.665   0.029  13.998
53084W        W19515  29.734  31.867  12.522
53085W        W19516   9.243  41.999  13.947
53086W        W19517  40.555  29.127   2.546
53087W        W19518  18.300  13.277   0.373
53088W        W19519  21.223  42.439   4.140
53089W        W19520   4.420  22.757  12.468
53090W        W19521  39.746  41.960  13.030
53091W        W19522  38.963   9.796   0.273
53092W        W19523   0.052   3.510   1.646
53093W        W19524  12.692  42.874   1.334
53094W        W19525  20.441   5.134   2.039
53095W        W19526   2.566   2.311  14.424
53096W        W19527  27.895  17.325   2.665
53097W        W19528  17.647  44.752  13.547
53098W        W19529  33.066  42.247  10.637
53099W        W19530  19.606  43.415   3.064
53100W        W19531  26.629  20.187   1.756
53101W        W19532  21.773  16.110   1.258
53102W        W19533  25.970  15.047   0.757
53103W        W19534  37.032  22.792  12.944
53104W        W19535   5.879  19.063  14.995
53105W        W19536  27.409  30.619   0.077
53106W        W19537   1.630  21.029   0.927
53107W        W19538  17.702  40.065   2.278
53108W        W19539   2.958   3.106  13.489
53109W        W19540   3.321   2.929   3.396
53110W        W19541  20.782   4.709  12.485
53111W        W19542  39.146  10.264   5.092
53112W        W19543  26.472  10.911  11.624
53113W        W19544   1.517  12.070   0.230
53114W        W19545  23.004   4.206  14.730
53115W        W19546   8.912   2.545  11.896
53116W        W19547   2.339  13.543  12.503
53117W        W19548  36.760  29.570   0.996
53118W        W19549   5.306  37.317  11.385
53119W        W19550  30.689   3.422  13.282
53120W        W19551  14.540  11.191  11.126
53121W        W19552  20.511  29.352  12.926
53122W        W19553  14.219  18.693   4.582
53123W        W19554  34.998  41.563  14.470
53124W        W19555   1.409   9.710   3.625
53125W        W19556   5.006   0.299   2.754
53126W        W19557  29.088  10.293   3.574
53127W        W19558  44.387  28.995   2.641
53128W        W19559   6.428  38.877   3.255
53129W        W19560   2.328  19.242  13.986
53130W        W19561  43.162  32.140  10.363
53131W        W19562  17.018  13.074  14.590
53132W        W19563  16.069  41.841   3.385
53133W        W19564  15.124  13.832   0.442
53134W        W19565  38.255  43.935   3.225
53135W        W19566  43.361  35.574  10.634
53136W        W19567  31.692  28.996  14.518
53137W        W19568  26.093   6.436  14.998
53138W        W19569  14.494  33.397  14.812
53139W        W19570  29.454  14.603   1.727
53140W        W19571  13.689  38.743  13.579
53141W        W19572  37.650  19.480  14.224
53142W        W19573  35.566   5.245   4.514
53143W        W19574  20.512  34.449   1.758
53144W        W19575   9.549   9.868  13.007
53145W        W19576  41.924  25.910  12.430
53146W        W19577  18.843  39.064  10.660
53147W        W19578  42.800  38.798   2.274
53148W        W19579  39.553  10.244  11.663
53149W        W19580  25.504  36.116   4.153
53150W        W19581  11.766  39.453  13.867
53151W        W19582  33.512  20.780   2.656
53152W        W19583  41.386  11.596   1.951
53153W        W19584  26.387  37.271  13.766
53154W        W19585  23.448  17.156   3.688
53155W        W19586   4.240   1.521   1.698
53156W        W19587  20.986  18.078   1.766
53157W        W19588  33.265  38.468   4.088
53158W        W19589   9.602  36.031   3.219
53159W        W19590  25.735  39.011   4.228
53160W        W19591  33.822  34.219   2.536
53161W        W19592  32.454   2.410   1.922
53162W        W19593  41.965  22.164   4.737
53163W        W19594  11.867  11.804   4.579
53164W        W19595  43.994  22.927   0.878
53165W        W19596  17.954  24.798   9.820
53166W        W19597  37.877   7.038  10.696
53167W        W19598  41.558  21.493  11.578
53168W        W19599  10.287   5.141   3.197
53169W        W19600  16.550  44.041  12.179
53170W        W19601   3.727   5.457  14.520
53171W        W19602  20.080  10.612   0.288
53172W        W19603  40.321  14.737  11.005
53173W        W19604  37.254  38.015   2.729
53174W        W19605  40.394  20.241  12.709
53175W        W19606  20.300  31.493  10.466
53176W        W19607  36.864  37.353  10.608
53177W        W19608  27.480   2.422   1.837
53178W        W19609   0.043  12.677   3.402
53179W        W19610   8.263  38.925   0.369
53180W        W19611  18.299  34.340  12.460
53181W        W19612   5.740  39.874  11.605
53182W        W19613   3.484   2.839   1.764
53183W        W19614  19.525  11.388   3.221
53184W        W19615  37.595  30.792  12.612
53185W        W19616  41.442   5.794  14.464
53186W        W19617   2.917  31.066  14.407
53187W        W19618   5.426  20.124  11.176
53188W        W19619  10.231  35.890   0.667
53189W        W19620   0.456   5.756   4.675
53190W        W19621   6.383  12.004  10.086
53191W        W19622  11.629  18.604  12.617
53192W        W19623  40.956  24.533   4.306
53193W        W19624  22.900  28.100  13.222
53194W        W19625   7.199  20.368  11.680
53195W        W19626  17.078  28.768   3.228
53196W        W19627  36.295  28.003   0.164
53197W        W19628  11.187  21.228   1.603
53198W        W19629  28.080   0.024   3.787
53199W        W19630  35.009  16.511  11.878
53200W        W19631  15.555   1.823  10.740
53201W        W19632  41.953   8.757  12.051
53202W        W19633  40.306  18.626   1.188
53203W        W19634  13.731   8.282  11.050
53204W        W19635   1.005  33.427   3.839
53205W        W19636  33.920  41.455  11.592
53206W        W19637  40.723  18.558  14.025
53207W        W19638  44.974  20.519   1.922
53208W        W19639  25.762  42.521  10.299
53209W        W19640  38.621  33.394   0.370
53210W        W19641   9.673  36.981  11.681
53211W        W19642  12.677  41.653   4.920
53212W        W19643  18.534  42.906   4.076
53213W        W19644  34.898   2.245  12.971
53214W        W19645  38.684  20.689  10.546
53215W        W19646  27.570  33.083  13.856
53216W        W19647  21.215  13.314  13.576
53217W        W19648  14.573  13.697   0.495
53218W        W19649  12.649  44.887   4.069
53219W        W19650  30.443  39.256  14.279
53220W        W19651  12.671  38.022   0.396
53221W        W19652  11.744  14.765  10.500
53222W        W19653  29.492  33.304   1.726
53223W        W19654  14.736  35.930   3.518
53224W        W19655  25.529  35.609   4.077
53225W        W19656  29.155  42.247   1.427
53226W        W19657  30.858  33.544   0.243
53227W        W19658  31.367  43.924   0.407
53228W        W19659  15.014  25.535   1.165
53229W        W19660  36.492  37.948  14.789
53230W        W19661  10.272  18.031   1.223
53231W        W19662  15.678  12.012  14.299
53232W        W19663  30.432  33.816   0.349
53233W        W19664  18.305  39.238  12.965
53234W        W19665  11.955  38.085   2.504
53235W        W19666  30.561  24.451  10.833
53236W        W19667  13.475  27.246   4.567
53237W        W19668  21.137  18.554  11.688
53238W        W19669  32.132   1.948   3.553
53239W        W19670   8.744  31.007  11.088
53240W        W19671  27.401  32.396   0.398
53241W        W19672  15.104  21.592   1.419
53242W        W19673  11.668  38.200   0.917
53243W        W19674   6.306   8.464   2.348
53244W        W19675  20.225   1.463   0.045
53245W        W19676  27.816  13.975  12.148
53246W        W19677  27.484   8.771  14.941
53247W        W19678  21.699   9.055   0.383
53248W        W19679   3.164  10.484   2.379
53249W        W19680  32.385   9.200  12.174
53250W        W19681  42.767  41.779   1.048
53251W        W19682  22.434  32.008   0.959
53252W        W19683  22.241  13.667   2.921
53253W        W19684  37.533  22.207   4.056
53254W        W19685  22.774   6.167   0.743
53255W        W19686   9.577  31.623   0.940
53256W        W19687  37.330   4.825   2.376
53257W        W19688  21.935   4.442  12.558
53258W        W19689  22.647  38.090  11.212
53259W        W19690   2.853  21.034   4.344
53260W        W19691  16.970  33.667  12.967
53261W        W19692  14.204  33.375   3.807
53262W        W19693  22.512  43.313  13.879
53263W        W19694  21.172   9.206   4.224
53264W        W19695  19.113  41.001   1.189
53265W        W19696  28.133  20.737   3.424
53266W        W19697  27.190   6.866  12.688
53267W        W19698  44.198  40.647   0.687
53268W        W19699  24.818  33.652   3.641
53269W        W19700   3.912  25.977  12.175
53270W        W19701  22.467  17.691   3.299
53271W        W19702   1.102   3.634   4.222
53272W        W19703  28.176  37.964  11.766
53273W        W19704  19.621   3.485   2.338
53274W        W19705  37.078  22.122   0.592
53275W        W19706  21.676  42.020  14.567
53276W        W19707  30.038  24.026   0.957
53277W        W19708  23.511  43.277  10.608
53278W        W19709   0.017  31.650   0.350
53279W        W19710   0.269  13.772   0.669
53280W        W19711   5.895  37.717  14.006
53281W        W19712  20.194   2.707  10.895
53282W        W19713  38.041  31.673   2.498
53283W        W19714  10.666  24.108   0.909
53284W        W19715  20.064   0.389  12.666
53285W        W19716   3.923  21.220  11.471
53286W        W19717  30.456  16.282   1.268
53287W        W19718  33.975   6.274  13.951
53288W        W19719  31.644   3.432  10.735
53289W        W19720  13.919  34.822  14.879
53290W        W19721  26.395   9.838  12.204
53291W        W19722  36.790  35.291  12.410
53292W        W19723   6.897  30.361  11.182
53293W        W19724  21.092   5.351  11.886
53294W        W19725  41.449  23.318  13.653
53295W        W19726  38.975  35.326  12.927
53296W        W19727   5.720  19.330   0.412
53297W        W19728  10.333  33.012  14.875
53298W        W19729  14.620  18.302   3.218
53299W        W19730   9.776  38.886  11.797
53300W        W19731  37.113  36.093  14.549
53301W        W19732  24.291   2.757   5.032
53302W        W19733   7.814  17.501   1.803
53303W        W19734  15.011  33.618  13.994
53304W        W19735  41.519  29.229   2.339
53305W        W19736  43.956  22.522  11.679
53306W        W19737   0.398  36.502   4.236
53307W        W19738  16.596  29.515   1.637
53308W        W19739   7.493   2.742   0.340
53309W        W19740  21.063  20.080  12.721
53310W        W19741  28.636  11.594   2.730
53311W        W19742  36.546   2.859  13.433
53312W        W19743   4.256  42.892  11.710
53313W        W19744  28.439  34.396  12.064
53314W        W19745  29.111   1.739  12.007
53315W        W19746  44.904  32.393  14.916
53316W        W19747  43.034   2.778   1.343
53317W        W19748  25.541  21.446   3.832
53318W        W19749  16.152  37.057   2.357
53319W        W19750  39.028  39.718  12.090
53320W        W19751  22.662  31.557   0.838
53321W        W19752  26.614  12.668   1.439
53322W        W19753   5.901   6.911   1.186
53323W        W19754  43.527  25.651   1.917
53324W        W19755   3.752   8.669  13.300
53325W        W19756  24.042  10.240  13.241
53326W        W19757  10.483  30.570  11.102
53327W        W19758  24.607  22.092  11.158
53328W        W19759  18.770  21.440   3.216
53329W        W19760  30.645  15.636  13.808
53330W        W19761  32.959  10.205  11.988
53331W        W19762  17.701  28.344   4.882
53332W        W19763  19.044   6.148   2.059
53333W        W19764   6.337  24.504   0.064
53334W        W19765   6.446   7.135  10.728
53335W        W19766  26.019  40.920   1.877
53336W        W19767  20.344   2.194   3.758
53337W        W19768  11.350   1.327   1.400
53338W        W19769  38.447  31.307  12.933
53339W        W19770  14.281  37.087   4.174
53340W        W19771  15.076  18.370   4.446
53341W        W19772  30.723  26.993   0.690
53342W        W19773  42.668  16.793   0.458
53343W        W19774   2.659  11.205  11.065
53344W        W19775   8.442  12.344  11.265
53345W        W19776  22.633  19.222   3.727
53346W        W19777  11.621   6.778  12.467
53347W        W19778   2.948  15.271  12.422
53348W        W19779  28.071  27.291   0.391
53349W        W19780  13.230  21.771   1.474
53350W        W19781   2.034  22.567  14.708
53351W        W19782  26.959  18.205   1.956
53352W        W19783   3.351  25.000   0.982
53353W        W19784  18.497  17.837   4.712
53354W        W19785  25.933  44.774  14.360
53355W        W19786  36.909   1.921   1.731
53356W        W19787  20.122  36.622  12.152
53357W        W19788  14.403  36.599   5.007
53358W        W19789  38.438  16.767  13.315
53359W        W19790  40.576   5.738  10.904
53360W        W19791  10.597   2.243  12.529
53361W        W19792  38.383  34.029   1.694
53362W        W19793  36.834  26.019   0.202
53363W        W19794  13.631  18.523  12.762
53364W        W19795   4.213  11.321  10.895
53365W        W19796  14.251  41.310   4.108
53366W        W19797   1.763  44.756  10.750
53367W        W19798   0.063  10.156  14.791
53368W        W19799  24.121  16.752  12.133
53369W        W19800  40.443   1.757  14.047
53370W        W19801   6.339  33.724   2.880
53371W        W19802  42.112  35.759   2.145
53372W        W19803  30.503  17.007   4.890
53373W        W19804  38.613  20.270  11.285
53374W        W19805  30.444   3.937  11.697
53375W        W19806  14.382  13.757  12.190
53376W        W19807   5.883  42.414  14.484
53377W        W19808   5.370   4.584  12.089
53378W        W19809  10.916  26.619   0.755
53379W        W19810   5.300  40.111  12.844
53380W        W19811  19.491  12.888  12.993
53381W        W19812  35.804   4.066   2.766
53382W        W19813  14.941  41.741   5.188
53383W        W19814  40.323  17.120   3.149
53384W        W19815  34.839  18.144  12.537
53385W        W19816   6.740   9.174  14.842
53386W        W19817  29.255  43.552  11.497
53387W        W19818  15.715  12.656  13.343
53388W        W19819  33.478  11.751   2.728
53389W        W19820  37.333  27.667   3.622
53390W        W19821  35.897  44.729   3.789
53391W        W19822  13.227  20.255   1.869
53392W        W19823  16.807   5.418   4.073
53393W        W19824  28.967  26.641  12.088
53394W        W19825  13.126  25.147   2.177
53395W        W19826   6.848   5.660   2.214
53396W        W19827  11.733  27.634   0.228
53397W        W19828  36.086  30.586  11.674
53398W        W19829  34.055  15.197  14.450
53399W        W19830  43.606  29.543   3.835
53400W        W19831  28.657  29.930  12.903
53401W        W19832  14.244  41.374   3.603
53402W        W19833  20.965  26.667   0.385
53403W        W19834  10.894  44.301   3.630
53404W        W19835  32.506  27.710   3.155
53405W        W19836  22.627  27.381   3.221
53406W        W19837  19.835   9.694   2.813
53407W        W19838  13.698  23.227  14.937
53408W        W19839   7.060   2.547   4.596
53409W        W19840  22.240  40.169   1.359
53410W        W19841  25.665   3.774   3.632
53411W        W19842  15.660  21.100   1.781
53412W        W19843   3.010  10.733   4.296
53413W        W19844  19.954  17.819   3.197
53414W        W19845  26.010   7.987  14.718
53415W        W19846  20.815  20.310   3.781
53416W        W19847  39.388  36.705  14.358
53417W        W19848  10.131  35.567  13.555
53418W        W19849  43.547  16.582   1.723
53419W        W19850  31.216  29.982  12.905
53420W        W19851  29.466  33.218  11.041
53421W        W19852  27.845  30.524  10.624
53422W        W19853   7.370  41.492   2.494
53423W        W19854  14.338   6.796   0.893
53424W        W19855   0.904  32.842   4.771
53425W        W19856  16.268  37.471   3.378
53426W        W19857  44.620  23.230  12.990
53427W        W19858  27.527  13.257   2.309
53428W        W19859  37.798   2.769  12.051
53429W        W19860  41.784  20.791  12.905
53430W        W19861  26.499  32.353   4.665
53431W        W19862  43.134   4.984   3.293
53432W        W19863   4.783  31.903   0.619
53433W        W19864  19.302  37.943  12.088
53434W        W19865  14.351  29.053   2.107
53435W        W19866  14.097  20.742  12.081
53436W        W19867   9.222  26.985  14.231
53437W        W19868  38.510  20.986  14.850
53438W        W19869   2.822  28.926   0.384
53439W        W19870  39.298  41.037  14.383
53440W        W19871   4.947  14.270   4.607
53441W        W19872  20.249  41.673   0.266
53442W        W19873  42.813  16.881   2.856
53443W        W19874   0.399  18.769  12.477
53444W        W19875  12.762  12.208   0.309
53445W        W19876  37.712  12.836   4.238
53446W        W19877  19.007  23.251  14.275
53447W        W19878   0.764   7.754   0.283
53448W        W19879  10.394  24.555   0.949
53449W        W19880  43.513  43.877   1.265
53450W        W19881  18.763   8.772   5.122
53451W        W19882  34.388   4.982  11.581
53452W        W19883   0.446   0.355   3.253
53453W        W19884  26.367  14.168  13.560
53454W        W19885  19.333  39.189   4.126
53455W        W19886  19.058   2.468   2.637
53456W        W19887  21.647  10.377  10.398
53457W        W19888  12.346   1.515  10.878
53458W        W19889   0.210  38.389  11.379
53459W        W19890  19.691  36.056   3.635
53460W        W19891   3.952  44.746  10.733
53461W        W19892   5.366  34.238  13.018
53462W        W19893  23.680  27.959   2.276
53463W        W19894  32.394   1.822   1.206
53464W        W19895  32.999  34.605  12.084
53465W        W19896  29.189  24.498   0.769
53466W        W19897   6.265  16.906  13.447
53467W        W19898   9.509  14.712   4.311
53468W        W19899  33.894   0.488  10.498
53469W        W19900  37.817  34.637  14.714
53470W        W19901  32.963  14.420   3.309
53471W        W19902  14.902   8.616  11.564
53472W        W19903  22.043  31.248   3.298
53473W        W19904  22.144  33.501   4.570
53474W        W19905  13.830  37.501  11.616
53475W        W19906  41.358  40.124  11.971
53476W        W19907  29.430   9.755   2.817
53477W        W19908  18.538  14.678  12.200
53478W        W19909  11.811  30.428  13.607
53479W        W19910   3.291  22.935  14.520
53480W        W19911   5.320  40.429   1.429
53481W        W19912  22.688  15.041   4.457
53482W        W19913  17.571   7.494  13.345
53483W        W19914  30.097  30.479   3.180
53484W        W19915   7.459  42.813   2.826
53485W        W19916  23.217  17.794   2.330
53486W        W19917  20.429  40.508  13.902
53487W        W19918  32.265  12.895   3.765
53488W        W19919   9.772  40.828  11.204
53489W        W19920  29.367  44.302  10.743
53490W        W19921  12.340  10.856  12.131
53491W        W19922  34.440   1.411  11.394
53492W        W19923   8.268  22.409   2.657
53493W        W19924  23.441  18.088  10.739
53494W        W19925  17.257  13.557  11.631
53495W        W19926   3.056  28.947   3.991
53496W        W19927  40.568   4.419   1.612
53497W        W19928  25.703  24.110   2.548
53498W        W19929   8.565  24.881   2.184
53499W        W19930  19.230   0.978   4.933
53500W        W19931  28.707  17.736  12.399
53501W        W19932  24.654   6.396  12.531
53502W        W19933  43.540  12.751   4.184
53503W        W19934   1.711   8.660   4.596
53504W        W19935  14.176  15.603   3.184
53505W        W19936  44.709   8.696   2.247
53506W        W19937   6.012  37.562  12.635
53507W        W19938  10.848  24.475   1.297
53508W        W19939  12.117  29.913  14.952
53509W        W19940  20.206  27.676  11.910
53510W        W19941  30.781  17.270  10.582
53511W        W19942  24.842  24.987  14.765
53512W        W19943  36.720  36.027  12.074
53513W        W19944  29.139  18.003   2.627
53514W        W19945  22.953  26.726   0.317
53515W        W19946   3.456   3.226   0.529
53516W        W19947  22.878  10.854   3.063
53517W        W19948  24.484  41.896   3.167
53518W        W19949   5.726  10.209  12.087
53519W        W19950  15.129  14.789  10.205
53520W        W19951   8.602  22.204  14.114
53521W        W19952  14.970  40.533  11.059
53522W        W19953  33.491  37.500  10.997
53523W        W19954  38.068   9.557  11.223
53524W        W19955  39.424   3.507   3.160
53525W        W19956   5.779  44.790  13.803
53526W        W19957   5.340  10.599   3.211
53527W        W19958  21.278  19.960   1.481
53528W        W19959   1.382  35.876  12.567
53529W        W19960  29.913   1.366  11.020
53530W        W19961  23.560  19.114   2.597
53531W        W19962  23.943  11.101  14.033
53532W        W19963  14.156  10.088  12.617
53533W        W19964  38.997   1.826  11.626
53534W        W19965  30.229  35.596  13.640
53535W        W19966  20.281  32.317   1.360
53536W        W19967  14.631  26.320  11.672
53537W        W19968   4.291  33.885  14.470
53538W        W19969  11.143   7.741   0.962
53539W        W19970  38.791  35.613   4.626
53540W        W19971  37.901  39.528   2.318
53541W        W19972  12.931  40.416  13.068
53542W        W19973  10.880  17.733   1.103
53543W        W19974  25.785  25.467  11.177
53544W        W19975  38.433  22.942  12.056
53545W        W19976  12.234  19.168   4.145
53546W        W19977  13.737   9.871   3.010
53547W        W19978  20.720   5.913  11.411
53548W        W19979  18.360   3.366   5.630
53549W        W19980  25.118  37.518  10.382
53550W        W19981  36.689  44.955   2.390
53551W        W19982  32.413   9.913  12.482
53552W        W19983  37.764   6.321   3.757
53553W        W19984   5.339   3.949  11.557
53554W        W19985  20.060  37.356  11.008
53555W        W19986  40.396   6.901   1.737
53556W        W19987  30.525  38.072   0.159
53557W        W19988  34.029  22.475   0.363
53558W        W19989  30.637  24.993   4.582
53559W        W19990  17.233  37.839   2.062
53560W        W19991  26.211  25.253  12.917
53561W        W19992  36.628  15.083   1.748
53562W        W19993  16.469  11.090   0.951
53563W        W19994  11.076   6.593   2.035
53564W        W19995  14.603  17.226  12.179
53565W        W19996  19.368  11.580   1.714
53566W        W19997  10.936  13.144  12.200
53567W        W19998  25.229  36.492   0.750
53568W        W19999  41.417   5.681  13.942
53569W        W20000  12.866  24.248  13.382
53570W        W20001  23.925  31.177  10.335
53571W        W20002  37.343   4.498   1.960
53572W        W20003   7.295  21.229   4.893
53573W        W20004  23.116  32.105  10.708
53574W        W20005  42.203  36.294   1.937
53575W        W20006  19.061   5.256  14.104
53576W        W20007  20.048  26.084   4.711
53577W        W20008  25.598  38.654  14.403
53578W        W20009  39.274  17.693  14.121
53579W        W20010   5.017   2.192  11.160
53580W        W20011  30.676  13.275   4.182
53581W        W20012   2.518  16.290  10.703
53582W        W20013  27.468  32.531   1.875
53583W        W20014  30.199  14.941   1.744
53584W        W20015  12.419  23.203   3.186
53585W        W20016  18.589  42.682  12.051
53586W        W20017  44.703  35.096  13.619
53587W        W20018  35.570  11.794   1.309
53588W        W20019  24.029  31.067   2.730
53589W        W20020   3.951  38.441   2.376
53590W        W20021   7.855  24.956   0.425
53591W        W20022  21.236  32.303   3.288
53592W        W20023  15.776  11.639   1.720
53593W        W20024  10.922  30.730   0.672
53594W        W20025   1.269  39.321  13.528
53595W        W20026  39.286  10.541   0.275
53596W        W20027  37.725  38.477   0.547
53597W        W20028  42.547   1.840  11.284
53598W        W20029   9.929  30.855   4.458
53599W        W20030  16.657  39.340   1.189
53600W        W20031   9.631  22.149   1.499
53601W        W20032  38.024  24.440   0.768
53602W        W20033  32.120   8.838  13.874
53603W        W20034  24.425  40.373  10.690
53604W        W20035  15.685  38.051  11.105
53605W        W20036  30.621   4.998   5.690
53606W        W20037  17.657  29.074  10.415
53607W        W20038  19.014   0.995  11.504
53608W        W20039  41.073  35.043  14.880
53609W        W20040  41.731  22.756  14.422
53610W        W20041  33.880  26.726   1.725
53611W        W20042  25.145   2.456   4.893
53612W        W20043   4.692   8.381   1.401
53613W        W20044  20.723   6.461   4.342
53614W        W20045   3.411  44.163   1.473
53615W        W20046  42.059  39.102  10.721
53616W        W20047  14.508  30.654   0.369
53617W        W20048   1.828  35.354   4.175
53618W        W20049  32.085  19.879   4.948
53619W        W20050  38.820  25.220   4.625
53620W        W20051   2.854   7.296  13.959
53621W        W20052  17.819  24.061  13.201
53622W        W20053  25.151  34.636  11.958
53623W        W20054  35.959  22.196   4.643
53624W        W20055  10.772   8.620   0.269
53625W        W20056  31.027   6.180   3.282
53626W        W20057  32.481   9.254   2.335
53627W        W20058  40.536  10.181   1.408
53628W        W20059   3.945  36.987   3.024
53629W        W20060  20.241  17.608   3.606
53630W        W20061   0.716  13.338   3.656
53631W        W20062  32.511   8.146   3.199
53632W        W20063  40.547  12.114  14.789
53633W        W20064  40.623   5.684   2.332
53634W        W20065  34.947   8.871   0.805
53635W        W20066   8.460  41.878   0.077
53636W        W20067   0.976  38.956  13.335
53637W        W20068  39.437  13.598  10.611
53638W        W20069  38.781  34.583  12.039
53639W        W20070  37.746   2.264  12.079
53640W        W20071  36.884  43.685  14.929
53641W        W20072   1.455  31.128   4.679
53642W        W20073  17.841  35.961   4.699
53643W        W20074  34.835  23.498   3.986
53644W        W20075   6.297  41.257  11.306
53645W        W20076  39.474   6.139  14.862
53646W        W20077  37.650  16.244   3.738
53647W        W20078  41.993  40.828   1.674
53648W        W20079  32.637   9.424  14.714
53649W        W20080   5.249  37.365   3.222
53650W        W20081  24.993  23.515   0.920
53651W        W20082  44.399   4.385   0.477
53652W        W20083  12.604  16.142  11.971
53653W        W20084  15.484  22.442  14.814
53654W        W20085  27.507  21.221  13.561
53655W        W20086  10.480  16.766  12.436
53656W        W20087  17.738  34.646   2.160
53657W        W20088  43.840   9.294   4.856
53658W        W20089  13.492  21.490  12.420
53659W        W20090  29.091  24.310  13.513
53660W        W20091  42.245   2.016   2.844
53661W        W20092  44.986   3.284   2.987
53662W        W20093  13.126  26.616   1.381
53663W        W20094  19.733  18.585   2.674
53664W        W20095  27.675   3.452  11.108
53665W        W20096  36.381  36.710   4.159
53666W        W20097   5.102  12.779  12.680
53667W        W20098   8.910   7.784   4.164
53668W        W20099  33.922  42.971  11.650
53669W        W20100  37.377   3.671  10.660
53670W        W20101  28.425   8.783   2.444
53671W        W20102   9.731  44.760   1.475
53672W        W20103  27.421  41.749   4.240
53673W        W20104  27.305  17.929   2.250
53674W        W20105  40.320  26.301  14.281
53675W        W20106  28.385   4.833   1.329
53676W        W20107  30.442  10.656   2.806
53677W        W20108  19.811   8.400  14.291
53678W        W20109  18.101  29.067  12.079
53679W        W20110  27.930  11.572   3.339
53680W        W20111   1.680  13.814   1.639
53681W        W20112  43.940  29.726   3.009
53682W        W20113  38.035  21.059   3.939
53683W        W20114   2.905  24.735   0.927
53684W        W20115  38.382  23.048  10.648
53685W        W20116  19.064  35.962  10.558
53686W        W20117   9.379  12.291   0.561
53687W        W20118   5.562  17.220  12.071
53688W        W20119  37.148  10.625   2.916
53689W        W20120  41.520  37.811  13.825
53690W        W20121  14.837  30.631   0.804
53691W        W20122  26.445  24.518   2.721
53692W        W20123  40.367  18.143  12.827
53693W        W20124  15.822   9.105  13.398
53694W        W20125  34.792  21.179   0.277
53695W        W20126   8.560   1.884   4.544
53696W        W20127  15.123  37.966   1.236
53697W        W20128   6.613  44.944  11.115
53698W        W20129   8.699   4.392   4.849
53699W        W20130  36.852   2.744   1.224
53700W        W20131  35.546   2.389  10.796
53701W        W20132   2.500  27.673  12.070
53702W        W20133  38.605  37.474   0.290
53703W        W20134   4.628  34.365   3.515
53704W        W20135  35.333   1.454  12.671
53705W        W20136  19.742  20.258  12.105
53706W        W20137  36.459  31.406   1.509
53707W        W20138  42.755  23.858   1.742
53708W        W20139   9.309  44.425   2.813
53709W        W20140  32.408  18.742  12.351
53710W        W20141  44.720  15.617  13.526
53711W        W20142  17.036  16.256   0.291
53712W        W20143  33.307   4.088  11.118
53713W        W20144  22.782  27.047  10.687
53714W        W20145  16.464  17.782  13.978
53715W        W20146  10.570   8.339   2.803
53716W        W20147   2.291  42.321   4.793
53717W        W20148  23.908  35.393   3.538
53718W        W20149  35.382  20.451  14.770
53719W        W20150  20.808  12.062   1.790
53720W        W20151  44.866  23.270   2.717
53721W        W20152  23.744  26.369  14.258
53722W        W20153  15.531  40.750   4.101
53723W        W20154  34.882  18.270  11.693
53724W        W20155  24.004   4.934   2.203
53725W        W20156  29.232  44.951   2.893
53726W        W20157  41.450   8.422   1.031
53727W        W20158   7.656  13.827  12.953
53728W        W20159  30.415  29.041   0.870
53729W        W20160  31.050  23.064  12.398
53730W        W20161  32.533   2.937  12.515
53731W        W20162  33.830  28.386  12.110
53732W        W20163  41.569  44.445   4.054
53733W        W20164  34.734  42.314  14.028
53734W        W20165   6.365   3.808  14.841
53735W        W20166  15.201  24.534   3.646
53736W        W20167  11.337  26.406   0.499
53737W        W20168   6.714  31.971   0.658
53738W        W20169  26.601  36.607  12.740
53739W        W20170  17.486  41.449   4.077
53740W        W20171   2.735  17.114   1.830
53741W        W20172  39.893  20.776  11.188
53742W        W20173  43.973  33.627   2.354
53743W        W20174  40.133  25.543  14.417
53744W        W20175  31.863  15.313   0.258
53745W        W20176  24.988  19.060   2.185
53746W        W20177  30.989   2.502   2.351
53747W        W20178  14.380  24.974   2.789
53748W        W20179  19.155  31.653  11.231
53749W        W20180   6.406  40.963  11.698
53750W        W20181  23.098  24.474   2.168
53751W        W20182  10.665   2.438  12.055
53752W        W20183  18.648  32.662  12.140
53753W        W20184  36.101  21.727  14.864
53754W        W20185  15.289  27.808  11.119
53755W        W20186   3.872  36.682   2.631
53756W        W20187  30.873  20.202  14.391
53757W        W20188  22.166   4.018  11.581
53758W        W20189  25.238   1.865  14.881
53759W        W20190   9.629   5.340   2.211
53760W        W20191   6.346   4.481   4.133
53761W        W20192  21.492   6.879   1.878
53762W        W20193  22.954   5.237  12.499
53763W        W20194   4.822   3.570   1.066
53764W        W20195   7.187  16.861  10.770
53765W        W20196   9.129  16.055   0.986
53766W        W20197  39.099  31.467   0.679
53767W        W20198  15.521  38.296   1.364
53768W        W20199  26.115  37.113   2.754
53769W        W20200  13.833   6.622  12.916
53770W        W20201   0.168  36.526   2.494
53771W        W20202   9.135  23.254   2.793
53772W        W20203  24.987  11.872  14.018
53773W        W20204  38.528  41.942   1.263
53774W        W20205   8.348  32.389   0.489
53775W        W20206  16.726  18.720  13.166
53776W        W20207  42.158  43.190  11.047
53777W        W20208  42.270   3.902  14.290
53778W        W20209  30.369   4.382   0.078
53779W        W20210  32.311  13.114  12.933
53780W        W20211   0.935  30.926   4.767
53781W        W20212  34.850  26.234  14.317
53782W        W20213  42.765  44.528  11.157
53783W        W20214   5.953  22.941   1.846
53784W        W20215   3.142  42.363  13.492
53785W        W20216  27.518  19.908  11.567
53786W        W20217  35.563  22.075  12.986
53787W        W20218   2.949  33.973  14.727
53788W        W20219  32.156  28.989   2.910
53789W        W20220   3.273   5.406  13.868
53790W        W20221  17.785  37.763   2.819
53791W        W20222  38.375  36.423  11.695
53792W        W20223  21.822  37.931   5.418
53793W        W20224   7.180  29.826  14.653
53794W        W20225  37.837  16.173  10.828
53795W        W20226  14.097  40.243   4.026
53796W        W20227   2.439  10.276  11.162
53797W        W20228  11.323  23.720  13.810
53798W        W20229   6.879   6.846  14.454
53799W        W20230  44.973  30.504  14.586
53800W        W20231  21.104  41.017  13.619
53801W        W20232  11.481   6.545   1.030
53802W        W20233  16.798  19.481  12.662
53803W        W20234  31.903  17.209  14.398
53804W        W20235  35.458  35.890  14.840
53805W        W20236  21.335   3.906   3.190
53806W        W20237   3.690   2.779  12.013
53807W        W20238  34.069   4.430   0.410
53808W        W20239  29.338  29.907  14.152
53809W        W20240  40.571   3.305   0.997
53810W        W20241  27.450  32.125   2.618
53811W        W20242  44.185  11.044  14.506
53812W        W20243  27.567  19.208  14.177
53813W        W20244  34.194  42.410   3.246
53814W        W20245  17.013  11.657   4.985
53815W        W20246  41.758  14.138   0.864
53816W        W20247  29.998  29.489   0.262
53817W        W20248   5.460  38.152  10.672
53818W        W20249  15.662  24.003  13.069
53819W        W20250  44.786   0.725  13.928
53820W        W20251   6.811  37.876   0.785
53821W        W20252  23.962  11.159   3.231
53822W        W20253  33.966  43.242   3.614
53823W        W20254  23.678   1.347   0.110
53824W        W20255  10.097  14.582  13.850
53825W        W20256   6.684  26.644   2.784
53826W        W20257   5.519  44.390   4.530
53827W        W20258   7.674  35.440  12.606
53828W        W20259  19.036  22.408  14.998
53829W        W20260   4.695   4.043  13.605
53830W        W20261  34.963  24.938  12.070
53831W        W20262  13.242  29.460  10.027
53832W        W20263  41.604  16.332  12.571
53833W        W20264  44.680  19.807  14.004
53834W        W20265  37.831  26.591   1.353
53835W        W20266  37.805   1.293  13.554
53836W        W20267  35.420  41.973   9.990
53837W        W20268   8.042   8.727   9.985
53838W        W20269  30.108  44.977  13.829
53839W        W20270  27.941  42.378   4.302
53840W        W20271  26.117   0.399   0.158
53841W        W20272  31.521   0.938  13.379
53842W        W20273  30.131   7.580   1.791
53843W        W20274  31.156  10.719   3.381
53844W        W20275  26.712  40.367   1.672
53845W        W20276  34.568  34.046  11.644
53846W        W20277  32.779  20.926   1.718
53847W        W20278  42.304  32.455   3.817
53848W        W20279  24.938  39.059   3.551
53849W        W20280  15.597  42.928   1.485
53850W        W20281  40.861  21.468   2.795
53851W        W20282   7.323  12.823  13.289
53852W        W20283   0.426  28.133   3.635
53853W        W20284  26.415  41.530  10.819
53854W        W20285  30.958  10.096  13.915
53855W        W20286  35.405  38.685  12.114
53856W        W20287  39.783  37.540  14.289
53857W        W20288  32.130  35.572  11.817
53858W        W20289  20.332  13.743  10.283
53859W        W20290  32.410  19.617  10.881
53860W        W20291  38.530  36.431  10.913
53861W        W20292  27.383  16.727   1.784
53862W        W20293  16.370  33.043   2.688
53863W        W20294  43.511   5.446  11.608
53864W        W20295  13.282   8.791   4.176
53865W        W20296   7.852  35.539   4.595
53866W        W20297  12.617  31.283   1.578
53867W        W20298  20.813  14.365  12.035
53868W        W20299   4.698  39.175   3.567
53869W        W20300   8.019  37.488  11.659
53870W        W20301   8.758  12.328  12.403
53871W        W20302   3.411   6.222  13.400
53872W        W20303  14.664  19.482   0.780
53873W        W20304  38.576  33.846  11.534
53874W        W20305   2.657  21.021   1.072
53875W        W20306  21.690  15.133   1.636
53876W        W20307  12.296  40.885  12.602
53877W        W20308  40.391   1.982  12.283
53878W        W20309  24.143  14.293  14.794
53879W        W20310  31.474  31.489  11.220
53880W        W20311   0.247  10.387  10.147
53881W        W20312  26.472  26.069  13.380
53882W        W20313  30.129  26.556  12.936
53883W        W20314  32.618  32.210   1.260
53884W        W20315  28.680  17.731   2.677
53885W        W20316  37.423  12.768   4.666
53886W        W20317   9.393   5.915  10.882
53887W        W20318   5.243  19.507  12.549
53888W        W20319  10.838  11.790   0.314
53889W        W20320  24.167  13.135   4.157
53890W        W20321  35.936   5.713   0.353
53891W        W20322  15.496  17.829   3.229
53892W        W20323  17.326  13.140   3.252
53893W        W20324  12.748  20.708  13.919
53894W        W20325   3.841   4.883   0.305
53895W        W20326  17.929  37.068  11.501
53896W        W20327  11.724  33.471  13.719
53897W        W20328   5.994  23.685  13.473
53898W        W20329  16.787  41.465   4.591
53899W        W20330  43.314  31.583   2.391
53900W        W20331   3.279  33.818  11.527
53901W        W20332  24.060  25.765   0.405
53902W        W20333   0.156  42.519  11.493
53903W        W20334  27.689   3.227  14.346
53904W        W20335  32.509  21.755   0.370
53905W        W20336  26.893  39.928   0.933
53906W        W20337  43.279  21.086  12.187
53907W        W20338   8.555   2.233  14.012
53908W        W20339  40.360  37.550   4.606
53909W        W20340   5.453  29.570  13.858
53910W        W20341  12.930  16.694  10.773
53911W        W20342  40.583  26.723  14.443
53912W        W20343   3.343  21.149   4.096
53913W        W20344   9.638  18.616  13.807
53914W        W20345  41.053   7.358   0.248
53915W        W20346  15.854   0.156   2.652
53916W        W20347  11.202  27.961  14.358
53917W        W20348  17.652  24.518  14.958
53918W        W20349  32.597  19.586   1.538
53919W        W20350  15.313   3.349  12.671
53920W        W20351  30.948   9.028   3.981
53921W        W20352  39.844   9.727   4.694
53922W        W20353   9.875  12.377   3.798
53923W        W20354  20.688  31.541  14.781
53924W        W20355  32.820  40.833   2.633
53925W        W20356  13.728  17.776   0.165
53926W        W20357  14.965  14.310  10.170
53927W        W20358  38.891  22.185   1.384
53928W        W20359  34.769  10.767   0.346
53929W        W20360   7.791  14.933   3.647
53930W        W20361  21.240  19.056   0.893
53931W        W20362  11.104  18.092   2.619
53932W        W20363  42.697  19.889  14.592
53933W        W20364   9.923  15.868  11.971
53934W        W20365   3.959  33.565   4.901
53935W        W20366  19.208   9.989   9.854
53936W        W20367  19.715  37.821   3.197
53937W        W20368  32.095   3.470  13.800
53938W        W20369  33.433  33.833   2.691
53939W        W20370  37.983  34.983  11.053
53940W        W20371  38.775   2.021   3.277
53941W        W20372  11.056  41.997  12.462
53942W        W20373  39.687  29.692   0.821
53943W        W20374  24.187  22.664  13.747
53944W        W20375  38.495  36.665   1.359
53945W        W20376  29.144  15.079   2.652
53946W        W20377   5.214  22.182  11.082
53947W        W20378   1.223  25.799  14.720
53948W        W20379  26.677  31.991   3.763
53949W        W20380  25.572  40.475  11.189
53950W        W20381  34.387  31.880  11.507
53951W        W20382   9.895  43.823   2.316
53952W        W20383  22.313   6.253   2.857
53953W        W20384  10.305  32.355  12.523
53954W        W20385   6.828  44.156  13.109
53955W        W20386  33.040  15.644  11.211
53956W        W20387  39.514  16.521   3.559
53957W        W20388  25.217   6.149   1.687
53958W        W20389   8.325   1.209   3.619
53959W        W20390  36.040   3.374   2.005
53960W        W20391  25.770  21.879   0.933
53961W        W20392  11.870  31.941  11.936
53962W        W20393  37.053  10.277  12.126
53963W        W20394  31.995  43.496   1.710
53964W        W20395  44.235  43.497   5.225
53965W        W20396   4.396  17.151   4.148
53966W        W20397  10.189  33.545   2.669
53967W        W20398  23.775  29.663   4.533
53968W        W20399  27.455  27.000  11.303
53969W        W20400  25.230  17.296   4.654
53970W        W20401  12.302  43.239  12.006
53971W        W20402   4.292  12.814   3.867
53972W        W20403  33.262  29.639  13.437
53973W        W20404  31.461  40.887  11.664
53974W        W20405  31.930  31.957  14.918
53975W        W20406  37.323  29.450  13.296
53976W        W20407  15.533  43.297  14.288
53977W        W20408  36.869  28.828   1.580
53978W        W20409  30.734  39.034  13.272
53979W        W20410   4.964   2.227  14.986
53980W        W20411   3.606  37.468   4.667
53981W        W20412  21.994  33.590  13.446
53982W        W20413  17.638   7.875   0.262
53983W        W20414  44.017  22.144   1.536
53984W        W20415  20.289  34.653   1.335
53985W        W20416  35.213  16.619   4.121
53986W        W20417  40.858  13.971  11.621
53987W        W20418  43.279  38.864   3.665
53988W        W20419   0.030  25.246   2.675
53989W        W20420  29.238   6.193   9.769
53990W        W20421  20.491  18.340   4.605
53991W        W20422   7.626   1.966  13.767
53992W        W20423  17.057   1.802   2.098
53993W        W20424  32.578  20.708   2.746
53994W        W20425   7.189  12.856   3.181
53995W        W20426  38.473  40.468   5.033
53996W        W20427  12.075  41.221  13.416
53997W        W20428   1.315  35.992   0.900
53998W        W20429  40.107  30.629   0.750
53999W        W20430  32.883   9.346  11.020
54000W        W20431  39.735  30.983  14.992
54001W        W20432   1.459  10.659  12.316
54002W        W20433  38.859  39.170  13.946
54003W        W20434  13.290   7.749  14.869
54004W        W20435   6.802  25.072   3.346
54005W        W20436  29.065  21.571   4.521
54006W        W20437  30.416  32.997   1.591
54007W        W20438  16.260  28.170  14.458
54008W        W20439   1.905   6.267  12.088
54009W        W20440  16.634   6.015   3.447
54010W        W20441  19.506   2.168  14.298
54011W        W20442  42.290  18.989  10.773
54012W        W20443  35.161  20.257  12.602
54013W        W20444  15.196   7.646   2.654
54014W        W20445   6.783   1.041   1.742
54015W        W20446  15.425  28.145   0.987
54016W        W20447   0.875  13.326   2.724
54017W        W20448  32.573  11.597   4.253
54018W        W20449  34.280  41.309  10.585
54019W        W20450  21.922  16.618   2.249
54020W        W20451  14.186   2.409  14.975
54021W        W20452  21.068  35.937  12.075
54022W        W20453  20.732   1.733  14.801
54023W        W20454  21.016  15.279  12.620
54024W        W20455  42.215  11.885   0.405
54025W        W20456   6.403  15.089   3.550
54026W        W20457  35.566   4.941   2.689
54027W        W20458  33.844  24.029  14.629
54028W        W20459  29.416  27.950   4.301
54029W        W20460  12.866  13.092  11.191
54030W        W20461   1.688  37.592   3.129
54031W        W20462   4.969  26.126  14.269
54032W        W20463  20.546  43.537  11.129
54033W        W20464  29.383  15.516   2.779
54034W        W20465  39.496  38.070   2.821
54035W        W20466  16.238  21.092   2.233
54036W        W20467  10.747   8.677   0.808
54037W        W20468   8.307  40.155   0.916
54038W        W20469  41.284  38.754  13.954
54039W        W20470   5.759  10.851  12.838
54040W        W20471  10.201  39.596  12.487
54041W        W20472   4.347  28.860  13.223
54042W        W20473  23.462  19.772   0.499
54043W        W20474  40.878  41.767   3.386
54044W        W20475  19.659  16.932   2.120
54045W        W20476  11.991  27.450  12.016
54046W        W20477  40.320   7.219  13.399
54047W        W20478  13.798   9.573  11.465
54048W        W20479   3.407  12.229  14.010
54049W        W20480  24.286  44.507  14.461
54050W        W20481  23.752  17.539  11.121
54051W        W20482  21.237  17.325   3.276
54052W        W20483  26.623  38.001   4.957
54053W        W20484   8.644  20.029  11.086
54054W        W20485  22.013  20.897   3.541
54055W        W20486  44.958  18.705   4.771
54056W        W20487   4.863   0.927   1.217
54057W        W20488   4.486  37.388  11.122
54058W        W20489   3.000   5.197  12.718
54059W        W20490   3.907  32.752  11.116
54060W        W20491   7.487   8.000  11.842
54061W        W20492  14.862  11.782   1.246
54062W        W20493  35.356  42.311   5.017
54063W        W20494  12.379   1.397  11.376
54064W        W20495  22.965  44.486  14.900
54065W        W20496   2.179  37.042   3.704
54066W        W20497  14.313  43.405   4.437
54067W        W20498  10.617   3.753  13.007
54068W        W20499  36.887   5.299  10.707
54069W        W20500  33.100  18.096  11.064
54070W        W20501  36.186  33.002   2.416
54071W        W20502  36.300  25.022   1.719
54072W        W20503  29.375  32.934   0.756
54073W        W20504  17.544  30.668  12.638
54074W        W20505  30.566   4.591  10.648
54075W        W20506  17.639  36.655  14.988
54076W        W20507  20.667   2.981  11.914
54077W        W20508  44.212  29.087  13.814
54078W        W20509  35.785  31.998   4.398
54079W        W20510   7.256  25.583   3.897
54080W        W20511  24.902  21.490   0.794
54081W        W20512  39.718  24.496  11.226
54082W        W20513   9.339  42.757  11.536
54083W        W20514  21.680   5.657  14.488
54084W        W20515  31.121   4.874   3.854
54085W        W20516  22.981  20.992  11.090
54086W        W20517   8.519  37.885   0.989
54087W        W20518  26.731   4.631  11.899
54088W        W20519   4.863  35.884   2.454
54089W        W20520  30.852   4.744  10.254
54090W        W20521  27.501  28.681   1.688
54091W        W20522  18.621  11.328  13.266
54092W        W20523  44.439  18.428   4.060
54093W        W20524  44.852  20.194   3.645
54094W        W20525  13.657  26.650  12.035
54095W        W20526  19.666   8.846  11.415
54096W        W20527   2.747  24.825   2.653
54097W        W20528  16.012  35.527  13.203
54098W        W20529   3.461  15.485   1.870
54099W        W20530  31.213   1.144  14.060
54100W        W20531  16.770  43.324   2.748
54101W        W20532  21.623   2.874  13.113
54102W        W20533  33.093  11.256  14.834
54103W        W20534  11.560  35.804  13.141
54104W        W20535  20.650  43.878   1.846
54105W        W20536   8.114  38.967   3.999
54106W        W20537   0.487  37.228  13.355
54107W        W20538  18.492  27.136  11.707
54108W        W20539  24.568   9.183   3.743
54109W        W20540  41.419  32.615  11.076
54110W        W20541  44.457   7.883  13.770
54111W        W20542  30.111  35.160   2.528
54112W        W20543  39.473  32.386  13.302
54113W        W20544   9.744  29.847   0.240
54114W        W20545   5.803   7.732  14.413
54115W        W20546  11.322  32.080  10.364
54116W        W20547  13.553  29.233  11.995
54117W        W20548  27.628   9.922   2.661
54118W        W20549  32.952  16.243   2.882
54119W        W20550  21.268  44.376  10.724
54120W        W20551  12.680  14.929   0.165
54121W        W20552  30.007  15.705  10.593
54122W        W20553  41.322  40.036   3.738
54123W        W20554  16.619  36.667  10.714
54124W        W20555  17.466   8.441   2.785
54125W        W20556  41.222  21.098   0.033
54126W        W20557  36.041   9.835  12.142
54127W        W20558  25.762  19.741   1.879
54128W        W20559   5.946  26.177   2.860
54129W        W20560  24.772  26.746   4.130
54130W        W20561  13.005  34.374   1.744
54131W        W20562   3.426  35.113   4.513
54132W        W20563   2.513  20.750   4.691
54133W        W20564  32.439  23.791   2.763
54134W        W20565  12.627   6.306  10.615
54135W        W20566  35.116  22.097   1.263
54136W        W20567  16.089  38.945   2.360
54137W        W20568  31.189   9.212  13.570
54138W        W20569  19.032  18.471  10.853
54139W        W20570  18.274  25.527  12.132
54140W        W20571  34.451  33.360   3.542
54141W        W20572  25.779  15.199   3.130
54142W        W20573  27.951   5.685  11.854
54143W        W20574  37.331  12.176   0.952
54144W        W20575  15.634   7.376   4.850
54145W        W20576  35.003  38.345   5.197
54146W        W20577  15.269  34.432  14.621
54147W        W20578  44.705  42.255   0.384
54148W        W20579   3.380  42.635  10.664
54149W        W20580  13.745  29.482   1.649
54150W        W20581   7.641   6.222  12.556
54151W        W20582  35.730  24.510   2.279
54152W        W20583   6.663  39.334   3.199
54153W        W20584   1.878  34.190  13.942
54154W        W20585  12.369  42.916  12.415
54155W        W20586  28.432   4.642   0.537
54156W        W20587  13.518  11.370   3.788
54157W        W20588   6.429  14.700   4.190
54158W        W20589  18.538   5.389   2.313
54159W        W20590  26.931  21.453   4.093
54160W        W20591   8.741  22.167   2.656
54161W        W20592  24.233  38.550   1.385
54162W        W20593   1.063  41.470   3.660
54163W        W20594  34.833  26.499   0.231
54164W        W20595  43.363  43.550  13.433
54165W        W20596  44.016  14.209  14.346
54166W        W20597  37.948  11.301  11.623
54167W        W20598  16.337  40.111   4.131
54168W        W20599  13.828  28.068  11.568
54169W        W20600   0.437  40.437   1.321
54170W        W20601  40.746  14.244   2.391
54171W        W20602  21.051  16.962   4.542
54172W        W20603  31.709   1.596   1.812
54173W        W20604  24.181  10.236  13.747
54174W        W20605  17.482   4.103   3.721
54175W        W20606  37.824  29.468   1.156
54176W        W20607  15.359  20.163   2.204
54177W        W20608  34.433  39.305   2.680
54178W        W20609  32.456  38.452  13.102
54179W        W20610   9.246   6.256  14.551
54180W        W20611  34.904  29.087  13.555
54181W        W20612   9.314   4.472   3.106
54182W        W20613   0.406  18.681   0.358
54183W        W20614  41.666  19.240   0.714
54184W        W20615   4.864  16.653  12.693
54185W        W20616  41.472   4.836  12.331
54186W        W20617  42.787   4.463  13.795
54187W        W20618  31.070  23.195   4.516
54188W        W20619   3.893  35.659   1.078
54189W        W20620   3.745  22.648   3.611
54190W        W20621  14.033  18.118  11.967
54191W        W20622  15.239  28.035   0.504
54192W        W20623  31.564  43.930  10.656
54193W        W20624  10.495  40.966  14.234
54194W        W20625  18.947   6.759   2.890
54195W        W20626  38.678  42.550  14.827
54196W        W20627   0.858  38.560   1.255
54197W        W20628   5.060  20.864   3.188
54198W        W20629   2.429   9.889  13.572
54199W        W20630  43.282  19.806   3.508
54200W        W20631   1.208   2.790   4.090
54201W        W20632   1.347  44.404  13.305
54202W        W20633  32.982  32.740  10.272
54203W        W20634  41.085   8.798   0.011
54204W        W20635   3.652  44.694   4.244
54205W        W20636  17.320  19.066   1.215
54206W        W20637   2.143  20.206  14.021
54207W        W20638  40.178  41.982   2.675
54208W        W20639  29.689   3.470   1.643
54209W        W20640   7.675  10.118   2.153
54210W        W20641   3.717  13.782   2.653
54211W        W20642  11.368  14.097   2.907
54212W        W20643   5.830  23.239   3.178
54213W        W20644  37.069  37.924   3.210
54214W        W20645  38.354  30.338   3.606
54215W        W20646  29.607   1.629  10.663
54216W        W20647  34.009   1.434  14.912
54217W        W20648   2.896   7.738   1.920
54218W        W20649  32.550   4.725  11.059
54219W        W20650  23.091  15.693   0.034
54220W        W20651  21.461  36.183  14.010
54221W        W20652  17.167  12.167   9.944
54222W        W20653  42.511  31.246   3.187
54223W        W20654  34.520   0.281   2.765
54224W        W20655   3.372   5.044   0.405
54225W        W20656  33.126  43.811   4.223
54226W        W20657  36.975  35.293   1.407
54227W        W20658  10.866  26.910  13.434
54228W        W20659  13.818  22.590   0.749
54229W        W20660  38.196  24.465  11.215
54230W        W20661  22.011   6.161  14.341
54231W        W20662  30.529  27.021  11.269
54232W        W20663  31.155  25.182   2.015
54233W        W20664  29.971  27.054   4.877
54234W        W20665  21.112  13.869  12.180
54235W        W20666   2.835  42.774  14.272
54236W        W20667  42.492  34.103   3.639
54237W        W20668  10.148  37.001  13.841
54238W        W20669  29.427  32.343   4.088
54239W        W20670   7.595  13.231  12.577
54240W        W20671  18.288  29.141   0.143
54241W        W20672  30.459  16.779   3.911
54242W        W20673  14.180  17.893  13.041
54243W        W20674   3.252   9.877   4.251
54244W        W20675  24.508  39.240   0.344
54245W        W20676  42.336  14.350   3.278
54246W        W20677  22.637  37.584  13.317
54247W        W20678   6.484   9.728   4.266
54248W        W20679  38.518  11.832   1.337
54249W        W20680  36.372  10.814  11.141
54250W        W20681  20.305  27.553  14.500
54251W        W20682  43.359  35.991  12.614
54252W        W20683  38.889   1.258  12.327
54253W        W20684  31.028  31.834   1.003
54254W        W20685  24.418  43.455   3.635
54255W        W20686   2.834  23.015  14.251
54256W        W20687  33.388  38.270  10.105
54257W        W20688  37.208  38.975  14.878
54258W        W20689  26.999  44.255   3.232
54259W        W20690  38.397   2.159   2.912
54260W        W20691  18.508  12.388  11.680
54261W        W20692  12.604   4.846  10.957
54262W        W20693  38.512  33.583   0.841
54263W        W20694   7.975  16.599  11.651
54264W        W20695  13.859  31.887  11.018
54265W        W20696  41.969  20.945   3.288
54266W        W20697  15.764  44.316   2.830
54267W        W20698  12.413   5.388  12.510
54268W        W20699  10.443  27.899   3.505
54269W        W20700  39.960  24.621  14.019
54270W        W20701  21.795  16.886   0.514
54271W        W20702  22.692  11.087   3.535
54272W        W20703  34.804  38.345   1.203
54273W        W20704  33.063  18.189   1.405
54274W        W20705   8.495   8.335  11.105
54275W        W20706  33.313  38.074   4.450
54276W        W20707  40.267  36.308  11.046
54277W        W20708  17.624  11.231  12.333
54278W        W20709  16.126  43.032  11.521
54279W        W20710  26.097  43.508   1.232
54280W        W20711  13.812  15.592   0.300
54281W        W20712   9.075  23.051   3.565
54282W        W20713  33.108  30.277   2.276
54283W        W20714  34.840  31.605  11.056
54284W        W20715  18.099  18.140   3.529
54285W        W20716  39.401  14.538   2.394
54286W        W20717  38.309  11.185  10.722
54287W        W20718   9.032  43.307   2.249
54288W        W20719  33.372   5.179  12.054
54289W        W20720  11.347  42.789   5.048
54290W        W20721   7.211  38.802  14.429
54291W        W20722  24.073  38.953   2.093
54292W        W20723  37.143  42.482   4.510
54293W        W20724   6.401  10.075  14.881
54294W        W20725  16.137  30.833  12.597
54295W        W20726   2.657  40.537  14.041
54296W        W20727  41.744  43.540  11.153
54297W        W20728  42.144  11.708   1.990
54298W        W20729  14.114  14.158  10.255
54299W        W20730  44.206   8.727   1.611
54300W        W20731  21.073  26.975   4.813
54301W        W20732   6.392  32.883  13.416
54302W        W20733   4.302  39.046   4.535
54303W        W20734  40.694  21.113   0.114
54304W        W20735  24.656   7.284  11.093
54305W        W20736   0.293  18.720   4.272
54306W        W20737   7.300   1.411   2.752
54307W        W20738  14.627   9.370   0.499
54308W        W20739  20.081  35.133   1.287
54309W        W20740   1.675   3.573   0.829
54310W        W20741  43.526   4.425  11.599
54311W        W20742  17.904  23.596  11.179
54312W        W20743  22.325  14.210   1.370
54313W        W20744  35.275  27.091   2.473
54314W        W20745   0.211  37.891   2.355
54315W        W20746  41.388  39.924  12.818
54316W        W20747  35.781  19.676   0.299
54317W        W20748  21.685  29.038  13.034
54318W        W20749  13.893   3.418   2.329
54319W        W20750   4.023  21.742  14.457
54320W        W20751  37.759  22.180  14.350
54321W        W20752  14.431  21.816   4.634
54322W        W20753  13.751  23.352  11.747
54323W        W20754  14.872  32.508   3.004
54324W        W20755   6.756  34.868  14.895
54325W        W20756   6.453  26.077   1.357
54326W        W20757  35.349  29.017   4.557
54327W        W20758  34.396  25.823  12.604
54328W        W20759  23.653  31.405   3.692
54329W        W20760  22.606  29.819  13.406
54330W        W20761  43.338   6.278   3.356
54331W        W20762   9.695  30.436  12.571
54332W        W20763  19.620  24.980   2.989
54333W        W20764  36.477  13.538   2.277
54334W        W20765  13.847  17.326   0.904
54335W        W20766  35.832  12.759   2.258
54336W        W20767   6.808  35.513  12.050
54337W        W20768  15.907   0.268   3.829
54338W        W20769  23.358  23.793  12.605
54339W        W20770   1.720  21.212  14.442
54340W        W20771  24.124  20.559  12.721
54341W        W20772   9.668  25.872  14.813
54342W        W20773   5.153  13.419  12.019
54343W        W20774  38.399  27.927  11.985
54344W        W20775  43.542  21.960  12.480
54345W        W20776  16.132  32.202  11.899
54346W        W20777  30.385   2.897   3.218
54347W        W20778  17.532  38.985  11.984
54348W        W20779  27.877  20.057  10.823
54349W        W20780  40.858  40.868  11.572
54350W        W20781  44.366  14.308   1.008
54351W        W20782  44.710   9.427  10.845
54352W        W20783   7.378  43.902  14.060
54353W        W20784   8.264  10.707  11.753
54354W        W20785  21.237  18.629   0.569
54355W        W20786  25.372   2.733  12.520
54356W        W20787  13.219  38.890  11.447
54357W        W20788  19.616  39.892   3.031
54358W        W20789  31.412  12.109   4.643
54359W        W20790  30.915  40.333   2.366
54360W        W20791   1.865  44.488  14.361
54361W        W20792  41.546  35.835  12.610
54362W        W20793  15.822  30.615   0.515
54363W        W20794   1.861   8.299   3.695
54364W        W20795  27.965  25.101  13.607
54365W        W20796  24.617   2.313  12.240
54366W        W20797  17.091  25.461   1.961
54367W        W20798  14.967  26.957  10.946
54368W        W20799   0.332  35.490  14.431
54369W        W20800   8.873  13.209   0.784
54370W        W20801  37.389  21.297  12.075
54371W        W20802  34.085  24.993  11.538
54372W        W20803   5.946   7.223  10.748
54373W        W20804  28.370   4.084  14.461
54374W        W20805  18.434  16.083  14.923
54375W        W20806  23.413  31.251  10.401
54376W        W20807   0.549  29.157   0.935
54377W        W20808  20.122  38.340  14.571
54378W        W20809  39.480  14.817  10.911
54379W        W20810  39.354  25.786   3.261
54380W        W20811  25.076  40.104  11.636
54381W        W20812  43.953  23.016  11.819
54382W        W20813  19.631   4.412  12.886
54383W        W20814  10.111  29.662   0.612
54384W        W20815  38.279  40.867   4.767
54385W        W20816  43.646  13.230  10.924
54386W        W20817  15.333  13.503  10.182
54387W        W20818  13.120  35.063   4.185
54388W        W20819  13.587  39.597  11.622
54389W        W20820  44.819  25.437   2.225
54390W        W20821   4.331  33.170   2.779
54391W        W20822   5.641   3.865   0.820
54392W        W20823  36.568   1.934  14.558
54393W        W20824   0.998  32.979  12.446
54394W        W20825  10.930   5.684   4.199
54395W        W20826   2.249  11.559  11.695
54396W        W20827  13.358  13.368   3.165
54397W        W20828   6.850  14.139  13.871
54398W        W20829  27.289  11.304   2.167
54399W        W20830  24.645  28.072   1.638
54400W        W20831   2.811  30.855  11.695
54401W        W20832  30.311   2.965  10.564
54402W        W20833  11.927   8.405   2.298
54403W        W20834  24.701   0.693  14.986
54404W        W20835  13.921  18.221   0.331
54405W        W20836  26.458  27.407   0.849
54406W        W20837   4.042   2.154  14.630
54407W        W20838  21.682  10.294   5.081
54408W        W20839  10.720   4.758  12.907
54409W        W20840   8.426   5.233   0.258
54410W        W20841  35.851   6.415   1.324
54411W        W20842  22.004  36.989  13.331
54412W        W20843   2.653  25.706  14.863
54413W        W20844  27.878  38.035   2.311
54414W        W20845  33.135  39.910  13.683
54415W        W20846  36.238   7.499   1.670
54416W        W20847  22.110   6.158  11.067
54417W        W20848  30.441   9.778   1.470
54418W        W20849  21.059  13.663  11.194
54419W        W20850  36.081  11.956  13.547
54420W        W20851  43.081  40.102   1.612
54421W        W20852   0.768  30.587   3.622
54422W        W20853  37.817  23.402  11.669
54423W        W20854  20.477  33.867  14.384
54424W        W20855  40.899  23.666   2.689
54425W        W20856  22.816  34.313   4.403
54426W        W20857   0.925   0.612  12.022
54427W        W20858  44.705  14.358   0.102
54428W        W20859   2.870  40.171  12.191
54429W        W20860  27.748   0.623  11.627
54430W        W20861  14.144  40.303   1.887
54431W        W20862  37.482   7.921   0.698
54432W        W20863  44.043   2.203  11.701
54433W        W20864  15.274  43.293  10.467
54434W        W20865  37.988  43.558   5.076
54435W        W20866  27.282  29.755  11.138
54436W        W20867  39.033  30.048  11.529
54437W        W20868  24.633  20.526  12.852
54438W        W20869  38.876  42.934  14.550
54439W        W20870   5.195  44.268  12.155
54440W        W20871  21.089  32.591  13.772
54441W        W20872  39.803   8.222   4.905
54442W        W20873  27.210  14.196  13.993
54443W        W20874  22.039  21.071  13.975
54444W        W20875   3.579  23.438  14.462
54445W        W20876   8.467  20.955   3.243
54446W        W20877  26.078  23.746  12.963
54447W        W20878  13.376  40.856  13.375
54448W        W20879   5.411  35.510  11.622
54449W        W20880  32.033  29.428   2.630
54450W        W20881   1.291   9.538   0.257
54451W        W20882  16.823   4.744   1.800
54452W        W20883  19.592  32.137  14.559
54453W        W20884   6.365  29.083  14.028
54454W        W20885  43.126  11.143  11.548
54455W        W20886  26.322  41.109   1.482
54456W        W20887   9.917  35.678  13.073
54457W        W20888   7.622  26.701   0.210
54458W        W20889  19.258  10.092   4.126
54459W        W20890  41.812   0.875   3.709
54460W        W20891   1.801  22.950   3.786
54461W        W20892  11.873   2.689  14.401
54462W        W20893   3.717  33.969  13.860
54463W        W20894  28.970   7.893   4.658
54464W        W20895  44.854  39.295  11.692
54465W        W20896  40.825  34.983  14.395
54466W        W20897   8.338   2.820   0.931
54467W        W20898  27.539   0.981   0.407
54468W        W20899   9.214  31.712  10.793
54469W        W20900  32.461  33.324  12.890
54470W        W20901   2.433  17.068   2.292
54471W        W20902  18.216  43.311  11.071
54472W        W20903   5.238  13.054  11.052
54473W        W20904   0.757  12.378   4.658
54474W        W20905  34.050   2.734  14.103
54475W        W20906  12.752  26.065   2.455
54476W        W20907  20.984   3.298   0.806
54477W        W20908  10.915   6.948  12.830
54478W        W20909  28.974  13.313  12.648
54479W        W20910  30.764  38.430   3.314
54480W        W20911  35.321  26.950  14.846
54481W        W20912  14.521  14.482  10.342
54482W        W20913   1.935   6.706   0.202
54483W        W20914   7.726  22.788  13.916
54484W        W20915  10.552   6.828  14.859
54485W        W20916  32.427   6.988   0.786
54486W        W20917  30.011  18.089   3.587
54487W        W20918  28.687  13.215   0.369
54488W        W20919  27.444  10.768   2.356
54489W        W20920  15.700  31.097  12.684
54490W        W20921  36.570  18.816  11.723
54491W        W20922  12.401  32.858  14.755
54492W        W20923  21.607  38.413   2.330
54493W        W20924  28.525  34.592   1.268
54494W        W20925  32.491  36.630   0.936
54495W        W20926  17.945  23.900   9.885
54496W        W20927  33.089  15.354  14.875
54497W        W20928  41.062  35.083   0.400
54498W        W20929  31.342   0.356   4.241
54499W        W20930  40.397  27.696  13.746
54500W        W20931  43.900  11.113  10.861
54501W        W20932  34.077  31.724   2.924
54502W        W20933   5.736   7.131  13.637
54503W        W20934  25.298   4.852  12.570
54504W        W20935   8.690  11.927   0.318
54505W        W20936  30.943   0.318   0.246
54506W        W20937  10.422  28.459  10.651
54507W        W20938  34.491  35.547   1.752
54508W        W20939   0.025   4.903   1.662
54509W        W20940   5.376  14.326   1.937
54510W        W20941  26.561   5.166   1.616
54511W        W20942  38.864  34.121   1.909
54512W        W20943  24.285  32.698   1.897
54513W        W20944  23.093  34.118  14.394
54514W        W20945  25.056  26.457  13.828
54515W        W20946  23.206  20.547  14.521
54516W        W20947  20.431   3.835   1.333
54517W        W20948  36.447  18.187   1.731
54518W        W20949  10.645  27.416  10.410
54519W        W20950  15.904  35.360  12.433
54520W        W20951  32.606  16.784  11.537
54521W        W20952  33.049  35.127   0.776
54522W        W20953  11.541  23.101   2.144
54523W        W20954  41.857   6.285  10.336
54524W        W20955  16.040  44.539   1.964
54525W        W20956  13.802  31.578   1.409
54526W        W20957  31.836  37.006  11.665
54527W        W20958  18.537  40.339  13.449
54528W        W20959  35.509  43.998  12.935
54529W        W20960  28.727  36.417  11.187
54530W        W20961  35.485  14.832   0.919
54531W        W20962  11.469  30.930  11.084
54532W        W20963  23.542   5.735  11.631
54533W        W20964  10.861  35.338  10.383
54534W        W20965  42.745   6.451   3.241
54535W        W20966  34.994  33.126   1.709
54536W        W20967  33.338   0.699  11.516
54537W        W20968   3.187  14.093   1.174
54538W        W20969  29.822  29.703  14.268
54539W        W20970  37.081   4.086   1.404
54540W        W20971  44.921  37.150  14.753
54541W        W20972  10.364  24.580  10.778
54542W        W20973  13.139  32.004  10.818
54543W        W20974  42.067   2.812   4.413
54544W        W20975  23.593  10.782  11.195
54545W        W20976   8.904   2.848  13.540
54546W        W20977   7.213   5.188   2.312
54547W        W20978  30.546   0.733   0.353
54548W        W20979  39.700  32.838   4.619
54549W        W20980  20.816   0.994  13.443
54550W        W20981  28.518  41.503   0.421
54551W        W20982  40.279   3.195  11.426
54552W        W20983   4.738   0.986  13.454
54553W        W20984   2.416  23.190   2.776
54554W        W20985   5.883  15.621  13.612
54555W        W20986  26.747  32.109   4.267
54556W        W20987  33.507   2.183   1.433
54557W        W20988   2.901  36.839  12.274
54558W        W20989  11.260  26.655   4.579
54559W        W20990   0.647  11.117  14.948
54560W        W20991  42.568  38.949   2.720
54561W        W20992  37.468   3.912  13.134
54562W        W20993  39.535  27.900  13.570
54563W        W20994  27.258  36.551  14.427
54564W        W20995  16.322  27.612   1.310
54565W        W20996  40.656  21.064  13.862
54566W        W20997  21.050  33.660  11.030
54567W        W20998  43.345   9.411  13.407
54568W        W20999  22.395  31.385  13.543
54569W        W21000   0.841  24.697  11.999
54570W        W21001  27.365  43.528   4.012
54571W        W21002  38.489  37.898  12.502
54572W        W21003   4.425  12.189   1.357
54573W        W21004  38.616   5.376  12.912
54574W        W21005  27.445  35.645   4.090
54575W        W21006  13.793  30.734  14.930
54576W        W21007  26.797   9.328   4.014
54577W        W21008  20.525  24.023   3.699
54578W        W21009  36.575  20.531  12.501
54579W        W21010  30.651  19.553  11.495
54580W        W21011  30.535  42.988   3.724
54581W        W21012  23.655   4.374  14.501
54582W        W21013  30.439  37.977   2.382
54583W        W21014   4.399  20.950  11.543
54584W        W21015  22.230  32.035   0.148
54585W        W21016  16.121  10.736   3.812
54586W        W21017  36.071  15.662  11.518
54587W        W21018  35.284  29.037   2.772
54588W        W21019  24.696  26.227   0.485
54589W        W21020  39.983  33.117   1.711
54590W        W21021  16.200   4.102   3.524
54591W        W21022  37.032  35.387  13.049
54592W        W21023  11.641  11.349  12.482
54593W        W21024  26.135  17.050  13.849
54594W        W21025  19.170  39.451  13.514
54595W        W21026  36.303  37.439   9.793
54596W        W21027  19.675   6.926  14.481
54597W        W21028  10.290  15.451   5.405
54598W        W21029  34.157   4.305  14.416
54599W        W21030  35.812   6.762  11.635
54600W        W21031  23.047  36.040  14.391
54601W        W21032  33.332   7.787  11.309
54602W        W21033   2.010   1.056   4.090
54603W        W21034   0.815  16.661   0.830
54604W        W21035  19.526  12.731  10.717
54605W        W21036  26.946   1.864   1.364
54606W        W21037   7.309  43.014   3.272
54607W        W21038  34.824  40.222  14.925
54608W        W21039   1.085  19.816   4.469
54609W        W21040   9.815  35.011   3.243
54610W        W21041  18.441  23.220  12.389
54611W        W21042  30.019  34.405   1.393
54612W        W21043   0.816  40.629   2.238
54613W        W21044  28.931  30.501  14.804
54614W        W21045  19.884  22.763   0.306
54615W        W21046  34.430  43.268   1.452
54616W        W21047  22.049  11.139  12.553
54617W        W21048   9.355  43.511   0.127
54618W        W21049  42.344  28.495  11.509
54619W        W21050  22.517   4.702   2.858
54620W        W21051  29.126  14.535   0.859
54621W        W21052  12.699  36.761   3.268
54622W        W21053  20.602  40.415   1.224
54623W        W21054  35.531  17.891   1.443
54624W        W21055  40.486  25.284   1.714
54625W        W21056  34.164   6.825   3.214
54626W        W21057  10.168  13.705   0.688
54627W        W21058  19.556  14.651  11.884
54628W        W21059   7.583   1.002   0.598
54629W        W21060   2.254  25.463  11.976
54630W        W21061  19.293   4.760  11.157
54631W        W21062  21.771  30.785   5.099
54632W        W21063  20.785  16.302   0.875
54633W        W21064  13.383  41.939  11.785
54634W        W21065  14.434  37.925  12.774
54635W        W21066  33.022  28.382   3.393
54636W        W21067   6.057  42.595   3.568
54637W        W21068  27.028  39.493   3.168
54638W        W21069  12.423   8.832   3.619
54639W        W21070  23.765  15.127  10.862
54640W        W21071  36.072  30.914  13.517
54641W        W21072   2.841  42.899  11.670
54642W        W21073  27.739  34.791   2.741
54643W        W21074  27.595  21.557  14.550
54644W        W21075  39.541   8.165  13.319
54645W        W21076  33.677   3.829   1.337
54646W        W21077   6.162  27.211  13.881
54647W        W21078  41.020  24.757   0.050
54648W        W21079  30.312  27.973  11.196
54649W        W21080  29.026  44.505   1.089
54650W        W21081   2.934   7.114   4.661
54651W        W21082  33.416  22.319   4.959
54652W        W21083  30.626  35.514   0.828
54653W        W21084  34.422  15.255  12.051
54654W        W21085  34.933  19.585  11.985
54655W        W21086  29.110  33.053  12.963
54656W        W21087  40.488  25.609  14.805
54657W        W21088  33.947  30.472  12.847
54658W        W21089   2.643  20.084   3.323
54659W        W21090  36.653  20.506  14.886
54660W        W21091  22.445  38.300  14.286
54661W        W21092   9.072  43.994   4.114
54662W        W21093  23.807  38.741   0.449
54663W        W21094  20.113  16.654   2.448
54664W        W21095  21.839  25.983   3.706
54665W        W21096  40.831  34.201   4.694
54666W        W21097  11.664  33.102   1.983
54667W        W21098  16.804  34.410  12.439
54668W        W21099  10.180  24.641  11.669
54669W        W21100  14.079  33.124  12.013
54670W        W21101  20.314  32.819  12.874
54671W        W21102  14.362   6.878   4.265
54672W        W21103  30.906  24.485  13.832
54673W        W21104  15.304   6.880  10.771
54674W        W21105  29.544   5.479  13.334
54675W        W21106   5.453   4.306  12.506
54676W        W21107   6.796  24.285  13.876
54677W        W21108  36.590   3.710   2.506
54678W        W21109   8.118  35.934   2.298
54679W        W21110  11.110  31.525   2.808
54680W        W21111  32.488  16.810  12.085
54681W        W21112  43.220  21.052   0.656
54682W        W21113  11.824  12.784  14.932
54683W        W21114  42.612  42.824   0.928
54684W        W21115   2.873   8.407   1.422
54685W        W21116  26.143   3.773  12.581
54686W        W21117  16.217   6.202   2.633
54687W        W21118  22.247  11.670  12.507
54688W        W21119   7.206  14.724   2.851
54689W        W21120   9.433   8.540   5.103
54690W        W21121  28.986   6.561   4.345
54691W        W21122  16.851   3.881   0.335
54692W        W21123  19.261  37.539   1.251
54693W        W21124   2.964  36.702  11.157
54694W        W21125  43.720  34.432   0.381
54695W        W21126  39.243  24.952   4.755
54696W        W21127  13.933  44.445  10.805
54697W        W21128  20.374   0.758   2.567
54698W        W21129   4.463   1.935  13.044
54699W        W21130  16.848  15.996  13.357
54700W        W21131  41.668  23.162   1.135
54701W        W21132   3.387   9.529   2.227
54702W        W21133  10.049  31.845   2.346
54703W        W21134  42.196   7.833   3.780
54704W        W21135  17.681  29.102  10.927
54705W        W21136  34.732   4.909  14.053
54706W        W21137   8.775  36.004  13.826
54707W        W21138   3.776  36.417   1.280
54708W        W21139  30.184   8.740  14.750
54709W        W21140   0.447  19.206   1.997
54710W        W21141   9.868  14.828   2.183
54711W        W21142  30.495   3.926   4.188
54712W        W21143  32.037  23.063   2.670
54713W        W21144  38.443  23.415  14.329
54714W        W21145   5.769  26.461   4.575
54715W        W21146  16.665  30.018  11.273
54716W        W21147  39.072  13.665   4.934
54717W        W21148   6.900  35.015   0.406
54718W        W21149  11.694  44.467   2.106
54719W        W21150   3.956  34.136  12.036
54720W        W21151   8.488  18.999  13.358
54721W        W21152   7.340   3.783   3.573
54722W        W21153   8.846  30.152  14.825
54723W        W21154   1.152  16.467   0.456
54724W        W21155  42.288  18.299  14.332
54725W        W21156   2.528  24.973  14.067
54726W        W21157   6.359  17.195   1.762
54727W        W21158   8.724  36.110  12.400
54728W        W21159  28.189  41.950  12.818
54729W        W21160  44.660  14.242  13.515
54730W        W21161  35.788  12.881  12.705
54731W        W21162  37.811   5.748  12.898
54732W        W21163  39.235  32.943  12.019
54733W        W21164  43.640  41.709   4.166
54734W        W21165  28.049  35.391  11.312
54735W        W21166  12.123  18.130   0.847
54736W        W21167  40.707  25.983   0.940
54737W        W21168  29.337   9.868   9.857
54738W        W21169   2.534   7.400  12.050
54739W        W21170  10.772  33.848  11.460
54740W        W21171  12.771  10.701  14.919
54741W        W21172  26.209   9.634  14.234
54742W        W21173  11.590  10.885   4.871
54743W        W21174  20.731   7.442   3.543
54744W        W21175  12.825  34.230  11.550
54745W        W21176   5.682  17.297  12.639
54746W        W21177  44.710  41.409   4.965
54747W        W21178  24.559  35.169  13.022
54748W        W21179  17.842  12.550   4.212
54749W        W21180  44.294   8.561  14.302
54750W        W21181  40.790  36.597  14.909
54751W        W21182  24.954   1.982   4.661
54752W        W21183  42.608  22.177   1.436
54753W        W21184  18.310  35.837  14.138
54754W        W21185  21.607  30.400   2.605
54755W        W21186  29.199  19.482  13.331
54756W        W21187  12.839  19.010   2.787
54757W        W21188   1.076  33.980  11.906
54758W        W21189  11.803  38.418  14.739
54759W        W21190  43.309  43.394   1.008
54760W        W21191  39.939  33.096   2.239
54761W        W21192  26.903  24.488  14.536
54762W        W21193  32.925  29.369  14.343
54763W        W21194  37.246  17.175   3.183
54764W        W21195  17.274  43.841   3.549
54765W        W21196  44.192  33.947  12.405
54766W        W21197  32.198  15.081  11.953
54767W        W21198  18.357  43.731   2.078
54768W        W21199  34.413  26.460  14.157
54769W        W21200  26.855  28.977  11.129
54770W        W21201  42.012  10.691  13.392
54771W        W21202  29.012  42.116  14.162
54772W        W21203   7.176  30.190   0.336
54773W        W21204  15.616  31.299   0.927
54774W        W21205  27.467  36.903  12.009
54775W        W21206  12.222   6.769   3.567
54776W        W21207  13.647  29.647   3.650
54777W        W21208  24.970   7.206   4.047
54778W        W21209  14.483  30.575   5.011
54779W        W21210   0.774  12.890   4.676
54780W        W21211   9.319  33.465  10.750
54781W        W21212  40.609  31.493  13.981
54782W        W21213   3.896  35.973   3.817
54783W        W21214  31.032  30.677  14.019
54784W        W21215   4.923  34.372   2.252
54785W        W21216  27.485  34.305   4.320
54786W        W21217  41.445  41.176  12.117
54787W        W21218  12.092   5.112   4.054
54788W        W21219  43.983  17.139  11.453
54789W        W21220  13.888   4.977  11.264
54790W        W21221  36.448  41.320   3.394
54791W        W21222   2.933  18.938  11.654
54792W        W21223  11.812  30.654  14.543
54793W        W21224  16.360  25.702  13.984
54794W        W21225  17.218  18.791  10.613
54795W        W21226  41.470  24.122   1.249
54796W        W21227  33.983  16.979  12.967
54797W        W21228  34.956  44.376  14.761
54798W        W21229  39.488  16.556  14.671
54799W        W21230  24.889  13.596   3.562
54800W        W21231  41.264   2.416  14.734
54801W        W21232  35.073  43.080  14.419
54802W        W21233  43.628  30.658  10.648
54803W        W21234  42.314  29.077   1.246
54804W        W21235   5.276  17.204   3.620
54805W        W21236  27.780  40.975  13.557
54806W        W21237  18.746   0.725  14.943
54807W        W21238  30.110  40.832  14.758
54808W        W21239   2.856  16.139  11.081
54809W        W21240  24.196  32.621   0.919
54810W        W21241  34.846  13.223  11.568
54811W        W21242  38.967  19.382  10.376
54812W        W21243   2.365  17.587  12.537
54813W        W21244   1.912   1.299  12.221
54814W        W21245  13.680   8.471  13.384
54815W        W21246  21.894   2.731  13.564
54816W        W21247  23.409  24.015   3.839
54817W        W21248   7.297  11.965  14.858
54818W        W21249  37.543   9.257  14.989
54819W        W21250   6.139   4.505   0.446
54820W        W21251  36.099   6.483  11.334
54821W        W21252  18.766   1.481   1.811
54822W        W21253  28.688   3.927  11.933
54823W        W21254  43.295   9.791   2.258
54824W        W21255  43.260  11.326   0.753
54825W        W21256  33.157   9.438  12.488
54826W        W21257  39.309  29.743  11.080
54827W        W21258  27.491  24.896  10.723
54828W        W21259  22.221   6.547   2.464
54829W        W21260  28.037   8.697   2.812
54830W        W21261  33.351  15.859  12.506
54831W        W21262  23.180  12.485  11.613
54832W        W21263   7.295  42.468   4.635
54833W        W21264  14.886  30.051   3.065
54834W        W21265  11.028  24.837   4.911
54835W        W21266   0.424  34.926   4.312
54836W        W21267  13.163  36.097   5.154
54837W        W21268  23.171  33.268   1.403
54838W        W21269  22.106  12.392   1.760
54839W        W21270   8.271  24.201   0.516
54840W        W21271  14.312  12.190  10.873
54841W        W21272  30.668  33.022   0.692
54842W        W21273  35.773  19.953  13.489
54843W        W21274  11.901  41.479  10.174
54844W        W21275   5.684  44.805  12.452
54845W        W21276   1.215  15.399  13.314
54846W        W21277  20.806  28.567   3.635
54847W        W21278  40.455  12.119  10.707
54848W        W21279   2.192   8.682  11.118
54849W        W21280  34.905  42.498  10.787
54850W        W21281  13.454  22.230  13.843
54851W        W21282   0.907   7.165  10.337
54852W        W21283  20.221  26.860  14.904
54853W        W21284  18.389  12.835  12.161
54854W        W21285  22.740   2.679  12.462
54855W        W21286  13.160  35.370  14.983
54856W        W21287  35.184  42.795   5.018
54857W        W21288   8.938  32.080  12.491
54858W        W21289  31.290  43.317   2.746
54859W        W21290   9.212  14.619   0.903
54860W        W21291  16.283  12.556   0.884
54861W        W21292  12.330  20.195   3.901
54862W        W21293  18.785  15.348   0.308
54863W        W21294  34.164  26.754  14.548
54864W        W21295  14.713  14.664   9.875
54865W        W21296  22.583  19.263   1.258
54866W        W21297   5.683   9.383  12.896
54867W        W21298  20.707  14.926  13.836
54868W        W21299  18.138  12.206   1.880
54869W        W21300   5.343  31.012   4.308
54870W        W21301  26.564  12.425   4.812
54871W        W21302  29.536   6.230  12.794
54872W        W21303   3.955  30.023   4.148
54873W        W21304  35.486   2.205  13.409
54874W        W21305  36.247  32.110   4.083
54875W        W21306  13.736  34.373   4.315
54876W        W21307   9.908   5.194   4.524
54877W        W21308  38.531  32.104  11.062
54878W        W21309   4.243  29.628  11.060
54879W        W21310  34.366  40.490   4.165
54880W        W21311  12.359  21.246   2.357
54881W        W21312  27.591   0.476  14.609
54882W        W21313  18.216  23.348  13.672
54883W        W21314  31.136  14.239   3.289
54884W        W21315  29.857   6.665   1.614
54885W        W21316  20.354  41.983  12.842
54886W        W21317   1.482  20.080   1.863
54887W        W21318  31.905  30.862  14.292
54888W        W21319  42.235  31.651   3.329
54889W        W21320  19.625  21.544  14.069
54890W        W21321  44.082   5.743  12.540
54891W        W21322  41.251   1.931   0.990
54892W        W21323  35.924  44.018   2.747
54893W        W21324  35.609  13.017   4.392
54894W        W21325   3.418   2.212  12.072
54895W        W21326  12.216   9.241  13.308
54896W        W21327  10.927   2.909  10.760
54897W        W21328  21.268  43.642  13.213
54898W        W21329  18.944  31.219   3.246
54899W        W21330  42.345  39.854   0.409
54900W        W21331   4.722  42.534  10.961
54901W        W21332  41.085  21.298  11.625
54902W        W21333  12.301   4.839  14.749
54903W        W21334   0.020  36.845   0.744
54904W        W21335  30.773  30.230   1.744
54905W        W21336   2.248   2.777   0.767
54906W        W21337   8.846  36.640  13.141
54907W        W21338  17.573  17.153   4.010
54908W        W21339  44.276  44.067   9.995
54909W        W21340  32.004  41.922  13.516
54910W        W21341  15.959  44.000   1.914
54911W        W21342  34.460  12.803   2.744
54912W        W21343   4.788   5.090   0.270
54913W        W21344  22.877  17.695  12.461
54914W        W21345  14.227  21.138  10.470
54915W        W21346   7.287  37.210  13.543
54916W        W21347  36.583   2.630  14.966
54917W        W21348  23.364  20.220  10.510
54918W        W21349  29.220  27.580   4.020
54919W        W21350   5.441  22.309  12.399
54920W        W21351  24.709  19.822   2.416
54921W        W21352  44.314  28.923  11.224
54922W        W21353   3.202   4.383  12.093
54923W        W21354  19.565  41.534   3.349
54924W        W21355  20.550  14.143   4.654
54925W        W21356  11.781  40.950   4.790
54926W        W21357  22.426  43.876  11.644
54927W        W21358   0.163  35.498   5.105
54928W        W21359   9.513   4.166   0.673
54929W        W21360  32.936   1.238   4.175
54930W        W21361  37.570   1.330   4.365
54931W        W21362  10.442  10.592   2.930
54932W        W21363  40.234  17.942   1.832
54933W        W21364   0.471  44.933  12.377
54934W        W21365  26.606   2.603  14.058
54935W        W21366   4.512  13.810   2.268
54936W        W21367  28.411  19.125   4.315
54937W        W21368  37.788  33.918   0.823
54938W        W21369  34.098   8.909   1.696
54939W        W21370  43.490   8.368   0.493
54940W        W21371  29.429  35.136   0.317
54941W        W21372  29.985  40.435  10.762
54942W        W21373  36.637  40.931   2.551
54943W        W21374   3.506   7.443   0.227
54944W        W21375  18.179  14.423  14.406
54945W        W21376  42.034  41.514   1.962
54946W        W21377  27.722  39.345   0.792
54947W        W21378  27.432   5.211   1.212
54948W        W21379  18.842  42.691  14.838
54949W        W21380  17.962  43.590   1.741
54950W        W21381   7.411   4.937   1.902
54951W        W21382  17.897  29.218  12.550
54952W        W21383  22.138  10.615   0.729
54953W        W21384  27.808  30.942   0.484
54954W        W21385  20.212  39.112  12.016
54955W        W21386  21.565  31.037  11.657
54956W        W21387  21.141   8.279  14.532
54957W        W21388  41.121  26.987   3.784
54958W        W21389   7.296  36.398  14.022
54959W        W21390   5.501  32.527   4.036
54960W        W21391   6.428   4.776  13.740
54961W        W21392  18.806  23.607  13.079
54962W        W21393  37.066  37.417   2.411
54963W        W21394  15.551  21.794   1.216
54964W        W21395  28.236  20.070   0.460
54965W        W21396  17.119  31.290  10.938
54966W        W21397  13.798  21.745   2.288
54967W        W21398  28.077  13.620  12.927
54968W        W21399  23.012   8.298  14.453
54969W        W21400  21.134   9.405  10.615
54970W        W21401  15.019  37.624   2.735
54971W        W21402  37.813   6.442  12.473
54972W        W21403  16.386  11.357  11.321
54973W        W21404  31.923  20.004   1.366
54974W        W21405  42.299  42.329  11.208
54975W        W21406  42.052  24.017   3.711
54976W        W21407   0.785  42.536  11.142
54977W        W21408   2.021  15.064   4.101
54978W        W21409  33.982  19.660   2.148
54979W        W21410  27.518  40.021  14.679
54980W        W21411  22.811  22.614  11.661
54981W        W21412   4.809  34.464   4.398
54982W        W21413   3.297  37.851   4.516
54983W        W21414  38.883  11.860  13.784
54984W        W21415  25.091  22.231  14.637
54985W        W21416  28.949  14.386  13.734
54986W        W21417  30.713   1.299   3.368
54987W        W21418  37.116  33.923   2.196
54988W        W21419  33.521  16.567  12.967
54989W        W21420  40.351   3.047  10.719
54990W        W21421  38.067  36.311  12.492
54991W        W21422  20.531  35.303  11.280
54992W        W21423  20.625   0.263  14.440
54993W        W21424  42.666   3.116   0.459
54994W        W21425  22.500  39.449   0.913
54995W        W21426  16.196   0.015   1.914
54996W        W21427  44.872  12.287  13.378
54997W        W21428  40.820  35.530  10.556
54998W        W21429  36.727  15.504   3.954
54999W        W21430  12.632  22.045  11.269
55000W        W21431  21.190  31.770  12.883
55001W        W21432   6.615  44.218   0.867
55002W        W21433  11.564  11.836   2.238
55003W        W21434  40.219  34.610  12.904
55004W        W21435  36.056  22.245  13.574
55005W        W21436   9.621  25.591   1.697
55006W        W21437  28.404   5.221  14.852
55007W        W21438  22.146  17.192   4.276
55008W        W21439  10.426  13.961   2.839
55009W        W21440  19.249   3.745  10.994
55010W        W21441   3.200  41.027   4.137
55011W        W21442  24.711  23.772   2.684
55012W        W21443  10.325  15.378  14.283
55013W        W21444  31.525   0.808   0.895
55014W        W21445   8.804  44.875  13.845
55015W        W21446  41.231   6.944  14.935
55016W        W21447  41.055  28.449   2.735
55017W        W21448  20.702  32.350   0.491
55018W        W21449  37.108  32.510  14.216
55019W        W21450   9.160  44.197  13.446
55020W        W21451  32.481  19.100   1.324
55021W        W21452  36.287  30.784  13.066
55022W        W21453  18.466  39.130   5.419
55023W        W21454  29.357  13.774   2.255
55024W        W21455  12.909  41.399  14.381
55025W        W21456  44.308  20.018  13.288
55026W        W21457   6.036  13.345  12.540
55027W        W21458  39.556  42.709  13.626
55028W        W21459  32.438  32.089   3.790
55029W        W21460  33.442   1.604  13.537
55030W        W21461  30.010  39.357  12.641
55031W        W21462  39.624  37.579  13.783
55032W        W21463  15.402  27.241   5.047
55033W        W21464  11.669  31.573   1.170
55034W        W21465  21.024   2.784   4.862
55035W        W21466   1.678  44.402  11.951
55036W        W21467  38.197  13.384   0.769
55037W        W21468  33.395  14.674  13.391
55038W        W21469  35.587  16.777  12.606
55039W        W21470  41.640   1.122  13.374
55040W        W21471  41.716  40.275  14.743
55041W        W21472  23.774  19.600  13.910
55042W        W21473  25.675  12.779  13.533
55043W        W21474   7.909  23.728  14.907
55044W        W21475   5.199  16.295  14.927
55045W        W21476  43.959   7.403   2.122
55046W        W21477   9.699  11.435   1.283
55047W        W21478  38.491   5.643   4.162
55048W        W21479  31.872   6.626  12.025
55049W        W21480  24.424   3.825  14.457
55050W        W21481  15.746   7.565  11.417
55051W        W21482  29.126  38.329  11.207
55052W        W21483  38.047   9.100  14.362
55053W        W21484  41.997   9.879   2.793
55054W        W21485  39.928  32.349   0.403
55055W        W21486   8.663  42.443  10.650
55056W        W21487  13.047  28.510  14.227
55057W        W21488  40.609   1.410   3.364
55058W        W21489  22.523  33.862  11.990
55059W        W21490  31.555  29.211  12.872
55060W        W21491  39.860   7.046  12.085
55061W        W21492  33.439  17.125  11.753
55062W        W21493  19.642  40.854   0.243
55063W        W21494  43.213  14.889   2.082
55064W        W21495  40.359  40.961   3.332
55065W        W21496  37.560  22.104   0.787
55066W        W21497  42.359  30.631   4.791
55067W        W21498   3.217   4.289  14.071
55068W        W21499   5.698  34.369   2.387
55069W        W21500  31.030  41.839   3.246
55070W        W21501   2.317   1.382  14.941
55071W        W21502   2.165  35.115  11.216
55072W        W21503  38.940  20.948   4.938
55073W        W21504  31.355   9.203   0.826
55074W        W21505  42.302   6.360  12.165
55075W        W21506   1.790  18.765  11.192
55076W        W21507   9.407  43.705  14.277
55077W        W21508   1.888  29.190   3.177
55078W        W21509  15.864  31.562   1.835
55079W        W21510   0.843  22.005   2.299
55080W        W21511  17.010  40.622  10.308
55081W        W21512  42.021   4.958   3.789
55082W        W21513  32.220  11.566   2.012
55083W        W21514  43.498  31.151  10.505
55084W        W21515  31.227  39.981  14.745
55085W        W21516  44.219  34.937   2.037
55086W        W21517  40.488  20.507   2.661
55087W        W21518   4.713  40.312  12.103
55088W        W21519  18.599  15.349   1.694
55089W        W21520  26.124   3.657  13.479
55090W        W21521  39.823  10.720  10.698
55091W        W21522  40.765   8.250  14.871
55092W        W21523   2.963  24.357   3.321
55093W        W21524  28.220  44.624   2.730
55094W        W21525  10.676  26.054  11.527
55095W        W21526  30.266  28.993   1.717
55096W        W21527  33.590  16.123  11.205
55097W        W21528   1.247  37.721  12.119
55098W        W21529   1.489  38.045   1.921
55099W        W21530  23.805   0.103  14.964
55100W        W21531  23.107  12.376   0.455
55101W        W21532  40.861  20.501  11.210
55102W        W21533   3.279   7.554   5.117
55103W        W21534   0.378   6.631  12.053
55104W        W21535  40.400   6.299  14.775
55105W        W21536  21.184   0.238   3.363
55106W        W21537  15.383  44.945   0.724
55107W        W21538  18.757  17.684  14.499
55108W        W21539  11.287  27.111   4.377
55109W        W21540  16.784   0.357   1.456
55110W        W21541  12.684   6.535   3.562
55111W        W21542   5.046  41.423   2.283
55112W        W21543   3.665  28.557   1.759
55113W        W21544  36.071   2.198   3.453
55114W        W21545  10.876  10.413   3.929
55115W        W21546   5.012   4.391   4.422
55116W        W21547  10.929  26.205   2.720
55117W        W21548  11.152  31.573  10.497
55118W        W21549  27.588  27.612   2.781
55119W        W21550  40.382   7.299   2.027
55120W        W21551  27.371  17.083  11.566
55121W        W21552  19.714   0.950  10.551
55122W        W21553  20.047  26.132   1.742
55123W        W21554   1.619  38.398   3.333
55124W        W21555  16.832  15.214   2.779
55125W        W21556  19.810  15.585  14.556
55126W        W21557  34.067  29.582   0.471
55127W        W21558  18.998  20.744  12.333
55128W        W21559   4.750  21.991   2.159
55129W        W21560  26.174  27.754  10.329
55130W        W21561   0.433  43.760   0.425
55131W        W21562  13.826   6.404   3.258
55132W        W21563  25.565  26.493   2.390
55133W        W21564  10.938   9.718  11.100
55134W        W21565  17.642  39.787   0.288
55135W        W21566  21.723  38.219   3.259
55136W        W21567  20.032  12.790  13.865
55137W        W21568  22.744  39.786   2.259
55138W        W21569  17.334   0.478  14.609
55139W        W21570  15.716  25.736   4.468
55140W        W21571  10.370  15.790  12.292
55141W        W21572  14.240  22.650   2.938
55142W        W21573  10.126  19.684  11.193
55143W        W21574  16.812  31.828   3.747
55144W        W21575  29.801  40.139   0.717
55145W        W21576  31.006  28.875   3.605
55146W        W21577  34.655   4.593  10.678
55147W        W21578  37.064  40.016   2.876
55148W        W21579  34.291  22.938  12.889
55149W        W21580  29.691  26.170  10.637
55150W        W21581   3.624  20.092  11.190
55151W        W21582  16.108  16.633   2.944
55152W        W21583  18.563  38.644   3.243
55153W        W21584  13.583  14.189   1.522
55154W        W21585   4.679  35.572   0.147
55155W        W21586  23.649  31.423  11.645
55156W        W21587   2.735  36.829  12.906
55157W        W21588   8.283  12.624  10.661
55158W        W21589   1.533  27.888  12.833
55159W        W21590   1.536  40.572  12.931
55160W        W21591  29.562  17.616  11.880
55161W        W21592  36.623  14.432  13.367
55162W        W21593  16.769   3.385  10.528
55163W        W21594  44.859  20.994   2.271
55164W        W21595  34.064   0.034   3.986
55165W        W21596   4.717  43.224   1.685
55166W        W21597  10.719  20.352   4.317
55167W        W21598  12.307   8.182   1.852
55168W        W21599  18.033  25.635   2.040
55169W        W21600  39.294   2.879   1.625
55170W        W21601  35.953  20.531  11.503
55171W        W21602  34.827  33.055  12.988
55172W        W21603  38.077  17.335  14.008
55173W        W21604  19.778  19.382   0.262
55174W        W21605  44.474  11.591   2.862
55175W        W21606  40.932  26.396   2.305
55176W        W21607  26.372  34.292   0.716
55177W        W21608   9.535   2.777   0.379
55178W        W21609  17.891   1.465  12.133
55179W        W21610   9.876  22.461  14.465
55180W        W21611  26.126  16.097   3.510
55181W        W21612   6.826   3.165   1.963
55182W        W21613   1.143  17.992   0.468
55183W        W21614  25.366  38.022  11.473
55184W        W21615  13.543  23.251  10.270
55185W        W21616  35.439  24.493  12.414
55186W        W21617  25.017   2.988   1.817
55187W        W21618   9.655  20.602  14.635
55188W        W21619  23.456  18.069   9.881
55189W        W21620  20.651  38.167   3.997
55190W        W21621  32.931  31.832   0.850
55191W        W21622  11.595  21.586   3.582
55192W        W21623  15.731  14.889   3.825
55193W        W21624  21.589  41.733  13.704
55194W        W21625  11.220   3.346   0.909
55195W        W21626   1.885   7.683  11.029
55196W        W21627  10.350   1.249  10.666
55197W        W21628  24.148  31.623   5.591
55198W        W21629   8.612  34.857   4.450
55199W        W21630   0.460   0.362  13.307
55200W        W21631  12.269  28.735  11.089
55201W        W21632  44.111   7.793  14.528
55202W        W21633  42.444  10.342  10.456
55203W        W21634  24.684  25.680  13.972
55204W        W21635  10.891  37.834  10.660
55205W        W21636  22.972  19.277  12.220
55206W        W21637  16.089   4.322   1.874
55207W        W21638  37.317   0.892   4.173
55208W        W21639  27.530  15.257  13.860
55209W        W21640  21.736  21.592  14.975
55210W        W21641   9.086  15.291   1.877
55211W        W21642  25.682  39.333  14.978
55212W        W21643  13.278  41.108   3.201
55213W        W21644   9.587   5.745   3.687
55214W        W21645  15.473  26.005  13.963
55215W        W21646  13.683   1.662  13.488
55216W        W21647  13.126   8.520   1.446
55217W        W21648  40.015   8.395   1.450
55218W        W21649   6.652  37.422  11.879
55219W        W21650  17.809   9.038   4.156
55220W        W21651  26.972  10.898   2.272
55221W        W21652  22.598   9.636   1.383
55222W        W21653  24.711  40.876   0.712
55223W        W21654   9.796  19.586   0.848
55224W        W21655  39.116   5.260  13.847
55225W        W21656  29.051  38.936  10.154
55226W        W21657  18.690   8.647  14.465
55227W        W21658  43.255  24.436   3.086
55228W        W21659  11.180  22.712  11.252
55229W        W21660   0.946  37.849  14.746
55230W        W21661  33.876   8.255  12.874
55231W        W21662   9.673   9.704  11.580
55232W        W21663  20.013  23.050  11.641
55233W        W21664  16.744  13.522  11.567
55234W        W21665  40.041  17.960   3.200
55235W        W21666  27.150   3.373   1.568
55236W        W21667   4.668  37.060   4.053
55237W        W21668  21.833  44.033   4.375
55238W        W21669  20.986  22.334   2.842
55239W        W21670  41.271  20.219  12.039
55240W        W21671  44.563  16.760   3.118
55241W        W21672  13.615  18.684   4.152
55242W        W21673  25.663   8.335  12.948
55243W        W21674   8.594  40.357   4.540
55244W        W21675  17.026  43.065   4.105
55245W        W21676   3.849  18.461  11.617
55246W        W21677  44.096   4.627   4.820
55247W        W21678  30.146  34.889   2.962
55248W        W21679  35.542  16.587  11.644
55249W        W21680  43.405  16.296   4.483
55250W        W21681  27.482   4.727   9.931
55251W        W21682   1.878  13.103  14.470
55252W        W21683  14.804   6.576   0.237
55253W        W21684   6.962  12.958   0.854
55254W        W21685   5.344  40.375  14.918
55255W        W21686  41.751  41.779   0.739
55256W        W21687  31.162  36.068  12.596
55257W        W21688   9.049  13.107   2.253
55258W        W21689  23.693  27.120  13.569
55259W        W21690  17.998  33.626  12.083
55260W        W21691  42.796  33.636   1.854
55261W        W21692  27.636  24.873  11.207
55262W        W21693  20.227   7.394   0.762
55263W        W21694  29.126  28.152  13.074
55264W        W21695  21.792   4.742  14.378
55265W        W21696  10.195   6.563   5.086
55266W        W21697  25.820  39.592  11.374
55267W        W21698  26.284  33.707   4.756
55268W        W21699  30.307  12.708  13.740
55269W        W21700  42.407  11.703  11.602
55270W        W21701  35.346   8.137  11.713
55271W        W21702  25.172   2.904   3.268
55272W        W21703  26.600  43.840   3.660
55273W        W21704  28.985  43.981   4.885
55274W        W21705   8.685   9.335  14.851
55275W        W21706  37.809  23.520   4.234
55276W        W21707  38.806   4.386   3.789
55277W        W21708   5.675  25.526  12.987
55278W        W21709   7.849  36.501  14.815
55279W        W21710  15.211  15.034   9.766
55280W        W21711  41.524  40.559   0.136
55281W        W21712  39.053  26.410   2.132
55282W        W21713  32.230  24.166   0.331
55283W        W21714   3.263   5.796   0.932
55284W        W21715  12.787  37.633   2.305
55285W        W21716  39.344  25.351   4.196
55286W        W21717  41.336  18.050  13.025
55287W        W21718  32.447  43.766   1.695
55288W        W21719  15.292  11.343  13.472
55289W        W21720  16.502  12.018  13.562
55290W        W21721  14.806  44.218  12.481
55291W        W21722  34.907  37.378  11.632
55292W        W21723  17.362  21.147   4.979
55293W        W21724  24.374  39.091  10.277
55294W        W21725   4.079  17.488  13.917
55295W        W21726  18.032  16.347  10.867
55296W        W21727  17.007  42.558   4.109
55297W        W21728  31.125  41.825   2.306
55298W        W21729  11.610  40.449  13.504
55299W        W21730  40.500   6.429  11.189
55300W        W21731  38.487  19.921   0.951
55301W        W21732  30.155  29.174   2.260
55302W        W21733  37.344  28.963   1.806
55303W        W21734  26.245  31.000   2.443
55304W        W21735  25.190  12.090  13.058
55305W        W21736  28.016  28.318   1.404
55306W        W21737  36.575  35.856   0.737
55307W        W21738  30.956  43.400  13.599
55308W        W21739   5.785  30.669  14.551
55309W        W21740  41.211   7.667  13.042
55310W        W21741  37.425  28.750  14.922
55311W        W21742  31.857  34.663   3.778
55312W        W21743  21.777  16.791  12.198
55313W        W21744   6.835  13.616   4.253
55314W        W21745   1.323  19.790   2.275
55315W        W21746  27.860  20.510   3.897
55316W        W21747  28.919  30.653   2.792
55317W        W21748   3.329  41.586   3.184
55318W        W21749  28.431  40.997   0.460
55319W        W21750  11.854  14.506  10.958
55320W        W21751   7.704  44.187  12.876
55321W        W21752   3.725  25.986  12.887
55322W        W21753  34.409  34.873  13.124
55323W        W21754  29.070   7.774  10.273
55324W        W21755  17.611  18.946   3.349
55325W        W21756  18.823  35.705  10.937
55326W        W21757  34.421  29.168   1.238
55327W        W21758  41.313   9.427  11.866
55328W        W21759  27.043  44.739   4.086
55329W        W21760  41.296  19.638   2.781
55330W        W21761  22.558  15.597   1.901
55331W        W21762  24.081  40.413  11.234
55332W        W21763  28.001  32.669   3.178
55333W        W21764   6.434  34.964  14.347
55334W        W21765  16.198  41.547  14.590
55335W        W21766  15.354  16.604  12.450
55336W        W21767  19.037  16.732  14.785
55337W        W21768   2.424  42.459  12.678
55338W        W21769  23.393  13.310  10.650
55339W        W21770  35.624  27.051  10.801
55340W        W21771   7.834  37.492   0.662
55341W        W21772   6.704  41.556   4.284
55342W        W21773  17.513   1.311  11.174
55343W        W21774  38.545   9.709  14.821
55344W        W21775  27.884  38.882  10.952
55345W        W21776  33.359   6.282  14.362
55346W        W21777  20.588  19.508  12.860
55347W        W21778  17.071  10.809  11.485
55348W        W21779  26.193   8.681   1.277
55349W        W21780  43.450  41.306  12.472
55350W        W21781  10.115   3.402  14.770
55351W        W21782  10.517  28.297   2.751
55352W        W21783   9.123  17.080  12.451
55353W        W21784   9.904  30.413   2.289
55354W        W21785   6.940  20.075   4.271
55355W        W21786  42.781  24.721   2.689
55356W        W21787   0.820  38.399  10.717
55357W        W21788  30.406  32.484   3.687
55358W        W21789   6.383  24.500  14.535
55359W        W21790  27.185  41.858  13.517
55360W        W21791  40.207  34.537  13.708
55361W        W21792  31.917  12.593   1.616
55362W        W21793  14.350   1.273   0.400
55363W        W21794  21.329   7.586  12.054
55364W        W21795   5.595  30.489  12.494
55365W        W21796   1.276  41.776  13.617
55366W        W21797  35.433   1.266  11.798
55367W        W21798  44.773  30.474  14.119
55368W        W21799  21.111  42.800   3.106
55369W        W21800  14.958  28.457   3.536
55370W        W21801  12.771  38.887  11.724
55371W        W21802   7.534  34.944  11.978
55372W        W21803  38.277  23.302   4.165
55373W        W21804  16.498  14.652  12.046
55374W        W21805  31.658  20.310  12.155
55375W        W21806  35.810  43.255   3.897
55376W        W21807  29.995  25.934  11.470
55377W        W21808  27.891  24.897  10.354
55378W        W21809  28.426  36.570  10.531
55379W        W21810   6.340  30.032  14.438
55380W        W21811  23.265  34.999  14.460
55381W        W21812  34.075  36.499  11.719
55382W        W21813  31.695  13.379   4.117
55383W        W21814   4.973  35.902   0.526
55384W        W21815   5.751  20.810  10.279
55385W        W21816   5.600  42.463  13.525
55386W        W21817  29.176  34.903   2.940
55387W        W21818   1.015  43.026   3.723
55388W        W21819  14.431  29.947   4.215
55389W        W21820  21.022   8.590  10.550
55390W        W21821  16.859   3.409   9.982
55391W        W21822  22.825  42.028   2.278
55392W        W21823   8.820  43.742  11.189
55393W        W21824  25.950  42.927  10.953
55394W        W21825  37.398  17.572   1.831
55395W        W21826  22.401   0.650  14.048
55396W        W21827  43.489  32.705  14.058
55397W        W21828  35.896   1.048   0.676
55398W        W21829   6.703  12.215  14.263
55399W        W21830   5.038  33.874  14.097
55400W        W21831  41.853  36.401   4.826
55401W        W21832   3.068  23.564   1.703
55402W        W21833  14.072  11.061   3.818
55403W        W21834   0.044   4.653   2.600
55404W        W21835  19.685  29.623  10.777
55405W        W21836   8.175  31.904  13.851
55406W        W21837   7.964  38.800   3.532
55407W        W21838  21.669  16.328   3.298
55408W        W21839  32.369  33.142   2.400
55409W        W21840  40.048  10.246  10.780
55410W        W21841  32.260  21.827  11.426
55411W        W21842  21.411   2.439   0.761
55412W        W21843  35.507   6.156  10.599
55413W        W21844   5.750  14.778   2.756
55414W        W21845  36.408   4.370   0.463
55415W        W21846  23.999  38.798   3.096
55416W        W21847   8.835  23.642  11.244
55417W        W21848  33.379  33.626   4.977
55418W        W21849  23.480  28.629   4.525
55419W        W21850  33.537  20.247  13.582
55420W        W21851  24.077   9.212   3.925
55421W        W21852  21.420  24.088  13.554
55422W        W21853  41.534  10.156   2.256
55423W        W21854  22.604  17.641   2.787
55424W        W21855  18.411  12.508   2.638
55425W        W21856  42.478  17.524   1.688
55426W        W21857  19.191  30.026   0.655
55427W        W21858  42.539  36.663   4.286
55428W        W21859   3.882   5.819  10.727
55429W        W21860  36.131   8.183   3.171
55430W        W21861  31.830   4.000   1.939
55431W        W21862  41.813  44.288   1.726
55432W        W21863   0.221  19.542   1.352
55433W        W21864  12.150  37.480   4.247
55434W        W21865  27.000  20.050  12.494
55435W        W21866  37.845  26.398   0.770
55436W        W21867   4.772  37.608  12.127
55437W        W21868  21.332  18.823   1.328
55438W        W21869  39.315  17.474  12.932
55439W        W21870   8.425  25.234   3.747
55440W        W21871   7.304  19.666  13.480
55441W        W21872  18.730  30.616   4.093
55442W        W21873   8.210  27.593   2.463
55443W        W21874  37.949   5.257   3.254
55444W        W21875  44.224  43.838  10.463
55445W        W21876  32.588  27.432   4.198
55446W        W21877  37.977  34.456   3.262
55447W        W21878  42.459  24.794  13.488
55448W        W21879   6.038  10.054   3.664
55449W        W21880  35.581  18.811   1.850
55450W        W21881  10.455  23.799  14.441
55451W        W21882   9.360  38.349   0.894
55452W        W21883  18.706  32.133  12.083
55453W        W21884  38.316  11.816   4.084
55454W        W21885  16.631   3.067   5.029
55455W        W21886  39.454  29.410   2.159
55456W        W21887   0.198  27.521  11.023
55457W        W21888  36.104  22.297  14.897
55458W        W21889   2.690  16.188   3.596
55459W        W21890  37.375   8.330  13.094
55460W        W21891  26.075  35.634  12.350
55461W        W21892  20.682  39.138  12.217
55462W        W21893   7.153  21.488   2.781
55463W        W21894  44.448  44.410  13.673
55464W        W21895  28.567  43.934  12.885
55465W        W21896  43.583  20.124   4.940
55466W        W21897  23.561  13.683  13.378
55467W        W21898  13.814  39.498  10.762
55468W        W21899   2.152  18.011   4.655
55469W        W21900   2.532  14.288  14.295
55470W        W21901  17.582  21.030  14.061
55471W        W21902   5.022  29.599  12.466
55472W        W21903  32.660  40.500   2.180
55473W        W21904  11.495  34.315  12.511
55474W        W21905   8.714   5.776  10.721
55475W        W21906  20.466  24.341  12.581
55476W        W21907  20.825  43.915  13.362
55477W        W21908  35.504  28.384   0.994
55478W        W21909  37.617   8.746  13.447
55479W        W21910  23.242   1.738   4.551
55480W        W21911  44.448   5.217   2.997
55481W        W21912  19.614  31.162  10.587
55482W        W21913  35.523  35.858   0.367
55483W        W21914  36.455  30.486   1.456
55484W        W21915  10.232  20.228  11.165
55485W        W21916  24.722   2.793   0.692
55486W        W21917   9.806  32.664  14.370
55487W        W21918  39.119  40.846   1.454
55488W        W21919   4.202   7.402  12.132
55489W        W21920  28.600   5.623   4.206
55490W        W21921  38.261  27.494  13.468
55491W        W21922  24.353  25.065  14.608
55492W        W21923  42.417  12.388   3.136
55493W        W21924  29.466   9.254  12.077
55494W        W21925  12.850  16.100   2.205
55495W        W21926  14.783  19.409   2.210
55496W        W21927  18.495  39.550   4.017
55497W        W21928  31.255  32.747  11.618
55498W        W21929   2.295  27.169  13.894
55499W        W21930  37.721  13.301   4.001
55500W        W21931  21.592  44.448   3.470
55501W        W21932  37.845  44.353  14.514
55502W        W21933   0.505  17.752  12.076
55503W        W21934  21.640  25.270  10.806
55504W        W21935   5.100  32.192  12.934
55505W        W21936  37.956  37.765  10.230
55506W        W21937  34.991  25.280  13.412
55507W        W21938  30.583   2.502  13.360
55508W        W21939  26.527  39.764  10.130
55509W        W21940  20.387   9.597   2.871
55510W        W21941   2.445  10.799   0.361
55511W        W21942  19.055  42.399   2.758
55512W        W21943  17.075  34.140  14.304
55513W        W21944   1.330   6.294   4.188
55514W        W21945  34.897  28.664   2.656
55515W        W21946  38.192  20.615  12.955
55516W        W21947  22.645  28.975   4.097
55517W        W21948   5.019  42.621   9.764
55518W        W21949  13.372   3.401   0.815
55519W        W21950  14.054  39.352  11.561
55520W        W21951  10.778  10.823  13.693
55521W        W21952  42.949  13.801  14.031
55522W        W21953   9.988   7.727   3.691
55523W        W21954  13.889  36.830  12.372
55524W        W21955  31.094  38.022  12.982
55525W        W21956  32.599  32.545  12.189
55526W        W21957  11.232  42.671  14.334
55527W        W21958  10.320  23.260   3.013
55528W        W21959  17.348  24.212  13.010
55529W        W21960  23.429  17.856  11.611
55530W        W21961   6.765  22.599   1.373
55531W        W21962  33.225  44.117   0.877
55532W        W21963  26.415  16.289   1.311
55533W        W21964  36.146  30.437   3.259
55534W        W21965  34.657  19.163  12.967
55535W        W21966  39.756  23.760   0.121
55536W        W21967  16.163  32.120   1.820
55537W        W21968   0.956  24.951  14.821
55538W        W21969   6.844  12.056   4.174
55539W        W21970  35.824  11.518   4.142
55540W        W21971  23.194  34.306   1.306
55541W        W21972  20.183   2.678  12.995
55542W        W21973  17.298  32.622  13.556
55543W        W21974   9.772   2.357  14.481
55544W        W21975  24.600  32.169  13.919
55545W        W21976   1.816   4.944  10.601
55546W        W21977  37.841  27.735   0.727
55547W        W21978  18.687   5.965  10.722
55548W        W21979   9.829  10.330  12.879
55549W        W21980   5.839  25.912  12.658
55550W        W21981   4.892   1.718   4.429
55551W        W21982  33.725  13.864  13.848
55552W        W21983  33.034   1.364  13.331
55553W        W21984  11.163  28.265   1.320
55554W        W21985  21.317  20.598  11.512
55555W        W21986  17.019   8.138  14.997
55556W        W21987  18.196  18.650   4.467
55557W        W21988   8.438  34.420   4.216
55558W        W21989  14.498  13.095   2.860
55559W        W21990   1.972   6.882  11.660
55560W        W21991   0.541  12.900   0.218
55561W        W21992  11.135  26.201  12.882
55562W        W21993   9.091  33.902  11.040
55563W        W21994  41.549  14.716   4.471
55564W        W21995  21.988   9.839  13.806
55565W        W21996  11.790  27.381  14.736
55566W        W21997  44.522  30.023  14.020
55567W        W21998   8.053   1.702  13.633
55568W        W21999  15.783  27.545  12.005
55569W        W22000  20.691  29.564   4.458
55570W        W22001  31.563   0.298   2.948
55571W        W22002  42.022  12.806   0.488
55572W        W22003  21.699  29.503   2.643
55573W        W22004   7.187   3.980  11.458
55574W        W22005  43.426  39.324  12.608
55575W        W22006  31.838  18.051   2.085
55576W        W22007   9.784  31.380   2.293
55577W        W22008  28.720  35.869  12.938
55578W        W22009  36.334  10.281  13.500
55579W        W22010  39.153  27.052   1.449
55580W        W22011  21.493  17.758   3.152
55581W        W22012  21.001  36.933  13.574
55582W        W22013  25.510  12.137  10.640
55583W        W22014   4.868  27.654  13.116
55584W        W22015  18.572  13.569  12.034
55585W        W22016   3.943   3.046   0.526
55586W        W22017   3.184  34.555   2.375
55587W        W22018  35.112  39.220   3.147
55588W        W22019  23.987  10.234   0.727
55589W        W22020  31.677   2.848   0.480
55590W        W22021   7.177  30.700   0.433
55591W        W22022  11.163  39.853  12.414
55592W        W22023  10.426   9.741   9.971
55593W        W22024  20.788   7.157  12.445
55594W        W22025   0.329  22.974   3.499
55595W        W22026  13.128  41.447   0.333
55596W        W22027   0.294  28.406  14.142
55597W        W22028  20.230  42.773  11.534
55598W        W22029  30.360  40.325   1.229
55599W        W22030  27.311  42.424   4.914
55600W        W22031  42.497  40.247   3.244
55601W        W22032  42.027  33.418  14.225
55602W        W22033  11.284  27.530   0.761
55603W        W22034   7.493   1.959  10.307
55604W        W22035   6.155  33.625  14.250
55605W        W22036  23.097  23.999   0.848
55606W        W22037  17.740  44.848  12.021
55607W        W22038  25.011  32.305  13.627
55608W        W22039  15.639  27.165  13.151
55609W        W22040  37.530  43.790   1.433
55610W        W22041  20.710  31.677  10.727
55611W        W22042  35.623  14.056  13.355
55612W        W22043  15.211  10.417   3.195
55613W        W22044   9.175  39.383  13.850
55614W        W22045  31.370  37.281  10.692
55615W        W22046  28.560  36.123  10.794
55616W        W22047   2.627  34.840   1.856
55617W        W22048  16.012   8.346  14.999
55618W        W22049  38.330  30.056  13.840
55619W        W22050  22.237  22.980  12.072
55620W        W22051   8.841  15.052   1.129
55621W        W22052  39.814   0.289  10.455
55622W        W22053  35.441   6.747  11.987
55623W        W22054  15.572  38.105  13.934
55624W        W22055   0.975   1.449  13.760
55625W        W22056  27.636  43.897  11.116
55626W        W22057  17.058   6.242   0.234
55627W        W22058  21.087   0.487  14.528
55628W        W22059   3.754  35.353  12.534
55629W        W22060  21.162   5.744   0.364
55630W        W22061  21.764   3.547   4.030
55631W        W22062  16.199   3.999  12.158
55632W        W22063   1.276  19.715  11.868
55633W        W22064  13.404  16.726   1.736
55634W        W22065  32.501   9.327  11.346
55635W        W22066  16.996  25.695  11.067
55636W        W22067   1.512  43.953  12.145
55637W        W22068  37.146  40.430  11.140
55638W        W22069   8.784  13.876  11.952
55639W        W22070  32.835  40.374  12.402
55640W        W22071  11.848   1.242  14.369
55641W        W22072  10.090  23.575  10.923
55642W        W22073  40.846   2.547   1.770
55643W        W22074   4.027  26.937  13.489
55644W        W22075  34.815  28.736   3.618
55645W        W22076   8.659  37.877   3.020
55646W        W22077   3.837   7.629   3.141
55647W        W22078  23.708  30.183   1.367
55648W        W22079  26.955   2.665  14.475
55649W        W22080  34.197  15.289   4.893
55650W        W22081  36.816  15.360  13.873
55651W        W22082  43.709  26.292  14.965
55652W        W22083  37.090  44.245   2.223
55653W        W22084  27.951  26.662  12.346
55654W        W22085  13.269  19.205  14.587
55655W        W22086   7.342  43.018   0.013
55656W        W22087  17.134  37.726   4.509
55657W        W22088  38.777  35.589   1.747
55658W        W22089  30.000  35.898   3.339
55659W        W22090  29.182  25.600   4.316
55660W        W22091  20.454   9.341  11.319
55661W        W22092  21.607  16.594   2.698
55662W        W22093   2.921  34.103   2.306
55663W        W22094  31.510  34.833  13.386
55664W        W22095  29.583  23.325  13.447
55665W        W22096   4.721  12.874  12.348
55666W        W22097  13.305  15.646   0.394
55667W        W22098  37.859   0.563   2.988
55668W        W22099   4.441  16.390  10.265
55669W        W22100  20.016  24.563   4.706
55670W        W22101   3.434  19.059   2.595
55671W        W22102   4.107  15.048  12.045
55672W        W22103  32.613  22.131  11.165
55673W        W22104  33.074  22.503   2.941
55674W        W22105   2.962  24.608  13.458
55675W        W22106   1.881  36.544  11.966
55676W        W22107   1.647   4.865  14.574
55677W        W22108  24.313  16.659   3.599
55678W        W22109  17.016  20.138  14.943
55679W        W22110  34.367  30.478   0.758
55680W        W22111  16.338  44.970  11.949
55681W        W22112   2.662   1.922  12.392
55682W        W22113  42.204   1.725  11.659
55683W        W22114  41.431   0.048   1.474
55684W        W22115  31.388  34.547  11.905
55685W        W22116  11.385   0.399  12.096
55686W        W22117  39.456  39.481  13.282
55687W        W22118  17.539  42.464   4.077
55688W        W22119  11.627  41.426  11.144
55689W        W22120  40.081  17.209  12.520
55690W        W22121  24.927  20.275   4.130
55691W        W22122  26.983  40.084  12.845
55692W        W22123  28.834  37.124   2.331
55693W        W22124  35.883  43.019   2.684
55694W        W22125  19.014  33.518   3.682
55695W        W22126   4.446  42.073  13.288
55696W        W22127  24.557  12.126  13.827
55697W        W22128  34.146  16.224   4.569
55698W        W22129  28.056  23.017   0.833
55699W        W22130  38.759  44.791   2.751
55700W        W22131  14.245  31.097   0.373
55701W        W22132   7.930  11.828   2.971
55702W        W22133  30.688   6.351   3.646
55703W        W22134  32.942  13.157  11.576
55704W        W22135  12.432  13.106  13.486
55705W        W22136  26.741  18.117  13.348
55706W        W22137  30.899  39.970   3.173
55707W        W22138  42.420  39.953   0.904
55708W        W22139  29.520  43.545  11.064
55709W        W22140   2.274  30.555  12.159
55710W        W22141   4.758  29.555  14.259
55711W        W22142  24.112  22.030  14.350
55712W        W22143   1.306  24.245   4.718
55713W        W22144  37.932  35.548  14.785
55714W        W22145  29.483   8.376   1.899
55715W        W22146   5.138   6.590  12.495
55716W        W22147  10.382   5.648   3.232
55717W        W22148   0.839  38.668   3.088
55718W        W22149  14.825  25.019  12.042
55719W        W22150  10.619   4.348  12.563
55720W        W22151  18.797  23.659   4.939
55721W        W22152  40.485  41.877  14.817
55722W        W22153  40.778  38.067   2.320
55723W        W22154  38.173  41.340   0.958
55724W        W22155  44.153  24.290  12.561
55725W        W22156  15.307   6.617   0.328
55726W        W22157   5.177  26.217   4.799
55727W        W22158  19.758  19.717   4.828
55728W        W22159  19.589  39.371   5.288
55729W        W22160  26.505   8.756  10.321
55730W        W22161   4.296  25.649  14.669
55731W        W22162  16.745   9.564   2.048
55732W        W22163  36.488  13.418   4.583
55733W        W22164  18.635  37.116   2.016
55734W        W22165   2.393  15.922  11.122
55735W        W22166  12.306   4.171   1.684
55736W        W22167  10.337   5.379   2.748
55737W        W22168  44.288   9.958   4.266
55738W        W22169   5.782  25.063  10.797
55739W        W22170  11.762  37.970   0.469
55740W        W22171  21.150  37.997   4.646
55741W        W22172  42.797  23.653   1.252
55742W        W22173  12.998  32.884   3.258
55743W        W22174  30.129  11.033  11.918
55744W        W22175  24.784   3.842   2.679
55745W        W22176  11.901  15.884   0.817
55746W        W22177  22.615  15.696  12.360
55747W        W22178   9.399  40.244  11.584
55748W        W22179  29.206  38.121   0.866
55749W        W22180  20.233  23.298   1.410
55750W        W22181   7.712  33.112  14.001
55751W        W22182  14.139   6.226  14.220
55752W        W22183   3.890  26.239   1.457
55753W        W22184   4.716   7.892   3.607
55754W        W22185  33.213  24.013   3.609
55755W        W22186  35.370   1.762  11.647
55756W        W22187   7.254  29.352  14.850
55757W        W22188  21.632   7.610   1.454
55758W        W22189  24.528  18.073  12.232
55759W        W22190   5.665   5.659   3.658
55760W        W22191  34.166  41.888   4.497
55761W        W22192  18.159  40.295   4.634
55762W        W22193  20.471  22.308   4.231
55763W        W22194   8.838  13.704   1.091
55764W        W22195  20.297  10.361   2.190
55765W        W22196  22.501   2.371  12.820
55766W        W22197  13.651  42.290   4.096
55767W        W22198  32.016  41.680   1.268
55768W        W22199  27.259  30.295   0.861
55769W        W22200  40.879  35.037   4.523
55770W        W22201  15.505  22.986   0.291
55771W        W22202  36.545   0.563   4.519
55772W        W22203  40.783  23.139   1.007
55773W        W22204  38.282   3.302   3.813
55774W        W22205   8.932  38.548  14.847
55775W        W22206  42.835  27.989  14.976
55776W        W22207  15.622  34.295   4.537
55777W        W22208  40.231  35.632   1.797
55778W        W22209  31.404  20.634  13.961
55779W        W22210  30.866  42.560   2.882
55780W        W22211  12.866  16.199   2.985
55781W        W22212  42.696  15.560  14.948
55782W        W22213   3.426  21.054  10.121
55783W        W22214  38.981  40.437  13.413
55784W        W22215   1.791  17.851   1.557
55785W        W22216  10.189  39.034  12.516
55786W        W22217  27.978  26.259  11.044
55787W        W22218  40.842  23.718   3.720
55788W        W22219  41.287  37.301  12.537
55789W        W22220  19.962  11.750  13.236
55790W        W22221  23.143   9.706  14.771
55791W        W22222  26.163  32.491   2.773
55792W        W22223  25.631  12.952   4.628
55793W        W22224  13.809  24.397  12.612
55794W        W22225  43.966  27.552  14.974
55795W        W22226  18.055  10.627  11.350
55796W        W22227  14.088  33.408   4.620
55797W        W22228  35.451   6.407   1.681
55798W        W22229  27.539   9.758  13.955
55799W        W22230  29.275  29.852   0.919
55800W        W22231  17.533  25.085  11.511
55801W        W22232  42.988   6.368   4.214
55802W        W22233  28.880  22.893   3.912
55803W        W22234  42.381  16.161   2.583
55804W        W22235  42.045   0.361   4.734
55805W        W22236  18.721  34.556  12.195
55806W        W22237  33.481  43.214   1.830
55807W        W22238  24.694  43.705   4.000
55808W        W22239  33.399   3.335   3.625
55809W        W22240  35.546  14.624   4.165
55810W        W22241  41.794  15.894  12.065
55811W        W22242  35.261  17.102   1.250
55812W        W22243  13.731  11.753   0.612
55813W        W22244  31.772  18.048   3.588
55814W        W22245   8.807  29.527   0.981
55815W        W22246  26.779   4.642   0.042
55816W        W22247  28.896   1.885   3.299
55817W        W22248  38.126  38.201   0.811
55818W        W22249  15.056   1.496  13.658
55819W        W22250  41.232  32.774  13.232
55820W        W22251  35.937  34.664   4.541
55821W        W22252   5.879  10.336  14.971
55822W        W22253   4.412  11.715   1.166
55823W        W22254  18.980  34.986  13.053
55824W        W22255  33.145  19.539   0.421
55825W        W22256  44.507  20.504  11.931
55826W        W22257  29.496  11.624   2.300
55827W        W22258  23.500  40.285  14.541
55828W        W22259  14.520  37.487  14.273
55829W        W22260  44.523  38.860  10.454
55830W        W22261  30.888  19.270   0.492
55831W        W22262  43.639  39.446   0.566
55832W        W22263   1.404  19.735   3.153
55833W        W22264  44.729  14.287  11.618
55834W        W22265  32.874   0.193   2.153
55835W        W22266  26.583  42.807   2.214
55836W        W22267  13.617  42.967  10.729
55837W        W22268  43.645   9.875  11.972
55838W        W22269   0.303  32.691  14.980
55839W        W22270   4.222  27.456   0.325
55840W        W22271  21.747  43.057   4.180
55841W        W22272  11.265  42.496   1.854
55842W        W22273  14.258  21.888  14.885
55843W        W22274  24.329  11.244  12.282
55844W        W22275  28.584  44.268   4.113
55845W        W22276  32.787  12.150  13.018
55846W        W22277   7.547  15.676   2.062
55847W        W22278  31.140  11.273  13.257
55848W        W22279  27.699  43.802   0.820
55849W        W22280  14.012  22.987  10.283
55850W        W22281  15.648  19.967   3.904
55851W        W22282  33.108  21.738   1.425
55852W        W22283  27.064   0.752   3.486
55853W        W22284  28.602  32.044  12.087
55854W        W22285   6.300  27.261  12.560
55855W        W22286   0.328  32.851  14.494
55856W        W22287  35.723  36.372  13.639
55857W        W22288   6.515  24.743   2.189
55858W        W22289  37.100  11.952  14.998
55859W        W22290  19.357  33.483  12.374
55860W        W22291  41.794  26.512   2.844
55861W        W22292   2.573  19.686  12.601
55862W        W22293   1.721  26.658  11.090
55863W        W22294   4.886  18.965   4.203
55864W        W22295  15.085  44.352  14.787
55865W        W22296  36.806  30.295   4.369
55866W        W22297   6.261   3.732   3.754
55867W        W22298   4.206  26.009   3.784
55868W        W22299   6.735  10.513  12.998
55869W        W22300  34.979  44.778  13.277
55870W        W22301   1.681   4.340  11.128
55871W        W22302  37.019  40.849   3.861
55872W        W22303   2.263  33.275   3.109
55873W        W22304  25.032  20.866   2.871
55874W        W22305  36.771  43.822   2.310
55875W        W22306  31.478  12.600  13.286
55876W        W22307  20.544   2.910   4.646
55877W        W22308  15.725  24.647   3.412
55878W        W22309  21.861  23.978  11.271
55879W        W22310  32.046   0.739  11.623
55880W        W22311  17.221   4.667  11.509
55881W        W22312  40.251  13.792  11.203
55882W        W22313   2.767  35.865  14.957
55883W        W22314  37.855  32.936  14.211
55884W        W22315  21.511  21.464   3.690
55885W        W22316  12.854  28.842   4.901
55886W        W22317  17.665  21.311   4.538
55887W        W22318  31.550  36.881  11.009
55888W        W22319  43.100  43.569  11.217
55889W        W22320   2.254  25.618   1.569
55890W        W22321   2.446  44.780  14.848
55891W        W22322   7.257  10.358   1.835
55892W        W22323  10.884  14.074  10.512
55893W        W22324  32.060  40.426   1.897
55894W        W22325  40.473  36.312   4.144
55895W        W22326  16.537  43.335  11.648
55896W        W22327  24.666  43.550   1.415
55897W        W22328  32.107   5.012   2.236
55898W        W22329  29.156  14.609  13.308
55899W        W22330  33.099  28.047  13.880
55900W        W22331   2.856  23.472  11.555
55901W        W22332  23.076   6.789  10.914
55902W        W22333  16.892   5.408   1.209
55903W        W22334   2.398  43.284   4.862
55904W        W22335   9.470   7.231   3.695
55905W        W22336  15.998   5.736  12.962
55906W        W22337  25.668   4.431   1.291
55907W        W22338  23.644  29.494  11.173
55908W        W22339   8.123  41.054   2.197
55909W        W22340  34.670  39.195  12.419
55910W        W22341  18.339   3.520   4.002
55911W        W22342  28.035   4.050   4.409
55912W        W22343  37.992  38.697   0.924
55913W        W22344  24.046  27.530   4.093
55914W        W22345  23.280  16.365  10.703
55915W        W22346   5.385  42.119  13.047
55916W        W22347  27.965   5.933  14.924
55917W        W22348   9.206   4.988  11.066
55918W        W22349  15.338   4.513  14.390
55919W        W22350   9.559  19.017  14.114
55920W        W22351  43.443  23.471  13.002
55921W        W22352  15.783  28.583  12.996
55922W        W22353  25.709   1.333  11.780
55923W        W22354  44.904  27.463  13.283
55924W        W22355   1.414  15.709   4.733
55925W        W22356  42.061  24.424  12.223
55926W        W22357  10.749   7.895  12.186
55927W        W22358  29.953  38.794  13.063
55928W        W22359   9.644   8.790  13.301
55929W        W22360   7.331  41.069  13.901
55930W        W22361  29.497  18.985  12.080
55931W        W22362  26.690  21.163   1.690
55932W        W22363  24.323  38.094   1.995
55933W        W22364  18.275  33.933   2.170
55934W        W22365  32.636   9.591  14.223
55935W        W22366  11.384   3.896   4.054
55936W        W22367  31.102  24.992   0.588
55937W        W22368  43.036   0.341  12.820
55938W        W22369  23.560  23.438  11.745
55939W        W22370  11.268  43.936   3.992
55940W        W22371  22.213   2.110  11.887
55941W        W22372   0.441   7.295   4.848
55942W        W22373   5.027   5.902  10.614
55943W        W22374  25.571  22.962  14.992
55944W        W22375   4.028  39.525  13.888
55945W        W22376  21.258  34.192   1.393
55946W        W22377  12.133  18.121  14.881
55947W        W22378  32.374  30.280  13.494
55948W        W22379  19.272  19.202   2.140
55949W        W22380  28.002  19.526  14.887
55950W        W22381  10.313  25.610  10.751
55951W        W22382  40.026  11.972  14.677
55952W        W22383  27.248  36.804   3.285
55953W        W22384  21.502  42.272   0.132
55954W        W22385  13.696  22.817  12.957
55955W        W22386  10.313  32.767  14.423
55956W        W22387  39.919  35.095   0.977
55957W        W22388  20.087   5.976   3.342
55958W        W22389  34.689  24.844   4.036
55959W        W22390  20.391   8.915  14.148
55960W        W22391   6.838   6.453  14.080
55961W        W22392  20.626  44.394   3.098
55962W        W22393  10.309  23.780   1.685
55963W        W22394  43.011  39.125  10.942
55964W        W22395   9.948  32.809  11.904
55965W        W22396   5.873  12.837  14.489
55966W        W22397  27.876  26.757  11.101
55967W        W22398  41.208  33.067   2.700
55968W        W22399  22.447  41.438  11.260
55969W        W22400  30.139  41.866  12.136
55970W        W22401  11.745  23.148  10.823
55971W        W22402  41.490  21.926   2.357
55972W        W22403  36.949  31.178  11.631
55973W        W22404  31.684   9.610   3.597
55974W        W22405  36.151  25.175  11.506
55975W        W22406  31.946   5.786  13.763
55976W        W22407  18.416  44.502   0.853
55977W        W22408   5.822   6.770   4.490
55978W        W22409   2.938  42.981  14.738
55979W        W22410  11.771  38.877   2.156
55980W        W22411  11.774  37.693   0.951
55981W        W22412  33.870  16.968   1.864
55982W        W22413  14.283  17.227  10.057
55983W        W22414  39.994  11.577  11.157
55984W        W22415   6.385  33.177  11.700
55985W        W22416  21.210  42.150  12.928
55986W        W22417  23.710   5.750  12.632
55987W        W22418   5.652  31.913   1.000
55988W        W22419   0.762  42.596  13.463
55989W        W22420  39.015  25.507  12.584
55990W        W22421   7.227  22.121  12.950
55991W        W22422  25.535   1.334  12.836
55992W        W22423   9.382  34.353   1.726
55993W        W22424  13.834  14.882   4.777
55994W        W22425  19.871  13.264  11.932
55995W        W22426  22.673   8.368  14.856
55996W        W22427  30.058   4.330  13.293
55997W        W22428  21.920  17.628   4.467
55998W        W22429  16.093  38.875   3.325
55999W        W22430   7.453  10.379  13.356
56000W        W22431  33.519  21.205  10.061
56001W        W22432  40.417  20.774  11.273
56002W        W22433  44.349  44.706   5.080
56003W        W22434  39.811  43.468  10.791
56004W        W22435  19.771   3.946  12.635
56005W        W22436  13.331  36.163  14.931
56006W        W22437   7.149  31.545  13.299
56007W        W22438   2.715  19.569   3.439
56008W        W22439  29.986  30.513   2.209
56009W        W22440   7.169  16.080  13.344
56010W        W22441   4.019   7.342   2.725
56011W        W22442  24.448  40.592   2.417
56012W        W22443  36.522  36.930   0.771
56013W        W22444  34.628  25.568   0.436
56014W        W22445  19.045   5.639   2.205
56015W        W22446  25.483  20.223   3.232
56016W        W22447  40.469   1.251  13.904
56017W        W22448  18.761  39.723   0.820
56018W        W22449  13.220  41.736  12.237
56019W        W22450  21.078   8.195   2.846
56020W        W22451  16.218   7.434  12.607
56021W        W22452   7.693  27.216   4.612
56022W        W22453  41.285  29.630  14.082
56023W        W22454   7.015  27.481  13.826
56024W        W22455   1.194  27.368  11.974
56025W        W22456   9.246  19.588  12.332
56026W        W22457   2.415  16.430  11.199
56027W        W22458  39.685  35.817   1.891
56028W        W22459   0.298   0.898  10.666
56029W        W22460   4.297  22.680  11.135
56030W        W22461  24.188   0.841   4.045
56031W        W22462   4.500  28.680   0.804
56032W        W22463  16.608  13.205  14.315
56033W        W22464  24.520  15.275   3.674
56034W        W22465  44.592  29.422  13.083
56035W        W22466  25.153  36.358   1.793
56036W        W22467   3.085   3.843   1.729
56037W        W22468  21.256   4.431  11.977
56038W        W22469   6.830  26.603  13.946
56039W        W22470   7.852  19.287   2.395
56040W        W22471  17.017   6.089   0.743
56041W        W22472  40.340  23.477   4.420
56042W        W22473  30.053  21.815   2.721
56043W        W22474  27.926  32.554   0.339
56044W        W22475  13.327  37.061  11.950
56045W        W22476  35.392   7.933   3.609
56046W        W22477  37.694  43.190  12.500
56047W        W22478   6.614  15.300   4.925
56048W        W22479  25.243  35.847   2.348
56049W        W22480  43.251   3.495   3.209
56050W        W22481  13.837  41.331  14.592
56051W        W22482   7.100  35.876  14.817
56052W        W22483  43.806  44.974   4.544
56053W        W22484  25.798   4.865   4.168
56054W        W22485  40.969  35.416  11.044
56055W        W22486  19.505   2.921   4.596
56056W        W22487  25.265  18.070   4.993
56057W        W22488   1.224  17.751   2.376
56058W        W22489  36.147   0.716   4.854
56059W        W22490   0.263  29.093  14.918
56060W        W22491   8.628  39.275  13.547
56061W        W22492  41.719  35.997  10.070
56062W        W22493  36.583  15.533  10.775
56063W        W22494  42.940  44.718  11.604
56064W        W22495  42.287   6.879   0.292
56065W        W22496  24.447   7.281  10.625
56066W        W22497  22.915  22.648  13.313
56067W        W22498   2.158  21.761   2.112
56068W        W22499  19.974  27.930  11.508
56069W        W22500  12.721  29.587  11.406
56070W        W22501  15.824  11.366   4.980
56071W        W22502  14.536   3.264  11.399
56072W        W22503  14.791  15.594  11.967
56073W        W22504   2.002  13.065  11.228
56074W        W22505  30.391  29.737   2.782
56075W        W22506  18.292   1.385  12.505
56076W        W22507  39.965  19.449  12.486
56077W        W22508   6.592  39.093   3.740
56078W        W22509  44.007  42.639  10.622
56079W        W22510  23.488  14.925  14.541
56080W        W22511  23.004   9.735  13.817
56081W        W22512   6.418  40.389  14.566
56082W        W22513  35.171  39.855   0.766
56083W        W22514   7.399  42.217   0.420
56084W        W22515  18.624  10.314  13.566
56085W        W22516   3.944   7.419  13.416
56086W        W22517  42.511  41.484  12.480
56087W        W22518  22.531  24.650   1.376
56088W        W22519  31.254  20.992  12.588
56089W        W22520  30.271  33.517   2.680
56090W        W22521  17.178  14.007   1.714
56091W        W22522  21.278  44.238  12.098
56092W        W22523  44.506  35.060   4.079
56093W        W22524  19.624  37.781  11.535
56094W        W22525  13.326  32.435   2.306
56095W        W22526  35.876  28.226  10.774
56096W        W22527  12.111   4.831  14.259
56097W        W22528  38.614  32.930   0.727
56098W        W22529  30.613  38.732   4.766
56099W        W22530  22.672  17.135   1.953
56100W        W22531   1.502  38.989  13.179
56101W        W22532  11.454  20.268   0.593
56102W        W22533  36.826  34.970   2.211
56103W        W22534  19.994  11.843   0.813
56104W        W22535  42.272  23.589  13.052
56105W        W22536  31.013  22.604   4.031
56106W        W22537  14.085  26.935  11.969
56107W        W22538   2.560  19.546   1.845
56108W        W22539  33.649  37.404   1.098
56109W        W22540   0.567  11.876  12.961
56110W        W22541  39.068  24.513  14.742
56111W        W22542   1.272  27.554  14.440
56112W        W22543   9.237  35.090  14.958
56113W        W22544  43.846  19.121  12.872
56114W        W22545   7.243  23.259  12.920
56115W        W22546  20.261  21.635  14.359
56116W        W22547  24.440  15.535   5.334
56117W        W22548  31.293  17.148   3.742
56118W        W22549  14.081  41.923   1.769
56119W        W22550   1.733   0.614   0.106
56120W        W22551  27.046  35.436  11.121
56121W        W22552  24.023   9.414  14.360
56122W        W22553  39.518  41.970  11.140
56123W        W22554  40.065  18.153  14.589
56124W        W22555  11.499  35.117  11.665
56125W        W22556  26.436  23.538  13.432
56126W        W22557  41.106  24.125   3.522
56127W        W22558  32.416   1.089  11.641
56128W        W22559   2.256  18.022   1.475
56129W        W22560  36.926  20.139  11.785
56130W        W22561  44.581  32.747  13.037
56131W        W22562  29.600  33.010   2.719
56132W        W22563  20.451  10.190   3.137
56133W        W22564  19.565  35.696   1.809
56134W        W22565  14.997  35.994   0.191
56135W        W22566   0.788  28.544   3.904
56136W        W22567  29.907  25.375   1.053
56137W        W22568   8.793  42.792  11.969
56138W        W22569  20.835  40.997   0.881
56139W        W22570  17.334   9.234   4.230
56140W        W22571   7.914  43.918  13.805
56141W        W22572  33.200  22.935  13.327
56142W        W22573   2.575   1.192  12.799
56143W        W22574   5.246  35.307   1.281
56144W        W22575   2.025  26.617  10.659
56145W        W22576  43.809  24.316  12.941
56146W        W22577   2.817   5.312   1.322
56147W        W22578  25.412  39.782   0.050
56148W        W22579  38.130   2.719  11.198
56149W        W22580  30.980  30.420   3.673
56150W        W22581  23.010  28.640   3.200
56151W        W22582  34.834  34.328   1.870
56152W        W22583  34.502  44.709  13.531
56153W        W22584   2.878  40.087   3.337
56154W        W22585   0.921  15.633   4.606
56155W        W22586   7.496   0.734   1.209
56156W        W22587   3.323  24.916  14.557
56157W        W22588  27.241  41.178   2.257
56158W        W22589  39.498  42.692   3.060
56159W        W22590  27.453  20.630  13.843
56160W        W22591   3.909  27.038  11.523
56161W        W22592  16.113  14.236  13.383
56162W        W22593  37.535   8.498  13.940
56163W        W22594  17.581  37.740   0.891
56164W        W22595  26.115  28.369  12.562
56165W        W22596  43.272   2.771   1.839
56166W        W22597  25.045   0.786  13.110
56167W        W22598   3.855  30.048  14.879
56168W        W22599  13.169  27.506   4.039
56169W        W22600  37.007  34.477   3.241
56170W        W22601  11.646  27.882   0.679
56171W        W22602   4.483   6.276   0.580
56172W        W22603  25.205   2.934   0.904
56173W        W22604  26.853  28.123   0.339
56174W        W22605  39.761  32.445  14.231
56175W        W22606  23.555   5.313   3.075
56176W        W22607  17.198  31.866  13.868
56177W        W22608   5.216   2.012   0.374
56178W        W22609  43.394  34.372  10.652
56179W        W22610   8.775  44.928  13.309
56180W        W22611  44.109  34.292  14.346
56181W        W22612  21.675  31.534  11.622
56182W        W22613  15.116   3.297  14.580
56183W        W22614   1.253   3.237   2.314
56184W        W22615  29.866  29.086  11.025
56185W        W22616   4.358  24.996  13.939
56186W        W22617  16.890  15.705  10.370
56187W        W22618  15.415  32.442  14.780
56188W        W22619  26.451  39.793   3.884
56189W        W22620  38.850   4.238  14.358
56190W        W22621  43.789  40.868   4.167
56191W        W22622  12.351  16.210   2.178
56192W        W22623  42.996  11.860  14.291
56193W        W22624  34.024  13.304   2.770
56194W        W22625  28.040   4.501  14.029
56195W        W22626  18.203  15.665  13.577
56196W        W22627  26.049  33.511  11.564
56197W        W22628   1.443  30.817   0.038
56198W        W22629  22.591  19.805   0.361
56199W        W22630  35.916  25.700   4.537
56200W        W22631   5.918  37.422   3.795
56201W        W22632  23.526  10.791  12.685
56202W        W22633  28.247  41.065  12.673
56203W        W22634  29.033  39.857   4.022
56204W        W22635  17.718  31.576  12.909
56205W        W22636  37.775   5.541   2.307
56206W        W22637  12.281  22.204   1.327
56207W        W22638  19.204   8.902  11.155
56208W        W22639  26.451  12.181  14.751
56209W        W22640  23.678  23.943   4.290
56210W        W22641  25.064  27.967  11.955
56211W        W22642   6.845  23.807  11.058
56212W        W22643  39.354  32.836   2.948
56213W        W22644  33.380  34.024  10.620
56214W        W22645   7.397  10.803  10.650
56215W        W22646   4.324  11.584   4.614
56216W        W22647  17.100   6.310  13.307
56217W        W22648  41.029  21.717   2.367
56218W        W22649  14.408  20.454   1.395
56219W        W22650  22.414  42.043  11.552
56220W        W22651  26.429   3.917  11.614
56221W        W22652   4.177   5.377  10.728
56222W        W22653  18.746  38.876  11.124
56223W        W22654   8.590   0.434   3.146
56224W        W22655  22.718  34.449  14.590
56225W        W22656   6.148  30.051   1.403
56226W        W22657  33.519   1.431   0.614
56227W        W22658  33.179  14.754  10.881
56228W        W22659   4.943  11.131   4.093
56229W        W22660  44.628   1.999  13.457
56230W        W22661  32.403  34.898   3.139
56231W        W22662   9.140  38.527  12.002
56232W        W22663  39.310  42.833  13.125
56233W        W22664  25.106  19.552   2.245
56234W        W22665  33.340  14.740   2.453
56235W        W22666   1.833  17.300  14.614
56236W        W22667  38.802  17.690  12.567
56237W        W22668  16.693  23.166  13.791
56238W        W22669  29.919  17.675  10.687
56239W        W22670  23.528  32.032   4.477
56240W        W22671   4.256  20.072   1.486
56241W        W22672  26.902  35.576  12.993
56242W        W22673  27.152  10.641  14.303
56243W        W22674  30.902  41.562   1.931
56244W        W22675  35.011  42.081  13.063
56245W        W22676  34.628   0.686   4.553
56246W        W22677  43.070  26.102  12.934
56247W        W22678  14.070  28.243   2.711
56248W        W22679  22.655  16.751  11.398
56249W        W22680  14.905  29.582  12.959
56250W        W22681  23.416  40.289  10.760
56251W        W22682  40.789   9.836  14.013
56252W        W22683  13.351  23.017  13.307
56253W        W22684  36.993  19.330  12.882
56254W        W22685   1.799  34.581  14.954
56255W        W22686  31.523  16.321  13.638
56256W        W22687   7.006   3.308  11.153
56257W        W22688  31.128  10.176  13.004
56258W        W22689  32.175  36.612  13.393
56259W        W22690  37.418  36.725  12.965
56260W        W22691  23.415  23.519   4.284
56261W        W22692  44.925  40.438  12.111
56262W        W22693   9.354  41.504  12.171
56263W        W22694  10.340  25.148  11.679
56264W        W22695   4.829  27.702   2.196
56265W        W22696  20.245   2.488  13.931
56266W        W22697  31.144   5.224  13.426
56267W        W22698  19.482  20.719  12.105
56268W        W22699   6.981  11.475  12.714
56269W        W22700   3.848  38.444   1.345
56270W        W22701  27.504  33.464  12.208
56271W        W22702  41.468  35.386   4.129
56272W        W22703   6.692   7.435  10.395
56273W        W22704  44.160  43.499   0.779
56274W        W22705  11.891  38.814   3.250
56275W        W22706  13.895  34.178   2.850
56276W        W22707   6.814  44.062   4.212
56277W        W22708  11.195  23.633  14.738
56278W        W22709  16.607  12.378  13.046
56279W        W22710  35.581  15.856   2.041
56280W        W22711  30.743  10.288  14.336
56281W        W22712  23.838   5.391  11.355
56282W        W22713   9.081  37.702   3.768
56283W        W22714  32.556  25.259   4.503
56284W        W22715  12.932  41.012   3.963
56285W        W22716  33.443  15.767   1.125
56286W        W22717  22.146   7.104  12.982
56287W        W22718   3.881  26.937   4.533
56288W        W22719   5.217   2.334   3.964
56289W        W22720  23.080  27.172  12.497
56290W        W22721  43.762  21.758   1.259
56291W        W22722  42.987  12.277   1.068
56292W        W22723  32.573  39.068   0.447
56293W        W22724  13.828  17.232   2.285
56294W        W22725  17.494   4.318   0.062
56295W        W22726  39.346  33.978  12.600
56296W        W22727   5.310  12.142  14.549
56297W        W22728   7.854  25.576   1.188
56298W        W22729   3.082   1.631   2.423
56299W        W22730   2.016  39.355  10.656
56300W        W22731  27.097  38.911   4.787
56301W        W22732  43.779  26.699   0.892
56302W        W22733  32.514  22.693  13.806
56303W        W22734   6.230  10.435   1.254
56304W        W22735  21.151  12.942   0.951
56305W        W22736  17.183   1.115  12.550
56306W        W22737  31.421  34.122   3.741
56307W        W22738  21.761   8.248   1.990
56308W        W22739  20.665   4.340   3.079
56309W        W22740  43.775  43.823  13.283
56310W        W22741  20.028   2.304   4.199
56311W        W22742  39.929  42.033  10.371
56312W        W22743  27.651  14.604  13.520
56313W        W22744  30.572  17.194  13.100
56314W        W22745  20.122  10.844  11.580
56315W        W22746  17.212  23.194   3.995
56316W        W22747  12.611  24.657  12.081
56317W        W22748  37.602  11.863   0.102
56318W        W22749  29.900  43.982   0.199
56319W        W22750   0.290  25.636   2.260
56320W        W22751  36.293  37.494   5.312
56321W        W22752   2.506   9.279  11.642
56322W        W22753  40.476  27.909   0.982
56323W        W22754  23.663   5.882  14.325
56324W        W22755  41.601   4.657   0.003
56325W        W22756  22.030  23.086   0.749
56326W        W22757  16.034   7.226  10.484
56327W        W22758   9.366  21.144  11.657
56328W        W22759  37.368  43.854   3.345
56329W        W22760  14.188  36.009   4.799
56330W        W22761  37.459  42.839  10.454
56331W        W22762   1.650   3.026  13.367
56332W        W22763   0.009  34.507   2.155
56333W        W22764   1.475   1.713  10.480
56334W        W22765  12.422   5.278  10.710
56335W        W22766  31.020  27.680   4.857
56336W        W22767  13.037  12.471   0.892
56337W        W22768   8.421  16.302   0.845
56338W        W22769   8.919  31.976  14.296
56339W        W22770  21.942  41.822  12.662
56340W        W22771  16.089  38.711  10.004
56341W        W22772  40.474  14.195  14.484
56342W        W22773  14.168  31.168  14.412
56343W        W22774   2.010  43.762  12.057
56344W        W22775   2.458   2.275   3.633
56345W        W22776  26.644   4.738  14.490
56346W        W22777  16.062  32.634   0.352
56347W        W22778  15.569   6.580  11.159
56348W        W22779  29.618  15.239  13.592
56349W        W22780   4.616  29.144  10.298
56350W        W22781  39.937   0.317  12.435
56351W        W22782  23.191  44.413   4.106
56352W        W22783   5.247   1.006  13.970
56353W        W22784  33.196  39.911   1.003
56354W        W22785  19.681  22.465   2.306
56355W        W22786  17.556  11.852   0.814
56356W        W22787   1.789  17.482  12.732
56357W        W22788  19.146   2.484   1.330
56358W        W22789  27.080  30.234   3.898
56359W        W22790  31.843   1.904  12.133
56360W        W22791  42.844  35.876  13.007
56361W        W22792  28.242  15.159   4.049
56362W        W22793  19.061  10.425  13.909
56363W        W22794  34.927   1.505  11.609
56364W        W22795  11.602  42.420   3.064
56365W        W22796  13.847  27.055   0.427
56366W        W22797   6.860  42.509   0.314
56367W        W22798  20.151  32.396  11.930
56368W        W22799  32.979  30.489   0.365
56369W        W22800  19.230  19.116  13.080
56370W        W22801  37.811  31.238  14.771
56371W        W22802  43.021  10.199   3.429
56372W        W22803   1.771  32.135   1.087
56373W        W22804   5.573   3.340  10.762
56374W        W22805  10.797  21.306   2.847
56375W        W22806  20.493  24.692  12.991
56376W        W22807  20.509   8.195   1.375
56377W        W22808  22.206  29.124  12.022
56378W        W22809   8.634  32.601   0.871
56379W        W22810   5.978  20.699   3.736
56380W        W22811  14.130  43.113  14.723
56381W        W22812  39.930  18.856  10.845
56382W        W22813  33.093  43.563   1.756
56383W        W22814  11.057   1.016   2.260
56384W        W22815  25.432   9.735  14.342
56385W        W22816  35.895  33.315  11.839
56386W        W22817  28.951  25.526   0.036
56387W        W22818   8.056  17.266  12.269
56388W        W22819  19.877   1.261  11.303
56389W        W22820  28.498   0.692  14.805
56390W        W22821  38.468  41.435   1.431
56391W        W22822  30.495   0.436   4.569
56392W        W22823  37.651  26.999  11.613
56393W        W22824  16.866   1.332  12.043
56394W        W22825  26.251   0.945   4.088
56395W        W22826  24.283  30.172  13.964
56396W        W22827  22.058   9.055  13.488
56397W        W22828  23.563  11.122   3.551
56398W        W22829  30.630  35.673   3.990
56399W        W22830  43.544  16.370  14.363
56400W        W22831  37.573  34.519  13.147
56401W        W22832   9.037  29.417  13.550
56402W        W22833  44.404   3.991  12.113
56403W        W22834  29.270  26.693   1.598
56404W        W22835  15.454  10.258   4.136
56405W        W22836  13.228  29.974   2.258
56406W        W22837  31.424  17.766  11.871
56407W        W22838  21.792  28.830   0.949
56408W        W22839  21.700  43.991  13.365
56409W        W22840  33.310  42.693   1.835
56410W        W22841  40.261  14.321  14.955
56411W        W22842  21.960  21.298  11.947
56412W        W22843  24.670  43.806   0.159
56413W        W22844  31.976  32.416   3.663
56414W        W22845   4.998  16.605   0.416
56415W        W22846   5.163  40.391  10.281
56416W        W22847  39.626  22.883  12.624
56417W        W22848  12.554   3.836   9.756
56418W        W22849   5.644  12.558   4.464
56419W        W22850   3.424  26.947   3.202
56420W        W22851  17.516  38.834   1.613
56421W        W22852  29.581   6.852  12.627
56422W        W22853  28.483  17.461  13.036
56423W        W22854  30.333  35.906   2.174
56424W        W22855  14.808  14.627  12.647
56425W        W22856   5.168  40.431   2.374
56426W        W22857  37.378  15.118  11.673
56427W        W22858  22.701  32.232  11.082
56428W        W22859  32.366  39.528  14.264
56429W        W22860  40.637  15.106  14.897
56430W        W22861  22.987  29.166  11.483
56431W        W22862  22.584  24.942  10.684
56432W        W22863   3.698  37.214   2.564
56433W        W22864  18.120  41.052  14.890
56434W        W22865   1.367   0.793   3.612
56435W        W22866  37.331   8.500   2.862
56436W        W22867  37.403   4.863  13.761
56437W        W22868  41.479  29.125   3.280
56438W        W22869  12.428  28.262   3.598
56439W        W22870  43.077  41.941   4.997
56440W        W22871  10.730  25.432  13.310
56441W        W22872  27.388  37.322   3.299
56442W        W22873  32.240  10.053  10.376
56443W        W22874   5.112   8.660   4.064
56444W        W22875   2.466  13.197   3.716
56445W        W22876  22.125   4.267  11.145
56446W        W22877  40.263  32.296   4.076
56447W        W22878  21.584  34.648   2.770
56448W        W22879  24.532  32.423  13.436
56449W        W22880  42.965  14.224  14.857
56450W        W22881  23.276  34.383   4.167
56451W        W22882  22.635  16.266   3.192
56452W        W22883   4.229  38.591   0.516
56453W        W22884  38.593  34.025   1.183
56454W        W22885  40.437  21.814  12.541
56455W        W22886  10.435   4.739   5.132
56456W        W22887  18.685  39.523  12.737
56457W        W22888   9.859  22.594   0.363
56458W        W22889  37.298  30.532   3.263
56459W        W22890  40.498  10.709  14.873
56460W        W22891  10.094  11.199  14.197
56461W        W22892  24.222  44.769  14.917
56462W        W22893  26.635  29.993   2.434
56463W        W22894  23.569  18.324   2.536
56464W        W22895  39.124  18.001   4.113
56465W        W22896  26.063  21.519   2.133
56466W        W22897  23.947  11.529  12.953
56467W        W22898  14.688  22.352   2.227
56468W        W22899  14.690  15.147  13.359
56469W        W22900  16.721  42.435   1.049
56470W        W22901  26.716  17.394  14.829
56471W        W22902  38.852   0.583  13.776
56472W        W22903  44.891  20.101  14.407
56473W        W22904  33.583  16.697   3.223
56474W        W22905   0.847  20.567  11.970
56475W        W22906  39.590  27.922   4.066
56476W        W22907   1.307   5.269   2.227
56477W        W22908  37.215   7.564  14.006
56478W        W22909  14.605  15.258   0.604
56479W        W22910  44.913  33.617   3.194
56480W        W22911  24.572  14.534   1.225
56481W        W22912  10.343  12.855   4.317
56482W        W22913  33.481  36.821  13.968
56483W        W22914   8.813  19.152   2.413
56484W        W22915  22.722  44.555  10.995
56485W        W22916  44.323  42.444  13.480
56486W        W22917  20.903  40.919  11.007
56487W        W22918  24.263  15.750  12.454
56488W        W22919  24.622  15.480  11.393
56489W        W22920  34.804  12.605  11.182
56490W        W22921  11.287  31.158   0.263
56491W        W22922  27.579  18.268  10.908
56492W        W22923  14.479  18.563   5.009
56493W        W22924  19.327  12.587  11.513
56494W        W22925  24.479  28.386   3.131
56495W        W22926  21.277  38.525  13.351
56496W        W22927  29.953  43.106   0.460
56497W        W22928  30.107  13.840   4.451
56498W        W22929   4.091  31.753  12.625
56499W        W22930   7.190   1.820  14.006
56500W        W22931  39.979   2.846  14.420
56501W        W22932   0.330  21.596  14.494
56502W        W22933  26.361   9.462   0.993
56503W        W22934  11.822   1.270   0.242
56504W        W22935   9.775  35.579   2.313
56505W        W22936  34.102  39.119   4.588
56506W        W22937  28.610  35.365  12.000
56507W        W22938  39.987   0.186   4.602
56508W        W22939  25.399   5.838   3.885
56509W        W22940  33.614   9.107   2.822
56510W        W22941  22.604   8.230   1.216
56511W        W22942  43.588  15.722   2.197
56512W        W22943  32.797   6.876  12.425
56513W        W22944   9.761  26.388  13.861
56514W        W22945  10.278  30.773   0.384
56515W        W22946  10.131  22.047   0.528
56516W        W22947  42.818  17.061   4.525
56517W        W22948   9.586  41.831   4.559
56518W        W22949  24.561  29.378  12.093
56519W        W22950   2.762   9.961   0.694
56520W        W22951  42.068  41.522   3.770
56521W        W22952   1.922  20.264  12.865
56522W        W22953  27.052  33.840  13.429
56523W        W22954  16.775   0.384   4.155
56524W        W22955  36.335  36.831  13.999
56525W        W22956  18.111   4.452   2.351
56526W        W22957  41.849  14.846  12.734
56527W        W22958  42.000  14.297   1.859
56528W        W22959  40.111  15.311  13.574
56529W        W22960  37.356  35.405  14.692
56530W        W22961   7.323   5.791   4.685
56531W        W22962  30.831  30.745  10.996
56532W        W22963  12.757  26.463   0.942
56533W        W22964  38.131  34.972  12.619
56534W        W22965  35.195  11.169   2.111
56535W        W22966  30.847  14.306   1.771
56536W        W22967  43.056  33.143  12.139
56537W        W22968  15.650  22.963   3.257
56538W        W22969  10.497  37.817  13.079
56539W        W22970  44.740  31.204   0.312
56540W        W22971  41.470  36.042  10.552
56541W        W22972  24.231  42.861  12.140
56542W        W22973  31.652  17.642   3.118
56543W        W22974  16.138  26.283   2.738
56544W        W22975   2.789  43.321  10.419
56545W        W22976  33.596   5.981   4.673
56546W        W22977   1.371  24.186   1.893
56547W        W22978  27.503  16.833  10.552
56548W        W22979   3.375  21.531  12.404
56549W        W22980  39.943  32.415  11.175
56550W        W22981  24.124  36.854  13.298
56551W        W22982  18.827   9.081  13.015
56552W        W22983   0.632  28.022   2.270
56553W        W22984  28.971  20.040  12.509
56554W        W22985  28.031  27.886  13.801
56555W        W22986   4.942   7.385   3.736
56556W        W22987  18.695  41.151   3.292
56557W        W22988  23.027  18.993   1.360
56558W        W22989  38.032   9.269  10.645
56559W        W22990  43.366  36.092  13.647
56560W        W22991  43.343   4.963  14.949
56561W        W22992  19.256  23.804   4.742
56562W        W22993  33.326  35.768  10.743
56563W        W22994  44.877  31.413  11.617
56564W        W22995  11.738   9.251   4.559
56565W        W22996  41.728  32.250   0.226
56566W        W22997  42.794  44.070   3.388
56567W        W22998  17.620  10.794  11.601
56568W        W22999  21.241  30.716  13.807
56569W        W23000  25.169   5.380  13.250
56570W        W23001  33.616  44.028   4.203
56571W        W23002   5.878   7.206  11.742
56572W        W23003  38.688  16.968   4.089
56573W        W23004  13.762  25.654   1.875
56574W        W23005   6.255  38.095  12.806
56575W        W23006  35.099  38.089  13.699
56576W        W23007  19.207  35.041   1.270
56577W        W23008   5.353   9.429  13.389
56578W        W23009  26.476  12.670   0.006
56579W        W23010  26.349  32.792  12.020
56580W        W23011  40.280  19.770  11.147
56581W        W23012  15.062  31.568  13.847
56582W        W23013  26.944  16.152   4.670
56583W        W23014  37.283  34.058   3.201
56584W        W23015  41.823  44.700  13.867
56585W        W23016  12.605  43.899   4.160
56586W        W23017   6.207  41.409  13.089
56587W        W23018   3.932  30.039   3.636
56588W        W23019  14.866  40.949   1.613
56589W        W23020   8.721   8.944  12.414
56590W        W23021  36.885   8.923   1.316
56591W        W23022  35.475   5.178   1.197
56592W        W23023  21.069  15.331   2.793
56593W        W23024  16.088  24.346   3.652
56594W        W23025  28.130  14.279  10.976
56595W        W23026   0.229  32.367  11.144
56596W        W23027  34.328  30.137  10.200
56597W        W23028  18.271  39.028   1.264
56598W        W23029  42.597  18.300  11.586
56599W        W23030  16.966  42.151   2.484
56600W        W23031  41.295  36.524   1.730
56601W        W23032  28.977  15.219  12.394
56602W        W23033  13.680  23.974   1.057
56603W        W23034  36.473  29.304  11.525
56604W        W23035   4.003   4.897  10.805
56605W        W23036  34.874  18.235   3.664
56606W        W23037   2.253  34.542  14.703
56607W        W23038  39.506   8.289  11.900
56608W        W23039  36.954  41.752   4.033
56609W        W23040  12.940  14.187   9.842
56610W        W23041  31.372  26.303   3.287
56611W        W23042  12.382  37.579   0.237
56612W        W23043  20.658  36.453  12.873
56613W        W23044  31.714  28.718  12.738
56614W        W23045  10.861  22.744  10.606
56615W        W23046  31.952   9.877   0.804
56616W        W23047  43.306  31.077   3.927
56617W        W23048  21.132   6.243  11.369
56618W        W23049  14.850  40.545  14.884
56619W        W23050  26.071  13.183   1.386
56620W        W23051  26.397   1.309  12.485
56621W        W23052  35.408  37.118   4.833
56622W        W23053  25.920   9.163   3.528
56623W        W23054   0.304   3.563  11.866
56624W        W23055  24.691  31.072   0.357
56625W        W23056  35.589   2.313   4.190
56626W        W23057  37.929   1.068   2.906
56627W        W23058  22.089  23.756   5.022
56628W        W23059  23.047  38.027   0.966
56629W        W23060  20.249  42.553   1.514
56630W        W23061  15.698  35.824  10.769
56631W        W23062  24.535  26.468   3.287
56632W        W23063  20.597  26.966  11.520
56633W        W23064  40.457  18.309   4.368
56634W        W23065  33.349   4.808  14.343
56635W        W23066  17.984  35.975   0.630
56636W        W23067   5.420   1.875  12.627
56637W        W23068   2.275   3.886   1.175
56638W        W23069  22.532  30.876  13.410
56639W        W23070  40.259   4.222  12.458
56640W        W23071   6.416  21.881  11.586
56641W        W23072  15.108   8.941   0.693
56642W        W23073   3.402  36.966   2.224
56643W        W23074  24.161  22.283   5.153
56644W        W23075   8.685  22.163   4.567
56645W        W23076  18.766  38.488   3.686
56646W        W23077  35.431  16.675   3.645
56647W        W23078  37.321  16.249  12.981
56648W        W23079  18.040  41.846   1.395
56649W        W23080   6.233  20.289   5.051
56650W        W23081  19.285  40.326   3.137
56651W        W23082  22.735  29.975  11.940
56652W        W23083  15.140  23.461   0.755
56653W        W23084  22.698  36.193  13.331
56654W        W23085  20.721  21.987  12.255
56655W        W23086   2.895  22.005   1.331
56656W        W23087  33.674  23.469   2.270
56657W        W23088   1.449  42.471  11.939
56658W        W23089  23.452  32.398   1.443
56659W        W23090  16.570  35.417  11.902
56660W        W23091  31.932  36.555  10.800
56661W        W23092  25.137   1.834   3.456
56662W        W23093   6.650   7.934  11.274
56663W        W23094  29.126  42.956  12.738
56664W        W23095   3.840  38.823   4.782
56665W        W23096  40.696   7.672   1.344
56666W        W23097  18.610  28.169   1.184
56667W        W23098  17.692  23.320   4.155
56668W        W23099   7.968  37.933   2.375
56669W        W23100  23.962   3.318  10.710
56670W        W23101  41.549  14.757  13.236
56671W        W23102  21.182  32.133   2.806
56672W        W23103  32.012  34.914   1.871
56673W        W23104   1.888  26.376  13.351
56674W        W23105   8.820  28.125   0.322
56675W        W23106   6.035  28.526   0.829
56676W        W23107  26.242  21.619  11.378
56677W        W23108  22.694  37.915  14.996
56678W        W23109  16.640  16.152   3.043
56679W        W23110   1.332  44.846  13.576
56680W        W23111  29.944  27.192   0.016
56681W        W23112  19.686  30.933  11.051
56682W        W23113   5.190  12.831   4.172
56683W        W23114  14.519   5.405   4.028
56684W        W23115  31.066  38.644   0.331
56685W        W23116  10.791  20.901   0.360
56686W        W23117  18.027  30.479   4.677
56687W        W23118  17.045  35.861   4.645
56688W        W23119  19.158  41.750  12.629
56689W        W23120  30.054  10.183  11.491
56690W        W23121  25.682   0.339  14.853
56691W        W23122  25.207  44.322  11.106
56692W        W23123  13.237   5.352   1.781
56693W        W23124  38.338  28.989   3.658
56694W        W23125  20.184   5.698   4.563
56695W        W23126   9.619  17.782  12.114
56696W        W23127  14.526  24.069   1.495
56697W        W23128   0.613  19.825   4.299
56698W        W23129  44.559   5.064  14.939
56699W        W23130  39.919  33.932   4.815
56700W        W23131  10.487  15.345  12.044
56701W        W23132   7.226  13.855   0.177
56702W        W23133  36.385  11.667  14.476
56703W        W23134  41.281  26.186  14.569
56704W        W23135  32.878   4.868  14.509
56705W        W23136  29.691  12.113  12.848
56706W        W23137  33.129  40.059   1.894
56707W        W23138  18.018  41.340   2.400
56708W        W23139  33.465  26.224  14.492
56709W        W23140  19.720  37.127   4.117
56710W        W23141  22.082   2.969  14.022
56711W        W23142  38.542  40.347  12.674
56712W        W23143  44.262  13.804  14.022
56713W        W23144   6.109  27.676  11.319
56714W        W23145   1.326  22.223  13.600
56715W        W23146   1.865   5.464  10.562
56716W        W23147   4.926  10.702  14.916
56717W        W23148  30.006  11.375   2.726
56718W        W23149  44.330  27.772  10.559
56719W        W23150  19.282  37.011  12.232
56720W        W23151   0.833  44.817   0.900
56721W        W23152  26.662  42.693  12.170
56722W        W23153  35.083  14.361  11.577
56723W        W23154  25.472  27.065  14.645
56724W        W23155  28.682  38.022   0.877
56725W        W23156   0.439  26.967  12.511
56726W        W23157  25.196  33.597  14.808
56727W        W23158  11.839  31.527  12.729
56728W        W23159  25.063  39.781  12.022
56729W        W23160  34.535  24.953  12.434
56730W        W23161   4.669   4.780   4.585
56731W        W23162  18.566  24.616  13.510
56732W        W23163  10.177  17.758   2.688
56733W        W23164   4.831  34.184  14.453
56734W        W23165   7.237   8.208   3.826
56735W        W23166  35.362  15.236  14.971
56736W        W23167  23.066  16.357  12.450
56737W        W23168  17.356  21.749  11.106
56738W        W23169  15.512  27.249  11.666
56739W        W23170  28.003   7.113   2.612
56740W        W23171  44.765  12.528  12.078
56741W        W23172  10.119  22.942  11.724
56742W        W23173  22.879  18.909  13.256
56743W        W23174   5.304  43.932   4.726
56744W        W23175   2.161  40.429  10.402
56745W        W23176  22.700   1.028   1.777
56746W        W23177  41.786  42.937  10.761
56747W        W23178  41.215  38.383   3.153
56748W        W23179  35.650  11.348  13.973
56749W        W23180  27.988  12.771  11.048
56750W        W23181  24.073  27.101  14.755
56751W        W23182  38.782   8.036   4.018
56752W        W23183  14.302  10.696   4.548
56753W        W23184  10.208  18.276   4.816
56754W        W23185  10.179  44.407   0.669
56755W        W23186  10.292  33.977  14.696
56756W        W23187  29.522  10.444   4.277
56757W        W23188  31.434  12.195   0.941
56758W        W23189  26.745  27.598  11.563
56759W        W23190   9.315  35.647   2.994
56760W        W23191   1.455  26.129   4.303
56761W        W23192  37.393  13.081  13.627
56762W        W23193  17.715   5.813  13.800
56763W        W23194   9.351   0.545   3.393
56764W        W23195  24.691  26.686   1.745
56765W        W23196  23.864  19.052   1.768
56766W        W23197   9.145  32.070  12.016
56767W        W23198  16.567   4.290   2.271
56768W        W23199   4.749  30.034  12.533
56769W        W23200  40.758  13.230   2.826
56770W        W23201  30.578  19.834  10.947
56771W        W23202  12.704  30.915  13.474
56772W        W23203   5.337   1.121   2.645
56773W        W23204  21.420  32.148   3.748
56774W        W23205  32.988  36.603  14.706
56775W        W23206  37.946  21.730   0.027
56776W        W23207  30.591   3.715   3.272
56777W        W23208   9.306  28.028   2.283
56778W        W23209  41.843  42.513   1.501
56779W        W23210  19.723   7.834   4.077
56780W        W23211  10.890  19.342  11.583
56781W        W23212   6.242  44.753   3.231
56782W        W23213  43.302  19.772  12.951
56783W        W23214  32.568  22.275  13.520
56784W        W23215  44.616  38.358  13.704
56785W        W23216  16.315  15.644   1.340
56786W        W23217   0.343   0.721  13.776
56787W        W23218   0.358  27.925  13.048
56788W        W23219  18.412  22.637   4.806
56789W        W23220  43.856  21.558   3.725
56790W        W23221  26.767  34.588   9.916
56791W        W23222   8.447  34.988  11.517
56792W        W23223  18.647  29.190   2.628
56793W        W23224   3.946  32.053   2.153
56794W        W23225  39.864  43.938   0.135
56795W        W23226  44.546   7.085  14.755
56796W        W23227  31.135  14.070   1.137
56797W        W23228  24.571  19.835  12.369
56798W        W23229   6.135  21.708   1.172
56799W        W23230  12.303  17.665  10.804
56800W        W23231  33.968  16.737   4.673
56801W        W23232  20.181  24.113  14.390
56802W        W23233  25.135  15.619   2.686
56803W        W23234   3.506  33.055   3.188
56804W        W23235  14.587  37.096   3.254
56805W        W23236  23.277  40.983  11.009
56806W        W23237  28.037  28.682   4.252
56807W        W23238  44.177  33.724  13.998
56808W        W23239   6.272   0.742  14.267
56809W        W23240  21.076  43.402  14.933
56810W        W23241  37.529   1.407  12.648
56811W        W23242  11.794  19.132  10.676
56812W        W23243  15.221  42.029   2.859
56813W        W23244  40.494  14.695  12.475
56814W        W23245  11.677  39.186   3.672
56815W        W23246  41.899  12.910  13.654
56816W        W23247  18.197  44.465   2.819
56817W        W23248   8.686   5.046  12.772
56818W        W23249  35.870   1.828   5.101
56819W        W23250  12.606  21.459  13.458
56820W        W23251  30.402  36.970  13.974
56821W        W23252   0.875  30.839  12.980
56822W        W23253  40.913  30.852  13.425
56823W        W23254  31.085  23.529   2.251
56824W        W23255  34.842  41.870   0.940
56825W        W23256  13.142  31.789  12.111
56826W        W23257  14.738  26.210   3.365
56827W        W23258  27.908  12.218  11.061
56828W        W23259  44.315   3.680  14.989
56829W        W23260   6.296  34.348  11.252
56830W        W23261  20.146   6.778   1.225
56831W        W23262  36.307  32.694  10.635
56832W        W23263  22.282  30.817   1.874
56833W        W23264  44.172  26.679  13.787
56834W        W23265   3.436  13.632   1.303
56835W        W23266  32.570  10.595  13.171
56836W        W23267  19.320  42.429   1.291
56837W        W23268  15.040  36.804  14.352
56838W        W23269   1.274  38.766  11.888
56839W        W23270  29.143   8.693   3.284
56840W        W23271  14.739  44.855  14.070
56841W        W23272  33.641  22.209   1.942
56842W        W23273   1.005  44.044   4.016
56843W        W23274  27.860  17.210   3.931
56844W        W23275  35.580   5.381  13.533
56845W        W23276  40.861  30.391  13.202
56846W        W23277  24.049  39.442   2.253
56847W        W23278  15.212  41.812  10.757
56848W        W23279   2.962  15.786  13.323
56849W        W23280   1.305  19.761   0.460
56850W        W23281  22.135  41.459  12.327
56851W        W23282   7.818  33.043   3.531
56852W        W23283  25.440  31.514   0.375
56853W        W23284  32.764  18.672  11.932
56854W        W23285  20.567  44.380  14.671
56855W        W23286  40.286  24.445   1.356
56856W        W23287  14.284   3.641   0.889
56857W        W23288   6.829   9.228   4.791
56858W        W23289  17.795   7.011  13.344
56859W        W23290  13.784  15.366   0.789
56860W        W23291  24.457  27.645   0.345
56861W        W23292  17.714  22.995  14.891
56862W        W23293  38.478  36.716   2.393
56863W        W23294   0.531   4.579   2.488
56864W        W23295  29.249  24.619  10.768
56865W        W23296  42.528  41.368   1.813
56866W        W23297  30.974   6.576   1.068
56867W        W23298  28.442  13.156  14.908
56868W        W23299  18.077  28.993   2.241
56869W        W23300  15.625   3.613   0.757
56870W        W23301  25.500  26.613   0.475
56871W        W23302  32.405   0.267   0.379
56872W        W23303  40.307  40.891   4.706
56873W        W23304   2.525  37.448  13.811
56874W        W23305  24.709   6.559   1.438
56875W        W23306  27.828  42.008  10.735
56876W        W23307  20.179  36.826   0.505
56877W        W23308   5.756   9.170  11.891
56878W        W23309  17.215  24.724  12.612
56879W        W23310  30.991  34.120  13.968
56880W        W23311  32.451  44.049  13.057
56881W        W23312  38.565   7.829  11.795
56882W        W23313   2.761  27.630  11.198
56883W        W23314   1.263  28.764  14.909
56884W        W23315   2.473  33.354   1.888
56885W        W23316  26.841   2.196   2.660
56886W        W23317  22.004  16.688   0.068
56887W        W23318  13.161   3.238  14.587
56888W        W23319  10.288  20.815  14.809
56889W        W23320  44.003  15.839   1.881
56890W        W23321   0.475  34.440  13.418
56891W        W23322  14.758  32.840  14.855
56892W        W23323  42.864   6.563   1.329
56893W        W23324  18.045  25.240  11.504
56894W        W23325  44.564  43.217  11.186
56895W        W23326  11.354  42.804   0.230
56896W        W23327  31.412  27.622  11.185
56897W        W23328  23.653  13.874   2.828
56898W        W23329  16.185  34.135  13.058
56899W        W23330  32.865  12.601   0.557
56900W        W23331  22.540   1.502   0.837
56901W        W23332  12.041  28.633   0.395
56902W        W23333  11.244  11.169   0.533
56903W        W23334   4.781  26.192  13.779
56904W        W23335  32.374  26.560  11.753
56905W        W23336  21.068  38.370   0.238
56906W        W23337  42.875  34.387  10.628
56907W        W23338  10.370  19.747   1.963
56908W        W23339  27.738  13.655  12.537
56909W        W23340  25.153  37.323   2.344
56910W        W23341  36.142  14.585  13.861
56911W        W23342   1.606   8.886  12.723
56912W        W23343  17.312  31.045   4.545
56913W        W23344  20.134  20.075  10.531
56914W        W23345  31.197  21.437   0.588
56915W        W23346   6.857  33.144   0.474
56916W        W23347  13.256   5.290  14.671
56917W        W23348  21.174  42.791  11.388
56918W        W23349  19.579  25.027  11.307
56919W        W23350  21.649  33.505   3.824
56920W        W23351  21.184   6.668   4.165
56921W        W23352   6.850  17.317  13.991
56922W        W23353   8.379  29.047  12.101
56923W        W23354   5.959  16.320   1.834
56924W        W23355  31.073   0.702  12.337
56925W        W23356  31.743  14.476   1.008
56926W        W23357  27.076  20.070  14.898
56927W        W23358  41.806  19.943  11.220
56928W        W23359  27.765  15.104  14.301
56929W        W23360  15.757  44.572   4.133
56930W        W23361   0.038   8.637   3.263
56931W        W23362  29.060  20.264  11.588
56932W        W23363  27.397  10.254   2.223
56933W        W23364   7.733   7.309   4.629
56934W        W23365  30.416  24.313   0.100
56935W        W23366  10.082  33.006   4.538
56936W        W23367  39.421  43.997   0.390
56937W        W23368  21.953  22.295   2.366
56938W        W23369   0.398  23.541   3.815
56939W        W23370   4.636  27.746   0.441
56940W        W23371  25.995   8.410   3.247
56941W        W23372  11.557  24.930   4.840
56942W        W23373  23.023  41.848   2.847
56943W        W23374  17.975  29.007   4.559
56944W        W23375  21.280  23.483  11.416
56945W        W23376  17.689  23.697  14.366
56946W        W23377  20.622  27.010   3.749
56947W        W23378  10.887  10.223  13.807
56948W        W23379  26.656  41.276   2.021
56949W        W23380  35.405  15.256  10.454
56950W        W23381  30.123  41.042  14.296
56951W        W23382  10.399  27.039  10.667
56952W        W23383   3.229  27.501  11.047
56953W        W23384  17.064  39.057  12.130
56954W        W23385  25.963  22.516  11.377
56955W        W23386  18.911  30.462   1.237
56956W        W23387   3.359  19.810  13.095
56957W        W23388  26.994  17.076   4.233
56958W        W23389  37.743  35.816   0.418
56959W        W23390  15.684  20.794   1.150
56960W        W23391  17.100  41.000   0.039
56961W        W23392  27.505  44.360  10.881
56962W        W23393  44.375   2.693   1.320
56963W        W23394  17.696   2.156   4.216
56964W        W23395  37.926  32.099   2.739
56965W        W23396   1.821  36.095  10.802
56966W        W23397  42.721  30.198  10.893
56967W        W23398  17.523  43.473   0.911
56968W        W23399  13.920  42.222  12.076
56969W        W23400  21.535   2.669  11.708
56970W        W23401  25.336  33.436   2.497
56971W        W23402  41.985  41.043   2.147
56972W        W23403  13.233  31.063   3.964
56973W        W23404   5.014  27.455  11.153
56974W        W23405  11.349  29.486  12.681
56975W        W23406  18.855  37.529   3.919
56976W        W23407  16.529  29.634   2.636
56977W        W23408  23.731  28.094   2.784
56978W        W23409  21.176  29.247  12.026
56979W        W23410   8.437  35.912   0.484
56980W        W23411  22.305  27.736   3.429
56981W        W23412   0.969  21.714  11.996
56982W        W23413  26.673  38.285   0.970
56983W        W23414  28.542   2.512   0.749
56984W        W23415   3.735   4.989   4.633
56985W        W23416   5.144  33.930   0.788
56986W        W23417  37.531   0.920  14.870
56987W        W23418  34.338  13.065  14.004
56988W        W23419  42.203  20.908  13.260
56989W        W23420  41.420  23.133   0.358
56990W        W23421   6.513  44.717   0.918
56991W        W23422   9.114  10.060  13.865
56992W        W23423  18.497  25.554   0.233
56993W        W23424  38.372   7.894   0.980
56994W        W23425  28.563  27.145   0.472
56995W        W23426  22.725  42.790  10.335
56996W        W23427  10.119  44.014  14.940
56997W        W23428   5.876  32.868  13.741
56998W        W23429  12.166  10.662   2.477
56999W        W23430  20.611  36.771  13.862
57000W        W23431  37.450  39.895   0.475
57001W        W23432  41.236  22.606  13.039
57002W        W23433  30.125  35.861  12.647
57003W        W23434  36.777  29.151   2.535
57004W        W23435  21.272   6.765   0.243
57005W        W23436   7.322   5.444  11.520
57006W        W23437  19.687  26.237  13.400
57007W        W23438  40.384  42.144   1.240
57008W        W23439  24.266  36.027   2.818
57009W        W23440  41.047  43.222  12.914
57010W        W23441  42.494  42.449   3.597
57011W        W23442  31.936  22.088   2.662
57012W        W23443  43.960  42.483  12.332
57013W        W23444  17.299   3.755   1.862
57014W        W23445   2.039  25.331   3.683
57015W        W23446  24.975   5.375  12.272
57016W        W23447  20.957  23.583  11.026
57017W        W23448  22.778   5.238   0.906
57018W        W23449   0.633  42.341  11.581
57019W        W23450  31.279  22.941   4.975
57020W        W23451  10.421  24.733  14.473
57021W        W23452  41.070  36.445   0.353
57022W        W23453  21.976   1.101   0.234
57023W        W23454  25.559   7.831   4.149
57024W        W23455  36.338  13.779   1.396
57025W        W23456  15.849  15.797  11.807
57026W        W23457  32.718  14.876  11.142
57027W        W23458  16.869  38.559   4.702
57028W        W23459   5.375  27.441  14.419
57029W        W23460  17.318  10.361  12.987
57030W        W23461   2.711  29.511   3.260
57031W        W23462  21.745   8.097  10.704
57032W        W23463  26.953  24.605   4.060
57033W        W23464  15.194   3.663   3.134
57034W        W23465   3.382  39.635   1.456
57035W        W23466  11.593  28.734   0.584
57036W        W23467  11.398  12.869  11.383
57037W        W23468   0.664  13.633  12.293
57038W        W23469  33.598  33.053   1.445
57039W        W23470  22.643   4.941   1.862
57040W        W23471   7.410  19.773   3.215
57041W        W23472  29.448   3.284   1.214
57042W        W23473  24.100  43.796   3.252
57043W        W23474   5.012  38.501   2.222
57044W        W23475  26.857  18.879  14.291
57045W        W23476  11.691  18.486  12.125
57046W        W23477  27.067  16.987  11.166
57047W        W23478  17.363  23.886  10.698
57048W        W23479  23.277   0.953   0.290
57049W        W23480  42.771   9.734   3.934
57050W        W23481  34.328   6.541   0.692
57051W        W23482  17.271  22.689  14.909
57052W        W23483   5.152  37.395   0.412
57053W        W23484  17.368  20.974   3.266
57054W        W23485  17.322  30.171  13.480
57055W        W23486   2.028  16.529  12.609
57056W        W23487  13.157   5.531   0.130
57057W        W23488  41.771  19.483   4.976
57058W        W23489  30.360  42.848  11.645
57059W        W23490  18.614   4.360   2.222
57060W        W23491  44.370   0.281   3.356
57061W        W23492  29.329  41.328  11.333
57062W        W23493  40.806  41.731   4.386
57063W        W23494  43.541  34.701  11.038
57064W        W23495   4.817  37.179   1.861
57065W        W23496  29.863  32.041  11.493
57066W        W23497  10.730  22.009  14.473
57067W        W23498  26.668   4.999  13.518
57068W        W23499  32.912  19.527   2.769
57069W        W23500  42.558   9.834   1.480
57070W        W23501   6.649   8.332   2.784
57071W        W23502   3.334   1.513  10.999
57072W        W23503  21.815  20.695  11.631
57073W        W23504  29.484  28.455  11.988
57074W        W23505  21.566  24.855  11.675
57075W        W23506  41.427  38.160   3.573
57076W        W23507  28.423  18.164  12.431
57077W        W23508   4.244  17.766   4.726
57078W        W23509  25.974   8.127  14.219
57079W        W23510   6.792  10.114  10.387
57080W        W23511  14.445  14.045   1.937
57081W        W23512  29.616  21.775  12.464
57082W        W23513  22.855  12.649  13.009
57083W        W23514  20.592  32.632   4.044
57084W        W23515  34.831  20.751   2.332
57085W        W23516   9.131  29.343   0.386
57086W        W23517  17.484  28.872  13.809
57087W        W23518  30.613  13.064   2.188
57088W        W23519  21.587  14.782   0.948
57089W        W23520   6.426  41.915   4.616
57090W        W23521   1.051  23.747   4.106
57091W        W23522  11.114   5.031   1.708
57092W        W23523  28.246  44.970  12.081
57093W        W23524  44.963  39.411   4.596
57094W        W23525   3.994  28.464   0.800
57095W        W23526  25.793  40.028   3.138
57096W        W23527   8.822  16.680   2.133
57097W        W23528  26.616  14.337   9.650
57098W        W23529  26.051  36.933   3.231
57099W        W23530  44.514  35.972  13.414
57100W        W23531  30.010  18.962  14.348
57101W        W23532  22.340  11.985   0.790
57102W        W23533  13.056   4.684  11.199
57103W        W23534  38.070  15.209  14.359
57104W        W23535  31.550  18.782   0.169
57105W        W23536   2.558   5.789  13.301
57106W        W23537  28.240   9.666  13.577
57107W        W23538  24.566  32.720   4.044
57108W        W23539  40.464  21.591   0.077
57109W        W23540  10.328  32.068  13.609
57110W        W23541  43.617  37.937   2.601
57111W        W23542   5.089  35.853   0.025
57112W        W23543   8.124  43.117   4.555
57113W        W23544   0.939  40.375   0.466
57114W        W23545  11.630  18.824  14.034
57115W        W23546  40.581  22.099  11.640
57116W        W23547  21.183   1.548   3.765
57117W        W23548  37.813   9.188   0.879
57118W        W23549   2.822   4.608  13.864
57119W        W23550  18.066  27.664   0.300
57120W        W23551  41.533   6.359  13.409
57121W        W23552  34.713   0.498  14.338
57122W        W23553   0.439  19.951   4.776
57123W        W23554  44.720   5.375   3.983
57124W        W23555  29.990  32.920  11.580
57125W        W23556   3.680  20.801   1.405
57126W        W23557  30.677   5.921  14.418
57127W        W23558  42.061  26.710  12.075
57128W        W23559  31.186  24.083  11.336
57129W        W23560  43.483   3.882  12.437
57130W        W23561  39.268  40.557   3.919
57131W        W23562  14.759  40.819   3.129
57132W        W23563  44.377   2.374  13.732
57133W        W23564  37.317   1.992  12.010
57134W        W23565  31.501  32.093  14.464
57135W        W23566   5.493   1.446  13.907
57136W        W23567  44.814  35.601  10.958
57137W        W23568  28.190  34.323  11.250
57138W        W23569  26.460   4.224  12.940
57139W        W23570  29.466  38.544   4.193
57140W        W23571  36.978  12.136  14.173
57141W        W23572  41.042   0.928  12.112
57142W        W23573  36.045  10.152   0.051
57143W        W23574  18.346  13.572  14.850
57144W        W23575  22.029  22.796   2.210
57145W        W23576   1.869  22.446  12.900
57146W        W23577   7.798  36.923   3.354
57147W        W23578  35.874  38.988  12.040
57148W        W23579   6.870  14.823  10.714
57149W        W23580  21.297  21.184   1.332
57150W        W23581  20.788  43.416   1.349
57151W        W23582   1.214  43.989   4.724
57152W        W23583   4.650   5.409  13.777
57153W        W23584  43.507   1.912  12.357
57154W        W23585  20.714  17.237  10.569
57155W        W23586   6.277   8.858   0.632
57156W        W23587   0.359   7.109   4.346
57157W        W23588  18.744   1.576  12.298
57158W        W23589   0.204  25.510   0.955
57159W        W23590  13.998  39.358  14.995
57160W        W23591  21.205   7.722   0.775
57161W        W23592   0.649  13.337  14.946
57162W        W23593  19.112   7.718   0.381
57163W        W23594  16.828  22.512  14.584
57164W        W23595  39.265  21.155   3.113
57165W        W23596  44.407  33.366   2.297
57166W        W23597  25.176   7.791   3.303
57167W        W23598   0.385  21.251   4.669
57168W        W23599   9.552  32.991   2.506
57169W        W23600  35.564  35.912   1.919
57170W        W23601  22.485   6.717   2.083
57171W        W23602   4.839  14.477   3.593
57172W        W23603  11.343  28.457   4.572
57173W        W23604  10.639  20.652  12.141
57174W        W23605  34.591  14.071  12.481
57175W        W23606  10.928  19.184   3.841
57176W        W23607  24.287  34.949   3.272
57177W        W23608  39.311   3.759   1.716
57178W        W23609   0.866  33.353   4.796
57179W        W23610   8.229  23.532  12.884
57180W        W23611  33.202  30.462   4.134
57181W        W23612   9.873   2.643  12.612
57182W        W23613  15.095  19.015   1.628
57183W        W23614   9.895  37.147   3.570
57184W        W23615  40.753  28.603  12.857
57185W        W23616  18.764   2.906  12.802
57186W        W23617  41.974  28.844   4.009
57187W        W23618  41.888  29.031  14.507
57188W        W23619  25.412  26.738  10.951
57189W        W23620   8.863   7.266   4.173
57190W        W23621  20.281  12.174  13.272
57191W        W23622   5.847  21.541  14.010
57192W        W23623  29.584  43.474  12.355
57193W        W23624  29.839  12.911  11.128
57194W        W23625  12.597   8.711   0.811
57195W        W23626  41.688   9.186  12.181
57196W        W23627  28.611  15.021   1.446
57197W        W23628  37.629  28.045  11.362
57198W        W23629   3.756   2.806   3.685
57199W        W23630  29.344  16.803   2.983
57200W        W23631  30.823  21.596  11.987
57201W        W23632  39.883  27.167  11.347
57202W        W23633  37.599  39.321  14.799
57203W        W23634  28.853  34.490   4.242
57204W        W23635  24.244  30.917   2.294
57205W        W23636  12.573   6.898   3.896
57206W        W23637  28.499   7.144  11.135
57207W        W23638  22.006   5.635  11.122
57208W        W23639  35.468  14.614  13.088
57209W        W23640  37.279   1.544   1.881
57210W        W23641  36.979  12.648  14.260
57211W        W23642  30.397   9.221  14.833
57212W        W23643  22.179  32.530  11.171
57213W        W23644  30.004  29.128  12.566
57214W        W23645  43.448  36.884   0.887
57215W        W23646  44.688   6.646  13.536
57216W        W23647  18.692   2.037  11.391
57217W        W23648  29.503  40.581   0.853
57218W        W23649   3.769   5.383   4.985
57219W        W23650  38.874   2.991   3.264
57220W        W23651  36.788  31.277   3.546
57221W        W23652  31.217  41.198   1.175
57222W        W23653  20.008   3.965   1.644
57223W        W23654  28.584  41.973   4.536
57224W        W23655   2.640  40.132   4.069
57225W        W23656  33.657   8.803  14.059
57226W        W23657  15.926  40.538   0.871
57227W        W23658  11.681  36.651   4.499
57228W        W23659  19.776   7.261   4.079
57229W        W23660  13.649  14.436   3.947
57230W        W23661  21.233  44.018  11.580
57231W        W23662  27.391  16.836   0.903
57232W        W23663  20.985  33.645  14.466
57233W        W23664  40.114  37.195  13.367
57234W        W23665  20.285  19.452   0.185
57235W        W23666   8.565  40.906  11.745
57236W        W23667  26.682  22.896  11.084
57237W        W23668  36.645  32.960   0.403
57238W        W23669  17.107  27.424  14.065
57239W        W23670  33.927  10.597   3.695
57240W        W23671   6.367  33.014  10.428
57241W        W23672  34.938  18.627   0.434
57242W        W23673  24.775  31.546  14.796
57243W        W23674   1.379  30.145  12.173
57244W        W23675   8.233  11.315  10.508
57245W        W23676  15.014   1.249  10.569
57246W        W23677  11.301  35.053   3.397
57247W        W23678   4.915  23.382   3.369
57248W        W23679  32.269   8.909   0.929
57249W        W23680  39.089  22.119   2.760
57250W        W23681  14.609   9.847  13.993
57251W        W23682  11.222  29.129  11.913
57252W        W23683  22.803  31.129   2.876
57253W        W23684  41.222  43.298   4.634
57254W        W23685  19.038   4.772  13.368
57255W        W23686   8.076  43.453   0.316
57256W        W23687  16.026  24.987   1.626
57257W        W23688  24.673  17.545   3.648
57258W        W23689  44.017  15.315  11.506
57259W        W23690  39.152   3.866  14.579
57260W        W23691   7.616  24.593  14.979
57261W        W23692  32.147  27.465   3.933
57262W        W23693   8.629   5.710   0.031
57263W        W23694  17.240  34.878  10.701
57264W        W23695  37.825  31.059   0.249
57265W        W23696  15.418  13.849  12.466
57266W        W23697  42.066  27.966  10.846
57267W        W23698  44.451  13.210   0.375
57268W        W23699  33.351  32.909   2.386
57269W        W23700   5.330   7.562  14.496
57270W        W23701  17.006  17.703  13.811
57271W        W23702  27.108  12.882  11.211
57272W        W23703  11.222   3.315  14.925
57273W        W23704  40.760  35.434  12.598
57274W        W23705  20.733  40.729   3.597
57275W        W23706  18.780  17.368   5.387
57276W        W23707  40.965  34.177   3.331
57277W        W23708  35.486  38.368  13.969
57278W        W23709  10.694  30.567  13.993
57279W        W23710  33.640  31.623   3.774
57280W        W23711  33.378   0.991   2.136
57281W        W23712   2.273  12.852   4.764
57282W        W23713   6.726  21.087   1.286
57283W        W23714  27.419  44.775  11.222
57284W        W23715   4.619  36.672   0.409
57285W        W23716  40.990   0.391  11.038
57286W        W23717  40.546  25.149   2.780
57287W        W23718  20.477   0.509   1.000
57288W        W23719  40.304   6.727   2.240
57289W        W23720  25.148  42.763  13.904
57290W        W23721  37.486  36.058  11.579
57291W        W23722  21.265  15.480   0.495
57292W        W23723  10.955  38.895  11.178
57293W        W23724  35.812  38.176   0.319
57294W        W23725   9.789  44.586   2.738
57295W        W23726   8.345  18.006   4.219
57296W        W23727  38.483   9.012  11.808
57297W        W23728  30.645  18.846  12.568
57298W        W23729  33.532  26.679   4.213
57299W        W23730  35.743  16.585   1.917
57300W        W23731  15.578  21.527  13.388
57301W        W23732  14.179  17.709   4.871
57302W        W23733  26.189  44.927   4.259
57303W        W23734  20.195   6.104   0.293
57304W        W23735   7.681  40.232  12.912
57305W        W23736  33.350  31.947   5.089
57306W        W23737  39.079  44.177   0.787
57307W        W23738  38.384  15.334   0.669
57308W        W23739  17.239  33.036  12.168
57309W        W23740  22.767   0.718   2.795
57310W        W23741  28.078  38.360   0.555
57311W        W23742  38.876  16.542  13.467
57312W        W23743  20.329  34.879   2.549
57313W        W23744   7.124  16.463  13.691
57314W        W23745  35.985   5.395  12.518
57315W        W23746  23.535  14.286  13.667
57316W        W23747  16.308  22.098   2.454
57317W        W23748  28.916   8.771   2.665
57318W        W23749  13.272  11.769   4.984
57319W        W23750  21.095  23.908   2.304
57320W        W23751  32.581   4.474  14.386
57321W        W23752  40.198   7.703   1.121
57322W        W23753  23.628  42.485   1.845
57323W        W23754  40.018  33.520  13.459
57324W        W23755  42.055  30.605   1.483
57325W        W23756   5.701   3.359   0.976
57326W        W23757  13.083  33.334   0.861
57327W        W23758  34.831   1.361   0.324
57328W        W23759  39.056  33.517  14.515
57329W        W23760  26.180  17.255   0.985
57330W        W23761  32.825   7.215   1.897
57331W        W23762   3.187   1.145  14.793
57332W        W23763  30.018   7.061  12.451
57333W        W23764  17.249  43.820   0.506
57334W        W23765  36.148  36.897   3.509
57335W        W23766  18.826   6.386  14.385
57336W        W23767  29.015  29.603  10.730
57337W        W23768  42.003  41.877  13.110
57338W        W23769  17.398  17.900  10.629
57339W        W23770  32.035   1.646  13.411
57340W        W23771  28.487   8.901  11.650
57341W        W23772   2.710  23.747  14.337
57342W        W23773  13.080  28.155   4.319
57343W        W23774  43.327   8.248  13.598
57344W        W23775   0.367  31.328  10.628
57345W        W23776  13.685  37.498  10.682
57346W        W23777   0.945  29.128  11.314
57347W        W23778  40.183  22.109   0.893
57348W        W23779   6.886  42.045  12.909
57349W        W23780  40.978   2.521   2.730
57350W        W23781  39.291  44.819   2.674
57351W        W23782  31.697  22.736  13.525
57352W        W23783  11.879  23.742  14.917
57353W        W23784   8.940  41.262  13.538
57354W        W23785   4.976  12.622  10.992
57355W        W23786  36.431   1.882   2.613
57356W        W23787  10.178   2.121   4.986
57357W        W23788  36.690  22.024  14.079
57358W        W23789  40.792   4.428   2.229
57359W        W23790  16.105   1.443   4.651
57360W        W23791   2.973  34.184  11.685
57361W        W23792  18.102  17.220   3.168
57362W        W23793  40.016  15.347   3.887
57363W        W23794  41.153  36.083   2.269
57364W        W23795  35.786  38.992   3.630
57365W        W23796  40.578  25.276  14.351
57366W        W23797  12.239  39.266   4.829
57367W        W23798  42.948  41.191  12.368
57368W        W23799   0.452  19.056   2.819
57369W        W23800   2.987  14.234  13.521
57370W        W23801  28.002   8.667  14.304
57371W        W23802  23.992   3.112   2.828
57372W        W23803  34.668  35.025   4.622
57373W        W23804   8.709  27.149   0.983
57374W        W23805  41.306  41.210  14.540
57375W        W23806  37.876  19.547  10.910
57376W        W23807  20.132   4.190   4.631
57377W        W23808  30.883   9.305  13.162
57378W        W23809  42.911   7.397  12.412
57379W        W23810  41.009  39.808  12.176
57380W        W23811  38.917   3.503   3.255
57381W        W23812  44.508  32.879   0.714
57382W        W23813  15.312   8.817  14.758
57383W        W23814  21.250  27.117   0.448
57384W        W23815  40.940  43.702   4.310
57385W        W23816  25.961  42.078  12.079
57386W        W23817  14.181  38.474  12.857
57387W        W23818  14.813  13.617   3.703
57388W        W23819  11.337  37.871   1.657
57389W        W23820   5.899  19.016  11.638
57390W        W23821  41.752  24.970  12.548
57391W        W23822  38.874  17.465   4.164
57392W        W23823  14.100  21.392  14.924
57393W        W23824  19.732  15.196   5.194
57394W        W23825  31.097  32.619   2.694
57395W        W23826  29.810  10.792   4.570
57396W        W23827  21.032  37.327   1.112
57397W        W23828  30.628  16.271  10.595
57398W        W23829  25.025  35.071   0.923
57399W        W23830  20.173  10.123  14.027
57400W        W23831  17.676  35.776   0.229
57401W        W23832  17.931  12.170   0.005
57402W        W23833  27.618  20.178   4.679
57403W        W23834  31.955  18.071  12.891
57404W        W23835  30.471  33.522   3.558
57405W        W23836  15.959  31.054   1.915
57406W        W23837  12.358   7.621   0.353
57407W        W23838   9.788   8.698   1.779
57408W        W23839  37.055  36.997   0.722
57409W        W23840  28.624  24.748  14.022
57410W        W23841  38.473  30.032  12.383
57411W        W23842   8.676   8.445  12.474
57412W        W23843  29.175  37.438   1.366
57413W        W23844  16.212   6.472   4.138
57414W        W23845  30.213   6.261  11.423
57415W        W23846  17.566  33.573   3.812
57416W        W23847   3.358  33.651  14.783
57417W        W23848  26.370  41.752  12.080
57418W        W23849  27.232  32.282   4.233
57419W        W23850  28.495  20.793   4.665
57420W        W23851  40.567  29.459  13.400
57421W        W23852  40.094  17.419   2.710
57422W        W23853  37.429   2.965   2.637
57423W        W23854   2.277   6.897   0.573
57424W        W23855   2.365   2.535   3.165
57425W        W23856  26.972  16.403  14.417
57426W        W23857  28.988   7.472   3.854
57427W        W23858   7.892  12.702  13.764
57428W        W23859  14.805  17.336  14.035
57429W        W23860  10.069  23.234   2.508
57430W        W23861  17.879  23.687   3.848
57431W        W23862  31.948   2.949  12.932
57432W        W23863  43.149  34.962  11.405
57433W        W23864  41.782  18.187  11.956
57434W        W23865  37.599  32.363  11.385
57435W        W23866  35.015  31.396   2.713
57436W        W23867  21.724  37.461  14.430
57437W        W23868  39.759   5.686  12.577
57438W        W23869  41.798   0.221  13.038
57439W        W23870   0.986  34.976  12.912
57440W        W23871   9.924   6.904   1.284
57441W        W23872  37.779  14.765   4.696
57442W        W23873  10.949  44.470  13.175
57443W        W23874  44.435  30.571  11.853
57444W        W23875   1.999  42.665   5.169
57445W        W23876  32.939  13.919   3.469
57446W        W23877  29.681   9.791   2.347
57447W        W23878  22.517   8.830  10.636
57448W        W23879   9.687  22.919   2.352
57449W        W23880   3.666  29.550   3.787
57450W        W23881   4.465  34.623   2.111
57451W        W23882   6.243  31.120   3.913
57452W        W23883  11.401  44.203   0.272
57453W        W23884  33.671  11.170  11.084
57454W        W23885   8.889  34.041   0.941
57455W        W23886   6.826  31.576   2.149
57456W        W23887  34.384   1.015   2.200
57457W        W23888   3.674  22.750   0.724
57458W        W23889  27.839  40.086  12.531
57459W        W23890  36.566  23.311   4.079
57460W        W23891  44.030   2.941   2.333
57461W        W23892  41.102  19.254   3.053
57462W        W23893  22.588  44.047   3.678
57463W        W23894  23.582  21.580   1.804
57464W        W23895  38.893  35.818   1.273
57465W        W23896   1.877  41.817   2.143
57466W        W23897   3.704  39.525   2.805
57467W        W23898   4.339  18.741   2.602
57468W        W23899  20.569  15.970   4.939
57469W        W23900  36.117   1.758   2.188
57470W        W23901  29.041  37.616   0.838
57471W        W23902  32.530  38.138   3.600
57472W        W23903  34.507  14.604  11.629
57473W        W23904  29.112  43.731   1.172
57474W        W23905   1.443  40.401   1.390
57475W        W23906  20.532  15.281  12.846
57476W        W23907  32.312  29.105   0.858
57477W        W23908  44.697  29.202   4.144
57478W        W23909  14.393  30.680  12.520
57479W        W23910  35.437  20.256   1.704
57480W        W23911  30.926  14.227  12.935
57481W        W23912  25.202  33.632  13.114
57482W        W23913  17.876  20.845   3.157
57483W        W23914  11.032  32.018   1.244
57484W        W23915  14.645  19.088   1.838
57485W        W23916   6.230  24.294   3.233
57486W        W23917   3.221  24.312   3.756
57487W        W23918  14.629   9.928  14.861
57488W        W23919  39.368  14.691  14.130
57489W        W23920   5.411  43.102  12.982
57490W        W23921  12.721  31.628   3.902
57491W        W23922   1.324  25.475   2.554
57492W        W23923  21.408  17.761   2.222
57493W        W23924  10.055  36.947   1.808
57494W        W23925  17.074  27.300  13.035
57495W        W23926  20.704  42.025  14.461
57496W        W23927  42.566  25.760  11.426
57497W        W23928  23.742   8.274   0.229
57498W        W23929  12.936  41.814   2.210
57499W        W23930  33.012  19.647  14.010
57500W        W23931  39.534   0.433   4.642
57501W        W23932  19.013  25.469  13.498
57502W        W23933  38.615   0.456   3.677
57503W        W23934  36.178  22.575   4.218
57504W        W23935  39.492  30.215  13.899
57505W        W23936  39.040  23.108  14.971
57506W        W23937  42.912  11.945  12.460
57507W        W23938  35.655  44.382  11.618
57508W        W23939  26.694  32.145  13.350
57509W        W23940   3.952  32.875   4.053
57510W        W23941   9.668  26.905  13.873
57511W        W23942  39.800   7.415   1.336
57512W        W23943  28.195  43.537   3.648
57513W        W23944  27.940  43.528   1.853
57514W        W23945  19.053  33.938  10.715
57515W        W23946  21.550   2.571   3.157
57516W        W23947  38.516  22.156   4.766
57517W        W23948  35.894  29.542   4.557
57518W        W23949  13.709  16.498  10.326
57519W        W23950  44.492  30.356   1.942
57520W        W23951  12.074  37.534   1.444
57521W        W23952  34.593  31.323  12.666
57522W        W23953  31.872  28.142   3.871
57523W        W23954  19.990   3.715   4.572
57524W        W23955  40.536   8.450  12.881
57525W        W23956  34.561  13.569   0.943
57526W        W23957  30.855   7.866  13.445
57527W        W23958   6.290  17.349   3.107
57528W        W23959   9.369  36.288  11.112
57529W        W23960  24.983  33.671   1.149
57530W        W23961  38.815  12.190  12.065
57531W        W23962  42.500  14.568  11.151
57532W        W23963  21.009  19.173  10.212
57533W        W23964  12.289   3.575   5.046
57534W        W23965   9.625  15.261   2.300
57535W        W23966  28.867  29.576  14.362
57536W        W23967  33.401  39.421   4.054
57537W        W23968   4.672  40.760  14.915
57538W        W23969  27.712   5.217   0.753
57539W        W23970  43.390  39.456   3.611
57540W        W23971  37.873  18.777   4.573
57541W        W23972   4.435  26.669  11.153
57542W        W23973  10.319  18.242  14.915
57543W        W23974  18.554  25.958  11.034
57544W        W23975  33.033  22.961  13.844
57545W        W23976   3.249  14.466   4.055
57546W        W23977   6.790   7.130  12.902
57547W        W23978  41.235  29.930   0.826
57548W        W23979  39.286  43.236   3.530
57549W        W23980  43.049  36.411  13.899
57550W        W23981  20.098   5.196  13.472
57551W        W23982  28.635   4.269  12.840
57552W        W23983  33.035  23.370  13.518
57553W        W23984  33.479   3.769  13.573
57554W        W23985  23.121   0.726   0.768
57555W        W23986  28.671  40.323   1.928
57556W        W23987   0.811  31.385  11.502
57557W        W23988  30.443  14.146  10.715
57558W        W23989  31.804  11.950   3.836
57559W        W23990   0.041  42.441   3.772
57560W        W23991   7.475  44.808   0.362
57561W        W23992   9.881  23.698  13.494
57562W        W23993  12.758  41.125   3.295
57563W        W23994  14.152  21.657   5.034
57564W        W23995   8.882  13.715   2.077
57565W        W23996  20.229  37.353   0.426
57566W        W23997  19.751   9.810   3.326
57567W        W23998  16.072  13.164   1.803
57568W        W23999  20.213  40.240   3.042
57569W        W24000  40.129   2.925  13.927
57570W        W24001  33.525  19.116   2.279
57571W        W24002  36.705  43.998   0.384
57572W        W24003  39.856  30.389  11.284
57573W        W24004  23.055  12.913   1.796
57574W        W24005  20.631  34.037   2.663
57575W        W24006  15.627  10.185  14.991
57576W        W24007   2.562  43.055  13.888
57577W        W24008   4.769   1.736  12.065
57578W        W24009  39.571  19.321   4.539
57579W        W24010   2.305  40.473   0.345
57580W        W24011   4.258  30.499  14.447
57581W        W24012  41.398   6.110  11.149
57582W        W24013   7.831   9.853   4.174
57583W        W24014   4.742  34.941   4.156
57584W        W24015  38.537   0.354   2.158
57585W        W24016  42.409  21.084  13.721
57586W        W24017  43.503  40.355  13.508
57587W        W24018   3.350   3.994   2.233
57588W        W24019  36.600  35.077   4.956
57589W        W24020   4.275   3.678   3.705
57590W        W24021  27.030  15.078  14.011
57591W        W24022  27.973   0.795  13.041
57592W        W24023  35.968  20.140  13.940
57593W        W24024  10.734  43.307   2.717
57594W        W24025  43.784  43.975   4.549
57595W        W24026  17.668  41.771  12.444
57596W        W24027   5.280   4.973  11.735
57597W        W24028  34.039   8.792  10.629
57598W        W24029  16.233  21.726  14.467
57599W        W24030  15.774  11.203   0.382
57600W        W24031  18.498  42.874   1.694
57601W        W24032   8.178  28.595  13.312
57602W        W24033  36.887  30.062  13.911
57603W        W24034  19.546  35.170   1.884
57604W        W24035  29.582  27.144   1.507
57605W        W24036  24.051   6.941  10.684
57606W        W24037   8.604  35.999  14.968
57607W        W24038  22.368  23.954  11.276
57608W        W24039  36.172  33.002   1.908
57609W        W24040   7.667   5.280   3.680
57610W        W24041  37.253   7.251  11.375
57611W        W24042  43.312  43.504   2.844
57612W        W24043  26.017  37.294  11.872
57613W        W24044  42.626   7.937   2.975
57614W        W24045  43.220  33.739  12.433
57615W        W24046  40.301  18.955  13.224
57616W        W24047  10.369  33.378   2.178
57617W        W24048   3.671   2.849  11.167
57618W        W24049   5.260  19.166  12.175
57619W        W24050  42.207  37.730  10.438
57620W        W24051  27.547  24.956   0.167
57621W        W24052   9.101  40.489   3.594
57622W        W24053  36.333  34.770   5.292
57623W        W24054  20.099  12.203   3.707
57624W        W24055  15.793  30.539  12.886
57625W        W24056   6.237   7.748  12.482
57626W        W24057  21.627   8.115   1.507
57627W        W24058  26.968  41.617   2.227
57628W        W24059  14.546  36.984  14.330
57629W        W24060   9.093  31.955   1.962
57630W        W24061  38.564  11.818   0.481
57631W        W24062  44.043  27.151   0.452
57632W        W24063  37.127  19.329  14.413
57633W        W24064  27.931  13.075   0.801
57634W        W24065   3.753  40.350  13.726
57635W        W24066   8.912  11.384   4.515
57636W        W24067  35.149  19.542   9.968
57637W        W24068  24.169  41.695   0.299
57638W        W24069   0.431   6.591  12.958
57639W        W24070   9.723  43.906  11.089
57640W        W24071  27.648  35.960  13.489
57641W        W24072  15.849   2.162   4.567
57642W        W24073  32.867   9.096  12.264
57643W        W24074  37.667  41.492   0.928
57644W        W24075  17.612  36.674  12.513
57645W        W24076  19.336  12.294  13.839
57646W        W24077  37.414  13.363  11.832
57647W        W24078  20.292  14.771   4.691
57648W        W24079  21.487  24.112   3.335
57649W        W24080   9.832   4.340   3.918
57650W        W24081   2.034   4.605  14.854
57651W        W24082  33.105   7.567   2.372
57652W        W24083  26.779   3.458   0.220
57653W        W24084  30.706  23.679  14.770
57654W        W24085  30.243  29.940  11.927
57655W        W24086   4.625  41.548   4.976
57656W        W24087   1.314  18.774  12.571
57657W        W24088  12.320  31.872  13.405
57658W        W24089  36.802   4.462  11.625
57659W        W24090   9.234  11.854  10.791
57660W        W24091  13.008   1.815  12.928
57661W        W24092  17.128   0.739   4.070
57662W        W24093  28.860  22.527  11.613
57663W        W24094  15.727   5.344  12.091
57664W        W24095  36.930   5.447  11.663
57665W        W24096  38.647   4.033  11.128
57666W        W24097  30.891  38.502  10.742
57667W        W24098  11.731   2.906   2.878
57668W        W24099  19.773  21.061   5.074
57669W        W24100  18.813   8.348   3.247
57670W        W24101  36.301  27.055  11.277
57671W        W24102  40.515  12.043   3.352
57672W        W24103  12.214  41.989   3.384
57673W        W24104  20.727  27.131   0.331
57674W        W24105   8.463  10.721   1.193
57675W        W24106  29.318  37.807  10.835
57676W        W24107  43.793  39.909   0.734
57677W        W24108  29.023  43.191   0.982
57678W        W24109  16.705  40.944  10.629
57679W        W24110  39.557  19.435  12.184
57680W        W24111  40.806  38.325   0.481
57681W        W24112  43.231  44.763  13.958
57682W        W24113  23.500  16.851  10.724
57683W        W24114  24.805   1.909  10.876
57684W        W24115   1.761  36.756  11.520
57685W        W24116  28.355  20.293   0.933
57686W        W24117   0.980   5.345   4.460
57687W        W24118  28.064   3.162   0.272
57688W        W24119  10.312  19.290   1.674
57689W        W24120  32.818  25.132  11.023
57690W        W24121   9.623  19.279   0.442
57691W        W24122  32.088   7.449   0.761
57692W        W24123  15.775  22.827   0.814
57693W        W24124  22.940  17.029  10.184
57694W        W24125  22.196  13.283   3.292
57695W        W24126  44.143  42.244   4.186
57696W        W24127   4.317   6.662  13.310
57697W        W24128  23.620  44.134  13.632
57698W        W24129  34.097   7.779  11.568
57699W        W24130  42.466  17.167  14.332
57700W        W24131  12.340  17.172  14.999
57701W        W24132   8.866  42.636   1.814
57702W        W24133   9.291  30.994  14.797
57703W        W24134   1.389   5.023  11.757
57704W        W24135  33.769   0.393   4.630
57705W        W24136  30.869  20.614   0.912
57706W        W24137  38.072  32.542  14.473
57707W        W24138  25.434   9.854  11.629
57708W        W24139  36.621   2.547  10.701
57709W        W24140  15.238  32.857  13.298
57710W        W24141  43.519   4.160  13.504
57711W        W24142   9.554  23.071   0.494
57712W        W24143  13.011  16.623  13.535
57713W        W24144  38.908   1.378  11.337
57714W        W24145   7.602  39.089  10.154
57715W        W24146  21.728  29.652  12.587
57716W        W24147  10.901   7.464  11.892
57717W        W24148  30.042  44.546   0.905
57718W        W24149   4.350   9.930   0.704
57719W        W24150   6.902  16.169   3.826
57720W        W24151  39.074  36.425   1.853
57721W        W24152  32.374  18.278  12.599
57722W        W24153  16.211  32.065  10.926
57723W        W24154   0.087  14.213  13.881
57724W        W24155   3.770  31.335   4.537
57725W        W24156  19.479   9.324  14.582
57726W        W24157  21.731  21.089  12.357
57727W        W24158  44.440  33.411  13.639
57728W        W24159   4.252  23.198  14.382
57729W        W24160  42.458  35.315   0.185
57730W        W24161  14.671  29.446   2.263
57731W        W24162  21.114  22.083   0.538
57732W        W24163  27.575  17.894  11.267
57733W        W24164  39.574   8.782   2.748
57734W        W24165   9.841   0.363  10.887
57735W        W24166  38.383  31.359  14.954
57736W        W24167   2.393  28.163  13.266
57737W        W24168   5.826  16.120   1.372
57738W        W24169  15.647  43.273   4.951
57739W        W24170  17.789  22.068  11.303
57740W        W24171  35.837  34.204   4.729
57741W        W24172  30.900  29.829   2.664
57742W        W24173  34.670  11.235  11.076
57743W        W24174  37.741  11.409   0.334
57744W        W24175  13.716  36.688  11.886
57745W        W24176  39.021  28.657   2.773
57746W        W24177  25.774   2.215   4.293
57747W        W24178  23.017  42.494  13.040
57748W        W24179  13.849  19.807  14.269
57749W        W24180  17.149  16.880  10.734
57750W        W24181   9.491  19.636   5.078
57751W        W24182   6.044  12.804  14.013
57752W        W24183  37.074   2.187  12.423
57753W        W24184  11.826  43.420  12.922
57754W        W24185  20.583   1.627  11.962
57755W        W24186  23.621  39.724  12.457
57756W        W24187   1.448  13.456  12.117
57757W        W24188   3.357  36.042   4.508
57758W        W24189  44.745  23.563  14.891
57759W        W24190   0.991  28.507  13.422
57760W        W24191  43.820   6.692  13.329
57761W        W24192   5.968  39.640   1.428
57762W        W24193  28.711  18.246   4.489
57763W        W24194  30.393   5.902  12.448
57764W        W24195  39.438  18.169  14.197
57765W        W24196  15.203   7.233   2.302
57766W        W24197  12.637  18.160   0.857
57767W        W24198  35.440  43.923  10.738
57768W        W24199  20.313  28.578   3.294
57769W        W24200   4.288  34.452  10.901
57770W        W24201  41.097  11.187   4.238
57771W        W24202   7.766  13.921   5.063
57772W        W24203  24.695  19.075   0.749
57773W        W24204  15.070  35.956   4.370
57774W        W24205  37.095  33.114   1.852
57775W        W24206   6.266  35.280   2.728
57776W        W24207   1.772  37.243   2.152
57777W        W24208  11.919  44.299  13.025
57778W        W24209  16.119  10.213   1.855
57779W        W24210  26.024  41.185   4.117
57780W        W24211  31.265  35.577  13.829
57781W        W24212  31.113   4.377   3.723
57782W        W24213   2.501  40.950  11.502
57783W        W24214  28.254  38.026   4.138
57784W        W24215  42.486   1.246  14.383
57785W        W24216  10.197   6.165  13.423
57786W        W24217  24.400  44.427   2.289
57787W        W24218  33.919   8.258  10.620
57788W        W24219   8.211   0.411   1.128
57789W        W24220  35.800  23.762  11.144
57790W        W24221  37.418   7.712   1.225
57791W        W24222  18.965   8.087   2.836
57792W        W24223  28.363   1.914   3.325
57793W        W24224  22.045   7.573  13.135
57794W        W24225  12.245  29.937  12.417
57795W        W24226  10.190  15.139  12.591
57796W        W24227  17.056  39.811  14.401
57797W        W24228   2.009  21.091   0.398
57798W        W24229  32.115  24.812   4.795
57799W        W24230  31.338  30.678  10.893
57800W        W24231  14.266  35.752  10.513
57801W        W24232  37.154  33.362   2.288
57802W        W24233  20.414  19.941   0.366
57803W        W24234  27.562  31.544   1.779
57804W        W24235  32.841   5.214   4.193
57805W        W24236  10.456   0.898  11.146
57806W        W24237  18.031  38.929  12.021
57807W        W24238  20.089  26.213  13.760
57808W        W24239   3.286  10.212  11.938
57809W        W24240  42.038  39.753   4.153
57810W        W24241  44.026  43.902   1.121
57811W        W24242   9.219  10.711   3.240
57812W        W24243  34.646  39.426   3.181
57813W        W24244  17.827  14.297   3.774
57814W        W24245   5.615   0.333   1.741
57815W        W24246  37.818  29.104  14.052
57816W        W24247  38.424  43.928   4.338
57817W        W24248   6.732  14.242   3.266
57818W        W24249  22.554  42.469   2.366
57819W        W24250  43.063  15.614   0.873
57820W        W24251  36.374  18.364  12.621
57821W        W24252   4.908  41.258  14.970
57822W        W24253   1.992  21.673  13.366
57823W        W24254  22.884  35.010  11.985
57824W        W24255  41.467  37.499  14.783
57825W        W24256  39.111  11.988   2.782
57826W        W24257  21.123   4.421   2.847
57827W        W24258  16.644   8.055  11.691
57828W        W24259  12.163   9.203   3.896
57829W        W24260  16.034  11.684   3.796
57830W        W24261   8.372  44.394  10.727
57831W        W24262  13.834  10.162   4.237
57832W        W24263   4.267  37.825  14.911
57833W        W24264  35.783  24.786   1.830
57834W        W24265   2.777  23.214   3.148
57835W        W24266  42.361  10.743  11.352
57836W        W24267   4.239   2.776   0.869
57837W        W24268   8.035   0.770   3.685
57838W        W24269  37.517   1.942  12.551
57839W        W24270  13.339  29.940  11.603
57840W        W24271   6.455  40.621  13.558
57841W        W24272  30.496   5.742  12.947
57842W        W24273  33.441  18.495  11.137
57843W        W24274  20.643   4.444  11.149
57844W        W24275  44.275  16.060   4.203
57845W        W24276   3.579  33.905   4.147
57846W        W24277  35.165  10.305   1.883
57847W        W24278  33.374  32.531   0.802
57848W        W24279   8.741  27.504   1.994
57849W        W24280  19.507  20.768  12.613
57850W        W24281  13.686   6.540   4.846
57851W        W24282  44.212   0.319  14.743
57852W        W24283  43.191   6.771   1.761
57853W        W24284  37.519  37.034  13.909
57854W        W24285   3.301  18.780   3.951
57855W        W24286  29.920  14.103  14.946
57856W        W24287   4.693   9.608   0.897
57857W        W24288  33.870   5.193  10.943
57858W        W24289  27.706  20.027  13.861
57859W        W24290  36.939  24.049  12.572
57860W        W24291  43.663  18.441  14.855
57861W        W24292  42.007   4.177   3.180
57862W        W24293  21.178  12.294   3.467
57863W        W24294  16.654  36.331  11.632
57864W        W24295  17.252  12.038   3.283
57865W        W24296  11.191  38.529   4.547
57866W        W24297   3.285  42.641   1.958
57867W        W24298  33.392  23.734  10.764
57868W        W24299  21.928  24.497  12.842
57869W        W24300   3.382   2.799  11.585
57870W        W24301  37.971  38.819  11.579
57871W        W24302  31.088  34.345   4.141
57872W        W24303  24.754  26.152  10.819
57873W        W24304  36.820  16.972   0.473
57874W        W24305  15.263  19.104   1.147
57875W        W24306  26.622  13.795   0.990
57876W        W24307  18.243  18.688  14.643
57877W        W24308  10.764   1.220   4.682
57878W        W24309  27.183  31.439   4.643
57879W        W24310  11.329  36.480   4.165
57880W        W24311   5.228  39.906   4.035
57881W        W24312   7.647  40.762  12.912
57882W        W24313  36.288   1.517  14.454
57883W        W24314   2.228  16.259  14.782
57884W        W24315  35.580   1.810   0.469
57885W        W24316  30.432  13.582   2.191
57886W        W24317  34.421   5.931   1.650
57887W        W24318   5.816  23.734   0.109
57888W        W24319  18.227  30.447   2.380
57889W        W24320  31.410  28.971   1.001
57890W        W24321   8.721   4.691  11.762
57891W        W24322   0.699   7.519  12.139
57892W        W24323  12.666   3.576  14.877
57893W        W24324   0.859  42.801   1.250
57894W        W24325  38.000  26.691  11.904
57895W        W24326   4.445  32.537  11.468
57896W        W24327  38.451  39.259  14.747
57897W        W24328  11.133  29.866  12.399
57898W        W24329  21.584  31.862   1.508
57899W        W24330  16.279   1.952   1.497
57900W        W24331  28.431  44.439  12.020
57901W        W24332  31.964   0.689  13.744
57902W        W24333   9.723  24.596   0.241
57903W        W24334  20.294  39.318   3.409
57904W        W24335   0.343  35.329   4.645
57905W        W24336   0.899  25.435   3.750
57906W        W24337  32.885  18.128  14.812
57907W        W24338  32.134   5.876  11.474
57908W        W24339  28.102  16.046  11.971
57909W        W24340  41.834  37.973  13.139
57910W        W24341   9.469  16.371   2.845
57911W        W24342   5.365  17.833   3.975
57912W        W24343  39.079   5.777  11.348
57913W        W24344  35.607  18.708  12.601
57914W        W24345  20.205  33.329   2.361
57915W        W24346   4.360  27.570   1.163
57916W        W24347  31.376   8.724  13.452
57917W        W24348  14.501  26.775  12.483
57918W        W24349  43.618   3.361  14.571
57919W        W24350  14.581  12.992  12.019
57920W        W24351  40.768   9.878  13.489
57921W        W24352   4.215  13.182  11.917
57922W        W24353  16.938  33.190   4.184
57923W        W24354  34.282  36.136   2.226
57924W        W24355  41.882  15.260   1.375
57925W        W24356  39.985  18.228   0.998
57926W        W24357  44.036  16.770  12.965
57927W        W24358  39.445  38.613   0.558
57928W        W24359   7.281  10.592   3.588
57929W        W24360  42.299  34.910  10.800
57930W        W24361  20.116  27.523  12.647
57931W        W24362  14.107  17.231  12.017
57932W        W24363  36.598   3.655   0.517
57933W        W24364   6.793  27.895  12.041
57934W        W24365  31.491  19.132  11.650
57935W        W24366  29.735  18.613  11.699
57936W        W24367  13.523  34.353   1.825
57937W        W24368  29.950   9.364  11.017
57938W        W24369  19.674   3.273  14.926
57939W        W24370  20.761  31.952   3.160
57940W        W24371  12.579  13.687   1.551
57941W        W24372  25.767  27.620  14.041
57942W        W24373  21.613  31.250  13.464
57943W        W24374  44.402   2.622  11.653
57944W        W24375   1.615  35.262  13.004
57945W        W24376  20.690  24.129   1.426
57946W        W24377  30.433  34.333   0.307
57947W        W24378  13.767  36.087   1.442
57948W        W24379  43.049  15.078  12.854
57949W        W24380  36.285   9.467   0.889
57950W        W24381  37.413  18.227   3.728
57951W        W24382  21.626   6.895   0.841
57952W        W24383  27.309  36.040   2.394
57953W        W24384  23.482  27.179  11.192
57954W        W24385  21.691  25.657  14.193
57955W        W24386  44.778  36.735   2.818
57956W        W24387  15.903  38.549  12.537
57957W        W24388   7.163  19.682   2.380
57958W        W24389  39.783  42.257  13.841
57959W        W24390  32.985  32.598  12.943
57960W        W24391  11.156   6.186   3.746
57961W        W24392  19.531  28.152   0.943
57962W        W24393   4.817  33.855   2.233
57963W        W24394  28.592   5.819  11.708
57964W        W24395  35.616   3.171   2.290
57965W        W24396  13.131   4.090  13.250
57966W        W24397   5.391  30.146   1.796
57967W        W24398  25.221  15.721  14.653
57968W        W24399  27.411   5.192  10.726
57969W        W24400  32.149  31.934  12.533
57970W        W24401   6.746  30.668  10.799
57971W        W24402  27.565  27.588   4.894
57972W        W24403  44.739  23.783   2.641
57973W        W24404  17.482   0.695   3.174
57974W        W24405   8.303  41.562  12.953
57975W        W24406   3.324  16.916  13.982
57976W        W24407   8.125  44.497  12.958
57977W        W24408  34.010  29.104  13.994
57978W        W24409  18.113  29.903  11.033
57979W        W24410  29.164  31.721  11.520
57980W        W24411  16.658   7.795   0.296
57981W        W24412  15.051  28.946   2.667
57982W        W24413  12.267  24.322   0.500
57983W        W24414   4.672  19.513  13.426
57984W        W24415  19.723  22.999   4.746
57985W        W24416  29.216  21.218  11.644
57986W        W24417  39.780  25.433   2.885
57987W        W24418  13.818  34.418   3.298
57988W        W24419  17.213  38.445   0.950
57989W        W24420  24.727  31.585   2.797
57990W        W24421  16.398  33.601   3.085
57991W        W24422  28.030  40.780   2.828
57992W        W24423  28.888   7.041   4.548
57993W        W24424  43.020  10.824  14.839
57994W        W24425   0.890   1.516  14.282
57995W        W24426  10.730  11.844  13.964
57996W        W24427  20.615  39.031   2.607
57997W        W24428   2.980   1.248  11.998
57998W        W24429  13.224  39.232  14.462
57999W        W24430  31.879  22.491   4.044
58000W        W24431  11.361  34.597  13.821
58001W        W24432  18.176   1.145   3.624
58002W        W24433   7.914  43.885  13.222
58003W        W24434  17.022  11.294  14.525
58004W        W24435  29.953  21.019   4.127
58005W        W24436  41.893   3.222   4.105
58006W        W24437   4.262  22.101  12.983
58007W        W24438  23.931  17.813  11.550
58008W        W24439   1.211  10.496   2.272
58009W        W24440   6.176  11.140  13.953
58010W        W24441  33.925  18.842  13.122
58011W        W24442  39.018   5.629  10.479
58012W        W24443  38.527  24.404  14.266
58013W        W24444  30.422  10.842   0.735
58014W        W24445  32.972  21.505   2.907
58015W        W24446   9.858   4.277   1.138
58016W        W24447  43.645  34.436   0.912
58017W        W24448  15.698   7.009  14.805
58018W        W24449   9.208  21.036   3.919
58019W        W24450  41.375  40.763   0.976
58020W        W24451  27.630  24.701  14.660
58021W        W24452   9.701   2.075  13.501
58022W        W24453  42.878  44.806  14.345
58023W        W24454  14.896  26.141  11.258
58024W        W24455   3.022  41.351  14.861
58025W        W24456  34.118  30.019   4.272
58026W        W24457  24.665  26.075  14.453
58027W        W24458  39.338  24.317   1.786
58028W        W24459  34.039  15.605  12.006
58029W        W24460  11.704   7.180  13.330
58030W        W24461  14.535  38.179   1.532
58031W        W24462  43.392  42.731   3.746
58032W        W24463  33.895  10.255  14.657
58033W        W24464  26.099  40.571   0.956
58034W        W24465  22.422  21.656   3.929
58035W        W24466  31.646  10.158  12.894
58036W        W24467  38.106  23.905   0.743
58037W        W24468  38.505  23.731   4.355
58038W        W24469  31.520  38.136   0.896
58039W        W24470  34.544   6.454   1.643
58040W        W24471  16.981  11.485  14.054
58041W        W24472  43.754   8.887   2.486
58042W        W24473  35.883   0.542   0.662
58043W        W24474   7.891   0.361  11.481
58044W        W24475  20.566   5.986   0.935
58045W        W24476  43.375  22.992  11.675
58046W        W24477  14.468  29.340   3.224
58047W        W24478  29.652  30.835  13.868
58048W        W24479  44.974  11.556  10.411
58049W        W24480  38.843  12.663  12.459
58050W        W24481   5.307   9.313  12.525
58051W        W24482  39.297   1.331  13.510
58052W        W24483  39.832  14.199  11.500
58053W        W24484  10.524   3.388   4.512
58054W        W24485  33.054  21.740   4.343
58055W        W24486  35.596  37.032   1.714
58056W        W24487  28.488  27.624   1.851
58057W        W24488  17.990   1.797  12.537
58058W        W24489   7.198   0.347   2.158
58059W        W24490  44.357   3.313  13.526
58060W        W24491   7.654  41.758  13.461
58061W        W24492  11.343  22.627  10.772
58062W        W24493  37.963  19.736  13.428
58063W        W24494  38.424   0.257  11.536
58064W        W24495  26.955  27.991   3.357
58065W        W24496  10.283  12.156  10.600
58066W        W24497  40.861  43.074  10.589
58067W        W24498   1.838   3.425  10.671
58068W        W24499   9.114  38.061   4.131
58069W        W24500  19.179  26.993   4.873
58070W        W24501  22.942  38.754   0.391
58071W        W24502  38.007  41.639  13.755
58072W        W24503   1.342   0.553  13.268
58073W        W24504  21.836  19.800  10.138
58074W        W24505  36.318   4.311   3.679
58075W        W24506  13.457   0.078  11.163
58076W        W24507  37.488  44.475  10.985
58077W        W24508  37.775  31.798  12.545
58078W        W24509  12.790  30.599  12.791
58079W        W24510   5.690  24.730   0.720
58080W        W24511   2.865  37.796   2.761
58081W        W24512  42.982   1.064   5.035
58082W        W24513  13.655   4.656  14.387
58083W        W24514  42.571  10.816  12.586
58084W        W24515  42.491  18.875   1.310
58085W        W24516  40.023   0.875   3.369
58086W        W24517   3.233  30.513  10.779
58087W        W24518  43.435  11.596  11.637
58088W        W24519  42.027   9.362   0.626
58089W        W24520   4.667   3.618  14.973
58090W        W24521  12.834   3.139  12.882
58091W        W24522  41.304  29.601  12.200
58092W        W24523  13.168  40.852  12.427
58093W        W24524  12.121  44.508  10.121
58094W        W24525  44.607   8.990  11.127
58095W        W24526  11.919  33.047  12.556
58096W        W24527  44.278  24.277  13.769
58097W        W24528  13.480  35.263  12.288
58098W        W24529  25.221  15.681   4.326
58099W        W24530  44.719  24.817  11.144
58100W        W24531  20.025   1.304  10.794
58101W        W24532  34.985  41.886  11.078
58102W        W24533  42.120   6.633  14.739
58103W        W24534  27.917  28.040   3.166
58104W        W24535  30.518  26.650   3.768
58105W        W24536   7.372   2.920   1.785
58106W        W24537  31.583  35.492  14.933
58107W        W24538   5.419  25.985  11.931
58108W        W24539  37.522  44.498   0.665
58109W        W24540  17.352  25.724   2.724
58110W        W24541   6.726  15.648  12.171
58111W        W24542   9.080  39.350  11.901
58112W        W24543   2.236  32.869  13.082
58113W        W24544  27.712  33.055  11.972
58114W        W24545  35.067  43.818   3.312
58115W        W24546  39.503  19.703  11.750
58116W        W24547  34.531  23.672  14.759
58117W        W24548   4.858   0.471   1.466
58118W        W24549  27.930  43.109  14.073
58119W        W24550   1.017  44.932   2.261
58120W        W24551  39.116  22.502  11.521
58121W        W24552  25.489  42.952  14.558
58122W        W24553  14.563   2.332   3.679
58123W        W24554  43.491  11.775   1.794
58124W        W24555  10.760   4.500   3.620
58125W        W24556  41.762   8.585  12.966
58126W        W24557   6.982   2.705  11.748
58127W        W24558   5.153  32.491  14.348
58128W        W24559  10.253   9.878  13.481
58129W        W24560  24.437  36.222   0.422
58130W        W24561  27.043   7.229   0.393
58131W        W24562  27.939  14.910  13.838
58132W        W24563  32.545  43.069   0.439
58133W        W24564  34.694  36.873   3.646
58134W        W24565  39.356  24.463   2.594
58135W        W24566   2.790   2.355  10.670
58136W        W24567   7.319  38.232  12.642
58137W        W24568  15.985   4.635   1.406
58138W        W24569  11.193  16.135  11.965
58139W        W24570  28.680  21.780  13.211
58140W        W24571  21.741  44.923  12.487
58141W        W24572   6.259  16.859  12.070
58142W        W24573  16.224  37.563  13.458
58143W        W24574  28.131  33.569  13.167
58144W        W24575  27.335   6.638  11.173
58145W        W24576  11.645  39.701   3.677
58146W        W24577  10.157  24.297   2.237
58147W        W24578  23.195  12.470  10.459
58148W        W24579  41.078  36.868  13.477
58149W        W24580  28.081  15.562  10.027
58150W        W24581   1.468  14.766  12.598
58151W        W24582  17.941  28.803   3.167
58152W        W24583   5.176   9.691  14.611
58153W        W24584  43.451  27.028   1.649
58154W        W24585  25.659  36.365   1.874
58155W        W24586  15.345  43.063  12.539
58156W        W24587   4.168  32.410   3.237
58157W        W24588  38.578  19.608  12.867
58158W        W24589  43.292  39.775   0.791
58159W        W24590  18.803   0.872   4.639
58160W        W24591  31.116  31.953   3.910
58161W        W24592  22.124  25.719  10.645
58162W        W24593   1.129  11.137   0.129
58163W        W24594  19.146  27.359   1.879
58164W        W24595  33.629  17.848  10.411
58165W        W24596  14.578  21.404  10.773
58166W        W24597  43.828  35.413  11.157
58167W        W24598  33.164   8.825  13.304
58168W        W24599  16.198  37.242  14.880
58169W        W24600  30.002   6.265   1.934
58170W        W24601  20.687   1.136  12.051
58171W        W24602  20.132  13.355  10.661
58172W        W24603  30.837  21.058   4.817
58173W        W24604   3.248   8.811  14.360
58174W        W24605   6.919  13.330  10.646
58175W        W24606  31.588  20.178   4.341
58176W        W24607   1.863  28.317  11.663
58177W        W24608  39.370   5.746  13.877
58178W        W24609  36.599  28.798  11.524
58179W        W24610  31.197  38.425   2.398
58180W        W24611  13.877  19.338  11.120
58181W        W24612  22.535  31.560   1.732
58182W        W24613  35.540  19.558  12.201
58183W        W24614  25.178  28.613   1.377
58184W        W24615  36.421  15.641  12.987
58185W        W24616  15.290  34.481  10.990
58186W        W24617  20.585  23.336  12.430
58187W        W24618  20.675  34.540   2.716
58188W        W24619   5.487   6.711   1.397
58189W        W24620  31.030  44.907  14.895
58190W        W24621   9.380  34.165   2.652
58191W        W24622  37.796  11.304   3.844
58192W        W24623  22.445  41.849  12.523
58193W        W24624  44.772  20.947   0.021
58194W        W24625  33.744   5.021  14.819
58195W        W24626   5.461  21.992  11.499
58196W        W24627  42.783  16.603   1.423
58197W        W24628  13.687   7.059   2.874
58198W        W24629   1.717  15.098   1.827
58199W        W24630   1.549  41.377   2.081
58200W        W24631   7.674   6.003   3.120
58201W        W24632  22.550  12.144  11.658
58202W        W24633  38.367  10.128   3.731
58203W        W24634  35.898  13.364   1.801
58204W        W24635   7.582  41.048   2.148
58205W        W24636  39.770  39.435   1.740
58206W        W24637  24.638  15.813   0.246
58207W        W24638  20.828   1.333  11.582
58208W        W24639   7.372  33.671  11.493
58209W        W24640  41.565  44.968  11.484
58210W        W24641  21.013  10.951   2.116
58211W        W24642  35.671  39.883  14.898
58212W        W24643  26.712  12.694  13.454
58213W        W24644  29.554  21.096  14.010
58214W        W24645  33.975  28.233   4.606
58215W        W24646  23.999   3.993  11.177
58216W        W24647  43.007  13.320  14.244
58217W        W24648  36.049  41.097  11.997
58218W        W24649  28.987  31.125  14.480
58219W        W24650   1.009   8.867  13.918
58220W        W24651   7.728  24.176   4.140
58221W        W24652  19.533  14.604   0.289
58222W        W24653  36.593  15.798  13.677
58223W        W24654   3.862  21.988   4.559
58224W        W24655   2.859  18.982   4.407
58225W        W24656  34.800  30.996   1.503
58226W        W24657  42.830  11.130   3.356
58227W        W24658  40.302  21.974  13.851
58228W        W24659  14.860  28.425  11.530
58229W        W24660  32.532  35.389  12.115
58230W        W24661  17.727  21.077  10.554
58231W        W24662  22.554  36.576   3.255
58232W        W24663  33.612   6.846   3.189
58233W        W24664  42.392   7.836  13.768
58234W        W24665   3.928  11.151   4.159
58235W        W24666  15.718   6.442   3.277
58236W        W24667   2.601   8.870  12.885
58237W        W24668   0.850   7.283   2.519
58238W        W24669  23.861   0.553   0.764
58239W        W24670  18.503  17.791  12.404
58240W        W24671  24.130   7.137   0.136
58241W        W24672  21.704  34.916   0.972
58242W        W24673   9.257   7.883  11.974
58243W        W24674  37.104  12.664   3.579
58244W        W24675   6.955  29.237  11.877
58245W        W24676   1.116  41.481  14.043
58246W        W24677  11.840  27.606  13.868
58247W        W24678   8.908  21.222  14.016
58248W        W24679  11.213   5.530   0.682
58249W        W24680  23.680  33.212   4.615
58250W        W24681  14.269  26.237  14.299
58251W        W24682  22.589   4.441  10.966
58252W        W24683  25.689  15.927   3.683
58253W        W24684   0.223  12.590  12.668
58254W        W24685   1.160  38.625  14.603
58255W        W24686  12.950  13.929  11.427
58256W        W24687  22.194   0.282   0.517
58257W        W24688   6.239  42.076   2.800
58258W        W24689  38.498   1.001   0.694
58259W        W24690  23.052  26.590   4.597
58260W        W24691  16.388  40.263  11.042
58261W        W24692  29.832  41.879  14.351
58262W        W24693  24.894   0.402   3.419
58263W        W24694  21.192  15.103  14.985
58264W        W24695  10.727  24.697   3.428
58265W        W24696   4.724   6.922   4.214
58266W        W24697  17.506  31.525   4.880
58267W        W24698  38.060  20.559   1.278
58268W        W24699   0.275  19.527   4.554
58269W        W24700  22.694  26.199  12.043
58270W        W24701  43.507  14.878   3.589
58271W        W24702  21.998  16.813   3.264
58272W        W24703  23.489  25.218  13.337
58273W        W24704  42.022  24.063  13.005
58274W        W24705  32.541  24.607   1.051
58275W        W24706  15.585  19.288  14.520
58276W        W24707  29.450  40.946   0.500
58277W        W24708  33.795  29.972  11.107
58278W        W24709  38.794  33.139   4.367
58279W        W24710  30.481  29.496   3.237
58280W        W24711  44.295   0.413   2.295
58281W        W24712  18.314  15.717   1.002
58282W        W24713  33.512  29.560  12.635
58283W        W24714   6.462   2.859  11.732
58284W        W24715   5.268  30.074  12.454
58285W        W24716  26.182  34.854   1.249
58286W        W24717   9.458  28.722   2.796
58287W        W24718   2.001   2.003   3.617
58288W        W24719   0.674  29.471  12.042
58289W        W24720  14.037   1.813   9.744
58290W        W24721  35.658  35.356  10.833
58291W        W24722  24.897   2.499   3.097
58292W        W24723   6.550  19.205  13.518
58293W        W24724  44.959  12.833   4.153
58294W        W24725   6.413  20.599   2.051
58295W        W24726   2.493  39.277   1.861
58296W        W24727  44.659  20.472  11.193
58297W        W24728  39.451   2.239  12.509
58298W        W24729  44.388  28.908   4.987
58299W        W24730  17.776  37.950   0.018
58300W        W24731  21.127  44.989  11.931
58301W        W24732  41.400  17.500  13.114
58302W        W24733  37.922   1.215  12.348
58303W        W24734  33.324  12.539   2.379
58304W        W24735  42.363   9.865  14.331
58305W        W24736   7.235  25.019  14.071
58306W        W24737  26.464  39.471   4.584
58307W        W24738  14.165  10.866  12.113
58308W        W24739  14.237  22.823   1.674
58309W        W24740  16.510  30.048  13.189
58310W        W24741   8.390  30.561   2.171
58311W        W24742  31.302   7.449  13.934
58312W        W24743   9.349   6.245   2.065
58313W        W24744  26.960  35.362   0.395
58314W        W24745  25.649  16.293  12.516
58315W        W24746  18.700  28.639  11.686
58316W        W24747  24.730  35.070   1.386
58317W        W24748  41.320  32.628  12.055
58318W        W24749  12.681  16.838  13.889
58319W        W24750  11.186  14.689   2.754
58320W        W24751   1.510  22.571  12.211
58321W        W24752   4.221  22.220   4.852
58322W        W24753  14.757  16.338   4.320
58323W        W24754  17.649  16.020   0.866
58324W        W24755  43.361  37.610  11.097
58325W        W24756  30.224  40.471  11.747
58326W        W24757   6.754  44.521  14.476
58327W        W24758  33.957   0.056   0.413
58328W        W24759  15.265  11.904   3.202
58329W        W24760  27.611  33.658  13.974
58330W        W24761   9.490   7.526   2.825
58331W        W24762  13.151  22.596  13.554
58332W        W24763   4.642  39.508   0.473
58333W        W24764   3.748  24.000   1.689
58334W        W24765  15.046  10.015  11.610
58335W        W24766  39.940  37.914  10.895
58336W        W24767  27.607   3.689   3.196
58337W        W24768  27.849  42.278   0.228
58338W        W24769  10.099  30.892   2.316
58339W        W24770  29.905   5.211   3.865
58340W        W24771   4.294  37.516   0.540
58341W        W24772   7.139  20.210   5.226
58342W        W24773  40.259   5.871  10.520
58343W        W24774  35.955  35.599   2.477
58344W        W24775  41.472  14.911  13.754
58345W        W24776  15.133  30.048  12.862
58346W        W24777   1.396  32.321  10.622
58347W        W24778  36.732  32.109  14.324
58348W        W24779  42.814  31.467  12.560
58349W        W24780  11.745  14.646   0.412
58350W        W24781  33.141  17.234  12.776
58351W        W24782  27.620  17.208   4.831
58352W        W24783   6.834  37.025  12.584
58353W        W24784  12.247  33.837   2.321
58354W        W24785  31.094  27.902   1.817
58355W        W24786  39.498   2.370   2.841
58356W        W24787  20.625  40.998   3.156
58357W        W24788  17.852  39.589   3.151
58358W        W24789  19.800   6.666   4.099
58359W        W24790  44.436  30.969  13.040
58360W        W24791  38.249  43.458   5.523
58361W        W24792   8.554  12.856  11.057
58362W        W24793  12.226   0.030  14.770
58363W        W24794   1.222  44.852   3.599
58364W        W24795  38.316  20.434  11.660
58365W        W24796  10.515  41.063   2.390
58366W        W24797  25.235   1.778   0.796
58367W        W24798  22.688  39.866   9.562
58368W        W24799  15.438  21.667   0.462
58369W        W24800  12.108   9.787  13.164
58370W        W24801  10.572   6.222  11.587
58371W        W24802  36.146  30.388   2.357
58372W        W24803  16.121  19.769   0.707
58373W        W24804   1.755  33.706   3.873
58374W        W24805  11.830  33.936  12.480
58375W        W24806  43.302  22.046  14.826
58376W        W24807   0.539  42.021  13.001
58377W        W24808  11.055  27.990   0.796
58378W        W24809  10.700  25.481  11.504
58379W        W24810  43.814  19.269   1.005
58380W        W24811   1.166  34.817  13.617
58381W        W24812  28.411  15.858   0.962
58382W        W24813  34.361  27.316  12.378
58383W        W24814  20.604  33.341  13.533
58384W        W24815  40.350  43.538  13.947
58385W        W24816  10.811  44.841   4.515
58386W        W24817  13.163   3.854   2.882
58387W        W24818  43.299  24.008   0.950
58388W        W24819  19.963  34.063  13.541
58389W        W24820  22.967  14.292  14.347
58390W        W24821  35.613   8.617  14.104
58391W        W24822  15.218  21.712   4.336
58392W        W24823  41.044  35.400   1.091
58393W        W24824   7.975  19.048   0.834
58394W        W24825  25.156   1.801   2.138
58395W        W24826   6.395  34.930   2.332
58396W        W24827  22.550  24.946   2.687
58397W        W24828   2.306  37.488   1.514
58398W        W24829  39.786  27.971  11.694
58399W        W24830  36.014  42.058  12.042
58400W        W24831  40.345   1.848  14.571
58401W        W24832  12.019   2.757   4.119
58402W        W24833  23.327  27.921  13.008
58403W        W24834  32.082  39.887   1.806
58404W        W24835  32.156  13.751  12.089
58405W        W24836   5.150  43.945  10.838
58406W        W24837   9.598  37.473  14.750
58407W        W24838   8.807  11.072   2.361
58408W        W24839  32.669  43.805  11.197
58409W        W24840   0.248  43.887   4.514
58410W        W24841  26.975  42.006  12.898
58411W        W24842  25.821  42.167   4.663
58412W        W24843  36.110  13.190   2.235
58413W        W24844   9.638  11.680  11.598
58414W        W24845  35.876  41.949   1.756
58415W        W24846  33.921  21.736   4.709
58416W        W24847  42.829  19.297   2.284
58417W        W24848   5.342   1.715   1.318
58418W        W24849   3.013  15.781   3.591
58419W        W24850   1.346  27.715  10.559
58420W        W24851  25.872   3.449  11.505
58421W        W24852  20.050  21.980   3.852
58422W        W24853  10.252  34.860   2.086
58423W        W24854  40.416  14.637  13.370
58424W        W24855  12.168  26.175  14.358
58425W        W24856   3.340   8.973   4.170
58426W        W24857  37.358  15.181  14.919
58427W        W24858  21.972  24.279   3.322
58428W        W24859  30.469  19.501  14.784
58429W        W24860  35.191  17.552  10.628
58430W        W24861   8.319  24.921  14.177
58431W        W24862  12.768  31.536   3.405
58432W        W24863   2.603  18.353   1.753
58433W        W24864   7.692  26.060  12.140
58434W        W24865   8.813  18.669   0.988
58435W        W24866  13.199  23.908  11.573
58436W        W24867  43.967  36.275  10.654
58437W        W24868  20.676  33.068  14.893
58438W        W24869   0.351   5.635  12.750
58439W        W24870   3.479  21.795   2.318
58440W        W24871  19.832  15.538  11.194
58441W        W24872   4.704  27.544  13.598
58442W        W24873  27.127  23.480  12.997
58443W        W24874  42.416  42.978   0.467
58444W        W24875  28.667   1.931   4.604
58445W        W24876  36.116   0.264   0.271
58446W        W24877  19.092   3.757   4.577
58447W        W24878  30.918  17.251  14.492
58448W        W24879   6.024  41.827   1.805
58449W        W24880  20.528  42.640  12.549
58450W        W24881  21.487  28.623  13.294
58451W        W24882  17.664   2.994  11.560
58452W        W24883   2.904  32.271  10.513
58453W        W24884  42.332  43.160  14.395
58454W        W24885   7.499   5.085   3.211
58455W        W24886  13.570   3.178  12.394
58456W        W24887  20.829  10.356   2.214
58457W        W24888   6.156  13.051  14.901
58458W        W24889  23.453  41.806  12.522
58459W        W24890   6.748  29.711  14.353
58460W        W24891  27.484  35.484   0.406
58461W        W24892  39.608  12.672   0.314
58462W        W24893  32.615  32.755  10.755
58463W        W24894  39.349  12.768  14.349
58464W        W24895  35.398  36.220   0.725
58465W        W24896   9.548  27.983   0.899
58466W        W24897  27.005  22.518   3.109
58467W        W24898  25.509   3.861  12.494
58468W        W24899  33.634  22.749   3.699
58469W        W24900  32.998   3.280   1.290
58470W        W24901   5.917  41.572   3.757
58471W        W24902  28.051  21.540  11.453
58472W        W24903  18.595  43.220  11.952
58473W        W24904  25.692  21.721  12.505
58474W        W24905   6.683  29.947   4.716
58475W        W24906   0.828  28.507   3.389
58476W        W24907  38.399   9.709   1.917
58477W        W24908  12.200  23.034  14.758
58478W        W24909  26.478  42.381  13.778
58479W        W24910  22.670  20.564   2.636
58480W        W24911  44.320  40.226   4.077
58481W        W24912  32.595  33.506   3.909
58482W        W24913  14.339  38.491   0.706
58483W        W24914  27.919  37.318   3.782
58484W        W24915   8.127   9.050   1.938
58485W        W24916  37.835  12.025   9.898
58486W        W24917   5.827  40.574  14.751
58487W        W24918  11.041  11.505  11.620
58488W        W24919  10.852  31.588  10.930
58489W        W24920   6.986  16.049  14.492
58490W        W24921  42.908   0.699   1.368
58491W        W24922  35.928  22.520   2.876
58492W        W24923  31.442  15.041   0.357
58493W        W24924   6.701  36.536   2.467
58494W        W24925  14.865  25.431  13.825
58495W        W24926   3.458  32.081   3.081
58496W        W24927  12.879  15.481   0.804
58497W        W24928  40.247  13.531   3.352
58498W        W24929  41.769  29.880  13.979
58499W        W24930  33.746   9.744  10.118
58500W        W24931   3.831   3.503   0.306
58501W        W24932  29.211  18.491  12.545
58502W        W24933   5.209  42.079  11.717
58503W        W24934   6.903  36.901  14.445
58504W        W24935   5.058  30.787  11.196
58505W        W24936  29.652  27.649   0.760
58506W        W24937  20.607  10.258  12.837
58507W        W24938   2.238  17.744   4.203
58508W        W24939  32.546  21.226   2.789
58509W        W24940   7.221  21.234   1.401
58510W        W24941   9.350  14.895  13.489
58511W        W24942  11.344  44.022  11.660
58512W        W24943  15.791   6.684  13.578
58513W        W24944  19.296  40.898  12.030
58514W        W24945  23.480  39.400   0.576
58515W        W24946  37.122  16.578  11.628
58516W        W24947  42.597  11.385   4.238
58517W        W24948  43.611  25.219  13.944
58518W        W24949  32.831  29.155   1.623
58519W        W24950  34.370   7.080  11.086
58520W        W24951  32.510  21.291  14.144
58521W        W24952  32.687  32.677   5.510
58522W        W24953  37.376  12.628  13.902
58523W        W24954   9.824  28.282   4.859
58524W        W24955  27.639  30.587  13.542
58525W        W24956  42.417   6.316   1.928
58526W        W24957   6.851  18.374   4.110
58527W        W24958  33.533  34.864   1.905
58528W        W24959  33.876  30.346   0.907
58529W        W24960   9.735  13.248  13.535
58530W        W24961  16.396   2.142  11.626
58531W        W24962  22.461  27.493  13.204
58532W        W24963  17.700  29.323  13.699
58533W        W24964  23.747   2.630  11.223
58534W        W24965  42.056   7.177  10.223
58535W        W24966  34.395   2.070  12.177
58536W        W24967  25.620  42.829  13.505
58537W        W24968  43.283  11.211  13.722
58538W        W24969  11.385  27.354  10.719
58539W        W24970  15.130  24.968  12.464
58540W        W24971  35.368  41.952  12.662
58541W        W24972  40.052  33.903   3.225
58542W        W24973   9.733  10.816  12.690
58543W        W24974   2.865  12.353  10.323
58544W        W24975  28.501  24.072  12.789
58545W        W24976   7.699  34.423   1.203
58546W        W24977  15.157  35.900   2.364
58547W        W24978  42.473  23.551  13.994
58548W        W24979   8.187  29.908  11.093
58549W        W24980  20.217  36.953   0.028
58550W        W24981  33.778  11.669  11.118
58551W        W24982  18.599   7.244   1.358
58552W        W24983  21.172  42.715   1.538
58553W        W24984  34.510  35.993   3.250
58554W        W24985  29.742  44.340  14.371
58555W        W24986  28.146  36.809   4.721
58556W        W24987  37.680  28.925   2.868
58557W        W24988  20.496   1.084  12.527
58558W        W24989  28.354  39.178   4.386
58559W        W24990  41.346  29.043   0.759
58560W        W24991  41.860  42.874  12.146
58561W        W24992  40.527  36.351   1.213
58562W        W24993  38.980  38.748   2.626
58563W        W24994  26.582  14.914   4.548
58564W        W24995   3.405  35.875   0.241
58565W        W24996  23.512   2.579   1.700
58566W        W24997  17.813  32.818   3.710
58567W        W24998  24.709   1.660  13.109
58568W        W24999  44.751  23.130   1.833
58569W        W25000  32.707  22.009  12.077
58570W        W25001  26.997   6.859   4.530
58571W        W25002  38.976   9.034  11.985
58572W        W25003  20.050  39.395  11.562
58573W        W25004  28.128  42.013  13.866
58574W        W25005  11.763  11.176  14.790
58575W        W25006  31.548   8.152   1.416
58576W        W25007  17.130  36.076  11.464
58577W        W25008   7.201  24.757  12.467
58578W        W25009  25.456  36.951   4.137
58579W        W25010  28.429   1.659  12.519
58580W        W25011  11.293  21.726   1.732
58581W        W25012  35.421  21.434  12.523
58582W        W25013  37.284  15.077  13.486
58583W        W25014  43.279  10.845  11.980
58584W        W25015   0.760  14.838   1.112
58585W        W25016  12.131   8.741  10.670
58586W        W25017  42.666  10.585   2.755
58587W        W25018  15.230  31.889  10.678
58588W        W25019  37.871  18.288  12.082
58589W        W25020  40.266  26.517  11.240
58590W        W25021  11.384  16.791  12.558
58591W        W25022   3.279  26.036  13.820
58592W        W25023  25.575  11.319  11.265
58593W        W25024   8.295  30.627   4.587
58594W        W25025  42.342  44.597  14.250
58595W        W25026  42.711  10.677  13.084
58596W        W25027  20.632  15.708  14.609
58597W        W25028  32.472   1.967   2.146
58598W        W25029   5.837  17.670   2.680
58599W        W25030   5.289  13.437  10.684
58600W        W25031  25.021  14.307   1.432
58601W        W25032  13.357  37.502   3.714
58602W        W25033   5.706  20.219   1.727
58603W        W25034   5.424  40.659  13.949
58604W        W25035  39.721  17.980  12.036
58605W        W25036  44.940  15.971  13.064
58606W        W25037  29.411  22.081   1.954
58607W        W25038  40.486   9.823  10.779
58608W        W25039  36.410  14.666   1.503
58609W        W25040   8.932  32.735   1.263
58610W        W25041   0.018  24.672   0.848
58611W        W25042  21.196  14.157  11.288
58612W        W25043  29.766  39.667   0.465
58613W        W25044   4.870  26.899   1.624
58614W        W25045  34.951  41.816   3.329
58615W        W25046  37.490   2.002   2.669
58616W        W25047   4.232  11.456  14.078
58617W        W25048  15.913  18.731  11.077
58618W        W25049  22.705  28.595   1.387
58619W        W25050   8.029  35.942   4.871
58620W        W25051  13.708  37.331  12.454
58621W        W25052  15.108  33.993  14.389
58622W        W25053  35.921  28.546  11.175
58623W        W25054  10.407   9.348  13.689
58624W        W25055  11.240  43.069  10.598
58625W        W25056   9.461  26.442  12.488
58626W        W25057  19.309  32.972  13.935
58627W        W25058  44.884   3.434   3.472
58628W        W25059  37.374  37.900  11.595
58629W        W25060  17.384   8.712   4.026
58630W        W25061  12.453  23.331   1.504
58631W        W25062  40.795  39.357   4.062
58632W        W25063  20.072   2.644   3.796
58633W        W25064   6.624  26.511   1.617
58634W        W25065  10.354  16.220   0.569
58635W        W25066  42.304  36.756  10.897
58636W        W25067  20.787  17.033   1.968
58637W        W25068  42.106  32.591   0.352
58638W        W25069  37.437  30.304   2.648
58639W        W25070  24.396   1.495   4.067
58640W        W25071   4.602  23.384   5.172
58641W        W25072  39.968   4.019  14.524
58642W        W25073  26.671   0.713  10.917
58643W        W25074  37.350  43.766  13.509
58644W        W25075   2.055  21.984  12.942
58645W        W25076   8.633   1.923   1.895
58646W        W25077  11.602  12.345   0.177
58647W        W25078  44.797  10.289  10.444
58648W        W25079  23.149  15.599  13.051
58649W        W25080  26.319  30.271   1.711
58650W        W25081  30.139  32.087   1.396
58651W        W25082  11.877  10.582  12.078
58652W        W25083  41.782  31.681   4.467
58653W        W25084   4.654  33.924  12.623
58654W        W25085  31.038  16.029   4.039
58655W        W25086  15.034  28.582   4.031
58656W        W25087  33.984  11.068  11.499
58657W        W25088  27.440   4.796   0.740
58658W        W25089  42.884  42.954   2.269
58659W        W25090  10.042  33.043   2.674
58660W        W25091  39.221   9.346  11.106
58661W        W25092  12.292  19.785  10.418
58662W        W25093   4.645  14.626  14.853
58663W        W25094  33.613   8.502   3.509
58664W        W25095  42.041  32.504   1.688
58665W        W25096   0.218  18.171   1.307
58666W        W25097   6.145  27.584   0.839
58667W        W25098   1.976  22.103   3.357
58668W        W25099  44.440   8.374  12.327
58669W        W25100  31.375  16.378   4.249
58670W        W25101  21.169  22.806  14.512
58671W        W25102   9.827  25.214  13.424
58672W        W25103   8.369  15.716   5.125
58673W        W25104  35.073  22.380   3.312
58674W        W25105  11.665  29.060  13.816
58675W        W25106  27.024  39.165   2.255
58676W        W25107  20.118  31.298   1.385
58677W        W25108   4.615   7.912  13.820
58678W        W25109  15.720  42.177  10.119
58679W        W25110  31.608  38.822   4.914
58680W        W25111  20.997  18.199  10.256
58681W        W25112  16.761  15.242   0.548
58682W        W25113  41.256   5.159   3.202
58683W        W25114  18.252   0.189  11.474
58684W        W25115  39.404  34.258   1.685
58685W        W25116  25.700   7.946  12.564
58686W        W25117  17.092  11.906   0.351
58687W        W25118  29.653  34.539  10.282
58688W        W25119  44.346  35.918  10.658
58689W        W25120   6.909  31.154  14.438
58690W        W25121   7.688  26.462   1.539
58691W        W25122  26.495  42.152  14.258
58692W        W25123  22.489  12.073   3.669
58693W        W25124  31.183  23.791  13.019
58694W        W25125   0.092   6.240   0.514
58695W        W25126  24.747  20.485   0.258
58696W        W25127  29.599  28.356  12.962
58697W        W25128  25.268  36.938  11.202
58698W        W25129  29.074   0.488   1.491
58699W        W25130  41.641  33.893   3.687
58700W        W25131   4.883  38.750  14.332
58701W        W25132   4.633  27.975   2.613
58702W        W25133  41.226   5.683   0.740
58703W        W25134  32.047  17.717   3.862
58704W        W25135   5.382  13.708  11.550
58705W        W25136  12.709   0.376  12.389
58706W        W25137  10.212  13.202  12.627
58707W        W25138  14.813  11.370  12.636
58708W        W25139  33.664   0.683   1.830
58709W        W25140  17.110  29.106   2.124
58710W        W25141   9.889  10.923   1.251
58711W        W25142  27.630  28.477   2.333
58712W        W25143  12.585  24.551   9.929
58713W        W25144  35.516  42.455  11.577
58714W        W25145  36.834  45.000   4.168
58715W        W25146  13.126  10.378   0.456
58716W        W25147  37.440  31.042   1.481
58717W        W25148  39.961   3.192  11.030
58718W        W25149  10.643  18.061  14.526
58719W        W25150  35.023  29.825  13.005
58720W        W25151  42.373   5.818   1.788
58721W        W25152  25.876  25.804   0.857
58722W        W25153  22.191  22.948   1.730
58723W        W25154  17.863  30.252   1.185
58724W        W25155  40.955  30.351   0.726
58725W        W25156  30.900  37.352   1.763
58726W        W25157   8.514   2.196  14.898
58727W        W25158  44.357  12.043  11.618
58728W        W25159  34.846   7.404  12.644
58729W        W25160   0.735   4.222  10.771
58730W        W25161  29.042  36.364  13.443
58731W        W25162   3.843  27.879  12.140
58732W        W25163  14.873  21.215  10.356
58733W        W25164  14.045  22.371  14.915
58734W        W25165  36.884  44.962   0.804
58735W        W25166  12.531   5.855   2.264
58736W        W25167  35.056  20.676  10.968
58737W        W25168  20.239   8.407  11.409
58738W        W25169  23.295  15.406  11.681
58739W        W25170  38.361  11.840  13.555
58740W        W25171   0.176  35.819   4.643
58741W        W25172  36.290  31.914   1.675
58742W        W25173  10.967  21.891   2.185
58743W        W25174  25.126  38.181   1.934
58744W        W25175  39.757  14.144   0.882
58745W        W25176  26.038  18.614  11.206
58746W        W25177  11.226   4.675  13.029
58747W        W25178  43.634   8.235   2.957
58748W        W25179  27.579  39.089   4.742
58749W        W25180  15.102   6.445  10.990
58750W        W25181  21.282  13.776   1.750
58751W        W25182  15.845  28.552   0.798
58752W        W25183   0.332  19.639  10.884
58753W        W25184   6.131  31.948  13.064
58754W        W25185  34.632  31.927   3.170
58755W        W25186  36.367  17.848   4.056
58756W        W25187  30.865  23.508  11.989
58757W        W25188  37.982  18.279   1.816
58758W        W25189  41.556   6.701   4.146
58759W        W25190  27.531   1.756   1.362
58760W        W25191  12.154  25.045   1.163
58761W        W25192   0.656  41.783   3.137
58762W        W25193  23.969  16.136   5.049
58763W        W25194   7.859   6.192   2.600
58764W        W25195   2.210  36.296   1.746
58765W        W25196  25.986  37.143  14.070
58766W        W25197  30.009  43.238  10.324
58767W        W25198   6.758   2.835   3.800
58768W        W25199  13.751  14.512   1.108
58769W        W25200  35.505  44.320   0.975
58770W        W25201  44.312   1.725   4.520
58771W        W25202  37.062   6.580  11.070
58772W        W25203   1.567  42.802  10.709
58773W        W25204  27.483  27.996  14.911
58774W        W25205  38.774  12.977  10.453
58775W        W25206  42.931   7.920  12.374
58776W        W25207   3.214  15.333   2.279
58777W        W25208  20.573  22.518  11.691
58778W        W25209   6.104  26.379   2.377
58779W        W25210  26.992  12.864  14.947
58780W        W25211   1.254   1.019   3.152
58781W        W25212  33.933  38.874  11.397
58782W        W25213   4.444  12.698  11.964
58783W        W25214  25.254  26.162   0.428
58784W        W25215  38.946  14.283   4.099
58785W        W25216  17.803  37.775  11.921
58786W        W25217  19.866  31.497  14.514
58787W        W25218  27.431  40.088  10.607
58788W        W25219  23.251  15.592  11.170
58789W        W25220  36.485  37.349  12.265
58790W        W25221  32.429  22.151  13.015
58791W        W25222  38.714  23.790  14.012
58792W        W25223   3.973  37.015  14.902
58793W        W25224  31.110  44.309  11.089
58794W        W25225  35.138  25.753  11.430
58795W        W25226  19.633   6.202   3.299
58796W        W25227  22.715  34.053   1.316
58797W        W25228  27.047   5.835   1.224
58798W        W25229  25.662   1.814  11.540
58799W        W25230  43.602  43.403   1.969
58800W        W25231  13.872  33.728   4.979
58801W        W25232  14.127  27.569  10.685
58802W        W25233   0.437  24.642  12.809
58803W        W25234  18.011  17.668  13.978
58804W        W25235  38.011  33.483   0.972
58805W        W25236  35.460  41.047   2.389
58806W        W25237   4.751  24.585  10.639
58807W        W25238  41.859   8.905   4.149
58808W        W25239  24.525  12.997   0.162
58809W        W25240   2.510   8.927   3.603
58810W        W25241  41.635   7.253   1.320
58811W        W25242   5.440  37.909   2.693
58812W        W25243  38.791  20.478  13.799
58813W        W25244  18.848  25.513  14.410
58814W        W25245  30.639  20.111  10.535
58815W        W25246  40.830   0.969   2.858
58816W        W25247  27.498  29.227  14.795
58817W        W25248  26.546   6.985  13.862
58818W        W25249  34.467  14.841   3.784
58819W        W25250  27.742  24.200   1.859
58820W        W25251  27.174   7.669  13.148
58821W        W25252  42.039  33.399   2.286
58822W        W25253  40.923  12.296   0.415
58823W        W25254  26.041  36.117   4.142
58824W        W25255  42.348  22.533  10.761
58825W        W25256  21.563  42.111  14.078
58826W        W25257  39.801  22.758   1.376
58827W        W25258  18.163  23.181  13.178
58828W        W25259   2.762   4.074  13.915
58829W        W25260  14.771  37.114   2.331
58830W        W25261  35.600  21.123  12.919
58831W        W25262  19.576  43.059   4.136
58832W        W25263  36.069  17.807   1.359
58833W        W25264   5.160  39.535   1.907
58834W        W25265  41.973  38.875  11.686
58835W        W25266  18.178  15.155  12.397
58836W        W25267  18.250  10.974  14.552
58837W        W25268  40.627  20.522  11.668
58838W        W25269  25.154  19.516   3.008
58839W        W25270   6.119   9.620  13.041
58840W        W25271   0.307  17.129  10.300
58841W        W25272   2.848  34.889   3.645
58842W        W25273   9.285   8.873   1.921
58843W        W25274  19.509  33.619  10.671
58844W        W25275   8.310  44.806  11.682
58845W        W25276  43.399  19.317  12.734
58846W        W25277  44.934  15.396   1.396
58847W        W25278  41.961  27.936  12.676
58848W        W25279  22.181  14.856  14.240
58849W        W25280  11.639   5.327   2.098
58850W        W25281   8.003  23.857  13.662
58851W        W25282  25.763  24.457   3.191
58852W        W25283  28.071  18.748  13.043
58853W        W25284  24.528  44.767   3.954
58854W        W25285  25.574   0.693   2.803
58855W        W25286   7.749  32.486  12.540
58856W        W25287  40.323  26.499   4.671
58857W        W25288   1.137  37.256  11.928
58858W        W25289  12.529  43.161   0.938
58859W        W25290  27.429  10.015  12.047
58860W        W25291   2.257  30.954  10.523
58861W        W25292  41.131   7.273  10.810
58862W        W25293  10.868  23.010   3.787
58863W        W25294   4.961  19.324   2.974
58864W        W25295  15.405   6.266  14.000
58865W        W25296   5.224   7.858  14.888
58866W        W25297  25.611  43.526  13.891
58867W        W25298  42.241   2.758  11.628
58868W        W25299   4.415  36.063   3.241
58869W        W25300  18.296  11.327  11.945
58870W        W25301  41.789  20.148   3.874
58871W        W25302  21.074   8.633   0.856
58872W        W25303   9.151  36.834  12.058
58873W        W25304  19.026  13.651   1.247
58874W        W25305  21.226  39.149   1.908
58875W        W25306   6.422   6.284   0.051
58876W        W25307  40.306  24.149   0.935
58877W        W25308  32.213   1.518  11.418
58878W        W25309  41.427  36.344  12.027
58879W        W25310   6.252  35.629  13.324
58880W        W25311  24.098  28.091   5.081
58881W        W25312   8.936  20.519   4.606
58882W        W25313   9.273  21.559  13.435
58883W        W25314  44.512  24.040   0.354
58884W        W25315   0.382  38.562  14.431
58885W        W25316  16.793  38.974   2.953
58886W        W25317  20.522  11.869   3.719
58887W        W25318  35.528  31.110  14.347
58888W        W25319   1.483  37.778   1.477
58889W        W25320  44.666  28.980   1.717
58890W        W25321   1.909  44.859  11.232
58891W        W25322  26.782  39.819   4.332
58892W        W25323  14.512  34.891  14.124
58893W        W25324  13.582  20.626  12.158
58894W        W25325  29.691  17.417   4.970
58895W        W25326  28.030   1.441  13.753
58896W        W25327  24.505  16.728  10.791
58897W        W25328  32.093  33.613   3.107
58898W        W25329  29.682  42.573  11.020
58899W        W25330   9.293  11.861   2.877
58900W        W25331  20.109  11.640   0.336
58901W        W25332  35.599  33.084   1.218
58902W        W25333  22.545  33.796   3.745
58903W        W25334  17.663  21.736  12.386
58904W        W25335  18.283   4.439  10.380
58905W        W25336   2.308  23.001  14.098
58906W        W25337  41.961  28.410  10.586
58907W        W25338   7.776   0.541   0.779
58908W        W25339  30.571   7.843  12.054
58909W        W25340  18.641  16.626   3.770
58910W        W25341  32.862  38.225   2.699
58911W        W25342  26.883  33.072   0.838
58912W        W25343  17.714  11.686  12.059
58913W        W25344  28.993  20.606   4.645
58914W        W25345  30.429   0.787  14.746
58915W        W25346  29.114  10.893   2.427
58916W        W25347  14.009  25.618   1.281
58917W        W25348  19.101  42.595  14.384
58918W        W25349   8.931  35.969  11.970
58919W        W25350  23.658   7.342   1.201
58920W        W25351  16.794   6.687  14.243
58921W        W25352  43.874  36.297  14.199
58922W        W25353  40.765   1.669  10.465
58923W        W25354   8.790   2.975   3.710
58924W        W25355  13.030  10.835   4.121
58925W        W25356  39.913   8.164  10.721
58926W        W25357  29.597   0.787   0.494
58927W        W25358  32.538  14.888   4.587
58928W        W25359   0.516  12.376  10.761
58929W        W25360  20.329   5.505   0.881
58930W        W25361   9.741  27.748  14.223
58931W        W25362  28.528  32.386   1.824
58932W        W25363  42.067  14.548   0.821
58933W        W25364  26.958   4.736   0.523
58934W        W25365  36.946   8.162   1.904
58935W        W25366  41.812  23.777   0.258
58936W        W25367  14.463  25.205   1.871
58937W        W25368   7.797   6.792   1.483
58938W        W25369   8.781  42.417   4.698
58939W        W25370  36.174  20.492   0.076
58940W        W25371   7.124  31.016   4.108
58941W        W25372  22.928   7.186  11.645
58942W        W25373  18.726  19.686   2.735
58943W        W25374  24.219  41.337  13.423
58944W        W25375   9.764   5.065  11.632
58945W        W25376  38.466  14.586  14.033
58946W        W25377  41.604  34.834  11.860
58947W        W25378  15.741  39.418   0.438
58948W        W25379  18.126  18.801  13.156
58949W        W25380  25.232  14.120   3.610
58950W        W25381  11.820   2.306  12.550
58951W        W25382  29.890  43.727  11.396
58952W        W25383   6.755  37.577   2.881
58953W        W25384  31.014  29.750  11.158
58954W        W25385   0.138  21.275  11.998
58955W        W25386  30.621  41.082  11.196
58956W        W25387   0.687  21.389   2.922
58957W        W25388   4.721   9.083  10.844
58958W        W25389  33.125   1.446  12.044
58959W        W25390  23.528  36.144  11.568
58960W        W25391   4.240  10.088   4.850
58961W        W25392  18.136  32.049   4.802
58962W        W25393   4.076  33.836  13.470
58963W        W25394  21.237  40.180   0.739
58964W        W25395   0.113  34.818   0.861
58965W        W25396  34.679  35.477   0.427
58966W        W25397   3.104   0.358   4.661
58967W        W25398   5.248  21.814  11.936
58968W        W25399  42.766  23.751   2.689
58969W        W25400  28.600  27.684   2.803
58970W        W25401  43.881  42.515   2.795
58971W        W25402  16.638  13.314  14.843
58972W        W25403  19.720  29.949   4.296
58973W        W25404  25.127  11.230  11.509
58974W        W25405  30.925  33.509  14.438
58975W        W25406  22.012  40.047  13.035
58976W        W25407  40.510  27.044  14.854
58977W        W25408  31.708  26.552  10.511
58978W        W25409  35.495  17.044   4.009
58979W        W25410   4.962  25.884  13.414
58980W        W25411  10.763  36.574   2.654
58981W        W25412  15.819  10.657  14.026
58982W        W25413   2.877   3.811  12.673
58983W        W25414  34.208  35.103  14.353
58984W        W25415  44.823  11.663   3.240
58985W        W25416   8.837  18.116  10.428
58986W        W25417  44.534  20.055   2.256
58987W        W25418  20.294  19.547   0.691
58988W        W25419  21.203  39.833  14.517
58989W        W25420  37.429  16.667  10.783
58990W        W25421  21.650  30.161   0.354
58991W        W25422  10.911  19.419   0.377
58992W        W25423   8.260  27.274   0.752
58993W        W25424  19.028  35.161   0.767
58994W        W25425  42.536  11.218  14.646
58995W        W25426  38.415  42.801   0.193
58996W        W25427   7.901   3.425   2.009
58997W        W25428   3.720  12.818   0.202
58998W        W25429  17.175  29.018  11.146
58999W        W25430  13.660  14.262  11.164
59000W        W25431  31.634  27.638  10.714
59001W        W25432  13.585  31.567   0.510
59002W        W25433  14.956  18.885   2.202
59003W        W25434   3.518  36.498  13.065
59004W        W25435   7.457  19.097  12.043
59005W        W25436   5.041  20.730   1.243
59006W        W25437   9.909  32.475   4.576
59007W        W25438  40.008   5.675   3.658
59008W        W25439   8.573  33.083  14.351
59009W        W25440  11.566  10.658  10.361
59010W        W25441  24.682  44.936  11.545
59011W        W25442  37.432  34.367  14.514
59012W        W25443  24.268  39.599   1.272
59013W        W25444  36.332  27.891  13.421
59014W        W25445  17.990   9.203   2.467
59015W        W25446  13.351  18.189   3.630
59016W        W25447  28.581   5.770  14.129
59017W        W25448  31.759   8.862   0.760
59018W        W25449  19.717  40.496   1.694
59019W        W25450  39.686   4.039  10.676
59020W        W25451  37.122  18.747   1.762
59021W        W25452  10.901  35.109   1.300
59022W        W25453  36.438   8.745   3.172
59023W        W25454   4.412   1.063  10.590
59024W        W25455  21.660   0.389  10.765
59025W        W25456  40.032   7.831   4.117
59026W        W25457   0.315  40.873  12.538
59027W        W25458  31.592   6.625   3.238
59028W        W25459  33.970  31.968  10.211
59029W        W25460  31.372  38.640  14.914
59030W        W25461  12.155  24.683   5.107
59031W        W25462  32.665  10.288   2.211
59032W        W25463  23.565  36.836   0.454
59033W        W25464  35.324  44.975  10.554
59034W        W25465  32.545  24.331  14.888
59035W        W25466  31.160  18.509  12.382
59036W        W25467  44.332  14.774   2.720
59037W        W25468   1.929  33.485   1.870
59038W        W25469  38.497  23.046   4.562
59039W        W25470  29.141   6.203   2.221
59040W        W25471  26.728  16.321  13.966
59041W        W25472  19.672   9.724  11.495
59042W        W25473  27.729   6.169   1.647
59043W        W25474   6.888  36.514  11.416
59044W        W25475  19.143   7.853  12.536
59045W        W25476  21.546  31.653   1.016
59046W        W25477  35.017  18.013  10.476
59047W        W25478  43.486  29.367  11.415
59048W        W25479   9.114  16.942   3.201
59049W        W25480  39.432  38.137   1.397
59050W        W25481  42.539  15.749   2.249
59051W        W25482   2.981  29.035   4.543
59052W        W25483  10.386  36.474   3.338
59053W        W25484  24.102  25.287   9.755
59054W        W25485  40.165  40.730   2.206
59055W        W25486  17.458   6.825   4.977
59056W        W25487   6.373  33.460   1.038
59057W        W25488  41.589  40.442   3.587
59058W        W25489  25.680   1.956  11.052
59059W        W25490  21.431  19.803   2.678
59060W        W25491  39.362  25.945   0.867
59061W        W25492   0.326  15.164   4.060
59062W        W25493  28.235  11.226  12.931
59063W        W25494  35.864  17.048   1.310
59064W        W25495   7.872  15.623  13.557
59065W        W25496   0.362  33.192   4.673
59066W        W25497  36.601   3.725  11.594
59067W        W25498  22.456  22.109  13.436
59068W        W25499  16.330  22.495   0.295
59069W        W25500  30.497   3.434  14.816
59070W        W25501  35.042   6.964  12.259
59071W        W25502  33.564   5.991  11.511
59072W        W25503  42.756  11.093  10.134
59073W        W25504  23.046  17.284  10.613
59074W        W25505  25.647  22.663   1.612
59075W        W25506  18.927  38.920   5.334
59076W        W25507   0.145  14.778  10.564
59077W        W25508  28.694  44.036   2.263
59078W        W25509  43.193  13.945   3.605
59079W        W25510  26.203   6.008  12.537
59080W        W25511  32.139  26.550   0.869
59081W        W25512  18.192  22.173   4.617
59082W        W25513  41.177  34.411  13.879
59083W        W25514  27.565  29.792   4.732
59084W        W25515  18.588  15.828  11.645
59085W        W25516  26.535  15.822   3.590
59086W        W25517  44.710  22.038   3.338
59087W        W25518  30.439   1.907  14.965
59088W        W25519  14.667  35.751   1.294
59089W        W25520  29.487   0.428   4.490
59090W        W25521  28.827  29.952   4.082
59091W        W25522  43.791   0.396   4.104
59092W        W25523  36.787  29.744  10.506
59093W        W25524  35.801  40.063  13.987
59094W        W25525   9.233  14.324   1.763
59095W        W25526  30.803  39.103   0.287
59096W        W25527   9.700   4.663   1.438
59097W        W25528  26.776  37.033  13.249
59098W        W25529  11.825  20.296  12.141
59099W        W25530   2.624   4.816   3.203
59100W        W25531  12.386  28.537   1.833
59101W        W25532  43.738  10.873  14.346
59102W        W25533  42.576  26.787   3.135
59103W        W25534  36.447   4.740   1.063
59104W        W25535   4.202  14.726   2.772
59105W        W25536  31.978  44.143  10.012
59106W        W25537   4.046  37.125  11.203
59107W        W25538  12.243  20.058   4.421
59108W        W25539  44.891  33.337  11.893
59109W        W25540   0.908  12.384  11.677
59110W        W25541  38.250  18.577   1.401
59111W        W25542  12.651  14.575  14.293
59112W        W25543  32.020  39.394   1.975
59113W        W25544  35.114   0.230  13.838
59114W        W25545  40.021  39.226   4.350
59115W        W25546  43.075   6.681   2.654
59116W        W25547  13.069  12.654   0.395
59117W        W25548  12.055  18.320   2.621
59118W        W25549  44.974  41.460  12.373
59119W        W25550  38.229  37.525   4.013
59120W        W25551  18.378   9.153  14.888
59121W        W25552   4.246  10.603   2.668
59122W        W25553   5.299  30.081   4.334
59123W        W25554  33.560  29.042  12.900
59124W        W25555  18.105  24.578   0.853
59125W        W25556   9.449   5.893   0.790
59126W        W25557   5.352  28.407  14.527
59127W        W25558  22.205  18.874   3.692
59128W        W25559  13.597  26.394   1.389
59129W        W25560  14.132  43.842  13.359
59130W        W25561  42.443  29.362  11.983
59131W        W25562   6.970  11.202  14.370
59132W        W25563  25.773   1.725   0.800
59133W        W25564  15.100   2.167   1.779
59134W        W25565   2.789  34.865  13.312
59135W        W25566   0.180   8.385  14.742
59136W        W25567  41.152  35.661  12.912
59137W        W25568  13.059  15.835  13.013
59138W        W25569  30.519  27.170  13.943
59139W        W25570  26.121  29.587   3.127
59140W        W25571  19.336  40.658   4.982
59141W        W25572   8.921  11.522   2.123
59142W        W25573  41.901  19.754   3.523
59143W        W25574  17.977  41.207   4.202
59144W        W25575  28.372   5.864  12.191
59145W        W25576  18.655  36.795  13.989
59146W        W25577  41.433  13.748   2.172
59147W        W25578   7.620  18.454   2.916
59148W        W25579  43.782  24.968   0.924
59149W        W25580   9.684  11.874  11.089
59150W        W25581  14.516  44.169  12.021
59151W        W25582  15.284  18.839  14.269
59152W        W25583  31.921  44.452   4.716
59153W        W25584  21.652  15.640   5.103
59154W        W25585  18.894  33.450  13.833
59155W        W25586  42.937  41.493  14.871
59156W        W25587   5.809  43.607  12.050
59157W        W25588  29.448   1.742   2.338
59158W        W25589  42.978  10.583   4.079
59159W        W25590  26.097  32.355  12.524
59160W        W25591  31.886  29.936  12.673
59161W        W25592  27.221   8.677   1.778
59162W        W25593   8.377  14.295  10.792
59163W        W25594   0.047  26.702   4.681
59164W        W25595   6.605  33.454  10.247
59165W        W25596   4.379  40.564   3.130
59166W        W25597   1.941  31.527  13.327
59167W        W25598  26.458   9.693  11.204
59168W        W25599  15.226   2.487  11.095
59169W        W25600  22.828  43.082   0.567
59170W        W25601   2.225  20.331   3.121
59171W        W25602   8.934  34.610   1.768
59172W        W25603  32.141  15.323  10.608
59173W        W25604  24.979  29.407  11.703
59174W        W25605  20.466  35.958   0.056
59175W        W25606   7.345   3.759  13.846
59176W        W25607   1.294  44.919  11.951
59177W        W25608  29.905  13.647   2.230
59178W        W25609  37.891  27.542   1.575
59179W        W25610  15.012  15.423   2.773
59180W        W25611  25.064  38.667   1.728
59181W        W25612  28.560  39.420  11.031
59182W        W25613  40.443  21.269  14.273
59183W        W25614  15.571  29.558   2.136
59184W        W25615  27.092  18.233  11.106
59185W        W25616  43.410  14.418   4.810
59186W        W25617  15.768   7.313  12.833
59187W        W25618  30.951  15.553   3.845
59188W        W25619  43.429   1.269  13.135
59189W        W25620  33.061  17.298  13.281
59190W        W25621   7.254   8.092   5.099
59191W        W25622  44.799  42.285  11.144
59192W        W25623  27.902  37.861   3.803
59193W        W25624  13.688   5.340   2.049
59194W        W25625  17.561  35.927  11.166
59195W        W25626  21.483  11.877   2.339
59196W        W25627  34.406   3.842   0.460
59197W        W25628  11.975  17.191   0.371
59198W        W25629  29.299  38.369   0.309
59199W        W25630  16.720  16.410  12.528
59200W        W25631  38.986  36.019   4.135
59201W        W25632  34.279  26.559  13.033
59202W        W25633  42.454  39.084   3.196
59203W        W25634  24.992   7.889  10.042
59204W        W25635  35.320  37.456   1.967
59205W        W25636  26.627  34.412   4.655
59206W        W25637  18.995  40.396   5.299
59207W        W25638  14.695  38.839   4.559
59208W        W25639  25.107  27.967   3.357
59209W        W25640   5.469  40.886   0.488
59210W        W25641  33.945  27.588  12.471
59211W        W25642   2.713  14.651  13.276
59212W        W25643  28.984  35.939   3.480
59213W        W25644  28.011  41.222  11.073
59214W        W25645  19.304  21.174  12.321
59215W        W25646  20.023  31.526  11.928
59216W        W25647  31.668  42.837   2.606
59217W        W25648   3.927  12.721  14.745
59218W        W25649  11.651  41.895  10.406
59219W        W25650  36.537  17.958   0.270
59220W        W25651  28.141  32.709   4.101
59221W        W25652  25.683  12.939  14.466
59222W        W25653  11.659  31.568  12.253
59223W        W25654  14.173  36.120   0.087
59224W        W25655  39.573  11.434  14.441
59225W        W25656  34.813  18.806   4.587
59226W        W25657  13.041  12.230  13.978
59227W        W25658  29.416  37.927  11.328
59228W        W25659  11.657   8.578  14.936
59229W        W25660  42.834   1.871   1.854
59230W        W25661  23.726  42.460   4.799
59231W        W25662  24.854  17.534  14.952
59232W        W25663  32.602   4.325   1.903
59233W        W25664  12.285  31.952   3.892
59234W        W25665  32.027  17.147   1.250
59235W        W25666  23.562  31.088   2.932
59236W        W25667  28.698   6.385   0.305
59237W        W25668  24.373  30.663   0.305
59238W        W25669  34.128  17.890  14.727
59239W        W25670  18.822  37.896  12.641
59240W        W25671   7.613  34.004  11.177
59241W        W25672  43.357  29.170   4.602
59242W        W25673  14.865  25.223   2.807
59243W        W25674   0.498   6.203   3.802
59244W        W25675  12.342   9.209  10.700
59245W        W25676  41.568  16.178   3.787
59246W        W25677   3.313  22.591   4.509
59247W        W25678  38.088   6.666  12.091
59248W        W25679  26.046  36.105   2.715
59249W        W25680  43.566   9.109  11.779
59250W        W25681  14.707  39.811  12.453
59251W        W25682   4.876  29.972   4.067
59252W        W25683  11.840   3.985   1.475
59253W        W25684  34.717  10.882   1.236
59254W        W25685  32.283  43.859   4.609
59255W        W25686   6.450  23.594  14.296
59256W        W25687  21.928  23.095  11.595
59257W        W25688  14.281  39.018   2.502
59258W        W25689   5.885  40.018   0.385
59259W        W25690  32.365  38.782   4.478
59260W        W25691  41.010  20.176  11.605
59261W        W25692  34.064  24.691   3.280
59262W        W25693  24.971  31.393  12.650
59263W        W25694   8.673  23.592  13.930
59264W        W25695   6.462   1.431  13.720
59265W        W25696  37.890  24.944   0.762
59266W        W25697  39.527  15.223  10.606
59267W        W25698  44.010   3.699  10.480
59268W        W25699   2.377  19.754  14.015
59269W        W25700  26.401  42.864  11.190
59270W        W25701  17.208  28.303   4.260
59271W        W25702  17.726  10.930  14.502
59272W        W25703  16.642   0.297  11.708
59273W        W25704  44.191  24.663  12.939
59274W        W25705  32.066  18.791   0.961
59275W        W25706  27.590  36.733   4.130
59276W        W25707   3.656   9.860  13.773
59277W        W25708  33.122  14.338   3.808
59278W        W25709  15.042  18.250  12.018
59279W        W25710  13.398   4.859   1.848
59280W        W25711  41.107  29.288   4.189
59281W        W25712  17.220  11.363   4.617
59282W        W25713  20.262  35.336   0.330
59283W        W25714  11.692  23.746   0.916
59284W        W25715  32.151  19.230  13.923
59285W        W25716   1.395  20.015   2.733
59286W        W25717  27.781  34.965  11.514
59287W        W25718  32.590  28.114  13.911
59288W        W25719   5.416   5.411   3.260
59289W        W25720  11.605  43.861  13.064
59290W        W25721  28.128  19.122   1.421
59291W        W25722  10.915  15.502  11.150
59292W        W25723  33.080  27.051   1.630
59293W        W25724  32.154  27.404   4.512
59294W        W25725  40.859  21.062  11.211
59295W        W25726  24.458  38.555   0.929
59296W        W25727  38.191  26.137  13.995
59297W        W25728  34.445  13.780  14.493
59298W        W25729  33.982   1.453   0.419
59299W        W25730  44.041   4.709  13.806
59300W        W25731  19.053   7.259  12.903
59301W        W25732   6.248  40.300   3.097
59302W        W25733  17.619  21.467   2.682
59303W        W25734  24.124  20.879  10.547
59304W        W25735  24.015  40.660   1.861
59305W        W25736  32.854   9.098   4.182
59306W        W25737   6.938  26.934   1.770
59307W        W25738  17.464  27.012  14.250
59308W        W25739   0.891  14.743   4.726
59309W        W25740  31.185  41.963   0.463
59310W        W25741  25.929  16.804  13.011
59311W        W25742  32.963  44.947  13.014
59312W        W25743   3.512  27.582  14.858
59313W        W25744  31.222  34.004  14.417
59314W        W25745   4.241  29.697  12.921
59315W        W25746  25.953   6.445  12.917
59316W        W25747  16.675  34.577  10.964
59317W        W25748  33.074  40.351   2.446
59318W        W25749  42.029   6.237   0.706
59319W        W25750   0.353   7.068  14.252
59320W        W25751   5.196   3.973  13.508
59321W        W25752  40.375   6.345  10.287
59322W        W25753   6.538  43.232  12.373
59323W        W25754  30.061  38.328  12.611
59324W        W25755  39.480  22.799  13.487
59325W        W25756  22.172   9.557  13.418
59326W        W25757  15.099  30.589   1.950
59327W        W25758  32.921  23.612   1.871
59328W        W25759  17.649   6.819  14.746
59329W        W25760   6.327   6.111   0.541
59330W        W25761   8.132  43.359   1.788
59331W        W25762  22.872   3.307  13.398
59332W        W25763   9.718  19.584   4.596
59333W        W25764  33.498  15.241   1.873
59334W        W25765  14.756  10.446   2.306
59335W        W25766  42.527  17.280  11.219
59336W        W25767  21.434  33.981   0.768
59337W        W25768  33.344  36.109   0.343
59338W        W25769  12.536  13.276  13.992
59339W        W25770  15.756   1.696   1.231
59340W        W25771  11.911   1.345  10.619
59341W        W25772  41.004  20.010   1.593
59342W        W25773   4.300   9.124  14.527
59343W        W25774  12.565  30.125   1.806
59344W        W25775  15.020  10.825   0.973
59345W        W25776  14.372   4.989  13.416
59346W        W25777  38.976  22.710  13.404
59347W        W25778  41.831  37.488   2.903
59348W        W25779  29.900   1.838   2.589
59349W        W25780   3.505  27.438   0.806
59350W        W25781   0.331  44.269   0.505
59351W        W25782  34.999  17.102   1.864
59352W        W25783  39.444  44.946   0.121
59353W        W25784  36.256  34.668   1.006
59354W        W25785  31.542   7.877   0.755
59355W        W25786  14.170  11.739  13.858
59356W        W25787   6.130  40.487   3.564
59357W        W25788  36.627   8.266   3.206
59358W        W25789   6.139  26.488   1.372
59359W        W25790  17.256  25.648   1.517
59360W        W25791   3.801  25.899  10.783
59361W        W25792   4.341  34.544   3.129
59362W        W25793   8.929  36.773   1.213
59363W        W25794  31.049  21.430  10.450
59364W        W25795  33.973  28.915  12.130
59365W        W25796  18.575  12.231  14.370
59366W        W25797  35.029  10.796  11.418
59367W        W25798  13.293  31.885  13.647
59368W        W25799  39.530  20.167   1.654
59369W        W25800  31.026  38.100  14.452
59370W        W25801  26.968  34.581  13.116
59371W        W25802  30.208  22.707   4.662
59372W        W25803   6.386  14.036  10.512
59373W        W25804  41.452  10.568  13.885
59374W        W25805  32.869  19.342   3.282
59375W        W25806  30.496   0.234   2.220
59376W        W25807  39.831  16.263   4.026
59377W        W25808   8.254   6.240   0.460
59378W        W25809  35.066   2.986  13.484
59379W        W25810  13.750  36.863   1.637
59380W        W25811  43.343  24.912   4.567
59381W        W25812  18.683  39.461  13.249
59382W        W25813   3.811  19.090   3.742
59383W        W25814  26.333  42.266  12.429
59384W        W25815   4.978  39.945  10.500
59385W        W25816  27.009  43.075  13.872
59386W        W25817  25.702  42.690   4.657
59387W        W25818  40.598  33.343   1.326
59388W        W25819  20.571   9.338  13.743
59389W        W25820   3.831  19.299  11.966
59390W        W25821   3.478  41.071  10.686
59391W        W25822  30.560   0.513   0.839
59392W        W25823   7.824  21.972  11.974
59393W        W25824  19.782  30.699  12.978
59394W        W25825  33.455  23.849   4.082
59395W        W25826  36.312  37.120  10.246
59396W        W25827  19.668   7.466  14.284
59397W        W25828  43.825  13.128  14.607
59398W        W25829  12.745  42.450  14.903
59399W        W25830  15.960  10.676   4.730
59400W        W25831  23.309  39.974   4.090
59401W        W25832  25.437  18.239   1.812
59402W        W25833   5.865  30.448  12.048
59403W        W25834  20.865  15.130  10.737
59404W        W25835   9.107  41.703  10.259
59405W        W25836  13.691   2.787   4.081
59406W        W25837  11.535  21.950  12.910
59407W        W25838  13.677   6.674  14.664
59408W        W25839  34.142  44.147  10.139
59409W        W25840  42.092  16.697  11.976
59410W        W25841  29.047   4.511   4.252
59411W        W25842  34.300  36.980   2.412
59412W        W25843   0.987  25.097   4.543
59413W        W25844  37.061  14.698   0.747
59414W        W25845   9.123  42.689   3.798
59415W        W25846  12.224  21.808   4.275
59416W        W25847  35.397  21.993  10.869
59417W        W25848  43.131  22.529  14.960
59418W        W25849  37.394  38.290   2.305
59419W        W25850  24.123  33.703   1.448
59420W        W25851  13.470   4.625   4.011
59421W        W25852   3.723  13.969  13.051
59422W        W25853  35.489  42.851  14.249
59423W        W25854  40.724  24.747   1.365
59424W        W25855  44.551  25.039  14.386
59425W        W25856  29.206   2.425   1.333
59426W        W25857  10.143  25.917  11.132
59427W        W25858  25.437  14.810  12.887
59428W        W25859  34.009  11.635  14.516
59429W        W25860   1.208  21.654   2.095
59430W        W25861   8.432  17.391  11.942
59431W        W25862  36.564  10.392   0.958
59432W        W25863  12.909  28.572  11.564
59433W        W25864  37.381  10.199   3.072
59434W        W25865  15.714  19.287   1.314
59435W        W25866  26.624  34.158  13.343
59436W        W25867  21.231   9.258   1.611
59437W        W25868   0.955  37.533   4.631
59438W        W25869  25.436   0.904  13.931
59439W        W25870  18.517  42.358  12.481
59440W        W25871   5.342  11.769  11.485
59441W        W25872  30.627  32.026   2.296
59442W        W25873  35.844  27.646   3.253
59443W        W25874   6.164  40.263  12.832
59444W        W25875   4.138  12.093   0.910
59445W        W25876  26.791   0.215   2.770
59446W        W25877  16.681  22.341  12.974
59447W        W25878   4.403  15.193   2.689
59448W        W25879  15.547  28.462  12.039
59449W        W25880  29.864  39.139   0.518
59450W        W25881  41.543  41.795  11.020
59451W        W25882   2.886  41.844  13.715
59452W        W25883  20.664  18.518   2.912
59453W        W25884   1.254  15.240   1.689
59454W        W25885  14.728  16.477   0.005
59455W        W25886  26.506   3.709  12.987
59456W        W25887  32.813  10.329   3.640
59457W        W25888  21.467  23.471  12.388
59458W        W25889  29.956  29.910  11.068
59459W        W25890  43.976  29.337   3.330
59460W        W25891   5.392  27.891   0.391
59461W        W25892  36.251  29.694  12.676
59462W        W25893  27.210   5.247  14.358
59463W        W25894  27.367   8.665   2.266
59464W        W25895  37.480  35.930  14.069
59465W        W25896  30.706  22.833  14.359
59466W        W25897  20.797  35.643   4.977
59467W        W25898  12.213  37.957   3.633
59468W        W25899  39.610  24.450  13.028
59469W        W25900  31.729  39.794  10.651
59470W        W25901  24.741  26.785  12.013
59471W        W25902  33.451  36.612  14.449
59472W        W25903  11.543  39.892   3.208
59473W        W25904  18.129  25.660  11.151
59474W        W25905  32.974  36.566   0.733
59475W        W25906   9.795   2.329   0.443
59476W        W25907  13.773  38.598   4.051
59477W        W25908  20.255  23.049   0.952
59478W        W25909  28.143   3.621  12.610
59479W        W25910   7.456  16.693   0.172
59480W        W25911  32.633  10.406   0.441
59481W        W25912  18.963  20.111   2.437
59482W        W25913  16.977  41.002   4.229
59483W        W25914  41.641  10.377   0.521
59484W        W25915  22.271  13.356  12.987
59485W        W25916   6.423   3.350  12.475
59486W        W25917  30.477   4.427  11.943
59487W        W25918  26.487   2.498   0.317
59488W        W25919  16.034  22.654  13.406
59489W        W25920  15.461  35.098   2.427
59490W        W25921  39.392   8.234  12.825
59491W        W25922  41.407  10.771   0.278
59492W        W25923  41.314  12.974   4.543
59493W        W25924  17.800  25.702   3.758
59494W        W25925  42.978  11.934  14.913
59495W        W25926  13.148  42.733   2.035
59496W        W25927  24.771  33.323   2.203
59497W        W25928  38.732  37.039  12.527
59498W        W25929   2.422   3.884  12.425
59499W        W25930   1.791  29.949   2.771
59500W        W25931   0.896  27.883  10.381
59501W        W25932  16.752   5.346   5.331
59502W        W25933  29.624  30.455  11.671
59503W        W25934  25.735  10.238   4.074
59504W        W25935  15.815   3.995  12.511
59505W        W25936  25.437   8.728  13.961
59506W        W25937  36.395  15.989   2.288
59507W        W25938  34.529   3.822  11.101
59508W        W25939  28.719  20.855   0.192
59509W        W25940  11.602  22.537  11.483
59510W        W25941  21.119  23.978  10.702
59511W        W25942  14.626  19.932  10.615
59512W        W25943   7.568  15.669  11.752
59513W        W25944  38.661  20.263   2.834
59514W        W25945  26.764  21.123   0.764
59515W        W25946  36.336  28.943   3.667
59516W        W25947  30.855  27.947   4.141
59517W        W25948  15.120  40.972   0.796
59518W        W25949  43.200  37.966  11.441
59519W        W25950  22.999  25.957  13.897
59520W        W25951  10.938  39.738  13.515
59521W        W25952  31.156  31.137  11.031
59522W        W25953  31.777  17.394   5.286
59523W        W25954  27.662   1.251  12.360
59524W        W25955  14.994  10.203   1.236
59525W        W25956  44.214   5.445   3.738
59526W        W25957   3.378   1.404   0.420
59527W        W25958   8.681  23.631  11.738
59528W        W25959  35.263   5.145   4.908
59529W        W25960  33.063  41.073   1.769
59530W        W25961  23.083  36.678   1.691
59531W        W25962  21.519   3.290  10.682
59532W        W25963   2.235  26.963   1.793
59533W        W25964  23.649  19.215   5.002
59534W        W25965  40.739  40.055   1.414
59535W        W25966   6.446  39.486   0.656
59536W        W25967   4.457  40.076   3.658
59537W        W25968  36.297  37.950   4.120
59538W        W25969  38.978  20.652  12.428
59539W        W25970  29.164   8.933   2.236
59540W        W25971  33.371  13.938   3.139
59541W        W25972  18.148  40.247   1.716
59542W        W25973   6.749  19.607  12.201
59543W        W25974  21.893  35.959  13.827
59544W        W25975   4.406  11.727   4.110
59545W        W25976  42.873  33.515  10.859
59546W        W25977   4.453  28.371  14.799
59547W        W25978  14.647  29.673  13.390
59548W        W25979  34.349  37.951  11.261
59549W        W25980   0.051  28.136   1.847
59550W        W25981   9.287   5.534  11.214
59551W        W25982  27.312   3.823  13.852
59552W        W25983  42.533  32.481   0.029
59553W        W25984  19.948   8.735  13.401
59554W        W25985  38.501  44.196  13.948
59555W        W25986  32.841  26.629   1.368
59556W        W25987  24.452  42.767   1.081
59557W        W25988   2.234  31.013  12.486
59558W        W25989  41.764  29.537   3.137
59559W        W25990   8.172  38.391   3.295
59560W        W25991  19.162  31.714   0.765
59561W        W25992  40.064  43.826  10.519
59562W        W25993  29.894  27.496  13.373
59563W        W25994   9.257  19.115   2.147
59564W        W25995  13.096   6.245   2.789
59565W        W25996  26.670  20.064  12.963
59566W        W25997  37.567  35.776   0.892
59567W        W25998  12.943   8.857   4.840
59568W        W25999  14.055   2.772  10.533
59569W        W26000  27.276  15.225  14.443
59570W        W26001   0.871  20.241   4.688
59571W        W26002  41.401  20.817  12.533
59572W        W26003   8.096   0.926  13.140
59573W        W26004   4.863  31.684   0.056
59574W        W26005   5.449   1.158  13.132
59575W        W26006  22.903  25.109  11.058
59576W        W26007  24.003  16.229   3.641
59577W        W26008  18.951  30.452  11.644
59578W        W26009  15.153  41.054   3.372
59579W        W26010  32.180  43.888  14.955
59580W        W26011  21.597   9.615  12.019
59581W        W26012  21.611  20.597   0.234
59582W        W26013  24.579  34.501  14.011
59583W        W26014  24.904  27.484  12.046
59584W        W26015   6.888   5.772   3.279
59585W        W26016   2.170  27.187  12.956
59586W        W26017  23.126  32.436   1.850
59587W        W26018  20.685  42.139   4.862
59588W        W26019  33.608  26.360  13.998
59589W        W26020  12.385   6.851  14.584
59590W        W26021  44.888  14.666  14.126
59591W        W26022  20.441  43.055   0.334
59592W        W26023  10.061  23.210   3.771
59593W        W26024  40.631  29.993  11.529
59594W        W26025  34.772  12.257   1.407
59595W        W26026   6.730  41.834  11.604
59596W        W26027  36.376  25.715  13.965
59597W        W26028   9.127  28.334   2.870
59598W        W26029   8.981   3.854   2.336
59599W        W26030  21.318   5.035  13.184
59600W        W26031   0.408  37.690  13.592
59601W        W26032  37.426  32.346   0.231
59602W        W26033  22.137  31.552   3.711
59603W        W26034  32.008  40.255  11.418
59604W        W26035   3.725  41.689  14.407
59605W        W26036  14.184  37.044   2.935
59606W        W26037  28.587  25.055   2.079
59607W        W26038  37.966  27.779  10.277
59608W        W26039  30.209  37.367   4.976
59609W        W26040  15.619  10.356  10.630
59610W        W26041  31.518  41.448   2.500
59611W        W26042  24.176   4.993   0.148
59612W        W26043  22.961  12.219   3.933
59613W        W26044  41.968  26.728  13.377
59614W        W26045   6.370  44.279  14.239
59615W        W26046  24.241  16.541  10.407
59616W        W26047  14.427  28.148   4.565
59617W        W26048   7.090   0.262  11.406
59618W        W26049   8.826   5.906  12.487
59619W        W26050   3.710  39.951  11.181
59620W        W26051  28.468  14.176   3.159
59621W        W26052  13.361   9.550  13.461
59622W        W26053  27.642   2.648   1.392
59623W        W26054  34.443   3.368   0.703
59624W        W26055  42.419   5.685   2.678
59625W        W26056  13.249  26.224  11.001
59626W        W26057   5.197  44.922   2.014
59627W        W26058   7.335  14.221  12.945
59628W        W26059  13.089  32.363   0.823
59629W        W26060   1.970  10.172  10.979
59630W        W26061  29.291  32.494   2.425
59631W        W26062  40.634  22.224   2.260
59632W        W26063  32.873  33.973  10.831
59633W        W26064  39.904  17.107   0.251
59634W        W26065  12.659  40.037   0.379
59635W        W26066  41.338  27.728   0.773
59636W        W26067  42.687  36.512   2.898
59637W        W26068   2.068  42.108   1.752
59638W        W26069  19.587  15.616   2.700
59639W        W26070   8.738  20.560  11.148
59640W        W26071  17.042  43.384  13.982
59641W        W26072  35.090  28.599   0.742
59642W        W26073   9.239   6.912   0.805
59643W        W26074  20.491  18.979  12.912
59644W        W26075  22.757   5.945  12.133
59645W        W26076   4.016   6.593  14.911
59646W        W26077  24.730  40.458   2.840
59647W        W26078  31.641  44.714  11.590
59648W        W26079  21.386  30.001   2.911
59649W        W26080  42.540   0.744  14.442
59650W        W26081  12.185  16.106  11.535
59651W        W26082  44.065  44.877   4.083
59652W        W26083  29.062   7.010  12.885
59653W        W26084  41.676  43.013  13.937
59654W        W26085  27.560  38.543   0.253
59655W        W26086  38.471  44.541  11.953
59656W        W26087  19.853   9.327   0.775
59657W        W26088  34.597  39.350  12.912
59658W        W26089  40.358   4.914  12.051
59659W        W26090   1.163   4.428   1.690
59660W        W26091  10.902  16.690  14.212
59661W        W26092  44.350   3.523  11.200
59662W        W26093  22.732  43.607   1.425
59663W        W26094  43.513  14.370   4.285
59664W        W26095  43.623  14.913   1.458
59665W        W26096   0.765   2.908  11.065
59666W        W26097  23.515  29.132  11.503
59667W        W26098  15.619  44.375  14.817
59668W        W26099  19.535   8.235  12.160
59669W        W26100  11.275  35.538   0.805
59670W        W26101  39.216  37.323   3.987
59671W        W26102  27.412  31.342  13.900
59672W        W26103  44.200  39.097  14.345
59673W        W26104  23.049   9.138  13.490
59674W        W26105  18.588  11.541   4.874
59675W        W26106  13.523  29.924   1.818
59676W        W26107  40.290  17.789   4.431
59677W        W26108   4.516  31.445  14.440
59678W        W26109  20.857   2.424  11.638
59679W        W26110   7.297  26.468  11.077
59680W        W26111  29.463  41.708   3.056
59681W        W26112  24.483   0.440  11.238
59682W        W26113  42.176   7.254  11.701
59683W        W26114  13.734   6.126  14.566
59684W        W26115  18.236  31.296   4.448
59685W        W26116   2.946  19.970  12.818
59686W        W26117  18.016  12.320  11.003
59687W        W26118  43.844  17.501  13.930
59688W        W26119  22.054  34.880   2.760
59689W        W26120  35.990  24.651   0.843
59690W        W26121  23.198   9.137   1.709
59691W        W26122  14.876   7.835  10.702
59692W        W26123  25.441  23.556   4.585
59693W        W26124  35.514  33.018  11.587
59694W        W26125  17.395  20.991   1.389
59695W        W26126  41.452   2.291   0.189
59696W        W26127   6.559  28.215  11.662
59697W        W26128  28.696  30.006   3.136
59698W        W26129  41.448  26.848  11.192
59699W        W26130  40.475  24.642   0.924
59700W        W26131   9.808  14.326  14.944
59701W        W26132  44.594   6.949   2.716
59702W        W26133   2.618  17.754   1.736
59703W        W26134  31.594  30.779   1.847
59704W        W26135   7.641  12.204   3.183
59705W        W26136  10.116  25.104  12.143
59706W        W26137  29.175  37.427  14.046
59707W        W26138  39.966  37.944  13.906
59708W        W26139  18.762  27.489   3.222
59709W        W26140   4.710  22.437  11.561
59710W        W26141  17.675  12.351   0.877
59711W        W26142  43.853   7.065   3.309
59712W        W26143   6.768  30.955  13.909
59713W        W26144  21.026  37.577   3.494
59714W        W26145   1.970  30.380   3.676
59715W        W26146  35.610  30.098  12.332
59716W        W26147   7.220  10.072   4.750
59717W        W26148   1.059  36.780   4.565
59718W        W26149  12.978  25.221  13.174
59719W        W26150  18.549  17.075  10.239
59720W        W26151   1.789  23.480  12.888
59721W        W26152  41.079  11.584   3.521
59722W        W26153   0.757   4.772  12.040
59723W        W26154   6.795   5.182   0.643
59724W        W26155  21.709  22.994  12.348
59725W        W26156  12.798  29.750  13.855
59726W        W26157   7.653  32.351   4.137
59727W        W26158  22.795  41.501  14.227
59728W        W26159  18.735  31.549   0.991
59729W        W26160  31.643   8.733   3.341
59730W        W26161   6.341   7.834   4.260
59731W        W26162  38.922  36.997  13.576
59732W        W26163  28.496  36.767   2.181
59733W        W26164  28.403  40.917   1.351
59734W        W26165  21.753  28.502  14.322
59735W        W26166  16.599  21.034  12.110
59736W        W26167   7.233  15.195  13.184
59737W        W26168  28.979  36.611  14.730
59738W        W26169  23.077  20.441   4.007
59739W        W26170   7.642  21.922   0.487
59740W        W26171  41.166  15.124  14.760
59741W        W26172   2.012   5.431   2.339
59742W        W26173  19.506  12.039  13.317
59743W        W26174  16.236  17.048   1.268
59744W        W26175  22.065  25.781   0.262
59745W        W26176  26.059  10.184   1.301
59746W        W26177  27.959  16.519  13.571
59747W        W26178  25.222  21.083  11.173
59748W        W26179  36.229   0.813   4.124
59749W        W26180  34.007  27.523   4.014
59750W        W26181   7.306   7.176   3.653
59751W        W26182  14.638  42.900  10.918
59752W        W26183  14.267  31.503   1.161
59753W        W26184  11.338  21.213   0.706
59754W        W26185   9.353  21.616   0.301
59755W        W26186  42.490  36.027   3.808
59756W        W26187  11.214  44.961   3.227
59757W        W26188   3.400   7.753   2.735
59758W        W26189  24.493  38.052  10.256
59759W        W26190  42.946   7.659  14.546
59760W        W26191   5.122   2.233   3.113
59761W        W26192   6.359   9.185   3.026
59762W        W26193  18.061  26.453  13.064
59763W        W26194  11.622   0.037  13.003
59764W        W26195  43.256  25.888  13.388
59765W        W26196  10.457   4.087   0.698
59766W        W26197  31.035  12.548  12.949
59767W        W26198  36.898  39.453  12.138
59768W        W26199  15.580   8.750  10.156
59769W        W26200  20.231  22.979   1.835
59770W        W26201  39.278   9.178  14.983
59771W        W26202  22.200  43.720  12.505
59772W        W26203  42.395  28.030  11.771
59773W        W26204  21.687  32.201   0.312
59774W        W26205   4.931  23.062   2.161
59775W        W26206  35.728  31.845  10.351
59776W        W26207  12.650  39.038  13.543
59777W        W26208  29.102  33.332  13.883
59778W        W26209  31.606  34.408   3.343
59779W        W26210  42.017  31.987  12.487
59780W        W26211  34.143  14.180  14.402
59781W        W26212  30.634  18.161   4.752
59782W        W26213   2.487   5.988   2.279
59783W        W26214  18.605  31.924   4.628
59784W        W26215  25.899  27.531  13.087
59785W        W26216  20.612  15.114   2.912
59786W        W26217   3.859   9.923   0.878
59787W        W26218  23.886  19.976   0.236
59788W        W26219  28.546  18.958  11.978
59789W        W26220  20.519  23.192  10.513
59790W        W26221  24.411  22.220   4.675
59791W        W26222   2.511  29.216  13.302
59792W        W26223  20.217  12.835   2.588
59793W        W26224  19.259  30.226   3.247
59794W        W26225  25.090  19.703  12.355
59795W        W26226  25.569  18.261  14.083
59796W        W26227  17.614  17.377   4.818
59797W        W26228  35.596  13.577   2.754
59798W        W26229  40.085   7.977  13.768
59799W        W26230  21.083   5.296   2.720
59800W        W26231  38.041  40.513   0.885
59801W        W26232  25.470   4.327  14.733
59802W        W26233  40.704  14.191   4.130
59803W        W26234  26.549  22.039  11.439
59804W        W26235   4.849  33.482  12.890
59805W        W26236  42.505   4.226   4.165
59806W        W26237  30.550   2.968  11.944
59807W        W26238  19.895   5.822   1.902
59808W        W26239  44.707   8.126   3.323
59809W        W26240  10.422  16.612   3.264
59810W        W26241  19.990  16.566   1.417
59811W        W26242  38.603  14.334   4.505
59812W        W26243   1.540  32.890   3.970
59813W        W26244  19.391  39.830   5.486
59814W        W26245  27.332   9.857   1.800
59815W        W26246   7.823  24.292   3.653
59816W        W26247  22.159   4.303  14.370
59817W        W26248   4.499  37.972  11.855
59818W        W26249  16.160   1.919   0.992
59819W        W26250   3.926   1.012   1.267
59820W        W26251  40.757  19.611  13.399
59821W        W26252   1.828  29.920  12.444
59822W        W26253   4.870  11.896   1.405
59823W        W26254   6.231  23.368  11.278
59824W        W26255   1.658  24.141   1.270
59825W        W26256  35.399   1.210   1.359
59826W        W26257  15.517  32.977  13.702
59827W        W26258  18.647  30.604  14.399
59828W        W26259  17.972  21.424   0.327
59829W        W26260  11.349  24.207   2.692
59830W        W26261  43.071  42.463  10.528
59831W        W26262  32.178   6.961  14.092
59832W        W26263  37.016  14.888  13.956
59833W        W26264  25.650  39.353  10.849
59834W        W26265  40.281   5.333   1.159
59835W        W26266  36.108  36.863  12.173
59836W        W26267  26.102  35.470  11.429
59837W        W26268  19.921  39.141   0.008
59838W        W26269   5.157  31.206   1.817
59839W        W26270  35.501  44.735   0.005
59840W        W26271  41.334  19.762  11.174
59841W        W26272  11.050  19.687  14.051
59842W        W26273  11.356  17.631   3.308
59843W        W26274  44.152  19.429   3.822
59844W        W26275  30.686  39.022   1.722
59845W        W26276  19.238   0.151  13.853
59846W        W26277  22.361   3.420  12.237
59847W        W26278  23.988  22.076   2.585
59848W        W26279  44.061  28.681   4.657
59849W        W26280  29.521  43.970   4.527
59850W        W26281   5.725  17.796   0.821
59851W        W26282   9.698  17.213   2.251
59852W        W26283  10.749   3.220   4.991
59853W        W26284   6.259  23.023   0.944
59854W        W26285  36.124  25.951  12.056
59855W        W26286  32.178   6.879   3.027
59856W        W26287  16.042  28.411   2.852
59857W        W26288  39.913  15.777  14.498
59858W        W26289   8.468  19.910  12.863
59859W        W26290   9.896  34.919   1.023
59860W        W26291   5.878  15.848  12.613
59861W        W26292  12.845  37.595  13.482
59862W        W26293  26.337  38.230   0.304
59863W        W26294  42.477  31.794  12.781
59864W        W26295  44.726  27.015   2.402
59865W        W26296  33.862  33.071  12.935
59866W        W26297   5.233  39.959   1.192
59867W        W26298   7.139  20.200   3.074
59868W        W26299  17.564  28.693  14.509
59869W        W26300  34.553  27.401   2.038
59870W        W26301  40.217  13.355   2.375
59871W        W26302  31.170  24.400   1.235
59872W        W26303  35.500   8.607  11.416
59873W        W26304  38.022   8.769  10.776
59874W        W26305  31.019   6.449  14.899
59875W        W26306  10.184  11.342  13.377
59876W        W26307   6.745  26.993  12.462
59877W        W26308   0.828   6.149  14.042
59878W        W26309  19.922  26.646   0.427
59879W        W26310   0.478  19.347  12.358
59880W        W26311  25.222  28.540  12.873
59881W        W26312  38.697  31.314   4.997
59882W        W26313  27.482  14.417   4.718
59883W        W26314  11.074  24.703   4.403
59884W        W26315  10.109   6.461  11.568
59885W        W26316  44.548   3.397   1.692
59886W        W26317  13.575   2.111   3.763
59887W        W26318  14.710  11.109  14.273
59888W        W26319  21.638  40.447  12.920
59889W        W26320  23.012   6.331  11.198
59890W        W26321  20.660   4.337   3.603
59891W        W26322  15.244  12.244  11.765
59892W        W26323   6.765   8.669   0.686
59893W        W26324   5.798  13.075   1.208
59894W        W26325   7.483  22.092   0.946
59895W        W26326  21.498  33.694   0.317
59896W        W26327  39.509   3.897  12.468
59897W        W26328   1.520  44.308  12.830
59898W        W26329  24.775  39.076  14.036
59899W        W26330  42.354  17.259   3.599
59900W        W26331  33.035  14.532  11.354
59901W        W26332  21.092  44.293  14.470
59902W        W26333   0.920  44.181   0.935
59903W        W26334  23.665   9.369  11.612
59904W        W26335   4.972   3.712  10.984
59905W        W26336  41.391  39.784  14.073
59906W        W26337  28.114   1.009   2.862
59907W        W26338  16.231  44.892   1.413
59908W        W26339   9.661  27.720   3.793
59909W        W26340  29.820  23.683  13.125
59910W        W26341  24.293  22.446   2.392
59911W        W26342   8.344  44.483  12.074
59912W        W26343  27.406  18.807   0.450
59913W        W26344  44.856   2.722   0.508
59914W        W26345  39.403  29.204  13.864
59915W        W26346  12.395  28.597   0.790
59916W        W26347  16.215  39.858  12.005
59917W        W26348  23.532  38.638   1.840
59918W        W26349  27.807   6.308   2.677
59919W        W26350  29.408  36.477  10.679
59920W        W26351  34.671  33.404   2.503
59921W        W26352  33.197  29.504  11.583
59922W        W26353  23.656  40.317   0.928
59923W        W26354  10.319  40.938   3.377
59924W        W26355  41.815  18.305   3.977
59925W        W26356   5.312  41.864  10.716
59926W        W26357  12.314   2.203   1.728
59927W        W26358  33.175  43.305  10.682
59928W        W26359  32.451  21.077  12.022
59929W        W26360   6.947  22.923   0.468
59930W        W26361   0.884  15.609   0.969
59931W        W26362  43.848  16.771   4.602
59932W        W26363  22.758  28.476   4.079
59933W        W26364  13.664  12.376   3.882
59934W        W26365  11.204  16.461   4.584
59935W        W26366   6.295   3.678   4.707
59936W        W26367  14.589   7.736  11.137
59937W        W26368  15.082  24.027   3.648
59938W        W26369   6.909  41.951  11.136
59939W        W26370   0.801  23.724   0.773
59940W        W26371   6.447  10.899  11.538
59941W        W26372  23.551  28.692  10.738
59942W        W26373   5.019  44.350   4.597
59943W        W26374  19.297  12.799  12.515
59944W        W26375   5.203  12.185  11.121
59945W        W26376   9.418  12.727  12.461
59946W        W26377  31.918   2.796   3.177
59947W        W26378  22.083  37.566   4.002
59948W        W26379  37.567  18.515  11.031
59949W        W26380  43.800  13.392   0.606
59950W        W26381  33.831   0.742   4.243
59951W        W26382   4.157  31.155  13.845
59952W        W26383  35.543  26.229   2.260
59953W        W26384  18.838  40.853   1.893
59954W        W26385  38.312   1.900   0.946
59955W        W26386  40.978  21.496  13.428
59956W        W26387  18.746  30.959  14.752
59957W        W26388  29.056  28.098   1.343
59958W        W26389  31.441   8.157   4.956
59959W        W26390  29.487  26.560   3.326
59960W        W26391   0.946   6.416  13.148
59961W        W26392  14.243   2.362  11.522
59962W        W26393  23.988  25.202  13.302
59963W        W26394  11.123  25.541  12.066
59964W        W26395  19.619   3.999   2.291
59965W        W26396   2.450  23.154  14.570
59966W        W26397  35.292   9.717   4.053
59967W        W26398  35.074  38.149   3.320
59968W        W26399  21.539  30.567  11.474
59969W        W26400   6.484  18.002   4.075
59970W        W26401  20.006  17.668  14.997
59971W        W26402   8.289  20.984  14.922
59972W        W26403  34.961  38.552  13.948
59973W        W26404  22.565   8.840  13.452
59974W        W26405   1.260  43.741   1.495
59975W        W26406  14.091  28.704   3.670
59976W        W26407  13.818  16.072  10.588
59977W        W26408  32.681  31.374  11.469
59978W        W26409  21.101   5.409  13.951
59979W        W26410  28.436  10.128   2.178
59980W        W26411   0.644  27.270   4.351
59981W        W26412   8.345  23.824  13.289
59982W        W26413  18.636  39.774   2.204
59983W        W26414  37.388  13.203  13.130
59984W        W26415  22.956  12.777   4.567
59985W        W26416  32.560  43.212  14.906
59986W        W26417  17.039   3.264   1.678
59987W        W26418  14.071  18.535  11.688
59988W        W26419  23.719  22.229   3.569
59989W        W26420  28.487  40.317  10.681
59990W        W26421  33.904  43.734   3.863
59991W        W26422  12.073  30.744   2.600
59992W        W26423  38.059  17.054  13.544
59993W        W26424   9.829  12.066   0.421
59994W        W26425  39.028  17.199   3.755
59995W        W26426  26.174  41.262   0.170
59996W        W26427  29.129  10.662   3.219
59997W        W26428  24.866  10.875   3.191
59998W        W26429  32.346  30.485   3.591
59999W        W26430  18.698   4.002   5.075
60000W        W26431  30.568  20.116  11.900
60001W        W26432   8.303  29.064  12.619
60002W        W26433   1.853  10.976   1.130
60003W        W26434  40.798  26.737   4.534
60004W        W26435  17.746  29.688   4.734
60005W        W26436  32.017  44.481  11.037
60006W        W26437  35.425  35.656  12.525
60007W        W26438  11.414  35.428   4.219
60008W        W26439  10.378  16.211  11.354
60009W        W26440   5.571  40.648  12.283
60010W        W26441  29.434  17.802   4.642
60011W        W26442  12.857   3.665  11.488
60012W        W26443  42.959  22.798   1.506
60013W        W26444  41.078  40.490   3.647
60014W        W26445  44.370  29.391  11.457
60015W        W26446   1.950  44.098   2.825
60016W        W26447  25.250  25.233  11.611
60017W        W26448  26.622  29.148   0.773
60018W        W26449   0.400   5.099   2.385
60019W        W26450  34.461  36.163  11.584
60020W        W26451   4.286  40.080   1.750
60021W        W26452  13.598  35.460   2.223
60022W        W26453  40.306  19.639   4.543
60023W        W26454   3.273   7.230  14.830
60024W        W26455   3.126  37.358   4.466
60025W        W26456  32.010  41.415  14.365
60026W        W26457  16.931  17.534  11.087
60027W        W26458  42.549  37.963   0.409
60028W        W26459  41.210  12.571   2.837
60029W        W26460  22.290  42.774  10.630
60030W        W26461  16.113   1.813   2.402
60031W        W26462  38.095  28.738  14.294
60032W        W26463  20.576  29.489   0.368
60033W        W26464   8.288  24.653   1.798
60034W        W26465  35.632  20.441  12.512
60035W        W26466   6.356  37.486   4.096
60036W        W26467   4.784  26.728   2.133
60037W        W26468  26.553  28.546   4.095
60038W        W26469  13.597  10.868   3.762
60039W        W26470   0.863  33.472  10.038
60040W        W26471  34.351   4.266   4.022
60041W        W26472  38.332  33.558   2.806
60042W        W26473   9.691  18.757  12.059
60043W        W26474  40.893  19.637   0.706
60044W        W26475  10.169   8.653   2.947
60045W        W26476   1.505   8.159   1.236
60046W        W26477  44.167  26.026  14.810
60047W        W26478  40.225  16.386  13.060
60048W        W26479  19.573  35.521  13.394
60049W        W26480  17.475  31.580  13.554
60050W        W26481  29.624  19.249  14.103
60051W        W26482  39.823  20.048   4.183
60052W        W26483  39.617  44.499   4.056
60053W        W26484   9.356  24.418  12.068
60054W        W26485  11.151  20.614  12.137
60055W        W26486  36.418   4.807   3.410
60056W        W26487  22.983  12.988  11.802
60057W        W26488  19.004   7.962   1.914
60058W        W26489  24.538  41.784  14.951
60059W        W26490  43.837  38.796   4.200
60060W        W26491   6.284   4.458   4.644
60061W        W26492  16.639   7.638   1.397
60062W        W26493  39.771  17.472  14.159
60063W        W26494  28.692  14.595   3.340
60064W        W26495   0.977   6.622  14.851
60065W        W26496  23.144  24.167  14.046
60066W        W26497   7.917  44.899  11.229
60067W        W26498  23.220  22.194   0.716
60068W        W26499  17.312  28.657  13.369
60069W        W26500  27.539  16.677  13.328
60070W        W26501  27.930  26.552  14.358
60071W        W26502  20.111  13.602  11.168
60072W        W26503   6.133  23.528   3.592
60073W        W26504  29.113  32.141   1.256
60074W        W26505   8.900   1.871  13.880
60075W        W26506  10.102  18.083  14.468
60076W        W26507  37.562  33.121   2.993
60077W        W26508   2.352  37.377  11.511
60078W        W26509  20.566   3.000  10.666
60079W        W26510  34.756  25.644  13.111
60080W        W26511   9.720   1.555   2.750
60081W        W26512  20.745   0.882   4.802
60082W        W26513   8.986  15.667   4.279
60083W        W26514  29.732  33.541  12.853
60084W        W26515  36.925  18.838  10.570
60085W        W26516  20.955  27.026   2.260
60086W        W26517  31.331   8.761   3.762
60087W        W26518  32.205  31.536  12.903
60088W        W26519  31.410  25.137  12.519
60089W        W26520  19.222  18.229   3.230
60090W        W26521  23.436  15.743   4.623
60091W        W26522  16.307  38.230   0.806
60092W        W26523  40.021  32.874   3.322
60093W        W26524  42.418  38.881   0.458
60094W        W26525  37.390  35.965   2.706
60095W        W26526  30.527  38.818   4.263
60096W        W26527  25.202  33.021   3.086
60097W        W26528  23.060  25.837   1.321
60098W        W26529  14.224  40.577   3.194
60099W        W26530  44.821  17.292  13.532
60100W        W26531  37.881  31.358  13.416
60101W        W26532  12.266  27.874  13.971
60102W        W26533  26.924  13.630   2.782
60103W        W26534  40.480   5.427   3.630
60104W        W26535   3.500   9.198  12.478
60105W        W26536  25.009  25.063  12.065
60106W        W26537  35.206  25.013   3.841
60107W        W26538  40.933   8.403   1.210
60108W        W26539  35.267  38.992   3.589
60109W        W26540  17.305  10.247   1.177
60110W        W26541   9.279  13.667   2.386
60111W        W26542  17.597  43.463   3.741
60112W        W26543  32.368  34.461   4.637
60113W        W26544  13.115  35.403   2.397
60114W        W26545  27.111  13.369   1.253
60115W        W26546  25.635  16.361   4.564
60116W        W26547  30.971  38.550  12.902
60117W        W26548  43.379  39.566   4.118
60118W        W26549  25.059  18.264  11.689
60119W        W26550   6.200  34.611   0.312
60120W        W26551   1.433  11.281   1.621
60121W        W26552  16.430  23.018   4.622
60122W        W26553  18.167  40.466  10.652
60123W        W26554  39.178  14.609  12.882
60124W        W26555  34.164  19.800  11.020
60125W        W26556  33.356  37.124  11.619
60126W        W26557  17.319  14.709  13.967
60127W        W26558  43.365   0.260   0.748
60128W        W26559   9.800  19.071   2.747
60129W        W26560  20.102  34.699   3.557
60130W        W26561  44.237   6.910  13.553
60131W        W26562  13.251  28.507   3.559
60132W        W26563   4.920  12.182  13.312
60133W        W26564  32.951   5.805  13.315
60134W        W26565  41.660  35.415  14.437
60135W        W26566  23.723  24.746  13.325
60136W        W26567   1.476  39.606   0.448
60137W        W26568   9.176  18.571   4.131
60138W        W26569  30.406   4.959  12.034
60139W        W26570  40.996   9.595  13.130
60140W        W26571  17.632  39.525  12.638
60141W        W26572  26.481  13.457   4.972
60142W        W26573   3.718  11.667   3.711
60143W        W26574  29.092  34.108  10.767
60144W        W26575  27.871   0.056  11.189
60145W        W26576   7.624  33.395   1.768
60146W        W26577  12.617  27.424  13.344
60147W        W26578   5.724  32.567  14.874
60148W        W26579  14.570  39.302  11.687
60149W        W26580  12.284  10.209  11.922
60150W        W26581   3.356  42.053  14.495
60151W        W26582  32.997  32.670   1.125
60152W        W26583  27.536  17.149  13.113
60153W        W26584  13.342  17.073   1.361
60154W        W26585  23.010   9.163  10.814
60155W        W26586  44.065  14.099   2.676
60156W        W26587  26.054   1.008  11.522
60157W        W26588  19.616  43.005  12.608
60158W        W26589  12.999  17.787   0.900
60159W        W26590   9.730  37.343   0.435
60160W        W26591  16.795  23.499   4.695
60161W        W26592  15.631  38.040  14.881
60162W        W26593   3.907  32.375  12.347
60163W        W26594  33.427  33.847   0.791
60164W        W26595  17.997  35.029  11.197
60165W        W26596  28.607  39.815   4.470
60166W        W26597  40.551   9.695  11.259
60167W        W26598  11.786  23.437   9.854
60168W        W26599   7.287  39.055   1.066
60169W        W26600   4.634  30.018  13.029
60170W        W26601  27.824  20.668  12.587
60171W        W26602  23.229  20.147  11.645
60172W        W26603   4.574  17.377   5.196
60173W        W26604  30.910   4.447  12.649
60174W        W26605  14.786  36.086   2.062
60175W        W26606  35.596   3.446   1.758
60176W        W26607   3.838  20.442   0.710
60177W        W26608  41.574  12.272   2.676
60178W        W26609   1.973  18.924  14.963
60179W        W26610  39.092  16.154   2.631
60180W        W26611  12.406  15.735   4.913
60181W        W26612  26.507   2.649  10.289
60182W        W26613  35.552  37.901   2.644
60183W        W26614  21.653  28.226   2.102
60184W        W26615  10.415  27.482   4.271
60185W        W26616  29.241  32.701   2.898
60186W        W26617  40.994  26.029   0.500
60187W        W26618   5.680  16.743  12.818
60188W        W26619  16.229  25.663   2.162
60189W        W26620  15.180   1.438  10.046
60190W        W26621   2.496  44.509  11.537
60191W        W26622  43.763   0.009   0.219
60192W        W26623  30.358  31.035  14.259
60193W        W26624   7.361  27.651   4.596
60194W        W26625   4.772  44.995   2.357
60195W        W26626  21.121  29.235  14.934
60196W        W26627   5.447  28.047   1.732
60197W        W26628  15.534  36.567   0.209
60198W        W26629  19.355  16.099   4.706
60199W        W26630  30.506  35.841   3.062
60200W        W26631  40.030   2.465   3.751
60201W        W26632   6.712  42.951   1.329
60202W        W26633   5.408  15.174  12.592
60203W        W26634   4.510   8.215   0.930
60204W        W26635   9.321  32.127   3.958
60205W        W26636   5.400  14.177   4.825
60206W        W26637  10.418   4.303  13.825
60207W        W26638   5.871   6.308   0.695
60208W        W26639  35.925  25.915   2.900
60209W        W26640  23.291  18.571  12.406
60210W        W26641  24.965   7.200   3.074
60211W        W26642   4.807   9.028   1.704
60212W        W26643  35.853  21.808  11.155
60213W        W26644  30.985  42.006  13.567
60214W        W26645  35.860   4.200  14.981
60215W        W26646  11.702   0.998   1.199
60216W        W26647  35.329  17.889   0.931
60217W        W26648   9.433  19.785   3.264
60218W        W26649   9.592  40.450   4.937
60219W        W26650  15.436  37.596   5.030
60220W        W26651  37.934   7.407  13.792
60221W        W26652   2.412  34.904  14.301
60222W        W26653   1.931  29.559   0.983
60223W        W26654  18.135  35.961  13.096
60224W        W26655  35.367  38.166  10.320
60225W        W26656  14.740  13.493  11.939
60226W        W26657  26.465  41.787   2.205
60227W        W26658  33.200  42.913  13.973
60228W        W26659  14.389  37.354  13.777
60229W        W26660  28.840  16.930   4.158
60230W        W26661  27.398  22.050  11.169
60231W        W26662  36.264   5.161   3.923
60232W        W26663  20.782  19.742   1.499
60233W        W26664   1.517   0.769   1.351
60234W        W26665  20.016   7.436  12.290
60235W        W26666  28.204   1.409   3.181
60236W        W26667   7.790  25.712  13.552
60237W        W26668   4.484  39.340  12.228
60238W        W26669  18.321  18.892   1.376
60239W        W26670  41.306  17.764  14.859
60240W        W26671  43.713  15.207   3.220
60241W        W26672  23.725  35.230  12.991
60242W        W26673  25.948  44.280   2.239
60243W        W26674   2.851  43.330  11.960
60244W        W26675  19.744  43.951   2.938
60245W        W26676  26.595  28.887   4.528
60246W        W26677   8.007   2.639   2.294
60247W        W26678  18.094  23.311  11.671
60248W        W26679   8.350  14.770  14.287
60249W        W26680  27.694   1.833  12.057
60250W        W26681  27.644  12.532   0.732
60251W        W26682  33.552   1.159  13.300
60252W        W26683  23.433  27.412  13.902
60253W        W26684  27.249  19.042  12.500
60254W        W26685  22.013   4.989  14.863
60255W        W26686  19.648  20.093   4.486
60256W        W26687  14.404  34.875  14.669
60257W        W26688   4.628  29.915  10.304
60258W        W26689  11.054  15.121  13.270
60259W        W26690  23.691   0.968   4.170
60260W        W26691  10.179  14.589  10.688
60261W        W26692  39.026   2.794  11.174
60262W        W26693  43.385  27.457   4.277
60263W        W26694  12.597  11.341   3.648
60264W        W26695  25.356  19.726  11.887
60265W        W26696  38.363  44.459  11.026
60266W        W26697  23.446  30.813  12.002
60267W        W26698  13.202  36.456  12.602
60268W        W26699  14.609  30.941   3.926
60269W        W26700  28.900  13.032  11.396
60270W        W26701  37.650  34.437   4.990
60271W        W26702  42.561   0.678  13.538
60272W        W26703  15.493  28.035   5.047
60273W        W26704  15.193  24.713   0.791
60274W        W26705  16.569  44.220  14.334
60275W        W26706  41.307  20.832  13.805
60276W        W26707  38.332  32.038  14.456
60277W        W26708  38.931  33.032   4.862
60278W        W26709   9.432  35.390  13.815
60279W        W26710  21.573   0.737   3.616
60280W        W26711  10.127   3.399   3.266
60281W        W26712  40.463  19.888  14.909
60282W        W26713  14.279  32.963   0.023
60283W        W26714   2.891  42.186  11.870
60284W        W26715  30.626  22.528  10.675
60285W        W26716  40.749  17.279  13.598
60286W        W26717  10.247  28.986  11.959
60287W        W26718  14.101  17.985   4.375
60288W        W26719  22.671  15.191   2.232
60289W        W26720  17.197   9.268   1.870
60290W        W26721  18.944   0.400   2.421
60291W        W26722  39.653   6.529  13.487
60292W        W26723  26.731  22.346   5.044
60293W        W26724  21.595  20.453  14.264
60294W        W26725  10.345  37.062  11.569
60295W        W26726   5.582  19.898   1.328
60296W        W26727  32.748  24.809  11.749
60297W        W26728  25.233   6.238  11.873
60298W        W26729  11.436  33.589  11.513
60299W        W26730  22.477  38.097  11.691
60300W        W26731  18.593  33.731  13.470
60301W        W26732  21.195  18.691  13.793
60302W        W26733  21.535  32.631   3.581
60303W        W26734  40.507  34.140   3.087
60304W        W26735  13.214  31.536   2.662
60305W        W26736  35.478  44.974   3.595
60306W        W26737  20.832   3.878  10.638
60307W        W26738  44.527  39.303   1.824
60308W        W26739  11.896  41.991  14.810
60309W        W26740   6.636  34.890  13.345
60310W        W26741  17.572  36.729  10.833
60311W        W26742  15.586   7.415   1.198
60312W        W26743  35.380  12.635  11.984
60313W        W26744   4.737   0.429   0.030
60314W        W26745  14.827  40.444   1.750
60315W        W26746  11.905  15.256  14.083
60316W        W26747  39.592  35.775  11.117
60317W        W26748  31.986   8.415   4.286
60318W        W26749   7.903  31.682  14.227
60319W        W26750  27.473  31.608  13.469
60320W        W26751  20.278  23.587   0.816
60321W        W26752   3.280  26.249  12.990
60322W        W26753   2.293  30.847   1.148
60323W        W26754  17.625   1.734   0.723
60324W        W26755  21.417  16.748  13.883
60325W        W26756  41.322  37.966  12.937
60326W        W26757  19.269  15.777  10.164
60327W        W26758  25.143  32.357  12.411
60328W        W26759  23.023  24.946  14.038
60329W        W26760  14.845  34.998  12.067
60330W        W26761  28.187  13.231   4.657
60331W        W26762   7.885  27.710   4.472
60332W        W26763  11.159  40.718  13.522
60333W        W26764  13.989  35.210  13.913
60334W        W26765  27.509  28.347  12.867
60335W        W26766  18.197  23.113   3.255
60336W        W26767  28.968  16.554  11.970
60337W        W26768  37.807  34.032   9.726
60338W        W26769  17.592  31.519   2.667
60339W        W26770  36.448  13.403   3.178
60340W        W26771  22.831  24.518  13.712
60341W        W26772   8.260  33.649   1.401
60342W        W26773  39.365  22.419   0.662
60343W        W26774  37.846  31.732   1.273
60344W        W26775   4.760  32.644  12.149
60345W        W26776  31.036   0.812   4.223
60346W        W26777  15.356  41.494  11.152
60347W        W26778  28.200  26.958   1.839
60348W        W26779  16.928  17.252   1.223
60349W        W26780   7.761   2.034  12.451
60350W        W26781  31.553  31.692   2.711
60351W        W26782   6.118   9.641  14.370
60352W        W26783  25.618  23.567   4.103
60353W        W26784  13.584  44.813   0.408
60354W        W26785   6.344   1.752   9.992
60355W        W26786   5.181  36.085   1.690
60356W        W26787  15.746  42.451  14.874
60357W        W26788  10.782  30.829   1.544
60358W        W26789  42.456  41.837   4.599
60359W        W26790  40.404  18.351   0.742
60360W        W26791  39.978   2.757   3.340
60361W        W26792  23.490  42.399  12.150
60362W        W26793  10.367  23.271  14.463
60363W        W26794  24.620  26.193   1.820
60364W        W26795  38.568  41.837   2.651
60365W        W26796  17.290   7.666  13.942
60366W        W26797   8.880   0.577  13.440
60367W        W26798  37.922  44.102  12.669
60368W        W26799  36.038   4.860   2.382
60369W        W26800   7.217  36.081   4.085
60370W        W26801   5.893  29.868  13.804
60371W        W26802  31.334   5.712  13.629
60372W        W26803  16.102  43.906   4.465
60373W        W26804  27.554  29.998  12.446
60374W        W26805  42.041  15.593   2.244
60375W        W26806  22.536   3.940  12.216
60376W        W26807  13.192  30.176  14.527
60377W        W26808  18.058  40.522   2.217
60378W        W26809  44.744  31.315   4.940
60379W        W26810  30.093   0.504   0.547
60380W        W26811  11.057  22.154  13.039
60381W        W26812  12.032  29.877  12.889
60382W        W26813  25.908   2.143  14.471
60383W        W26814  20.518  34.338  10.814
60384W        W26815  30.428  24.325   4.517
60385W        W26816  38.777  18.633  13.809
60386W        W26817  27.998  31.132  13.848
60387W        W26818  13.137  27.555   3.515
60388W        W26819  32.537  40.673   4.522
60389W        W26820  27.000  16.606   4.454
60390W        W26821  24.693  27.904   3.059
60391W        W26822  10.958   7.950  11.700
60392W        W26823  32.614  16.623   3.067
60393W        W26824  23.293   7.540  11.577
60394W        W26825  39.054  43.162   1.455
60395W        W26826  41.285   2.389   1.999
60396W        W26827  31.961  21.177  12.101
60397W        W26828  33.450  43.400  14.138
60398W        W26829  35.360  43.285   4.852
60399W        W26830  26.043  32.669   1.356
60400W        W26831  43.583  24.150   2.797
60401W        W26832   5.963  37.924  11.452
60402W        W26833  36.330  15.596   2.760
60403W        W26834   2.554  16.537  12.552
60404W        W26835  19.047  28.591  12.521
60405W        W26836  27.227   6.879   4.045
60406W        W26837  17.640  31.947   4.602
60407W        W26838  23.431   3.270  10.759
60408W        W26839  12.324   8.854   2.687
60409W        W26840  13.679  36.709   4.622
60410W        W26841  19.385  10.618   1.787
60411W        W26842  33.772   8.964   3.318
60412W        W26843  13.034  40.230   1.771
60413W        W26844   0.524  24.073   0.189
60414W        W26845  30.683  42.001   4.852
60415W        W26846  27.058  37.452  14.906
60416W        W26847  20.878   2.940   2.078
60417W        W26848   9.526  34.424  13.947
60418W        W26849  14.124  17.089   4.093
60419W        W26850  34.109   8.417   4.279
60420W        W26851  27.258  39.372  10.713
60421W        W26852  15.764  40.031  10.243
60422W        W26853  43.261   6.426  11.653
60423W        W26854  28.461  42.997  14.001
60424W        W26855  14.843   6.731   3.293
60425W        W26856  36.314  20.969  14.916
60426W        W26857  31.098  20.604   4.683
60427W        W26858  25.373  17.624  14.886
60428W        W26859  39.877  40.631  14.827
60429W        W26860  42.267  39.002   1.869
60430W        W26861  40.832  38.011  13.936
60431W        W26862  12.093   7.130   0.396
60432W        W26863   2.722  24.812   3.181
60433W        W26864  33.726   4.805   9.844
60434W        W26865   6.476  34.047   3.258
60435W        W26866  30.484  12.771   1.349
60436W        W26867  37.184   6.487  12.051
60437W        W26868   0.915  31.607   0.237
60438W        W26869  19.583  32.741   3.259
60439W        W26870  36.518  29.043   4.133
60440W        W26871  25.273  29.171   1.817
60441W        W26872  22.479   3.458  10.993
60442W        W26873  13.127  23.028   0.156
60443W        W26874  26.042  37.311   3.618
60444W        W26875  10.940  31.778  10.047
60445W        W26876  33.452  25.020   0.809
60446W        W26877  43.537  34.602  12.122
60447W        W26878   3.143  30.646  12.058
60448W        W26879   7.294  30.201   1.660
60449W        W26880  13.855   6.916   3.354
60450W        W26881  37.247   6.301   3.718
60451W        W26882  18.793  27.886   4.059
60452W        W26883  41.975   0.006  13.470
60453W        W26884   1.817  44.935   1.829
60454W        W26885  15.561   9.851   3.730
60455W        W26886  10.561  37.054   1.743
60456W        W26887   3.135  25.922   0.745
60457W        W26888  35.772  39.861  10.726
60458W        W26889   6.079   5.415  12.050
60459W        W26890  13.845  39.982  14.359
60460W        W26891   4.889  41.043  10.640
60461W        W26892  29.041  43.305   4.297
60462W        W26893  31.048  36.016   3.888
60463W        W26894   0.703  42.258  10.700
60464W        W26895  33.856  16.068   3.215
60465W        W26896  19.457  28.560  11.105
60466W        W26897  10.585  44.301  11.949
60467W        W26898  17.638  28.897  11.367
60468W        W26899  41.022  12.860   1.767
60469W        W26900  25.172  23.275  12.789
60470W        W26901  21.610  33.932  14.357
60471W        W26902  43.338  10.798   0.750
60472W        W26903  44.592   1.765  12.254
60473W        W26904  25.096  43.770   3.679
60474W        W26905  10.338   6.120  12.528
60475W        W26906  18.702  29.150   0.469
60476W        W26907  19.172  14.074   0.585
60477W        W26908  20.816  11.848  12.089
60478W        W26909  27.981  26.722   0.355
60479W        W26910  20.603  10.063  12.361
60480W        W26911  42.898  40.983   1.686
60481W        W26912  11.524  12.098   0.959
60482W        W26913  23.956  36.437  11.987
60483W        W26914  19.160   1.466   4.570
60484W        W26915  39.946  35.737  14.990
60485W        W26916  37.936  44.441   2.485
60486W        W26917  33.966  11.436  13.626
60487W        W26918  23.309  10.517   3.082
60488W        W26919  33.659  39.957   1.923
60489W        W26920  25.671  32.435   2.596
60490W        W26921  16.259  16.555   1.453
60491W        W26922  22.447  13.398  10.783
60492W        W26923  17.894  20.311   4.549
60493W        W26924  31.113  29.368   1.805
60494W        W26925  26.205   6.165  12.040
60495W        W26926   7.484  18.159   4.993
60496W        W26927  43.045   7.271  13.843
60497W        W26928  10.187  38.753   2.782
60498W        W26929   2.168  41.324   4.762
60499W        W26930  25.567  41.651  14.888
60500W        W26931   8.658   7.999   3.764
60501W        W26932   4.887   6.013   9.788
60502W        W26933  20.667  36.480   5.393
60503W        W26934  36.030   2.878   2.260
60504W        W26935  21.553   6.324   0.016
60505W        W26936   4.234  35.472  11.630
60506W        W26937  39.267   1.367   1.891
60507W        W26938  15.711  13.643   0.249
60508W        W26939  29.528  44.388   0.938
60509W        W26940  33.383  24.715  10.454
60510W        W26941   5.628   4.281  14.229
60511W        W26942  32.483   5.838  13.115
60512W        W26943   9.399  19.178   4.563
60513W        W26944  12.870   2.234  10.747
60514W        W26945  28.651   5.280  13.857
60515W        W26946  28.448  44.992   0.948
60516W        W26947   9.277  31.065   1.892
60517W        W26948  18.110  18.344   4.041
60518W        W26949   7.940  34.032  14.414
60519W        W26950  12.513  21.525   2.766
60520W        W26951  21.051  13.189  11.430
60521W        W26952  44.207  40.261   1.777
60522W        W26953  34.125  41.835  14.413
60523W        W26954  19.723  12.617   2.599
60524W        W26955   8.159   9.371  11.654
60525W        W26956  21.762  27.204   0.538
60526W        W26957  10.401  14.014  13.330
60527W        W26958  32.855  44.000   1.888
60528W        W26959   0.376  29.948  13.270
60529W        W26960  40.800  36.615   3.859
60530W        W26961  44.403  41.018   2.230
60531W        W26962  33.143  42.245   2.300
60532W        W26963  38.401   1.391   4.580
60533W        W26964  43.986   0.798  14.805
60534W        W26965  32.963  22.516   2.443
60535W        W26966  30.902  32.614   4.216
60536W        W26967  21.116  19.518  13.481
60537W        W26968  30.194  36.465   4.038
60538W        W26969  18.088  16.207   4.517
60539W        W26970   7.784  10.433   2.569
60540W        W26971  14.329  19.084   1.429
60541W        W26972  44.428  24.607   0.190
60542W        W26973  33.889  34.866   3.330
60543W        W26974  10.001  15.848   0.454
60544W        W26975  37.551  35.283  11.940
60545W        W26976  12.211  33.209   1.263
60546W        W26977   9.312   2.391   0.714
60547W        W26978  24.801  17.148  10.775
60548W        W26979  19.001  36.305   1.598
60549W        W26980  41.439  24.330  12.610
60550W        W26981  22.625  43.170  10.667
60551W        W26982  34.310  26.807   1.405
60552W        W26983  13.187  18.363   4.084
60553W        W26984   0.747  10.343   0.827
60554W        W26985  24.782  25.997   3.155
60555W        W26986  15.852  27.645   2.144
60556W        W26987  13.127   2.350  14.848
60557W        W26988  16.556  43.659   4.566
60558W        W26989  20.050  24.984   3.301
60559W        W26990   4.726  29.636  12.028
60560W        W26991   3.944  42.971   0.273
60561W        W26992  13.648  39.697  14.775
60562W        W26993   6.710  12.169   1.763
60563W        W26994  22.658   8.277   4.640
60564W        W26995   9.061   9.649   2.328
60565W        W26996  11.147  18.252   1.829
60566W        W26997  44.839   9.773  13.233
60567W        W26998  32.660   3.170   3.347
60568W        W26999   2.613  13.457   1.780
60569W        W27000  33.638  23.299   4.722
60570W        W27001  18.485  35.102  12.932
60571W        W27002  30.661  25.641   2.862
60572W        W27003  20.120  29.583   0.009
60573W        W27004   4.474  14.285   2.705
60574W        W27005  39.834   2.651  12.991
60575W        W27006   4.182  17.739   2.693
60576W        W27007  24.737   7.931  12.599
60577W        W27008  12.400  10.166  14.405
60578W        W27009  17.744   0.044  11.509
60579W        W27010  44.790  25.787  11.101
60580W        W27011   8.938  24.814   1.204
60581W        W27012  33.702  43.924   0.012
60582W        W27013  17.680   1.205   2.436
60583W        W27014  39.606  28.654  12.103
60584W        W27015  13.635  10.385   0.355
60585W        W27016   6.357  37.719   3.628
60586W        W27017  22.618   6.277   4.287
60587W        W27018  43.684  26.506  12.438
60588W        W27019  35.449   9.622  11.266
60589W        W27020  32.617   4.443  10.626
60590W        W27021  10.247  31.931  14.165
60591W        W27022  22.973  21.058   2.743
60592W        W27023  22.625  21.784   0.156
60593W        W27024  44.304  36.495   3.749
60594W        W27025  39.593  33.533  12.400
60595W        W27026   2.059  44.715   0.488
60596W        W27027   5.584   9.451  14.818
60597W        W27028  30.106   2.426  12.636
60598W        W27029  38.982  20.180   3.259
60599W        W27030  30.069   6.759   3.042
60600W        W27031  20.641  15.594  10.659
60601W        W27032  30.430  19.235  11.935
60602W        W27033  33.536   7.120   2.216
60603W        W27034  24.772  28.538   0.443
60604W        W27035  42.866  29.599   2.174
60605W        W27036  32.757   8.901   3.676
60606W        W27037  18.096  35.907  11.081
60607W        W27038  38.404  17.822  13.335
60608W        W27039  19.305   0.232   3.803
60609W        W27040   8.192  41.829   4.846
60610W        W27041  13.697  13.482   0.829
60611W        W27042  21.448   5.248   2.315
60612W        W27043  13.501   2.648  13.460
60613W        W27044   4.360  43.475   4.824
60614W        W27045  19.185   1.719  10.664
60615W        W27046   0.261  30.391  13.513
60616W        W27047  37.365  30.901  11.749
60617W        W27048  22.676   9.383   1.931
60618W        W27049  27.465  20.273  12.526
60619W        W27050   2.400  12.016  10.771
60620W        W27051  24.139   7.611   0.369
60621W        W27052  31.384   5.748   0.558
60622W        W27053  22.776  35.548   0.089
60623W        W27054  10.209  31.087  14.982
60624W        W27055  19.979  36.040  10.772
60625W        W27056  19.092   5.322   3.382
60626W        W27057   6.522   7.431   2.300
60627W        W27058   5.505  23.572  12.612
60628W        W27059   9.317  17.403  10.335
60629W        W27060   1.302  41.719  14.475
60630W        W27061  33.490  34.087   4.050
60631W        W27062   6.192   7.013   2.308
60632W        W27063  26.627  19.279  14.061
60633W        W27064  17.084  25.264   3.175
60634W        W27065  43.469  39.349  11.041
60635W        W27066  42.904   9.752  13.208
60636W        W27067  43.996   2.945   1.570
60637W        W27068   7.717   1.497   3.436
60638W        W27069  43.278  43.486   0.493
60639W        W27070  13.005   0.476  13.861
60640W        W27071  44.487   1.717  14.811
60641W        W27072  15.138  38.725  13.328
60642W        W27073  38.436  15.973   1.773
60643W        W27074   4.955  10.832  11.561
60644W        W27075  31.602  44.841   3.197
60645W        W27076  21.747  24.637   0.628
60646W        W27077  37.987   8.968   3.376
60647W        W27078  30.213  25.085  14.581
60648W        W27079  10.373  28.005   2.191
60649W        W27080   2.238  39.621   4.035
60650W        W27081  13.660  14.567  13.420
60651W        W27082  11.888  37.230   5.098
60652W        W27083  15.548  44.950  14.079
60653W        W27084   3.051  36.844   0.974
60654W        W27085  40.514  28.163   2.288
60655W        W27086   2.289  34.399  14.200
60656W        W27087  30.634  22.766  12.532
60657W        W27088  44.723  27.019  14.867
60658W        W27089   0.011  36.446  11.574
60659W        W27090  42.015  41.299   4.234
60660W        W27091  16.280  11.329   1.377
60661W        W27092  13.278  16.851   3.896
60662W        W27093  22.513   3.724   0.257
60663W        W27094  20.671  17.355   4.367
60664W        W27095  37.950  42.711  11.274
60665W        W27096  27.987  26.983   4.566
60666W        W27097  20.631   6.187  14.050
60667W        W27098   6.169  15.292  11.918
60668W        W27099  10.674  38.904  14.769
60669W        W27100  13.885  25.613  14.752
60670W        W27101  23.172   3.679   0.918
60671W        W27102  43.813  42.543   1.370
60672W        W27103  37.022  37.380  12.416
60673W        W27104  32.617  19.157   1.890
60674W        W27105   8.669  10.123   4.012
60675W        W27106  38.584  18.165   1.324
60676W        W27107  38.078   0.597  10.274
60677W        W27108  36.227   0.887   2.216
60678W        W27109  38.340  17.740  13.844
60679W        W27110  28.849  44.628   1.632
60680W        W27111  36.866  26.973  12.565
60681W        W27112   2.892  22.203   1.825
60682W        W27113   4.406  26.538  14.889
60683W        W27114  39.471  10.654   3.335
60684W        W27115  31.035  18.921   4.629
60685W        W27116   5.743  23.277  13.022
60686W        W27117  15.740  17.219  14.089
60687W        W27118  21.574  15.583   1.863
60688W        W27119  24.603  39.030   4.279
60689W        W27120  43.369  31.531  13.327
60690W        W27121  16.743  16.807   3.554
60691W        W27122   3.820  23.720   4.110
60692W        W27123  13.368   3.429   5.058
60693W        W27124  40.201  32.568   0.016
60694W        W27125   7.017   6.849   0.393
60695W        W27126  21.197  41.991   4.982
60696W        W27127  34.963  10.691   2.837
60697W        W27128  40.813  32.795   0.762
60698W        W27129   5.230  40.717  13.409
60699W        W27130  33.130  12.916   3.115
60700W        W27131  24.140  16.826   4.058
60701W        W27132   8.503  43.388  10.658
60702W        W27133   6.169  26.170  14.971
60703W        W27134  26.082  15.005  13.902
60704W        W27135  43.923  10.275  11.795
60705W        W27136  17.699  32.839   1.732
60706W        W27137  23.187  41.036   1.919
60707W        W27138  19.964   2.930  13.860
60708W        W27139  37.843  23.239  14.247
60709W        W27140   0.365  39.218  11.574
60710W        W27141  31.224  14.874  11.642
60711W        W27142  15.881  10.740   0.090
60712W        W27143  37.083   4.209   2.307
60713W        W27144   3.807  27.503   2.809
60714W        W27145  17.802  10.932   0.891
60715W        W27146  20.691  12.329   0.925
60716W        W27147  38.309  22.721  11.593
60717W        W27148  11.624  43.860  14.841
60718W        W27149  36.300   2.865   0.325
60719W        W27150  43.449  20.112   1.435
60720W        W27151  37.522  42.758   0.386
60721W        W27152  32.709  17.569   1.447
60722W        W27153  39.455  13.732   1.272
60723W        W27154   5.411  42.643   1.895
60724W        W27155  16.274  23.506   4.577
60725W        W27156   5.034   8.211  13.550
60726W        W27157  26.561  43.767   4.558
60727W        W27158   4.705   2.235   0.429
60728W        W27159  39.321  12.263  12.937
60729W        W27160  41.085  16.306  12.546
60730W        W27161   6.775  37.494   2.385
60731W        W27162   4.808  31.377   3.803
60732W        W27163  20.936   0.188   3.817
60733W        W27164  23.033  32.317   2.761
60734W        W27165  43.852  15.127  13.899
60735W        W27166  23.686  43.612   1.168
60736W        W27167  12.868  36.419   4.614
60737W        W27168  42.287   8.767   9.814
60738W        W27169  22.947   3.315   2.731
60739W        W27170  25.170  15.530  12.597
60740W        W27171  31.888  26.169   4.189
60741W        W27172  18.086  25.060  11.973
60742W        W27173  10.150  13.708  10.912
60743W        W27174   5.190  33.090   0.392
60744W        W27175  13.036  26.511   4.364
60745W        W27176  29.655  44.451  12.484
60746W        W27177  17.133  11.867   4.511
60747W        W27178  36.549  39.938   0.497
60748W        W27179  15.698  37.605   1.836
60749W        W27180  18.213  33.264  10.804
60750W        W27181  37.928  27.407   4.536
60751W        W27182  40.919   7.372   4.020
60752W        W27183  33.153  26.675  14.511
60753W        W27184  15.582  41.103   3.696
60754W        W27185  26.893  10.387   2.330
60755W        W27186  32.020  33.793  14.088
60756W        W27187  39.191  29.597   0.823
60757W        W27188  23.517  11.825  12.900
60758W        W27189   0.250  12.304  11.192
60759W        W27190  38.310   8.661  11.442
60760W        W27191  14.598  34.109  14.482
60761W        W27192  41.073   7.256  12.748
60762W        W27193  30.697   5.684  11.705
60763W        W27194  40.736  38.990   1.830
60764W        W27195  33.650   4.461  10.239
60765W        W27196   0.483   8.005   2.192
60766W        W27197  36.526   0.019  11.657
60767W        W27198  17.031  26.107   2.888
60768W        W27199   6.761  26.692  13.436
60769W        W27200  37.374  37.533  13.956
60770W        W27201  32.617  33.402   0.218
60771W        W27202   6.602   3.225   2.423
60772W        W27203   9.641  40.043   0.598
60773W        W27204  43.870  29.449  14.359
60774W        W27205  27.952   0.095   4.797
60775W        W27206  40.844  43.730   0.696
60776W        W27207  36.113  30.077  12.383
60777W        W27208   3.212  13.651  13.878
60778W        W27209   7.934  34.641  13.943
60779W        W27210  25.301  10.236  14.375
60780W        W27211  35.067  11.195   2.729
60781W        W27212  19.630  18.740   1.361
60782W        W27213  19.505  30.888   2.300
60783W        W27214   7.779  36.907   3.858
60784W        W27215  42.255  31.626  14.527
60785W        W27216  19.232  42.350   4.529
60786W        W27217  10.426  39.536  13.456
60787W        W27218   6.396  38.576   1.887
60788W        W27219  41.579  24.777   3.157
60789W        W27220  14.733  43.333  12.230
60790W        W27221  30.046  30.163   2.760
60791W        W27222   5.633  38.825   1.760
60792W        W27223  10.299  43.410   1.614
60793W        W27224  27.003   7.336  11.034
60794W        W27225  39.775  11.609  13.850
60795W        W27226   8.325   1.263  10.626
60796W        W27227  19.787  30.555  14.693
60797W        W27228   7.308   2.336  11.591
60798W        W27229   0.221  11.806   4.204
60799W        W27230  16.350  43.946  11.705
60800W        W27231  26.688   7.275  11.688
60801W        W27232  30.377   7.061  13.716
60802W        W27233  35.577  33.351   4.055
60803W        W27234  15.870  31.363  11.366
60804W        W27235   6.909   5.199  14.851
60805W        W27236  43.552  27.177   3.356
60806W        W27237   1.350  32.115  11.143
60807W        W27238  12.725  19.685  13.027
60808W        W27239  24.958  33.800   2.157
60809W        W27240   8.988  28.318   1.636
60810W        W27241   6.146  44.683   4.079
60811W        W27242  14.219  21.590  10.164
60812W        W27243  18.409  41.570  11.496
60813W        W27244   3.805  41.835   3.247
60814W        W27245  12.375  10.304   3.846
60815W        W27246  42.389  25.051   2.598
60816W        W27247  31.397  35.319  14.252
60817W        W27248  10.345  28.800   2.797
60818W        W27249   9.787  22.203   3.667
60819W        W27250  12.579  10.640   1.683
60820W        W27251   3.959  41.146   0.367
60821W        W27252  36.416  37.358   3.406
60822W        W27253  12.137  43.206   0.437
60823W        W27254  18.846  14.361  12.517
60824W        W27255   5.773   1.739  13.521
60825W        W27256  28.860  27.042   4.432
60826W        W27257  12.099  24.215  12.837
60827W        W27258   4.803  18.570  12.608
60828W        W27259  29.487  35.261  14.808
60829W        W27260  25.552   6.357   2.743
60830W        W27261  16.468  12.912   4.011
60831W        W27262  35.478  35.385  14.919
60832W        W27263  20.653  15.706   3.618
60833W        W27264  12.629   1.424   4.039
60834W        W27265  21.207   5.653   2.105
60835W        W27266   3.364  23.722  10.752
60836W        W27267   7.001  37.296   0.335
60837W        W27268  29.238  38.852  14.407
60838W        W27269  38.099   4.490  10.725
60839W        W27270  19.694  34.867   1.079
60840W        W27271  32.652   1.555  11.724
60841W        W27272  16.680  23.506  14.648
60842W        W27273  36.383  15.049  10.780
60843W        W27274  16.616  20.147  11.621
60844W        W27275  13.171  29.472   0.242
60845W        W27276  35.834  33.034  14.022
60846W        W27277  34.532  10.535   3.172
60847W        W27278  17.280  32.576  11.966
60848W        W27279  36.798  38.121   4.047
60849W        W27280  43.003  33.685   1.390
60850W        W27281  28.556   3.676  14.200
60851W        W27282  16.113   8.295  12.841
60852W        W27283  29.513  31.590   2.442
60853W        W27284   9.663  11.010  12.204
60854W        W27285  29.066  39.382   2.735
60855W        W27286  24.055   9.672   1.797
60856W        W27287  42.006   5.058   0.231
60857W        W27288  44.457  22.717  14.649
60858W        W27289  16.061  43.021   4.165
60859W        W27290  27.113   2.565   4.415
60860W        W27291  36.048  23.015   2.950
60861W        W27292   3.689  28.140  14.417
60862W        W27293  22.572  27.329  11.081
60863W        W27294  36.229  43.532  12.500
60864W        W27295  22.811  20.298  14.745
60865W        W27296  38.826   6.952   2.393
60866W        W27297  11.174  16.840  13.797
60867W        W27298  11.809  25.075   2.423
60868W        W27299  24.614  30.378   3.604
60869W        W27300   4.382  17.620  13.501
60870W        W27301  41.293   5.355  13.471
60871W        W27302  31.937  27.074   4.179
60872W        W27303  20.647  37.056   0.357
60873W        W27304   2.442  16.021  14.355
60874W        W27305  20.281  32.450  10.561
60875W        W27306   8.762  43.788  13.779
60876W        W27307  19.683   2.538   1.346
60877W        W27308  20.736  43.701  11.576
60878W        W27309   7.894  43.271  11.663
60879W        W27310  34.941  35.197   0.059
60880W        W27311  21.203  40.681  10.388
60881W        W27312   9.029  38.009   2.036
60882W        W27313  29.493  36.336  13.015
60883W        W27314  18.650  19.702   1.188
60884W        W27315  39.850  17.651   4.142
60885W        W27316   4.672  21.063   2.793
60886W        W27317   7.680   9.925  13.961
60887W        W27318  12.638  33.863  11.885
60888W        W27319  12.557  29.923  10.599
60889W        W27320  29.712   2.255  13.303
60890W        W27321  33.538  27.537   4.615
60891W        W27322   4.455   3.912   3.272
60892W        W27323  41.732  44.367  10.349
60893W        W27324  19.710   0.812   1.395
60894W        W27325  37.951  37.365  11.517
60895W        W27326   9.268  39.462   3.201
60896W        W27327  34.554  39.781  13.182
60897W        W27328  22.206   7.313  14.042
60898W        W27329  19.665  11.054  11.406
60899W        W27330   2.964  30.977  13.084
60900W        W27331   3.453  17.722   1.541
60901W        W27332  29.623  19.090   0.853
60902W        W27333  26.883  43.694   4.122
60903W        W27334  17.370  16.589   4.591
60904W        W27335  29.255  41.719  12.703
60905W        W27336  30.970   7.700   2.686
60906W        W27337  16.356  41.213  12.993
60907W        W27338  22.782  36.371   4.059
60908W        W27339  42.221  22.689  11.245
60909W        W27340  26.227  44.473   0.945
60910W        W27341  15.655  17.491   1.011
60911W        W27342  13.846  40.974  10.703
60912W        W27343  11.933  26.462   3.286
60913W        W27344   7.735  32.080   1.006
60914W        W27345  28.965  25.365  12.072
60915W        W27346  35.097  29.041  11.597
60916W        W27347   3.936  39.600   3.722
60917W        W27348  34.091   2.925   2.372
60918W        W27349  14.608  40.017  11.999
60919W        W27350  20.904   6.140   3.509
60920W        W27351  11.672  26.734   1.822
60921W        W27352  15.990  39.915  12.596
60922W        W27353  15.032  21.043  14.117
60923W        W27354  21.601   0.130   0.431
60924W        W27355  28.375  16.301  14.325
60925W        W27356  14.300  30.868   2.376
60926W        W27357  29.958  29.523  11.770
60927W        W27358  10.473  41.951  11.746
60928W        W27359  34.579   2.504   4.135
60929W        W27360   1.685   0.181  13.387
60930W        W27361  26.248  35.489  11.909
60931W        W27362  25.850   9.487  13.876
60932W        W27363   4.553   4.970   2.358
60933W        W27364  25.742  31.599  11.417
60934W        W27365   4.356  14.852   0.568
60935W        W27366   0.975  44.572   4.024
60936W        W27367  28.169  35.071   2.738
60937W        W27368  15.239  17.283  13.394
60938W        W27369  36.615  31.008  12.484
60939W        W27370  32.429   2.392   4.000
60940W        W27371  41.426  35.139  11.491
60941W        W27372   7.807  27.996   2.272
60942W        W27373   1.179  41.264  13.558
60943W        W27374  16.104  36.037   1.360
60944W        W27375  23.136   7.204  10.635
60945W        W27376  38.735   1.941   4.953
60946W        W27377  40.321  17.239   2.247
60947W        W27378  15.843  32.108   3.878
60948W        W27379  26.530  19.586   5.211
60949W        W27380  12.268   4.194  13.371
60950W        W27381  13.629   9.006   2.260
60951W        W27382  28.769  40.726   4.856
60952W        W27383  12.302  16.877  13.045
60953W        W27384  13.381   5.465  10.268
60954W        W27385  36.552  14.752  14.816
60955W        W27386  42.386  19.758   0.555
60956W        W27387  36.972  37.778  14.909
60957W        W27388  30.329  24.559  14.444
60958W        W27389  26.186  20.675  11.120
60959W        W27390  12.860  27.613  11.532
60960W        W27391   7.500  34.957  13.960
60961W        W27392  31.977  43.118   2.120
60962W        W27393  44.838   5.842   1.888
60963W        W27394  10.437  36.943  13.424
60964W        W27395  25.745  36.515   3.915
60965W        W27396  30.929  26.954  11.614
60966W        W27397  23.532  14.793  13.746
60967W        W27398  39.603  37.645   1.426
60968W        W27399  25.208  41.265  14.760
60969W        W27400  17.129   7.900   1.354
60970W        W27401  19.533  21.439   4.732
60971W        W27402  35.814  38.960  14.763
60972W        W27403  18.843  43.557   2.045
60973W        W27404   7.895  41.755   0.903
60974W        W27405  42.284   8.310  13.505
60975W        W27406  10.785   6.090  11.109
60976W        W27407   6.005  38.301  10.914
60977W        W27408  37.745  29.878   2.708
60978W        W27409  36.632  31.730  11.936
60979W        W27410  22.173  18.544  12.907
60980W        W27411   8.243  16.266   2.651
60981W        W27412  33.349  35.980   2.667
60982W        W27413  36.039  39.021   1.226
60983W        W27414  25.149   5.939   3.317
60984W        W27415   0.794  17.544  13.491
60985W        W27416  41.542  37.026   0.883
60986W        W27417  29.375   4.921  11.144
60987W        W27418   0.376   3.385  13.952
60988W        W27419  18.281   6.706  10.403
60989W        W27420   7.701   5.724   2.672
60990W        W27421  38.763  17.732  14.152
60991W        W27422  17.978  41.120   1.531
60992W        W27423  43.897   9.789  13.569
60993W        W27424  26.665   7.875   3.619
60994W        W27425  41.594  23.064   2.859
60995W        W27426  24.416  44.928   4.801
60996W        W27427  10.914  21.144  12.894
60997W        W27428  16.864  42.048  14.347
60998W        W27429  25.065  30.406   3.242
60999W        W27430  37.559  12.607   1.955
61000W        W27431  15.838   5.610   0.929
61001W        W27432  23.830  17.733   5.435
61002W        W27433   1.435   2.897   2.716
61003W        W27434  44.345  38.337   1.647
61004W        W27435   6.605   2.024  14.108
61005W        W27436  28.097  43.974  12.040
61006W        W27437  25.445   8.186  12.172
61007W        W27438   6.642   4.952   2.697
61008W        W27439  37.375   5.831   4.609
61009W        W27440  25.149   1.070   2.719
61010W        W27441  24.588  27.436  14.429
61011W        W27442  15.325  17.917   4.349
61012W        W27443  27.486   5.693  14.976
61013W        W27444  38.556  18.932  13.463
61014W        W27445  39.788  26.729  13.472
61015W        W27446  22.968  31.807   4.096
61016W        W27447  14.860  30.145   1.251
61017W        W27448   4.943  38.480  12.316
61018W        W27449  10.905  44.261  11.065
61019W        W27450   4.312  41.339  12.758
61020W        W27451  27.227  34.990   1.241
61021W        W27452  43.853  21.164  12.660
61022W        W27453   1.543   7.152   3.237
61023W        W27454  10.258  33.594  10.286
61024W        W27455  38.874   0.459   1.274
61025W        W27456  20.648  16.113  10.607
61026W        W27457   4.737  21.148   1.328
61027W        W27458   0.995  42.409   0.313
61028W        W27459  36.078  32.499   3.735
61029W        W27460   4.365  12.787   1.877
61030W        W27461  36.327  12.062  10.544
61031W        W27462   4.306   1.981  12.011
61032W        W27463  23.566   3.430   0.732
61033W        W27464   5.732  19.342  13.592
61034W        W27465  34.402  20.444   0.627
61035W        W27466  16.229  31.965  14.886
61036W        W27467  42.302  37.133   5.018
61037W        W27468  36.030  14.738   4.948
61038W        W27469  27.541  26.233   4.721
61039W        W27470   9.087  28.030   3.285
61040W        W27471   9.612  39.339  10.550
61041W        W27472   3.915  40.856   0.823
61042W        W27473  13.837  20.749   4.163
61043W        W27474  24.021  42.493  11.538
61044W        W27475  23.708  42.877  12.055
61045W        W27476  38.946  35.332  10.538
61046W        W27477  37.903   2.196   0.837
61047W        W27478  19.852  14.709   0.845
61048W        W27479  39.958   9.722  10.745
61049W        W27480   2.683  17.758  11.258
61050W        W27481   3.085  25.664   1.206
61051W        W27482  18.244  39.916  13.421
61052W        W27483  27.880  34.480  13.521
61053W        W27484   2.459  24.101   3.295
61054W        W27485  12.662  27.209  12.515
61055W        W27486  28.151  39.729  10.313
61056W        W27487  23.069   3.359   4.583
61057W        W27488  12.647  43.071  10.617
61058W        W27489  21.189   0.551   0.482
61059W        W27490   4.773  42.984  13.612
61060W        W27491  41.561  41.238   2.380
61061W        W27492   3.403  40.523   1.178
61062W        W27493   4.416  31.046   3.873
61063W        W27494  27.589   8.735   4.114
61064W        W27495  31.529   9.710   1.598
61065W        W27496  29.041   2.943  13.595
61066W        W27497   3.443  18.196  14.785
61067W        W27498  27.569   0.241   3.138
61068W        W27499  10.760  10.583  14.144
61069W        W27500  13.672  19.526   0.532
61070W        W27501  38.855  19.021  11.623
61071W        W27502  13.904   5.591  13.424
61072W        W27503   3.626  34.393  12.907
61073W        W27504  27.645  15.609  14.349
61074W        W27505   3.642  31.470   0.512
61075W        W27506  21.122  23.019   0.915
61076W        W27507   1.922  26.653  11.881
61077W        W27508   1.023  32.051   2.593
61078W        W27509   6.943  19.688   4.616
61079W        W27510   1.250  44.450   2.290
61080W        W27511   6.492  24.703  10.328
61081W        W27512   0.144  20.767  13.897
61082W        W27513  31.941  41.961  14.451
61083W        W27514  32.970  25.776  11.183
61084W        W27515  43.927  22.092  10.999
61085W        W27516  42.368  28.907   2.245
61086W        W27517  26.547  12.209   1.683
61087W        W27518  28.933   0.714   2.702
61088W        W27519  16.109  40.004   3.267
61089W        W27520  32.196  11.407  12.475
61090W        W27521   3.930  30.661  14.831
61091W        W27522   7.691  36.354  14.352
61092W        W27523  10.529  23.942   2.320
61093W        W27524   8.184  20.162  14.339
61094W        W27525  28.500  35.255  13.940
61095W        W27526  43.148  19.344  13.617
61096W        W27527  16.176  33.362  10.475
61097W        W27528  44.754  20.985   1.381
61098W        W27529   4.149  28.611  11.934
61099W        W27530  35.165   6.841  10.991
61100W        W27531  18.247  44.064   3.175
61101W        W27532  29.159  41.559  13.933
61102W        W27533  34.359  32.846   4.243
61103W        W27534   1.599  34.355   4.205
61104W        W27535  41.887  13.593   5.061
61105W        W27536   2.484   5.713   1.431
61106W        W27537  30.019  44.631  14.829
61107W        W27538  24.165  19.041  13.083
61108W        W27539  38.150  28.251  14.082
61109W        W27540  23.387  25.952   1.737
61110W        W27541  38.304  29.237   4.086
61111W        W27542  38.317  23.235  11.619
61112W        W27543  36.293  37.118   1.269
61113W        W27544   4.590   6.758   0.785
61114W        W27545  19.339   3.437  12.164
61115W        W27546  37.166  11.163   1.765
61116W        W27547  16.036  15.747   3.835
61117W        W27548  40.872   6.276   3.595
61118W        W27549  11.729  30.232  13.113
61119W        W27550  15.078  23.033   4.736
61120W        W27551  42.580  36.906  14.437
61121W        W27552   6.914  35.873   0.324
61122W        W27553  11.521  11.353  11.727
61123W        W27554  14.500  35.320  13.867
61124W        W27555  33.911   6.721   2.228
61125W        W27556  13.147  27.671   4.529
61126W        W27557  21.052   6.688  13.540
61127W        W27558  12.620  42.271  11.625
61128W        W27559  35.668  41.339  10.740
61129W        W27560   9.713  36.636   4.722
61130W        W27561  27.133  11.207   3.594
61131W        W27562   2.547  30.199  10.874
61132W        W27563  43.302  12.276  12.052
61133W        W27564  33.591  12.507  11.743
61134W        W27565   0.884  39.896   4.441
61135W        W27566  36.302  44.441  10.839
61136W        W27567  30.980   1.480  12.137
61137W        W27568  21.036  17.600  11.642
61138W        W27569  29.467   1.978   1.486
61139W        W27570  38.424   1.871  12.467
61140W        W27571  29.459  13.204  13.974
61141W        W27572   4.870  25.995  11.270
61142W        W27573  16.674  37.873   0.961
61143W        W27574  21.547  25.118  12.160
61144W        W27575  27.104   3.421  14.061
61145W        W27576  17.851  17.826  11.070
61146W        W27577  41.069  12.102  14.883
61147W        W27578  16.049  17.544  13.771
61148W        W27579  44.432   0.773  12.031
61149W        W27580  18.205  43.489  12.159
61150W        W27581   4.713   7.249  14.883
61151W        W27582   6.230  36.904  13.879
61152W        W27583   5.350  29.547  11.131
61153W        W27584   2.864   0.751  13.893
61154W        W27585   1.890  40.000   0.457
61155W        W27586  12.137  19.063   1.781
61156W        W27587  24.573  20.724   2.658
61157W        W27588   1.890  24.307  14.348
61158W        W27589  14.756  34.529  14.749
61159W        W27590  24.029  38.361  10.269
61160W        W27591  42.191  26.041  14.275
61161W        W27592  18.251   8.662   4.381
61162W        W27593  36.402  21.679   4.087
61163W        W27594  12.123  39.403  11.431
61164W        W27595   8.756  37.436  13.123
61165W        W27596  39.904  26.032   1.535
61166W        W27597  21.568  17.121   2.712
61167W        W27598  25.467   3.244  11.214
61168W        W27599  23.176  27.450  10.452
61169W        W27600  42.464  19.708   2.737
61170W        W27601  33.268   4.907  12.935
61171W        W27602  12.597   3.900  14.078
61172W        W27603  41.755  33.409  13.774
61173W        W27604   5.358  24.936  13.760
61174W        W27605  31.993  36.879   1.147
61175W        W27606  22.264  16.617   0.507
61176W        W27607  33.540  26.160  12.515
61177W        W27608  36.634  26.066  11.637
61178W        W27609  25.687  30.978   3.676
61179W        W27610  18.188  39.411  13.468
61180W        W27611   5.999  18.282  13.594
61181W        W27612  41.324  30.206   4.116
61182W        W27613  41.445  10.948   2.754
61183W        W27614  40.495  10.211   4.601
61184W        W27615  20.851  12.188  13.346
61185W        W27616   5.324  30.465  14.338
61186W        W27617  31.485  24.918  10.828
61187W        W27618  43.144  33.181   1.316
61188W        W27619   8.980   2.381   4.518
61189W        W27620  21.361  35.993   1.233
61190W        W27621  39.015  18.692  14.832
61191W        W27622  11.225  19.519   2.655
61192W        W27623  32.068  33.410   4.074
61193W        W27624  16.369  25.217  14.695
61194W        W27625  26.408  22.630   2.192
61195W        W27626  37.213  18.672   4.059
61196W        W27627  24.135  23.227   0.867
61197W        W27628  41.979   0.504   2.095
61198W        W27629  31.100  40.782  14.992
61199W        W27630  15.168   3.161  12.205
61200W        W27631  12.296  32.399   4.701
61201W        W27632  23.223  37.124   4.642
61202W        W27633  21.641  10.042   3.229
61203W        W27634   8.859   8.120   1.207
61204W        W27635  16.325  43.098   3.291
61205W        W27636  44.696  32.668  11.114
61206W        W27637   1.675  13.534  13.365
61207W        W27638  42.508   0.482  11.026
61208W        W27639  26.594  24.859  13.038
61209W        W27640  35.114  12.832  10.682
61210W        W27641   3.931  30.598   1.436
61211W        W27642  40.519  25.966   3.808
61212W        W27643   5.429  20.839  12.075
61213W        W27644  32.796  11.380   2.122
61214W        W27645  42.884  15.646   4.232
61215W        W27646   4.311  25.265  13.039
61216W        W27647  26.043  37.848   1.284
61217W        W27648  34.324   8.886  14.814
61218W        W27649  26.812  26.406   2.035
61219W        W27650  38.520  39.544  13.332
61220W        W27651  17.097   7.691   3.170
61221W        W27652   6.850  27.770   1.258
61222W        W27653  38.072  23.659  12.960
61223W        W27654  11.693  44.549  12.068
61224W        W27655  32.456  32.678   4.495
61225W        W27656  28.142   5.367  12.419
61226W        W27657   2.241  22.093   2.799
61227W        W27658   3.175  17.970  12.016
61228W        W27659  36.472   2.233   1.947
61229W        W27660  17.727  20.118  14.025
61230W        W27661  29.527  32.227  14.960
61231W        W27662  31.816   5.451  14.967
61232W        W27663  14.073   3.123   1.744
61233W        W27664  23.458  35.168   3.634
61234W        W27665  18.667  22.585   0.326
61235W        W27666   3.295   2.440   2.006
61236W        W27667  27.953  28.829   1.503
61237W        W27668  26.195  21.323   4.853
61238W        W27669  31.603  41.467   0.712
61239W        W27670  20.785  14.412   0.974
61240W        W27671  34.152  40.492   4.638
61241W        W27672  18.753  25.993  14.206
61242W        W27673  29.492  33.823   3.238
61243W        W27674  35.873   2.017  12.100
61244W        W27675  31.861  37.610  13.402
61245W        W27676  38.173  19.250  12.845
61246W        W27677  40.055  42.330   3.776
61247W        W27678  41.801  18.760  11.572
61248W        W27679  10.740  35.433   0.897
61249W        W27680  25.766  37.040   4.547
61250W        W27681  43.402  27.141   3.854
61251W        W27682  44.870  34.776   3.595
61252W        W27683  34.311   9.945   0.788
61253W        W27684   6.655  44.713  13.977
61254W        W27685  15.566  26.589   1.344
61255W        W27686   4.476  35.028  13.013
61256W        W27687  42.796  12.834   2.159
61257W        W27688  43.466  17.259  14.256
61258W        W27689  28.774   4.746  13.054
61259W        W27690  21.227  41.621  10.251
61260W        W27691   8.152  40.551  12.981
61261W        W27692  11.220  18.800   1.823
61262W        W27693  10.167  39.256  11.179
61263W        W27694  36.876  24.939   0.897
61264W        W27695   0.250  20.040   0.263
61265W        W27696  22.798  25.195  12.742
61266W        W27697   6.918  44.811  11.570
61267W        W27698  41.854   5.856  11.149
61268W        W27699   5.228  12.914  12.178
61269W        W27700  32.340  30.194  10.742
61270W        W27701  44.587   7.867   4.545
61271W        W27702  16.163   1.287   2.650
61272W        W27703  21.511  30.650   0.263
61273W        W27704  34.126   0.506  13.601
61274W        W27705  14.380  39.540  12.120
61275W        W27706  36.108   3.647  13.376
61276W        W27707  44.949  43.040   3.107
61277W        W27708   0.534   7.439  13.912
61278W        W27709   0.198  20.671   1.439
61279W        W27710  37.417   2.438  11.190
61280W        W27711  38.585   1.713  10.633
61281W        W27712  18.467  44.985   4.580
61282W        W27713  16.801  16.774   2.272
61283W        W27714  24.641   0.492  14.503
61284W        W27715  37.949  16.553  12.151
61285W        W27716  20.985   4.453  10.658
61286W        W27717  41.875  28.020   2.713
61287W        W27718   0.716   6.916   1.635
61288W        W27719  13.847  35.903   3.383
61289W        W27720  18.946  22.095  12.583
61290W        W27721  40.056  44.653  13.581
61291W        W27722   4.409  38.490  13.631
61292W        W27723   9.696  40.399  13.895
61293W        W27724  35.466   6.793  12.499
61294W        W27725  31.934  13.526   1.831
61295W        W27726  36.644   3.319   3.335
61296W        W27727  16.353  15.991   2.635
61297W        W27728  17.076   9.410  12.094
61298W        W27729  40.034   5.216  13.812
61299W        W27730  17.014  21.708  11.550
61300W        W27731  10.484  20.188   0.745
61301W        W27732  18.461  44.890   2.754
61302W        W27733   0.363   4.985   2.875
61303W        W27734  41.502  31.265   3.060
61304W        W27735   0.755  35.425  13.028
61305W        W27736  14.707  24.685  12.433
61306W        W27737  23.396  30.238   0.237
61307W        W27738  33.324  44.201   1.919
61308W        W27739   5.831  13.224   3.622
61309W        W27740   5.727   4.815  14.409
61310W        W27741  37.343  42.638   1.777
61311W        W27742  20.282   9.949  14.559
61312W        W27743   4.806  40.081  10.964
61313W        W27744  27.422  23.782  11.203
61314W        W27745  37.848   1.902   3.057
61315W        W27746  18.806   4.368  13.579
61316W        W27747   0.295   0.322  10.851
61317W        W27748  44.841  26.458   1.504
61318W        W27749  19.615  23.976  12.111
61319W        W27750  40.289   6.414   2.732
61320W        W27751  40.395  19.711  12.627
61321W        W27752  35.847  44.587   2.775
61322W        W27753  39.756  35.378  12.566
61323W        W27754  24.632   3.724  12.047
61324W        W27755  28.528   6.245   0.937
61325W        W27756  19.672  22.739   1.699
61326W        W27757   1.905  41.784  12.601
61327W        W27758  31.099  14.170   3.779
61328W        W27759  39.556   3.258   4.031
61329W        W27760  31.259   6.205   0.845
61330W        W27761  17.624   3.152   3.969
61331W        W27762  18.527   7.394  11.983
61332W        W27763  23.161  13.100  13.892
61333W        W27764  26.146  27.434  12.640
61334W        W27765  18.148  19.045  13.958
61335W        W27766   2.320  37.557   1.006
61336W        W27767  16.806  31.371  12.971
61337W        W27768  43.121  11.533   4.127
61338W        W27769  35.703  33.703  12.112
61339W        W27770  44.268  27.376   4.018
61340W        W27771  40.411  15.575   2.198
61341W        W27772  28.046   5.745   2.477
61342W        W27773  41.483   2.106  14.362
61343W        W27774  36.834  16.442   0.442
61344W        W27775  31.492  13.836  14.476
61345W        W27776  23.190  44.927   1.267
61346W        W27777  26.716  23.160   0.514
61347W        W27778  12.210  44.791  11.954
61348W        W27779  24.509   8.436   3.306
61349W        W27780  17.190   6.689   0.015
61350W        W27781  24.719  38.032  13.970
61351W        W27782   9.592   9.830  14.305
61352W        W27783  29.920   8.082  10.738
61353W        W27784  42.889  40.894   4.690
61354W        W27785  12.933  25.550  14.016
61355W        W27786   7.777  12.193   1.691
61356W        W27787   8.767  38.870  11.043
61357W        W27788  41.027  38.523   3.619
61358W        W27789  29.568  26.063  11.122
61359W        W27790  26.169  30.419  12.367
61360W        W27791  20.974  19.425  12.518
61361W        W27792  28.903  33.638  10.582
61362W        W27793  14.629  22.950   4.971
61363W        W27794  43.797  29.085   2.356
61364W        W27795  28.437  23.721   3.277
61365W        W27796  20.625  32.689   2.707
61366W        W27797  35.826  32.998  10.573
61367W        W27798  17.917  40.844  14.446
61368W        W27799  17.877  26.715   0.278
61369W        W27800  41.381  30.477   0.443
61370W        W27801  10.864   6.395   4.549
61371W        W27802  35.535  21.538   2.172
61372W        W27803  13.047   1.130   4.103
61373W        W27804  13.891   4.743   2.545
61374W        W27805  40.803  37.039   3.236
61375W        W27806  29.219  21.274  14.982
61376W        W27807   9.855   8.650  13.746
61377W        W27808   0.249  14.706   2.261
61378W        W27809  16.312   0.814   2.497
61379W        W27810  23.515   9.710   3.393
61380W        W27811   3.523  25.701  11.965
61381W        W27812  37.889  19.090  13.293
61382W        W27813  10.987   9.372   2.736
61383W        W27814  14.252  19.376  11.516
61384W        W27815   8.808  11.135   4.044
61385W        W27816   3.668  21.185  11.956
61386W        W27817  30.033   6.049  12.825
61387W        W27818   5.527  21.085  11.631
61388W        W27819  36.100  25.139  12.938
61389W        W27820   4.753  41.479  12.568
61390W        W27821  35.988   9.625   3.202
61391W        W27822  14.369   0.179   3.979
61392W        W27823  12.938  29.522   3.209
61393W        W27824  26.971  37.508   3.060
61394W        W27825  24.047  44.863   3.755
61395W        W27826  19.331  20.224   4.906
61396W        W27827  44.249  42.849  11.542
61397W        W27828  36.269  23.663   2.383
61398W        W27829  38.712   6.584   5.107
61399W        W27830  37.415  26.107   0.764
61400W        W27831   2.759  23.138   1.709
61401W        W27832  12.358  27.186  12.936
61402W        W27833  25.595  34.984   2.890
61403W        W27834  39.100  28.659  12.194
61404W        W27835  17.141  16.508   3.692
61405W        W27836  18.164  25.482   4.835
61406W        W27837  21.701   5.395   1.853
61407W        W27838  17.708  30.123   4.454
61408W        W27839  27.630   7.437   0.353
61409W        W27840  38.450  29.830  11.024
61410W        W27841  39.294  36.053   3.205
61411W        W27842  40.272  40.067  13.346
61412W        W27843  33.774  27.546  11.623
61413W        W27844   2.953  29.363   1.994
61414W        W27845  40.626  32.044  12.524
61415W        W27846  16.323  31.524  11.717
61416W        W27847   3.418   1.051  11.207
61417W        W27848  17.331  22.259  11.108
61418W        W27849   0.454  25.233  10.710
61419W        W27850  32.456  44.992   3.845
61420W        W27851   9.216  19.244   0.118
61421W        W27852  20.652   7.035   2.347
61422W        W27853   8.446  41.127  13.568
61423W        W27854  27.990   7.614  12.832
61424W        W27855  25.557   8.204  13.903
61425W        W27856  43.926   2.921   0.528
61426W        W27857  31.585  12.132  11.068
61427W        W27858   5.913  29.336  13.880
61428W        W27859  30.589   4.155  10.914
61429W        W27860   1.472   0.894  11.957
61430W        W27861   8.899  22.384  13.504
61431W        W27862   3.663  39.449   0.543
61432W        W27863  10.482   6.233   2.843
61433W        W27864  36.219  21.271   3.357
61434W        W27865  33.599  43.190   9.948
61435W        W27866  37.026  16.657  11.131
61436W        W27867  33.908  30.512  12.329
61437W        W27868  41.371  35.135   0.804
61438W        W27869  26.578  16.250   3.302
61439W        W27870  34.106  24.810  14.301
61440W        W27871  34.732   9.054   4.815
61441W        W27872  44.314  40.259  10.973
61442W        W27873  24.736  37.270   3.450
61443W        W27874  42.937  12.395  14.220
61444W        W27875  10.409  32.561  13.488
61445W        W27876  12.040  34.753  11.014
61446W        W27877  37.185  43.835  11.927
61447W        W27878  14.176   5.219   1.805
61448W        W27879   9.179  14.339   4.134
61449W        W27880  14.747   0.747  12.457
61450W        W27881  21.191  11.031   0.246
61451W        W27882  15.784  39.899  11.217
61452W        W27883  14.100  10.127   1.507
61453W        W27884  11.109  43.976  14.907
61454W        W27885  35.296  24.891  10.838
61455W        W27886  17.311  18.100   4.522
61456W        W27887  12.304   3.643   2.852
61457W        W27888  24.135  19.935  12.072
61458W        W27889  17.023  21.924   5.073
61459W        W27890  18.189  26.661  13.542
61460W        W27891  40.455  44.914  13.846
61461W        W27892   6.344  16.756   0.846
61462W        W27893  33.267  28.928   1.466
61463W        W27894  10.311  35.135   3.119
61464W        W27895   0.446  22.228  11.646
61465W        W27896  26.251  17.629  11.971
61466W        W27897   5.857   1.228   0.516
61467W        W27898  13.500  26.243   3.594
61468W        W27899  30.452  25.533   2.366
61469W        W27900  17.934  42.334  10.768
61470W        W27901   6.343  38.683   4.580
61471W        W27902   4.940  37.947   4.496
61472W        W27903  18.514  40.963  12.423
61473W        W27904   4.723  38.288  14.188
61474W        W27905  23.138  31.700   0.541
61475W        W27906  35.438   5.119   3.181
61476W        W27907  15.642  28.913  14.677
61477W        W27908  42.699  42.960   5.022
61478W        W27909   5.213  37.641  13.004
61479W        W27910  40.845  36.613   4.376
61480W        W27911   1.965   0.647  14.583
61481W        W27912  31.491  38.595   2.796
61482W        W27913  33.595  39.109   0.390
61483W        W27914  32.984  36.498   0.224
61484W        W27915  24.511   5.126  10.690
61485W        W27916  25.893  35.794  10.332
61486W        W27917  42.024  10.259  14.287
61487W        W27918   4.170  20.013  12.421
61488W        W27919  16.170  25.190   3.285
61489W        W27920  16.745  10.268  10.587
61490W        W27921  17.494  31.603   1.382
61491W        W27922  16.348   7.708   0.707
61492W        W27923  38.910  40.663  14.882
61493W        W27924   7.595  44.901   4.252
61494W        W27925   0.871  29.854  13.079
61495W        W27926  32.851  32.540  11.195
61496W        W27927   6.077  16.347   3.207
61497W        W27928   1.835  18.564   3.835
61498W        W27929   9.939  22.975  14.545
61499W        W27930   5.701  33.679   0.314
61500W        W27931  25.450  29.125   9.803
61501W        W27932  16.817   4.280  13.712
61502W        W27933  20.445   2.031   0.861
61503W        W27934  20.699  44.758   1.863
61504W        W27935   2.374  41.012  12.488
61505W        W27936  43.357  29.842   2.024
61506W        W27937  38.760  43.176   4.686
61507W        W27938  27.892  15.285   1.562
61508W        W27939  35.172  39.232   5.296
61509W        W27940  18.971   8.322  12.444
61510W        W27941   8.323  44.329   0.395
61511W        W27942   7.220  10.553   4.947
61512W        W27943  40.242   3.357  11.951
61513W        W27944   2.869  22.273  12.562
61514W        W27945  28.208   5.155  14.379
61515W        W27946  35.659  27.398   1.308
61516W        W27947   9.868   2.965   2.618
61517W        W27948  42.555  27.935   3.815
61518W        W27949  18.960  44.461   1.959
61519W        W27950  28.013  39.893  12.977
61520W        W27951  19.760  25.408  14.867
61521W        W27952  29.379   1.081   3.479
61522W        W27953  33.841  21.221  14.934
61523W        W27954  43.208  24.763  10.165
61524W        W27955  18.052  31.972  14.347
61525W        W27956   0.882  35.637  12.574
61526W        W27957  17.514   6.294  14.952
61527W        W27958   6.686   8.827   4.074
61528W        W27959  11.260  39.296  14.442
61529W        W27960  16.065  42.015   4.214
61530W        W27961  36.833   7.039   4.149
61531W        W27962  20.292  21.160   1.204
61532W        W27963   3.447   0.363  10.359
61533W        W27964  10.792   8.748  13.881
61534W        W27965  16.232  40.891  11.725
61535W        W27966  27.670  17.220   0.088
61536W        W27967   2.172  25.874   3.720
61537W        W27968  29.256  11.274  12.811
61538W        W27969   6.493  43.709   4.003
61539W        W27970  24.719  15.863   2.903
61540W        W27971  26.406  12.243   1.177
61541W        W27972  23.076  39.422   1.986
61542W        W27973  19.007  33.630   4.655
61543W        W27974  22.521  11.833  11.060
61544W        W27975   6.758   0.532  14.267
61545W        W27976   7.255  15.320  10.579
61546W        W27977  24.574  31.840  12.086
61547W        W27978  28.081   0.687  14.451
61548W        W27979   1.423   3.574   1.948
61549W        W27980  14.899  44.455   0.340
61550W        W27981   6.328   3.993   0.777
61551W        W27982   7.354  39.540   0.791
61552W        W27983  22.213  21.677  14.389
61553W        W27984  19.604   4.327   0.971
61554W        W27985  25.935   0.536  12.134
61555W        W27986  26.211  24.015  10.764
61556W        W27987   9.195  16.100   4.107
61557W        W27988  22.060  16.285   4.478
61558W        W27989   9.670  37.995   3.261
61559W        W27990  40.195   3.295  12.480
61560W        W27991   3.235  26.483  14.289
61561W        W27992  36.146   3.923   0.350
61562W        W27993   7.176  12.428   3.460
61563W        W27994  16.630  14.685   2.639
61564W        W27995  42.289   7.162   3.253
61565W        W27996  17.054  34.959  11.601
61566W        W27997  18.708  40.546   3.847
61567W        W27998  13.265  20.338   4.658
61568W        W27999  21.927  40.963   2.927
61569W        W28000  32.082  13.822  13.022
61570W        W28001  25.654   7.195  13.965
61571W        W28002  38.082  26.977   4.231
61572W        W28003  21.107  25.535  14.522
61573W        W28004  24.353   8.886  10.257
61574W        W28005   5.668  27.952   2.623
61575W        W28006   9.021  19.808  10.714
61576W        W28007  16.541  40.733   2.326
61577W        W28008  42.084  27.255   4.167
61578W        W28009   0.926  31.079   2.465
61579W        W28010  41.689  11.183  12.191
61580W        W28011  41.763  31.896  14.329
61581W        W28012  42.719  22.016  12.689
61582W        W28013  18.783  34.374   0.317
61583W        W28014  17.347  27.954   1.777
61584W        W28015  41.118  28.520  12.505
61585W        W28016  10.301  11.688  13.732
61586W        W28017  20.333  34.518  12.630
61587W        W28018   6.334  29.869  14.980
61588W        W28019  20.071  17.224  14.307
61589W        W28020  31.484  29.207  11.972
61590W        W28021  44.822  40.605   3.688
61591W        W28022  20.730  17.051  13.268
61592W        W28023  13.272  31.074   3.457
61593W        W28024  34.420  15.735  10.805
61594W        W28025  29.058  44.924   0.283
61595W        W28026  31.676  22.966   3.770
61596W        W28027  43.119  25.543  10.738
61597W        W28028   4.740  37.848  13.901
61598W        W28029   9.673  32.906  14.856
61599W        W28030  31.569  11.156  11.965
61600W        W28031  34.590  38.232   3.554
61601W        W28032  38.584  12.114  11.600
61602W        W28033  31.835   9.366   0.892
61603W        W28034  30.473  34.843  12.034
61604W        W28035   1.165  34.598   4.071
61605W        W28036  25.476  39.606   3.206
61606W        W28037  12.890  40.473   1.291
61607W        W28038  31.328  20.294   0.887
61608W        W28039  11.850  22.687  14.117
61609W        W28040  19.489  20.586   1.266
61610W        W28041  13.865  18.774  14.222
61611W        W28042  16.455   1.036   3.411
61612W        W28043  33.558   8.051  13.608
61613W        W28044  42.423  16.356  10.670
61614W        W28045  25.284  38.802   0.760
61615W        W28046  10.950  23.887  13.443
61616W        W28047  13.054  18.768  13.336
61617W        W28048  28.629   9.948   5.418
61618W        W28049  28.665  20.089   1.285
61619W        W28050  42.890  10.260   1.426
61620W        W28051  26.608  15.818  14.859
61621W        W28052  39.331  42.855   1.174
61622W        W28053  20.785  19.917   9.794
61623W        W28054  16.720  42.262  11.512
61624W        W28055  41.596  14.538   2.798
61625W        W28056  44.363  27.788   3.069
61626W        W28057  12.778  21.011  14.357
61627W        W28058  34.322  22.074  10.630
61628W        W28059  37.914  43.042  14.335
61629W        W28060   7.523   7.466   2.195
61630W        W28061  26.680  29.630  13.408
61631W        W28062  39.726  35.782  12.129
61632W        W28063  10.549  34.352   9.943
61633W        W28064  26.180  10.724  12.089
61634W        W28065   2.667  16.852  11.329
61635W        W28066   1.426  18.315  14.343
61636W        W28067  28.678   5.369  11.471
61637W        W28068  13.355  25.628   2.216
61638W        W28069  12.696   2.555   3.395
61639W        W28070   9.192  30.293  12.779
61640W        W28071  15.111  44.912   4.541
61641W        W28072  34.355  37.025   4.133
61642W        W28073  23.517  33.642  11.066
61643W        W28074  19.514  17.777   2.311
61644W        W28075  11.052  30.593   5.010
61645W        W28076  13.789  17.667  13.332
61646W        W28077  11.534  44.084  13.957
61647W        W28078  32.406  22.649  10.408
61648W        W28079  42.916  24.028   3.144
61649W        W28080  34.260  40.877  13.875
61650W        W28081  36.937  14.609  10.549
61651W        W28082  39.286  11.384   1.219
61652W        W28083  22.796  28.846  11.111
61653W        W28084  25.688   8.932  10.441
61654W        W28085  44.079  41.215   0.818
61655W        W28086  26.402  20.198   4.099
61656W        W28087  36.025  13.787  12.541
61657W        W28088  23.555  35.855  13.526
61658W        W28089  27.274   7.673   4.567
61659W        W28090   4.272   9.062  10.589
61660W        W28091  13.777  19.503   3.720
61661W        W28092  26.817   9.736   1.812
61662W        W28093  43.321  22.755   3.842
61663W        W28094  26.557   2.157  10.451
61664W        W28095  12.038  22.824  11.442
61665W        W28096  40.346   5.034  13.424
61666W        W28097  30.087  16.850   4.282
61667W        W28098  10.303   6.860  10.968
61668W        W28099   2.101  24.109   1.015
61669W        W28100  27.196  10.848   4.620
61670W        W28101  23.020  16.167   0.223
61671W        W28102  12.556  13.757  11.129
61672W        W28103  35.420  31.596   1.815
61673W        W28104  25.168  37.664   1.850
61674W        W28105  35.618  17.480   1.177
61675W        W28106  37.976  14.061   2.846
61676W        W28107  44.474   0.200  11.215
61677W        W28108  13.888  42.716   2.436
61678W        W28109   9.780   6.452  13.373
61679W        W28110  11.909  20.794   3.282
61680W        W28111  32.848  37.383   0.758
61681W        W28112  42.371  12.931  12.950
61682W        W28113  18.750  37.047  14.468
61683W        W28114  35.514   7.694  11.451
61684W        W28115  12.653  28.272   4.062
61685W        W28116  36.831  32.879  13.931
61686W        W28117  28.426  12.549  14.004
61687W        W28118  15.069   3.135  10.577
61688W        W28119  36.879   5.441  12.535
61689W        W28120  35.072  35.888   4.437
61690W        W28121  25.141   4.225  13.414
61691W        W28122  10.630  26.562   4.100
61692W        W28123  29.446  27.797  14.358
61693W        W28124  12.591  34.706   2.771
61694W        W28125  13.353  11.091  12.523
61695W        W28126  16.502  38.821   1.188
61696W        W28127   3.451   9.870   0.498
61697W        W28128  17.237  27.111   3.690
61698W        W28129  38.900   2.928   4.143
61699W        W28130  18.644  18.759  14.321
61700W        W28131  13.358   3.360   2.280
61701W        W28132  32.423  33.668   2.381
61702W        W28133  42.459  14.284   4.816
61703W        W28134  36.524   6.857  12.121
61704W        W28135  38.336  25.682  11.428
61705W        W28136   6.853  23.401  10.680
61706W        W28137  28.906  22.288  11.168
61707W        W28138   8.023  34.965  13.551
61708W        W28139   4.308   3.394   4.138
61709W        W28140  26.561  40.809   2.765
61710W        W28141  18.117   3.963  10.233
61711W        W28142  23.758  19.707   3.237
61712W        W28143   4.716   4.786   0.719
61713W        W28144  29.161  29.209   4.629
61714W        W28145  17.260  39.891   0.696
61715W        W28146  43.864  37.965  13.941
61716W        W28147  19.646  33.420  12.769
61717W        W28148  22.258  15.760   0.479
61718W        W28149  24.189  41.921   3.595
61719W        W28150  17.756   1.238   1.923
61720W        W28151  35.458   8.682  12.431
61721W        W28152  32.348   4.260  12.035
61722W        W28153   5.350  30.992  12.515
61723W        W28154  41.065  44.865  11.347
61724W        W28155  11.759  22.243   4.905
61725W        W28156   4.938  28.492  13.051
61726W        W28157  20.208  40.144  14.395
61727W        W28158  32.353  35.565  13.955
61728W        W28159  10.067  20.181   2.189
61729W        W28160  26.989  34.086  12.964
61730W        W28161  43.963  25.779   0.700
61731W        W28162   3.949  16.179  10.343
61732W        W28163   9.165  20.244   3.402
61733W        W28164  28.566  44.656  13.392
61734W        W28165  21.130  17.310   2.265
61735W        W28166  16.699   4.192   3.627
61736W        W28167   5.209  34.677  13.746
61737W        W28168  25.595  23.978  12.901
61738W        W28169  24.534   8.335   4.159
61739W        W28170  10.707  37.855  14.918
61740W        W28171  25.219  10.846  14.383
61741W        W28172  16.809  36.961   1.042
61742W        W28173   2.302  24.529   2.613
61743W        W28174  26.893  13.113   4.345
61744W        W28175  35.121  37.598  13.470
61745W        W28176  23.445  37.412  12.089
61746W        W28177  18.777  26.855   2.302
61747W        W28178   6.273   6.371   1.918
61748W        W28179  19.773   1.553   0.285
61749W        W28180   1.080  36.931  12.783
61750W        W28181   2.010  32.604   1.318
61751W        W28182  43.436  17.721  11.097
61752W        W28183  14.084  36.411  12.104
61753W        W28184   1.284  24.529   1.366
61754W        W28185  26.140   2.924   4.861
61755W        W28186  37.308  14.790   4.495
61756W        W28187  26.480  21.653   3.428
61757W        W28188  41.836  34.099  13.273
61758W        W28189  18.669   4.985  10.637
61759W        W28190  44.365  25.144  10.184
61760W        W28191  33.945  31.005  12.094
61761W        W28192   2.225   0.988   3.224
61762W        W28193  44.354   2.942   3.674
61763W        W28194  14.771  43.722   4.424
61764W        W28195  31.999  29.986   3.709
61765W        W28196  24.190   0.984  13.447
61766W        W28197   2.320   2.816  14.248
61767W        W28198   3.035  28.457   1.384
61768W        W28199  18.972   9.174   0.277
61769W        W28200   7.861   9.226  11.258
61770W        W28201   8.805  17.773   4.151
61771W        W28202  29.925  43.804  10.877
61772W        W28203  21.017  34.547  13.969
61773W        W28204  31.236   5.326   0.814
61774W        W28205  12.664  34.466   4.607
61775W        W28206  22.572  29.499   0.756
61776W        W28207  10.632  28.261   4.694
61777W        W28208  22.269  16.593   3.660
61778W        W28209  25.992  31.425  14.456
61779W        W28210  36.464  19.170  12.080
61780W        W28211  36.222   6.156   3.598
61781W        W28212  35.321  28.533   3.316
61782W        W28213  34.394  35.450   4.730
61783W        W28214  27.619  32.179  11.739
61784W        W28215  13.968  25.637  12.079
61785W        W28216  20.526  26.616  10.617
61786W        W28217   7.740  31.079  12.078
61787W        W28218   1.928  42.159   0.795
61788W        W28219  43.281  22.214  13.958
61789W        W28220  36.574  18.665  11.247
61790W        W28221  30.588  22.980   1.396
61791W        W28222  37.554  17.099  13.289
61792W        W28223   2.404  41.902  11.952
61793W        W28224   2.841   9.701  10.811
61794W        W28225  30.620  43.732   0.898
61795W        W28226  20.267   0.274   1.832
61796W        W28227   0.969  40.583   1.375
61797W        W28228   7.373   4.343  11.799
61798W        W28229  35.404  32.728   0.257
61799W        W28230  24.301  29.463  12.541
61800W        W28231   2.274  31.357   1.067
61801W        W28232  26.168  12.504   3.168
61802W        W28233   8.050  35.701   4.129
61803W        W28234  22.167  24.069  14.034
61804W        W28235  29.674   2.433   1.763
61805W        W28236  34.536  25.452  12.231
61806W        W28237  36.541  20.126   0.283
61807W        W28238   5.735  32.478  12.408
61808W        W28239  32.134  34.657   0.125
61809W        W28240  26.435  38.613   3.402
61810W        W28241  25.468  39.368   4.548
61811W        W28242  27.107   6.945  13.958
61812W        W28243  33.958  44.503  11.541
61813W        W28244  34.047  39.466  13.825
61814W        W28245  15.968   3.291   2.945
61815W        W28246  10.825  35.642   0.424
61816W        W28247  11.687  36.814   4.007
61817W        W28248  25.912  11.601  13.193
61818W        W28249  42.952  35.434  11.224
61819W        W28250  19.135  39.518  12.492
61820W        W28251  17.089  10.737  10.685
61821W        W28252  35.440   8.830  13.568
61822W        W28253  19.230  23.317   4.569
61823W        W28254  20.995  15.670   4.290
61824W        W28255  28.032  39.719   2.871
61825W        W28256  17.080   1.978   2.859
61826W        W28257  38.777  14.846   3.393
61827W        W28258  23.402  13.855   3.728
61828W        W28259  15.076  32.599   4.208
61829W        W28260  21.184   6.730   5.096
61830W        W28261   9.675  10.563   2.538
61831W        W28262  39.572  43.203   3.097
61832W        W28263   0.864   5.833  12.043
61833W        W28264  36.488  37.038  13.564
61834W        W28265  22.074   0.509   4.582
61835W        W28266  17.741  16.717  12.743
61836W        W28267   7.187  37.499  14.020
61837W        W28268  39.013  39.089   2.242
61838W        W28269  29.127  14.269   1.379
61839W        W28270  15.781  13.343   2.302
61840W        W28271  31.599  32.389   3.199
61841W        W28272   5.586  42.240  12.189
61842W        W28273  16.267   3.884   3.985
61843W        W28274  36.874  20.661  13.224
61844W        W28275   4.945  25.379  13.453
61845W        W28276  41.017  31.125  12.066
61846W        W28277  41.508  22.095   4.509
61847W        W28278  32.140   6.121  13.369
61848W        W28279  12.816  27.945  13.883
61849W        W28280  29.380  38.948   2.223
61850W        W28281  26.060  20.751  14.580
61851W        W28282  32.626  26.617   3.644
61852W        W28283  29.524  44.318   0.403
61853W        W28284  21.267  43.826  13.691
61854W        W28285  44.430  25.402  12.585
61855W        W28286  41.546  21.097   4.252
61856W        W28287   9.543   3.766   0.350
61857W        W28288  33.856   7.598  13.619
61858W        W28289  20.099  10.135   4.546
61859W        W28290  28.967  15.616   3.545
61860W        W28291  33.136   7.767  10.421
61861W        W28292  37.778   3.713   3.293
61862W        W28293  37.647  24.489  14.261
61863W        W28294   7.343  27.702  11.605
61864W        W28295   0.146   7.893   3.161
61865W        W28296  13.277  28.712   1.325
61866W        W28297  38.568  12.702   0.165
61867W        W28298  25.099  14.167  12.420
61868W        W28299   6.937  25.450   1.787
61869W        W28300   9.002  31.937  13.361
61870W        W28301  19.877  23.765  13.429
61871W        W28302  12.235  20.124   2.836
61872W        W28303  34.222  27.704   1.780
61873W        W28304  23.681  11.853  13.812
61874W        W28305  28.338  10.708   9.970
61875W        W28306  42.763  35.636   0.493
61876W        W28307  14.537  21.814   0.367
61877W        W28308  19.283   9.613   1.394
61878W        W28309  28.005   2.037   0.795
61879W        W28310  30.031  22.285  12.923
61880W        W28311  42.257  21.501   3.315
61881W        W28312   9.240   0.881   0.829
61882W        W28313   9.615  33.208  11.136
61883W        W28314   9.235  43.228   4.604
61884W        W28315   6.647  18.510   3.671
61885W        W28316  42.145  12.214  13.919
61886W        W28317  17.764  16.536   4.258
61887W        W28318  14.721   2.993   0.513
61888W        W28319  23.125  19.212  11.737
61889W        W28320   0.642  26.492  10.424
61890W        W28321  44.266   6.324   2.403
61891W        W28322  10.281   4.745   3.830
61892W        W28323  11.344  27.571   4.174
61893W        W28324  16.197   9.296  12.619
61894W        W28325  44.041   4.828  11.621
61895W        W28326  14.594   1.384   3.018
61896W        W28327  13.638  25.157   2.027
61897W        W28328  38.179  25.279  12.994
61898W        W28329  26.607   2.351   0.826
61899W        W28330  24.335   9.893  14.996
61900W        W28331  35.399   8.230  13.257
61901W        W28332   0.821  38.151   3.067
61902W        W28333   1.784   0.593   3.936
61903W        W28334  12.397  25.184  13.449
61904W        W28335  19.297   7.374  12.443
61905W        W28336  14.334  33.134   4.244
61906W        W28337  31.110   6.295  12.504
61907W        W28338  18.797  32.446   3.771
61908W        W28339   6.313  22.538  12.307
61909W        W28340  40.381   8.707  13.342
61910W        W28341  34.567  26.098   1.952
61911W        W28342   9.202  13.558   1.440
61912W        W28343  25.866   2.366  11.449
61913W        W28344  34.936  22.966  13.945
61914W        W28345  43.095  19.014   1.936
61915W        W28346   6.044  17.342  12.279
61916W        W28347  22.994  32.660  11.948
61917W        W28348  41.807  37.525   3.857
61918W        W28349  28.440  30.261  13.811
61919W        W28350  35.402  18.894   4.613
61920W        W28351  12.246  36.097  12.100
61921W        W28352   5.835  14.336   4.603
61922W        W28353  37.116  38.815   3.315
61923W        W28354  29.313  44.757  13.795
61924W        W28355  41.527  27.748  12.503
61925W        W28356  32.333  40.060  12.502
61926W        W28357  12.216  34.134  13.303
61927W        W28358  29.504  37.341   4.608
61928W        W28359  42.043   9.622  10.712
61929W        W28360  37.446  35.401   3.556
61930W        W28361  20.132  39.038  14.378
61931W        W28362   6.795   9.243  12.551
61932W        W28363  31.609  36.030   1.669
61933W        W28364  15.661   6.235   4.981
61934W        W28365  24.757  44.959   4.391
61935W        W28366  43.428  21.035  10.719
61936W        W28367   9.803  21.686  11.062
61937W        W28368  12.759  33.183  10.602
61938W        W28369  40.949  26.624  13.411
61939W        W28370   9.694  14.127  14.478
61940W        W28371  32.464   2.722   1.224
61941W        W28372  40.875   1.383  11.314
61942W        W28373  28.508  34.323   4.584
61943W        W28374  18.977  18.018  12.543
61944W        W28375   8.830  37.190   0.927
61945W        W28376   0.711  24.459  11.186
61946W        W28377  36.906  13.099  13.365
61947W        W28378   5.717   8.883  13.012
61948W        W28379  21.475  27.598   4.742
61949W        W28380  34.572   7.988  11.363
61950W        W28381   2.607   2.991   3.635
61951W        W28382  11.120  29.926  12.883
61952W        W28383  22.741  15.674   1.418
61953W        W28384  17.586   5.834   0.185
61954W        W28385  26.479  25.070  10.608
61955W        W28386  43.839  16.035   1.416
61956W        W28387  23.547  32.541  13.105
61957W        W28388  10.283  40.507  10.622
61958W        W28389  19.903   6.076   4.795
61959W        W28390  15.869  36.049  13.524
61960W        W28391  19.686  37.806  14.956
61961W        W28392   2.970  37.101   1.982
61962W        W28393  15.254   6.561  10.367
61963W        W28394  35.749  20.686   2.464
61964W        W28395  27.216  12.370  13.893
61965W        W28396  35.282  29.419   3.192
61966W        W28397  39.413  41.519   2.843
61967W        W28398  41.618  25.806  13.440
61968W        W28399  17.640   1.960  12.868
61969W        W28400   0.782  24.245   1.202
61970W        W28401  24.991  44.337   1.616
61971W        W28402  37.229  29.832   2.738
61972W        W28403   2.613  35.989  10.719
61973W        W28404  19.333  13.605   1.852
61974W        W28405  14.093   1.696   0.746
61975W        W28406   3.786   1.819  12.015
61976W        W28407  39.500   1.712  13.227
61977W        W28408  23.473  31.496   3.229
61978W        W28409   9.821  33.427  13.869
61979W        W28410   3.694  27.719  12.601
61980W        W28411  41.378  17.162   4.713
61981W        W28412  44.756  12.097  14.842
61982W        W28413  39.357  29.453  13.335
61983W        W28414   2.192   5.360  12.142
61984W        W28415  44.949  20.115   4.571
61985W        W28416  26.570  11.251   0.267
61986W        W28417  34.077  36.546  11.216
61987W        W28418  30.901  13.253   0.873
61988W        W28419  15.117  23.580   2.914
61989W        W28420   3.780  24.449   1.963
61990W        W28421  40.240  17.322  13.533
61991W        W28422  21.171  25.626  10.582
61992W        W28423  40.360  36.002   4.536
61993W        W28424  41.941  44.947  12.594
61994W        W28425  30.025  22.079  14.230
61995W        W28426  13.148   9.142  12.078
61996W        W28427  33.648  27.634  14.441
61997W        W28428   2.519  22.698   5.098
61998W        W28429   0.897   4.312   2.742
61999W        W28430  19.845   9.052  12.532
62000W        W28431  41.707  37.894   4.844
62001W        W28432  21.964  16.565  11.772
62002W        W28433  17.842  40.920   3.481
62003W        W28434   9.667  35.747  12.631
62004W        W28435  27.059  38.653   2.212
62005W        W28436  31.224  35.364  11.293
62006W        W28437  38.170  13.868   2.392
62007W        W28438  12.220   5.896   4.585
62008W        W28439  39.290  11.133   3.141
62009W        W28440  15.188  32.668   0.598
62010W        W28441  15.100  18.901   0.216
62011W        W28442  29.140  10.176   2.682
62012W        W28443  16.187  28.730   3.253
62013W        W28444  36.794  17.211   0.948
62014W        W28445  39.132  34.966   0.917
62015W        W28446   2.920  22.169  11.724
62016W        W28447  32.223  14.121   3.312
62017W        W28448  15.667  20.005   0.857
62018W        W28449   6.568  36.504  14.465
62019W        W28450  35.409   9.306   1.894
62020W        W28451  13.055  23.795   9.729
62021W        W28452  19.756  27.394   3.294
62022W        W28453  43.280  44.853   4.616
62023W        W28454   7.986  41.942   2.493
62024W        W28455  14.236   2.306  10.452
62025W        W28456  19.460  21.481  12.723
62026W        W28457  41.987  18.121   5.044
62027W        W28458  35.488  18.119  14.368
62028W        W28459  25.568  22.676  13.501
62029W        W28460  14.404  34.908  13.010
62030W        W28461  26.904   4.640   4.969
62031W        W28462  10.870   2.826   3.248
62032W        W28463  15.632  42.804   0.950
62033W        W28464  28.738  31.052   0.364
62034W        W28465  44.721  35.882   4.875
62035W        W28466  38.753   9.665   1.515
62036W        W28467  14.368  44.038  10.266
62037W        W28468   9.313  41.365  14.839
62038W        W28469  44.321  33.192   4.128
62039W        W28470  18.654  13.093  13.948
62040W        W28471  10.845   4.246   0.377
62041W        W28472  20.160  37.267  13.536
62042W        W28473   9.173  28.051  10.131
62043W        W28474  15.267  35.491   0.811
62044W        W28475  11.411  40.274   2.289
62045W        W28476  33.339  42.898   0.914
62046W        W28477  24.955  26.532   3.673
62047W        W28478  16.874  40.860   1.927
62048W        W28479   1.779  35.703   0.939
62049W        W28480  31.235  27.566   4.371
62050W        W28481   5.839   0.485  14.407
62051W        W28482   7.374  36.008  10.318
62052W        W28483   0.226  22.643   4.797
62053W        W28484  25.159  32.992   4.220
62054W        W28485  35.500  15.224  11.902
62055W        W28486   8.736  24.021  12.060
62056W        W28487  31.518  15.103   2.721
62057W        W28488  34.585  44.017   3.281
62058W        W28489  36.279  41.750  12.785
62059W        W28490  15.334  37.639  14.039
62060W        W28491  30.634  14.936   2.530
62061W        W28492  32.638   9.550  13.428
62062W        W28493  34.940  34.768  11.172
62063W        W28494  19.994  12.170   2.773
62064W        W28495  24.747  36.330   0.812
62065W        W28496   9.895  40.752   3.139
62066W        W28497  15.893  19.207  12.497
62067W        W28498  28.951  27.584  12.015
62068W        W28499   5.785   8.924   4.576
62069W        W28500  22.226   4.312   2.283
62070W        W28501   9.853   1.437  10.737
62071W        W28502  29.092  19.280   3.265
62072W        W28503  42.255   6.380  11.658
62073W        W28504   7.695  29.091  10.796
62074W        W28505  24.950  38.964   2.610
62075W        W28506  28.373   7.876   2.538
62076W        W28507  29.174  27.030  11.251
62077W        W28508  24.143  36.404  13.609
62078W        W28509  13.086  27.317  14.988
62079W        W28510  12.095  34.358  12.604
62080W        W28511   2.746  33.984  12.902
62081W        W28512  18.818  30.026   0.288
62082W        W28513  22.985  12.220   1.922
62083W        W28514   0.745  15.604  13.484
62084W        W28515  43.917  19.729   4.946
62085W        W28516   1.269   6.467  12.453
62086W        W28517   9.293  30.987  13.296
62087W        W28518   2.878  12.919   2.720
62088W        W28519  32.988  20.441  12.099
62089W        W28520  30.161  39.402   0.196
62090W        W28521   1.805  13.402   1.315
62091W        W28522  11.329  25.050   2.208
62092W        W28523  19.151  29.350   0.291
62093W        W28524  11.135  15.158   3.738
62094W        W28525  20.904   9.877  13.047
62095W        W28526  37.765  29.682  11.931
62096W        W28527   1.967  35.445   0.435
62097W        W28528   0.344  25.626   0.466
62098W        W28529  13.740   9.261  13.123
62099W        W28530  39.554  27.466  13.893
62100W        W28531  18.907  43.342  10.447
62101W        W28532  19.806  35.658   2.662
62102W        W28533   3.979  28.218   4.536
62103W        W28534  40.575  12.658   5.047
62104W        W28535  34.185  22.587   2.297
62105W        W28536  12.847   6.644   0.807
62106W        W28537   1.953  13.640  12.907
62107W        W28538  38.573  25.663   4.725
62108W        W28539  42.058  36.870  14.407
62109W        W28540  33.595  30.785   4.058
62110W        W28541  35.548  29.077   1.587
62111W        W28542  22.269  15.791  14.591
62112W        W28543  16.316  32.574  14.620
62113W        W28544  10.927  40.086   2.363
62114W        W28545  10.629  20.804   2.874
62115W        W28546   8.725  30.813   4.416
62116W        W28547  35.914  41.037   3.701
62117W        W28548  43.227   1.535   2.930
62118W        W28549  35.110  22.974   1.148
62119W        W28550   3.344  25.131   1.930
62120W        W28551   8.206   0.445  14.360
62121W        W28552  36.379  22.262  14.458
62122W        W28553  34.453  36.444   2.943
62123W        W28554  37.390  44.838   2.991
62124W        W28555  44.712  40.984  13.586
62125W        W28556   2.721   7.901  12.102
62126W        W28557   2.485  20.202   3.987
62127W        W28558  11.996  16.008   4.815
62128W        W28559  36.303   4.709  14.135
62129W        W28560   6.646   5.673  14.855
62130W        W28561  36.674  31.949   3.140
62131W        W28562  34.332  28.687  13.992
62132W        W28563  10.671  36.283  14.751
62133W        W28564   1.905  27.379   1.707
62134W        W28565   5.766  11.339   2.629
62135W        W28566  18.678   9.827   0.718
62136W        W28567  38.543  24.922  14.472
62137W        W28568   3.408  10.051  10.908
62138W        W28569  29.843  41.266  13.376
62139W        W28570  10.194  42.095   4.144
62140W        W28571  21.616   1.526   3.154
62141W        W28572  34.073  29.208   4.647
62142W        W28573  27.938  24.017  14.969
62143W        W28574  16.813   9.842  14.369
62144W        W28575   2.645  30.928   3.146
62145W        W28576   7.641  23.936  13.265
62146W        W28577   0.340  26.660  10.822
62147W        W28578  30.376  18.587  11.247
62148W        W28579  39.368  34.565  13.258
62149W        W28580  29.649   2.636  12.931
62150W        W28581   3.762  39.431  13.440
62151W        W28582  23.398   0.694   4.517
62152W        W28583  20.642  26.178  14.480
62153W        W28584  21.084  12.840   1.468
62154W        W28585  27.117   9.112  12.828
62155W        W28586  12.303  21.567  10.630
62156W        W28587  16.207  31.716  12.177
62157W        W28588  20.169  16.670   4.377
62158W        W28589   0.317  40.976  13.375
62159W        W28590  37.839  16.257   4.235
62160W        W28591  28.699  18.318  13.805
62161W        W28592  42.571   3.433  11.648
62162W        W28593  10.008  22.653  10.514
62163W        W28594  32.529  15.320   3.850
62164W        W28595  11.739  16.829  13.817
62165W        W28596  24.227  35.862   2.302
62166W        W28597  33.931  33.652  14.320
62167W        W28598  38.858  41.390   3.539
62168W        W28599  28.058  17.832  14.280
62169W        W28600   0.758  10.363  11.602
62170W        W28601   9.367  42.322  14.363
62171W        W28602  28.782  44.812  12.923
62172W        W28603  41.422  40.114  11.447
62173W        W28604   9.197  15.621   0.647
62174W        W28605  27.442  21.432  11.979
62175W        W28606  24.132   4.852   0.654
62176W        W28607  15.971  36.163   2.390
62177W        W28608  29.389  24.779  14.473
62178W        W28609  20.322  10.550   4.330
62179W        W28610  22.688  17.896   4.259
62180W        W28611  25.231  44.170   2.808
62181W        W28612  28.039  24.953   2.378
62182W        W28613  18.136  26.147   3.797
62183W        W28614   5.895  35.391   0.879
62184W        W28615  18.616  40.899   2.829
62185W        W28616   6.842  33.888   2.860
62186W        W28617  29.100  36.939  13.465
62187W        W28618  36.846  36.522   4.250
62188W        W28619   7.901  35.611   0.770
62189W        W28620  14.209  36.051   1.737
62190W        W28621   1.965  26.172   4.080
62191W        W28622  10.672   0.283   3.606
62192W        W28623   8.332  33.116   3.360
62193W        W28624  10.038  22.552  13.980
62194W        W28625   7.522  40.595   2.417
62195W        W28626   2.856  18.608   0.438
62196W        W28627   0.835  39.199   3.078
62197W        W28628   0.645   8.348   1.368
62198W        W28629  17.656   4.875   3.086
62199W        W28630  26.536   9.682   0.026
62200W        W28631  27.553  39.626   1.188
62201W        W28632  42.904  20.529  12.425
62202W        W28633  27.938  10.404  10.144
62203W        W28634  28.986  22.831   2.247
62204W        W28635  24.522   5.320  14.586
62205W        W28636  38.028  20.173   0.890
62206W        W28637  23.162   2.301  14.071
62207W        W28638  12.565   4.810  12.086
62208W        W28639  24.412   8.082   3.708
62209W        W28640  22.589   1.150  14.091
62210W        W28641  38.855  22.668  14.772
62211W        W28642  35.518  43.467   1.469
62212W        W28643  34.403  30.937  12.905
62213W        W28644  25.737   1.538  10.754
62214W        W28645  23.522  32.440  10.804
62215W        W28646  41.540  40.532  13.748
62216W        W28647  38.427  19.103   1.408
62217W        W28648   1.000   7.438   1.432
62218W        W28649  14.234  24.718  14.531
62219W        W28650  13.427  32.572   1.787
62220W        W28651  35.406  36.930   1.240
62221W        W28652  27.038   2.023   0.051
62222W        W28653   1.024  42.319   4.888
62223W        W28654  40.683  39.746  10.718
62224W        W28655  26.832  20.266  14.449
62225W        W28656  32.069   0.675  14.730
62226W        W28657  38.159  25.956  12.990
62227W        W28658  20.436  24.591  14.275
62228W        W28659  26.193   6.234   0.898
62229W        W28660  42.326  27.062   1.657
62230W        W28661  22.088   2.515   0.541
62231W        W28662   6.506   1.810  11.769
62232W        W28663  38.187  19.810   4.247
62233W        W28664  20.967  30.538   4.722
62234W        W28665  21.177  31.593  14.692
62235W        W28666  18.672  15.937  13.449
62236W        W28667  30.267   5.342   2.373
62237W        W28668  44.025  19.278   3.325
62238W        W28669  38.406  25.601  13.803
62239W        W28670  32.462  31.515  12.415
62240W        W28671  22.912   5.767  14.925
62241W        W28672  31.097  10.853   2.034
62242W        W28673  25.760  43.741   2.798
62243W        W28674  30.687  32.374   3.263
62244W        W28675  18.138  40.329  11.562
62245W        W28676   4.960  32.114   2.181
62246W        W28677  14.621   0.248  14.959
62247W        W28678  38.491   7.457   4.898
62248W        W28679   0.017  11.326  13.774
62249W        W28680  29.763  17.568   1.618
62250W        W28681  29.779  32.544  13.021
62251W        W28682  25.227   0.031  12.886
62252W        W28683  16.588  11.119   5.826
62253W        W28684   3.333  44.752  13.368
62254W        W28685  35.669  39.982   0.856
62255W        W28686  17.033   5.748   3.207
62256W        W28687  21.711  33.240  13.981
62257W        W28688  33.301  42.417   0.221
62258W        W28689  24.077   2.074  10.675
62259W        W28690  27.175  13.414  11.186
62260W        W28691  23.179   4.250  12.954
62261W        W28692   3.464   2.002  13.843
62262W        W28693  43.973  44.240  13.048
62263W        W28694   4.835  20.140   3.829
62264W        W28695  39.337  40.028   2.509
62265W        W28696  22.663  24.569  14.189
62266W        W28697  11.918   4.265   4.558
62267W        W28698  42.490  22.678   1.334
62268W        W28699   0.082  37.907   1.300
62269W        W28700   4.625  38.831  13.281
62270W        W28701  24.202  24.586  13.385
62271W        W28702  32.598  38.416  11.526
62272W        W28703   2.525   3.213   0.527
62273W        W28704  10.105  31.577  13.609
62274W        W28705   3.677  13.547   3.530
62275W        W28706  41.756  43.357   4.668
62276W        W28707  37.165  32.516  11.617
62277W        W28708   7.419  35.098   3.306
62278W        W28709   3.498  34.347   3.292
62279W        W28710  38.750   5.907   2.310
62280W        W28711  36.953  32.974  11.616
62281W        W28712   5.200   2.503  11.989
62282W        W28713  31.066  33.141  13.114
62283W        W28714  36.322  17.580  14.055
62284W        W28715  43.297  31.354  12.834
62285W        W28716   2.306  21.993  14.300
62286W        W28717   1.750  14.860   2.276
62287W        W28718  23.761  10.513  12.040
62288W        W28719  20.136  36.750  13.579
62289W        W28720  33.028  44.482   3.719
62290W        W28721   7.803  19.361  13.060
62291W        W28722  18.289  18.245  13.338
62292W        W28723  16.205  16.902  11.935
62293W        W28724  24.236  34.158  11.505
62294W        W28725  32.908  18.036  11.558
62295W        W28726  29.648  22.972   2.419
62296W        W28727  11.122  18.527   0.155
62297W        W28728  28.528   6.846   3.725
62298W        W28729   1.708  42.520   1.740
62299W        W28730  32.222  15.676  13.601
62300W        W28731   5.914   6.186   0.182
62301W        W28732   6.939  12.713  12.176
62302W        W28733   9.972  43.519  13.435
62303W        W28734  20.881   4.162   4.050
62304W        W28735  25.689   4.573   2.601
62305W        W28736  16.049  27.637   3.750
62306W        W28737  26.039  31.189  11.489
62307W        W28738   5.446  38.842   2.242
62308W        W28739   6.916  18.061  11.086
62309W        W28740  28.536  21.614  11.253
62310W        W28741   4.430  42.772   2.771
62311W        W28742  22.999  24.475  11.344
62312W        W28743  32.955  34.551  14.941
62313W        W28744  19.102   8.893  11.648
62314W        W28745  18.242  21.606   3.860
62315W        W28746  20.749  18.736  10.302
62316W        W28747  12.154  33.406  14.058
62317W        W28748  20.966  31.670  13.819
62318W        W28749  23.460  37.106  11.121
62319W        W28750  12.830  28.849  11.086
62320W        W28751  12.858  18.643   4.788
62321W        W28752   7.094   4.169  10.981
62322W        W28753  35.384  20.774   1.682
62323W        W28754   1.020  11.162   1.981
62324W        W28755  24.646  22.060   1.898
62325W        W28756  31.030   5.919  14.010
62326W        W28757   5.482  28.373   1.287
62327W        W28758  43.250  12.702   0.860
62328W        W28759  35.738  35.040  13.091
62329W        W28760  11.541   9.201   2.252
62330W        W28761  23.592  22.719   3.644
62331W        W28762  24.176  32.356  12.546
62332W        W28763   6.824  14.540  13.439
62333W        W28764  41.461  36.969  14.877
62334W        W28765  34.343   7.342   3.092
62335W        W28766  29.322   5.610  12.044
62336W        W28767  16.737  13.809  14.916
62337W        W28768  38.550  13.052   0.553
62338W        W28769  19.793  24.520  14.938
62339W        W28770  31.325  31.048  10.534
62340W        W28771  43.708  42.835   1.786
62341W        W28772  35.027   1.256  12.100
62342W        W28773  21.053  38.564  12.029
62343W        W28774  40.733  13.095  10.799
62344W        W28775  44.374  19.195   4.519
62345W        W28776  23.405  31.682  13.408
62346W        W28777  43.152  37.104   0.282
62347W        W28778  39.975  41.341   4.576
62348W        W28779  39.775  39.994   2.779
62349W        W28780   2.800  25.482   1.619
62350W        W28781  10.086  30.936   3.614
62351W        W28782   4.813  44.928   1.320
62352W        W28783   7.132  19.552   1.207
62353W        W28784  21.574  23.603   1.372
62354W        W28785  42.208  39.529  13.696
62355W        W28786   1.672  16.518   4.466
62356W        W28787  18.940  41.902   0.268
62357W        W28788  22.060  21.202   4.229
62358W        W28789  27.051   7.994  14.945
62359W        W28790  42.922  14.351   5.009
62360W        W28791  28.197   6.209   2.281
62361W        W28792  42.678  37.543   4.140
62362W        W28793  43.282   9.132   2.751
62363W        W28794  17.622   4.777   2.079
62364W        W28795  14.534  26.575   0.345
62365W        W28796  33.672  37.184   1.820
62366W        W28797  41.853   7.429   3.064
62367W        W28798  24.087   6.895  12.901
62368W        W28799  23.931  27.568   0.519
62369W        W28800  30.444  44.675   0.595
62370W        W28801  27.908   2.304  10.808
62371W        W28802  29.520   2.323   4.484
62372W        W28803  12.383   2.906   2.368
62373W        W28804   8.084  43.443   2.392
62374W        W28805   8.741  44.417   4.994
62375W        W28806  40.121  37.540   3.718
62376W        W28807   0.371   2.189   3.059
62377W        W28808  12.883  13.327   2.351
62378W        W28809  22.419  17.745  14.015
62379W        W28810  21.314  19.190   9.807
62380W        W28811  14.993   6.332  11.951
62381W        W28812  25.149  16.700   2.406
62382W        W28813   1.804  29.435   3.647
62383W        W28814  43.341  22.348   2.960
62384W        W28815  24.076  25.518   2.046
62385W        W28816  38.611  29.821   2.176
62386W        W28817  39.385   8.326   0.385
62387W        W28818  15.674  38.538   0.751
62388W        W28819  11.364  27.606  12.830
62389W        W28820  16.655  32.582  12.495
62390W        W28821  40.386   2.842  14.798
62391W        W28822  15.270  30.581  12.974
62392W        W28823  13.091   1.408   2.818
62393W        W28824   4.257  14.859  14.629
62394W        W28825  16.190  23.589  10.252
62395W        W28826  29.843  41.339  14.817
62396W        W28827   8.859  44.016  12.812
62397W        W28828  28.218  23.277  13.391
62398W        W28829  41.769  42.253   4.185
62399W        W28830  21.770  25.184   4.399
62400W        W28831  20.086  37.117   0.914
62401W        W28832  20.624  16.247   1.347
62402W        W28833   3.892  16.671  12.013
62403W        W28834  28.731   3.169   1.923
62404W        W28835  15.607   1.755   2.266
62405W        W28836  11.676  25.000  13.987
62406W        W28837  36.093   2.369  10.740
62407W        W28838   1.283  20.804   2.371
62408W        W28839  40.926  27.271  12.004
62409W        W28840  30.926  30.167  14.052
62410W        W28841  16.118  23.875  13.270
62411W        W28842  26.586   1.754   2.631
62412W        W28843  36.480   6.930   2.867
62413W        W28844  25.777  29.906   2.802
62414W        W28845   6.803  24.430   1.758
62415W        W28846  12.174  40.361  11.452
62416W        W28847  10.167  37.149  10.423
62417W        W28848  37.211   5.367  14.357
62418W        W28849  20.728   7.732  13.861
62419W        W28850   4.705  25.553  11.062
62420W        W28851   4.240  44.789  11.165
62421W        W28852   9.585   6.377   3.289
62422W        W28853  18.791  15.853   0.808
62423W        W28854  10.959  38.330  11.732
62424W        W28855  20.475  13.099  13.245
62425W        W28856   5.817  15.012  10.519
62426W        W28857   1.844  15.918   2.371
62427W        W28858  35.400  16.351   3.238
62428W        W28859  40.115   6.641  14.160
62429W        W28860  39.478  35.207  13.849
62430W        W28861  12.165  32.905  11.098
62431W        W28862  23.597   0.576   0.082
62432W        W28863  35.549  37.441   3.387
62433W        W28864  31.648  15.668  12.061
62434W        W28865   7.571  29.462   4.658
62435W        W28866   4.354  39.632  13.497
62436W        W28867   6.785  20.967   2.194
62437W        W28868  17.178   5.227   4.957
62438W        W28869  24.248  38.205  10.700
62439W        W28870  18.199  10.189   4.186
62440W        W28871  11.281   1.160   4.745
62441W        W28872  29.188  13.039   4.941
62442W        W28873  30.472  34.884   4.209
62443W        W28874  10.796  28.197  12.958
62444W        W28875  15.050  27.776   0.919
62445W        W28876   5.875  34.026  14.489
62446W        W28877  37.091  39.414   1.675
62447W        W28878  20.988  37.146   3.162
62448W        W28879  35.311  30.424  13.038
62449W        W28880  37.438   1.675  10.715
62450W        W28881  30.663  29.711  14.025
62451W        W28882  10.084  20.560  13.020
62452W        W28883  44.974  36.530  11.064
62453W        W28884  19.972  19.302   3.255
62454W        W28885  37.085   3.638  12.912
62455W        W28886  10.662  26.500  14.792
62456W        W28887  30.129   3.185  14.024
62457W        W28888   7.647  22.934   0.206
62458W        W28889  41.151  42.643   3.178
62459W        W28890  43.524   1.424  13.613
62460W        W28891  13.675   6.296  11.437
62461W        W28892  44.261  36.874  11.043
62462W        W28893  23.750  38.263  14.433
62463W        W28894   5.357  31.978  12.413
62464W        W28895  44.440  34.765   5.046
62465W        W28896  35.931  22.024   2.746
62466W        W28897   5.744  44.026  11.531
62467W        W28898  26.550  37.119   3.598
62468W        W28899  11.628  28.208   4.075
62469W        W28900  27.548  26.998  12.471
62470W        W28901   2.049  26.582   3.282
62471W        W28902   7.043  33.813  11.132
62472W        W28903   9.710  28.961  12.591
62473W        W28904  34.766  42.946  11.096
62474W        W28905   8.115  22.128   0.478
62475W        W28906  27.656  33.733   1.757
62476W        W28907  19.975   2.189  12.951
62477W        W28908   5.296   2.683  11.499
62478W        W28909  18.700  40.752   5.551
62479W        W28910   5.989   4.458  13.882
62480W        W28911   0.283  12.306   1.396
62481W        W28912   8.291  21.916   2.785
62482W        W28913  19.250  38.931  11.136
62483W        W28914   5.263   0.176  12.110
62484W        W28915   6.063  31.193  11.145
62485W        W28916  36.879   3.534  10.442
62486W        W28917   9.915  41.851  11.552
62487W        W28918  37.572  26.056   1.728
62488W        W28919  18.056  10.582  10.542
62489W        W28920   7.777  37.547   2.688
62490W        W28921   0.916  28.710  14.014
62491W        W28922  10.358  19.655  10.728
62492W        W28923  44.743  22.747  12.926
62493W        W28924  21.058   8.715  11.718
62494W        W28925  39.322  18.568   0.244
62495W        W28926   1.971  30.723  12.874
62496W        W28927  10.150  21.815   4.357
62497W        W28928   7.665  19.055   3.758
62498W        W28929  29.574  27.269  11.554
62499W        W28930  23.269   8.386  13.169
62500W        W28931  30.952   1.323   1.786
62501W        W28932  13.252  11.801  13.763
62502W        W28933  22.499  33.518  11.532
62503W        W28934  35.955  16.695  13.557
62504W        W28935  34.411   1.559  12.286
62505W        W28936  33.077  15.266  12.574
62506W        W28937  18.130  18.529  10.134
62507W        W28938   7.363  14.200   1.090
62508W        W28939  39.306  19.884   0.680
62509W        W28940  39.462  30.530   2.823
62510W        W28941  39.941   1.565  14.820
62511W        W28942  16.066  20.569  14.263
62512W        W28943  38.332  16.555   0.573
62513W        W28944  43.230   2.838   2.769
62514W        W28945  18.218  11.759  10.621
62515W        W28946  39.249  44.206   3.222
62516W        W28947   3.237   0.215  12.149
62517W        W28948  34.373   4.797  14.434
62518W        W28949  30.641  37.555  12.692
62519W        W28950   4.972  33.919   1.294
62520W        W28951  19.156  23.561   2.740
62521W        W28952  37.267  22.244  11.212
62522W        W28953  39.684  19.001   2.327
62523W        W28954  33.514   8.818   4.645
62524W        W28955  24.464   8.576  11.892
62525W        W28956   1.866  12.179   4.876
62526W        W28957   8.148   4.430  14.407
62527W        W28958   8.443  20.638   4.576
62528W        W28959  41.517  38.312   4.053
62529W        W28960  19.053  26.484   0.749
62530W        W28961  26.433  23.188  10.738
62531W        W28962  21.857  34.039  12.056
62532W        W28963  18.281   2.750   1.456
62533W        W28964  14.407  44.658  12.079
62534W        W28965   3.408  21.992   1.412
62535W        W28966   6.164  12.303  13.956
62536W        W28967  25.168   4.580  14.320
62537W        W28968   7.308  40.807  14.374
62538W        W28969  29.071  35.844   2.983
62539W        W28970  42.354  34.138  14.379
62540W        W28971  32.645   8.693  12.033
62541W        W28972   6.639  11.466   1.032
62542W        W28973  22.142   8.723  12.658
62543W        W28974   0.893   1.203  14.701
62544W        W28975  32.984   6.241  14.736
62545W        W28976  26.723  27.605   3.577
62546W        W28977  29.979  24.939   1.996
62547W        W28978  17.590  40.446   3.834
62548W        W28979  33.463  30.848  12.893
62549W        W28980   9.018  23.933   1.948
62550W        W28981  10.267  38.008   3.301
62551W        W28982  29.357  33.568   3.669
62552W        W28983  24.907  39.622   0.320
62553W        W28984  20.289  43.579  12.099
62554W        W28985  32.234  16.742   0.296
62555W        W28986  15.073  43.152   2.218
62556W        W28987  37.203  11.606   4.978
62557W        W28988  36.056  34.075  12.098
62558W        W28989  30.680  16.784  14.550
62559W        W28990  30.152  23.280  12.048
62560W        W28991  21.110  34.394   2.931
62561W        W28992  15.181  14.502   9.740
62562W        W28993  41.075   9.866  12.020
62563W        W28994  28.630  24.527  12.567
62564W        W28995  40.001  26.722   2.241
62565W        W28996   3.001   9.809  12.082
62566W        W28997  13.665  35.859   4.331
62567W        W28998  42.576  41.480   3.679
62568W        W28999  16.099  11.879   0.490
62569W        W29000  43.524  11.722  12.920
62570W        W29001  38.067  27.071  14.029
62571W        W29002   1.793  27.022   2.055
62572W        W29003  35.988   8.641   4.339
62573W        W29004   7.869  42.028  11.517
62574W        W29005   3.299  10.880   3.310
62575W        W29006  30.402  17.299   3.897
62576W        W29007  44.767   2.972   1.500
62577W        W29008   0.961  11.045   2.489
62578W        W29009  39.551  41.945  14.891
62579W        W29010  33.430  27.591  14.918
62580W        W29011  11.246  42.005   1.750
62581W        W29012  13.125   8.244   0.023
62582W        W29013  17.145  39.799  12.527
62583W        W29014  44.822  37.694   1.675
62584W        W29015  33.133  43.562  14.506
62585W        W29016  15.833  12.373  10.654
62586W        W29017  38.200  14.837   2.459
62587W        W29018  13.171  19.489  12.688
62588W        W29019  30.702  12.239   2.067
62589W        W29020  10.438   5.864   2.359
62590W        W29021  16.565  40.354  14.030
62591W        W29022  10.237   8.259  10.413
62592W        W29023  23.281   0.310  12.193
62593W        W29024  39.596  15.267   0.428
62594W        W29025  16.349  38.799   3.775
62595W        W29026  14.816  12.234   0.541
62596W        W29027  28.134  18.498  14.843
62597W        W29028  28.158  30.561   0.460
62598W        W29029   3.196  10.447  14.902
62599W        W29030  13.070  26.048   0.713
62600W        W29031  22.138  33.087  13.523
62601W        W29032  39.402  30.255   4.050
62602W        W29033  35.995  20.681   4.927
62603W        W29034  25.457  32.046  11.549
62604W        W29035   4.641   1.666  10.757
62605W        W29036  11.243  40.275  13.836
62606W        W29037   4.924   9.264  11.274
62607W        W29038  32.324   8.407  10.783
62608W        W29039  10.295  37.814   2.826
62609W        W29040   5.466  11.022   4.083
62610W        W29041  24.607   9.885  11.185
62611W        W29042  11.546   8.455   3.553
62612W        W29043  36.156   6.452  11.910
62613W        W29044   4.922  22.370   3.327
62614W        W29045  13.005  22.339  11.499
62615W        W29046  11.189   8.124  12.488
62616W        W29047  40.495  33.005  14.975
62617W        W29048  17.094   9.011   0.259
62618W        W29049  44.118   3.404   4.087
62619W        W29050   8.670  15.093   2.126
62620W        W29051  33.753  35.854  13.888
62621W        W29052  14.328  44.705  10.611
62622W        W29053  37.877  31.165   2.246
62623W        W29054  21.058   2.197   1.547
62624W        W29055  41.298   7.406   4.691
62625W        W29056  18.191  10.190   1.216
62626W        W29057  39.970  16.582   4.850
62627W        W29058  31.912   2.866  14.986
62628W        W29059  11.098  43.769  12.007
62629W        W29060  24.194  28.101   1.877
62630W        W29061   5.849  30.223  14.285
62631W        W29062  19.717  22.723  12.573
62632W        W29063  10.322  44.023  14.466
62633W        W29064  18.283  16.268  13.404
62634W        W29065   1.173   5.693   1.393
62635W        W29066  27.224  42.851  10.698
62636W        W29067  34.552   8.058  14.926
62637W        W29068  29.155  15.534  10.320
62638W        W29069  15.030  13.072   4.164
62639W        W29070  35.341   4.972   1.838
62640W        W29071   5.970  18.152   4.115
62641W        W29072  44.561  35.795   2.065
62642W        W29073  19.218  32.069  14.208
62643W        W29074  13.265  14.265   3.176
62644W        W29075  16.796  28.599   4.419
62645W        W29076  10.926  42.132   2.373
62646W        W29077  16.775  22.277  12.025
62647W        W29078  40.908  12.360   2.461
62648W        W29079   7.774  10.774   4.367
62649W        W29080   1.288   0.011  12.546
62650W        W29081  20.543   2.748   2.928
62651W        W29082  34.487  18.650  14.332
62652W        W29083   3.286  43.469  13.203
62653W        W29084  28.239  42.714  14.381
62654W        W29085  43.993  12.382   0.688
62655W        W29086   4.658   0.814  12.524
62656W        W29087  28.951  40.132  14.926
62657W        W29088   2.405  36.893  12.451
62658W        W29089  27.249  29.865   0.550
62659W        W29090  32.841  22.369  14.767
62660W        W29091  28.981  30.920  11.193
62661W        W29092  15.751   9.832   4.196
62662W        W29093  42.388  10.800  14.057
62663W        W29094  36.860   7.646   2.363
62664W        W29095  18.706  14.316   1.773
62665W        W29096  39.556  19.409   0.727
62666W        W29097  21.765  34.923  10.942
62667W        W29098   6.550  42.310  12.407
62668W        W29099   2.520  33.937  12.428
62669W        W29100  27.932   9.013  14.754
62670W        W29101  31.956  18.895   4.172
62671W        W29102  40.334  40.514  10.300
62672W        W29103  33.090   4.212   4.707
62673W        W29104  31.692  28.070  11.034
62674W        W29105  16.230  32.465   2.201
62675W        W29106  12.370   0.755   2.814
62676W        W29107  18.802  29.409   3.080
62677W        W29108  42.830  40.112  11.189
62678W        W29109   6.361  37.809   2.367
62679W        W29110  42.399  26.630   3.586
62680W        W29111  39.591  16.956  13.883
62681W        W29112   6.721  38.681  12.006
62682W        W29113  39.055   9.266  13.642
62683W        W29114  28.996  31.520   0.414
62684W        W29115  28.974   8.708  11.575
62685W        W29116   6.506   6.260  13.062
62686W        W29117  22.561  39.315   2.311
62687W        W29118  37.295  36.131   1.822
62688W        W29119  44.399  24.312   3.298
62689W        W29120  15.297  32.393   1.691
62690W        W29121  20.320  17.041   4.706
62691W        W29122  10.723  27.957  12.483
62692W        W29123  33.930  33.038   0.138
62693W        W29124   5.145  16.031  10.112
62694W        W29125  32.302  36.388  12.115
62695W        W29126  36.356   5.537   4.260
62696W        W29127  21.559  30.891  14.763
62697W        W29128  36.335  25.140  13.406
62698W        W29129  32.103  28.734   4.658
62699W        W29130  40.509  24.470   4.609
62700W        W29131   4.494  16.566   0.483
62701W        W29132  31.384  39.792   1.207
62702W        W29133  41.340  44.507  11.603
62703W        W29134  36.430   9.249   1.757
62704W        W29135  17.095   0.956  13.401
62705W        W29136  27.144   7.735  10.723
62706W        W29137  34.943  12.092   1.849
62707W        W29138  19.521   4.915   1.449
62708W        W29139   5.554   5.803  10.572
62709W        W29140  10.860  35.809  14.049
62710W        W29141  31.402  13.803   3.387
62711W        W29142  19.947   8.605  12.208
62712W        W29143  42.518  29.433  14.040
62713W        W29144  42.679  35.990   0.030
62714W        W29145  10.398   9.121   4.927
62715W        W29146  23.969  10.768   0.856
62716W        W29147  24.258  37.184   4.984
62717W        W29148  10.921   0.880   4.247
62718W        W29149   1.517   3.310   1.367
62719W        W29150   8.926  20.752  11.612
62720W        W29151  12.071  18.581   0.465
62721W        W29152  30.110  33.044  14.511
62722W        W29153  26.116   2.808   3.461
62723W        W29154  38.027  39.417   0.503
62724W        W29155   7.157  25.975   0.868
62725W        W29156  28.093  33.199   4.231
62726W        W29157  24.907  33.306  13.424
62727W        W29158  28.685  12.202   1.374
62728W        W29159  16.091  24.053   2.282
62729W        W29160   7.881  10.867  11.449
62730W        W29161  35.332  14.276  14.056
62731W        W29162  14.097   7.475  13.354
62732W        W29163  12.100  12.146  10.430
62733W        W29164  32.478  35.251  13.450
62734W        W29165  24.249  37.593   1.868
62735W        W29166  10.166   6.005  14.902
62736W        W29167   1.538  32.071   1.789
62737W        W29168  13.596   3.774   1.096
62738W        W29169  28.148  32.449   4.558
62739W        W29170   9.187   8.771  13.545
62740W        W29171  18.947  13.602  14.700
62741W        W29172  38.438  40.953   4.270
62742W        W29173   1.685  14.828  14.498
62743W        W29174  44.820  18.116   0.542
62744W        W29175  40.372  36.298  14.776
62745W        W29176  31.331  43.032  13.480
62746W        W29177  42.490  28.484   0.604
62747W        W29178  15.800  35.757  11.274
62748W        W29179  35.731  35.940   1.028
62749W        W29180  11.242  35.347  11.246
62750W        W29181  38.597  25.312   0.987
62751W        W29182  12.539  17.617   2.655
62752W        W29183  44.480  23.920  11.150
62753W        W29184  14.510   2.128  14.324
62754W        W29185  33.867   0.685  14.578
62755W        W29186   6.808  38.795   4.151
62756W        W29187  21.150  22.522   4.242
62757W        W29188  20.114  16.988   1.153
62758W        W29189  30.208  21.297   0.866
62759W        W29190   1.239  25.423  13.752
62760W        W29191  29.802  13.877   4.861
62761W        W29192   3.354  18.708   0.153
62762W        W29193  15.329  23.659  12.885
62763W        W29194  38.321  28.383   0.249
62764W        W29195  13.789  10.443  11.125
62765W        W29196   5.983  29.010  11.556
62766W        W29197  37.371  21.212   2.749
62767W        W29198   8.021  24.017  12.906
62768W        W29199  24.885  43.859  13.363
62769W        W29200  20.772   7.381   0.755
62770W        W29201  30.682   7.150   4.161
62771W        W29202  11.874  32.104  14.456
62772W        W29203  13.200  41.790  11.332
62773W        W29204  44.422  16.335  12.186
62774W        W29205  22.539  33.202   5.051
62775W        W29206  40.454  37.269  14.887
62776W        W29207  37.504  16.722  12.862
62777W        W29208  17.986  29.379  14.754
62778W        W29209  17.861   1.995   2.449
62779W        W29210  34.732  36.289  12.904
62780W        W29211  34.604  19.610  12.594
62781W        W29212  43.301   9.821  12.881
62782W        W29213  19.294  33.475   1.482
62783W        W29214  17.097   5.850   1.335
62784W        W29215   8.745   9.758  10.880
62785W        W29216   2.451   4.829  13.517
62786W        W29217  10.122  11.790  14.798
62787W        W29218   7.619   8.499  14.901
62788W        W29219  10.947  33.521   1.254
62789W        W29220   2.745  26.923  13.042
62790W        W29221   8.946  14.554  13.494
62791W        W29222   9.377   7.973   4.263
62792W        W29223  42.700  42.142  11.612
62793W        W29224  43.070   3.943  12.740
62794W        W29225   5.905   1.021  12.946
62795W        W29226  39.870   6.881   4.610
62796W        W29227   5.479  21.576   1.577
62797W        W29228   3.723  29.507   2.353
62798W        W29229  29.173  21.837  13.819
62799W        W29230  18.812   5.825   4.121
62800W        W29231  25.027  11.710   4.576
62801W        W29232  36.172   7.764   4.354
62802W        W29233  37.665  25.123  13.044
62803W        W29234  19.130  25.053  14.390
62804W        W29235   7.399  44.982   0.859
62805W        W29236  23.584  38.997   2.845
62806W        W29237  19.190  44.377  12.692
62807W        W29238  29.913   4.233   3.195
62808W        W29239   9.640  15.351   0.501
62809W        W29240  34.009  41.312   3.388
62810W        W29241   9.976  15.379  12.174
62811W        W29242  26.773  20.527  12.570
62812W        W29243   6.845  27.689   0.294
62813W        W29244   3.465  29.535  12.480
62814W        W29245  26.454  44.885  14.265
62815W        W29246  32.915  13.277  13.731
62816W        W29247  41.937  38.483  14.752
62817W        W29248  39.805  22.278  12.027
62818W        W29249  34.022  20.541   0.277
62819W        W29250  33.814  29.231   2.538
62820W        W29251  28.210  33.810  11.136
62821W        W29252   3.762  27.113  14.908
62822W        W29253  10.210   7.175   1.582
62823W        W29254   7.731  15.153  13.366
62824W        W29255  27.978  16.330  12.411
62825W        W29256   0.035  10.754  10.488
62826W        W29257  20.110   6.019  12.879
62827W        W29258  39.277  22.005   3.221
62828W        W29259   1.486  35.325   0.286
62829W        W29260   4.806  30.404  11.565
62830W        W29261  33.099  27.058   0.182
62831W        W29262   6.487  17.295   0.847
62832W        W29263  10.356  43.085  14.878
62833W        W29264  16.334  28.430   0.886
62834W        W29265   7.321  18.814   1.901
62835W        W29266   5.942  38.479  12.673
62836W        W29267  25.396  41.726   2.731
62837W        W29268  42.273   6.629   3.159
62838W        W29269  12.721   6.021   3.673
62839W        W29270  11.834  24.036   0.511
62840W        W29271   6.340  43.957  12.904
62841W        W29272  23.534   8.419  12.408
62842W        W29273  17.879  25.939  14.752
62843W        W29274  40.415  39.017  10.205
62844W        W29275   5.118  10.371  11.347
62845W        W29276   7.223  31.809   3.690
62846W        W29277  17.671  30.556  13.521
62847W        W29278  32.412   7.263  13.123
62848W        W29279  34.863   4.841  11.753
62849W        W29280   3.470  43.587   3.335
62850W        W29281  28.533  41.804   0.860
62851W        W29282  35.887  18.655   0.470
62852W        W29283  25.110   8.235  10.403
62853W        W29284  44.542  36.302   1.862
62854W        W29285  41.052  15.763   4.110
62855W        W29286   7.162  14.309   3.569
62856W        W29287  24.101  20.406   4.897
62857W        W29288  23.032  11.321  13.000
62858W        W29289  30.704  19.561  10.506
62859W        W29290  35.390  16.089  14.542
62860W        W29291  22.200  19.110  14.766
62861W        W29292  18.888  43.621  14.513
62862W        W29293  17.259  31.064   3.651
62863W        W29294   7.681   8.917  13.977
62864W        W29295  16.683  33.227  12.966
62865W        W29296  21.620  26.709  13.015
62866W        W29297  17.694  41.767   0.299
62867W        W29298  17.150  21.242  14.302
62868W        W29299   5.254  37.576   1.817
62869W        W29300  10.054  20.996  10.651
62870W        W29301  26.021  38.881   3.722
62871W        W29302   8.823   8.750  11.095
62872W        W29303  32.837   2.881   1.575
62873W        W29304  17.764  11.300  13.353
62874W        W29305  24.639  42.329   2.890
62875W        W29306   6.444   6.302   3.813
62876W        W29307  25.442  34.919   0.009
62877W        W29308  29.619  41.071   4.324
62878W        W29309  31.472  38.514  13.616
62879W        W29310  30.922  34.065  12.564
62880W        W29311   7.620  14.145  12.519
62881W        W29312  20.860  20.212   1.289
62882W        W29313   4.491  39.005  11.453
62883W        W29314   2.458   6.136   3.949
62884W        W29315   1.985  29.536  14.998
62885W        W29316  22.278   2.013  10.647
62886W        W29317   7.970  38.948  11.550
62887W        W29318   6.190  31.551   3.530
62888W        W29319  35.126  42.157   4.384
62889W        W29320  38.459  20.972   2.361
62890W        W29321  37.143   6.619   4.097
62891W        W29322  25.696  16.327  11.181
62892W        W29323  32.489   5.295   3.814
62893W        W29324  44.450  32.599  14.786
62894W        W29325  25.004  14.660   0.986
62895W        W29326  41.120  10.421  12.506
62896W        W29327  16.949  13.338   4.737
62897W        W29328   2.044   4.321  11.494
62898W        W29329  32.141  24.600  13.658
62899W        W29330  27.950   0.755   4.914
62900W        W29331  13.658  16.502  11.601
62901W        W29332  14.951   5.500  11.133
62902W        W29333   4.955  26.529  10.566
62903W        W29334  38.888  44.684   4.503
62904W        W29335  44.370  25.723   2.266
62905W        W29336  15.315  32.454   2.200
62906W        W29337  18.093  20.939   0.263
62907W        W29338  11.646  41.624   1.698
62908W        W29339  27.206  35.322  12.595
62909W        W29340  28.963   4.922  12.151
62910W        W29341  30.034  25.220   2.439
62911W        W29342  11.848   4.850  13.813
62912W        W29343  19.285  33.889  14.877
62913W        W29344  20.847   9.327   3.129
62914W        W29345   2.833  30.386   1.445
62915W        W29346  37.725  24.815  13.878
62916W        W29347  40.857  41.373  14.294
62917W        W29348  10.616   3.297   3.226
62918W        W29349  21.566  32.115   0.814
62919W        W29350  32.427  40.501   0.726
62920W        W29351  42.504  10.787  13.568
62921W        W29352  15.000   9.546  13.796
62922W        W29353   9.825  20.940   4.628
62923W        W29354  42.097   1.265   0.299
62924W        W29355  30.545  11.577   4.376
62925W        W29356   2.601   7.977  13.499
62926W        W29357  28.180  11.245  12.063
62927W        W29358  12.227  20.623  13.916
62928W        W29359  28.188   6.910  14.872
62929W        W29360   2.422  19.819   4.678
62930W        W29361   0.421  30.114   1.352
62931W        W29362  28.486   4.009  12.412
62932W        W29363   3.057  31.202  13.563
62933W        W29364  39.028   2.517   1.353
62934W        W29365  34.627   9.360  11.633
62935W        W29366  14.855  43.725  14.874
62936W        W29367  29.699   0.975   2.029
62937W        W29368  18.322   1.631   3.642
62938W        W29369   9.451   2.890   2.279
62939W        W29370  19.750  23.475  12.109
62940W        W29371   9.774  43.308   4.607
62941W        W29372  19.680  12.781   2.113
62942W        W29373  30.069  35.582  14.699
62943W        W29374  23.307  35.467   0.091
62944W        W29375   2.295   2.237   1.394
62945W        W29376  23.115   4.252  11.660
62946W        W29377  32.147  16.607  11.690
62947W        W29378  15.095  35.472  14.947
62948W        W29379  17.699  20.484   4.105
62949W        W29380  17.347  23.284   2.790
62950W        W29381  41.275  21.338  12.382
62951W        W29382  24.993   2.249  11.911
62952W        W29383   1.173  24.022   1.439
62953W        W29384  28.069  11.823   1.442
62954W        W29385  13.353  18.115  12.652
62955W        W29386  29.925  24.281  13.766
62956W        W29387  34.365  25.534   2.499
62957W        W29388   4.819  15.682   4.035
62958W        W29389   8.892  14.345  14.875
62959W        W29390  29.391  44.534   2.261
62960W        W29391  20.180  22.965  12.462
62961W        W29392   2.167  15.712  10.694
62962W        W29393  15.171  10.194   0.268
62963W        W29394   4.959  34.971   2.783
62964W        W29395  39.867  41.484  13.340
62965W        W29396  20.138  20.032   0.806
62966W        W29397  40.301  12.548  14.866
62967W        W29398  36.070  39.183   0.695
62968W        W29399   5.348  12.786   3.666
62969W        W29400  28.571   3.961   5.274
62970W        W29401   1.488  42.796  11.517
62971W        W29402  42.457  27.112  12.008
62972W        W29403  13.125  13.170  10.735
62973W        W29404  32.202  40.972  13.505
62974W        W29405  11.242   1.872  14.002
62975W        W29406  26.106  15.297   0.328
62976W        W29407  30.611  40.448  12.557
62977W        W29408   9.344   4.302   1.163
62978W        W29409  24.424  11.394  11.215
62979W        W29410  11.565   3.691   1.161
62980W        W29411  34.011  26.174   0.286
62981W        W29412  27.962   7.606   2.763
62982W        W29413   6.240  17.726  14.888
62983W        W29414  14.522  27.868  12.692
62984W        W29415  23.787  43.215  13.894
62985W        W29416   0.750  25.332   1.378
62986W        W29417  27.089  30.146   2.149
62987W        W29418   6.239   7.738   3.314
62988W        W29419   0.409  26.458   4.363
62989W        W29420  17.232  14.983   0.375
62990W        W29421  21.031  12.494  14.701
62991W        W29422   1.666  44.466  13.700
62992W        W29423  39.598  28.549  11.564
62993W        W29424   2.300  35.282   1.772
62994W        W29425  37.974  18.556   4.108
62995W        W29426  10.227   6.483   3.781
62996W        W29427  15.689   5.933  12.591
62997W        W29428  13.779   3.727   3.577
62998W        W29429  15.339  33.035   4.129
62999W        W29430  33.868  19.979   3.334
63000W        W29431  13.169  41.728  10.818
63001W        W29432  26.895  21.839   4.892
63002W        W29433   7.935  15.540   1.707
63003W        W29434   8.953  39.871  13.316
63004W        W29435  17.679  20.591  10.721
63005W        W29436   5.742  29.403  11.910
63006W        W29437  28.062  18.499  12.578
63007W        W29438  11.738  21.579  11.447
63008W        W29439  27.125   5.574  13.919
63009W        W29440  44.488  35.984   0.930
63010W        W29441  29.050  44.974   2.407
63011W        W29442  21.625  26.512  10.666
63012W        W29443   0.979   6.708  10.588
63013W        W29444   1.931   1.543  13.446
63014W        W29445  15.399   7.728   4.560
63015W        W29446  32.800  30.990   0.468
63016W        W29447  10.425   0.982   1.323
63017W        W29448  27.864  18.804  14.502
63018W        W29449  42.787   8.592  14.023
63019W        W29450  13.355  20.734   4.312
63020W        W29451   0.419  22.772   2.178
63021W        W29452   5.583   9.797   3.648
63022W        W29453  23.501  42.693  13.431
63023W        W29454  22.811  14.356   2.758
63024W        W29455  26.027  24.751   3.581
63025W        W29456  25.227  32.689  13.858
63026W        W29457   0.891   7.132  14.367
63027W        W29458  40.687  14.913  13.016
63028W        W29459   2.937  42.327  10.510
63029W        W29460  37.674   7.766   1.705
63030W        W29461  38.311  24.862   2.420
63031W        W29462  29.534  30.085   0.440
63032W        W29463  27.078  24.535  12.449
63033W        W29464  34.510  38.216  12.515
63034W        W29465  37.835  29.379   2.335
63035W        W29466  28.324  35.361   3.732
63036W        W29467  29.512  41.799  14.912
63037W        W29468  42.259  34.907   4.179
63038W        W29469  12.823  10.131   4.063
63039W        W29470  43.482   6.992  13.835
63040W        W29471  27.715  19.706   0.834
63041W        W29472  15.864  40.675   3.711
63042W        W29473   8.380  43.102  14.871
63043W        W29474   2.963   4.376   1.646
63044W        W29475  37.527   2.974  12.489
63045W        W29476   4.882  43.807   0.642
63046W        W29477  10.782  19.971  11.202
63047W        W29478  35.138  34.581  12.923
63048W        W29479  17.352  29.666  13.479
63049W        W29480  38.515  15.858   1.269
63050W        W29481  10.459  42.294  11.083
63051W        W29482  34.453  14.700  13.326
63052W        W29483  14.898  43.834  12.108
63053W        W29484  44.964   7.622  11.209
63054W        W29485  27.860  10.353  14.990
63055W        W29486  17.481  31.613  10.574
63056W        W29487   9.799  33.095   4.956
63057W        W29488   6.772  42.188   3.711
63058W        W29489  42.851  16.075  10.656
63059W        W29490  40.859  36.766   2.791
63060W        W29491  21.154  22.938   0.375
63061W        W29492  28.032   4.778  10.673
63062W        W29493  42.275   3.157  11.309
63063W        W29494  33.889  11.900   2.442
63064W        W29495  11.342  12.283   2.415
63065W        W29496  17.414  37.025  14.280
63066W        W29497  22.724  30.440  14.547
63067W        W29498  35.923  44.855   4.313
63068W        W29499  28.097  12.266   3.802
63069W        W29500   7.465  27.142   3.761
63070W        W29501  35.291  23.630  11.165
63071W        W29502   1.445  41.063  12.684
63072W        W29503  29.646  31.124   0.736
63073W        W29504  35.482   1.489   3.807
63074W        W29505  29.684  30.279  14.339
63075W        W29506  26.672   5.663  12.417
63076W        W29507  44.454  25.367  11.236
63077W        W29508  23.169  34.906  12.410
63078W        W29509  11.558   4.276  11.455
63079W        W29510  19.962   3.486   5.045
63080W        W29511  26.734   2.475   1.315
63081W        W29512  18.223  12.871   4.947
63082W        W29513   4.383   0.735   1.308
63083W        W29514  32.450  13.316   1.361
63084W        W29515   4.260  21.756   1.046
63085W        W29516  34.370  25.941  11.290
63086W        W29517  17.220  20.106   4.109
63087W        W29518  41.316  41.520  13.544
63088W        W29519  30.549  31.591   0.874
63089W        W29520  21.649  32.998   4.476
63090W        W29521  10.074  37.567  12.930
63091W        W29522  33.371  17.849  11.970
63092W        W29523  32.464  26.629   2.616
63093W        W29524  41.995   7.868  13.453
63094W        W29525   8.655  44.967  12.104
63095W        W29526  35.540   4.665   3.396
63096W        W29527   7.687  23.239  12.462
63097W        W29528  22.443  11.588  11.931
63098W        W29529  19.694  39.335  13.744
63099W        W29530  18.829  25.925   3.272
63100W        W29531  27.069   9.958  13.817
63101W        W29532   0.555  26.841   4.684
63102W        W29533  25.646  32.917   0.353
63103W        W29534  12.681  21.256  10.470
63104W        W29535  13.820   1.427   2.450
63105W        W29536  42.917  42.426   2.361
63106W        W29537  39.551  21.709   0.285
63107W        W29538  35.930  23.709  14.872
63108W        W29539  42.716   1.228  12.370
63109W        W29540  22.204  39.322  11.174
63110W        W29541  17.663  26.237   4.646
63111W        W29542  30.016  27.873  10.786
63112W        W29543  30.150   8.451  13.917
63113W        W29544  43.736  42.686  11.886
63114W        W29545   6.066   5.743  10.700
63115W        W29546  43.547  15.533  11.541
63116W        W29547  16.763  37.450   3.545
63117W        W29548  39.085   7.627  10.639
63118W        W29549  30.429  28.510  12.821
63119W        W29550  17.346   9.850   2.914
63120W        W29551  38.426  25.339  14.963
63121W        W29552  11.491  36.865   2.206
63122W        W29553  25.249  10.370  11.652
63123W        W29554  29.631   4.316   3.622
63124W        W29555  23.968  39.954   1.479
63125W        W29556  44.359  16.641   2.128
63126W        W29557  10.797  12.027  14.457
63127W        W29558  36.046  43.507   1.452
63128W        W29559  22.681   3.415  14.682
63129W        W29560   8.602  26.532   3.089
63130W        W29561  39.494  35.046   1.275
63131W        W29562   2.876  15.327  10.628
63132W        W29563   2.866  23.617  10.787
63133W        W29564  41.990  34.116   2.927
63134W        W29565  26.905   9.953   1.364
63135W        W29566  43.443  39.395   2.622
63136W        W29567  12.905  10.125   0.862
63137W        W29568  41.168  22.337   0.846
63138W        W29569  15.284   8.420  12.380
63139W        W29570  11.997  37.150   3.794
63140W        W29571  39.103  18.335   3.314
63141W        W29572  28.375  33.569   3.932
63142W        W29573  17.338  13.634   2.971
63143W        W29574  35.978  12.552   0.764
63144W        W29575  22.715  16.194  14.792
63145W        W29576   2.650   4.990   4.788
63146W        W29577  19.732   8.639   1.254
63147W        W29578  16.185  32.302   1.322
63148W        W29579  22.391  15.255  11.529
63149W        W29580  22.449   7.134  14.480
63150W        W29581  15.524  19.534   4.750
63151W        W29582  19.990  14.301   1.800
63152W        W29583  42.380   0.429  11.996
63153W        W29584  31.105  36.626   0.316
63154W        W29585  14.214  13.811   4.096
63155W        W29586  34.555  27.150  11.516
63156W        W29587  17.993   4.218  12.427
63157W        W29588  36.157  27.198   3.387
63158W        W29589  33.157  38.954  12.132
63159W        W29590  32.827  13.765   0.860
63160W        W29591  29.532  30.151   2.873
63161W        W29592  19.140  10.612  11.777
63162W        W29593   1.726  18.720   4.336
63163W        W29594  17.347  12.772  12.038
63164W        W29595  29.234   7.813  12.513
63165W        W29596  11.841  44.487   2.609
63166W        W29597  16.776  30.886  12.131
63167W        W29598  40.685   4.172  12.184
63168W        W29599  33.136  29.950  11.888
63169W        W29600  38.480  38.588   0.756
63170W        W29601  21.037  27.849   4.023
63171W        W29602   7.875  35.387   1.244
63172W        W29603  26.074  37.322   1.332
63173W        W29604   7.727  13.284   0.377
63174W        W29605  17.339  13.217  12.335
63175W        W29606  15.707  15.213   0.363
63176W        W29607  24.140   3.494  11.174
63177W        W29608  43.600  10.933   3.649
63178W        W29609  21.943  33.519  14.365
63179W        W29610  27.066  42.990   1.772
63180W        W29611  21.291   4.894   3.737
63181W        W29612  19.168   2.162   3.643
63182W        W29613  22.416   7.924  14.917
63183W        W29614  16.813  40.117  13.613
63184W        W29615  27.618  44.280   1.734
63185W        W29616  30.915  20.955   4.316
63186W        W29617  38.552  21.569  12.943
63187W        W29618  24.263  32.030  11.131
63188W        W29619  33.550  16.892   2.722
63189W        W29620   6.285  15.795  11.955
63190W        W29621  14.414  28.612   2.813
63191W        W29622   2.354  20.024   2.688
63192W        W29623  24.486  16.805  13.027
63193W        W29624  21.575  13.171   0.763
63194W        W29625  18.731   0.377  11.611
63195W        W29626  24.450  23.608   4.489
63196W        W29627  19.505  17.635  14.040
63197W        W29628  44.880  42.459  14.659
63198W        W29629  36.449  37.430  11.216
63199W        W29630  23.731  14.653   4.292
63200W        W29631   3.621  15.033   2.196
63201W        W29632  28.616  28.448   2.319
63202W        W29633  43.802  40.859   4.715
63203W        W29634  18.590  22.176  14.837
63204W        W29635  37.735  22.451   3.626
63205W        W29636  14.142  40.922  12.909
63206W        W29637  27.167  18.146  10.604
63207W        W29638  26.483  37.822  13.008
63208W        W29639  31.637  25.432   2.784
63209W        W29640  25.948  37.749  12.123
63210W        W29641  40.410  38.872   0.938
63211W        W29642  25.503  13.114   0.367
63212W        W29643  19.231  42.935  12.944
63213W        W29644   8.809  23.622   0.367
63214W        W29645  14.721  21.685  10.232
63215W        W29646  36.761  18.587   3.147
63216W        W29647  14.549  11.252   3.825
63217W        W29648  32.347  15.646  12.608
63218W        W29649  38.462  19.556  14.284
63219W        W29650   2.836  34.814   2.785
63220W        W29651   9.834  15.834   1.899
63221W        W29652  12.199  16.280   3.569
63222W        W29653  35.081  35.454  12.141
63223W        W29654  34.656  18.996  11.078
63224W        W29655  29.400   0.377   3.988
63225W        W29656  37.007  30.537   2.850
63226W        W29657  10.435  17.881   5.040
63227W        W29658  28.701  16.706   1.316
63228W        W29659  15.562   0.000  11.451
63229W        W29660  27.042   9.888   2.261
63230W        W29661  19.212  20.324  10.922
63231W        W29662   6.252  17.848   4.515
63232W        W29663   3.675   6.194  12.454
63233W        W29664  20.529  20.797   0.896
63234W        W29665  29.767  13.165   0.049
63235W        W29666  40.907  19.143   0.951
63236W        W29667  16.730  43.139  11.211
63237W        W29668  18.413  13.845   1.902
63238W        W29669  29.656  12.692  11.595
63239W        W29670   2.355   4.393  13.871
63240W        W29671   2.929  39.614   1.138
63241W        W29672  15.446   0.816   3.155
63242W        W29673  22.243  30.941   0.550
63243W        W29674  15.899  17.751  11.203
63244W        W29675  16.824   8.685   5.058
63245W        W29676  44.927  42.664  13.756
63246W        W29677  15.708  42.661   4.308
63247W        W29678  16.161  34.454   2.606
63248W        W29679  41.148   4.185   4.280
63249W        W29680  43.099  19.198  10.430
63250W        W29681  38.406   2.412   0.895
63251W        W29682  17.100   4.452   2.233
63252W        W29683  25.456  27.898   0.067
63253W        W29684  19.143  39.439  12.997
63254W        W29685   1.376   2.722   0.268
63255W        W29686  20.352  14.777   3.407
63256W        W29687  24.805  20.215   1.166
63257W        W29688  22.256  15.882   1.354
63258W        W29689  39.843  31.908  14.559
63259W        W29690  34.584   8.665   1.161
63260W        W29691  11.101   2.139  12.040
63261W        W29692   7.618  40.781  12.029
63262W        W29693  22.194  33.136  14.907
63263W        W29694  30.175   2.378  11.681
63264W        W29695  17.478  37.024  13.003
63265W        W29696  14.448  31.119   1.454
63266W        W29697  31.471  42.053  11.000
63267W        W29698  13.075  20.639  12.042
63268W        W29699  26.033  44.324   4.119
63269W        W29700   9.258  16.729   9.878
63270W        W29701   6.880  17.911   1.712
63271W        W29702  39.763  12.151   3.818
63272W        W29703   2.430  17.808  13.050
63273W        W29704  32.818   2.202   4.826
63274W        W29705  25.192  16.494   4.185
63275W        W29706  19.615  41.544   4.150
63276W        W29707  21.095  21.799   4.557
63277W        W29708  13.567  41.380   4.529
63278W        W29709  27.988  31.196   2.757
63279W        W29710  19.195  11.268   2.120
63280W        W29711  31.407  33.194   2.170
63281W        W29712  40.482  16.894   4.733
63282W        W29713  25.402  13.647   3.744
63283W        W29714  27.492  43.989  14.505
63284W        W29715   8.192  17.407   3.338
63285W        W29716   0.211  35.489  13.548
63286W        W29717  39.171  28.418   2.330
63287W        W29718  20.168  16.240  11.352
63288W        W29719  27.898   1.348  14.481
63289W        W29720  25.888   4.239  12.670
63290W        W29721  40.489   6.835   0.753
63291W        W29722   6.839  13.041   0.276
63292W        W29723  29.413  27.618   1.709
63293W        W29724  20.098  37.013  13.101
63294W        W29725  11.778  15.523  12.448
63295W        W29726  29.034  15.712  14.488
63296W        W29727   6.776  13.121   2.679
63297W        W29728  27.922   4.515   1.455
63298W        W29729  20.577  29.968  13.136
63299W        W29730  22.237   5.239   0.977
63300W        W29731  40.990   2.268  11.129
63301W        W29732  11.587   2.628   4.395
63302W        W29733  39.482  24.272  14.421
63303W        W29734  28.416   1.938  11.433
63304W        W29735  15.895  11.244  11.147
63305W        W29736  42.255   1.539   4.850
63306W        W29737  29.900  23.022  14.659
63307W        W29738  20.598  22.307  14.900
63308W        W29739  26.672   4.913  11.146
63309W        W29740  36.051  37.815  13.437
63310W        W29741  37.998  21.224  14.867
63311W        W29742  11.598  40.573   0.289
63312W        W29743  43.372   0.325   4.411
63313W        W29744  25.221  30.676   3.673
63314W        W29745  36.530  12.065   2.058
63315W        W29746  36.883  13.369  14.899
63316W        W29747  36.355  38.945  12.863
63317W        W29748  17.283   9.759   4.265
63318W        W29749  33.092  13.847   3.957
63319W        W29750  28.615  25.380  13.236
63320W        W29751  24.467   4.202  12.263
63321W        W29752  40.528  26.118  14.729
63322W        W29753   0.019   8.242   2.283
63323W        W29754  34.547  34.136   1.448
63324W        W29755  31.189  24.591  13.371
63325W        W29756  17.926  24.781  10.662
63326W        W29757  33.970   1.759  12.126
63327W        W29758   1.882  33.489   2.848
63328W        W29759  40.087  31.953   1.355
63329W        W29760  33.907  38.370  10.146
63330W        W29761  24.553  36.114  14.848
63331W        W29762  43.019  32.130   1.869
63332W        W29763  14.922   1.859  14.921
63333W        W29764  15.728  32.843   4.441
63334W        W29765   9.819  28.566  12.883
63335W        W29766  43.789  26.492   2.284
63336W        W29767  18.993  21.681  12.872
63337W        W29768  19.905  13.755   4.508
63338W        W29769   6.428   0.408  12.819
63339W        W29770  33.343  31.574   2.413
63340W        W29771  13.716  22.357   1.212
63341W        W29772  15.828  10.752  12.849
63342W        W29773   3.279  38.161   4.120
63343W        W29774  29.797  35.183  12.500
63344W        W29775  28.709  40.397   3.235
63345W        W29776  29.295  26.034  12.830
63346W        W29777  26.702  26.048   5.122
63347W        W29778  22.104  30.501   2.805
63348W        W29779  30.843  42.568   0.818
63349W        W29780  20.652  12.199  14.917
63350W        W29781  31.356   4.738  14.504
63351W        W29782  36.855   6.211   2.250
63352W        W29783   0.221  10.325   4.253
63353W        W29784  28.210  15.717  14.899
63354W        W29785  28.501  15.631  13.123
63355W        W29786  44.217  15.378  14.223
63356W        W29787  23.728  30.935   2.035
63357W        W29788  29.189  33.996  14.476
63358W        W29789  20.464  18.068   3.669
63359W        W29790   4.948   0.949   1.753
63360W        W29791  12.926  43.948   3.770
63361W        W29792  25.439  21.465   0.908
63362W        W29793  11.625  29.305   2.115
63363W        W29794  34.099   9.772  10.689
63364W        W29795  18.703   6.854   0.540
63365W        W29796  14.286  23.599   1.549
63366W        W29797  31.960  34.380  14.214
63367W        W29798  14.801  22.146  11.101
63368W        W29799   1.358  39.828   3.097
63369W        W29800  20.233  14.400  14.369
63370W        W29801  10.913  23.612   2.403
63371W        W29802  16.694  11.225   0.468
63372W        W29803   2.807   6.455  14.396
63373W        W29804  35.082  14.281  12.475
63374W        W29805   2.308  44.093  14.284
63375W        W29806   6.745  16.814   4.997
63376W        W29807  14.763  13.377   1.506
63377W        W29808  17.683  17.344   0.784
63378W        W29809  11.391   0.269   2.850
63379W        W29810   9.675  30.562   3.580
63380W        W29811   6.129   1.917  10.473
63381W        W29812   2.192   6.379  13.920
63382W        W29813   6.651   9.947   1.280
63383W        W29814  33.835  10.076   3.698
63384W        W29815   2.108  43.542   0.870
63385W        W29816  19.515   2.072  10.882
63386W        W29817  38.843  21.103   0.372
63387W        W29818  40.215  16.124   4.953
63388W        W29819  13.302  21.091  10.968
63389W        W29820  34.048   0.932  14.989
63390W        W29821   6.727  32.971  11.360
63391W        W29822  23.241   8.835   3.595
63392W        W29823  33.886  24.789   1.836
63393W        W29824  12.800  31.998   1.031
63394W        W29825  21.576  26.472  11.568
63395W        W29826  34.125  39.498  14.772
63396W        W29827   7.235  13.353   2.552
63397W        W29828   7.000  18.197   0.745
63398W        W29829   5.908   6.885  12.942
63399W        W29830  28.524  40.464   3.737
63400W        W29831  41.632  20.076   4.866
63401W        W29832   8.169  30.168   4.341
63402W        W29833  15.130  42.047   3.361
63403W        W29834  21.489  20.191   4.520
63404W        W29835  38.096  40.966   2.147
63405W        W29836  33.392   3.430   1.666
63406W        W29837  13.559  37.180   4.774
63407W        W29838  19.744  36.222   0.528
63408W        W29839  21.631  26.515  14.017
63409W        W29840  14.336  24.313   1.058
63410W        W29841  34.406  38.019  10.754
63411W        W29842  29.706  22.840  11.221
63412W        W29843  22.137  25.745   1.120
63413W        W29844  26.790  12.207  10.729
63414W        W29845  27.068  42.075   2.036
63415W        W29846   7.191  14.893  12.155
63416W        W29847  43.427   1.531  14.116
63417W        W29848   5.560  13.275  13.334
63418W        W29849   7.868  18.887   3.290
63419W        W29850  10.573  12.393   3.105
63420W        W29851  10.868  33.646  14.426
63421W        W29852  33.829  36.048   2.477
63422W        W29853  43.156   4.657   4.514
63423W        W29854  41.267  18.594   4.615
63424W        W29855  25.370  25.018  13.706
63425W        W29856  11.752   1.728   4.088
63426W        W29857  43.467  15.680   3.159
63427W        W29858   3.395  19.636  11.107
63428W        W29859   5.704  37.011   2.274
63429W        W29860  33.827  33.144   2.326
63430W        W29861   8.383  11.372  14.471
63431W        W29862  15.909   9.419   3.863
63432W        W29863   7.257  43.468  13.795
63433W        W29864  43.391   9.914  13.404
63434W        W29865  10.489  14.051  10.167
63435W        W29866  19.245  43.995  14.381
63436W        W29867   8.219  21.674   2.205
63437W        W29868  19.562  33.632   2.777
63438W        W29869  11.841  28.879  13.306
63439W        W29870   0.299   4.721   0.170
63440W        W29871   9.617   1.888  11.622
63441W        W29872  42.828  18.235  11.080
63442W        W29873   2.550  13.262  13.479
63443W        W29874   8.963  30.499   4.080
63444W        W29875  42.750   0.960   3.399
63445W        W29876  23.121  39.140   3.014
63446W        W29877  35.841   3.305  12.470
63447W        W29878   8.757  17.202   0.730
63448W        W29879  20.190  31.931   2.726
63449W        W29880  43.900  38.540   0.934
63450W        W29881  39.868  10.351  12.949
63451W        W29882  24.593  27.135   5.014
63452W        W29883  29.761   8.416   0.996
63453W        W29884   9.782  15.508  13.117
63454W        W29885   5.307   8.619  13.854
63455W        W29886  39.829  13.111   2.677
63456W        W29887  37.724   4.437  13.419
63457W        W29888  33.586  19.199  12.030
63458W        W29889  29.386  23.524   1.348
63459W        W29890   8.437  41.479  12.002
63460W        W29891  33.106  32.522  12.026
63461W        W29892  37.887  32.567   0.440
63462W        W29893  25.679  21.790   1.906
63463W        W29894  29.742  31.806  14.700
63464W        W29895  16.429  41.466   0.797
63465W        W29896  15.066  31.120   3.717
63466W        W29897  10.449  33.713  12.099
63467W        W29898  11.076   8.482   1.318
63468W        W29899  23.749  37.864  12.254
63469W        W29900  35.589  38.103  13.537
63470W        W29901  42.369  43.797   2.305
63471W        W29902  18.055  26.060   0.747
63472W        W29903  12.910  38.152   2.268
63473W        W29904   0.816  39.403   4.777
63474W        W29905  15.292  42.908  11.177
63475W        W29906  21.032  44.392   4.839
63476W        W29907  22.989  23.268   4.178
63477W        W29908  42.269  38.079  14.979
63478W        W29909  12.245  17.733   3.785
63479W        W29910   6.737  20.284   1.684
63480W        W29911  21.201  22.129  12.399
63481W        W29912  12.181  11.411   1.671
63482W        W29913  17.741   2.990   2.208
63483W        W29914  25.978  29.262  13.505
63484W        W29915  26.540   2.867  11.512
63485W        W29916   9.218  32.138   2.863
63486W        W29917  33.956   8.326  13.385
63487W        W29918  22.011  42.983   1.299
63488W        W29919   9.799  38.369  14.203
63489W        W29920  34.795  22.940  12.956
63490W        W29921  34.528  16.342  12.999
63491W        W29922  23.741   6.106   3.191
63492W        W29923   7.207   3.940   1.831
63493W        W29924   1.921  17.666  13.201
63494W        W29925   6.111  41.205  12.053
63495W        W29926   7.471  25.110  14.530
63496W        W29927  26.971  12.666  11.647
63497W        W29928   5.123  18.036  13.352
63498W        W29929   4.498  26.675   5.061
63499W        W29930   6.128  18.479  11.132
63500W        W29931  40.885  31.711  13.157
63501W        W29932  43.090   9.258  13.875
63502W        W29933   8.250  40.496  14.049
63503W        W29934  34.109  42.423   0.914
63504W        W29935  32.249  11.831   4.627
63505W        W29936  40.960  31.038  10.719
63506W        W29937  43.261   3.840  13.188
63507W        W29938   4.040  29.911   2.099
63508W        W29939  36.402  38.274  11.702
63509W        W29940  10.797   5.297   3.884
63510W        W29941  14.390   8.307   4.229
63511W        W29942  18.654   6.481   3.310
63512W        W29943  24.172  13.626  12.700
63513W        W29944  23.278   5.154   1.764
63514W        W29945  19.702  22.702  14.415
63515W        W29946   6.768  14.050   0.356
63516W        W29947  21.659  11.153   0.400
63517W        W29948  26.627  14.590  13.442
63518W        W29949  44.350  26.494   1.761
63519W        W29950  34.044  25.261   1.648
63520W        W29951  36.395  40.148   3.850
63521W        W29952  39.332   7.780   3.400
63522W        W29953  27.027  42.522  13.061
63523W        W29954  33.180   0.470   0.678
63524W        W29955  33.610  41.969  11.692
63525W        W29956  29.150  15.372  13.926
63526W        W29957   2.328  31.793   0.729
63527W        W29958  35.324  19.452  13.403
63528W        W29959  16.321   7.855   3.549
63529W        W29960   9.101  40.489   4.471
63530W        W29961  20.985  16.571   2.260
63531W        W29962  38.303  40.093   1.862
63532W        W29963  39.146  36.933  11.633
63533W        W29964   5.002  32.980  12.493
63534W        W29965  32.716  22.180   3.148
63535W        W29966  20.253  35.371   2.589
63536W        W29967  33.474  15.708  11.474
63537W        W29968  43.206   6.870  14.500
63538W        W29969  25.443   1.797  12.558
63539W        W29970   3.288  40.517   0.217
63540W        W29971  28.952  19.553   3.690
63541W        W29972  37.704   7.082   0.387
63542W        W29973  12.209  37.931   1.768
63543W        W29974  11.696  19.015   2.417
63544W        W29975  21.144  33.944  13.317
63545W        W29976  26.008  10.978   1.467
63546W        W29977  11.243   5.513  12.082
63547W        W29978  29.138  40.754  14.428
63548W        W29979   0.365  28.442   2.489
63549W        W29980   5.809   3.660  14.347
63550W        W29981  37.076   4.432  12.582
63551W        W29982  22.718  36.491   1.379
63552W        W29983  25.314  21.000  12.828
63553W        W29984  31.591  30.601  12.164
63554W        W29985   4.404  22.679  14.347
63555W        W29986   0.941  20.930  13.629
63556W        W29987  36.162  28.473  14.329
63557W        W29988  41.729  18.628   3.194
63558W        W29989  17.064  10.677   1.382
63559W        W29990  41.544  14.495  12.041
63560W        W29991  22.785  37.692   4.017
63561W        W29992  12.105  42.311   0.466
63562W        W29993  38.853  17.132  12.972
63563W        W29994   9.161  39.247  12.814
63564W        W29995  11.852  21.851   1.301
63565W        W29996  21.580  11.800   4.632
63566W        W29997  41.647  22.164   3.742
63567W        W29998  28.610   3.327  10.028
63568W        W29999   3.673  33.478   3.404
63569W        W30000   8.650  24.078  14.527
63570W        W30001  24.786  44.105  12.166
63571W        W30002  23.607  26.151  12.074
63572W        W30003  39.877   8.030  12.897
63573W        W30004  10.173  22.953   1.284
63574W        W30005  25.608  32.832  12.820
63575W        W30006  14.538  23.103  10.247
63576W        W30007  29.922  17.689   4.572
63577W        W30008   6.295  32.114   2.045
63578W        W30009  22.982  20.055   2.304
63579W        W30010  17.245  20.795  11.571
63580W        W30011  20.222   3.793   0.341
63581W        W30012   8.163  22.978   1.844
63582W        W30013  41.394  21.785  14.281
63583W        W30014  25.118  32.953   1.700
63584W        W30015   0.363  23.215  12.498
63585W        W30016  40.916  14.141  13.919
63586W        W30017   1.384  23.024  10.721
63587W        W30018   7.741   4.517  13.970
63588W        W30019  34.195   0.713   1.822
63589W        W30020  34.276  19.144   0.712
63590W        W30021   5.449  44.650  14.416
63591W        W30022  44.417  35.359   2.885
63592W        W30023  44.830   2.797  11.430
63593W        W30024  27.052   3.913   4.719
63594W        W30025  33.201  35.574   1.004
63595W        W30026  26.581  27.595  11.092
63596W        W30027  39.045  18.144   0.402
63597W        W30028  27.384   1.731  12.461
63598W        W30029  16.285  25.260   1.239
63599W        W30030   7.266  17.577   0.417
63600W        W30031  20.052  42.818  12.363
63601W        W30032  20.081  40.026  13.523
63602W        W30033  16.314  39.542   3.174
63603W        W30034  13.103   2.012  11.134
63604W        W30035  41.480  39.796   0.958
63605W        W30036  13.776   9.163  10.526
63606W        W30037  40.349  22.574   4.490
63607W        W30038  34.592  34.865  14.125
63608W        W30039  18.575  23.449   3.364
63609W        W30040  25.652  38.764  12.502
63610W        W30041  19.616  44.203   2.262
63611W        W30042  36.055  35.353  13.359
63612W        W30043  21.288   3.224   5.023
63613W        W30044   1.917  38.023   1.292
63614W        W30045  13.232  18.313   4.625
63615W        W30046   2.692  24.321  14.779
63616W        W30047  44.562  29.377   0.560
63617W        W30048   9.826   5.173   1.307
63618W        W30049  11.728  31.404   0.283
63619W        W30050  14.648  43.284  11.256
63620W        W30051   5.239   9.114  12.995
63621W        W30052   1.406  38.837  13.667
63622W        W30053  26.539  28.792  13.014
63623W        W30054  38.967  10.835  10.500
63624W        W30055   4.798  34.528  14.957
63625W        W30056  20.017  35.360  13.977
63626W        W30057  43.739  11.987  10.886
63627W        W30058  12.402   6.702  12.975
63628W        W30059  29.099  31.724   0.891
63629W        W30060  12.922  34.506   1.235
63630W        W30061  24.881  17.967   5.357
63631W        W30062   5.695  16.839  14.841
63632W        W30063   4.895  26.953   4.822
63633W        W30064  29.454  22.979  10.789
63634W        W30065  10.804  26.011  14.674
63635W        W30066   9.793   7.938  12.123
63636W        W30067  18.740   1.451   3.323
63637W        W30068   0.348  12.586   4.917
63638W        W30069  40.990   5.436  10.757
63639W        W30070  28.751  11.255  12.871
63640W        W30071  32.415  42.968   3.274
63641W        W30072   6.980   6.848   1.939
63642W        W30073  22.033  27.630  12.981
63643W        W30074  44.710  15.856   1.277
63644W        W30075  26.236  11.698  11.177
63645W        W30076  29.086  20.665  14.409
63646W        W30077  35.479  19.280   0.189
63647W        W30078  38.812  32.161  13.794
63648W        W30079  25.117  12.944   4.526
63649W        W30080  18.451  37.021  13.033
63650W        W30081  41.120  19.227  13.517
63651W        W30082  20.848  22.126  14.080
63652W        W30083  44.978  34.670  11.066
63653W        W30084  10.499   2.856   1.317
63654W        W30085  43.013  13.746   0.059
63655W        W30086  20.649  16.253   0.367
63656W        W30087  26.587   6.188  14.875
63657W        W30088  30.432  34.433  14.408
63658W        W30089  13.838  14.396  12.477
63659W        W30090  32.377  38.803  10.583
63660W        W30091  10.107  21.994   1.431
63661W        W30092   9.309  30.293   0.869
63662W        W30093   2.790  24.600   0.422
63663W        W30094   5.221  18.232   3.614
63664W        W30095  22.288  17.567  13.528
63665W        W30096  43.114  37.536  12.860
63666W        W30097  36.892  29.019   5.545
63667W        W30098  14.867  24.117  14.987
63668W        W30099  13.208   9.920  11.562
63669W        W30100  39.892  37.869   0.301
63670W        W30101  16.071  28.893   1.217
63671W        W30102  12.846   0.739   1.898
63672W        W30103   0.183  38.153  13.695
63673W        W30104  21.849  33.208  13.109
63674W        W30105  42.214   2.043  14.876
63675W        W30106  18.036  26.017   2.867
63676W        W30107   2.333  18.287  13.897
63677W        W30108  32.590  36.935   0.534
63678W        W30109  23.094  25.254   4.456
63679W        W30110  18.300  41.809   0.915
63680W        W30111  34.502  34.272   3.626
63681W        W30112  25.742  39.887  13.869
63682W        W30113  19.605  43.379   4.562
63683W        W30114  40.577  36.970  14.457
63684W        W30115  42.697   1.584  10.506
63685W        W30116   9.148   4.215   2.677
63686W        W30117  31.957  31.161   1.955
63687W        W30118  18.655   8.466  10.610
63688W        W30119  39.441   6.326   4.778
63689W        W30120  33.478  16.738  14.757
63690W        W30121  16.134  30.441  13.899
63691W        W30122  25.293  40.104  10.836
63692W        W30123  10.261  21.192  11.519
63693W        W30124   8.419  14.721   4.121
63694W        W30125  26.769  11.374   2.182
63695W        W30126  31.473  29.490   1.448
63696W        W30127  39.895   8.896  13.384
63697W        W30128  16.594  19.954  12.599
63698W        W30129  20.938  29.711  12.196
63699W        W30130  24.566  21.627   1.231
63700W        W30131  42.478  35.037   1.136
63701W        W30132  27.055  30.414   0.400
63702W        W30133  22.786  44.906   3.031
63703W        W30134  44.839  27.863  13.587
63704W        W30135  44.456  34.364   1.579
63705W        W30136  17.534  25.526   2.215
63706W        W30137  13.967  30.586   0.406
63707W        W30138  32.118   0.452   2.665
63708W        W30139  42.899  44.407   0.276
63709W        W30140   3.217  37.489   2.546
63710W        W30141  30.029  13.395   4.745
63711W        W30142  40.535  44.873  14.375
63712W        W30143  21.759  22.067   4.926
63713W        W30144  36.305  32.324  13.889
63714W        W30145  41.574   1.466   4.130
63715W        W30146  42.225  40.999  11.155
63716W        W30147   3.746  41.329  10.301
63717W        W30148  35.969   0.300   1.605
63718W        W30149   0.910  24.700  10.770
63719W        W30150  14.955  41.093  13.473
63720W        W30151  11.719  38.596  12.433
63721W        W30152  29.967  20.055   4.077
63722W        W30153  12.738  29.465   4.564
63723W        W30154  22.701  39.346  12.646
63724W        W30155  40.475   3.716   3.897
63725W        W30156  10.113  20.493  14.423
63726W        W30157  34.146  25.201   0.261
63727W        W30158  39.307  12.833  11.601
63728W        W30159  23.954  38.154  13.376
63729W        W30160  37.569  25.568  12.491
63730W        W30161  36.140  35.417  10.618
63731W        W30162  13.433  43.892  14.452
63732W        W30163  18.567  41.092  11.576
63733W        W30164  29.497  25.694   1.172
63734W        W30165  21.386  25.722   2.800
63735W        W30166  19.639  40.384   4.675
63736W        W30167  19.317   3.328   2.749
63737W        W30168   8.308   5.779  12.419
63738W        W30169  40.133  40.450  10.780
63739W        W30170   7.228  33.555   1.397
63740W        W30171  40.529  43.271  12.894
63741W        W30172  16.892   6.188  12.061
63742W        W30173   9.269  22.688   2.129
63743W        W30174  34.643  21.205  14.267
63744W        W30175  44.253  34.463   2.605
63745W        W30176   9.164   5.771  10.435
63746W        W30177   0.869  26.967   3.135
63747W        W30178  35.000   7.762   1.894
63748W        W30179  40.614  16.022  11.658
63749W        W30180  20.549  15.639   4.542
63750W        W30181  26.258  33.285  11.134
63751W        W30182  18.806  42.226   2.330
63752W        W30183  33.141  21.971  14.908
63753W        W30184  34.512  42.910   2.370
63754W        W30185  17.688  11.131   2.226
63755W        W30186   7.114   8.818  11.669
63756W        W30187  43.257  22.664   4.355
63757W        W30188  10.152  27.178  11.105
63758W        W30189  21.850  26.011   1.896
63759W        W30190  28.071  23.464  13.876
63760W        W30191  44.964  25.363   3.886
63761W        W30192   2.340  16.765   4.268
63762W        W30193   4.403   8.395  11.204
63763W        W30194  32.785  24.460   1.470
63764W        W30195   6.018  21.787  14.867
63765W        W30196  19.503  17.302  11.089
63766W        W30197   4.942  12.988   0.482
63767W        W30198  11.227   0.195   2.349
63768W        W30199  10.062  36.050  13.412
63769W        W30200  42.501  26.407   0.234
63770W        W30201  21.203  10.640   1.752
63771W        W30202   1.997   3.380  13.559
63772W        W30203   7.588  39.943   1.442
63773W        W30204  20.521  17.226   3.796
63774W        W30205  44.491   3.188   3.208
63775W        W30206  37.698  29.088  13.058
63776W        W30207  31.435  31.779   1.924
63777W        W30208  31.824  24.270  14.270
63778W        W30209  21.044  39.382  14.290
63779W        W30210  28.144   2.358   3.149
63780W        W30211  42.203   4.930   9.875
63781W        W30212  14.087  37.614  14.501
63782W        W30213  31.858  35.388   2.057
63783W        W30214  13.367  19.652   3.137
63784W        W30215   0.826  16.138   1.002
63785W        W30216  38.543   5.367   2.790
63786W        W30217  27.935  34.365  12.070
63787W        W30218  17.217  40.272  12.310
63788W        W30219  12.835   1.690  10.830
63789W        W30220   2.945  35.110   3.192
63790W        W30221  33.378  39.611   9.836
63791W        W30222  13.333  39.181   3.880
63792W        W30223   2.287  35.810   0.905
63793W        W30224  21.640  10.391   3.731
63794W        W30225  36.869  35.018  10.416
63795W        W30226  40.188  43.548   4.805
63796W        W30227  17.530  27.056   1.250
63797W        W30228  41.741  10.623   2.216
63798W        W30229  27.061   8.851   0.771
63799W        W30230  40.556  31.970  14.765
63800W        W30231  26.284  26.104  11.596
63801W        W30232  36.976  44.571   2.629
63802W        W30233  20.720  14.691   3.825
63803W        W30234  34.290  16.564  10.593
63804W        W30235  33.966  31.320  13.531
63805W        W30236  16.589  31.932  10.594
63806W        W30237  33.952   8.394  11.940
63807W        W30238  25.557  10.235   1.277
63808W        W30239  37.836  15.620  12.128
63809W        W30240   3.808  18.547  14.948
63810W        W30241  39.712  13.628  12.341
63811W        W30242   4.742  42.407   4.294
63812W        W30243  41.397   5.900   2.732
63813W        W30244  42.858   9.710   0.037
63814W        W30245   7.133  18.211   3.627
63815W        W30246  44.488   0.728   4.157
63816W        W30247   5.230  25.195  10.415
63817W        W30248  12.612   6.358   0.305
63818W        W30249  10.313  18.370   1.605
63819W        W30250   6.154  24.582  10.718
63820W        W30251  43.895   7.821  13.057
63821W        W30252  42.235  27.592   4.538
63822W        W30253  24.112  26.867  12.898
63823W        W30254   7.759  41.018   4.678
63824W        W30255  14.170  11.180   1.958
63825W        W30256  32.770  44.569   3.283
63826W        W30257  33.875  15.159  13.015
63827W        W30258  16.624   1.878   3.140
63828W        W30259   5.878  19.273  14.499
63829W        W30260  24.757  21.594   1.703
63830W        W30261   2.630  37.587  12.961
63831W        W30262  26.699  19.117   0.979
63832W        W30263   6.200  34.036  13.789
63833W        W30264  33.865  40.771   0.965
63834W        W30265  27.179  15.176  12.209
63835W        W30266   9.700  16.572   3.781
63836W        W30267  27.633  38.068   0.437
63837W        W30268  33.713  39.947  10.407
63838W        W30269   6.388  23.361   0.316
63839W        W30270  29.492  30.232  12.129
63840W        W30271   0.896   4.085   1.356
63841W        W30272  19.044  42.953   4.103
63842W        W30273  17.705   4.356   4.123
63843W        W30274   9.300   9.951  12.268
63844W        W30275   4.935  35.462   2.112
63845W        W30276  23.898  28.939  10.238
63846W        W30277  11.272  42.275  12.028
63847W        W30278  11.136  34.306   2.287
63848W        W30279  21.780  41.380   9.616
63849W        W30280  36.013  18.135   0.389
63850W        W30281  15.835  34.171  12.250
63851W        W30282  24.089  15.220   1.052
63852W        W30283  21.575  32.712  13.866
63853W        W30284  34.944   2.228   1.624
63854W        W30285   3.666  35.381   2.533
63855W        W30286   0.911  17.116  10.673
63856W        W30287  36.871  44.872   1.339
63857W        W30288  23.141  42.431   1.629
63858W        W30289  20.256  28.450  10.629
63859W        W30290   1.162  41.653   3.190
63860W        W30291  19.757  13.192   0.267
63861W        W30292  40.444   6.306   0.768
63862W        W30293  30.331  14.155  13.856
63863W        W30294   1.734  37.454  12.045
63864W        W30295  24.491  44.514   4.455
63865W        W30296  11.138  36.924   0.123
63866W        W30297   8.959  13.898  14.505
63867W        W30298   7.779  40.437   1.523
63868W        W30299  14.827   4.322  12.943
63869W        W30300  34.166  28.618  10.952
63870W        W30301  19.847  14.212   4.031
63871W        W30302  17.734  14.901   5.123
63872W        W30303  27.784  41.397  11.881
63873W        W30304   7.597  22.681  14.762
63874W        W30305  26.398  44.448  12.777
63875W        W30306  39.886  14.603   2.223
63876W        W30307  29.002   0.002   1.313
63877W        W30308  17.634   0.872   1.195
63878W        W30309  23.230  17.312  14.672
63879W        W30310   6.459  43.944  13.408
63880W        W30311  36.434  17.351   4.126
63881W        W30312   4.185  22.714   2.732
63882W        W30313  36.649   8.676  11.566
63883W        W30314   2.372  10.564  12.396
63884W        W30315  36.661  33.182   4.682
63885W        W30316  20.100  41.791  12.448
63886W        W30317  38.186  15.283  13.330
63887W        W30318  42.431  27.043  14.404
63888W        W30319   1.669  37.410  11.163
63889W        W30320  23.791  13.605  12.357
63890W        W30321   2.471   9.317  12.617
63891W        W30322   1.310  14.284   4.459
63892W        W30323  15.209   4.662   2.270
63893W        W30324  40.781   9.208   0.027
63894W        W30325   4.951  44.335   3.631
63895W        W30326  41.940  12.770   1.863
63896W        W30327  44.139  11.654   3.257
63897W        W30328  41.533  42.736   2.261
63898W        W30329  16.509  41.156  11.281
63899W        W30330  37.664  26.209  13.933
63900W        W30331  31.415   8.889  11.732
63901W        W30332  38.124  40.151  13.899
63902W        W30333  39.456  41.466  14.091
63903W        W30334  26.098  10.414  13.913
63904W        W30335  33.049  32.009  12.067
63905W        W30336  22.084  37.183   1.659
63906W        W30337  20.020  12.742   1.698
63907W        W30338   7.890  15.788  12.657
63908W        W30339  21.561   3.562   3.543
63909W        W30340  12.655  18.539  13.594
63910W        W30341  18.237  24.611  12.615
63911W        W30342   5.329   9.966   2.840
63912W        W30343  20.561  44.274   4.651
63913W        W30344  37.985  33.454   3.208
63914W        W30345  44.667   8.378  14.881
63915W        W30346   7.505  26.155   2.334
63916W        W30347  41.591  30.457   3.739
63917W        W30348  31.382   0.049   2.057
63918W        W30349  29.069  31.157   4.477
63919W        W30350  40.521  21.204   4.764
63920W        W30351  33.877  18.835   4.897
63921W        W30352  35.502  19.365   2.472
63922W        W30353  21.386  22.491   0.418
63923W        W30354   3.039  30.057   2.225
63924W        W30355  39.520  18.219  12.441
63925W        W30356   4.408  43.015  14.895
63926W        W30357  22.615   6.672  13.587
63927W        W30358  43.793  20.142  11.231
63928W        W30359  34.553   3.872  12.516
63929W        W30360   2.859  28.051  12.366
63930W        W30361  10.604   8.667   4.747
63931W        W30362  36.923  16.748  13.955
63932W        W30363  40.624   3.035  13.893
63933W        W30364  37.857  15.430   5.075
63934W        W30365   9.621   8.781  12.323
63935W        W30366  11.408  35.092  14.108
63936W        W30367  43.132  34.214  10.210
63937W        W30368  22.504   4.438   3.302
63938W        W30369  36.343  24.671  11.654
63939W        W30370   9.112  44.887  14.757
63940W        W30371   3.792   3.874   3.615
63941W        W30372  35.137  32.925  12.600
63942W        W30373   8.735  18.827   4.202
63943W        W30374  33.521  43.508  12.964
63944W        W30375  11.735   5.296   0.491
63945W        W30376   1.003   1.421  13.256
63946W        W30377   2.664  15.684   4.222
63947W        W30378   1.973   4.183   2.598
63948W        W30379  19.066  23.320   3.230
63949W        W30380  22.939  16.058   2.647
63950W        W30381  24.201  37.020   3.715
63951W        W30382  37.094  21.781  11.036
63952W        W30383  21.610  32.700   0.186
63953W        W30384  38.566  26.123  11.428
63954W        W30385  38.043  44.437  10.596
63955W        W30386  36.946  30.583   1.937
63956W        W30387  28.327   9.210  12.403
63957W        W30388  24.344  19.283   1.704
63958W        W30389   2.130  10.587  11.934
63959W        W30390  37.379  27.884   0.285
63960W        W30391  24.114   7.179  13.330
63961W        W30392  18.365  12.697  11.282
63962W        W30393   4.773  21.328  11.391
63963W        W30394  28.653   1.273  10.760
63964W        W30395   7.184  33.107   1.655
63965W        W30396  32.605  32.021  12.311
63966W        W30397  21.760  43.864  13.876
63967W        W30398  37.324  36.570  13.720
63968W        W30399  12.012   9.848  12.662
63969W        W30400  31.362   5.750   1.091
63970W        W30401  25.689  14.823  12.438
63971W        W30402  29.957  41.112   0.429
63972W        W30403   2.263  27.714   1.472
63973W        W30404  22.415  15.293   2.769
63974W        W30405  28.915  40.297  12.957
63975W        W30406  44.277  18.109   3.681
63976W        W30407  15.398   1.923  14.699
63977W        W30408  37.336   9.437   1.883
63978W        W30409   4.255  38.850   4.057
63979W        W30410  39.257   4.431  13.962
63980W        W30411  26.534   6.685  13.437
63981W        W30412  10.641  38.018   4.290
63982W        W30413  35.140  12.198   0.564
63983W        W30414  32.154  23.068   0.302
63984W        W30415  15.179   9.342  14.224
63985W        W30416  44.056   9.095   0.788
63986W        W30417   6.764  42.597   2.402
63987W        W30418  15.579  11.153  13.067
63988W        W30419  10.254  39.369   3.580
63989W        W30420  29.996  35.815   0.397
63990W        W30421  30.678  27.321  12.542
63991W        W30422  34.625  41.533  10.980
63992W        W30423  15.629   8.672   4.526
63993W        W30424  42.563  16.626  12.882
63994W        W30425  26.175   8.367  12.919
63995W        W30426  14.880   0.381   0.405
63996W        W30427  17.698  31.183   2.237
63997W        W30428   4.452  11.780  12.461
63998W        W30429  26.076  35.086   2.634
63999W        W30430  11.836  40.112   1.916
64000W        W30431  17.314   7.793   3.677
64001W        W30432  20.294  17.235  13.755
64002W        W30433  40.877   7.878   0.431
64003W        W30434  27.458  26.996  13.503
64004W        W30435  42.688   7.717   3.829
64005W        W30436   5.934  18.326   3.224
64006W        W30437  27.275  20.575   1.442
64007W        W30438   4.977  27.699  12.615
64008W        W30439   2.807  17.112  10.736
64009W        W30440  37.887  26.272  12.161
64010W        W30441  44.803  22.169   3.829
64011W        W30442   6.689   8.951  12.988
64012W        W30443   3.218   8.211  14.822
64013W        W30444  44.539  22.155   0.794
64014W        W30445  24.064   7.673  11.645
64015W        W30446  42.007  36.627   3.345
64016W        W30447  12.070  44.216  12.012
64017W        W30448  31.720  33.844  12.339
64018W        W30449  28.025  33.999  12.458
64019W        W30450  36.981  43.415  13.471
64020W        W30451   0.303  32.502  12.054
64021W        W30452  40.696  35.451   1.956
64022W        W30453  33.946  42.850  10.129
64023W        W30454   2.232  23.603  14.745
64024W        W30455  38.931  43.758  12.311
64025W        W30456  12.644  18.728  12.945
64026W        W30457  37.083  17.147   4.835
64027W        W30458   1.949  18.185  14.265
64028W        W30459   7.218  37.715   4.282
64029W        W30460  36.741  19.732   2.591
64030W        W30461  40.339   8.869   4.500
64031W        W30462  15.331   8.410   1.942
64032W        W30463  16.567  29.109  11.161
64033W        W30464  33.691  27.684   1.915
64034W        W30465  28.340  29.494  14.294
64035W        W30466   6.464  14.584  13.047
64036W        W30467  18.709  18.197   1.822
64037W        W30468   1.539  20.559   4.918
64038W        W30469  39.865  40.121  14.906
64039W        W30470  24.179   0.536  12.553
64040W        W30471  42.610   9.893   4.784
64041W        W30472  27.359  15.545  11.111
64042W        W30473   9.771  25.886   2.095
64043W        W30474  35.054  17.782  14.220
64044W        W30475  43.401   9.884   3.176
64045W        W30476  36.287  35.937   3.718
64046W        W30477   1.337  41.458   1.084
64047W        W30478  41.504  34.473  12.556
64048W        W30479  36.944  44.311   4.837
64049W        W30480  16.972  41.508   4.082
64050W        W30481  43.381  12.295   3.163
64051W        W30482  23.144  36.266   4.495
64052W        W30483  42.790   9.295  11.191
64053W        W30484  13.790   6.313   0.058
64054W        W30485  39.278  44.549   1.635
64055W        W30486   0.868  37.626  12.641
64056W        W30487  35.554  18.111  10.858
64057W        W30488  32.269  18.429  11.032
64058W        W30489   9.250   2.805  12.181
64059W        W30490  40.976  39.958  11.661
64060W        W30491   8.905  28.210  11.581
64061W        W30492  12.080  35.972   3.052
64062W        W30493  23.091   0.533   2.202
64063W        W30494  38.440  16.192  14.942
64064W        W30495  37.777  31.599   3.685
64065W        W30496  30.908   4.824   4.846
64066W        W30497  43.925  10.292   2.375
64067W        W30498  44.339  39.402   2.714
64068W        W30499   3.287   7.565   0.688
64069W        W30500  20.081  33.072  14.375
64070W        W30501  14.210  38.546  13.845
64071W        W30502  25.062  24.172   2.737
64072W        W30503  31.640  40.589   0.450
64073W        W30504  31.056  26.829   1.096
64074W        W30505   1.327  18.287   2.311
64075W        W30506  28.973  18.169  13.163
64076W        W30507   5.214  44.774  14.864
64077W        W30508   5.942  20.967   5.025
64078W        W30509  42.922  40.831  10.988
64079W        W30510  33.943  38.231  11.047
64080W        W30511  32.257  26.566  12.562
64081W        W30512  41.073  28.996   2.726
64082W        W30513   6.430  35.970   0.469
64083W        W30514  28.213   7.164  11.989
64084W        W30515  22.643  41.781   1.816
64085W        W30516  36.093   6.454   4.009
64086W        W30517  39.431  41.911   3.209
64087W        W30518  33.860  42.881   0.802
64088W        W30519  15.872  25.742   4.967
64089W        W30520  38.378  43.021   4.995
64090W        W30521  11.681  21.868  13.817
64091W        W30522  39.812  26.149  12.819
64092W        W30523   8.843  44.138   3.162
64093W        W30524  38.530  37.935   3.873
64094W        W30525  12.323  26.399  13.938
64095W        W30526  43.210  17.135   2.306
64096W        W30527  11.051  24.791  14.881
64097W        W30528  10.927  14.146   1.032
64098W        W30529  40.117   9.848   4.266
64099W        W30530  23.184  11.699   4.579
64100W        W30531  24.429  30.681  11.121
64101W        W30532  21.707  42.941  14.781
64102W        W30533  28.206  16.733  12.665
64103W        W30534   2.496  19.877   9.874
64104W        W30535  10.486  35.996  14.352
64105W        W30536  15.150  44.333  11.638
64106W        W30537  32.138  36.851  13.848
64107W        W30538   2.805  41.398  10.572
64108W        W30539  26.241  25.338   3.703
64109W        W30540   4.144  16.084  12.031
64110W        W30541  24.935   8.180   3.836
64111W        W30542  36.775  14.109  11.932
64112W        W30543   1.754  43.447  14.784
64113W        W30544  23.576   8.189  11.960
64114W        W30545  10.817  15.798  13.874
64115W        W30546  33.025   6.459   0.204
64116W        W30547   1.786  24.028  14.791
64117W        W30548  33.878  18.430  10.836
64118W        W30549  32.074  41.360   3.813
64119W        W30550  26.718  32.741   9.737
64120W        W30551   4.166  21.185  11.931
64121W        W30552   1.929  37.761  11.609
64122W        W30553   5.706  25.177   3.228
64123W        W30554  40.996  34.409  12.517
64124W        W30555  10.485  13.289   0.759
64125W        W30556   2.876  11.217   3.177
64126W        W30557  30.370  11.077   2.516
64127W        W30558  20.514  22.147  11.320
64128W        W30559  38.542  30.070   5.413
64129W        W30560   0.711  15.028   0.333
64130W        W30561  43.893  21.180  11.037
64131W        W30562  13.536  25.561   3.842
64132W        W30563   1.866  34.059   2.116
64133W        W30564  44.039  25.142   2.694
64134W        W30565  28.907  39.376   1.266
64135W        W30566  41.929   7.217   0.471
64136W        W30567   8.966  43.151   1.774
64137W        W30568   8.191  16.206   4.007
64138W        W30569   4.962  24.692  12.963
64139W        W30570  36.237   8.137  10.884
64140W        W30571  33.419   6.127  11.984
64141W        W30572  39.591  18.963  13.114
64142W        W30573  26.080  35.128   4.534
64143W        W30574  16.771  36.054  14.076
64144W        W30575  37.445   8.220   1.997
64145W        W30576  25.146  12.755   2.845
64146W        W30577  38.114  44.272  13.542
64147W        W30578  27.178  26.654   4.658
64148W        W30579  15.144  40.424   4.241
64149W        W30580  41.978   1.242   1.718
64150W        W30581  34.012  37.319   0.041
64151W        W30582   7.812  22.607   2.461
64152W        W30583  33.505  21.328   0.674
64153W        W30584  42.833   0.944   2.826
64154W        W30585  15.139  39.993   2.356
64155W        W30586  16.834  12.961   3.156
64156W        W30587  11.162   2.394   4.248
64157W        W30588  11.649  43.764   0.343
64158W        W30589  24.382  31.100  12.729
64159W        W30590  19.030  40.645  13.949
64160W        W30591  13.176  26.248   2.179
64161W        W30592  15.905   6.409  14.009
64162W        W30593   4.875   1.687  11.202
64163W        W30594  36.856  11.728   2.751
64164W        W30595  42.549  31.684   2.812
64165W        W30596  32.851  18.069  12.461
64166W        W30597  30.417  29.053  11.465
64167W        W30598  27.169  23.013   1.818
64168W        W30599  43.850   1.769  13.322
64169W        W30600   1.416  21.399   1.324
64170W        W30601  43.271  25.223   4.163
64171W        W30602   0.672   5.863   2.763
64172W        W30603  29.851  15.573  11.076
64173W        W30604   0.484   1.263   1.646
64174W        W30605  28.735   2.314  11.291
64175W        W30606  16.410   7.245   0.498
64176W        W30607   6.720   1.657  12.658
64177W        W30608   6.140  36.972  10.924
64178W        W30609  41.344   8.591  13.879
64179W        W30610  37.092  43.325  10.629
64180W        W30611  28.564   8.078  14.316
64181W        W30612   2.826  32.271  11.870
64182W        W30613  33.782  17.124  14.554
64183W        W30614  31.688  21.085  13.917
64184W        W30615   8.290  41.989   1.131
64185W        W30616   4.730  28.814   4.627
64186W        W30617  44.833  42.824   2.664
64187W        W30618  31.353  13.353  12.234
64188W        W30619  34.563  40.844   1.314
64189W        W30620  12.279  31.363   3.859
64190W        W30621  16.060  38.935  13.411
64191W        W30622  28.117  15.649  10.535
64192W        W30623  35.118  41.606   1.290
64193W        W30624  11.444   8.000  13.519
64194W        W30625  28.764   0.371   0.633
64195W        W30626  27.741   6.898   0.734
64196W        W30627  22.785  29.924  14.318
64197W        W30628  10.342  42.613  13.455
64198W        W30629   2.290  19.590  13.276
64199W        W30630  42.798  15.124   0.963
64200W        W30631  24.118  14.541   5.098
64201W        W30632  21.856  43.440   2.620
64202W        W30633   3.509  20.766   4.868
64203W        W30634   5.813   2.384   0.865
64204W        W30635   2.344  26.361   3.672
64205W        W30636  40.655  25.121   3.291
64206W        W30637  41.929  23.478  12.368
64207W        W30638  40.309  26.358   0.815
64208W        W30639  31.046  14.739   0.474
64209W        W30640   8.588  18.458   1.441
64210W        W30641  19.722   1.363   2.633
64211W        W30642  29.443  19.782   2.777
64212W        W30643  25.218  34.144  13.475
64213W        W30644   3.972  39.565  11.000
64214W        W30645   6.028   1.956  11.578
64215W        W30646  17.489  28.218   2.250
64216W        W30647  38.964  30.888   1.380
64217W        W30648  36.974  17.248  14.716
64218W        W30649  15.503  10.980  14.377
64219W        W30650   6.331   8.431   0.924
64220W        W30651  25.778  21.474  12.067
64221W        W30652  10.044  25.773   4.205
64222W        W30653  16.283   1.391   0.242
64223W        W30654  20.361  15.303   1.686
64224W        W30655  29.918  36.617  10.650
64225W        W30656  15.593  19.287  12.922
64226W        W30657  31.137  22.488  12.534
64227W        W30658  14.347  24.134   3.217
64228W        W30659   9.229   9.119  13.953
64229W        W30660  42.159  21.538   0.426
64230W        W30661  27.927  17.819   3.636
64231W        W30662  41.682  28.025   0.451
64232W        W30663  44.857  42.800  11.058
64233W        W30664   5.582  21.010  10.755
64234W        W30665  20.075  13.596   2.568
64235W        W30666  34.532  21.461  11.445
64236W        W30667   0.062   2.198  13.197
64237W        W30668  13.680  28.126   0.242
64238W        W30669   2.353  39.923   4.460
64239W        W30670   1.314  44.976  13.067
64240W        W30671  31.374  23.392  12.054
64241W        W30672  24.294  25.971   2.197
64242W        W30673  22.505  21.332  11.263
64243W        W30674  41.718   3.373  10.292
64244W        W30675  29.962  35.151   5.084
64245W        W30676  32.345  38.372  12.172
64246W        W30677  32.861  42.008   3.453
64247W        W30678  12.593   0.853   2.349
64248W        W30679  19.988  18.417   4.495
64249W        W30680  26.910  43.700   3.193
64250W        W30681  20.654  35.638  12.029
64251W        W30682   2.527  28.181  12.012
64252W        W30683  41.274   0.926   0.280
64253W        W30684  40.610  12.107  12.526
64254W        W30685  28.609  32.122   1.380
64255W        W30686  27.535   9.615   4.051
64256W        W30687  13.196  20.551   3.232
64257W        W30688  34.124   6.289   1.394
64258W        W30689   5.284  17.044   3.134
64259W        W30690  35.959  12.883   4.024
64260W        W30691  14.203  11.375  10.752
64261W        W30692  11.793   6.456   3.780
64262W        W30693  13.088  43.393  11.257
64263W        W30694  22.053  39.608   0.681
64264W        W30695  22.022  21.019   2.305
64265W        W30696  40.078  18.074   2.379
64266W        W30697   0.331  38.596   1.705
64267W        W30698  33.023  19.226   2.338
64268W        W30699  38.119  44.213  12.184
64269W        W30700  17.603  16.262  12.581
64270W        W30701  42.206  28.106   0.393
64271W        W30702   4.736  29.509  10.659
64272W        W30703  16.097  29.745  11.045
64273W        W30704  29.630  13.862  13.412
64274W        W30705   3.211  23.053   2.903
64275W        W30706  17.823  43.855   3.446
64276W        W30707  20.786  24.360   0.525
64277W        W30708  32.826  13.412  12.082
64278W        W30709  29.085   2.948  10.832
64279W        W30710   1.933  30.037  13.347
64280W        W30711  31.306  16.900   4.218
64281W        W30712  33.628  20.763  14.898
64282W        W30713  19.084  27.571  11.235
64283W        W30714  32.446   6.681  10.595
64284W        W30715  26.608  40.427   3.118
64285W        W30716  14.598  16.108  12.917
64286W        W30717  32.140  11.666   0.984
64287W        W30718  31.090  24.501   0.712
64288W        W30719  14.989  41.354  13.022
64289W        W30720   7.444   6.661   3.164
64290W        W30721  24.400  20.238   2.386
64291W        W30722  13.283  10.541  13.401
64292W        W30723  32.973  43.911   2.789
64293W        W30724  29.575  35.376  12.060
64294W        W30725  30.257  32.092   3.369
64295W        W30726  43.807   6.793   0.390
64296W        W30727  12.471  39.962  13.006
64297W        W30728   8.238  40.132   3.676
64298W        W30729  40.293  40.345  14.706
64299W        W30730   6.743  40.218   4.340
64300W        W30731  19.577  18.557  13.351
64301W        W30732  34.342   9.684   2.867
64302W        W30733  34.869  15.373  11.130
64303W        W30734  10.284   1.762   0.965
64304W        W30735  24.162  14.160   1.748
64305W        W30736  41.293  18.867   0.740
64306W        W30737  12.456   3.406   2.434
64307W        W30738  10.673  34.851  10.144
64308W        W30739  21.293  25.001  13.750
64309W        W30740  32.463  22.232  11.679
64310W        W30741   5.967  36.503  12.644
64311W        W30742  18.279  40.458  14.365
64312W        W30743  29.661   2.806   4.284
64313W        W30744   3.903   8.356  11.374
64314W        W30745  16.337  35.339   2.959
64315W        W30746  40.499   1.040  11.896
64316W        W30747  36.229  35.962   1.121
64317W        W30748  30.248  41.212   0.836
64318W        W30749  42.734   5.227  12.615
64319W        W30750   9.374  26.048   3.309
64320W        W30751   1.857   1.064  13.245
64321W        W30752   0.436  44.781  10.514
64322W        W30753  11.138  41.506  11.595
64323W        W30754  14.788  22.698  11.142
64324W        W30755   3.288  10.822  14.444
64325W        W30756  44.478  42.774  14.858
64326W        W30757   6.500  15.577   1.787
64327W        W30758   9.374  36.308  14.663
64328W        W30759  24.530   3.625  13.951
64329W        W30760  37.658   6.693   2.733
64330W        W30761  23.831  16.808   1.746
64331W        W30762  36.815  22.766  13.831
64332W        W30763  35.716   1.314  10.809
64333W        W30764  42.876  10.173  10.725
64334W        W30765   2.690  13.310  11.878
64335W        W30766  17.040  44.262  14.128
64336W        W30767  32.661  38.554   3.877
64337W        W30768   4.730  40.958  12.813
64338W        W30769   4.886  28.099  13.403
64339W        W30770  19.778  42.403   4.581
64340W        W30771  37.446  16.310  11.139
64341W        W30772  13.886  32.322  13.810
64342W        W30773  29.833  15.267   2.928
64343W        W30774  35.378  34.189   3.462
64344W        W30775  25.713  27.623   0.468
64345W        W30776   9.741  21.861  13.304
64346W        W30777   1.418  42.268   0.595
64347W        W30778   1.976  16.088  13.395
64348W        W30779  34.505   9.144   1.434
64349W        W30780  35.732  42.917  10.690
64350W        W30781  34.103  18.077   0.501
64351W        W30782   0.890   0.245  11.607
64352W        W30783   2.491   7.349   2.756
64353W        W30784  15.164  29.403  12.550
64354W        W30785  42.745  31.071   2.766
64355W        W30786  31.015   5.724  13.221
64356W        W30787  16.805   4.431   1.153
64357W        W30788  39.734  37.255  11.057
64358W        W30789   6.977  18.290  14.786
64359W        W30790  18.839  29.584  11.457
64360W        W30791   3.042  31.594   1.397
64361W        W30792  17.196  23.076  12.006
64362W        W30793  42.008  19.281   4.353
64363W        W30794  20.184  40.756  12.537
64364W        W30795  11.902   7.278   2.796
64365W        W30796  20.984  17.778   3.204
64366W        W30797  42.077   3.328  11.747
64367W        W30798  31.300   5.395  14.914
64368W        W30799  41.545  40.410   4.561
64369W        W30800   6.150   9.312   0.813
64370W        W30801  16.071   6.586  11.132
64371W        W30802  23.708  24.655  12.022
64372W        W30803  39.324   6.726   3.184
64373W        W30804   5.387  42.984   2.852
64374W        W30805   6.898  23.189   3.174
64375W        W30806  33.514  36.252  12.526
64376W        W30807   9.590  27.676   1.737
64377W        W30808  21.390   0.907   1.760
64378W        W30809   8.715  37.080  10.638
64379W        W30810  16.807  11.909  13.158
64380W        W30811  34.875  22.547   1.431
64381W        W30812  44.078  36.225  11.502
64382W        W30813  21.202   6.188  10.858
64383W        W30814  26.073   0.222   2.437
64384W        W30815  13.470  42.379   2.309
64385W        W30816  19.269  28.895  14.311
64386W        W30817   4.921  43.808  12.573
64387W        W30818  14.250  18.764   2.729
64388W        W30819  19.171   0.928  12.570
64389W        W30820  10.583   5.383  12.889
64390W        W30821  39.575   9.603   0.791
64391W        W30822  31.894   1.912  13.859
64392W        W30823  31.086  19.569   1.412
64393W        W30824  22.078   9.342  10.627
64394W        W30825   8.105  14.758  13.832
64395W        W30826  20.622   9.301   0.047
64396W        W30827  29.554  33.309   3.166
64397W        W30828  16.416  44.009   3.251
64398W        W30829  17.085  38.606   3.233
64399W        W30830  33.949  21.462  13.538
64400W        W30831  25.548  11.277  10.744
64401W        W30832  25.781  41.814   0.937
64402W        W30833   4.856  41.337   4.554
64403W        W30834   3.483  26.691  12.839
64404W        W30835  40.346   3.210  14.328
64405W        W30836  30.028   5.331   3.377
64406W        W30837  29.392   5.152   1.331
64407W        W30838  39.377  34.897  14.569
64408W        W30839  10.603  37.819  13.982
64409W        W30840  11.881  11.840  13.487
64410W        W30841  11.907  30.160   4.591
64411W        W30842  18.414  25.859  14.766
64412W        W30843  21.240  15.622  11.128
64413W        W30844  17.602   3.199   3.453
64414W        W30845  19.749  12.741  11.195
64415W        W30846  42.122  38.670  11.009
64416W        W30847  40.951  41.064  10.612
64417W        W30848  28.736  34.743  13.712
64418W        W30849  43.310  22.960  13.779
64419W        W30850  34.585  18.236  13.003
64420W        W30851  29.098  28.631   4.549
64421W        W30852  20.139  29.742   0.525
64422W        W30853  31.660  23.034   4.613
64423W        W30854  12.282  29.950   2.203
64424W        W30855   2.438  38.566  11.639
64425W        W30856  15.805  26.429  11.250
64426W        W30857  21.600  43.281  12.010
64427W        W30858  14.632  27.657  10.555
64428W        W30859  24.101  14.091   0.270
64429W        W30860  12.341   0.421   0.170
64430W        W30861  27.774  41.325  12.888
64431W        W30862  26.169   7.689   0.688
64432W        W30863  26.719  18.494  12.428
64433W        W30864  22.158  20.431  12.961
64434W        W30865   6.498  38.094   2.785
64435W        W30866  18.648  19.534  10.989
64436W        W30867  30.502  35.407   2.276
64437W        W30868  31.560  13.763   1.100
64438W        W30869   2.840  26.057  11.194
64439W        W30870  33.377  18.173  12.430
64440W        W30871  42.403   9.660  13.021
64441W        W30872   4.415   0.658  14.295
64442W        W30873  36.882  44.444   4.263
64443W        W30874  33.108  35.409   4.146
64444W        W30875  22.943  30.183   3.394
64445W        W30876  24.002  24.810  11.613
64446W        W30877  41.226  25.675  14.851
64447W        W30878  40.768  32.680   1.775
64448W        W30879   5.495  32.917  12.637
64449W        W30880   2.014   1.702   4.426
64450W        W30881   4.878  43.077   2.681
64451W        W30882  42.297  17.137  14.909
64452W        W30883   3.329  26.688  12.349
64453W        W30884  38.781  39.944   3.259
64454W        W30885  20.507  37.902  11.559
64455W        W30886  23.042   4.781   0.013
64456W        W30887  22.710  22.908   2.791
64457W        W30888   8.433  16.810   0.821
64458W        W30889  44.934  37.449   3.365
64459W        W30890   6.286  13.854   1.060
64460W        W30891  42.192   3.905   2.431
64461W        W30892   7.707   2.496  13.832
64462W        W30893  25.995  38.887  11.073
64463W        W30894  11.465  32.834   2.375
64464W        W30895   2.846  26.538   3.826
64465W        W30896  28.501   9.308  11.932
64466W        W30897  41.194  41.256   0.263
64467W        W30898  25.140   2.303   0.680
64468W        W30899  26.739   8.695  12.622
64469W        W30900  22.494  35.363  12.816
64470W        W30901  38.856  40.927   1.873
64471W        W30902  28.442  44.507  11.122
64472W        W30903  29.196  37.874   2.702
64473W        W30904   2.879  44.753  14.134
64474W        W30905  28.180  42.955   0.847
64475W        W30906   9.499  40.977  12.085
64476W        W30907  27.067  24.595   4.948
64477W        W30908   7.131  14.165  12.420
64478W        W30909   9.914   7.531  12.441
64479W        W30910   6.674  12.845   1.282
64480W        W30911   6.972  12.316   4.616
64481W        W30912  42.503  37.085  11.609
64482W        W30913  29.156   7.905   3.628
64483W        W30914  34.895  20.778  14.387
64484W        W30915  41.758  10.694  14.340
64485W        W30916  31.930  41.956   1.706
64486W        W30917  16.068   3.797  13.039
64487W        W30918  19.298  31.976  12.466
64488W        W30919  34.421  40.142  11.581
64489W        W30920  18.311  20.337  12.258
64490W        W30921  32.075  23.295  12.550
64491W        W30922  20.297  23.516  13.668
64492W        W30923  33.854  29.188   3.081
64493W        W30924   2.777  43.835  10.673
64494W        W30925  42.818  22.547   4.072
64495W        W30926  10.683   4.851  10.414
64496W        W30927  38.797  23.301   2.374
64497W        W30928   2.999  16.340   0.284
64498W        W30929  28.648  24.503   0.771
64499W        W30930   7.661  44.019  12.325
64500W        W30931  27.010   5.540  12.979
64501W        W30932  36.656  12.450  12.410
64502W        W30933   8.396  22.533   1.732
64503W        W30934   3.350  25.280  12.696
64504W        W30935   9.681   7.764  11.297
64505W        W30936  23.477  11.308  12.588
64506W        W30937  24.757  31.892  11.185
64507W        W30938  40.857  23.106   4.564
64508W        W30939   1.886   7.050   0.937
64509W        W30940  40.082  16.401   1.462
64510W        W30941  34.603  44.697  14.936
64511W        W30942   0.219   3.746  14.433
64512W        W30943  10.860  24.291  10.659
64513W        W30944  33.508  38.851  11.756
64514W        W30945  13.894  12.661  11.612
64515W        W30946  39.305   6.989  14.348
64516W        W30947  42.334  27.257   1.181
64517W        W30948  13.055  24.142   0.668
64518W        W30949  33.938  41.694  10.724
64519W        W30950  34.324  34.403   1.863
64520W        W30951  19.743   8.931  10.882
64521W        W30952  40.852  18.665   1.939
64522W        W30953  10.200  28.463  11.928
64523W        W30954  25.039  37.114   1.871
64524W        W30955  40.737   3.966  14.324
64525W        W30956  33.541  17.277   0.056
64526W        W30957   2.507  43.578  11.244
64527W        W30958   7.757   0.201  14.414
64528W        W30959  40.533  22.469   1.157
64529W        W30960  31.124  36.505   2.278
64530W        W30961   0.714  24.224  10.715
64531W        W30962  23.597  30.621  11.541
64532W        W30963  26.438  11.296   0.787
64533W        W30964  12.560   4.478  11.314
64534W        W30965  32.558   7.440   1.006
64535W        W30966  30.485  40.746   0.860
64536W        W30967  32.509  43.695   3.655
64537W        W30968  42.685   3.510  12.162
64538W        W30969   7.405  36.758  14.481
64539W        W30970  10.967  35.134   4.205
64540W        W30971  12.796  19.322  12.058
64541W        W30972   8.084  33.592  13.278
64542W        W30973  32.098  23.140   2.155
64543W        W30974   4.354   7.866  11.206
64544W        W30975  40.602  26.435   0.334
64545W        W30976  42.776   3.269   4.654
64546W        W30977   3.785   7.896   1.393
64547W        W30978   0.893  10.327  10.247
64548W        W30979  35.503   4.572  11.600
64549W        W30980  37.018   3.574  14.918
64550W        W30981   6.899   9.163  14.330
64551W        W30982  44.906  36.944  12.916
64552W        W30983   0.499  31.136  13.912
64553W        W30984  36.075  32.623  13.286
64554W        W30985  39.417  12.068  13.834
64555W        W30986  44.561  44.857   3.130
64556W        W30987  18.593   6.334   1.855
64557W        W30988  17.442  37.468   2.366
64558W        W30989  11.263  13.554   0.026
64559W        W30990   8.357  21.707   0.330
64560W        W30991  18.167  26.703   0.734
64561W        W30992  27.434  13.104   4.387
64562W        W30993  20.794  28.172  11.070
64563W        W30994  33.335  25.629   2.025
64564W        W30995   1.323  15.985  13.021
64565W        W30996   4.539  15.647  12.868
64566W        W30997  17.578  39.883  14.319
64567W        W30998  16.288  34.407  12.551
64568W        W30999  28.604  41.827   3.138
64569W        W31000  31.135  32.591   4.686
64570W        W31001  34.023  17.629   1.422
64571W        W31002  15.490  15.209   5.000
64572W        W31003  28.544  27.464   3.258
64573W        W31004  12.063   9.164   1.387
64574W        W31005   8.693  41.908   4.050
64575W        W31006  23.155  36.799  14.883
64576W        W31007  25.419  23.109  13.973
64577W        W31008  16.667  11.192   5.317
64578W        W31009   6.042   9.814   2.667
64579W        W31010  33.891   5.296   2.195
64580W        W31011  41.578  36.547  10.634
64581W        W31012  11.712  11.779  11.524
64582W        W31013  32.042   1.712   4.454
64583W        W31014  10.766   5.190   2.956
64584W        W31015  12.817  27.556  12.865
64585W        W31016  40.168  31.569   4.779
64586W        W31017   9.221  35.544   0.436
64587W        W31018  27.040   1.560   0.949
64588W        W31019  39.967  29.176  14.394
64589W        W31020   7.358  11.127   1.445
64590W        W31021   8.500   5.061   3.321
64591W        W31022  33.063  41.158   4.042
64592W        W31023  29.377  12.734   0.456
64593W        W31024  17.979  19.112  14.445
64594W        W31025  31.415  27.175   1.266
64595W        W31026  16.226  22.913   2.448
64596W        W31027  18.731  32.519  13.507
64597W        W31028  22.758   5.464   2.385
64598W        W31029  17.069  36.799  10.973
64599W        W31030  28.923  42.172   3.728
64600W        W31031  20.642  42.130  12.436
64601W        W31032  30.452  41.551   1.658
64602W        W31033  25.298  17.099  12.554
64603W        W31034   5.011  40.874   4.767
64604W        W31035  18.831  41.366   0.275
64605W        W31036  24.160   4.792   1.739
64606W        W31037  20.872  13.242   2.785
64607W        W31038   3.360  18.300  12.866
64608W        W31039  21.592   9.157  10.629
64609W        W31040  22.658   9.734  14.492
64610W        W31041   2.443  13.935   0.942
64611W        W31042  26.603  16.443   2.826
64612W        W31043  18.650   1.974  13.055
64613W        W31044  26.007  16.842  14.315
64614W        W31045   8.691  30.262   4.477
64615W        W31046  13.336  41.158  14.734
64616W        W31047  32.422  37.607   1.752
64617W        W31048  24.139  13.623  10.630
64618W        W31049  39.088  15.702  13.970
64619W        W31050  43.591  23.672  11.523
64620W        W31051  25.564   6.915  14.426
64621W        W31052   3.228   7.322  14.328
64622W        W31053  31.721  35.138  13.015
64623W        W31054   8.276   2.962  10.844
64624W        W31055   0.679   3.932  14.586
64625W        W31056   1.549   7.126  13.663
64626W        W31057  11.776  42.108   1.862
64627W        W31058  26.133  24.083   2.852
64628W        W31059  27.540  43.163  11.197
64629W        W31060  26.131   2.454   4.624
64630W        W31061  20.792  33.120   3.160
64631W        W31062  13.059  18.841  10.633
64632W        W31063  40.806  44.955  12.195
64633W        W31064  24.507  27.664   1.908
64634W        W31065  31.110  32.927   3.863
64635W        W31066  31.484  10.640   0.217
64636W        W31067  39.831  44.805   0.430
64637W        W31068  40.332  35.540  10.707
64638W        W31069   5.216   7.205  13.835
64639W        W31070  23.771  34.231   4.583
64640W        W31071  38.109  44.971  14.805
64641W        W31072  29.883  10.126   3.189
64642W        W31073  22.485  34.010   0.441
64643W        W31074  18.721  11.248   1.813
64644W        W31075  31.569  22.817  14.610
64645W        W31076  18.044  30.743   1.172
64646W        W31077  33.269  13.682   1.623
64647W        W31078   9.935  15.059   0.797
64648W        W31079   8.732  14.713  10.799
64649W        W31080  25.924  38.102   3.969
64650W        W31081  34.044  10.751   3.214
64651W        W31082   1.945  36.677   0.955
64652W        W31083  12.898   0.012  12.685
64653W        W31084  38.973  26.021   1.834
64654W        W31085  10.635  25.781  11.104
64655W        W31086  20.082  30.356   1.669
64656W        W31087   5.445   5.916   0.307
64657W        W31088   6.918  22.927  10.920
64658W        W31089   1.005  37.557   1.352
64659W        W31090   0.844  19.555   2.218
64660W        W31091  33.990   8.647   4.766
64661W        W31092  17.682  36.743   4.478
64662W        W31093   8.203  39.368  11.814
64663W        W31094  29.167  18.236   0.418
64664W        W31095  35.087  18.100   2.320
64665W        W31096  30.225  41.967  10.636
64666W        W31097  16.754   5.855  12.502
64667W        W31098  16.766  20.634  11.508
64668W        W31099  25.706  27.145   2.229
64669W        W31100  29.668  32.948  10.619
64670W        W31101  22.574  25.460   4.729
64671W        W31102   3.986  32.049   2.899
64672W        W31103  31.565  22.881  12.997
64673W        W31104  42.500   9.830  10.560
64674W        W31105   8.366  18.647   1.909
64675W        W31106  39.047  14.604   0.908
64676W        W31107  26.678  14.089  13.125
64677W        W31108  21.254  31.502   4.764
64678W        W31109   1.438  18.548  13.428
64679W        W31110  34.976  32.178  10.904
64680W        W31111   3.823  36.852  10.809
64681W        W31112   1.847  37.514   1.200
64682W        W31113   1.640  16.135   2.791
64683W        W31114  25.932  19.995  12.929
64684W        W31115  42.523  40.519  11.083
64685W        W31116  18.449  39.582   0.408
64686W        W31117  36.168   0.485  11.137
64687W        W31118  26.960  21.734   3.659
64688W        W31119   5.757  38.773   4.146
64689W        W31120   7.188  14.791   0.481
64690W        W31121  15.267  15.808   0.371
64691W        W31122  28.606  23.912   2.000
64692W        W31123  39.631  31.409   0.722
64693W        W31124  21.949  41.365  11.387
64694W        W31125  31.620  30.137   1.999
64695W        W31126   6.353  27.501   0.357
64696W        W31127   6.351  20.654  12.140
64697W        W31128  44.023  25.290   0.570
64698W        W31129  38.858  33.460  10.763
64699W        W31130  32.519  40.001  13.432
64700W        W31131  19.669   7.937   3.069
64701W        W31132   5.753   5.322  10.754
64702W        W31133  34.351   2.975   1.483
64703W        W31134  22.088  27.236   4.212
64704W        W31135  20.540  22.528   2.110
64705W        W31136  38.928  14.709   1.781
64706W        W31137  27.414   3.742  12.982
64707W        W31138  34.518  32.903   1.825
64708W        W31139  14.582  17.225  11.093
64709W        W31140  24.691  39.360  13.171
64710W        W31141   7.774  42.881  11.297
64711W        W31142  35.775  30.705  13.090
64712W        W31143  12.730   5.799   4.564
64713W        W31144  17.043  44.979   4.420
64714W        W31145  30.607   3.721   2.238
64715W        W31146   4.652  16.625   1.323
64716W        W31147  25.219  44.265  13.370
64717W        W31148  30.222  26.905   0.877
64718W        W31149  27.475  20.266   1.809
64719W        W31150   6.268   8.934  12.116
64720W        W31151  42.610  39.374   0.385
64721W        W31152  43.610  10.113  14.667
64722W        W31153  19.714  28.408   4.972
64723W        W31154  32.586  11.001  13.496
64724W        W31155  18.088   0.509   3.045
64725W        W31156  20.585  35.841   4.533
64726W        W31157  37.454  18.611  12.942
64727W        W31158   0.628   5.640   1.365
64728W        W31159   8.207  43.872  10.686
64729W        W31160  15.366  40.477   2.563
64730W        W31161   3.252  13.960   4.085
64731W        W31162  12.270  37.296   4.717
64732W        W31163  33.108  35.152  13.037
64733W        W31164  12.331  19.316   2.192
64734W        W31165   0.300  11.936   3.295
64735W        W31166  43.250  16.816   1.340
64736W        W31167   4.356  13.627   4.426
64737W        W31168   4.151  19.653   3.133
64738W        W31169  10.905  21.125  14.418
64739W        W31170  11.647  28.020   2.129
64740W        W31171  37.237  42.439   2.602
64741W        W31172   0.812  34.948   3.952
64742W        W31173  31.007   7.213   2.331
64743W        W31174  27.009  18.119   4.171
64744W        W31175  24.686   8.781   4.559
64745W        W31176  29.363   8.267  14.806
64746W        W31177  12.025  17.671   0.589
64747W        W31178  23.982  22.236   1.321
64748W        W31179  12.378  10.666   1.181
64749W        W31180  27.739  13.321  13.963
64750W        W31181  11.533  32.111   1.015
64751W        W31182  14.495   6.671  13.976
64752W        W31183  29.842  36.835   4.135
64753W        W31184   8.361   4.187  12.970
64754W        W31185  42.587  40.021  14.956
64755W        W31186  32.299  44.772   0.419
64756W        W31187  36.644  41.883   4.581
64757W        W31188  28.992  19.236  10.783
64758W        W31189  40.434  23.650   3.412
64759W        W31190   0.758  26.747  13.772
64760W        W31191  33.864  26.468  11.958
64761W        W31192  36.361  35.878   2.294
64762W        W31193  24.581  36.326  10.650
64763W        W31194  27.739  11.412   2.897
64764W        W31195   3.257  44.414   2.898
64765W        W31196   9.532  24.541   4.594
64766W        W31197  35.438  24.689   0.968
64767W        W31198   4.908  20.991  14.702
64768W        W31199  23.708  34.432  12.022
64769W        W31200  27.697  43.606  14.812
64770W        W31201  25.451  32.289  11.991
64771W        W31202  12.408  27.471   1.009
64772W        W31203  32.096  44.480   1.161
64773W        W31204  28.828  29.122  14.832
64774W        W31205  22.043   7.867  12.725
64775W        W31206  28.544  33.461  11.909
64776W        W31207   0.518  30.985  11.441
64777W        W31208  24.617   5.829   3.400
64778W        W31209   1.807  35.552  14.953
64779W        W31210  37.742  12.871   1.515
64780W        W31211  24.213  26.733   2.965
64781W        W31212  33.047  10.765  14.967
64782W        W31213   6.713  26.216  13.644
64783W        W31214  35.449  38.479   5.022
64784W        W31215  33.624  31.681  13.369
64785W        W31216   8.209  19.175  14.740
64786W        W31217  18.742   2.721  14.433
64787W        W31218  44.250   0.751   3.177
64788W        W31219   8.642   3.777  11.467
64789W        W31220  25.432  14.820  11.156
64790W        W31221  11.398   1.822  11.679
64791W        W31222  19.292   7.575   4.321
64792W        W31223   9.603  27.196  12.093
64793W        W31224  35.743  34.027   3.149
64794W        W31225  34.395  40.428   3.297
64795W        W31226  19.104   6.265   3.441
64796W        W31227   1.477  24.446   2.795
64797W        W31228  20.612   0.386   4.238
64798W        W31229  28.989  28.664   2.683
64799W        W31230   5.324  33.070  11.711
64800W        W31231   1.943   6.891   1.450
64801W        W31232  19.402  36.367   0.136
64802W        W31233  34.829  35.541   0.925
64803W        W31234  27.505  24.179  14.023
64804W        W31235  41.452  21.416   2.483
64805W        W31236  10.088  11.635   1.851
64806W        W31237  26.136  33.160   3.943
64807W        W31238  23.193  40.780  13.958
64808W        W31239   1.421  17.046  14.819
64809W        W31240   4.780  43.654  13.041
64810W        W31241  30.505  25.569  13.502
64811W        W31242  34.903  37.666  13.947
64812W        W31243  21.324  17.396  14.689
64813W        W31244  34.574   1.232  11.872
64814W        W31245  18.455  37.905  10.244
64815W        W31246  44.207   0.286  13.905
64816W        W31247   5.408  15.309   3.746
64817W        W31248  26.519  44.045  14.433
64818W        W31249  27.501   4.608  14.764
64819W        W31250  32.365  38.084   2.702
64820W        W31251   8.929  36.195  12.864
64821W        W31252  28.372   2.412  11.676
64822W        W31253  10.158  44.992   4.644
64823W        W31254   9.689  26.006  12.357
64824W        W31255  26.058  12.853  10.725
64825W        W31256  28.927  42.484  13.828
64826W        W31257   9.394   8.947   2.820
64827W        W31258  21.253   6.402   1.804
64828W        W31259  10.108  40.502   5.036
64829W        W31260   2.515   2.282   2.253
64830W        W31261  16.286  19.041   3.593
64831W        W31262   2.696  38.798   2.756
64832W        W31263  19.548  40.301   3.814
64833W        W31264  14.966   0.670   2.959
64834W        W31265  20.487  32.344   3.591
64835W        W31266   2.239  40.422   3.604
64836W        W31267  10.808  13.910  14.010
64837W        W31268  23.173  14.396   4.887
64838W        W31269  19.098  15.194  13.340
64839W        W31270  32.566  33.411   2.828
64840W        W31271   5.721  18.084   3.657
64841W        W31272  15.442  22.582  11.537
64842W        W31273  23.155  42.485  10.481
64843W        W31274  22.720  17.537   4.969
64844W        W31275  36.389  17.143  12.057
64845W        W31276  19.051  24.732  12.002
64846W        W31277  19.703  30.094   0.364
64847W        W31278   4.148  31.244  12.588
64848W        W31279   7.328  11.597  13.529
64849W        W31280  42.326   9.354   4.096
64850W        W31281  29.787  40.957   2.554
64851W        W31282  36.358  15.523   4.683
64852W        W31283  14.164  32.919  12.544
64853W        W31284  40.904  10.846   3.489
64854W        W31285  12.571  35.821  10.832
64855W        W31286  22.375  11.149  12.154
64856W        W31287   6.845  24.792  13.802
64857W        W31288  23.794  43.851  11.641
64858W        W31289  15.693  24.614   3.918
64859W        W31290   9.158  24.933  11.186
64860W        W31291  28.513  19.247   2.129
64861W        W31292  42.882  20.799  12.887
64862W        W31293  14.931   7.875  12.721
64863W        W31294  39.302  32.079  13.985
64864W        W31295  11.751  19.742  13.468
64865W        W31296  37.954   1.390  11.865
64866W        W31297  20.373  35.927  13.401
64867W        W31298  20.741  27.127  12.573
64868W        W31299  21.611  36.022   4.532
64869W        W31300  36.033  14.329  12.507
64870W        W31301   3.269   7.027   0.917
64871W        W31302  31.210   1.051  11.989
64872W        W31303   1.433  16.680   3.824
64873W        W31304   3.712  42.923   4.539
64874W        W31305  39.986  16.070   2.771
64875W        W31306   7.171  23.314   1.400
64876W        W31307  19.465  38.627   4.936
64877W        W31308  22.766  36.008   1.219
64878W        W31309  30.588  11.847   2.699
64879W        W31310  16.683  15.028  14.556
64880W        W31311  33.714   6.224   2.342
64881W        W31312  39.591   8.096   0.821
64882W        W31313  35.034  39.811   1.809
64883W        W31314   1.228   2.850   1.303
64884W        W31315  31.706  27.618   3.705
64885W        W31316  17.101  14.487   0.372
64886W        W31317  39.384  20.940  11.185
64887W        W31318  28.940  12.541  14.017
64888W        W31319   1.436  44.530  12.374
64889W        W31320   5.707  24.405  14.360
64890W        W31321  26.947  36.604  10.634
64891W        W31322  32.929   9.626   4.233
64892W        W31323   4.186  39.128  11.861
64893W        W31324   2.042   0.804   1.332
64894W        W31325   9.145  24.694  12.479
64895W        W31326  21.518  37.915  14.674
64896W        W31327   1.495   5.696  12.640
64897W        W31328   1.269  13.124   4.512
64898W        W31329  19.250  18.750   3.886
64899W        W31330   2.463  35.152   2.249
64900W        W31331  10.223   7.714   3.211
64901W        W31332   7.728  32.992  12.558
64902W        W31333  19.239  33.650   5.118
64903W        W31334   5.699  32.724   3.593
64904W        W31335  42.027  32.127   4.493
64905W        W31336   0.546  19.698  12.906
64906W        W31337   9.346  14.580  14.870
64907W        W31338  25.237   1.401   1.202
64908W        W31339  26.240   9.320   1.473
64909W        W31340  19.438  20.213   2.642
64910W        W31341  31.087  33.969  11.765
64911W        W31342  41.525  12.069  12.579
64912W        W31343  25.645   5.224  12.463
64913W        W31344  40.447  38.963  11.159
64914W        W31345  38.328  34.580  10.995
64915W        W31346   5.419  34.842  11.443
64916W        W31347  37.999   4.859   1.110
64917W        W31348  29.174  42.559  14.436
64918W        W31349  28.014  27.872   1.850
64919W        W31350   5.331  39.777  12.472
64920W        W31351   3.489  34.135   2.275
64921W        W31352  16.309  22.448   2.836
64922W        W31353  32.709  10.707   3.257
64923W        W31354  42.493  14.188  11.968
64924W        W31355  33.951  40.432  11.562
64925W        W31356  15.825   0.460   3.175
64926W        W31357   1.437  26.006   4.827
64927W        W31358   1.205  25.505   0.700
64928W        W31359  13.438  23.046   1.794
64929W        W31360  22.024   7.011  14.784
64930W        W31361  30.334   8.784  13.493
64931W        W31362  42.850   2.382   0.689
64932W        W31363  34.807  42.699  11.922
64933W        W31364  15.243  16.244  13.438
64934W        W31365  29.052  42.278   2.311
64935W        W31366   0.850  21.413  13.449
64936W        W31367  18.944  35.280  13.869
64937W        W31368  31.134  16.627   4.639
64938W        W31369  29.050  26.094   4.473
64939W        W31370   4.317  31.886   3.277
64940W        W31371  25.569  24.188  12.414
64941W        W31372   0.508  30.411   0.881
64942W        W31373  29.202   4.369   1.577
64943W        W31374  17.403   6.276  12.901
64944W        W31375  33.089   2.627  12.077
64945W        W31376  44.012  36.099  14.664
64946W        W31377  28.986  23.190   2.682
64947W        W31378   9.922  38.747  13.804
64948W        W31379  34.727  43.451  11.260
64949W        W31380  11.168  35.109  12.071
64950W        W31381  44.135  37.813   2.744
64951W        W31382  40.913  26.219  11.471
64952W        W31383  28.439   9.637   2.945
64953W        W31384  29.088  16.897   2.177
64954W        W31385  40.017  26.493   1.259
64955W        W31386  41.320   8.105  10.751
64956W        W31387  34.604   5.265  13.115
64957W        W31388  30.850   7.713  11.626
64958W        W31389  25.511   9.631   1.928
64959W        W31390  28.665   4.083  10.670
64960W        W31391  42.520  24.149   4.386
64961W        W31392  37.411  11.478   3.255
64962W        W31393   8.283  26.972  12.630
64963W        W31394   4.806  12.153  13.849
64964W        W31395  15.569   3.747  12.901
64965W        W31396  15.782  19.755  14.697
64966W        W31397   5.806  42.560   4.562
64967W        W31398  30.596  32.930  14.350
64968W        W31399  16.009  28.046   9.898
64969W        W31400  13.800   0.333   1.372
64970W        W31401  35.684  28.836   0.819
64971W        W31402   8.828  41.816   2.251
64972W        W31403  37.821  36.840   3.245
64973W        W31404  43.206   5.057   1.439
64974W        W31405  33.481   7.281   3.642
64975W        W31406  43.714  22.565   4.567
64976W        W31407  18.784  43.378   2.864
64977W        W31408  24.497  25.910   0.971
64978W        W31409  24.190   5.965  10.886
64979W        W31410  28.666  13.524  13.105
64980W        W31411   7.204   1.817  12.566
64981W        W31412  21.296  18.636   3.075
64982W        W31413  13.876  40.758   0.236
64983W        W31414  25.033  30.268   2.580
64984W        W31415   6.193  43.327   4.135
64985W        W31416  18.054   7.859   0.942
64986W        W31417  34.872  34.276   2.607
64987W        W31418  41.372  22.590   2.762
64988W        W31419  10.179   5.712  13.697
64989W        W31420   9.474  37.982   1.247
64990W        W31421  32.806   8.295  13.911
64991W        W31422  36.794  22.707  12.117
64992W        W31423  36.133  39.813   1.668
64993W        W31424   0.916  13.917   2.679
64994W        W31425  16.319   9.812  13.523
64995W        W31426  34.761  15.391   1.255
64996W        W31427   4.872  40.755   0.850
64997W        W31428  41.893  35.108   0.811
64998W        W31429  28.793  44.870  13.841
64999W        W31430  38.340  29.195  14.010
65000W        W31431  25.493  18.688   3.347
65001W        W31432  26.482  13.150  10.707
65002W        W31433  11.318  18.071   0.338
65003W        W31434  18.221   8.103   4.054
65004W        W31435  32.579   2.417  13.363
65005W        W31436  30.315  26.249  11.218
65006W        W31437  43.877   0.303   0.660
65007W        W31438  11.137  21.851  13.931
65008W        W31439   2.295  42.479   0.994
65009W        W31440  32.684  23.674   2.326
65010W        W31441  38.530  20.011   4.761
65011W        W31442  31.745  14.668  10.781
65012W        W31443  29.119  29.716   0.434
65013W        W31444  40.899  38.935  13.696
65014W        W31445  27.640  31.049   1.903
65015W        W31446  34.336  33.794  10.352
65016W        W31447  21.712  31.544   4.500
65017W        W31448  12.044  22.815   4.066
65018W        W31449  27.164  21.660  10.924
65019W        W31450   1.647  24.739   4.082
65020W        W31451  11.880  29.680   2.367
65021W        W31452  33.538  25.682  14.495
65022W        W31453  30.995  29.505   3.289
65023W        W31454   4.336  18.992   1.503
65024W        W31455  42.807  43.325   1.732
65025W        W31456  17.960  15.444  14.531
65026W        W31457   1.241  41.152   3.102
65027W        W31458  41.854  44.679  13.023
65028W        W31459  35.777  22.704   4.476
65029W        W31460  32.888  40.891  10.406
65030W        W31461   7.413  19.754  14.007
65031W        W31462  40.011  34.464   4.860
65032W        W31463  16.332   2.075  14.074
65033W        W31464  15.458  10.325   1.032
65034W        W31465  23.692  20.750  14.917
65035W        W31466   4.101  20.769  11.161
65036W        W31467  37.261  35.898  12.934
65037W        W31468  20.321  40.521   0.794
65038W        W31469  15.883  23.329  10.600
65039W        W31470  40.270   8.149  13.199
65040W        W31471  11.675   0.700   3.310
65041W        W31472  42.146  31.163   3.579
65042W        W31473  37.258   8.070  13.933
65043W        W31474  41.040   5.869   4.068
65044W        W31475   9.106  34.479   0.728
65045W        W31476  19.019  24.612   2.596
65046W        W31477  40.979  36.181   4.066
65047W        W31478  44.279   3.778   4.427
65048W        W31479  19.481  19.633   0.639
65049W        W31480  12.884   7.385  10.708
65050W        W31481   0.243  41.760  12.687
65051W        W31482  12.115  20.366  14.372
65052W        W31483  11.446  28.470   1.723
65053W        W31484  26.355  33.998   1.199
65054W        W31485  19.531  27.216   1.030
65055W        W31486  43.987  28.099  14.310
65056W        W31487  26.067  34.581  11.709
65057W        W31488   8.048   8.548   1.266
65058W        W31489  19.041   4.122  13.995
65059W        W31490  17.400  24.603   5.361
65060W        W31491   1.721  39.424  12.767
65061W        W31492  44.989   1.809   0.317
65062W        W31493   5.231  44.038   2.103
65063W        W31494  17.837  41.770  14.257
65064W        W31495   0.022  29.454  13.398
65065W        W31496  20.308   7.914   5.117
65066W        W31497  21.561  36.448   1.489
65067W        W31498  44.266   7.142  11.378
65068W        W31499  38.829   5.405  14.706
65069W        W31500  28.533  16.846  11.778
65070W        W31501  38.018   7.397   1.823
65071W        W31502  43.746   2.957  11.469
65072W        W31503   6.929  22.481  11.152
65073W        W31504   5.100  21.074  12.428
65074W        W31505  13.919   0.307  11.189
65075W        W31506  21.826  42.439   0.520
65076W        W31507  25.997   4.738   0.380
65077W        W31508   0.469  19.491   5.053
65078W        W31509  35.413  40.351  13.320
65079W        W31510  28.077  22.925  13.794
65080W        W31511  44.927  24.309  13.590
65081W        W31512  43.931  34.036   1.676
65082W        W31513  17.611   2.732  14.083
65083W        W31514  44.331   4.786  14.509
65084W        W31515   1.967  15.955   1.882
65085W        W31516  43.278  27.621  14.344
65086W        W31517  19.153  41.894   2.624
65087W        W31518   7.346   4.030  13.009
65088W        W31519  44.376  37.847   3.540
65089W        W31520  11.324  23.932   0.462
65090W        W31521  35.522  32.178  10.735
65091W        W31522  12.893  33.677  10.635
65092W        W31523  30.788   1.963  12.303
65093W        W31524  32.077   6.243   1.187
65094W        W31525  41.342  35.656   0.756
65095W        W31526  44.338  10.120  11.548
65096W        W31527  23.441  35.433   0.920
65097W        W31528   3.544  41.848  13.456
65098W        W31529  19.239  11.874   4.615
65099W        W31530  18.200  13.283  12.636
65100W        W31531  14.829  21.962  11.961
65101W        W31532  28.862  11.641   4.351
65102W        W31533   6.907  41.512   1.791
65103W        W31534  29.875  29.984   0.067
65104W        W31535  37.915   2.213  11.214
65105W        W31536   4.191  21.590  13.131
65106W        W31537   7.105  35.587   2.960
65107W        W31538  12.683  42.333  13.487
65108W        W31539  31.478  34.268  13.498
65109W        W31540  14.754  12.277  11.140
65110W        W31541   7.815  34.317   3.192
65111W        W31542   3.356  17.586  12.500
65112W        W31543  38.900  25.566   2.056
65113W        W31544  22.787  33.961   4.765
65114W        W31545  13.787   2.751  12.583
65115W        W31546  35.083  13.635   2.691
65116W        W31547  17.828  44.292  11.917
65117W        W31548  22.200   0.106  12.077
65118W        W31549   6.629   9.983  13.029
65119W        W31550  32.526   9.454   2.840
65120W        W31551   8.764  14.136  12.604
65121W        W31552  43.357   7.434   0.959
65122W        W31553  34.430   9.156  12.966
65123W        W31554  31.421  43.966  13.144
65124W        W31555  36.755  36.166  13.454
65125W        W31556  44.485  10.725  13.543
65126W        W31557   0.199  21.555  13.982
65127W        W31558  40.534  34.143  10.695
65128W        W31559  16.088  18.595   4.512
65129W        W31560   2.852   2.285   1.870
65130W        W31561   5.914  32.381   0.897
65131W        W31562   1.834  19.316   0.275
65132W        W31563  35.094  39.382  12.608
65133W        W31564  16.666  40.313  11.454
65134W        W31565  32.398  32.444   0.374
65135W        W31566  36.762  33.122   3.712
65136W        W31567  40.330  29.482   1.628
65137W        W31568  32.755  22.549   1.952
65138W        W31569  23.688  28.455   2.408
65139W        W31570  26.528  24.193   1.825
65140W        W31571   0.879  29.424   3.513
65141W        W31572  28.641   7.660  11.164
65142W        W31573  41.654   2.942  13.131
65143W        W31574  15.073  27.166  14.792
65144W        W31575  21.492  44.064   1.734
65145W        W31576   0.984  17.761   2.936
65146W        W31577  42.231   6.530  13.043
65147W        W31578  10.136  41.224  14.953
65148W        W31579  23.593  26.960   5.284
65149W        W31580  40.919  15.217  10.733
65150W        W31581  23.683   2.037   3.649
65151W        W31582  26.986  25.887  11.493
65152W        W31583  44.977  16.013   2.067
65153W        W31584  17.129  40.302   3.163
65154W        W31585  30.455  44.403   2.569
65155W        W31586   8.397  37.641  14.892
65156W        W31587  15.762  30.223  10.846
65157W        W31588  15.213  36.291  12.510
65158W        W31589  31.489  37.777   1.276
65159W        W31590  24.490  34.348   2.833
65160W        W31591  35.613  34.737   2.331
65161W        W31592  19.076   5.816  10.375
65162W        W31593   4.773  17.825   1.521
65163W        W31594   4.915  27.869  11.441
65164W        W31595  15.137  15.779  11.094
65165W        W31596  12.513  40.408  10.703
65166W        W31597   6.189  14.769  14.237
65167W        W31598   7.344  40.434   1.278
65168W        W31599  22.118  22.563   0.796
65169W        W31600  37.587  43.263  10.735
65170W        W31601  22.198   8.111   4.393
65171W        W31602  14.401  42.333  11.595
65172W        W31603  16.304  22.437   3.731
65173W        W31604  12.610  21.703   2.264
65174W        W31605   6.371  28.876  14.985
65175W        W31606   9.743  16.050  10.259
65176W        W31607   0.352  44.376  13.097
65177W        W31608  30.435  24.751   3.688
65178W        W31609  11.406  42.511  12.831
65179W        W31610   3.123  29.655  11.138
65180W        W31611  11.178  38.764  14.490
65181W        W31612  27.613   3.901   1.794
65182W        W31613  27.206  17.834   0.226
65183W        W31614  35.921  38.046  13.934
65184W        W31615   8.053   3.159   1.168
65185W        W31616  36.583  29.608  13.902
65186W        W31617  27.264  32.811   4.116
65187W        W31618  40.445  41.106   1.383
65188W        W31619  14.313  39.275  10.588
65189W        W31620  38.760  39.303  11.976
65190W        W31621  14.115   7.945  11.123
65191W        W31622   0.345  32.396   3.627
65192W        W31623  38.077  27.113  10.676
65193W        W31624  24.285  17.205   3.435
65194W        W31625  23.616   4.741   1.722
65195W        W31626  26.133  27.865   4.505
65196W        W31627   8.865  12.388   3.644
65197W        W31628  28.396  21.363  13.013
65198W        W31629  37.912  17.659  12.716
65199W        W31630   9.587  27.336   2.431
65200W        W31631  31.414  11.839  11.469
65201W        W31632  22.945  27.547  14.002
65202W        W31633  23.732  13.159  14.316
65203W        W31634  13.236   4.885   0.261
65204W        W31635   3.380  43.736   1.170
65205W        W31636  18.933  25.162  13.924
65206W        W31637  24.921  22.084  12.603
65207W        W31638  42.068  35.607   1.657
65208W        W31639  15.769  14.016  14.882
65209W        W31640  20.572  20.771  12.890
65210W        W31641  19.102  10.317  14.818
65211W        W31642  16.244   0.940   3.879
65212W        W31643  21.209  23.614  11.948
65213W        W31644  26.379   9.029   2.255
65214W        W31645  22.759  41.460   0.271
65215W        W31646  17.740  37.276  12.004
65216W        W31647  34.394  20.518  13.084
65217W        W31648  35.385  37.674  14.475
65218W        W31649  44.389  11.202   3.198
65219W        W31650  17.678   6.246  10.796
65220W        W31651   4.005  42.794   1.252
65221W        W31652   7.526   2.363  14.968
65222W        W31653  13.429  16.799  10.703
65223W        W31654  32.402  12.875   4.575
65224W        W31655  42.504  18.532  12.087
65225W        W31656  27.002  27.939  14.350
65226W        W31657  28.192  21.207  10.653
65227W        W31658  24.217   5.341  13.837
65228W        W31659  18.227   7.665  14.909
65229W        W31660  34.479  12.258   4.565
65230W        W31661  10.625  21.885   0.548
65231W        W31662   8.791  18.210   2.345
65232W        W31663  35.681  39.047   0.343
65233W        W31664  26.504  35.875   2.779
65234W        W31665   8.929  43.221   3.095
65235W        W31666  36.847  35.619   2.386
65236W        W31667  11.724  13.085   1.356
65237W        W31668  27.476  37.435  13.125
65238W        W31669  12.141  27.681  13.431
65239W        W31670  36.548   3.802   0.008
65240W        W31671   6.843  15.657   0.377
65241W        W31672  27.034  33.331  13.244
65242W        W31673  26.641   9.888   0.894
65243W        W31674  36.265  18.376   3.191
65244W        W31675  32.254  19.956   3.815
65245W        W31676   0.628   6.719   1.156
65246W        W31677  21.673  31.631   0.462
65247W        W31678   8.856  35.120   3.212
65248W        W31679  36.087   4.462  14.557
65249W        W31680  14.720   9.168   4.523
65250W        W31681  21.972   6.229  12.017
65251W        W31682   5.899  20.288  10.261
65252W        W31683  16.049  37.064   3.122
65253W        W31684  44.300  41.172  14.535
65254W        W31685  17.360  19.778  14.134
65255W        W31686  32.405  30.108   0.913
65256W        W31687   7.155  29.115   0.369
65257W        W31688  41.306  36.566   0.815
65258W        W31689  39.509  41.878   1.001
65259W        W31690   4.437   8.546  13.032
65260W        W31691  13.384   6.761   0.717
65261W        W31692   0.441   8.703   3.588
65262W        W31693  15.860  26.144   4.157
65263W        W31694   0.475  38.517  13.419
65264W        W31695  32.546  20.213   2.917
65265W        W31696  18.753  14.441  11.609
65266W        W31697  23.696  11.640  14.282
65267W        W31698  15.669   8.168  10.673
65268W        W31699  13.691  33.865  13.798
65269W        W31700   9.874  23.519   1.796
65270W        W31701  40.896  10.279  14.263
65271W        W31702  34.173   5.985   3.264
65272W        W31703  19.754   3.968  12.107
65273W        W31704  22.747  23.916  10.580
65274W        W31705  36.425  44.801   4.961
65275W        W31706  19.983  22.140  12.953
65276W        W31707  20.414  43.258  11.532
65277W        W31708  42.958  22.511   3.595
65278W        W31709  24.471   1.161  14.117
65279W        W31710  39.561  10.689  11.168
65280W        W31711  21.381  35.489  11.043
65281W        W31712  17.324  18.347   0.747
65282W        W31713   6.244  42.536   4.869
65283W        W31714  42.548  10.158  11.928
65284W        W31715  17.078  34.851   3.573
65285W        W31716  22.513  36.932   1.539
65286W        W31717  41.972  24.777  10.783
65287W        W31718  42.223  33.683   2.743
65288W        W31719  18.878  19.040   0.444
65289W        W31720  36.317  11.877  11.869
65290W        W31721  44.314  22.635   2.634
65291W        W31722  11.193  10.075  10.703
65292W        W31723  33.451   3.170   0.205
65293W        W31724  25.724   1.361  11.260
65294W        W31725  43.117   4.117  10.913
65295W        W31726  24.616  16.349   3.049
65296W        W31727  41.757  20.118  12.075
65297W        W31728   3.659  42.129   3.807
65298W        W31729  16.132  37.976  14.414
65299W        W31730  42.367  28.229   3.435
65300W        W31731  22.964  41.883   4.356
65301W        W31732  41.639   2.319   0.661
65302W        W31733   9.212  33.161   2.913
65303W        W31734  14.458  34.088  13.034
65304W        W31735  34.385   0.578  12.401
65305W        W31736  26.767   5.308   4.893
65306W        W31737  29.281  11.740   4.071
65307W        W31738  28.653  29.170  12.451
65308W        W31739   9.280  29.365  11.952
65309W        W31740  15.440  33.540   5.099
65310W        W31741  21.529   7.689  14.289
65311W        W31742  21.989  11.688  13.434
65312W        W31743  17.289  38.653   5.067
65313W        W31744  39.854  39.117   3.249
65314W        W31745  17.630  42.427   3.565
65315W        W31746   7.877   8.073   1.091
65316W        W31747  13.014  22.993  11.385
65317W        W31748   3.645  10.845  12.771
65318W        W31749   1.231  11.305   0.611
65319W        W31750  30.462  27.529  13.441
65320W        W31751  22.299   2.873   2.024
65321W        W31752  16.668   0.900   4.208
65322W        W31753  13.825   7.158  14.993
65323W        W31754  20.048   6.893   0.693
65324W        W31755  30.352  21.307   3.674
65325W        W31756  34.868  16.807   1.437
65326W        W31757   7.694   0.458   4.627
65327W        W31758  15.606  36.909  13.695
65328W        W31759  32.933   6.011   4.741
65329W        W31760   9.160  39.598  10.667
65330W        W31761  27.189  22.098   3.351
65331W        W31762  36.193  10.272   1.771
65332W        W31763  43.751   2.299  12.116
65333W        W31764  38.820   6.665  12.455
65334W        W31765  19.325   0.359   2.064
65335W        W31766  25.625  32.501  12.430
65336W        W31767  36.779   0.856   0.413
65337W        W31768  44.541   2.384   2.761
65338W        W31769  28.582   4.902   3.532
65339W        W31770  11.623  25.966   0.525
65340W        W31771  33.785  22.701   0.779
65341W        W31772  23.942  15.786  14.992
65342W        W31773  15.225  44.469   4.790
65343W        W31774  20.180  25.282  12.009
65344W        W31775  22.673  16.027  13.430
65345W        W31776  30.428  19.891  14.430
65346W        W31777  33.199   2.864   1.987
65347W        W31778  24.690  25.522   1.311
65348W        W31779   1.969  30.476   1.954
65349W        W31780  21.953  27.458   2.733
65350W        W31781  21.609   4.201  13.633
65351W        W31782   5.781  44.310   4.086
65352W        W31783  10.216  27.162  10.184
65353W        W31784  15.344   8.914  13.290
65354W        W31785  44.302   6.679  11.148
65355W        W31786  43.302  35.498  14.244
65356W        W31787  30.593  36.502   0.316
65357W        W31788  37.560  34.645   1.834
65358W        W31789  10.771  18.215  11.744
65359W        W31790  25.232   7.708   3.794
65360W        W31791  32.062  35.269   4.491
65361W        W31792  25.305  34.798  14.363
65362W        W31793  32.542  15.808   4.580
65363W        W31794   3.823  25.155   4.766
65364W        W31795   5.359  34.240   1.165
65365W        W31796  21.847  36.038   1.617
65366W        W31797  30.617  44.479   4.226
65367W        W31798  26.685   5.341  10.774
65368W        W31799  43.369  30.572  13.523
65369W        W31800   7.879   8.209   4.583
65370W        W31801  41.015  34.135  10.454
65371W        W31802  35.244   0.454   1.245
65372W        W31803  22.474  29.065  11.515
65373W        W31804  16.107   6.371   0.770
65374W        W31805  38.001   1.577  11.387
65375W        W31806  43.739   1.270   3.623
65376W        W31807  43.421  37.970   3.096
65377W        W31808  22.176  29.921  13.129
65378W        W31809   6.173  18.227  12.453
65379W        W31810  32.143  25.679  12.998
65380W        W31811   4.186   5.733  14.398
65381W        W31812  15.537  36.942   3.059
65382W        W31813  42.861  30.634   0.488
65383W        W31814  37.693   6.769  14.084
65384W        W31815   5.527  34.377  11.683
65385W        W31816   9.872  24.934   3.958
65386W        W31817  38.796  28.056   2.274
65387W        W31818   4.857  37.050   3.356
65388W        W31819   1.760  18.309  11.933
65389W        W31820  39.549  28.551   4.478
65390W        W31821  19.803  12.276   3.272
65391W        W31822  28.249   8.814   1.928
65392W        W31823  14.388   7.391   0.225
65393W        W31824  35.429  43.745   4.619
65394W        W31825   4.304   7.327   1.052
65395W        W31826  41.455  19.393   2.358
65396W        W31827  17.724  34.347  11.360
65397W        W31828  34.888  27.172   4.503
65398W        W31829   9.831  41.421   1.138
65399W        W31830   2.995  43.399   1.254
65400W        W31831  27.576  44.225   4.586
65401W        W31832  19.064  26.940   0.973
65402W        W31833   4.731   3.126   4.885
65403W        W31834  16.297   3.201  11.633
65404W        W31835  39.934  14.869  13.347
65405W        W31836   2.844   7.871   2.830
65406W        W31837  16.305  10.744  11.951
65407W        W31838   9.081  27.134  14.702
65408W        W31839  13.272  20.457  13.924
65409W        W31840  22.630   7.983  12.001
65410W        W31841  11.466  24.708   2.634
65411W        W31842  12.537  15.855  14.905
65412W        W31843  13.190  31.516   3.704
65413W        W31844  13.674  41.811  14.796
65414W        W31845  33.329  23.465  14.028
65415W        W31846  14.200  16.731  10.256
65416W        W31847  21.720  37.452  11.567
65417W        W31848  17.050  43.032  13.370
65418W        W31849  14.126  28.673   1.359
65419W        W31850  11.743  39.124  11.620
65420W        W31851  27.957   1.846  11.119
65421W        W31852  16.224  44.352  13.557
65422W        W31853   1.814   0.379   3.468
65423W        W31854  23.935  17.394  10.240
65424W        W31855  27.042   5.626  12.043
65425W        W31856  43.181  12.623  13.828
65426W        W31857  42.923  38.997  14.715
65427W        W31858  21.159  28.958   2.193
65428W        W31859  39.971  30.189  13.284
65429W        W31860  10.772  32.988  14.529
65430W        W31861  27.209   0.516   2.871
65431W        W31862   4.848  31.842   2.599
65432W        W31863  40.896   7.393   2.143
65433W        W31864  34.380  16.801   1.221
65434W        W31865  35.650   5.993  11.955
65435W        W31866  41.657  41.028   2.872
65436W        W31867   3.916  19.005  10.212
65437W        W31868  18.713  31.990  14.332
65438W        W31869  42.310  25.764   1.418
65439W        W31870  10.229   0.679   2.827
65440W        W31871  44.681  39.051  14.492
65441W        W31872  39.986  16.489   3.090
65442W        W31873   3.931  29.445   1.886
65443W        W31874  36.899  40.682   5.047
65444W        W31875  34.472  24.958  11.028
65445W        W31876  41.709   4.856   3.238
65446W        W31877  27.260  37.604  11.480
65447W        W31878  41.008  25.091   2.514
65448W        W31879  11.637   4.420  13.623
65449W        W31880  19.774  31.027  13.446
65450W        W31881   1.849  37.114  13.454
65451W        W31882   6.811  10.714   4.604
65452W        W31883  36.600  34.407  12.968
65453W        W31884  26.150  44.892   4.986
65454W        W31885  43.110  36.985  13.508
65455W        W31886  25.984  15.535  13.958
65456W        W31887   1.886   9.920   2.067
65457W        W31888  23.312   1.713  11.495
65458W        W31889  11.196  38.980   3.679
65459W        W31890  20.333   7.278  12.665
65460W        W31891  31.563  21.614  13.883
65461W        W31892  14.687   9.726   0.936
65462W        W31893  25.926  16.761  11.689
65463W        W31894  16.347  43.491  11.185
65464W        W31895  30.524  41.511  10.597
65465W        W31896   9.424   3.273   0.506
65466W        W31897  15.307  23.421  12.420
65467W        W31898   6.638  23.377   3.592
65468W        W31899  17.411  29.874  10.744
65469W        W31900  35.452  33.049   3.078
65470W        W31901  23.572  41.292  12.562
65471W        W31902  40.442  33.789   4.156
65472W        W31903   7.816  43.307   3.726
65473W        W31904   0.864   9.360   4.150
65474W        W31905   4.583  42.287  11.884
65475W        W31906  40.870  27.933  14.976
65476W        W31907  16.750   2.614   4.325
65477W        W31908  29.122  23.516  11.582
65478W        W31909   2.863  39.257  12.557
65479W        W31910  31.703  17.611   1.139
65480W        W31911  18.730  25.232   3.753
65481W        W31912  15.456   9.777   4.624
65482W        W31913  37.785  41.222  11.543
65483W        W31914   8.722  27.137   0.472
65484W        W31915  34.398  33.551   0.831
65485W        W31916   4.765  37.551   3.262
65486W        W31917   5.264   4.814   1.939
65487W        W31918  43.044   0.830  14.440
65488W        W31919  24.192  42.439   4.213
65489W        W31920  44.461  29.117   3.158
65490W        W31921   7.840  37.589  10.772
65491W        W31922  15.571  34.198   2.243
65492W        W31923  15.479  30.560   3.752
65493W        W31924  26.953  40.434   2.098
65494W        W31925  17.699  26.690  13.384
65495W        W31926  23.703  31.567   4.643
65496W        W31927  38.447  15.054  11.988
65497W        W31928  24.708   3.324   4.243
65498W        W31929  43.948  29.625  11.289
65499W        W31930  41.513  17.336   0.821
65500W        W31931  27.557   2.833   4.279
65501W        W31932  19.899  40.199   5.085
65502W        W31933  36.870  40.510  12.021
65503W        W31934  14.913  32.560  13.955
65504W        W31935   3.230  15.292   1.415
65505W        W31936  27.069  27.243  12.444
65506W        W31937  25.604  36.593  10.584
65507W        W31938  35.332  33.731  13.094
65508W        W31939  11.547   8.257   1.338
65509W        W31940  17.792  35.566   1.731
65510W        W31941  39.129  10.790   3.695
65511W        W31942  32.057  34.381  11.161
65512W        W31943  39.861  12.843  14.904
65513W        W31944  32.495  44.226   3.593
65514W        W31945   8.268  26.665  13.061
65515W        W31946  22.993  11.980   1.435
65516W        W31947   8.217   3.237   1.658
65517W        W31948  23.453  31.568   5.090
65518W        W31949  33.641  17.218  12.642
65519W        W31950  43.899   1.988  10.596
65520W        W31951  30.435  40.849   3.109
65521W        W31952  34.890  44.687  10.607
65522W        W31953  33.929  38.585  14.692
65523W        W31954  25.990  43.846  10.941
65524W        W31955  38.028  30.845   2.621
65525W        W31956  15.225   9.128   1.184
65526W        W31957   6.775   5.367  11.630
65527W        W31958   8.784  30.607  12.644
65528W        W31959  13.017  38.350  12.387
65529W        W31960  37.863  14.675   3.741
65530W        W31961   0.277   9.257  12.094
65531W        W31962  33.405   6.476   3.515
65532W        W31963  30.791  40.940  12.431
65533W        W31964   2.933  38.862  14.621
65534W        W31965  17.636  24.125   5.409
65535W        W31966   8.583  34.165  11.012
65536W        W31967   3.358  40.071  11.544
65537W        W31968  30.700  25.835  12.074
65538W        W31969  10.323   2.987   4.221
65539W        W31970  42.095  12.265   2.717
65540W        W31971  44.123  16.596   3.353
65541W        W31972   9.860   4.266  13.902
65542W        W31973  22.945   4.242   3.532
65543W        W31974  11.863  38.462   2.866
65544W        W31975  25.592   6.964   0.375
65545W        W31976  26.627  43.294  11.394
65546W        W31977  43.105  34.629  12.555
65547W        W31978  34.830  28.493   3.144
65548W        W31979  33.625  38.569   9.743
65549W        W31980   5.904   6.405  12.225
65550W        W31981  13.217  15.786  14.416
65551W        W31982   9.057   4.007   3.754
65552W        W31983   4.169   0.666  12.612
65553W        W31984   8.178  21.101  10.797
65554W        W31985  41.417  10.884   4.942
65555W        W31986  39.583   4.497   3.429
65556W        W31987  23.618  25.450  11.075
65557W        W31988  11.583  38.826  12.000
65558W        W31989  20.795   8.561   0.380
65559W        W31990  27.050  28.469   1.549
65560W        W31991  14.409   7.785  12.091
65561W        W31992   2.140  39.011   2.260
65562W        W31993   2.861  17.858   0.902
65563W        W31994   8.641  43.787   1.192
65564W        W31995  26.537   4.650   1.715
65565W        W31996  34.579  32.640  12.019
65566W        W31997  20.095  44.697  10.473
65567W        W31998  35.412  43.383  10.737
65568W        W31999  12.201  35.632   0.361
65569W        W32000  35.589  20.671   4.587
65570W        W32001   1.949   7.602   2.916
65571W        W32002  19.739   9.610  12.521
65572W        W32003  15.307  39.929   4.214
65573W        W32004  34.521  13.278  13.559
65574W        W32005  10.624   3.401  10.563
65575W        W32006  42.824  31.009   4.750
65576W        W32007  17.588  43.085   2.394
65577W        W32008  35.506  29.890   2.345
65578W        W32009  18.065  24.635   2.100
65579W        W32010  29.015  10.814  12.867
65580W        W32011   1.208   0.298  14.303
65581W        W32012  15.737  25.681   0.486
65582W        W32013  42.015  22.563   2.092
65583W        W32014  43.424  17.350  10.728
65584W        W32015  24.932  23.461   4.633
65585W        W32016  38.874   9.883   4.554
65586W        W32017  18.377  21.181  12.405
65587W        W32018  26.639  17.933   1.661
65588W        W32019   7.813  30.108  12.151
65589W        W32020  16.958   5.115  10.729
65590W        W32021  19.569   4.447  10.832
65591W        W32022  13.948  13.400   2.898
65592W        W32023   1.837  27.087  14.810
65593W        W32024   5.707  33.713  11.134
65594W        W32025  36.428  14.532  10.715
65595W        W32026  28.337  26.159   2.914
65596W        W32027  16.045  37.312   3.819
65597W        W32028  41.885   8.781   2.164
65598W        W32029   2.327   2.733  11.543
65599W        W32030   8.392  13.704  11.646
65600W        W32031  43.431   7.926  11.979
65601W        W32032  12.495  34.927  10.883
65602W        W32033  11.636  14.426   2.568
65603W        W32034   3.418  21.244   3.168
65604W        W32035   6.511  19.150   0.806
65605W        W32036   4.931  29.986  10.719
65606W        W32037  30.669  39.647   3.594
65607W        W32038  36.623  18.661   1.838
65608W        W32039  17.306  13.328   1.373
65609W        W32040  18.023   6.632  14.156
65610W        W32041  14.628  11.139   1.687
65611W        W32042  39.775  34.321  11.129
65612W        W32043  22.588  19.774   1.285
65613W        W32044  30.963  25.695  13.320
65614W        W32045  11.667   0.203   3.285
65615W        W32046   3.205  42.197   0.014
65616W        W32047  32.522  31.657  11.932
65617W        W32048   7.138  27.399   2.236
65618W        W32049  44.845  40.321  11.607
65619W        W32050  40.976  23.726  10.716
65620W        W32051   6.651  36.833  13.055
65621W        W32052  17.211  33.694   2.855
65622W        W32053  34.689  17.876   0.378
65623W        W32054   6.245  18.582   2.870
65624W        W32055  29.558  17.768  13.710
65625W        W32056   6.877   2.051   4.189
65626W        W32057  24.982  21.203  12.492
65627W        W32058  43.620   1.769   3.781
65628W        W32059  37.382  15.255   3.308
65629W        W32060   3.939  18.940  13.462
65630W        W32061  28.470  41.365  11.216
65631W        W32062  30.471  26.452   1.837
65632W        W32063  17.007  36.631   2.731
65633W        W32064   3.826  11.671   0.847
65634W        W32065  29.544  44.726  13.128
65635W        W32066  16.916  29.133   4.373
65636W        W32067   1.998   9.394   3.196
65637W        W32068  29.086  11.390   2.541
65638W        W32069  35.073   3.811  12.548
65639W        W32070  13.719  11.124  14.808
65640W        W32071  31.150  24.759   1.687
65641W        W32072  34.898  35.448  13.313
65642W        W32073   1.491  28.160   1.927
65643W        W32074  26.174   3.728   3.653
65644W        W32075  35.982  26.656  10.742
65645W        W32076  13.911   1.928  14.908
65646W        W32077   6.471   8.228   1.401
65647W        W32078   5.757  33.916  13.983
65648W        W32079  27.980  29.719   3.812
65649W        W32080  42.500  42.956   4.145
65650W        W32081  36.799  39.913   2.432
65651W        W32082  10.559   0.947   2.167
65652W        W32083  23.232  26.783   1.301
65653W        W32084  23.608  40.933   1.660
65654W        W32085   1.822  16.913   3.219
65655W        W32086  41.838  21.882  14.490
65656W        W32087  21.482  10.023  11.704
65657W        W32088  29.219  23.742  13.526
65658W        W32089  17.162  35.041   3.108
65659W        W32090  12.351   6.828  11.724
65660W        W32091  44.429  18.092   0.203
65661W        W32092   2.719   1.789  14.209
65662W        W32093  12.318   3.912   4.654
65663W        W32094  32.310  17.007  13.409
65664W        W32095   4.140  29.473   0.466
65665W        W32096  34.483   3.981  11.590
65666W        W32097  12.340  21.703   1.193
65667W        W32098  40.811  25.024  11.248
65668W        W32099  11.358  40.766  14.011
65669W        W32100  35.160   5.832  11.984
65670W        W32101  13.531  39.871  12.874
65671W        W32102   7.586  39.024  14.719
65672W        W32103  21.622  31.366  14.549
65673W        W32104  29.916   1.854  11.211
65674W        W32105  37.796   0.397   1.042
65675W        W32106  38.623  26.189   1.322
65676W        W32107  24.034  42.695  14.696
65677W        W32108  27.990  31.385  14.314
65678W        W32109   2.992  10.286   4.050
65679W        W32110  11.585  39.118   1.698
65680W        W32111  40.153  36.990   2.005
65681W        W32112  24.133  30.395   2.337
65682W        W32113  40.838  28.583  10.675
65683W        W32114  24.719  30.910  13.536
65684W        W32115   5.326   1.288  11.800
65685W        W32116   1.484   8.218   0.379
65686W        W32117  28.513  17.149  12.641
65687W        W32118   3.418  15.044  12.531
65688W        W32119   0.858  40.590  14.921
65689W        W32120   4.417  22.298   2.477
65690W        W32121  37.490  11.669   1.100
65691W        W32122  25.381  24.341   0.283
65692W        W32123   0.561  11.849   2.810
65693W        W32124  20.069  15.519  13.731
65694W        W32125  27.197  20.065  13.771
65695W        W32126  29.176   3.172   2.227
65696W        W32127   5.793  14.805  14.908
65697W        W32128  24.049   6.189   3.988
65698W        W32129  43.003  24.235   2.677
65699W        W32130  20.760   9.804   3.296
65700W        W32131  12.964   0.654   4.248
65701W        W32132  33.731   0.414   1.342
65702W        W32133  14.286  35.896  13.206
65703W        W32134  38.001  17.082   4.347
65704W        W32135  36.307  32.827  14.012
65705W        W32136  30.926  30.806   2.583
65706W        W32137  42.065  26.410  12.959
65707W        W32138  13.081   7.337   3.353
65708W        W32139   7.186  28.250  12.150
65709W        W32140  22.226  23.979   1.911
65710W        W32141  43.252   1.328  14.764
65711W        W32142   8.270  10.432   9.907
65712W        W32143   1.030  11.138  14.624
65713W        W32144  29.369  34.488   2.690
65714W        W32145  23.184  30.368   1.243
65715W        W32146  26.058  34.912   3.114
65716W        W32147  18.409  32.272   2.486
65717W        W32148   4.420  28.685   4.120
65718W        W32149  17.111  28.029   1.303
65719W        W32150  28.665  22.808   2.784
65720W        W32151   5.219  32.630   0.652
65721W        W32152  20.865  40.807  14.880
65722W        W32153  11.114  37.408   1.834
65723W        W32154   9.332  16.204   4.591
65724W        W32155  39.099   1.068   2.291
65725W        W32156  35.595  24.859   3.241
65726W        W32157  25.168   5.764  11.124
65727W        W32158  16.709  35.006  12.585
65728W        W32159   8.944   5.426   1.391
65729W        W32160  11.362   5.495  13.339
65730W        W32161  40.583  15.773  12.383
65731W        W32162   3.688  23.128   1.365
65732W        W32163  34.148  23.686  14.382
65733W        W32164   7.819   9.682   1.795
65734W        W32165  23.956   7.721   2.832
65735W        W32166  23.058  29.711   3.158
65736W        W32167  28.404  29.070   4.170
65737W        W32168   2.411  13.673   0.029
65738W        W32169   9.425  13.884   4.101
65739W        W32170  35.720   8.124  10.733
65740W        W32171   7.433  22.557   1.860
65741W        W32172  19.794   2.768  14.328
65742W        W32173  25.737   5.657  14.785
65743W        W32174   9.612   5.652   4.568
65744W        W32175  30.730  19.646  11.990
65745W        W32176   6.244  37.998   4.046
65746W        W32177   0.935  20.601  14.505
65747W        W32178  30.665  41.543  12.949
65748W        W32179   3.726   3.768  10.800
65749W        W32180  16.735  30.232   2.417
65750W        W32181  25.002   2.378  10.925
65751W        W32182  14.743  33.549   4.520
65752W        W32183  31.474  37.987  13.383
65753W        W32184   5.689  10.712  11.958
65754W        W32185  11.369  19.360   3.663
65755W        W32186  12.268  11.167   3.218
65756W        W32187  17.655   5.282  12.870
65757W        W32188  26.951  29.406  11.888
65758W        W32189  42.503  24.065  13.917
65759W        W32190  23.807  37.402   2.583
65760W        W32191  17.285  24.256  13.878
65761W        W32192  12.732  35.353  13.772
65762W        W32193  30.347  43.716   4.113
65763W        W32194  28.883  27.512  13.364
65764W        W32195  40.467  16.120   0.947
65765W        W32196  24.931  41.819  13.158
65766W        W32197  20.921  20.314  13.868
65767W        W32198  36.793  20.502   2.355
65768W        W32199   9.915  31.040  11.831
65769W        W32200  33.176  28.165   4.149
65770W        W32201  19.668  37.430  13.471
65771W        W32202  38.625  16.068   2.842
65772W        W32203  15.640  12.870  13.802
65773W        W32204  19.271  13.334  12.560
65774W        W32205  24.175   6.381   3.196
65775W        W32206  36.681  18.036   4.421
65776W        W32207   5.930   7.426   4.204
65777W        W32208  37.018  31.538  13.725
65778W        W32209  43.940  33.104   2.444
65779W        W32210  34.544  30.144   0.036
65780W        W32211  18.129   7.149  14.904
65781W        W32212  28.568   3.025   1.416
65782W        W32213  37.956  14.830   4.227
65783W        W32214  15.303   8.673  11.918
65784W        W32215  10.304  28.979   3.724
65785W        W32216  44.649  42.520  11.586
65786W        W32217  16.204  37.363  11.139
65787W        W32218  34.874   0.442  12.457
65788W        W32219  32.200   4.929  10.377
65789W        W32220  33.928  22.583   2.829
65790W        W32221  16.288  26.465   1.852
65791W        W32222  21.407  35.738   4.132
65792W        W32223  14.353  12.363   0.870
65793W        W32224  43.718  44.448  14.914
65794W        W32225   6.269  44.398  13.247
65795W        W32226  32.874  25.220  13.974
65796W        W32227  35.401  26.937   4.951
65797W        W32228  43.111  38.807   3.134
65798W        W32229  27.405  42.526   3.616
65799W        W32230   4.486  15.315  14.616
65800W        W32231  27.566  13.539  12.074
65801W        W32232   5.786  14.342   3.749
65802W        W32233  36.909  30.124  14.833
65803W        W32234   0.341  33.585   1.454
65804W        W32235  24.643   6.925  12.525
65805W        W32236   2.516  27.725  14.978
65806W        W32237  40.956  39.491   4.555
65807W        W32238  14.067  10.734   3.180
65808W        W32239   7.823  36.304  13.849
65809W        W32240  35.993  20.240   2.357
65810W        W32241  33.549  18.720  14.887
65811W        W32242  10.399  14.867  14.204
65812W        W32243   2.366  39.033  13.528
65813W        W32244   6.179  23.881  11.214
65814W        W32245  26.140  34.667  13.068
65815W        W32246  28.723  24.500  10.800
65816W        W32247   4.332  42.739   4.279
65817W        W32248   7.056   5.279  13.394
65818W        W32249  40.864  13.198   0.713
65819W        W32250   7.183  30.474   2.630
65820W        W32251  24.568  34.096   5.067
65821W        W32252  20.194   7.667   4.239
65822W        W32253  16.520  37.938  12.951
65823W        W32254  19.915  33.080  13.040
65824W        W32255   8.064  19.566   1.392
65825W        W32256   3.234  42.860  13.345
65826W        W32257  30.151  12.352   1.330
65827W        W32258  15.612   9.445   1.332
65828W        W32259  12.443  43.005  11.551
65829W        W32260  44.646  25.548   4.844
65830W        W32261  19.269  14.721   2.835
65831W        W32262   7.715   5.815   3.659
65832W        W32263  40.386  27.228  12.418
65833W        W32264   5.471  29.953  11.430
65834W        W32265  39.611   1.232   2.260
65835W        W32266  34.799  40.790   0.830
65836W        W32267  18.647  42.865  14.345
65837W        W32268  39.262  25.238  11.630
65838W        W32269   8.752   8.147   0.266
65839W        W32270  42.785  23.998  14.347
65840W        W32271  43.037  30.132  11.883
65841W        W32272  23.438  10.988  10.446
65842W        W32273   6.974  29.211  13.205
65843W        W32274  10.738  40.041  13.095
65844W        W32275  34.555   2.068   4.392
65845W        W32276  22.668  27.359   1.825
65846W        W32277  10.175  31.437   1.491
65847W        W32278  42.264  18.556   4.899
65848W        W32279  20.193  19.554   2.378
65849W        W32280   3.936  38.213  13.434
65850W        W32281   2.186  15.551   4.076
65851W        W32282  42.252   3.951   1.091
65852W        W32283  20.978  28.567   0.914
65853W        W32284   2.194   3.233   2.334
65854W        W32285  11.595  27.883  12.013
65855W        W32286  32.924   8.603  14.299
65856W        W32287  39.037   2.582  12.615
65857W        W32288   7.749   6.883  10.496
65858W        W32289   4.275  43.490  13.084
65859W        W32290  44.304  20.814   4.611
65860W        W32291   3.755  35.550   0.085
65861W        W32292  17.613  16.362   2.320
65862W        W32293  14.623  37.641   2.365
65863W        W32294   4.446  36.406   1.903
65864W        W32295  39.231  20.559   2.735
65865W        W32296  32.093  12.462  12.318
65866W        W32297  27.653  26.309  12.070
65867W        W32298   0.360   5.996  14.546
65868W        W32299  31.569  15.476   3.182
65869W        W32300  38.909  34.507   0.797
65870W        W32301  18.806   1.900   9.837
65871W        W32302  36.290  19.484  14.340
65872W        W32303  16.822  39.828  13.155
65873W        W32304  16.772  38.465   1.814
65874W        W32305  20.750  32.468   3.159
65875W        W32306  37.997  43.765   4.115
65876W        W32307  17.330  11.050  11.031
65877W        W32308  31.844  12.099  14.759
65878W        W32309   0.485  32.830  12.434
65879W        W32310  19.844  15.018   0.406
65880W        W32311  30.097  44.231  11.129
65881W        W32312   1.928  29.814  14.434
65882W        W32313  41.001   4.870  11.411
65883W        W32314   7.661   1.119   3.805
65884W        W32315  29.816  12.153   4.724
65885W        W32316  31.141   0.861  14.492
65886W        W32317  43.242   4.454   3.947
65887W        W32318  43.652  10.749   2.331
65888W        W32319  31.050  29.060  13.430
65889W        W32320  39.790  23.735  12.066
65890W        W32321  25.523   6.220   3.538
65891W        W32322  39.751   9.905  13.528
65892W        W32323   6.194  30.623  11.682
65893W        W32324  35.947  10.379  11.579
65894W        W32325   8.440  44.832   3.858
65895W        W32326  23.866  24.948  11.109
65896W        W32327  44.113  36.981   3.607
65897W        W32328  11.632  11.658  14.551
65898W        W32329  18.378  35.424   3.289
65899W        W32330  29.616  34.071  11.465
65900W        W32331   7.726  43.453   4.550
65901W        W32332   7.407  26.031   1.326
65902W        W32333   3.917  42.064  10.771
65903W        W32334   2.327   0.953   2.650
65904W        W32335  10.913  17.284  13.926
65905W        W32336  16.309  36.749   0.797
65906W        W32337  42.604  23.588   3.202
65907W        W32338   5.414   3.946  10.768
65908W        W32339   2.552  36.884   2.171
65909W        W32340  17.631  15.821  12.343
65910W        W32341  32.363   5.012   9.887
65911W        W32342  21.341   9.575   2.580
65912W        W32343  35.483  28.518   4.378
65913W        W32344   8.370  18.679   3.309
65914W        W32345  12.203  43.553   4.176
65915W        W32346  29.680  37.077  12.863
65916W        W32347   6.617  13.089   2.150
65917W        W32348  14.102  34.671   4.079
65918W        W32349  30.641  36.491   0.839
65919W        W32350  35.990  22.479  11.904
65920W        W32351  26.924  33.237   4.149
65921W        W32352  18.338  25.895   4.209
65922W        W32353  42.498  44.897  12.562
65923W        W32354  38.592  37.944   2.753
65924W        W32355  38.547  10.594  12.938
65925W        W32356  26.198  31.928   3.574
65926W        W32357   3.829  29.100   4.647
65927W        W32358  26.976   4.845   2.455
65928W        W32359  38.933  29.153  10.056
65929W        W32360   6.272  30.046   4.421
65930W        W32361   1.955  23.773   0.243
65931W        W32362  15.664  34.459   1.370
65932W        W32363  44.294  24.951   0.944
65933W        W32364  24.105  40.709  10.430
65934W        W32365   7.681  31.912   2.036
65935W        W32366  32.459  16.663  11.013
65936W        W32367  28.389  21.770  14.397
65937W        W32368  12.841  35.408  14.278
65938W        W32369  25.417  15.271  13.162
65939W        W32370   6.987   8.236   1.296
65940W        W32371  22.669  36.859  14.607
65941W        W32372  11.256  43.781   2.153
65942W        W32373  33.409  38.489  13.526
65943W        W32374  13.204  12.113   3.651
65944W        W32375  37.724  20.940   4.691
65945W        W32376  20.010  18.757   3.282
65946W        W32377  44.731   5.066   1.228
65947W        W32378  20.524   3.454  14.320
65948W        W32379   2.662  22.346   1.005
65949W        W32380  18.329  20.971  13.968
65950W        W32381  31.663   8.148   0.318
65951W        W32382   2.036   1.148  12.740
65952W        W32383  43.478  24.815  10.618
65953W        W32384  35.876   9.612  14.441
65954W        W32385  21.192  23.372   5.132
65955W        W32386  15.659  25.261  12.554
65956W        W32387  17.373  25.589  14.111
65957W        W32388  14.068  36.743  14.404
65958W        W32389  41.267   6.328   1.344
65959W        W32390  11.362  19.665  14.454
65960W        W32391   3.769  24.063   1.127
65961W        W32392  11.025  23.306   2.024
65962W        W32393   8.900  13.906   4.127
65963W        W32394  10.750  44.229  12.789
65964W        W32395  20.306  15.737  12.863
65965W        W32396   8.495   1.238  11.480
65966W        W32397  42.950  20.963  11.025
65967W        W32398  39.621  34.116   2.951
65968W        W32399  39.779  36.533   3.698
65969W        W32400  32.921  44.323  11.555
65970W        W32401  35.634   3.679   2.384
65971W        W32402   6.808  42.794  12.351
65972W        W32403   5.602  35.932  13.301
65973W        W32404   0.436  33.433  10.305
65974W        W32405  15.059  40.160   2.840
65975W        W32406   3.327  38.099   2.830
65976W        W32407   8.351  34.573   1.367
65977W        W32408  34.906  25.191   5.074
65978W        W32409  21.193  21.720   1.434
65979W        W32410  28.660   4.393   3.573
65980W        W32411  11.074  10.825   2.813
65981W        W32412  34.045  34.682   2.273
65982W        W32413  32.088   4.486  14.504
65983W        W32414   7.515  43.206  10.822
65984W        W32415   2.558  12.651   3.424
65985W        W32416  33.785  11.096   2.176
65986W        W32417  41.644  41.746  13.892
65987W        W32418  22.403  15.682  13.704
65988W        W32419  20.006  18.603  14.194
65989W        W32420  17.698  41.319  13.023
65990W        W32421  15.652  20.668  14.670
65991W        W32422  31.755  26.240  13.431
65992W        W32423   9.357  22.656  12.698
65993W        W32424  26.532   5.931   2.719
65994W        W32425  36.479  34.546   3.307
65995W        W32426  23.754  10.003  11.983
65996W        W32427  37.509  21.986  10.825
65997W        W32428  36.595  11.739  14.965
65998W        W32429  41.930  25.451  12.137
65999W        W32430  23.444  36.641  11.365
66000W        W32431  13.095  23.453  13.468
66001W        W32432   2.909  24.961   1.690
66002W        W32433  36.375   1.787   1.729
66003W        W32434   1.426  15.490   0.917
66004W        W32435  27.346  43.627   0.428
66005W        W32436   3.210  16.032   0.684
66006W        W32437  25.690  32.656   3.113
66007W        W32438   6.051  37.762   2.788
66008W        W32439  10.293  28.581  14.277
66009W        W32440   7.950   3.440   3.260
66010W        W32441  12.573  30.193  13.725
66011W        W32442  42.413  26.088   3.620
66012W        W32443  37.611  22.646   2.723
66013W        W32444  11.131   8.747   3.353
66014W        W32445  16.145  12.714  14.390
66015W        W32446  19.356  43.190  11.790
66016W        W32447  34.990  43.596  14.384
66017W        W32448  38.242  37.051   0.190
66018W        W32449  16.202  44.853   2.407
66019W        W32450  14.000  36.868   3.376
66020W        W32451  34.424  19.120  12.471
66021W        W32452  27.544  44.571   4.177
66022W        W32453  20.209  26.528   2.075
66023W        W32454   6.837  13.025   3.708
66024W        W32455  17.360  32.098  12.697
66025W        W32456  27.025  30.467   2.553
66026W        W32457  16.890  42.044  12.006
66027W        W32458   2.386  35.378   4.007
66028W        W32459  17.328  27.413   0.014
66029W        W32460  20.579  39.501   1.299
66030W        W32461   0.854  14.221  12.945
66031W        W32462  35.601  28.110   3.162
66032W        W32463  41.872  28.182   2.222
66033W        W32464  39.053  25.679   4.499
66034W        W32465   1.513  33.316   3.639
66035W        W32466  21.984  23.161   2.656
66036W        W32467   1.282  34.986  11.251
66037W        W32468  11.835  37.626   4.774
66038W        W32469  38.893   5.234  13.382
66039W        W32470  39.073   0.919  11.095
66040W        W32471  32.425   2.746   3.131
66041W        W32472  11.728  30.805   1.625
66042W        W32473  32.267  44.890  12.753
66043W        W32474  32.483  15.282   1.864
66044W        W32475  25.443  35.631   0.317
66045W        W32476   5.467   0.971   1.882
66046W        W32477  14.900  11.903  14.786
66047W        W32478  17.690  31.402   4.374
66048W        W32479  35.536   0.222   4.366
66049W        W32480   3.004  23.527  13.994
66050W        W32481  38.455  31.763   5.119
66051W        W32482  32.597  30.536  12.889
66052W        W32483  38.988  42.480  12.889
66053W        W32484  14.319  10.316  11.208
66054W        W32485  27.135  42.235   1.233
66055W        W32486   8.473   6.177   4.155
66056W        W32487  18.332  20.109  11.109
66057W        W32488  37.785  25.552   2.750
66058W        W32489  44.306   0.306   3.872
66059W        W32490  17.211  10.824  14.386
66060W        W32491  13.461  28.416   3.098
66061W        W32492  14.652  41.356  10.552
66062W        W32493  31.893  27.796  13.895
66063W        W32494   0.444  13.262  11.999
66064W        W32495  41.346  42.416  13.369
66065W        W32496  27.845   8.311   4.603
66066W        W32497   9.171  33.392   0.962
66067W        W32498  14.575   5.874  12.934
66068W        W32499  13.730  37.309  14.688
66069W        W32500  41.329  17.638  10.717
66070W        W32501  12.365   0.526  14.669
66071W        W32502  19.326   1.748   0.115
66072W        W32503  42.919  40.902   2.194
66073W        W32504   8.914  21.260  11.474
66074W        W32505  28.408   0.946   2.426
66075W        W32506  39.543  18.844  14.860
66076W        W32507  23.898  38.564  14.049
66077W        W32508   9.216  39.048   1.352
66078W        W32509  32.955  37.421   2.229
66079W        W32510   4.545   1.017   3.178
66080W        W32511  19.666  32.075  12.988
66081W        W32512  31.045  16.429   1.720
66082W        W32513  33.403  24.017  13.860
66083W        W32514   7.952  39.385  11.131
66084W        W32515  35.362  33.248   3.589
66085W        W32516  40.643   2.485  12.943
66086W        W32517  30.920  32.379  12.145
66087W        W32518  24.504  21.468   4.169
66088W        W32519  28.621  36.061   4.754
66089W        W32520  34.606  22.453  12.981
66090W        W32521  14.065  39.581   0.452
66091W        W32522  41.817  29.090  13.022
66092W        W32523   3.894   4.942   4.139
66093W        W32524  27.652  19.181  10.924
66094W        W32525  14.065  12.524   3.525
66095W        W32526  28.174  19.007   2.972
66096W        W32527   5.225   6.407  13.368
66097W        W32528   8.919  38.608   4.153
66098W        W32529  15.819   4.321  11.741
66099W        W32530  34.837  41.055   3.637
66100W        W32531  25.103  12.007  10.921
66101W        W32532  31.891   3.526   1.738
66102W        W32533  17.001  19.066   4.505
66103W        W32534   3.016   9.415  11.627
66104W        W32535  42.666  23.151  14.295
66105W        W32536  44.673   5.819   3.723
66106W        W32537  39.578  24.236   0.297
66107W        W32538  16.061   4.862  14.773
66108W        W32539  23.214  13.049   2.288
66109W        W32540  11.651  17.966  14.234
66110W        W32541  33.202  37.055   1.948
66111W        W32542  25.673   3.675  11.057
66112W        W32543  31.141  42.765  10.532
66113W        W32544  36.587  16.058   2.797
66114W        W32545  27.464  43.489   2.777
66115W        W32546  38.377  24.869  13.506
66116W        W32547  11.729   3.380  11.591
66117W        W32548  23.112  10.824   4.014
66118W        W32549  27.646  43.395   1.161
66119W        W32550   6.818  18.105   5.540
66120W        W32551  24.304  35.457  14.947
66121W        W32552  41.234  28.514   0.005
66122W        W32553  15.325  31.467   1.779
66123W        W32554  22.011   2.827   3.216
66124W        W32555  34.914  24.488   1.474
66125W        W32556   5.158  39.463   2.837
66126W        W32557  18.351  34.926   3.731
66127W        W32558  13.395  37.568   1.118
66128W        W32559   9.483  33.864  11.971
66129W        W32560  33.459  40.532  11.720
66130W        W32561  38.101  43.529  14.425
66131W        W32562   1.013   9.065  14.955
66132W        W32563   8.941  14.757   3.042
66133W        W32564  18.462  42.369   4.127
66134W        W32565  31.310  21.184   4.049
66135W        W32566  38.912  26.922   1.943
66136W        W32567  40.695   8.783  11.624
66137W        W32568  31.562  17.397   0.690
66138W        W32569  18.272  11.388   3.633
66139W        W32570  12.363  33.242  12.393
66140W        W32571  11.575  40.190  12.442
66141W        W32572  13.154  15.127   1.280
66142W        W32573  44.913  15.049  14.524
66143W        W32574  37.726  32.012   4.632
66144W        W32575   4.321  30.540   3.737
66145W        W32576  25.834  23.600  14.398
66146W        W32577  16.467  28.988  12.589
66147W        W32578  44.631  18.808  14.879
66148W        W32579   2.479  33.739  14.957
66149W        W32580  32.312  13.069   2.823
66150W        W32581   5.116  15.763   1.744
66151W        W32582  30.263  11.707  11.498
66152W        W32583  17.817   7.875   3.714
66153W        W32584  26.539  17.913  13.950
66154W        W32585  38.114   2.424  10.783
66155W        W32586  36.061  32.221   1.310
66156W        W32587  39.569  18.241  11.185
66157W        W32588  41.016  31.584   1.824
66158W        W32589  25.950  33.572  10.775
66159W        W32590  38.090   5.743  13.341
66160W        W32591  26.138  16.726  13.460
66161W        W32592   9.695  31.639   1.434
66162W        W32593  43.921  29.174  14.789
66163W        W32594  28.693  43.740  10.714
66164W        W32595  29.335  41.782  14.392
66165W        W32596   9.348   1.384  10.609
66166W        W32597  16.465  17.765   2.836
66167W        W32598  22.269  26.602   4.995
66168W        W32599  32.466  42.994  11.571
66169W        W32600  22.028  23.099  11.076
66170W        W32601  40.831  28.082  12.910
66171W        W32602  11.111   9.056   4.166
66172W        W32603  19.451  31.965   2.281
66173W        W32604  35.221   7.715  14.467
66174W        W32605  24.047  14.542   3.347
66175W        W32606  15.815  35.124   4.550
66176W        W32607   0.009  38.354   2.404
66177W        W32608  21.120  16.444   4.600
66178W        W32609  21.118   2.830   3.029
66179W        W32610  42.315  34.547   4.534
66180W        W32611  23.075  25.530   1.716
66181W        W32612  12.667  38.935   3.695
66182W        W32613  32.593  20.291   2.381
66183W        W32614  22.058  10.850   0.288
66184W        W32615  21.805   6.591  12.350
66185W        W32616   0.310  13.081  13.513
66186W        W32617   3.309  24.738  10.420
66187W        W32618  40.507  10.926   2.721
66188W        W32619  10.427  13.112   2.787
66189W        W32620  44.912   2.284  11.226
66190W        W32621  18.022   2.508  14.930
66191W        W32622  43.036   3.346  11.443
66192W        W32623  39.933  13.194   3.596
66193W        W32624  44.704  35.947  12.122
66194W        W32625  41.006  39.980   1.919
66195W        W32626   8.868  17.507   4.587
66196W        W32627  25.977   6.188   4.725
66197W        W32628  12.736  44.403   2.838
66198W        W32629  12.714  34.845  13.877
66199W        W32630  37.365   5.295   0.935
66200W        W32631  22.724  12.900   1.287
66201W        W32632  18.061   3.371   0.850
66202W        W32633  40.787  29.677   3.270
66203W        W32634  34.470  32.447  14.769
66204W        W32635  38.590  39.425   3.557
66205W        W32636  26.194   7.981   3.436
66206W        W32637  25.918  33.791  13.916
66207W        W32638  13.104  29.513  13.324
66208W        W32639  35.569  14.048  12.470
66209W        W32640  29.271   0.157  13.002
66210W        W32641   9.449  23.695  14.432
66211W        W32642  20.045  41.960  13.814
66212W        W32643  41.741   9.382  12.663
66213W        W32644   6.852  43.761  13.980
66214W        W32645   7.853   5.196   1.788
66215W        W32646  14.364  39.004   1.818
66216W        W32647  43.653  32.014  10.456
66217W        W32648   1.818  23.876   3.745
66218W        W32649  10.704  28.269  14.293
66219W        W32650   2.439   3.141  11.805
66220W        W32651  26.713  27.118  12.854
66221W        W32652  24.281  34.974  14.228
66222W        W32653  30.120  36.459   2.288
66223W        W32654  35.403  33.550  14.475
66224W        W32655  27.719  36.558   0.738
66225W        W32656   7.084  29.262   4.692
66226W        W32657  34.337   7.767   3.407
66227W        W32658  14.309  19.587  14.184
66228W        W32659  34.848  42.759   4.153
66229W        W32660   5.668  22.763  13.494
66230W        W32661  29.904  29.196   0.816
66231W        W32662  19.615   3.547  11.274
66232W        W32663  38.827  35.377   2.803
66233W        W32664  24.590   7.309   0.325
66234W        W32665  16.565  16.231  12.984
66235W        W32666  21.439  21.294  11.086
66236W        W32667  43.087   9.665   2.811
66237W        W32668  13.123   8.287   3.784
66238W        W32669   1.736   5.466   1.915
66239W        W32670  22.593   5.945  13.959
66240W        W32671   9.695  30.609   1.816
66241W        W32672   0.631  38.481   3.762
66242W        W32673  31.491  29.731  12.028
66243W        W32674   9.655  21.013   1.651
66244W        W32675   2.525   8.358  11.379
66245W        W32676  41.992  19.699   4.019
66246W        W32677  11.566   2.907   3.943
66247W        W32678  30.197  28.657  11.673
66248W        W32679   5.437   3.863  13.972
66249W        W32680   8.872   3.819  13.382
66250W        W32681  24.712  43.027  13.974
66251W        W32682   5.237   7.310  12.507
66252W        W32683  13.791  15.218  13.902
66253W        W32684  20.577  42.199   3.606
66254W        W32685  38.539   6.841   0.769
66255W        W32686  35.983  33.299   2.786
66256W        W32687  26.519  32.319  11.980
66257W        W32688  30.206  38.840  12.589
66258W        W32689  15.860   0.295   1.329
66259W        W32690  36.370  33.451   1.747
66260W        W32691  30.012   4.646   4.479
66261W        W32692  18.608   3.230  14.346
66262W        W32693  40.480  14.096   1.939
66263W        W32694  27.456  27.516  13.355
66264W        W32695  31.512  16.219   4.778
66265W        W32696  34.033   9.607  14.391
66266W        W32697  20.980  34.209   4.748
66267W        W32698   7.357  37.795   4.773
66268W        W32699   1.328  40.668  13.550
66269W        W32700  15.784  19.468  11.969
66270W        W32701  21.859  32.176  14.804
66271W        W32702   0.649  12.267  12.085
66272W        W32703  43.034  37.043  12.520
66273W        W32704  21.963  42.351  12.869
66274W        W32705  35.492   9.282   3.821
66275W        W32706   8.053  43.527  14.766
66276W        W32707  12.384   7.914  13.935
66277W        W32708  42.539  33.633  11.220
66278W        W32709  33.797  12.811   1.398
66279W        W32710  12.716  16.965   0.719
66280W        W32711  12.155  44.746   4.141
66281W        W32712   1.362  36.621  13.076
66282W        W32713   2.874   7.255   0.704
66283W        W32714  26.657  32.374  11.184
66284W        W32715  28.209  35.334  14.476
66285W        W32716  28.704  42.430  14.977
66286W        W32717  19.185   0.519  13.505
66287W        W32718   9.754  42.433   3.702
66288W        W32719  17.194  20.758  14.476
66289W        W32720  42.454  14.809  11.624
66290W        W32721  44.388   2.696   4.587
66291W        W32722  15.857  33.630  12.979
66292W        W32723  26.193   3.147  13.427
66293W        W32724  11.944  22.384  12.881
66294W        W32725  14.823  29.162  12.221
66295W        W32726   6.703  14.046   3.739
66296W        W32727  16.605  41.979  14.789
66297W        W32728  24.194  36.879  13.819
66298W        W32729  11.831  30.028   0.385
66299W        W32730  27.129  31.442  11.714
66300W        W32731  12.367  31.011   2.250
66301W        W32732  34.178   7.313  13.939
66302W        W32733  24.202  21.657  12.326
66303W        W32734  40.833  30.944   1.272
66304W        W32735  36.699   7.810  14.589
66305W        W32736  41.754  39.350   0.759
66306W        W32737  23.012   1.235   3.741
66307W        W32738   7.396   6.800  12.074
66308W        W32739  40.522  39.613  13.326
66309W        W32740  42.153  38.351   0.429
66310W        W32741   3.304   1.857   1.260
66311W        W32742  32.595  39.912   4.010
66312W        W32743  25.788  31.409  13.149
66313W        W32744  34.349  14.244   1.485
66314W        W32745   3.325  10.727  11.224
66315W        W32746  37.778   4.719  11.982
66316W        W32747  33.920   4.323  11.960
66317W        W32748  15.847  22.203   2.810
66318W        W32749  30.102   8.356  12.497
66319W        W32750  26.414  23.618   2.200
66320W        W32751  32.496  29.773   1.714
66321W        W32752  31.008  34.361   4.835
66322W        W32753  34.153  38.114   3.186
66323W        W32754  13.884  38.995  10.818
66324W        W32755   8.707  31.508  10.867
66325W        W32756  12.856  33.111   2.451
66326W        W32757  18.538  34.081   3.096
66327W        W32758  15.155   5.943   0.962
66328W        W32759  29.185  39.620  14.992
66329W        W32760  11.414   1.181   1.902
66330W        W32761  29.930  29.497  13.485
66331W        W32762   5.709   9.609   0.314
66332W        W32763  10.520  43.439  11.570
66333W        W32764  26.735  22.167  12.959
66334W        W32765  19.635  28.161  13.511
66335W        W32766  44.239  22.001  12.922
66336W        W32767  16.326  37.587  13.964
66337W        W32768   9.457  26.708   0.836
66338W        W32769  33.639  22.888  10.735
66339W        W32770  26.100  41.452   2.375
66340W        W32771   9.033  29.356  14.370
66341W        W32772  30.124   7.874  11.177
66342W        W32773   3.822  12.879   2.761
66343W        W32774   2.755  23.731   2.113
66344W        W32775   0.943  31.483   0.780
66345W        W32776   6.330  34.668  11.651
66346W        W32777   5.212  41.852  12.186
66347W        W32778  30.943   9.737   3.812
66348W        W32779  21.732  19.530  12.365
66349W        W32780  39.388  15.070  12.698
66350W        W32781   1.340  11.260   2.811
66351W        W32782  38.298  20.630  13.865
66352W        W32783   8.741  42.104   0.917
66353W        W32784   5.852  16.364  14.968
66354W        W32785  10.449   0.265  10.225
66355W        W32786  34.425  15.213  10.772
66356W        W32787   0.756  40.398  11.730
66357W        W32788  25.942   8.100   4.329
66358W        W32789   4.350  32.438  14.951
66359W        W32790   4.716   8.329   3.914
66360W        W32791  26.682  13.129  12.965
66361W        W32792  20.438  20.012   5.137
66362W        W32793   5.573  21.330   5.109
66363W        W32794  33.528  13.077   4.747
66364W        W32795   0.883  43.462   0.318
66365W        W32796  15.630   2.990  12.476
66366W        W32797  11.380  32.449   3.232
66367W        W32798  32.991  11.917  14.351
66368W        W32799  33.426  36.689   2.305
66369W        W32800  18.841  11.668   2.081
66370W        W32801  13.866   3.293   0.879
66371W        W32802  11.912  41.824   4.343
66372W        W32803  43.055  30.651   2.821
66373W        W32804  38.013  35.044  14.968
66374W        W32805  27.594   0.881  13.839
66375W        W32806  26.650  19.629  10.015
66376W        W32807  14.316  12.108   0.413
66377W        W32808  32.384  40.353  10.674
66378W        W32809   4.548  16.531   2.910
66379W        W32810  18.893  38.833   4.059
66380W        W32811   9.598  22.152  10.968
66381W        W32812  20.364  13.320   2.897
66382W        W32813  14.624  31.927  14.680
66383W        W32814  14.832  18.166  10.693
66384W        W32815  31.092  12.357   2.440
66385W        W32816  35.027   4.641   4.121
66386W        W32817  32.134  17.047  10.989
66387W        W32818  31.932  24.224  13.367
66388W        W32819  36.036  41.717   2.209
66389W        W32820  26.117  39.762   4.818
66390W        W32821  43.773  26.553  11.527
66391W        W32822  17.581  18.524  11.561
66392W        W32823  26.180  19.252  14.303
66393W        W32824  18.343  26.385  13.952
66394W        W32825  36.585   3.636  12.573
66395W        W32826   3.902  16.256  13.405
66396W        W32827  20.554  32.955   1.332
66397W        W32828  32.460   6.163  10.027
66398W        W32829  35.171  28.705   1.786
66399W        W32830  33.758  34.439  13.932
66400W        W32831  44.824  40.846  11.595
66401W        W32832  42.871  15.897  11.141
66402W        W32833  26.701  15.890   2.877
66403W        W32834   3.953   9.086   3.186
66404W        W32835   6.942  38.418  14.596
66405W        W32836   6.718  32.549  14.745
66406W        W32837  42.902  33.474  14.850
66407W        W32838  14.789  24.392  12.023
66408W        W32839   2.169  20.645  14.726
66409W        W32840   9.342  42.943   2.868
66410W        W32841  23.182  30.394   3.875
66411W        W32842   1.318  22.219   0.827
66412W        W32843   3.874  42.011   0.731
66413W        W32844  33.878   7.683   3.666
66414W        W32845  23.375  16.679  13.328
66415W        W32846  12.728  28.441  13.275
66416W        W32847  25.832  18.347  10.809
66417W        W32848  34.956  29.696  14.440
66418W        W32849  34.962  23.483   0.432
66419W        W32850  44.821  41.955  12.469
66420W        W32851  43.974  22.226  12.546
66421W        W32852  42.986  14.729   3.254
66422W        W32853  19.808  34.568  14.380
66423W        W32854  42.471   3.935   4.582
66424W        W32855  27.328  29.553  14.351
66425W        W32856   4.929   7.681   1.726
66426W        W32857  38.839  35.837  10.562
66427W        W32858  17.401  21.250  10.965
66428W        W32859   4.199   4.149  14.369
66429W        W32860  24.870  25.477  12.956
66430W        W32861   6.134  23.173  14.364
66431W        W32862  42.988  24.022  10.779
66432W        W32863   2.392  34.503   2.712
66433W        W32864  10.643  31.445   4.171
66434W        W32865  17.917  41.005   2.036
66435W        W32866  40.235  25.880   0.625
66436W        W32867  16.648  35.642   3.431
66437W        W32868  16.606   3.704  11.988
66438W        W32869   6.355  13.756  13.403
66439W        W32870  11.768  16.516   2.698
66440W        W32871  42.808  40.781   3.171
66441W        W32872  31.423   2.011   0.222
66442W        W32873  12.812  17.330   2.304
66443W        W32874   3.566  15.537   2.734
66444W        W32875  14.952  26.087   4.668
66445W        W32876  35.819  44.013   0.693
66446W        W32877  35.918  24.909   0.326
66447W        W32878  20.049  40.857  14.033
66448W        W32879   7.765  40.216   3.317
66449W        W32880  23.995   5.790  10.429
66450W        W32881  30.540  16.914   3.199
66451W        W32882  22.166   0.520   2.389
66452W        W32883  41.946  11.566   3.222
66453W        W32884  22.183  23.490  11.400
66454W        W32885  10.122  35.166   3.617
66455W        W32886  37.961  18.774  12.214
66456W        W32887  25.679  14.945  14.443
66457W        W32888  23.203  27.417  12.957
66458W        W32889  38.651  30.526  12.217
66459W        W32890  30.373  30.667   4.974
66460W        W32891  44.494   1.999   3.558
66461W        W32892   5.976  24.760  11.165
66462W        W32893  38.589  32.023   1.625
66463W        W32894  40.083  20.708   1.473
66464W        W32895  22.259   8.766   3.347
66465W        W32896  22.203  33.855  10.662
66466W        W32897   8.364  11.501  11.967
66467W        W32898  15.393  10.879   0.236
66468W        W32899  36.119  42.181  14.069
66469W        W32900  38.147  26.044  11.761
66470W        W32901  15.925  33.251  13.901
66471W        W32902  10.155   9.892  11.751
66472W        W32903  10.913   0.053  13.154
66473W        W32904  37.994  20.100   4.697
66474W        W32905  38.268  10.755   0.924
66475W        W32906  32.335  44.666   2.692
66476W        W32907  26.218  18.199   0.298
66477W        W32908  29.355  41.096   5.422
66478W        W32909   9.633  22.120   0.430
66479W        W32910  28.741  37.082   3.486
66480W        W32911  28.932  30.909  12.086
66481W        W32912  37.163  43.998  14.248
66482W        W32913   7.937   8.286  14.480
66483W        W32914  24.459  10.856   2.328
66484W        W32915  37.948   2.986   1.265
66485W        W32916  40.847   0.443  12.013
66486W        W32917  41.966  14.637  14.557
66487W        W32918  30.395  19.213  12.884
66488W        W32919   0.801   6.363   2.855
66489W        W32920  33.556   0.560  13.192
66490W        W32921  34.122  21.667  14.941
66491W        W32922  13.716  34.629   3.756
66492W        W32923  25.962   7.143  12.164
66493W        W32924  34.857  35.267  11.260
66494W        W32925   1.766  12.241   3.327
66495W        W32926  18.642  24.094  11.527
66496W        W32927  17.180   7.462   2.249
66497W        W32928   4.068  22.794  12.064
66498W        W32929  30.593  38.858  14.575
66499W        W32930   6.415  27.016   1.790
66500W        W32931  37.123   0.626   0.009
66501W        W32932  11.530  18.537   0.474
66502W        W32933  20.843   8.136  12.541
66503W        W32934   0.400  40.890   4.841
66504W        W32935  24.121   0.355   4.738
66505W        W32936  42.457  20.730  14.531
66506W        W32937  38.440  34.045   3.634
66507W        W32938  43.093  32.720  11.109
66508W        W32939  21.949   6.238   3.229
66509W        W32940  39.541  25.168   0.227
66510W        W32941  36.853  17.641   4.082
66511W        W32942  16.889  17.822  10.682
66512W        W32943  37.267  39.510   3.562
66513W        W32944  39.774   1.471   1.812
66514W        W32945  13.004  15.758   1.848
66515W        W32946   8.663  33.726  11.251
66516W        W32947  16.091   7.481   4.082
66517W        W32948  36.516  21.712   1.237
66518W        W32949   6.950  38.636   1.789
66519W        W32950   2.307  40.625  13.388
66520W        W32951  20.675  19.837  12.447
66521W        W32952   0.519  39.665   4.177
66522W        W32953  21.429  26.570  14.493
66523W        W32954  29.533   1.414  13.556
66524W        W32955  25.428   4.160  13.850
66525W        W32956   2.761  42.737   4.077
66526W        W32957  44.815  20.344  13.966
66527W        W32958   5.900  39.891  12.118
66528W        W32959  29.051   8.871  10.975
66529W        W32960  33.023  29.332   2.887
66530W        W32961   3.805  39.642  10.302
66531W        W32962  12.169  14.718  14.454
66532W        W32963  13.111  44.859  10.817
66533W        W32964  35.994   1.026  11.955
66534W        W32965   3.778   2.671  13.541
66535W        W32966  44.206   9.583   3.569
66536W        W32967  14.171  32.388   3.676
66537W        W32968  10.520  37.294   4.864
66538W        W32969   1.796  15.158   3.622
66539W        W32970  22.189  36.128   2.018
66540W        W32971  39.428   2.666  10.537
66541W        W32972  42.713  29.636  11.569
66542W        W32973   3.827   7.553   4.610
66543W        W32974  44.696  33.169   1.908
66544W        W32975  44.894  22.520   2.229
66545W        W32976  21.597  35.141   0.017
66546W        W32977   4.633  24.217  14.948
66547W        W32978  43.681   4.999  12.901
66548W        W32979   2.217  10.470   4.561
66549W        W32980  34.137  23.996   0.501
66550W        W32981  16.751  24.017   5.259
66551W        W32982  42.262  12.738  14.002
66552W        W32983  14.344  22.361  11.015
66553W        W32984  39.805  14.720   3.199
66554W        W32985   3.490  41.943   2.778
66555W        W32986  36.017  12.108   2.017
66556W        W32987   9.773  15.220   1.263
66557W        W32988  40.453   6.521   0.274
66558W        W32989  24.652  34.048   0.342
66559W        W32990  17.586  37.190  12.509
66560W        W32991  24.766  19.981   0.434
66561W        W32992  19.277  32.644   1.206
66562W        W32993  35.951  13.753   2.320
66563W        W32994   7.634  24.270  14.543
66564W        W32995  18.986  41.884   4.425
66565W        W32996  22.735  10.869  10.931
66566W        W32997   2.365  38.476  12.656
66567W        W32998  13.446  28.077   4.684
66568W        W32999  21.225  14.731   3.740
66569W        W33000  33.793  24.575  11.588
66570W        W33001   2.989  31.574  14.517
66571W        W33002  33.327  18.261   2.639
66572W        W33003  10.764   2.748  13.207
66573W        W33004  34.536  43.305  12.241
66574W        W33005  34.626   8.344   4.276
66575W        W33006   8.290  19.655  13.741
66576W        W33007  13.040  31.582  12.581
66577W        W33008  21.236   6.706  11.649
66578W        W33009  15.776   1.102   4.424
66579W        W33010  15.573  44.935  12.324
66580W        W33011  30.521  18.306  13.838
66581W        W33012  12.343  20.456  11.457
66582W        W33013  31.334  38.442   1.799
66583W        W33014  16.215  23.661  14.883
66584W        W33015   4.873  36.463  13.556
66585W        W33016  36.264  24.627  12.921
66586W        W33017  20.699  11.900   2.722
66587W        W33018  15.678   2.158   3.671
66588W        W33019  31.601   6.829   3.733
66589W        W33020  22.129  43.352   9.819
66590W        W33021  44.744  21.502   1.344
66591W        W33022  21.384  13.821  14.834
66592W        W33023  26.252  38.031  14.801
66593W        W33024  15.168  33.949   4.904
66594W        W33025  23.831  37.469   4.999
66595W        W33026  42.781  12.383   4.518
66596W        W33027  28.568   4.654   3.987
66597W        W33028   6.240  43.773   3.093
66598W        W33029  38.498   4.617  14.420
66599W        W33030   1.683  14.681   4.211
66600W        W33031  34.875  26.235  12.518
66601W        W33032  31.809   2.000  14.840
66602W        W33033  37.326   5.235  12.398
66603W        W33034  37.927  42.248  11.480
66604W        W33035  28.195  40.103   4.320
66605W        W33036  43.560  31.839   5.110
66606W        W33037  29.009  13.943  14.020
66607W        W33038   0.759   0.485  11.078
66608W        W33039  38.003  34.130   0.360
66609W        W33040  10.948  27.097   3.620
66610W        W33041  23.606  39.849  13.735
66611W        W33042  13.172  24.117   1.170
66612W        W33043  28.016  36.777  12.525
66613W        W33044  40.722   6.636   2.536
66614W        W33045  31.961  14.205  10.397
66615W        W33046  27.702  29.909   0.251
66616W        W33047  28.430  38.607  12.212
66617W        W33048  34.418   8.411  10.627
66618W        W33049  40.037  44.024  10.991
66619W        W33050  43.810  24.656   2.632
66620W        W33051  16.141   8.419  10.615
66621W        W33052  24.990   9.526  10.679
66622W        W33053   5.326  18.336  10.684
66623W        W33054  10.411   1.949   1.451
66624W        W33055   1.699   3.451   2.395
66625W        W33056   5.354   2.025   0.890
66626W        W33057  35.319  42.788  11.948
66627W        W33058  40.761   3.041   0.350
66628W        W33059  35.338  36.393  13.965
66629W        W33060  24.015  14.871  11.207
66630W        W33061  19.985  40.266  12.552
66631W        W33062  35.089  11.797  12.958
66632W        W33063  13.172  38.420  12.874
66633W        W33064  14.762  42.010   4.646
66634W        W33065  31.209   5.111  10.242
66635W        W33066  28.522   8.122   1.621
66636W        W33067  23.497  20.557  11.874
66637W        W33068  13.762  25.829   4.742
66638W        W33069   0.784  10.205   4.099
66639W        W33070  15.117  33.432  10.590
66640W        W33071  29.393  14.525   4.289
66641W        W33072  27.447  18.709   2.414
66642W        W33073   4.732  42.064   3.904
66643W        W33074   7.643  13.806   4.579
66644W        W33075  19.323  33.582   3.263
66645W        W33076   5.566  37.800  12.076
66646W        W33077  12.734  15.687   3.084
66647W        W33078  19.790  44.911   2.701
66648W        W33079  26.872  18.353  14.286
66649W        W33080  40.889   9.594  11.624
66650W        W33081  22.182  28.914   1.496
66651W        W33082  43.839  19.670  12.914
66652W        W33083  23.492   6.367  13.498
66653W        W33084  43.452  29.005   4.111
66654W        W33085  19.234   2.134   0.448
66655W        W33086  16.968  14.725  11.290
66656W        W33087  34.353   7.018  14.776
66657W        W33088   3.249  43.062  10.932
66658W        W33089   7.654  35.369   3.767
66659W        W33090  34.361  32.151  12.454
66660W        W33091  43.629  19.623  14.330
66661W        W33092   7.233  34.447  13.447
66662W        W33093  41.427  21.807  11.189
66663W        W33094  21.405  24.234  14.411
66664W        W33095  11.424   8.629   2.502
66665W        W33096  34.700  27.056   1.672
66666W        W33097  23.067  32.761   1.425
66667W        W33098  27.377   1.337  14.558
66668W        W33099   4.886   3.007  11.540
66669W        W33100  39.895  31.888   4.458
66670W        W33101   4.564  24.597  13.687
66671W        W33102  35.559  11.078   0.838
66672W        W33103  24.785   0.985  14.508
66673W        W33104  11.829   9.598   1.555
66674W        W33105  29.743  33.128   4.549
66675W        W33106   1.221  33.393  14.473
66676W        W33107  38.578  20.178  12.948
66677W        W33108  14.748  37.155  12.037
66678W        W33109  39.770   3.353   3.558
66679W        W33110  16.661   9.752  12.153
66680W        W33111  23.960  44.843  13.108
66681W        W33112   8.625   7.706  13.047
66682W        W33113  11.240  11.242  14.486
66683W        W33114   5.777  28.599  13.381
66684W        W33115   5.725  27.479  13.973
66685W        W33116   6.563  23.741   0.635
66686W        W33117  40.485  33.084   0.485
66687W        W33118  19.081  43.301   3.712
66688W        W33119  32.798  35.446   2.360
66689W        W33120  12.214  16.281   2.688
66690W        W33121  20.513  32.115   4.052
66691W        W33122  17.180   4.223   0.876
66692W        W33123  22.246  23.832  13.513
66693W        W33124  36.240  16.534   2.036
66694W        W33125  18.016  30.932  12.978
66695W        W33126  44.249  30.076   3.442
66696W        W33127  14.326  28.213  11.517
66697W        W33128  44.674   9.858   4.579
66698W        W33129  14.675  26.358   5.017
66699W        W33130   6.138   4.861   2.479
66700W        W33131  31.457   9.263  11.187
66701W        W33132   5.394  19.435  14.306
66702W        W33133   4.539  10.204   3.410
66703W        W33134   5.727  18.066   0.379
66704W        W33135  17.037  13.092   9.881
66705W        W33136   1.786  21.511  10.239
66706W        W33137   4.424   2.232  14.995
66707W        W33138  14.232  19.247   4.675
66708W        W33139   8.097  35.315  11.297
66709W        W33140  17.292  27.290   4.194
66710W        W33141  15.790  22.174  13.628
66711W        W33142  11.720  11.716  13.981
66712W        W33143  19.639  28.627   0.762
66713W        W33144  42.426  15.230   3.806
66714W        W33145   4.841  13.082   2.266
66715W        W33146  19.589  40.856   2.587
66716W        W33147   7.858  23.221   4.123
66717W        W33148   8.930  38.008   0.700
66718W        W33149  28.061  41.272   2.663
66719W        W33150  19.054  20.070  13.754
66720W        W33151  26.610  41.610  10.335
66721W        W33152  20.207  41.917  10.391
66722W        W33153  39.118  12.742   4.088
66723W        W33154  18.618  29.162   0.979
66724W        W33155  19.786   5.755  11.588
66725W        W33156  29.495   1.919   4.151
66726W        W33157  34.358   3.405   1.200
66727W        W33158  40.569  10.771  11.056
66728W        W33159   2.267  23.123   1.867
66729W        W33160  38.379  12.642  10.694
66730W        W33161   8.200  31.864  12.044
66731W        W33162  11.801  27.584  10.528
66732W        W33163  25.007   5.888   4.902
66733W        W33164  24.044  40.365  13.006
66734W        W33165  42.426   9.361   3.234
66735W        W33166  21.308   2.733   2.283
66736W        W33167  14.068  12.185   3.103
66737W        W33168  44.967  41.548  11.533
66738W        W33169  13.398   1.885   2.869
66739W        W33170   9.937  24.374   2.770
66740W        W33171  25.624  18.743   0.258
66741W        W33172  24.792  38.316  11.415
66742W        W33173  12.280  15.567   2.844
66743W        W33174  15.547   9.383   4.300
66744W        W33175  10.812  41.315  14.553
66745W        W33176  10.462  31.627   1.873
66746W        W33177  23.454  10.857   2.209
66747W        W33178   8.830  42.049   0.403
66748W        W33179   4.891  35.308  13.726
66749W        W33180  34.016  13.430  13.760
66750W        W33181  40.891  26.240  10.636
66751W        W33182  29.985  12.253   0.274
66752W        W33183  29.546  30.728   4.216
66753W        W33184  26.607  31.089   0.635
66754W        W33185   7.068  42.260  11.522
66755W        W33186   2.874  10.851  14.760
66756W        W33187  41.748  15.667  13.385
66757W        W33188  35.424  24.169  14.247
66758W        W33189  24.244  27.701   0.902
66759W        W33190   9.716  43.256  11.578
66760W        W33191   5.744   0.022  12.921
66761W        W33192  14.287   0.021   2.453
66762W        W33193   5.449  24.169  12.845
66763W        W33194  41.503  27.886  11.641
66764W        W33195   0.238  40.032   3.330
66765W        W33196  15.893  29.456   4.311
66766W        W33197  12.306  12.588  13.614
66767W        W33198  24.239  24.539  14.572
66768W        W33199  12.584   2.955   0.846
66769W        W33200   5.962  21.412   3.275
66770W        W33201  39.091  28.578   1.431
66771W        W33202   6.957  30.177  14.296
66772W        W33203   5.279  30.153   3.803
66773W        W33204  37.726  33.775  13.897
66774W        W33205  25.239  24.247   2.251
66775W        W33206  11.674   0.247  11.158
66776W        W33207  11.241  40.981   1.894
66777W        W33208  38.043  17.074  12.489
66778W        W33209   9.702  41.903   1.001
66779W        W33210  30.581   1.887  10.577
66780W        W33211   6.924  17.100   1.400
66781W        W33212   2.453  12.841  11.025
66782W        W33213  15.302   1.428   2.811
66783W        W33214  18.249  39.164  13.970
66784W        W33215  27.497  10.157   3.565
66785W        W33216  17.223  38.568  12.065
66786W        W33217  19.704   6.401  14.340
66787W        W33218  11.652  36.133   4.495
66788W        W33219  17.316   7.667   2.707
66789W        W33220  41.971  44.478   2.219
66790W        W33221  15.278  44.512  12.393
66791W        W33222  20.791  13.572   4.163
66792W        W33223  15.835  37.928  13.510
66793W        W33224  19.106   1.576   3.674
66794W        W33225  26.646  16.028  11.594
66795W        W33226  28.554  42.452   2.246
66796W        W33227  30.598  38.993   3.784
66797W        W33228  11.053  43.793   3.556
66798W        W33229  35.258  42.360  13.975
66799W        W33230  29.372  44.943   4.288
66800W        W33231  15.878  39.408   2.272
66801W        W33232   3.984  34.383   2.166
66802W        W33233  21.674   4.889   3.330
66803W        W33234  29.505   3.833   0.346
66804W        W33235   4.356   2.355  14.280
66805W        W33236   3.964  38.005   3.002
66806W        W33237  31.587  15.774   4.517
66807W        W33238  31.662  27.630   3.190
66808W        W33239  21.584  43.800   3.684
66809W        W33240  19.144   4.143   0.844
66810W        W33241   3.822  40.964  13.255
66811W        W33242  34.139  22.704   3.852
66812W        W33243  17.523   7.659  12.027
66813W        W33244  23.145  21.702   4.322
66814W        W33245  14.791  15.627  14.415
66815W        W33246  30.616   6.898   3.712
66816W        W33247  20.905  41.449  13.403
66817W        W33248  44.348  39.892   0.745
66818W        W33249  35.259  19.936  13.539
66819W        W33250  29.909  37.368   1.784
66820W        W33251  34.438  32.243   0.803
66821W        W33252  17.656   4.046  11.610
66822W        W33253   7.516  27.543  13.897
66823W        W33254  16.605  37.381   0.818
66824W        W33255  38.354   9.522  14.374
66825W        W33256   0.650  18.684  14.885
66826W        W33257  34.095   9.722  13.870
66827W        W33258  42.726  41.776   3.149
66828W        W33259  28.328  34.482  10.774
66829W        W33260  15.588  18.999   1.769
66830W        W33261   6.509   7.776   3.755
66831W        W33262  15.855  39.648  14.974
66832W        W33263  16.392  25.796   4.967
66833W        W33264  32.109   7.476  14.062
66834W        W33265  31.729  23.942  12.988
66835W        W33266  13.104  35.883  14.277
66836W        W33267   5.654  13.033   4.271
66837W        W33268  25.657  32.635  14.875
66838W        W33269  25.168   2.299   1.187
66839W        W33270  44.712   6.681   0.386
66840W        W33271   5.290  26.247  12.647
66841W        W33272  40.596  30.657   0.905
66842W        W33273  15.544  27.663   0.861
66843W        W33274  41.036  13.231   3.285
66844W        W33275  39.412  27.621  11.600
66845W        W33276  32.014  37.395   0.825
66846W        W33277  42.046   9.054  11.627
66847W        W33278  33.627  28.006  12.411
66848W        W33279   3.032  28.660  14.970
66849W        W33280  27.632  13.848   3.567
66850W        W33281  23.917  35.096   1.708
66851W        W33282   1.487  18.936   0.199
66852W        W33283   4.884  12.860   0.993
66853W        W33284  16.692   0.885   0.661
66854W        W33285   1.069  12.424   3.830
66855W        W33286  38.408  29.476   1.194
66856W        W33287  44.884   4.207   0.116
66857W        W33288  28.568  29.072  10.981
66858W        W33289  35.880   0.828   3.680
66859W        W33290   4.497  35.602  12.045
66860W        W33291  18.144  41.430  10.679
66861W        W33292  23.753   2.952   1.967
66862W        W33293  28.572  43.239   1.874
66863W        W33294   2.814  22.801  14.786
66864W        W33295  24.947  31.377  13.513
66865W        W33296  32.040   2.282   2.248
66866W        W33297   4.477  41.585   1.472
66867W        W33298  10.289  15.987   4.067
66868W        W33299   6.771  43.554   3.588
66869W        W33300  41.473   7.312  14.320
66870W        W33301  18.535  38.877   0.821
66871W        W33302  29.605  29.080   2.167
66872W        W33303  21.244  43.493  11.618
66873W        W33304   8.868  17.610  10.231
66874W        W33305  14.690  14.652  13.132
66875W        W33306  12.889   7.802  13.929
66876W        W33307  26.756  36.621  14.482
66877W        W33308  32.927  25.039  14.499
66878W        W33309   1.770   3.911   2.196
66879W        W33310  39.898   9.759  14.115
66880W        W33311  36.928  38.470  13.006
66881W        W33312   6.081  35.045  12.229
66882W        W33313  18.331  34.628   0.997
66883W        W33314  26.843  25.743  13.207
66884W        W33315   9.761  38.334   2.609
66885W        W33316  43.769  34.957  11.402
66886W        W33317  22.556  32.455   0.189
66887W        W33318  26.721  43.901  10.677
66888W        W33319  38.512   2.730  11.548
66889W        W33320  22.679   9.910   0.946
66890W        W33321  34.583  26.748  13.398
66891W        W33322  42.712   5.178   1.296
66892W        W33323  34.152  25.563   3.085
66893W        W33324   9.863  18.643   0.992
66894W        W33325  35.693   1.900  14.055
66895W        W33326  13.323  10.979  11.674
66896W        W33327  17.258  26.195   2.428
66897W        W33328   7.830   6.664   1.973
66898W        W33329  34.078  11.867  10.734
66899W        W33330   7.899   5.590   4.721
66900W        W33331  29.175  19.010  13.952
66901W        W33332  34.687   8.700  13.044
66902W        W33333  37.177   4.985   1.894
66903W        W33334  43.067   1.525   2.181
66904W        W33335   4.800  31.370   2.853
66905W        W33336   2.969  11.429  10.729
66906W        W33337  21.126   2.279  14.339
66907W        W33338  16.755  19.768   2.737
66908W        W33339  35.597  35.157   3.729
66909W        W33340   0.731  12.144   0.656
66910W        W33341  16.259  10.281   1.350
66911W        W33342   4.795  13.110   3.205
66912W        W33343  37.007   5.952  11.616
66913W        W33344  22.591  30.006  14.814
66914W        W33345  10.228  43.430  13.876
66915W        W33346  31.876   8.574  14.245
66916W        W33347  24.643  17.053  14.942
66917W        W33348   5.905  41.554   2.649
66918W        W33349  32.524  30.021   3.747
66919W        W33350  24.637  21.713  14.618
66920W        W33351  25.560  19.746   3.781
66921W        W33352  28.584  18.924   0.639
66922W        W33353  24.056   1.353  11.096
66923W        W33354  16.306  25.781   1.298
66924W        W33355  19.678  43.261  14.829
66925W        W33356  44.890   3.777  12.114
66926W        W33357  16.285  19.632   4.954
66927W        W33358  27.448  29.604  10.661
66928W        W33359  10.932   0.725   4.735
66929W        W33360  24.131   9.937   4.273
66930W        W33361   9.270  40.728   1.695
66931W        W33362  22.301   3.791  14.338
66932W        W33363   7.661  12.021  10.725
66933W        W33364   5.028   5.575   0.264
66934W        W33365  24.918   1.956  13.842
66935W        W33366  39.072   8.874   2.737
66936W        W33367  28.637  16.476  10.674
66937W        W33368   3.476  16.033   1.828
66938W        W33369  10.348  26.527   4.618
66939W        W33370  30.639  24.723  14.821
66940W        W33371  11.827  43.486  11.103
66941W        W33372  44.867  29.957  10.843
66942W        W33373  39.879  14.175   4.723
66943W        W33374  32.279  27.405  11.575
66944W        W33375  35.865  16.300  13.913
66945W        W33376  26.478   0.535   2.342
66946W        W33377  37.641   2.149  10.773
66947W        W33378  34.902  23.583   1.725
66948W        W33379  40.746   3.486  14.147
66949W        W33380  29.436  34.201   3.647
66950W        W33381  14.740  13.271   2.380
66951W        W33382  44.331   2.728  13.369
66952W        W33383  38.173  22.500  14.201
66953W        W33384  23.822  17.245  10.705
66954W        W33385   8.572  10.962  13.987
66955W        W33386  18.803  34.440   0.836
66956W        W33387  39.781  44.593   1.769
66957W        W33388  39.794   3.623  12.058
66958W        W33389  43.090   9.280   0.814
66959W        W33390  32.800   1.296  10.778
66960W        W33391   8.428  37.914  10.781
66961W        W33392   6.185  40.583   2.321
66962W        W33393  41.075  25.704  10.641
66963W        W33394  28.720  22.453   0.893
66964W        W33395  21.746   4.896   1.720
66965W        W33396  19.515  33.560   3.778
66966W        W33397  23.751  20.189   4.543
66967W        W33398  15.072  42.454  11.035
66968W        W33399  11.226   3.372  14.404
66969W        W33400   1.929  41.324   3.879
66970W        W33401  27.461   1.723   2.250
66971W        W33402  38.942   7.399  13.220
66972W        W33403  31.609  23.291   2.424
66973W        W33404  13.210  34.121  12.959
66974W        W33405  37.221  13.175   1.407
66975W        W33406  12.025   8.679  13.332
66976W        W33407   4.420  15.286  12.473
66977W        W33408  39.830   2.844  11.362
66978W        W33409  28.343  13.682   3.161
66979W        W33410   6.743  13.161  11.965
66980W        W33411  36.085  24.761  11.206
66981W        W33412  29.851   5.654  12.044
66982W        W33413   8.439  38.403   4.178
66983W        W33414  27.568   7.880  12.903
66984W        W33415  32.397  13.391   4.551
66985W        W33416  22.684  44.942   3.539
66986W        W33417   9.073  32.934  14.461
66987W        W33418  39.949   0.349   3.178
66988W        W33419   6.548  41.341  13.475
66989W        W33420   0.198  34.070   0.018
66990W        W33421  41.294  14.897  10.887
66991W        W33422  16.128   7.439   4.996
66992W        W33423   9.224  43.918  10.903
66993W        W33424  43.791  28.563   2.332
66994W        W33425  39.510   4.373  10.323
66995W        W33426  20.009  16.627   1.934
66996W        W33427  32.631  42.694  14.680
66997W        W33428  17.800  43.805  12.093
66998W        W33429   7.795  39.815   0.980
66999W        W33430   6.161  23.269   4.116
67000W        W33431  23.672  30.552  12.433
67001W        W33432  20.330  23.577  10.223
67002W        W33433   0.578  31.980  13.042
67003W        W33434  38.380   4.103  14.116
67004W        W33435  20.651  26.930  12.063
67005W        W33436  15.832   6.667  11.590
67006W        W33437   5.721   3.353  10.266
67007W        W33438  21.704  34.861   1.834
67008W        W33439  24.137   6.126  14.280
67009W        W33440  13.248  10.200   3.373
67010W        W33441  16.878  36.398   4.146
67011W        W33442   2.480  29.486  10.338
67012W        W33443  11.422  28.599   2.800
67013W        W33444  14.261  10.275   1.996
67014W        W33445  21.631  10.815  14.998
67015W        W33446   9.849   6.890  13.646
67016W        W33447  35.398  18.646   3.221
67017W        W33448  33.919  35.355   4.560
67018W        W33449  31.943  34.975   2.381
67019W        W33450   1.409  11.852   4.164
67020W        W33451  40.413   5.780  13.961
67021W        W33452  10.808  34.421  13.090
67022W        W33453  33.376  33.461   1.718
67023W        W33454  12.310  21.299   0.515
67024W        W33455  38.709  22.725   3.707
67025W        W33456  12.155   5.781   3.717
67026W        W33457  38.439  32.016   2.593
67027W        W33458  13.590  34.870  12.623
67028W        W33459  36.967   6.152   2.742
67029W        W33460  28.159  12.324   1.453
67030W        W33461  44.461   7.664  11.081
67031W        W33462  19.234   8.678   2.473
67032W        W33463   1.944   7.402   1.309
67033W        W33464  26.591   3.003  14.399
67034W        W33465  22.618  23.079  13.444
67035W        W33466  37.253  43.305   9.767
67036W        W33467  10.720  44.251   2.661
67037W        W33468  36.371  28.557   3.294
67038W        W33469  13.941  28.685   1.884
67039W        W33470  18.775  34.465   4.272
67040W        W33471   3.327  14.852   4.356
67041W        W33472  15.692  15.137  14.522
67042W        W33473   6.120  44.783  11.009
67043W        W33474  26.043  20.216  14.735
67044W        W33475   9.726  11.674   4.722
67045W        W33476   4.723   9.638  14.918
67046W        W33477  11.214  19.106  13.026
67047W        W33478  36.957  10.562  13.374
67048W        W33479  37.601  11.740  10.792
67049W        W33480  40.398   4.362   2.568
67050W        W33481  41.097  40.462   1.329
67051W        W33482   2.145  17.024  13.445
67052W        W33483  14.868   9.232  12.512
67053W        W33484  17.110  39.168  14.973
67054W        W33485   0.723   9.814   3.338
67055W        W33486  28.198  43.978   0.950
67056W        W33487   1.437   6.285  13.353
67057W        W33488  24.214  26.901   9.646
67058W        W33489  43.581   0.459  11.920
67059W        W33490  33.580  12.799   3.359
67060W        W33491   9.198  40.445  14.493
67061W        W33492  18.052  27.052   1.107
67062W        W33493  34.904  18.537   3.233
67063W        W33494  14.569  33.499  12.134
67064W        W33495  41.253  22.702   4.584
67065W        W33496  26.633  23.503  13.929
67066W        W33497  10.176  25.630  12.150
67067W        W33498  22.459  37.378  11.921
67068W        W33499  29.946  42.051   4.321
67069W        W33500  11.822  13.661  11.908
67070W        W33501   8.690   7.468  12.569
67071W        W33502  37.478   6.223   2.855
67072W        W33503  30.970  13.686   4.054
67073W        W33504  23.178   9.295   3.356
67074W        W33505  21.028  24.966   0.757
67075W        W33506   9.321  28.510  14.230
67076W        W33507  10.564   9.772  11.471
67077W        W33508   4.392   3.762   2.375
67078W        W33509   4.328   8.681   0.714
67079W        W33510  26.192  38.855   1.148
67080W        W33511   0.815  32.626   3.501
67081W        W33512  21.950  44.742  13.849
67082W        W33513   9.614  29.903   4.999
67083W        W33514   3.754  19.128   4.796
67084W        W33515   3.336  36.669  12.000
67085W        W33516   9.621   1.284   3.982
67086W        W33517  28.605   6.852  11.542
67087W        W33518   8.235  42.164  14.686
67088W        W33519  36.447  43.465  14.759
67089W        W33520  24.384   5.937  11.518
67090W        W33521  15.780  44.471  13.294
67091W        W33522  22.667   9.749   0.013
67092W        W33523  17.503  16.359   0.493
67093W        W33524  12.853  41.442  11.101
67094W        W33525  23.868   8.583   5.240
67095W        W33526   6.133   3.368  12.941
67096W        W33527  19.687  17.570  12.334
67097W        W33528  42.365  29.846  13.063
67098W        W33529   4.385   9.978  12.164
67099W        W33530  33.326  17.640  11.146
67100W        W33531   2.915  33.013   0.272
67101W        W33532  18.877  13.437   5.297
67102W        W33533  43.190   4.405   1.018
67103W        W33534  30.140  10.553  12.076
67104W        W33535  19.941   2.213   0.708
67105W        W33536  20.987  21.696  13.808
67106W        W33537  11.386   8.334  12.907
67107W        W33538  12.822  27.923  13.228
67108W        W33539  17.745   6.650   5.394
67109W        W33540   6.754  17.753   2.204
67110W        W33541  22.888  14.673  12.177
67111W        W33542  40.072   3.003   3.779
67112W        W33543  26.057   4.391   1.873
67113W        W33544  17.546  34.452  10.552
67114W        W33545  29.167  34.603   3.844
67115W        W33546  31.343  41.781   4.204
67116W        W33547  25.389   4.919  11.585
67117W        W33548  37.179   6.334   0.720
67118W        W33549  39.789   8.240   4.377
67119W        W33550  24.601  14.346   4.648
67120W        W33551  33.369  25.664  11.523
67121W        W33552  37.243  28.519   0.879
67122W        W33553   0.699  12.798   2.255
67123W        W33554  35.508   2.729  13.352
67124W        W33555  22.164  25.432  11.999
67125W        W33556   4.423   4.368  14.856
67126W        W33557   8.185   6.372   0.956
67127W        W33558  36.152   6.448   3.099
67128W        W33559  35.315  13.320  10.686
67129W        W33560  14.138   5.427   2.305
67130W        W33561  35.415  25.517  12.587
67131W        W33562  22.795  37.769  10.803
67132W        W33563  16.772  27.366  12.624
67133W        W33564  24.181  17.193   0.824
67134W        W33565  36.915  24.122  11.139
67135W        W33566   7.786  41.018  11.602
67136W        W33567  40.951  17.763   2.204
67137W        W33568  21.954   1.325  13.322
67138W        W33569  35.641  38.914   0.845
67139W        W33570  21.984  13.863   0.975
67140W        W33571   2.677   3.592  14.104
67141W        W33572   0.807  23.156  11.675
67142W        W33573  17.099   8.388   4.718
67143W        W33574  19.655  17.709  11.352
67144W        W33575  24.066  44.388  13.448
67145W        W33576  27.864   2.786   3.291
67146W        W33577  17.443  18.310  12.005
67147W        W33578  13.454   0.829   4.189
67148W        W33579  11.755  22.829  13.132
67149W        W33580  20.552  42.255   2.719
67150W        W33581  18.679   5.495  12.076
67151W        W33582  35.732  11.592   0.833
67152W        W33583  44.796   2.858  14.571
67153W        W33584  27.636  24.570   3.758
67154W        W33585  20.840  27.612  10.574
67155W        W33586  24.507  24.640   0.849
67156W        W33587   1.961  22.006   4.165
67157W        W33588  17.105  10.327  12.345
67158W        W33589  43.875  14.944  12.995
67159W        W33590  23.424  38.783   5.068
67160W        W33591  28.977   6.856   1.627
67161W        W33592  13.893   2.467  12.170
67162W        W33593  19.077   8.626  12.063
67163W        W33594  26.454  14.268  10.954
67164W        W33595   5.484  32.134  13.795
67165W        W33596  13.729  37.816  14.834
67166W        W33597  16.829  15.979  14.322
67167W        W33598   4.458   3.270   2.798
67168W        W33599  16.390  41.379   4.930
67169W        W33600  22.973  30.665  11.816
67170W        W33601  22.900  26.572  13.351
67171W        W33602  38.122   9.053   3.865
67172W        W33603   0.445  30.119  11.997
67173W        W33604   8.481  42.988   1.726
67174W        W33605  28.242   6.241   3.984
67175W        W33606  14.569  33.425   2.488
67176W        W33607  41.477   7.524   0.490
67177W        W33608   4.764  30.430   2.800
67178W        W33609  18.123  33.888   1.625
67179W        W33610   0.487  28.167   0.259
67180W        W33611  28.988   8.810  13.915
67181W        W33612  34.659   6.738  10.824
67182W        W33613  19.525  44.350   3.245
67183W        W33614  13.113  22.099  11.078
67184W        W33615  38.265  15.279  13.858
67185W        W33616   3.110  43.513  14.534
67186W        W33617  25.673  16.089  10.712
67187W        W33618  21.532  13.626  13.901
67188W        W33619  13.417  28.708  12.929
67189W        W33620  43.547  12.275   1.752
67190W        W33621  42.387  16.881  11.536
67191W        W33622  42.855  21.769   1.211
67192W        W33623   8.785  26.268   1.390
67193W        W33624  27.369   9.206  11.167
67194W        W33625  30.884  20.556  13.992
67195W        W33626  31.708   9.479   2.784
67196W        W33627   1.190   0.885   5.135
67197W        W33628  21.815   1.590   1.796
67198W        W33629  33.927  34.534   0.884
67199W        W33630  11.156  33.007   1.904
67200W        W33631   4.772  29.991   2.543
67201W        W33632  35.330   7.186  14.699
67202W        W33633  22.665  18.190   3.427
67203W        W33634  18.609  26.292   3.558
67204W        W33635  18.208  27.413   4.609
67205W        W33636  13.143  12.400   1.407
67206W        W33637  14.247  23.347   0.808
67207W        W33638   6.304  32.465   4.046
67208W        W33639  14.630  14.504   2.863
67209W        W33640  38.812  28.078   3.580
67210W        W33641  26.086  39.473   4.178
67211W        W33642  10.754  32.912  10.768
67212W        W33643  30.740  24.963  13.727
67213W        W33644   7.643  38.103   0.169
67214W        W33645  24.295  30.098   3.261
67215W        W33646  38.876  36.528  11.340
67216W        W33647   3.387   1.483   1.969
67217W        W33648   4.112  28.159  12.919
67218W        W33649  38.927  28.278  11.224
67219W        W33650   7.948   5.372   0.745
67220W        W33651   9.592  36.444  12.531
67221W        W33652  13.900  20.714  12.563
67222W        W33653   7.752   2.083  11.695
67223W        W33654  41.916  19.283  14.846
67224W        W33655   0.358  16.952  12.367
67225W        W33656  10.790  40.299   2.806
67226W        W33657  23.213  40.741  14.842
67227W        W33658  40.842  40.769   3.223
67228W        W33659  23.277   0.111  14.846
67229W        W33660  35.459  23.544  14.763
67230W        W33661   4.195  38.360  14.483
67231W        W33662  25.184  36.968  12.100
67232W        W33663  37.026  17.803  12.060
67233W        W33664  27.660   7.387  11.575
67234W        W33665  28.808   2.817   2.875
67235W        W33666   4.301  44.407  14.368
67236W        W33667   1.784  25.663  11.997
67237W        W33668   0.228  18.150  11.924
67238W        W33669  10.229  37.459  14.071
67239W        W33670   9.210  32.292   2.372
67240W        W33671  25.761  20.693  13.625
67241W        W33672  43.470  44.439  13.396
67242W        W33673   8.250  19.208  11.443
67243W        W33674   6.223  30.029   2.417
67244W        W33675  19.627  25.921  13.789
67245W        W33676  22.942  33.557   5.026
67246W        W33677  40.116  35.535   4.565
67247W        W33678  38.806  37.417   0.944
67248W        W33679  20.268  32.014   1.801
67249W        W33680  34.794   3.868  14.363
67250W        W33681  33.684   9.734  11.010
67251W        W33682  10.681  37.075   2.607
67252W        W33683  37.486  14.194   2.670
67253W        W33684  18.775  38.921   1.276
67254W        W33685  39.113   6.379  12.800
67255W        W33686  18.021   6.378   2.663
67256W        W33687  44.437  16.989  13.367
67257W        W33688  38.000  36.478   3.583
67258W        W33689   3.263  32.438   4.576
67259W        W33690  11.482  37.282   3.694
67260W        W33691  26.953   5.075  13.935
67261W        W33692   4.388  17.935   0.240
67262W        W33693  35.396  25.868   2.602
67263W        W33694  36.616   2.949  14.483
67264W        W33695  15.699   2.175   2.757
67265W        W33696  21.804   5.036   3.807
67266W        W33697   8.440   5.718  11.154
67267W        W33698  42.442  19.514  11.939
67268W        W33699  23.786   2.201   2.700
67269W        W33700  37.457  34.117   1.818
67270W        W33701  42.934  15.252  13.330
67271W        W33702   7.354   5.716   2.284
67272W        W33703   5.275  11.250  11.548
67273W        W33704  44.146  39.914  14.855
67274W        W33705  44.943  22.571  14.562
67275W        W33706  32.734  21.268   0.332
67276W        W33707  33.573  39.826   3.780
67277W        W33708  31.421  15.775   2.169
67278W        W33709  18.902  14.728  13.179
67279W        W33710   9.202   1.677   2.708
67280W        W33711  33.286  24.645  11.646
67281W        W33712  37.323  44.286   3.604
67282W        W33713  24.535  41.608  11.083
67283W        W33714  17.286  21.812   0.998
67284W        W33715  21.176  19.590  10.679
67285W        W33716  29.012  18.733   4.537
67286W        W33717  41.256  33.411  13.873
67287W        W33718  19.274   2.237  13.805
67288W        W33719  18.608  16.616   1.346
67289W        W33720  13.301  10.734   1.360
67290W        W33721  22.224  24.157   2.441
67291W        W33722  21.611   3.831  12.703
67292W        W33723  41.111  30.222  11.529
67293W        W33724   5.226   5.906  13.505
67294W        W33725  19.974  25.661   1.944
67295W        W33726  27.831  27.171   4.109
67296W        W33727  31.624   3.160   2.849
67297W        W33728  32.819  41.551   0.130
67298W        W33729  34.974  11.803  11.492
67299W        W33730  36.528  33.917   3.543
67300W        W33731  35.370   3.510  11.581
67301W        W33732  14.267  21.978  12.916
67302W        W33733  35.984  28.619   0.299
67303W        W33734  19.569   1.790   4.688
67304W        W33735  16.824   7.585  12.998
67305W        W33736  17.832  32.435   4.647
67306W        W33737   6.504   0.267  12.324
67307W        W33738  13.614  32.962  11.847
67308W        W33739  18.294  33.475   1.320
67309W        W33740  33.924  12.353  14.727
67310W        W33741  23.054   3.336   1.474
67311W        W33742  33.485  17.200  14.137
67312W        W33743  14.224  19.772   3.738
67313W        W33744   0.164  17.654   1.412
67314W        W33745  34.667  27.920   2.188
67315W        W33746  23.385  40.750   3.184
67316W        W33747  22.016  34.450  12.894
67317W        W33748  19.596   3.060   0.424
67318W        W33749   9.678  17.306  12.991
67319W        W33750  30.009  10.938  13.558
67320W        W33751   7.302  15.826   2.845
67321W        W33752  21.855   1.364  11.497
67322W        W33753  43.905   8.224  14.315
67323W        W33754  13.129   4.416  12.847
67324W        W33755  38.830  20.340  14.316
67325W        W33756  11.774   4.358   2.774
67326W        W33757  32.111  42.869   2.880
67327W        W33758   6.502   3.949   4.181
67328W        W33759  40.831  41.525   0.499
67329W        W33760   3.688  19.477   2.775
67330W        W33761  29.486  21.727  14.918
67331W        W33762  40.350  15.667   3.599
67332W        W33763  15.456  10.802   4.884
67333W        W33764  42.308  29.249  12.946
67334W        W33765  42.087   6.718  13.841
67335W        W33766  21.895   2.213   0.931
67336W        W33767  18.994  17.456   1.221
67337W        W33768  34.642  35.771  13.001
67338W        W33769  33.951  36.612  14.233
67339W        W33770  16.000  40.508   4.174
67340W        W33771  34.817   6.666   2.742
67341W        W33772  40.488   6.997  13.980
67342W        W33773   7.983   3.531  11.542
67343W        W33774   5.132   8.582  14.378
67344W        W33775  43.437   2.482  12.943
67345W        W33776  41.776  13.538  10.985
67346W        W33777   4.760   7.258  11.130
67347W        W33778   7.765  38.121   4.807
67348W        W33779   8.648   1.823   0.240
67349W        W33780  40.371  10.503  14.103
67350W        W33781  13.295   8.411  14.003
67351W        W33782   1.857  40.110  12.038
67352W        W33783  21.198  36.456   0.483
67353W        W33784  34.364  40.666  12.591
67354W        W33785   8.897  18.421   1.871
67355W        W33786   4.360  27.475   3.307
67356W        W33787  38.326  38.525   3.187
67357W        W33788  29.474  21.223   2.132
67358W        W33789  39.562   5.556  11.139
67359W        W33790  37.635  33.190   2.439
67360W        W33791  10.632  17.138  14.351
67361W        W33792  28.105  29.123   4.625
67362W        W33793   2.680   0.588  13.310
67363W        W33794  36.636   5.180   1.273
67364W        W33795  24.821  35.452  10.754
67365W        W33796   6.736  20.852   0.806
67366W        W33797  40.849  16.591   0.412
67367W        W33798   1.395   5.898   5.012
67368W        W33799  24.726  27.567   0.773
67369W        W33800  36.420  42.484  14.381
67370W        W33801  34.802  13.713   3.273
67371W        W33802  23.065   8.360   3.801
67372W        W33803   8.208   9.729  10.738
67373W        W33804  11.054  18.783   4.145
67374W        W33805  22.990  44.415   3.625
67375W        W33806  14.593  32.954   2.273
67376W        W33807  41.305   9.957  13.339
67377W        W33808  41.037   1.281   2.477
67378W        W33809  30.885  23.963   1.343
67379W        W33810  19.205   8.431   1.978
67380W        W33811  34.570  43.031   3.766
67381W        W33812  37.529  39.347   4.000
67382W        W33813  10.677   0.008   3.180
67383W        W33814  17.148  13.235   3.756
67384W        W33815  15.354  18.685  12.013
67385W        W33816  10.767  32.522  12.422
67386W        W33817  11.978   3.840  10.661
67387W        W33818  28.179   5.355   2.126
67388W        W33819   3.823  32.823   0.684
67389W        W33820   1.860   7.452   3.499
67390W        W33821  21.730   1.719   4.921
67391W        W33822  30.357   9.167  13.093
67392W        W33823  42.604   8.835  10.947
67393W        W33824  31.165  42.512  13.452
67394W        W33825  31.384  27.286   2.386
67395W        W33826  26.145  44.853   3.365
67396W        W33827  20.814  36.427  13.519
67397W        W33828   2.454  27.414   0.911
67398W        W33829   8.848  21.753   3.115
67399W        W33830  23.749  43.750   4.234
67400W        W33831   9.778  34.260  12.150
67401W        W33832   6.842  38.148  12.098
67402W        W33833  39.839  30.665  11.735
67403W        W33834   3.490  16.603   3.986
67404W        W33835  20.481  33.178   2.769
67405W        W33836  16.723  19.511  13.602
67406W        W33837  21.706  19.007   3.737
67407W        W33838  15.443   5.847   2.571
67408W        W33839  28.194  10.555   2.116
67409W        W33840  34.011   9.911  13.399
67410W        W33841   6.302   1.357   0.249
67411W        W33842  44.408  26.646  11.992
67412W        W33843  38.386   1.267   1.209
67413W        W33844  14.373  20.472   2.258
67414W        W33845  41.556  17.309  13.993
67415W        W33846   2.948  14.910   0.502
67416W        W33847   3.664  25.701  13.911
67417W        W33848  14.913  16.440   2.685
67418W        W33849   8.285  21.495   4.052
67419W        W33850  37.747  29.981   3.633
67420W        W33851  19.144   6.532  13.396
67421W        W33852   3.334  33.183  14.995
67422W        W33853   1.985  10.563  11.400
67423W        W33854  19.258  22.926  12.134
67424W        W33855   5.811  36.055  11.230
67425W        W33856  17.821  30.022  14.422
67426W        W33857  30.170   3.844   2.971
67427W        W33858  39.843   2.973  10.584
67428W        W33859  10.710  28.035   1.187
67429W        W33860  22.548  40.102   1.814
67430W        W33861  11.856  34.945   1.365
67431W        W33862  31.672   9.856   3.125
67432W        W33863   5.971  10.973   4.081
67433W        W33864  33.615  43.439   2.337
67434W        W33865   7.539  24.073   3.291
67435W        W33866  29.037  28.628  14.594
67436W        W33867  30.735  33.202   1.221
67437W        W33868  26.250   4.464  14.261
67438W        W33869  35.225  15.805  11.141
67439W        W33870  10.909  42.987   4.128
67440W        W33871  42.750  40.099  13.445
67441W        W33872  42.071  13.360  11.455
67442W        W33873  13.220  15.885   4.244
67443W        W33874  14.563  28.149   5.079
67444W        W33875   7.400  31.167   4.518
67445W        W33876  16.179  42.317  12.579
67446W        W33877  10.153  21.949   2.847
67447W        W33878  15.564  10.297   4.734
67448W        W33879  32.696  13.506  10.657
67449W        W33880  31.501  23.401  10.685
67450W        W33881  12.331   6.470  11.380
67451W        W33882   7.859   0.010  13.536
67452W        W33883  32.499  30.383  12.402
67453W        W33884  26.292  43.297  14.385
67454W        W33885  44.318  26.550   3.610
67455W        W33886  25.173  21.104   3.695
67456W        W33887  16.037  33.435  10.953
67457W        W33888  21.032  30.634  11.398
67458W        W33889  25.136  44.522  13.815
67459W        W33890   5.305   6.146   4.302
67460W        W33891   0.420  21.215  12.436
67461W        W33892  42.452  32.485  11.926
67462W        W33893  33.499  35.644  10.113
67463W        W33894   4.173   2.895   3.048
67464W        W33895   0.416  15.208  14.848
67465W        W33896  30.692  16.962   0.880
67466W        W33897  26.088  28.842   4.659
67467W        W33898  35.095  17.722   4.471
67468W        W33899  15.316  25.477   0.278
67469W        W33900   4.906  35.089  10.606
67470W        W33901  28.604  10.159   2.676
67471W        W33902   8.420  34.980   3.994
67472W        W33903  22.945  41.802   3.359
67473W        W33904  28.015   3.975  10.297
67474W        W33905  28.747  28.624  12.475
67475W        W33906  42.515  41.968  13.885
67476W        W33907  41.923  17.712  13.943
67477W        W33908  15.826  25.013  12.975
67478W        W33909  39.367  12.575  12.483
67479W        W33910  18.402  30.409   1.353
67480W        W33911   4.478  18.157   1.197
67481W        W33912   9.763  41.990  13.017
67482W        W33913   9.608  10.595  14.610
67483W        W33914   5.715  20.275   2.823
67484W        W33915   7.586   9.768   1.339
67485W        W33916  23.955   6.891   2.417
67486W        W33917  28.182  35.309   0.789
67487W        W33918  12.829  38.170   4.143
67488W        W33919   1.015  43.342   4.768
67489W        W33920  22.855   6.193  12.684
67490W        W33921  18.848   4.040   3.605
67491W        W33922  13.958   7.228  13.793
67492W        W33923   4.804  40.077  13.022
67493W        W33924  17.506  43.379  14.253
67494W        W33925  14.508  12.783   3.310
67495W        W33926  28.427  37.394   0.945
67496W        W33927   4.656  30.531  13.165
67497W        W33928  31.548   8.670  10.389
67498W        W33929  27.499   3.455   3.650
67499W        W33930   3.800  36.392   4.098
67500W        W33931  23.470   2.723  13.035
67501W        W33932   9.696  29.021  13.101
67502W        W33933  42.302   1.505   2.885
67503W        W33934  18.849  30.715  13.032
67504W        W33935  40.221  19.537  11.611
67505W        W33936   0.771   4.030   0.075
67506W        W33937  36.014  35.904  11.569
67507W        W33938   5.448  21.174   3.254
67508W        W33939  28.435   4.664   5.820
67509W        W33940   1.357  37.796   4.852
67510W        W33941  21.356  36.590   3.687
67511W        W33942  41.904  30.137  12.581
67512W        W33943  11.056   5.284  11.617
67513W        W33944   5.153  31.466  12.445
67514W        W33945  42.639  28.287  13.085
67515W        W33946  42.536  39.347  14.547
67516W        W33947   7.444  31.677   3.231
67517W        W33948   4.122  23.783   4.606
67518W        W33949  22.090   9.890  11.158
67519W        W33950  41.335  12.407  11.659
67520W        W33951  16.245   0.907   0.401
67521W        W33952  35.633   9.661   2.280
67522W        W33953   0.192  36.106   2.797
67523W        W33954  38.147  20.157  13.688
67524W        W33955   0.541  42.347   3.641
67525W        W33956  36.554  28.054  11.064
67526W        W33957  42.128  17.831  13.461
67527W        W33958  14.515  15.865   1.937
67528W        W33959  20.950   0.327   4.685
67529W        W33960  28.582   2.801  14.424
67530W        W33961  24.715  21.233  11.079
67531W        W33962   1.985  15.437  11.765
67532W        W33963  44.322  17.155  14.825
67533W        W33964  26.474  30.532   9.530
67534W        W33965   1.312  15.643   4.233
67535W        W33966  36.545  32.692   4.607
67536W        W33967  40.102  42.519  10.289
67537W        W33968   0.814  25.053  10.356
67538W        W33969   9.793   6.107   4.342
67539W        W33970  39.712   3.175  13.792
67540W        W33971   1.305  14.209  12.642
67541W        W33972  42.104  23.952  10.576
67542W        W33973  41.075  31.937   2.215
67543W        W33974   6.474  39.696  12.001
67544W        W33975  38.435  28.632  13.282
67545W        W33976  30.017  21.536  11.556
67546W        W33977  19.399  30.388  10.289
67547W        W33978  10.426  36.323   1.381
67548W        W33979  41.882   6.075   2.662
67549W        W33980  21.631  27.738  11.931
67550W        W33981  19.600  40.511  12.273
67551W        W33982  17.303  29.988   0.326
67552W        W33983  16.623  42.305   0.288
67553W        W33984  43.945  23.133  10.920
67554W        W33985  36.625  18.660  14.907
67555W        W33986  35.833  37.866  10.541
67556W        W33987   9.108   1.010  14.030
67557W        W33988  27.464  31.896  10.738
67558W        W33989   8.413  20.778  10.453
67559W        W33990   1.402  12.878   0.017
67560W        W33991  25.412   1.392   4.030
67561W        W33992  38.944  23.196   3.728
67562W        W33993   2.358  33.119  12.102
67563W        W33994  22.611   3.290   2.299
67564W        W33995  37.569  32.859   1.946
67565W        W33996  39.766   3.326   5.060
67566W        W33997   4.275  14.662  10.279
67567W        W33998   9.195  24.515   0.306
67568W        W33999  39.741  32.114  11.682
67569W        W34000  23.552  34.155  11.065
67570W        W34001  34.342  43.467   3.895
67571W        W34002   5.452   1.507   1.805
67572W        W34003   7.895  14.070  14.860
67573W        W34004  40.049  38.555   4.524
67574W        W34005   3.045   9.699   1.817
67575W        W34006   1.607  23.280   2.608
67576W        W34007  14.142  41.783  11.068
67577W        W34008   2.387   0.733   5.027
67578W        W34009   3.923  21.475   4.464
67579W        W34010  20.220   0.818   3.583
67580W        W34011  11.835  26.052   2.420
67581W        W34012  23.529  22.369  12.550
67582W        W34013   6.185  15.550   4.775
67583W        W34014  35.853  15.767  13.859
67584W        W34015   3.298   1.218   3.728
67585W        W34016  33.451  30.397  14.167
67586W        W34017   0.748   7.224  13.480
67587W        W34018  28.107  10.293  10.668
67588W        W34019  36.877   5.872  13.460
67589W        W34020  24.689   9.037   1.952
67590W        W34021   9.740  12.033  14.098
67591W        W34022  19.084  31.648  13.430
67592W        W34023   1.503   5.892  11.223
67593W        W34024  22.556   6.916   2.669
67594W        W34025  24.907  28.263  10.690
67595W        W34026   1.034  42.916  12.932
67596W        W34027  25.712   2.816  13.901
67597W        W34028  22.401   2.970  14.780
67598W        W34029  36.937  12.428  13.756
67599W        W34030   9.915  27.978  11.528
67600W        W34031  30.576  17.457   0.777
67601W        W34032  40.916  22.026  14.327
67602W        W34033  39.535  37.132   1.409
67603W        W34034  29.042  40.777  13.104
67604W        W34035   0.371   4.202  14.249
67605W        W34036  13.751  43.201   4.576
67606W        W34037   3.981  18.016  11.826
67607W        W34038   0.577  26.602  14.764
67608W        W34039  20.285  24.486  14.786
67609W        W34040   2.969  44.537   3.686
67610W        W34041  22.401  16.118  10.985
67611W        W34042  43.867  16.540   1.304
67612W        W34043   4.662  34.638   0.458
67613W        W34044  35.047  40.547   1.250
67614W        W34045  41.986  30.863  12.072
67615W        W34046   3.181  31.158  10.896
67616W        W34047   8.246  25.198  10.435
67617W        W34048  32.670   3.046  14.349
67618W        W34049   2.440  37.907  11.587
67619W        W34050  35.782   1.256   3.219
67620W        W34051  38.990  24.541   5.026
67621W        W34052   3.732  23.622   3.200
67622W        W34053  23.393  33.912   0.351
67623W        W34054  23.133  13.302   1.451
67624W        W34055   4.786   6.778  13.500
67625W        W34056  15.863  17.105   3.657
67626W        W34057  31.623  15.256  14.365
67627W        W34058  40.784  40.752   5.114
67628W        W34059  12.850  24.859   1.342
67629W        W34060   6.850   2.375  10.727
67630W        W34061  33.807  25.946   3.146
67631W        W34062  18.051  24.032  14.268
67632W        W34063  13.801  23.680  14.676
67633W        W34064  25.328  31.934   1.127
67634W        W34065  13.459  44.965   4.460
67635W        W34066  29.336   9.190  14.793
67636W        W34067  21.497  27.087  14.526
67637W        W34068  37.482   3.995  12.625
67638W        W34069   3.806  38.978   4.293
67639W        W34070   1.278   1.399   0.057
67640W        W34071  36.009  43.253  12.887
67641W        W34072  19.928  26.051  14.213
67642W        W34073  43.661  24.198  11.483
67643W        W34074  14.741  32.082   3.290
67644W        W34075   6.225  40.521   0.457
67645W        W34076  37.611  38.788   3.144
67646W        W34077   2.333  11.045   3.894
67647W        W34078   6.846   0.606   3.459
67648W        W34079   3.483  32.682   4.162
67649W        W34080  33.127  15.872  14.866
67650W        W34081  10.640   1.338   4.188
67651W        W34082  28.799  13.780  11.058
67652W        W34083  12.634  33.005   2.917
67653W        W34084  23.050   6.719  10.402
67654W        W34085  30.660   1.256   1.345
67655W        W34086  38.004   0.244   1.493
67656W        W34087   5.226  39.319  11.172
67657W        W34088   3.849  25.248  14.700
67658W        W34089  42.248  22.622   4.703
67659W        W34090   6.754  36.442  10.923
67660W        W34091  30.952  40.744  10.936
67661W        W34092  27.682  18.010  13.961
67662W        W34093   1.507  29.511   2.723
67663W        W34094  42.992  26.346   1.919
67664W        W34095  12.768   3.336   5.055
67665W        W34096  28.627   0.464   2.359
67666W        W34097  29.662   0.033  14.083
67667W        W34098   7.292  37.984   2.998
67668W        W34099  25.102  13.267   0.755
67669W        W34100  15.133  30.562   1.437
67670W        W34101  15.422   0.400   2.830
67671W        W34102  20.482  31.543   1.755
67672W        W34103  40.243   3.901  12.023
67673W        W34104  31.594  26.948  12.219
67674W        W34105   7.340  26.585  13.779
67675W        W34106  11.985  18.635  11.348
67676W        W34107  18.323   3.819   5.400
67677W        W34108   2.691   9.311   0.987
67678W        W34109  11.846   4.571  14.623
67679W        W34110   6.314   7.224  12.649
67680W        W34111  17.046  16.653   1.802
67681W        W34112  34.487  29.182  13.840
67682W        W34113  40.782  19.227   3.984
67683W        W34114  28.688  24.116  14.476
67684W        W34115  31.477  39.306   4.658
67685W        W34116   9.402  38.417  11.579
67686W        W34117   1.267  21.672   0.329
67687W        W34118  29.061  13.110  14.262
67688W        W34119  15.584  23.278   0.959
67689W        W34120  13.470   1.613   3.752
67690W        W34121  25.550   7.435   3.291
67691W        W34122  34.735   1.427   3.298
67692W        W34123  26.064  40.416  13.109
67693W        W34124  24.651  16.087   1.197
67694W        W34125  30.667  31.371   3.144
67695W        W34126   3.473  19.664   1.878
67696W        W34127  17.211  21.460   3.325
67697W        W34128  33.583   8.566  10.374
67698W        W34129  13.266  40.346  13.518
67699W        W34130  18.188  24.548  14.946
67700W        W34131  41.344  15.628  13.025
67701W        W34132  16.598  32.648   4.109
67702W        W34133  20.128  32.081  10.212
67703W        W34134  24.329   1.797  11.014
67704W        W34135  23.278   1.470  13.502
67705W        W34136  21.320  38.540   2.738
67706W        W34137  23.154  37.498  13.464
67707W        W34138  19.011  20.159   3.881
67708W        W34139  15.348  31.988   0.271
67709W        W34140   2.254  30.030   1.828
67710W        W34141  14.091  31.647   3.640
67711W        W34142  42.354  42.859  12.100
67712W        W34143   4.075   8.276  13.240
67713W        W34144  28.976  35.394   0.385
67714W        W34145  36.594  35.838  13.842
67715W        W34146  37.661  36.237   3.922
67716W        W34147  33.628   2.214  10.117
67717W        W34148  12.274  25.184   0.205
67718W        W34149  15.428  38.976  14.128
67719W        W34150  43.366  28.980   0.348
67720W        W34151  21.126  27.536  12.989
67721W        W34152  12.108  26.531   2.156
67722W        W34153  42.170  17.585  14.372
67723W        W34154   2.821  18.173  12.988
67724W        W34155  32.021  18.207   1.247
67725W        W34156  16.827  39.451  11.932
67726W        W34157  36.887  24.934  12.559
67727W        W34158  34.513  44.873  14.031
67728W        W34159  18.410  44.427   9.665
67729W        W34160  44.031  17.799  11.765
67730W        W34161  42.981  30.375   1.507
67731W        W34162  14.576  18.205  12.891
67732W        W34163  11.281  38.372   1.861
67733W        W34164  12.935  38.213  14.561
67734W        W34165  37.050  21.400   2.109
67735W        W34166  39.540  32.634  12.364
67736W        W34167  35.179   6.769   3.117
67737W        W34168  40.448   4.773  13.858
67738W        W34169   7.460  16.127  14.253
67739W        W34170  13.167  15.533  11.118
67740W        W34171   7.227  16.575   3.226
67741W        W34172   1.241  32.494   0.934
67742W        W34173   7.756  10.610  12.858
67743W        W34174  12.304  28.054  10.438
67744W        W34175  30.016   0.474   3.292
67745W        W34176  42.998  11.807   2.705
67746W        W34177   8.320  32.329   1.685
67747W        W34178   1.745  44.163   2.124
67748W        W34179  44.481  44.879  11.597
67749W        W34180  24.811  44.717  14.209
67750W        W34181  43.937  33.428   4.848
67751W        W34182  13.319   1.005  14.131
67752W        W34183   6.233  19.261   3.078
67753W        W34184  27.908  16.679   1.828
67754W        W34185  24.003  44.520   0.825
67755W        W34186   7.949  12.408  12.610
67756W        W34187   5.295  23.473   0.061
67757W        W34188  41.466   9.867   1.261
67758W        W34189  18.660  19.720  14.447
67759W        W34190  14.875   7.934  12.201
67760W        W34191   2.607  15.740   2.626
67761W        W34192  26.959  37.846   2.660
67762W        W34193  31.598  41.485  13.918
67763W        W34194  27.053  30.166  12.366
67764W        W34195  27.521  30.700   1.179
67765W        W34196  31.188   1.804   5.013
67766W        W34197   7.215  43.789   1.379
67767W        W34198  37.946  39.202   0.981
67768W        W34199  37.054  31.947  12.102
67769W        W34200  33.498  34.569   2.330
67770W        W34201  35.042  18.610   2.312
67771W        W34202  29.687  26.775  11.563
67772W        W34203  23.585  44.263   1.007
67773W        W34204  40.155  15.982   3.255
67774W        W34205  39.150  13.861   2.035
67775W        W34206  12.371  12.092   3.090
67776W        W34207   4.022   2.454  11.113
67777W        W34208  43.453  11.067   1.175
67778W        W34209  11.298  12.835   4.237
67779W        W34210  15.783  35.329   2.764
67780W        W34211  37.096   8.401   2.350
67781W        W34212  38.857  40.505   2.168
67782W        W34213  36.889  17.541   3.274
67783W        W34214  36.054  41.270  14.064
67784W        W34215   3.653  26.563  11.572
67785W        W34216  17.077  33.508   4.600
67786W        W34217  16.782  43.487   1.366
67787W        W34218  12.386  34.038   4.545
67788W        W34219  31.008  36.580   1.355
67789W        W34220   9.282  27.430   1.384
67790W        W34221   3.199  22.518   2.806
67791W        W34222  21.088  31.386  10.984
67792W        W34223  10.289  44.419  10.451
67793W        W34224  26.848  14.840   2.685
67794W        W34225   4.179  42.379   0.962
67795W        W34226   0.191  40.469   1.767
67796W        W34227  32.538  29.228   5.148
67797W        W34228  33.917   4.703  13.518
67798W        W34229   9.124  16.598   3.783
67799W        W34230  29.422  18.341  14.406
67800W        W34231   7.527  19.167  13.455
67801W        W34232   6.432  20.240   0.308
67802W        W34233  11.208  13.627   1.943
67803W        W34234  41.442  39.132  13.497
67804W        W34235  18.860  39.457  10.120
67805W        W34236  35.456  17.760   2.438
67806W        W34237  30.244  31.553   4.214
67807W        W34238  16.079  28.991   4.215
67808W        W34239  29.516  14.016  12.931
67809W        W34240  12.326   3.669   1.656
67810W        W34241  27.469   0.563  12.908
67811W        W34242  20.186  13.251   1.719
67812W        W34243   4.861  27.628   3.583
67813W        W34244  38.598  32.435  10.632
67814W        W34245  20.523  29.941   2.345
67815W        W34246  31.861  43.747  12.573
67816W        W34247  22.201  21.081  12.562
67817W        W34248   2.161  39.308  14.503
67818W        W34249  32.784  36.046  13.076
67819W        W34250   1.796  44.935   0.895
67820W        W34251   8.364   4.027   3.202
67821W        W34252   4.507  11.752   3.188
67822W        W34253  38.701  22.577  12.375
67823W        W34254   2.399  33.414  13.820
67824W        W34255   5.327   7.703   2.942
67825W        W34256  29.494   2.570   2.516
67826W        W34257  26.746   9.446   1.361
67827W        W34258  36.500  32.199  13.416
67828W        W34259  11.071   4.209   2.808
67829W        W34260  23.773  31.982   1.696
67830W        W34261  32.864   9.917   1.313
67831W        W34262  22.152  41.741   3.313
67832W        W34263  21.143   2.869  12.078
67833W        W34264  28.441  38.473  14.743
67834W        W34265  39.937   4.742  13.997
67835W        W34266  24.165   8.740  13.557
67836W        W34267  12.240  38.584  11.205
67837W        W34268  44.922   0.933  11.930
67838W        W34269  35.442  34.638   3.204
67839W        W34270  16.139  10.111  14.908
67840W        W34271  11.594  24.084  14.069
67841W        W34272  36.025  11.021   4.102
67842W        W34273   7.262  10.351  10.245
67843W        W34274   1.003  13.112   0.280
67844W        W34275  34.654  39.002   5.259
67845W        W34276   7.592  41.829   2.806
67846W        W34277  29.705  35.363  11.249
67847W        W34278  12.637  38.932   4.618
67848W        W34279  29.233  27.835  14.832
67849W        W34280  32.286   7.142   4.737
67850W        W34281  22.322  32.237  12.411
67851W        W34282  30.483  34.522   1.680
67852W        W34283   2.380  30.459   0.806
67853W        W34284   1.886  34.419   2.519
67854W        W34285  30.623  24.718  11.722
67855W        W34286  23.745  29.179  13.588
67856W        W34287   8.293  34.448  10.696
67857W        W34288  42.301  27.995  14.895
67858W        W34289  37.087  30.157   2.262
67859W        W34290  28.522  41.032   2.727
67860W        W34291  30.852  40.342  14.953
67861W        W34292  33.883  23.261   1.740
67862W        W34293  31.888  37.369  12.129
67863W        W34294  12.283   9.796   3.090
67864W        W34295  39.264  25.005  14.812
67865W        W34296  28.201   0.297   2.140
67866W        W34297  20.799   0.467   2.401
67867W        W34298  28.241   2.542   1.493
67868W        W34299  23.712  10.538   0.101
67869W        W34300  28.006   0.382   5.261
67870W        W34301   3.234  41.356   0.727
67871W        W34302  27.854  19.628   3.701
67872W        W34303  29.987   0.400   4.597
67873W        W34304  11.099   7.849   1.917
67874W        W34305   0.996   8.352   4.026
67875W        W34306   2.411  13.852  11.054
67876W        W34307  23.526  35.874  14.575
67877W        W34308  26.110  33.159  14.146
67878W        W34309   8.217  37.827   4.830
67879W        W34310  10.114   3.523  13.273
67880W        W34311   2.516  15.250   0.793
67881W        W34312  21.343  28.019   0.283
67882W        W34313  11.858  13.746  12.850
67883W        W34314   2.301   3.976   2.194
67884W        W34315   9.166  16.563   1.221
67885W        W34316  10.346   8.205  10.918
67886W        W34317  14.628  41.457  12.420
67887W        W34318  39.696  11.535  10.726
67888W        W34319  24.303  39.921   9.889
67889W        W34320  20.271  34.459  13.470
67890W        W34321  35.138   6.251   2.837
67891W        W34322  12.361  24.074  10.082
67892W        W34323  14.574   7.877  13.114
67893W        W34324  15.166  12.158   5.018
67894W        W34325   6.435   5.239  13.985
67895W        W34326  24.225   1.471  13.267
67896W        W34327  27.915  22.000  11.268
67897W        W34328   7.678  19.473  14.422
67898W        W34329  39.423   6.827  11.971
67899W        W34330  30.369  40.006   4.087
67900W        W34331  11.732  11.367  10.867
67901W        W34332  33.417  33.739  14.359
67902W        W34333  36.894  19.990   1.024
67903W        W34334  22.801  21.490   2.432
67904W        W34335   5.993  30.516   0.777
67905W        W34336   7.586  34.518  11.016
67906W        W34337   2.535  31.932  10.649
67907W        W34338  30.905  21.696  14.689
67908W        W34339  23.702   2.897   2.476
67909W        W34340   6.429  17.157   3.591
67910W        W34341  13.048  17.773   3.536
67911W        W34342   7.183  19.523  11.930
67912W        W34343  13.316  22.119  13.360
67913W        W34344   2.153  24.622  12.988
67914W        W34345  10.775  38.790   3.427
67915W        W34346  24.604  33.408  14.442
67916W        W34347  34.814  12.855   3.119
67917W        W34348  17.862  15.945  14.303
67918W        W34349  23.192  17.264   1.946
67919W        W34350  15.212  19.781   1.906
67920W        W34351  35.092  27.655  12.597
67921W        W34352   2.992  24.724  11.154
67922W        W34353  39.388  15.032  14.515
67923W        W34354  10.169  28.784   1.276
67924W        W34355  11.193  25.191   4.568
67925W        W34356   4.498  20.045   2.432
67926W        W34357  33.091   4.518  10.405
67927W        W34358  26.801  11.637  14.411
67928W        W34359  40.511  30.441   3.710
67929W        W34360  35.363   7.211   0.372
67930W        W34361  26.399  37.120   1.762
67931W        W34362  39.311  18.104   1.936
67932W        W34363  30.984  37.142  12.680
67933W        W34364   0.545  23.880   4.192
67934W        W34365   3.079  31.572  11.195
67935W        W34366   4.948   4.332   0.639
67936W        W34367  34.266   1.748   2.633
67937W        W34368  17.658  12.177   2.408
67938W        W34369   4.768  42.057   5.029
67939W        W34370  30.369  39.301   1.326
67940W        W34371   9.857   0.332  14.845
67941W        W34372  23.410  39.763  13.224
67942W        W34373  12.396  25.496   5.176
67943W        W34374   7.524  41.125  10.330
67944W        W34375  16.314  36.151  12.486
67945W        W34376   5.827  39.449  12.412
67946W        W34377   5.838  34.611  12.332
67947W        W34378  28.376  23.981   4.658
67948W        W34379   7.667  21.324   3.676
67949W        W34380  41.999   6.776   4.461
67950W        W34381  23.691  38.081  14.923
67951W        W34382  17.183  17.796   3.209
67952W        W34383  12.808  12.264   2.436
67953W        W34384  29.160  26.531  13.032
67954W        W34385  34.084   8.269  11.469
67955W        W34386  31.440  15.334   1.281
67956W        W34387  41.429  23.328  12.534
67957W        W34388   7.231   8.131  14.014
67958W        W34389  37.966  42.790   3.989
67959W        W34390  24.835  33.805  13.484
67960W        W34391  16.569  11.260   1.827
67961W        W34392   3.676  43.502   0.229
67962W        W34393  44.038  36.036   0.683
67963W        W34394  34.614  11.854   3.567
67964W        W34395  26.112  23.199   2.251
67965W        W34396  29.843  28.143   0.006
67966W        W34397  12.144  19.236  13.455
67967W        W34398  20.882  23.702   3.903
67968W        W34399  37.478   9.748   2.300
67969W        W34400  21.015  34.348   1.859
67970W        W34401  31.349   3.292   2.450
67971W        W34402  22.503   8.765   1.173
67972W        W34403  24.206  40.381   2.802
67973W        W34404  21.669  32.355   2.640
67974W        W34405  30.126   0.220  12.492
67975W        W34406  18.084   9.472  10.397
67976W        W34407  14.113  10.692   2.661
67977W        W34408  10.260  36.511  12.806
67978W        W34409  35.639  18.753   0.919
67979W        W34410  28.150  37.942   3.371
67980W        W34411  38.152  41.248  14.967
67981W        W34412  28.522   3.652   1.995
67982W        W34413  40.551  20.508   4.234
67983W        W34414   1.390  43.798  14.644
67984W        W34415  27.288  23.738   2.377
67985W        W34416  37.109  39.480  14.860
67986W        W34417  13.571  15.406  14.451
67987W        W34418  25.464  18.108   1.299
67988W        W34419  44.396  35.461   0.980
67989W        W34420  38.319  26.170   0.908
67990W        W34421  22.950  23.673  14.012
67991W        W34422  16.049  10.858   1.358
67992W        W34423   4.407  31.348  13.434
67993W        W34424  37.656   1.490   2.805
67994W        W34425  27.581  12.612   4.514
67995W        W34426  29.032  17.297  10.664
67996W        W34427  23.566  42.242  11.659
67997W        W34428  17.503  41.634   3.165
67998W        W34429  42.742   5.148  14.487
67999W        W34430  10.635  27.945  11.112
68000W        W34431  11.838  42.980   1.451
68001W        W34432   0.826  40.473   2.744
68002W        W34433  44.824  24.413   1.241
68003W        W34434  42.825  43.531  14.736
68004W        W34435  12.101  12.915  10.885
68005W        W34436   3.170   4.909   1.281
68006W        W34437  17.215  34.010   4.711
68007W        W34438  10.205  43.998   4.666
68008W        W34439  28.169  12.553   0.751
68009W        W34440   9.416  20.247  12.871
68010W        W34441  20.918  22.709  14.954
68011W        W34442  43.957  41.313  11.509
68012W        W34443  24.166   7.880   3.284
68013W        W34444   3.917  18.886   0.882
68014W        W34445  11.915  12.172  11.248
68015W        W34446  22.458  43.394   4.618
68016W        W34447  43.185  39.615  13.110
68017W        W34448  25.005   6.797   2.352
68018W        W34449  36.546  24.223   1.233
68019W        W34450  24.933  13.303  13.394
68020W        W34451   7.727  36.500   1.549
68021W        W34452  37.429  34.891  11.612
68022W        W34453   5.398   7.257  10.381
68023W        W34454   0.061  16.265  13.494
68024W        W34455  41.400  35.363  13.791
68025W        W34456  25.706  15.247  12.101
68026W        W34457  37.940  43.339  13.425
68027W        W34458  40.883  30.775  11.147
68028W        W34459  23.460  40.813   0.290
68029W        W34460  25.967  40.062   0.904
68030W        W34461  20.760  36.971   5.619
68031W        W34462  20.062  40.009   2.165
68032W        W34463  21.934  22.345   0.351
68033W        W34464  11.713  33.972  13.495
68034W        W34465  32.800  21.508  11.148
68035W        W34466   9.029   6.640  14.827
68036W        W34467  21.085  43.628   1.009
68037W        W34468  25.452   9.911  12.581
68038W        W34469  34.825  37.817  11.401
68039W        W34470  30.390  33.906   1.936
68040W        W34471  27.486  17.133  12.585
68041W        W34472  22.364  36.081   4.152
68042W        W34473  42.946  27.195   4.197
68043W        W34474  24.221  18.486  12.423
68044W        W34475  41.995   0.657  14.871
68045W        W34476  43.405  32.677  11.640
68046W        W34477  18.140  25.553   1.003
68047W        W34478  31.075  43.392  11.711
68048W        W34479   8.316  28.989   0.034
68049W        W34480  28.349  28.172  11.870
68050W        W34481  24.173  41.927  12.795
68051W        W34482  39.077  10.525   1.351
68052W        W34483  11.952  28.682   2.845
68053W        W34484  44.788  19.655   4.395
68054W        W34485  24.126  42.848  11.166
68055W        W34486   7.704  40.748   0.678
68056W        W34487  18.017   8.307   0.674
68057W        W34488  38.789  38.446  10.215
68058W        W34489  30.645  43.440   0.226
68059W        W34490  18.739  14.713   3.463
68060W        W34491  13.832  23.370   3.248
68061W        W34492   5.172   3.158  11.111
68062W        W34493  31.160  20.508   4.180
68063W        W34494  44.394   4.999  14.034
68064W        W34495   6.325  28.228   3.680
68065W        W34496  12.239  17.099  11.632
68066W        W34497  22.502  35.525   2.613
68067W        W34498  14.391  41.812   2.665
68068W        W34499  44.652  28.675   2.946
68069W        W34500  37.253  37.844   3.958
68070W        W34501  33.416  39.978   1.466
68071W        W34502  20.131   8.819  11.764
68072W        W34503  22.467   8.003   1.687
68073W        W34504  29.043  18.276   3.068
68074W        W34505  18.724  39.604  11.733
68075W        W34506  42.546   0.749   0.834
68076W        W34507  34.490  19.628  13.083
68077W        W34508  10.855   0.329  10.617
68078W        W34509   4.746  23.089   4.699
68079W        W34510   3.771  28.673  12.275
68080W        W34511   2.761  40.479   3.671
68081W        W34512  37.261  21.663   0.804
68082W        W34513   0.418  30.229   4.522
68083W        W34514  39.380  40.483  11.157
68084W        W34515  40.766  23.142   1.979
68085W        W34516  14.936  44.472   3.920
68086W        W34517   4.852  44.797   3.872
68087W        W34518   9.125  25.338  12.374
68088W        W34519  23.502   4.431   4.074
68089W        W34520  31.023   3.286   2.911
68090W        W34521   2.137  20.470  13.272
68091W        W34522  10.875   5.390  14.805
68092W        W34523  31.351   5.355  12.956
68093W        W34524   8.900  30.106   1.774
68094W        W34525  31.703   2.634   1.027
68095W        W34526  39.294  29.203  10.908
68096W        W34527  17.277  35.097  11.166
68097W        W34528  43.107  37.533   3.066
68098W        W34529  20.237  23.608  14.226
68099W        W34530  34.164  19.623   3.574
68100W        W34531  17.804  44.977  13.998
68101W        W34532  22.108  44.139  13.085
68102W        W34533  27.014   8.498  14.862
68103W        W34534  36.344  39.331   2.781
68104W        W34535  36.631   1.782   1.281
68105W        W34536  32.600  14.876   2.706
68106W        W34537   4.331  31.110   1.202
68107W        W34538  11.737  16.495   3.695
68108W        W34539  44.789  29.293  14.812
68109W        W34540  42.141  26.736   0.407
68110W        W34541   7.919   7.449  13.875
68111W        W34542  41.388  12.675  12.964
68112W        W34543  12.436   2.739   4.456
68113W        W34544  29.453   7.370   0.329
68114W        W34545  16.781  11.412  13.035
68115W        W34546  21.334  36.982  12.384
68116W        W34547   0.653  31.659   3.174
68117W        W34548  35.781  37.922  11.062
68118W        W34549  35.344  35.148  11.203
68119W        W34550  10.747  23.254   4.747
68120W        W34551  22.714  16.616   1.937
68121W        W34552  41.103   4.631   4.856
68122W        W34553  41.529  18.148   3.053
68123W        W34554  27.706   3.391   1.721
68124W        W34555  40.298  41.964  12.090
68125W        W34556   3.017   7.392   2.771
68126W        W34557  22.428   2.375  13.349
68127W        W34558  16.957  44.990   0.244
68128W        W34559  11.601  10.661   3.435
68129W        W34560  21.172  28.108   0.764
68130W        W34561  19.324   1.031   2.748
68131W        W34562   8.408  39.863   4.592
68132W        W34563  38.407  39.635   9.790
68133W        W34564  15.862  23.627   1.221
68134W        W34565   4.329   6.285  12.920
68135W        W34566  25.284  13.779  12.128
68136W        W34567  37.944  42.416  10.470
68137W        W34568  39.018  39.770  10.511
68138W        W34569   5.410  23.588   1.452
68139W        W34570  35.213  19.663  14.396
68140W        W34571  39.133  21.827   0.013
68141W        W34572  25.003  20.512   3.292
68142W        W34573  30.572  40.844   4.776
68143W        W34574  23.086   1.220  14.455
68144W        W34575   5.206  38.432   3.312
68145W        W34576  29.275   9.752  12.091
68146W        W34577   7.439  39.845   5.168
68147W        W34578  18.653  21.745  14.444
68148W        W34579  23.183  23.498  11.338
68149W        W34580  33.509  16.836   5.045
68150W        W34581  39.418  43.700   3.697
68151W        W34582  40.567   8.557   3.700
68152W        W34583  15.479   7.924   3.245
68153W        W34584  39.239   2.373  11.916
68154W        W34585   0.312  25.584   4.182
68155W        W34586  29.556   7.821  12.116
68156W        W34587   7.187  20.655   4.898
68157W        W34588  40.316   4.843   1.845
68158W        W34589  30.526  30.893   1.268
68159W        W34590   5.211  38.630  10.641
68160W        W34591  28.163  11.777  11.917
68161W        W34592  17.748  15.545   2.641
68162W        W34593  13.669  44.318  13.357
68163W        W34594  35.038  22.687   0.743
68164W        W34595  19.874  34.205   2.186
68165W        W34596   1.637  31.876  13.576
68166W        W34597  30.897  24.521   0.222
68167W        W34598  18.186  39.884  11.151
68168W        W34599  19.291   8.904  13.838
68169W        W34600  38.590  29.438   3.618
68170W        W34601   2.341   5.848  13.813
68171W        W34602   3.273   0.315   0.236
68172W        W34603  10.876   4.530  11.959
68173W        W34604  13.819  40.971  11.562
68174W        W34605  29.583  38.786  14.007
68175W        W34606  42.615  41.278   3.201
68176W        W34607  29.754   4.198   4.624
68177W        W34608  11.596   1.574   4.565
68178W        W34609  32.158   3.421  10.689
68179W        W34610  24.654  23.581  11.595
68180W        W34611  14.390  39.498   0.870
68181W        W34612  29.799   1.956  12.588
68182W        W34613   1.841  19.673   3.430
68183W        W34614  12.359  19.222  13.942
68184W        W34615  34.948  17.485  12.428
68185W        W34616   0.597   7.719   3.428
68186W        W34617  28.575  20.757  14.355
68187W        W34618  18.614   7.878   3.178
68188W        W34619  28.104  36.114  11.716
68189W        W34620  21.681   7.302  13.940
68190W        W34621   1.667  10.424   4.032
68191W        W34622  17.731  25.923   3.282
68192W        W34623   0.047  22.629   3.857
68193W        W34624  16.723  17.775   4.839
68194W        W34625   6.822   4.175   2.389
68195W        W34626  30.981  12.603   1.502
68196W        W34627  39.347  42.558   1.615
68197W        W34628  11.155  23.752  12.612
68198W        W34629   9.770  42.287  11.858
68199W        W34630   1.842  41.381   1.226
68200W        W34631  42.409   5.475  11.627
68201W        W34632  41.226   7.174   1.804
68202W        W34633  12.811   5.173   1.019
68203W        W34634  13.167  31.460  13.376
68204W        W34635  41.105  26.700  14.396
68205W        W34636  33.502  11.215  13.490
68206W        W34637  15.114  10.140   4.515
68207W        W34638  32.479  21.833   0.892
68208W        W34639  22.297  32.203   1.963
68209W        W34640  37.519  35.607  11.009
68210W        W34641  35.348  11.764  14.033
68211W        W34642  28.029   2.988   1.354
68212W        W34643  38.734  23.276  13.938
68213W        W34644   2.143  16.906  11.286
68214W        W34645  39.960  16.291   0.917
68215W        W34646  37.007   5.163  12.976
68216W        W34647  10.867  28.630  14.988
68217W        W34648  17.761  14.627  10.790
68218W        W34649   3.657   8.945  12.027
68219W        W34650  16.051  34.755  11.123
68220W        W34651  22.727  42.732  10.902
68221W        W34652  27.167   0.843  14.584
68222W        W34653  25.220   9.607  11.124
68223W        W34654   2.236  22.156  10.146
68224W        W34655  40.891  37.706  12.476
68225W        W34656  34.535  35.437  12.213
68226W        W34657  15.643   6.603   1.746
68227W        W34658  39.282   5.671  14.740
68228W        W34659  38.087  34.025   2.622
68229W        W34660   7.723   3.301   5.070
68230W        W34661  25.268  26.205  10.716
68231W        W34662  11.739  20.016  14.444
68232W        W34663  29.149  40.003  13.829
68233W        W34664   2.444  12.545  13.828
68234W        W34665  37.128   3.487   3.442
68235W        W34666  43.087  27.959  12.276
68236W        W34667   3.408  18.745  11.533
68237W        W34668  19.097  37.886   4.612
68238W        W34669  39.986  30.400  12.595
68239W        W34670  19.635   1.112  12.441
68240W        W34671  27.092  22.539  13.350
68241W        W34672   5.998  43.320  13.547
68242W        W34673  27.452  13.385   3.558
68243W        W34674   5.031  19.210   0.003
68244W        W34675  15.428  31.543  14.758
68245W        W34676  10.744  10.574   4.932
68246W        W34677  10.760  37.472  10.994
68247W        W34678  42.828   2.813   3.728
68248W        W34679   2.262  33.610   4.013
68249W        W34680   1.388  22.031  14.443
68250W        W34681   4.206  39.279  13.181
68251W        W34682  22.327  15.354   1.324
68252W        W34683  16.996   4.496  14.920
68253W        W34684  34.718  20.240  11.623
68254W        W34685  39.354  23.487   4.318
68255W        W34686  13.818  29.315   4.222
68256W        W34687  44.870  20.580   3.266
68257W        W34688  19.300  38.429   3.682
68258W        W34689  24.939  35.105  12.025
68259W        W34690  24.684   9.631  14.729
68260W        W34691  21.560  38.953   3.623
68261W        W34692  13.875  35.104   0.303
68262W        W34693  26.546  32.965  13.976
68263W        W34694  25.139  38.591   1.212
68264W        W34695   7.164  13.848   2.385
68265W        W34696   7.386  23.212   4.294
68266W        W34697  27.774   3.793  10.730
68267W        W34698  32.132   4.540   0.844
68268W        W34699  10.000  14.106  14.067
68269W        W34700  20.037   0.822  11.520
68270W        W34701   9.236   7.743   2.426
68271W        W34702  22.173   0.437  10.603
68272W        W34703   4.039  30.830  11.965
68273W        W34704  14.845  44.990   4.064
68274W        W34705  28.072  33.672  14.215
68275W        W34706  29.659  10.148  13.279
68276W        W34707  18.090  36.950  14.956
68277W        W34708   3.173  29.733   0.195
68278W        W34709  17.222  27.126  12.588
68279W        W34710  15.343  34.857  14.343
68280W        W34711  18.147  24.071   4.127
68281W        W34712  39.259  11.896   0.928
68282W        W34713  32.394   9.803  14.984
68283W        W34714  16.266   5.224   0.077
68284W        W34715  12.737  36.130  11.190
68285W        W34716  40.376  28.107  14.073
68286W        W34717   5.169  37.029   4.220
68287W        W34718   2.080  27.417  11.930
68288W        W34719  23.030  24.771   1.331
68289W        W34720   8.465  39.752  13.410
68290W        W34721  34.591  42.376   1.660
68291W        W34722  33.560  27.483  12.090
68292W        W34723  37.913   4.723  11.160
68293W        W34724  41.303   4.673   4.298
68294W        W34725  14.202  40.081  11.196
68295W        W34726  17.621  10.668   0.484
68296W        W34727  42.190  25.522   2.814
68297W        W34728  24.583  18.064  11.730
68298W        W34729  12.481  14.559   4.677
68299W        W34730  15.201  16.156  10.748
68300W        W34731  42.994  25.716   4.599
68301W        W34732   5.217   8.320   3.687
68302W        W34733  30.899  25.196   1.552
68303W        W34734  30.327   7.442  12.302
68304W        W34735   3.997  12.713  11.141
68305W        W34736  35.465  27.454  14.779
68306W        W34737   6.469   2.399  14.968
68307W        W34738   8.029  36.747   0.255
68308W        W34739   8.715  19.681  14.578
68309W        W34740  13.526  31.652  12.470
68310W        W34741  24.797  23.819  12.054
68311W        W34742   6.758  31.381  14.894
68312W        W34743  14.125   2.286   9.956
68313W        W34744  18.441  23.955  10.081
68314W        W34745   8.157  11.319  14.929
68315W        W34746  24.471  20.586   3.591
68316W        W34747  32.563  42.681  12.869
68317W        W34748  39.886  33.807  14.363
68318W        W34749   3.678  29.585   4.773
68319W        W34750  41.588  35.418   1.188
68320W        W34751   2.419  17.758   3.043
68321W        W34752   4.248  23.232  10.701
68322W        W34753  39.304   2.001   3.161
68323W        W34754  11.618   1.666  11.085
68324W        W34755  26.715  44.977  12.048
68325W        W34756  42.664  19.800   2.278
68326W        W34757  43.810   9.788   2.370
68327W        W34758  15.939  11.097   0.890
68328W        W34759  12.233  19.372  10.712
68329W        W34760  13.753  32.373  10.270
68330W        W34761  44.299   5.880  12.991
68331W        W34762  17.743  12.758  13.454
68332W        W34763  42.391  40.594  14.024
68333W        W34764  23.223  31.189   4.819
68334W        W34765  41.278  31.500   4.463
68335W        W34766   3.874  17.724  12.405
68336W        W34767  21.988  44.263   1.658
68337W        W34768  12.710  19.211  14.329
68338W        W34769  44.434   2.168   1.297
68339W        W34770  35.484  34.626  14.233
68340W        W34771  39.283   8.827   1.315
68341W        W34772  15.252  13.353   2.340
68342W        W34773  27.010  16.463  11.232
68343W        W34774  15.384  30.432   0.308
68344W        W34775  44.039  37.395   4.520
68345W        W34776  34.447   8.963  10.905
68346W        W34777   9.738   9.232  14.865
68347W        W34778  15.027  36.549  12.977
68348W        W34779  19.706  11.309  11.845
68349W        W34780  10.428  43.810   0.915
68350W        W34781  20.174  22.481   3.830
68351W        W34782  20.155  10.849   1.981
68352W        W34783  33.380   6.641   2.341
68353W        W34784   5.049   0.850   3.139
68354W        W34785  44.454  29.505   2.766
68355W        W34786  21.511  30.289   9.923
68356W        W34787  26.680  33.681  12.017
68357W        W34788  42.901  13.075  13.083
68358W        W34789   5.406   9.193  13.892
68359W        W34790  11.267  29.936   3.791
68360W        W34791  34.520   4.745   0.969
68361W        W34792  39.970  36.766   0.324
68362W        W34793  12.775  33.133   4.239
68363W        W34794   5.291  14.055   5.316
68364W        W34795  26.596  26.137  10.680
68365W        W34796  42.416  21.138   0.158
68366W        W34797  39.796  36.182  10.922
68367W        W34798  18.173  34.324   2.510
68368W        W34799  34.436  20.961   0.657
68369W        W34800  11.215  24.987   3.555
68370W        W34801  28.969   9.084  10.080
68371W        W34802   0.871  30.244  10.555
68372W        W34803   5.640  15.127  10.982
68373W        W34804  15.609  36.797  11.576
68374W        W34805   3.819  15.135   1.725
68375W        W34806  21.568  43.046  13.279
68376W        W34807   6.458  18.837   3.275
68377W        W34808  26.511  39.924   1.849
68378W        W34809   4.291  39.168  14.136
68379W        W34810   8.257  39.642   0.828
68380W        W34811  30.151  20.605   1.456
68381W        W34812  35.884   4.575  11.207
68382W        W34813  37.630  15.229   1.873
68383W        W34814  32.861   3.855   1.755
68384W        W34815  14.661  21.109  13.145
68385W        W34816   1.195   7.464  13.413
68386W        W34817  24.656   0.896   1.020
68387W        W34818  12.660  16.876   1.222
68388W        W34819   8.181  38.823   4.486
68389W        W34820  21.779  39.052   4.612
68390W        W34821   7.614  14.508  10.359
68391W        W34822  28.203  20.941  14.045
68392W        W34823  28.158  44.981  13.503
68393W        W34824  36.085  30.081  11.855
68394W        W34825  27.277  36.808   1.313
68395W        W34826  11.849  44.824  11.581
68396W        W34827  41.924  40.710   0.728
68397W        W34828  18.397  24.570   1.257
68398W        W34829   8.800  42.862   2.756
68399W        W34830   5.616  18.582  11.044
68400W        W34831  33.414  41.709  13.520
68401W        W34832   4.667  40.426   0.410
68402W        W34833  16.093  41.412   0.420
68403W        W34834  35.904  14.979   0.679
68404W        W34835  23.898  24.178  12.060
68405W        W34836   0.800  19.597  14.359
68406W        W34837  11.236  21.694  11.731
68407W        W34838   0.321  33.365  14.464
68408W        W34839   8.243  44.313  11.582
68409W        W34840  36.784  44.659  10.493
68410W        W34841  36.477  42.950   3.889
68411W        W34842  32.583  14.808   1.162
68412W        W34843  23.160  29.173  14.269
68413W        W34844  39.119   8.917   1.816
68414W        W34845  36.973  35.059   0.942
68415W        W34846   1.765  19.460   1.397
68416W        W34847  21.565  19.335   4.244
68417W        W34848  13.742  21.406  10.318
68418W        W34849   5.313   2.392  13.533
68419W        W34850   2.114   1.869   2.800
68420W        W34851  12.253  12.204  12.545
68421W        W34852  37.531  39.533  10.786
68422W        W34853  44.000  43.263   1.672
68423W        W34854  16.332   1.892  11.179
68424W        W34855   6.187  30.405  13.435
68425W        W34856   4.211  35.302   0.870
68426W        W34857  39.103   9.673  14.805
68427W        W34858  30.129  27.081  13.545
68428W        W34859   9.793   4.239   0.223
68429W        W34860   0.359  40.751   0.928
68430W        W34861  33.569   4.381   0.881
68431W        W34862  37.436  43.729  10.500
68432W        W34863  30.796  14.080  14.923
68433W        W34864   3.517  15.709   1.411
68434W        W34865  15.927  31.846  11.563
68435W        W34866  23.073  28.298   4.441
68436W        W34867  19.261  17.455   3.669
68437W        W34868  22.082  41.442  10.896
68438W        W34869   7.905  39.805  13.577
68439W        W34870   7.015  43.657   1.840
68440W        W34871  33.555   7.476  14.913
68441W        W34872  21.763  23.717   3.083
68442W        W34873  24.088   4.509  12.086
68443W        W34874  25.716  22.348   0.154
68444W        W34875  42.350   6.156   2.914
68445W        W34876   2.875   1.623   1.907
68446W        W34877  12.830  27.030  13.034
68447W        W34878  22.122  28.143   3.198
68448W        W34879  21.323  37.283  10.683
68449W        W34880   9.103   3.296  10.693
68450W        W34881  22.040  13.269  14.524
68451W        W34882  13.134  22.088   4.111
68452W        W34883  26.464  38.858  13.152
68453W        W34884  40.548  38.030  11.576
68454W        W34885  27.327  24.635  14.249
68455W        W34886   6.421  17.257  13.120
68456W        W34887  44.930  14.743  11.428
68457W        W34888  36.715  39.872  11.499
68458W        W34889  40.739   8.775   4.163
68459W        W34890   8.846  41.024   1.788
68460W        W34891   2.133  34.792   1.731
68461W        W34892  23.555  44.177   2.418
68462W        W34893  33.509  15.402  12.275
68463W        W34894  16.863   0.754  12.374
68464W        W34895  32.015  28.006   3.322
68465W        W34896   2.038  20.661   4.850
68466W        W34897  38.096   9.130  12.623
68467W        W34898  16.795  28.160   0.374
68468W        W34899  17.497  38.509   4.110
68469W        W34900   1.958  39.285   3.712
68470W        W34901  13.925  39.670   3.179
68471W        W34902   8.258  34.519   0.304
68472W        W34903  14.617   9.792  11.769
68473W        W34904  12.087  34.251  14.407
68474W        W34905  39.111  13.835  12.446
68475W        W34906   6.312  15.616  12.919
68476W        W34907  40.593   0.726  14.965
68477W        W34908  35.155   1.210  13.791
68478W        W34909  32.719  38.737   3.356
68479W        W34910  26.882  44.376  13.118
68480W        W34911  39.953  13.879  14.977
68481W        W34912   8.398  34.075  11.541
68482W        W34913  24.717  26.233   4.147
68483W        W34914  34.560   7.158   2.253
68484W        W34915  43.306   3.746   1.355
68485W        W34916  11.788  16.827   0.909
68486W        W34917  32.661   6.259   3.579
68487W        W34918  36.289  43.073   0.773
68488W        W34919   8.887  42.962  14.858
68489W        W34920   1.776   2.539  14.966
68490W        W34921  29.113  17.543  13.814
68491W        W34922  32.020  21.216  14.344
68492W        W34923  20.252  13.222  14.046
68493W        W34924  30.519   6.520  11.739
68494W        W34925  32.058  17.647   2.343
68495W        W34926   2.021  17.486   4.596
68496W        W34927  11.630  22.037  11.638
68497W        W34928  19.982   8.298   2.822
68498W        W34929   7.620  39.807  14.024
68499W        W34930  35.162   8.230   3.033
68500W        W34931  16.775  14.065  13.382
68501W        W34932  28.459  27.755  13.545
68502W        W34933  42.335  18.161  11.145
68503W        W34934  37.188  10.404   1.747
68504W        W34935  30.950  31.214   4.503
68505W        W34936  37.941  29.142   0.545
68506W        W34937  21.142  22.882   5.195
68507W        W34938  30.868  34.758   3.913
68508W        W34939  17.139  12.715   2.332
68509W        W34940  29.460  44.093   2.787
68510W        W34941  29.236  33.881  12.061
68511W        W34942  13.444  44.298   0.280
68512W        W34943   2.653  43.925   4.535
68513W        W34944  33.904  14.655  11.789
68514W        W34945  37.814  17.070   1.306
68515W        W34946  13.796   0.233   4.754
68516W        W34947  39.900   8.861  14.385
68517W        W34948   5.702  11.258   1.726
68518W        W34949  42.352  20.272  14.802
68519W        W34950  43.040   3.234   1.920
68520W        W34951  12.365  20.958  12.704
68521W        W34952  39.794  23.997  11.318
68522W        W34953  44.856  22.976  13.387
68523W        W34954   1.832  35.763  13.857
68524W        W34955  29.931  18.719  13.012
68525W        W34956  26.235  11.687  12.222
68526W        W34957  22.758   9.194  12.416
68527W        W34958  38.351  35.353   2.571
68528W        W34959  25.014  29.937  14.837
68529W        W34960  22.167  23.658   2.754
68530W        W34961  34.027  14.585   3.689
68531W        W34962  41.043   8.324  12.936
68532W        W34963  22.982  31.117  12.063
68533W        W34964  43.501  30.516  12.130
68534W        W34965  35.021  35.280   2.840
68535W        W34966  24.739  13.169  11.057
68536W        W34967  29.644   6.913   0.052
68537W        W34968  19.495  34.222  10.701
68538W        W34969  10.433  28.006   5.528
68539W        W34970   9.187  12.806  12.960
68540W        W34971   0.484   3.010  14.833
68541W        W34972   4.387  19.621  12.021
68542W        W34973  42.394  27.646  12.554
68543W        W34974  16.573  38.841   2.134
68544W        W34975   7.736  31.312  11.579
68545W        W34976  36.615  38.020   1.615
68546W        W34977  38.005  15.987   1.415
68547W        W34978  16.884  39.059   4.588
68548W        W34979  11.754  33.706   3.743
68549W        W34980  19.836   4.854  12.069
68550W        W34981  29.169  22.589   4.661
68551W        W34982  32.601  35.025   2.151
68552W        W34983   2.413  41.811   4.788
68553W        W34984  26.664  15.612  13.436
68554W        W34985  38.125   6.618   1.008
68555W        W34986   1.279  34.343   0.309
68556W        W34987  16.871  13.044  11.419
68557W        W34988  24.691  28.636   3.610
68558W        W34989  25.688   4.773  11.167
68559W        W34990  26.218  13.077  11.159
68560W        W34991   7.351  38.250  14.338
68561W        W34992  34.711  18.038   4.195
68562W        W34993   1.488  18.458   3.095
68563W        W34994  12.580  31.041  12.965
68564W        W34995  25.591  32.710   2.145
68565W        W34996  31.130   2.546  10.652
68566W        W34997  22.932  43.973  11.514
68567W        W34998  25.513  32.268  13.834
68568W        W34999  21.714  39.332   1.838
68569W        W35000  37.939   9.239   1.409
68570W        W35001  27.039   2.709   4.907
68571W        W35002  19.604  35.493   3.810
68572W        W35003  12.546   7.857   2.771
68573W        W35004  19.513   7.215   1.465
68574W        W35005  23.483   5.403  13.442
68575W        W35006   9.876  16.777   3.362
68576W        W35007  20.990  16.311  11.404
68577W        W35008  29.806  29.541   2.381
68578W        W35009   8.256   3.762   1.818
68579W        W35010  42.016  38.853  10.179
68580W        W35011  43.062  39.693  12.622
68581W        W35012  25.368  39.997   4.081
68582W        W35013  28.413  27.449  11.180
68583W        W35014  40.794   2.577  14.629
68584W        W35015  33.263  18.757  12.038
68585W        W35016   9.663  20.828  12.116
68586W        W35017   7.176   9.409  12.263
68587W        W35018  12.672  10.140   1.762
68588W        W35019  36.023  40.515   4.554
68589W        W35020  16.353  20.748   0.809
68590W        W35021   0.357  25.108  11.196
68591W        W35022  44.339  29.436  14.592
68592W        W35023  36.132  15.729  13.416
68593W        W35024  15.727   3.179   0.401
68594W        W35025   0.027   9.299   0.010
68595W        W35026  24.437   3.132  13.879
68596W        W35027  19.481  12.175  12.412
68597W        W35028  42.492  21.048   4.170
68598W        W35029   3.413  19.435  12.771
68599W        W35030  17.303  39.347  11.705
68600W        W35031  14.898  42.015  13.426
68601W        W35032  15.326  34.010  14.910
68602W        W35033  17.496   6.680   0.848
68603W        W35034  37.494  21.530  14.906
68604W        W35035  13.971   4.462   2.984
68605W        W35036  25.435  18.319   2.313
68606W        W35037  43.016  12.662   3.288
68607W        W35038  25.079  13.655  11.656
68608W        W35039  24.535  10.776   4.368
68609W        W35040   2.763  19.059  13.439
68610W        W35041  32.807  34.667  13.976
68611W        W35042  34.125  33.145  14.298
68612W        W35043  11.419  19.862   3.678
68613W        W35044  10.112  14.232  12.959
68614W        W35045  42.550  15.217   1.677
68615W        W35046  14.351   3.128   0.851
68616W        W35047  21.517  35.135  13.919
68617W        W35048  29.365   8.757  10.169
68618W        W35049  44.820  34.875  12.470
68619W        W35050   1.180   0.368  14.978
68620W        W35051  41.775   9.503   1.519
68621W        W35052  41.806  43.331  13.496
68622W        W35053  43.048  34.913   3.712
68623W        W35054  41.799  40.469  10.628
68624W        W35055  10.389   3.913  13.464
68625W        W35056   6.142   3.595  13.607
68626W        W35057   9.350  26.802   3.701
68627W        W35058   7.649   9.348  14.787
68628W        W35059  41.465  24.045  13.903
68629W        W35060  33.908  16.189  12.072
68630W        W35061  39.954   4.959  10.517
68631W        W35062  21.154  13.587  12.655
68632W        W35063  43.767   6.654  10.670
68633W        W35064  42.763   3.771  14.380
68634W        W35065  33.448  41.736  12.631
68635W        W35066  38.573  30.082  14.377
68636W        W35067  37.410  40.861   4.975
68637W        W35068   5.202   0.517  11.711
68638W        W35069  25.576  37.032   5.014
68639W        W35070  34.185  19.610   0.536
68640W        W35071  17.802  35.640  12.452
68641W        W35072  33.832  28.594  14.041
68642W        W35073  13.765  24.704   2.288
68643W        W35074   2.766  44.448   2.693
68644W        W35075  22.969   8.879   2.097
68645W        W35076  26.361   9.236   5.010
68646W        W35077  14.758  37.390  11.556
68647W        W35078  31.937  31.758   2.330
68648W        W35079  35.419  17.901   1.944
68649W        W35080   8.313   4.718   4.779
68650W        W35081  43.850   9.772   4.507
68651W        W35082  12.863  30.973  11.933
68652W        W35083  39.236  22.741   3.702
68653W        W35084   4.046  13.344   2.731
68654W        W35085  26.811   7.310   1.788
68655W        W35086  25.165  32.198  11.164
68656W        W35087   9.729   2.936   0.849
68657W        W35088  20.742  11.294   0.422
68658W        W35089   3.833  38.269  11.520
68659W        W35090  44.293  17.791  11.050
68660W        W35091  41.491  13.617  12.334
68661W        W35092  14.621  21.513  14.890
68662W        W35093   6.905  35.855   1.745
68663W        W35094  14.243   6.733   4.758
68664W        W35095  35.990   8.183   2.678
68665W        W35096   1.415  36.400   4.504
68666W        W35097  29.219  16.117  14.942
68667W        W35098   7.834   0.844   5.040
68668W        W35099   6.457   9.419   1.264
68669W        W35100  31.907   5.279  14.024
68670W        W35101  40.075  16.573  10.564
68671W        W35102  38.160   3.881   2.582
68672W        W35103  30.376  24.015   4.090
68673W        W35104   3.924  31.451   2.644
68674W        W35105  11.212   8.382   4.677
68675W        W35106   3.685  23.542  12.989
68676W        W35107  17.976  31.471  10.792
68677W        W35108  29.709  38.193  14.831
68678W        W35109   7.618   7.420   2.699
68679W        W35110  18.683  35.197  13.408
68680W        W35111   3.898  12.156  10.406
68681W        W35112  12.386  27.979  14.797
68682W        W35113  27.898  29.039  13.314
68683W        W35114   6.421  12.669   5.046
68684W        W35115  39.314  35.207   3.058
68685W        W35116  32.052   2.163  13.423
68686W        W35117   9.569  13.349   4.017
68687W        W35118  31.109  33.106   0.403
68688W        W35119  41.422  30.024  10.616
68689W        W35120  11.712  26.151   1.924
68690W        W35121  39.347  38.742   2.055
68691W        W35122  35.469  16.082  10.751
68692W        W35123  27.473   8.449   0.398
68693W        W35124   1.291   4.003  11.179
68694W        W35125  16.390  18.465  11.025
68695W        W35126  17.631  44.885  10.607
68696W        W35127  18.079  19.645  11.064
68697W        W35128   0.230   4.922  14.691
68698W        W35129  16.592  42.409  10.576
68699W        W35130   9.299  24.223  13.940
68700W        W35131  36.304  30.069   2.722
68701W        W35132  27.700  12.944   3.542
68702W        W35133  21.716  42.144   4.959
68703W        W35134  43.801   4.659  12.045
68704W        W35135  17.824  18.888   4.731
68705W        W35136  32.090  24.624  14.578
68706W        W35137  21.123  43.383   4.282
68707W        W35138  34.679  14.924  12.916
68708W        W35139  41.022   1.735   3.352
68709W        W35140  41.397   0.868  14.754
68710W        W35141  43.481  31.601  13.873
68711W        W35142  14.019  28.312  14.860
68712W        W35143   2.040  25.874  13.421
68713W        W35144  15.563  18.777   0.442
68714W        W35145  37.017  35.582   3.921
68715W        W35146  28.447  31.184  10.661
68716W        W35147  34.054  36.904   4.551
68717W        W35148  39.464  36.551  12.967
68718W        W35149  17.588  10.266   2.724
68719W        W35150  21.546  40.282  14.853
68720W        W35151   0.741  29.948   0.987
68721W        W35152  35.635  21.023  11.184
68722W        W35153  20.121  30.343   5.050
68723W        W35154  22.496  24.566   4.182
68724W        W35155  11.355  20.031   1.152
68725W        W35156  40.961  22.711  13.977
68726W        W35157   4.964  20.327   4.303
68727W        W35158  23.613  31.440   1.908
68728W        W35159  21.072  21.125   4.058
68729W        W35160  40.370  37.326   4.123
68730W        W35161  23.157  42.381  14.349
68731W        W35162   5.248   6.472   3.660
68732W        W35163  23.752  10.061  12.850
68733W        W35164   3.842  40.213   2.386
68734W        W35165  22.245   3.795   4.204
68735W        W35166  20.101   4.356  12.081
68736W        W35167  36.009  23.716  12.992
68737W        W35168  31.000  11.354   2.218
68738W        W35169  23.203  17.119   1.088
68739W        W35170  28.091  32.131  11.935
68740W        W35171  29.088  26.345   3.075
68741W        W35172  11.655  29.294  14.874
68742W        W35173  36.540   8.914  13.001
68743W        W35174  16.489  34.018  12.269
68744W        W35175   5.745   0.928   2.345
68745W        W35176  13.894  29.464  14.789
68746W        W35177  33.091   3.949   3.379
68747W        W35178  10.183  34.477  12.430
68748W        W35179  12.216  31.173  10.652
68749W        W35180  24.863  12.178  12.691
68750W        W35181  29.011  27.689  12.891
68751W        W35182  17.752   2.872  10.694
68752W        W35183  10.400  22.013   1.870
68753W        W35184  26.625  27.495  13.630
68754W        W35185  23.558  36.782  14.524
68755W        W35186  39.808  34.067  13.087
68756W        W35187  10.057   7.386  11.525
68757W        W35188  39.366  39.000  13.073
68758W        W35189  27.575   2.944  13.325
68759W        W35190  25.478  30.961  14.315
68760W        W35191  28.086  29.085  10.778
68761W        W35192  41.180  19.518  11.578
68762W        W35193   0.738  22.578   4.652
68763W        W35194  40.291   7.410  11.225
68764W        W35195  40.314   9.997  13.909
68765W        W35196  16.221   7.371   2.345
68766W        W35197  44.033  40.365  14.409
68767W        W35198  36.905  28.660  14.959
68768W        W35199  11.764  32.054  12.436
68769W        W35200  19.443  13.219   0.982
68770W        W35201  39.573  21.022  13.115
68771W        W35202  40.798  41.802  11.311
68772W        W35203  37.366  32.383  13.783
68773W        W35204  39.033  40.141  13.914
68774W        W35205  10.389  38.419   0.449
68775W        W35206  14.737  40.360  13.168
68776W        W35207  15.531  15.152  10.198
68777W        W35208  16.819  23.444   2.143
68778W        W35209  31.639  43.057   4.706
68779W        W35210  30.147  42.731  12.623
68780W        W35211  32.948  20.201   1.273
68781W        W35212  41.758   8.335  13.443
68782W        W35213  33.442  40.989   0.690
68783W        W35214  22.660  12.421   4.298
68784W        W35215  29.126   7.754   3.130
68785W        W35216  16.436  44.203   1.909
68786W        W35217   6.842   4.368   4.154
68787W        W35218   6.365   6.636  13.865
68788W        W35219  27.481  44.620  12.295
68789W        W35220   3.172  40.589  12.421
68790W        W35221  24.104  35.232  12.310
68791W        W35222  23.215  16.131   2.213
68792W        W35223  43.469  27.694   0.869
68793W        W35224  14.146  27.226   1.395
68794W        W35225   5.401  34.143   0.399
68795W        W35226   8.098  16.149   3.139
68796W        W35227  34.781   5.678   1.921
68797W        W35228  16.188   5.431   2.409
68798W        W35229  29.314  11.916   3.195
68799W        W35230  40.980  33.771  11.397
68800W        W35231  32.908  34.855  10.786
68801W        W35232  10.704   1.068   3.116
68802W        W35233  36.309   3.911  14.485
68803W        W35234  28.506   8.845  14.138
68804W        W35235  30.066  32.514  10.751
68805W        W35236  38.991  38.083  11.136
68806W        W35237   6.622  24.899   4.435
68807W        W35238  27.047  36.253  10.989
68808W        W35239  10.962  10.470  11.603
68809W        W35240  19.968   9.603  13.018
68810W        W35241  37.085  11.696  10.765
68811W        W35242  22.735  12.004   5.422
68812W        W35243   3.039  38.560  10.943
68813W        W35244  34.636  42.418  14.682
68814W        W35245  31.356  30.147  11.107
68815W        W35246  14.170  26.105  11.569
68816W        W35247   0.444  34.937  11.040
68817W        W35248  11.799  27.126  11.607
68818W        W35249  24.032  21.134   2.212
68819W        W35250  40.634  17.600   0.578
68820W        W35251  29.685  26.663  10.749
68821W        W35252  19.022  30.966   1.288
68822W        W35253  36.815  21.096   4.816
68823W        W35254  37.544  28.083  12.887
68824W        W35255  44.851  27.835  12.291
68825W        W35256  35.120  12.074  13.700
68826W        W35257  30.419  36.413  14.812
68827W        W35258  17.515  41.436   1.646
68828W        W35259  32.885  38.685  12.872
68829W        W35260   6.377  33.102   3.689
68830W        W35261  30.404  30.121  13.200
68831W        W35262  30.928  35.820  11.260
68832W        W35263   5.023   8.880  12.555
68833W        W35264   3.780  10.773   2.846
68834W        W35265  33.947  20.651   2.885
68835W        W35266   4.445  30.596   1.426
68836W        W35267  19.143  19.695  11.500
68837W        W35268  24.007   6.209   2.722
68838W        W35269  22.747   0.793  11.188
68839W        W35270  33.081  39.943   4.217
68840W        W35271   8.237  22.011  11.174
68841W        W35272  13.320  18.771   3.716
68842W        W35273  27.579   4.977  13.456
68843W        W35274  31.090   2.394  12.160
68844W        W35275  34.067  24.265   0.938
68845W        W35276  34.296  36.429   3.449
68846W        W35277  13.304   1.957  14.049
68847W        W35278  28.033  23.137  11.600
68848W        W35279   7.414  33.991   3.352
68849W        W35280  25.532  11.190   2.760
68850W        W35281  22.483   1.522   4.076
68851W        W35282   2.180  17.291   3.257
68852W        W35283  29.578  16.516  10.558
68853W        W35284  14.435   5.487  13.295
68854W        W35285   1.702   7.588  13.388
68855W        W35286  18.915   3.203  12.351
68856W        W35287  41.431  15.708   0.087
68857W        W35288   9.983   8.432  12.104
68858W        W35289   8.214  12.548  13.018
68859W        W35290  17.985  11.349   5.389
68860W        W35291   4.824  38.737   2.694
68861W        W35292  32.476  12.910  11.617
68862W        W35293   6.643   8.699  14.297
68863W        W35294   6.718  28.563   2.819
68864W        W35295   1.647  14.266   4.871
68865W        W35296  43.099  25.993   3.158
68866W        W35297   9.619  35.312   3.787
68867W        W35298  26.105  29.964  14.049
68868W        W35299   4.386  24.028   3.487
68869W        W35300  15.169  11.877   0.397
68870W        W35301  33.281  36.566   3.634
68871W        W35302  23.917  30.893   0.800
68872W        W35303  33.607  25.883   2.634
68873W        W35304  13.267  10.718  12.114
68874W        W35305  30.818  12.272   3.271
68875W        W35306  35.432   2.910  10.761
68876W        W35307  43.274  13.968   4.512
68877W        W35308  39.338  14.363  13.748
68878W        W35309  27.646  35.150   4.084
68879W        W35310  40.686  40.556  14.991
68880W        W35311  12.825  27.128  11.737
68881W        W35312  31.715  36.549  14.009
68882W        W35313   9.190  29.667   1.794
68883W        W35314  10.029  11.963  12.243
68884W        W35315   1.690  35.448   3.360
68885W        W35316  21.334  30.135   4.601
68886W        W35317  18.143  25.886  13.846
68887W        W35318  34.584  22.557   3.253
68888W        W35319  23.224  30.631  14.549
68889W        W35320   2.202  16.246  13.846
68890W        W35321  10.031   9.646  13.920
68891W        W35322  37.738  22.159   3.184
68892W        W35323  27.623  15.078   3.849
68893W        W35324  16.514  24.819   2.422
68894W        W35325  38.403  20.066   3.865
68895W        W35326  19.220  40.335   1.789
68896W        W35327  13.691   4.570  13.474
68897W        W35328  28.161  30.399   4.432
68898W        W35329  33.272  17.223  14.634
68899W        W35330   8.489  13.456  13.890
68900W        W35331  16.702   0.826   1.671
68901W        W35332  16.631   2.825   0.416
68902W        W35333  12.691  29.100  10.668
68903W        W35334  29.922  16.665  13.818
68904W        W35335  11.973  16.685  10.691
68905W        W35336  18.912  32.899   0.306
68906W        W35337  10.181  37.054   0.490
68907W        W35338  23.578  11.035   0.002
68908W        W35339  22.349  12.764  11.918
68909W        W35340  39.862  23.839  13.091
68910W        W35341  37.708  23.419   2.866
68911W        W35342   9.894  17.626  12.546
68912W        W35343  33.023  10.898  14.456
68913W        W35344  27.587   4.826   4.533
68914W        W35345  30.500  34.509  13.422
68915W        W35346  40.010  37.505   0.654
68916W        W35347  29.158   1.529   1.323
68917W        W35348  16.834  28.240   0.887
68918W        W35349  12.065  32.908   3.536
68919W        W35350  17.799  25.163   3.703
68920W        W35351   0.789  27.019  14.988
68921W        W35352   5.122  40.440   5.113
68922W        W35353  27.092  19.359  14.322
68923W        W35354   4.880  32.496   1.823
68924W        W35355  12.582  32.518   0.107
68925W        W35356  19.387   0.824   1.821
68926W        W35357  30.729  24.852   0.924
68927W        W35358   0.975   1.740  10.733
68928W        W35359  22.449   2.038   0.794
68929W        W35360  28.255  44.935  12.947
68930W        W35361  37.081   1.210  12.767
68931W        W35362  25.614  17.272   1.629
68932W        W35363  36.107  26.378   0.785
68933W        W35364  36.183  13.278   1.371
68934W        W35365   6.598  29.950   1.117
68935W        W35366   2.551  33.600   3.571
68936W        W35367   9.242  31.310  12.886
68937W        W35368  38.008   2.177  12.528
68938W        W35369  12.605   4.105  14.876
68939W        W35370  24.498   7.257   1.702
68940W        W35371   0.579  29.092  11.675
68941W        W35372  28.131  21.418   2.821
68942W        W35373  10.178  37.815   4.176
68943W        W35374  36.430  22.748   3.241
68944W        W35375  40.104  14.870  12.136
68945W        W35376  26.061  32.156   3.144
68946W        W35377  31.977  22.264   3.563
68947W        W35378  43.217  24.590  11.577
68948W        W35379  10.428  26.799  14.430
68949W        W35380   0.731   7.759   1.736
68950W        W35381  13.638  34.361   0.000
68951W        W35382  29.459  38.767   2.714
68952W        W35383  44.097  41.991  13.607
68953W        W35384  19.028   2.811   4.285
68954W        W35385  12.186  27.052   0.495
68955W        W35386  14.281  44.842   1.919
68956W        W35387  44.952  15.223  10.344
68957W        W35388  12.458   8.886  11.082
68958W        W35389   8.382  21.493   3.161
68959W        W35390  33.028  15.602  11.711
68960W        W35391  34.852  44.334  11.257
68961W        W35392  21.702  42.001   3.197
68962W        W35393  31.886   2.392  11.052
68963W        W35394  19.152  15.202   3.058
68964W        W35395  32.582  39.555   3.629
68965W        W35396  26.436   3.477  10.870
68966W        W35397  17.217   6.653   1.940
68967W        W35398   1.862  20.675  10.841
68968W        W35399  30.687  12.105  13.001
68969W        W35400  22.975  19.046   3.367
68970W        W35401   3.764   8.308  10.542
68971W        W35402   7.367  19.992   4.574
68972W        W35403  42.095  17.727   2.992
68973W        W35404  19.189  24.524   3.585
68974W        W35405  11.853  16.509  11.551
68975W        W35406  17.220  18.166  13.593
68976W        W35407  39.869   1.818  11.528
68977W        W35408  10.219  34.835  14.733
68978W        W35409   7.453  11.078   0.289
68979W        W35410   8.395   1.743  14.013
68980W        W35411  36.432  31.660   3.837
68981W        W35412  31.639   7.729  10.652
68982W        W35413  14.317  13.318   3.289
68983W        W35414  27.637   3.305  11.993
68984W        W35415   7.799  23.259  11.591
68985W        W35416   9.134  31.496  14.046
68986W        W35417  20.774   0.733   1.430
68987W        W35418  26.057  40.662   2.854
68988W        W35419  39.450  22.814  14.830
68989W        W35420  41.325  16.205   4.242
68990W        W35421  23.564  30.587   2.963
68991W        W35422   3.330  32.115   1.576
68992W        W35423  24.279  43.802   0.500
68993W        W35424   7.296  32.855  10.360
68994W        W35425  11.774  34.499  10.304
68995W        W35426  35.830  29.540   9.793
68996W        W35427  10.330  24.167   4.515
68997W        W35428  17.062   9.797  11.411
68998W        W35429   3.330  38.286  11.733
68999W        W35430  39.461  36.563  13.860
69000W        W35431   4.319  21.296  10.327
69001W        W35432   4.400  14.278   1.804
69002W        W35433  19.148  37.302   2.117
69003W        W35434  38.297  10.087   1.136
69004W        W35435  24.810  27.464   4.216
69005W        W35436  24.663   3.831  14.925
69006W        W35437  43.589   4.151  11.143
69007W        W35438  21.147  37.866  13.903
69008W        W35439   2.980  28.617   0.884
69009W        W35440  25.745  10.348   4.576
69010W        W35441   8.494  34.517  13.112
69011W        W35442   0.614  14.690  12.870
69012W        W35443   1.215   7.053   1.708
69013W        W35444  20.618  25.194   3.198
69014W        W35445  34.051  34.817   1.711
69015W        W35446  23.178   4.451   0.417
69016W        W35447  35.532  27.965   4.601
69017W        W35448  22.230  43.544   2.239
69018W        W35449   4.395  26.927   4.641
69019W        W35450  16.304  38.919   4.516
69020W        W35451   1.964  39.299   1.830
69021W        W35452  31.967  41.765  11.664
69022W        W35453  42.068  22.115   2.822
69023W        W35454  30.358  25.173   2.847
69024W        W35455  33.889  37.206  12.823
69025W        W35456  40.036   3.918   1.126
69026W        W35457  39.885  30.180   0.643
69027W        W35458  41.948   0.150  14.856
69028W        W35459  39.013  26.801   2.446
69029W        W35460  23.228  23.032  14.823
69030W        W35461  32.837  23.879  14.870
69031W        W35462  43.822   7.362  14.391
69032W        W35463  39.417   7.334  12.080
69033W        W35464   3.667  42.465   0.998
69034W        W35465  25.521   2.780   1.898
69035W        W35466   9.841   7.893   1.305
69036W        W35467  42.928  35.419   2.826
69037W        W35468   7.654   9.247  11.726
69038W        W35469  12.881  18.480   2.795
69039W        W35470  36.422  30.959  13.918
69040W        W35471  21.694   8.382  12.001
69041W        W35472  13.758  20.753  13.067
69042W        W35473  34.550   1.795  14.196
69043W        W35474  41.720  37.208   4.258
69044W        W35475  40.040  37.740  13.428
69045W        W35476  32.172  14.624  14.823
69046W        W35477   5.437   7.202   1.185
69047W        W35478  16.280  12.327   4.864
69048W        W35479  12.252  25.680  10.553
69049W        W35480  15.759  21.976  13.147
69050W        W35481   9.790   9.531   2.487
69051W        W35482  24.273   6.242   0.214
69052W        W35483  43.284  24.420  12.408
69053W        W35484  26.050  35.586   2.805
69054W        W35485  42.085  43.042  12.563
69055W        W35486   1.565  20.243   0.418
69056W        W35487  18.247  37.730  14.610
69057W        W35488  24.636   1.956   3.323
69058W        W35489  42.329  33.677   0.512
69059W        W35490  44.100   7.367  14.841
69060W        W35491   9.866  42.837   0.877
69061W        W35492   4.080  27.423  12.251
69062W        W35493  21.236  31.532   4.257
69063W        W35494   6.196  39.422  14.315
69064W        W35495  28.209  24.452  14.892
69065W        W35496  43.593  37.990   0.337
69066W        W35497  36.398   2.452  14.540
69067W        W35498  13.952  38.280   3.701
69068W        W35499  18.087  24.875   2.557
69069W        W35500  24.115   9.004  14.069
69070W        W35501  24.740  42.958   2.114
69071W        W35502  27.540   4.679  13.911
69072W        W35503  29.153  29.438  13.385
69073W        W35504  14.840  43.001  12.663
69074W        W35505  44.231  23.332   1.494
69075W        W35506   6.211  32.194   2.643
69076W        W35507  30.647  31.469   4.936
69077W        W35508  31.177  28.686  14.810
69078W        W35509  11.232  32.102   1.722
69079W        W35510   4.224   2.415   0.469
69080W        W35511   3.067  23.709   3.776
69081W        W35512   3.335  33.621  12.415
69082W        W35513  28.579  36.995   0.628
69083W        W35514  29.375  19.230   0.427
69084W        W35515  13.107  44.252  14.810
69085W        W35516  14.144   3.072   4.204
69086W        W35517  41.957  10.300   1.856
69087W        W35518  37.419  18.333  10.168
69088W        W35519  14.384  36.090  11.836
69089W        W35520   9.841   5.749  11.102
69090W        W35521  42.712  14.814   1.369
69091W        W35522   7.116  13.164   2.074
69092W        W35523  19.238  11.087  11.100
69093W        W35524  39.712   1.722   4.443
69094W        W35525  21.311   2.760  14.446
69095W        W35526  17.467  19.605   2.300
69096W        W35527  26.735  10.340  10.741
69097W        W35528  33.170  21.087  12.334
69098W        W35529  35.823  19.990   3.667
69099W        W35530  39.024  10.802  12.021
69100W        W35531  23.913  17.693   4.572
69101W        W35532   5.635  43.870   0.798
69102W        W35533   9.686   6.494  14.761
69103W        W35534  28.806  21.062  14.724
69104W        W35535  22.482  27.454   0.898
69105W        W35536  18.701  28.207   0.678
69106W        W35537   2.294  29.474  14.257
69107W        W35538  10.227  12.123  13.966
69108W        W35539  34.907   5.328  11.893
69109W        W35540  14.814  16.730  12.233
69110W        W35541  21.076  30.380   2.760
69111W        W35542   1.185  42.834   4.576
69112W        W35543  38.953  39.789   2.810
69113W        W35544  19.796  10.714   3.700
69114W        W35545  44.834  24.923   2.275
69115W        W35546   0.288  32.333  14.550
69116W        W35547  22.888  40.331  13.952
69117W        W35548  30.137  34.921   1.525
69118W        W35549  28.344   2.337  10.501
69119W        W35550   3.837  34.961  12.182
69120W        W35551  42.933  32.077   0.907
69121W        W35552  25.181   5.441  10.719
69122W        W35553   7.377  21.266   2.362
69123W        W35554  34.448  23.832   3.282
69124W        W35555   0.653  34.455   0.311
69125W        W35556  40.535   9.034   3.520
69126W        W35557   1.921  36.886  12.992
69127W        W35558  10.146  41.244   3.897
69128W        W35559  25.101  23.684   4.187
69129W        W35560  11.635  40.806   1.443
69130W        W35561  38.086  38.990   3.235
69131W        W35562  18.035   3.088   1.779
69132W        W35563   8.212  30.384  11.771
69133W        W35564  32.312   5.191   5.072
69134W        W35565  12.838   8.820   3.929
69135W        W35566  13.957   7.264   2.486
69136W        W35567  22.467  44.438   1.763
69137W        W35568  23.576  14.052  12.187
69138W        W35569  11.291  38.244  14.611
69139W        W35570  18.643  26.038   0.262
69140W        W35571  29.450  22.553   2.667
69141W        W35572   6.964  27.053   2.583
69142W        W35573  41.079  35.881  12.424
69143W        W35574   1.111  30.798   2.027
69144W        W35575  14.004   5.718   2.740
69145W        W35576  40.884  36.923   0.319
69146W        W35577  18.710  11.790  14.110
69147W        W35578  31.712  41.976  13.957
69148W        W35579  30.384  25.356   0.839
69149W        W35580  18.599  26.702   1.079
69150W        W35581  29.423  44.504   4.598
69151W        W35582  43.883  11.204   2.391
69152W        W35583  38.442  43.661   1.317
69153W        W35584  28.409   7.148   3.192
69154W        W35585   0.953  27.922  12.065
69155W        W35586   7.889  19.062   1.364
69156W        W35587  19.379   7.720  12.060
69157W        W35588  39.346  42.297   0.735
69158W        W35589  22.956  26.800   2.368
69159W        W35590  34.342  19.998   1.714
69160W        W35591  28.308   5.771   0.893
69161W        W35592  21.017   3.314  12.646
69162W        W35593   2.042  11.589   1.791
69163W        W35594  20.821  40.138  13.842
69164W        W35595  34.007   7.738  10.687
69165W        W35596  16.270  21.206  14.480
69166W        W35597  44.042  12.626  10.307
69167W        W35598  28.881  33.829  14.855
69168W        W35599  34.155  18.677  12.389
69169W        W35600  30.482  25.168  12.776
69170W        W35601  37.894  19.685   1.459
69171W        W35602  13.300   1.324  11.503
69172W        W35603   2.939  12.656  14.228
69173W        W35604  19.148  35.454   1.607
69174W        W35605  20.571  20.019  10.249
69175W        W35606  43.180  31.550   4.875
69176W        W35607  28.399  29.452   2.829
69177W        W35608  23.553  43.700  13.321
69178W        W35609   6.417  22.946  13.996
69179W        W35610  32.025   4.055  11.238
69180W        W35611  43.396   3.625  13.617
69181W        W35612  26.948   8.181  14.466
69182W        W35613  27.618  27.340  14.310
69183W        W35614  42.945  28.895   1.341
69184W        W35615  43.115   7.402   2.275
69185W        W35616  12.084  25.810  14.718
69186W        W35617  25.760  17.319  12.464
69187W        W35618   9.461  42.551  13.495
69188W        W35619  17.719  23.284   0.324
69189W        W35620  17.805  22.321  10.864
69190W        W35621  36.961  33.680  12.287
69191W        W35622  19.685  39.309   1.739
69192W        W35623   0.700  40.476  10.440
69193W        W35624  23.969  28.593   5.420
69194W        W35625   6.078  19.799   1.191
69195W        W35626  36.215  40.509  13.094
69196W        W35627  12.884   6.401   2.304
69197W        W35628   2.739  33.610   2.301
69198W        W35629  30.962   7.835  10.710
69199W        W35630  43.860  27.968   3.093
69200W        W35631   2.447  31.433  11.567
69201W        W35632   4.349   8.637   2.678
69202W        W35633   7.668  42.848  14.442
69203W        W35634  14.745  39.829   3.596
69204W        W35635   9.705  21.661   0.700
69205W        W35636  43.891  10.788  14.865
69206W        W35637   7.457  30.671   4.328
69207W        W35638  28.013  24.991  10.860
69208W        W35639  41.110  40.771  12.069
69209W        W35640  16.159   2.885  13.213
69210W        W35641  37.382  14.675  14.374
69211W        W35642  19.848  14.418   3.510
69212W        W35643  44.947  28.972   1.274
69213W        W35644   8.606  16.113   3.058
69214W        W35645  37.414   6.361  11.426
69215W        W35646   3.810  10.749   4.960
69216W        W35647  12.880  35.125   5.081
69217W        W35648   0.683  35.399   4.240
69218W        W35649  16.523  20.126   3.909
69219W        W35650  44.378  16.207   4.909
69220W        W35651   0.256   2.986  11.070
69221W        W35652  34.438  27.982   0.811
69222W        W35653  42.314  12.694   2.257
69223W        W35654  40.789  30.422  14.242
69224W        W35655  18.174  29.489  13.845
69225W        W35656  11.086  29.023  12.401
69226W        W35657  25.637  20.547  14.870
69227W        W35658   8.977  16.587  12.505
69228W        W35659  20.228  29.483   4.710
69229W        W35660  20.213  19.580  13.679
69230W        W35661  14.918  31.547  14.869
69231W        W35662  27.274  24.259   2.169
69232W        W35663   0.511  17.226   2.798
69233W        W35664  39.535  13.253   1.521
69234W        W35665   8.367  13.222   1.997
69235W        W35666  12.856  43.143  12.375
69236W        W35667   0.529  14.054  12.053
69237W        W35668   7.323  42.494  14.990
69238W        W35669  37.922  39.915   0.699
69239W        W35670  18.247   1.398   3.171
69240W        W35671  43.960   3.333   0.849
69241W        W35672   2.770  20.620   2.299
69242W        W35673  28.954   8.790  10.493
69243W        W35674  12.156  35.358  12.494
69244W        W35675  10.389  32.247   4.558
69245W        W35676   2.782  35.972   0.906
69246W        W35677  25.102  14.594   3.407
69247W        W35678  10.875  40.505  14.816
69248W        W35679  14.794  40.950  14.420
69249W        W35680  41.339  27.531  14.780
69250W        W35681   5.188  11.169  12.472
69251W        W35682  21.093  34.448  14.965
69252W        W35683  44.534   4.242  11.665
69253W        W35684  33.571  28.512   1.325
69254W        W35685  25.462  29.096  14.483
69255W        W35686   2.375  32.460  13.347
69256W        W35687   1.890  30.699   2.405
69257W        W35688  38.856   5.937   1.503
69258W        W35689  40.334  40.365  12.866
69259W        W35690   2.357  16.289  12.990
69260W        W35691  41.802  18.111  14.249
69261W        W35692  36.859  32.596  12.569
69262W        W35693  39.187  23.406   3.308
69263W        W35694  36.011  38.143  14.809
69264W        W35695  41.822  37.300   2.410
69265W        W35696  42.507  19.684  10.967
69266W        W35697  18.690  39.338  13.739
69267W        W35698   4.277   2.659  14.703
69268W        W35699  12.124  11.229   0.171
69269W        W35700   4.309  42.987  13.376
69270W        W35701  37.112  26.679  11.144
69271W        W35702  21.042  18.475  13.343
69272W        W35703   9.894  25.940   0.748
69273W        W35704  21.185   0.106   2.311
69274W        W35705  27.536  39.970  12.005
69275W        W35706   2.236  10.761  12.846
69276W        W35707  10.449  42.617   0.157
69277W        W35708  30.485   5.919   2.708
69278W        W35709   0.049  32.958  12.190
69279W        W35710  38.356   8.491   0.540
69280W        W35711  31.970   7.325   2.365
69281W        W35712  42.705  36.920   4.779
69282W        W35713   9.585  33.851  12.462
69283W        W35714  37.445  38.053   0.510
69284W        W35715  21.157  12.323  14.220
69285W        W35716  33.079  16.663   1.807
69286W        W35717   4.371  28.181  10.704
69287W        W35718  10.188  13.848   2.175
69288W        W35719   2.354  22.861  13.094
69289W        W35720  20.952  19.807  11.083
69290W        W35721  41.865  22.057  12.457
69291W        W35722  17.584   0.485   0.856
69292W        W35723  39.289   9.673  12.475
69293W        W35724  26.000  29.909  11.562
69294W        W35725  15.652   8.946   4.071
69295W        W35726  22.902   2.242  10.049
69296W        W35727   1.957  35.880   3.328
69297W        W35728  41.797  44.178  13.880
69298W        W35729  15.959  13.761  14.476
69299W        W35730   0.487  25.506   2.737
69300W        W35731  14.780  39.480  10.705
69301W        W35732  22.441   3.454  10.491
69302W        W35733  38.813  17.919   1.766
69303W        W35734  35.107  26.477  14.780
69304W        W35735  41.730  38.966  14.076
69305W        W35736  12.892  11.302  14.165
69306W        W35737  17.766  43.894   0.427
69307W        W35738   6.204  12.892  11.700
69308W        W35739  32.313  40.432   5.028
69309W        W35740   0.040  40.340   0.284
69310W        W35741  18.014  37.526   5.103
69311W        W35742  37.215  37.139   4.543
69312W        W35743   2.680  44.042  13.494
69313W        W35744  18.153  13.867   3.004
69314W        W35745  30.850  27.971   3.618
69315W        W35746  26.802  39.394   3.638
69316W        W35747  10.908  19.007  14.442
69317W        W35748   2.515  15.594  12.453
69318W        W35749  39.803  42.468  14.914
69319W        W35750   3.607   7.375  11.034
69320W        W35751  22.990  28.381   3.637
69321W        W35752  33.891  11.110  14.447
69322W        W35753  14.596  40.375   2.882
69323W        W35754   4.472   7.316  10.690
69324W        W35755  42.929  30.137  12.378
69325W        W35756  32.032  32.276   2.291
69326W        W35757  32.253  24.303   4.772
69327W        W35758  27.956  35.555   4.154
69328W        W35759  15.694  16.060   4.637
69329W        W35760   0.618  20.510  11.106
69330W        W35761  11.617  13.253  11.660
69331W        W35762   1.919   3.923   0.504
69332W        W35763  20.493  23.160   4.302
69333W        W35764  22.627   3.660   3.503
69334W        W35765  22.056  24.268   0.408
69335W        W35766  36.538   3.889   3.881
69336W        W35767  32.091  20.904  11.670
69337W        W35768  32.919  13.120  14.785
69338W        W35769  24.281   0.902  11.132
69339W        W35770  40.641  39.978   4.182
69340W        W35771  22.278   6.343   1.759
69341W        W35772  40.264  43.990  14.219
69342W        W35773  35.025   0.331  13.341
69343W        W35774   7.151   7.658   3.056
69344W        W35775  31.951  26.984   4.741
69345W        W35776  19.539  36.651   4.123
69346W        W35777  41.696  35.565   4.574
69347W        W35778  29.604  16.582  12.486
69348W        W35779  11.741  23.660  10.617
69349W        W35780  24.022  12.154  10.379
69350W        W35781  28.042  38.142  12.914
69351W        W35782   5.344  31.224  12.978
69352W        W35783  28.622   0.671  13.351
69353W        W35784  35.980  34.046   4.269
69354W        W35785   9.227  23.248  14.255
69355W        W35786  22.565  34.523   3.151
69356W        W35787  36.497  12.124   2.606
69357W        W35788  23.029  18.622  14.442
69358W        W35789  38.079   9.881  13.045
69359W        W35790  39.353  24.243  11.496
69360W        W35791  34.169   6.444   4.093
69361W        W35792  13.972  26.276   4.517
69362W        W35793  36.179  33.600   1.199
69363W        W35794  28.628  18.324   0.486
69364W        W35795  38.835   3.736   0.461
69365W        W35796  39.295  28.753   0.976
69366W        W35797  22.586  21.137  11.894
69367W        W35798  18.350   4.881  13.887
69368W        W35799  43.273  20.245  12.691
69369W        W35800  20.919  44.918  10.446
69370W        W35801  26.660  32.084  12.424
69371W        W35802   8.981  17.524  10.731
69372W        W35803  18.893  22.710   5.241
69373W        W35804  18.880  19.396   4.735
69374W        W35805  40.962  39.859   0.067
69375W        W35806  15.519  20.168  14.869
69376W        W35807  32.534  31.755  10.548
69377W        W35808  14.615  32.453  11.748
69378W        W35809  37.016  41.342  12.440
69379W        W35810  27.217   0.010  12.102
69380W        W35811  13.866  34.955  13.046
69381W        W35812  38.928   1.766   1.775
69382W        W35813   7.421   3.638  13.339
69383W        W35814  22.993  27.865   3.605
69384W        W35815  29.640  21.622  13.934
69385W        W35816  27.726  23.501   3.651
69386W        W35817  11.440  32.966  14.877
69387W        W35818   9.802   0.708   3.155
69388W        W35819  22.568  19.423  14.391
69389W        W35820   6.920  23.109   4.502
69390W        W35821  11.119  31.427  12.320
69391W        W35822  39.940  19.318  13.834
69392W        W35823   0.824  35.842   3.524
69393W        W35824  17.152  21.008  13.808
69394W        W35825  33.109   1.796  11.598
69395W        W35826  24.841  26.022   1.376
69396W        W35827   5.936  31.692   1.415
69397W        W35828   4.942   6.734   4.986
69398W        W35829  17.211  17.620   0.329
69399W        W35830  44.279  12.327  14.273
69400W        W35831  10.799  14.090  11.028
69401W        W35832  43.205   5.169   4.559
69402W        W35833  30.378  25.806   3.841
69403W        W35834  15.788  31.528   4.068
69404W        W35835   2.187  24.395  10.999
69405W        W35836  11.722  41.062   0.472
69406W        W35837  11.318  15.826  11.047
69407W        W35838  27.007  33.442  12.325
69408W        W35839  15.436  42.497   1.758
69409W        W35840  11.179   2.922   4.270
69410W        W35841  18.975  20.171   1.936
69411W        W35842  28.448  18.539   0.964
69412W        W35843  38.792  24.702   0.461
69413W        W35844  40.046  27.644   0.303
69414W        W35845  18.393   8.268   0.246
69415W        W35846  16.048  26.639   2.344
69416W        W35847   9.575  16.866   2.958
69417W        W35848   7.267  37.669   3.589
69418W        W35849  24.536  11.108   0.953
69419W        W35850   3.178  41.672  12.670
69420W        W35851  43.481   6.117  12.048
69421W        W35852  12.193  17.785   1.419
69422W        W35853  29.727  26.401   2.336
69423W        W35854  26.272  13.739   0.151
69424W        W35855  13.223  18.267  11.267
69425W        W35856  41.449  33.147  10.906
69426W        W35857   7.228  38.302   1.240
69427W        W35858  22.702  12.644  11.524
69428W        W35859  43.586  32.507  13.115
69429W        W35860  21.245  12.760  11.203
69430W        W35861  11.220  17.274  13.505
69431W        W35862   2.864  41.371   1.707
69432W        W35863  36.468  29.489   2.256
69433W        W35864  41.263  14.746   1.871
69434W        W35865  10.559  40.913  14.751
69435W        W35866  14.216   2.968   0.330
69436W        W35867  11.347  29.695   2.372
69437W        W35868   4.515   4.403  10.570
69438W        W35869  41.516  37.093   3.763
69439W        W35870   4.747  28.697  14.504
69440W        W35871   0.202  23.045  10.610
69441W        W35872  19.546  40.000   2.028
69442W        W35873  16.109  32.288  13.564
69443W        W35874  31.587  43.774   2.837
69444W        W35875  42.024  13.863  11.321
69445W        W35876  29.634   7.412   1.868
69446W        W35877  19.984  23.209   4.299
69447W        W35878  29.653  15.674  11.581
69448W        W35879  34.544   4.178   3.058
69449W        W35880   1.218  40.118   2.679
69450W        W35881  35.025  36.119   3.249
69451W        W35882  17.377  18.588   3.645
69452W        W35883  31.368  29.616   4.635
69453W        W35884  19.095  10.878  12.310
69454W        W35885  18.706   6.546   4.607
69455W        W35886  21.610  17.902  10.562
69456W        W35887  36.655  28.129  13.835
69457W        W35888  32.952  22.142   3.650
69458W        W35889  22.726  36.429  11.099
69459W        W35890  18.142   2.218  11.742
69460W        W35891  24.764   0.843  10.914
69461W        W35892   5.615   2.352   0.375
69462W        W35893  42.335  36.890  14.916
69463W        W35894  22.209   5.702  14.457
69464W        W35895  12.911  28.512  10.697
69465W        W35896  23.399  34.108   3.731
69466W        W35897  16.800  42.361   2.033
69467W        W35898   8.919  13.754  13.935
69468W        W35899  27.467  18.849   4.412
69469W        W35900   9.114   0.196   2.430
69470W        W35901  42.953   1.824   0.456
69471W        W35902  34.455   3.221  11.047
69472W        W35903  16.571  24.712  13.468
69473W        W35904  21.054   4.653   4.172
69474W        W35905   6.181   4.700   1.267
69475W        W35906  24.037  32.957  11.061
69476W        W35907  25.943  20.592  12.049
69477W        W35908   5.922  43.051   3.778
69478W        W35909  28.426   4.173   4.062
69479W        W35910  18.213  34.510   1.499
69480W        W35911   0.315  30.401   1.950
69481W        W35912  28.039  28.132  12.812
69482W        W35913  23.574   3.780   4.685
69483W        W35914  33.000  12.110  12.499
69484W        W35915  39.355   2.887  12.914
69485W        W35916  33.441  29.177  11.016
69486W        W35917  27.494  22.689   4.562
69487W        W35918  19.680  29.568   0.345
69488W        W35919  35.288  19.759   4.527
69489W        W35920   3.265  31.462  14.036
69490W        W35921   5.358  40.544   0.920
69491W        W35922  32.475   9.217  13.022
69492W        W35923  42.395  31.229  14.230
69493W        W35924  16.810   1.777   1.634
69494W        W35925  31.133  38.592   4.894
69495W        W35926  18.782  41.605  11.153
69496W        W35927   5.691  34.343   3.303
69497W        W35928  38.084  40.457   5.376
69498W        W35929  35.825  30.408  14.873
69499W        W35930  18.283  21.511  13.976
69500W        W35931  30.112  20.229   3.601
69501W        W35932   2.312   3.286   4.536
69502W        W35933  27.752  10.243   3.117
69503W        W35934  10.279  33.226  12.032
69504W        W35935  26.443  25.095   0.017
69505W        W35936  37.977  26.236   2.860
69506W        W35937  18.158  44.073   1.703
69507W        W35938  25.664  36.939   3.624
69508W        W35939  22.155  35.895   2.692
69509W        W35940   0.470  14.577   0.286
69510W        W35941  43.438  27.613   0.035
69511W        W35942  32.887  14.052   2.955
69512W        W35943  33.366  19.573  10.059
69513W        W35944  33.502  22.253   2.761
69514W        W35945  44.993  44.651   4.038
69515W        W35946  13.298   3.596  13.611
69516W        W35947  30.066  31.060   1.445
69517W        W35948  20.582  12.738  14.013
69518W        W35949  21.667   4.771   2.250
69519W        W35950  13.284  13.596   3.755
69520W        W35951  31.368  30.916  14.381
69521W        W35952  18.117   4.906   2.109
69522W        W35953  27.210  10.879  14.756
69523W        W35954  17.049  13.779   1.253
69524W        W35955  23.588  18.212   5.423
69525W        W35956   7.699  44.726  13.126
69526W        W35957   1.764  38.400  11.126
69527W        W35958  20.765  14.842  12.886
69528W        W35959  32.672  24.640  13.608
69529W        W35960   4.166  24.964  11.893
69530W        W35961  39.023  38.258   1.732
69531W        W35962   9.188  27.440  12.387
69532W        W35963  24.760  38.958   0.846
69533W        W35964   8.189  17.046   1.769
69534W        W35965   6.928  14.590   2.415
69535W        W35966  28.043  21.759  10.473
69536W        W35967  15.573   7.929   2.389
69537W        W35968  30.667  30.840  12.588
69538W        W35969  43.529   5.877   0.083
69539W        W35970  24.332   7.850  13.900
69540W        W35971   2.063   6.881  13.774
69541W        W35972  38.918  22.600   2.889
69542W        W35973   1.541  41.801   0.777
69543W        W35974  31.118  34.878   4.928
69544W        W35975  18.810   0.168  13.542
69545W        W35976  33.151   2.840  11.310
69546W        W35977  17.412  22.762   3.737
69547W        W35978  39.587  31.550  13.857
69548W        W35979   6.896  39.593  14.983
69549W        W35980  21.149   0.312   0.018
69550W        W35981  18.004   7.839  11.690
69551W        W35982   3.127  31.192   2.360
69552W        W35983  43.970  36.724   4.076
69553W        W35984  28.486  39.928   0.060
69554W        W35985   2.799   8.228  13.058
69555W        W35986   6.486  38.235  10.760
69556W        W35987  44.439  31.649   4.690
69557W        W35988  12.159   6.340  11.847
69558W        W35989  23.294   2.969  13.479
69559W        W35990   0.624  35.490   2.250
69560W        W35991  35.551  10.419   4.782
69561W        W35992  27.766  36.134   2.190
69562W        W35993  44.013  26.977   3.198
69563W        W35994  40.484  44.666   1.613
69564W        W35995  42.023  16.671  10.619
69565W        W35996   4.015  43.040  13.817
69566W        W35997  21.132  32.460   0.957
69567W        W35998  27.984  15.633   3.254
69568W        W35999  13.096  36.818  14.282
69569W        W36000  26.204  26.930  11.974
69570W        W36001  29.171  40.326  10.970
69571W        W36002  33.830  44.341  12.048
69572W        W36003   7.329   2.076  12.977
69573W        W36004   6.511  35.187   5.073
69574W        W36005  17.250  40.035   3.934
69575W        W36006  17.619  32.533   3.280
69576W        W36007   3.109   9.583   0.754
69577W        W36008  30.232   0.766  12.060
69578W        W36009  20.187  34.692   3.008
69579W        W36010   8.715  13.126   3.184
69580W        W36011  36.365   6.758  13.539
69581W        W36012  43.567  34.992   4.456
69582W        W36013   5.416  26.037   3.045
69583W        W36014  43.805   9.671   0.540
69584W        W36015  17.245  39.183   1.306
69585W        W36016   2.034  41.798  11.240
69586W        W36017  10.995   9.220  10.955
69587W        W36018  43.422   0.328   2.882
69588W        W36019  43.007  13.649   0.986
69589W        W36020  34.397  24.643   2.702
69590W        W36021  17.077  43.845  10.643
69591W        W36022  10.761  39.646   0.494
69592W        W36023  22.632   5.616   3.662
69593W        W36024  16.417  39.072  13.759
69594W        W36025  22.798  33.191  13.070
69595W        W36026  33.155  39.832  11.118
69596W        W36027  34.044   3.656   0.878
69597W        W36028   4.199  17.053  12.082
69598W        W36029   8.477  12.727  14.382
69599W        W36030   3.990  31.193   3.163
69600W        W36031  19.381  44.442  11.763
69601W        W36032  12.584  33.470  13.801
69602W        W36033  37.897  22.429   1.897
69603W        W36034   1.258  20.377   1.499
69604W        W36035   1.904   7.787   2.424
69605W        W36036  19.780  18.924  13.690
69606W        W36037  44.851   4.266   3.422
69607W        W36038  38.201   7.283   3.947
69608W        W36039  29.126  31.691  11.009
69609W        W36040  12.657  24.392   2.372
69610W        W36041  23.049  13.757   1.190
69611W        W36042  17.823  22.512   2.194
69612W        W36043   2.002  18.280   4.245
69613W        W36044  29.917  14.579   1.514
69614W        W36045  39.005  13.755   2.838
69615W        W36046  29.916  28.361  13.438
69616W        W36047  23.965   6.916   3.170
69617W        W36048  23.951  35.497  10.534
69618W        W36049  21.751   9.140  11.543
69619W        W36050   6.799   1.433   0.083
69620W        W36051  29.550   6.144  13.896
69621W        W36052  12.456   3.512  12.899
69622W        W36053  43.614   1.534  10.589
69623W        W36054   5.118   6.801  10.239
69624W        W36055  16.484  12.955  13.859
69625W        W36056   8.717   3.490   3.735
69626W        W36057   6.743  17.508   3.347
69627W        W36058  33.364  23.217  11.602
69628W        W36059   1.964  27.267  13.490
69629W        W36060  14.165  31.341   2.306
69630W        W36061   3.846  34.218  11.059
69631W        W36062  41.098  11.144   1.902
69632W        W36063  42.987  30.101   3.859
69633W        W36064  25.652  43.854   1.234
69634W        W36065  17.358  24.717   1.327
69635W        W36066  44.930  30.753  13.075
69636W        W36067  14.788   0.271   3.609
69637W        W36068  28.251   1.270   1.189
69638W        W36069  15.581  36.453   1.265
69639W        W36070   1.111  40.986   4.131
69640W        W36071   0.385  28.605  13.199
69641W        W36072   0.374   7.581   0.933
69642W        W36073  28.574  14.826   3.778
69643W        W36074  15.591  13.757   5.575
69644W        W36075  33.659  23.877  10.297
69645W        W36076  19.734   3.787  14.468
69646W        W36077  15.647  29.725   5.375
69647W        W36078  33.020   2.716  12.589
69648W        W36079  19.839   1.185  14.277
69649W        W36080  11.124  15.135   1.984
69650W        W36081   9.310  19.465  10.961
69651W        W36082  13.235  15.279   1.809
69652W        W36083  30.209  20.727  11.939
69653W        W36084  29.022  38.423  12.650
69654W        W36085  43.093  36.606   0.407
69655W        W36086  10.476  34.811   3.563
69656W        W36087  13.813   2.403   0.362
69657W        W36088  16.143  15.157  13.651
69658W        W36089  14.206   2.045   5.001
69659W        W36090  35.616  28.179  13.877
69660W        W36091  34.572  41.584   4.815
69661W        W36092   6.161  30.000   0.851
69662W        W36093  12.213   3.682   3.681
69663W        W36094  20.515  33.533  10.359
69664W        W36095  24.481  23.075   3.846
69665W        W36096  34.522  11.259   0.060
69666W        W36097   2.698  29.573  14.974
69667W        W36098  41.712  14.376   4.106
69668W        W36099   9.824  43.321   1.387
69669W        W36100  18.333   9.806  10.706
69670W        W36101  30.965  15.149  13.514
69671W        W36102  35.800  29.217  12.038
69672W        W36103   1.901  38.675  13.843
69673W        W36104  34.082  28.993  14.822
69674W        W36105  16.506  39.400   4.416
69675W        W36106   4.914   6.218  12.786
69676W        W36107  34.482  33.295  13.919
69677W        W36108  15.672   4.968   0.104
69678W        W36109  38.968  43.313   2.864
69679W        W36110  12.289   9.192   0.042
69680W        W36111  14.836  42.736   2.541
69681W        W36112  12.723   0.196  14.499
69682W        W36113  39.428   0.363  13.268
69683W        W36114  30.950   3.870  12.583
69684W        W36115  19.470  17.740   0.899
69685W        W36116  11.829  32.176   4.570
69686W        W36117  22.128  14.280   0.356
69687W        W36118   6.906  11.217  13.516
69688W        W36119  11.592   8.688   2.005
69689W        W36120   4.775   5.234   3.937
69690W        W36121  18.711   6.698   1.507
69691W        W36122  17.585   6.180   3.906
69692W        W36123   7.771  22.479   4.664
69693W        W36124  24.918  22.000   4.790
69694W        W36125  12.678  43.769  13.046
69695W        W36126  33.410  34.892  12.295
69696W        W36127  13.100  26.697  14.938
69697W        W36128  23.582  40.339   3.844
69698W        W36129   8.409   6.718  14.367
69699W        W36130  38.059   0.721   0.729
69700W        W36131  18.485  30.334  13.979
69701W        W36132  41.985  30.688   0.993
69702W        W36133   4.653  40.454   2.387
69703W        W36134  44.321  37.570   9.829
69704W        W36135  41.771  36.161  14.950
69705W        W36136   8.163  39.979   0.423
69706W        W36137  44.245  41.221  12.067
69707W        W36138   3.445  13.113   1.976
69708W        W36139  27.526  12.583  11.166
69709W        W36140  31.372   0.334   1.171
69710W        W36141  11.311  41.327  12.056
69711W        W36142   6.450  29.102   4.140
69712W        W36143  42.062   8.167  13.030
69713W        W36144  21.140  10.414  13.653
69714W        W36145  27.149  17.618  14.705
69715W        W36146  28.835   7.994   2.216
69716W        W36147   9.172   7.245  13.408
69717W        W36148  28.441  26.438  14.358
69718W        W36149  16.802  16.510  14.262
69719W        W36150  18.223  41.998   1.868
69720W        W36151  38.033  41.582  14.276
69721W        W36152  36.797  36.457  12.608
69722W        W36153  34.951  25.018  11.199
69723W        W36154  34.629   8.598   3.650
69724W        W36155  10.137  38.476  11.007
69725W        W36156  28.445  43.229   2.705
69726W        W36157  27.937  35.024   3.666
69727W        W36158  43.981   3.327   4.560
69728W        W36159  22.820  23.053  13.923
69729W        W36160  14.560  18.569   2.299
69730W        W36161  16.073  35.513   3.376
69731W        W36162   1.285  43.033   3.287
69732W        W36163  33.158  14.219  14.338
69733W        W36164  32.433  32.103  14.418
69734W        W36165  33.996  14.877  14.892
69735W        W36166   4.506  14.554   3.146
69736W        W36167  23.697   1.549   3.533
69737W        W36168  16.533  22.179  14.929
69738W        W36169  30.237   0.417   0.054
69739W        W36170   2.782   4.695   4.356
69740W        W36171  10.591  35.435   1.902
69741W        W36172  15.291  19.605  13.384
69742W        W36173  41.429  42.532   2.749
69743W        W36174  39.815  10.233  11.233
69744W        W36175  30.321  26.085  13.014
69745W        W36176  26.647   0.311  14.486
69746W        W36177  35.570  41.565   2.417
69747W        W36178  18.718  22.774  14.813
69748W        W36179  10.358  24.628   1.461
69749W        W36180   9.271  39.761   0.839
69750W        W36181  26.081  17.358   1.871
69751W        W36182   8.766  35.564   0.171
69752W        W36183  29.425  27.521  11.150
69753W        W36184  44.873  34.355  12.004
69754W        W36185   4.671  26.199   0.245
69755W        W36186  18.739  44.163  12.180
69756W        W36187  22.878  20.619  13.470
69757W        W36188  33.210  41.879  13.087
69758W        W36189  27.361   9.325   3.246
69759W        W36190  16.592   9.627  12.659
69760W        W36191   8.390  10.861  14.472
69761W        W36192   5.189  37.556  11.820
69762W        W36193   9.884  40.365  12.358
69763W        W36194  22.303  12.912  10.659
69764W        W36195  26.524  42.226  11.946
69765W        W36196  28.700  16.444  11.520
69766W        W36197  38.775  23.612  12.435
69767W        W36198  17.313  24.150   2.208
69768W        W36199  23.558  13.409  13.876
69769W        W36200  39.960  17.976   0.549
69770W        W36201  27.648  42.086   1.404
69771W        W36202  35.263   0.593  14.477
69772W        W36203  16.791  19.636  14.098
69773W        W36204  18.726  33.056   2.740
69774W        W36205  32.715  18.303   4.408
69775W        W36206  35.377  39.549  14.285
69776W        W36207  35.062  26.046   2.241
69777W        W36208   8.447  38.312  12.685
69778W        W36209   7.511  14.576   1.416
69779W        W36210   8.810  25.522  10.926
69780W        W36211  32.174  36.354   2.213
69781W        W36212   7.796   8.253  11.471
69782W        W36213   9.593   4.117  12.524
69783W        W36214  42.861   9.941  11.199
69784W        W36215  40.351  41.495  13.538
69785W        W36216  35.627  36.541   3.862
69786W        W36217  39.035   1.532   3.192
69787W        W36218  35.394  22.338   0.864
69788W        W36219   7.591  21.803   2.682
69789W        W36220   2.735   2.236   0.457
69790W        W36221  11.801   9.089  12.093
69791W        W36222  30.593  24.969  10.709
69792W        W36223   4.419   9.895  10.724
69793W        W36224   2.941  13.158   2.014
69794W        W36225  42.027  20.160  11.628
69795W        W36226  23.747  15.381   0.687
69796W        W36227  15.264  15.063  10.642
69797W        W36228   2.785   1.852  10.582
69798W        W36229  29.615  44.800   3.835
69799W        W36230   0.459  24.089  11.947
69800W        W36231  31.043  17.609  14.128
69801W        W36232  34.981  22.898   3.303
69802W        W36233   0.522  14.292   1.876
69803W        W36234  27.145  10.811  12.475
69804W        W36235  25.208   0.898   4.126
69805W        W36236  29.414   4.963   4.914
69806W        W36237  20.798  28.602   9.804
69807W        W36238  35.006  34.641  13.842
69808W        W36239  33.615   3.684  11.113
69809W        W36240  22.181  34.500   4.412
69810W        W36241  33.715  15.144   0.254
69811W        W36242  22.594   7.941   0.790
69812W        W36243   1.285   5.300  13.386
69813W        W36244  22.523  41.814   2.672
69814W        W36245  29.933  16.494  13.326
69815W        W36246  32.609  23.629  13.366
69816W        W36247  12.882  10.835  13.490
69817W        W36248  31.390  19.070  13.031
69818W        W36249  22.618   6.744  11.691
69819W        W36250  44.830   7.182   2.289
69820W        W36251  19.600  31.816   3.591
69821W        W36252  41.174  22.996   4.105
69822W        W36253  12.306  43.832   4.599
69823W        W36254  30.342   2.060   2.812
69824W        W36255  34.093  23.712  11.713
69825W        W36256  18.614  32.347  11.008
69826W        W36257  15.765  19.540   2.747
69827W        W36258   5.869   4.575   2.842
69828W        W36259  22.542  16.141  14.308
69829W        W36260  16.560  40.271  13.195
69830W        W36261  29.893  33.519   4.871
69831W        W36262  31.023   4.202   2.664
69832W        W36263  16.538  41.763   4.244
69833W        W36264  38.291  18.629   0.496
69834W        W36265  12.208  12.561   0.830
69835W        W36266  16.805  32.365  11.451
69836W        W36267  35.268  35.179   0.897
69837W        W36268   5.933   3.840   2.201
69838W        W36269  38.506  15.475   1.616
69839W        W36270  39.552  23.115   3.569
69840W        W36271  27.856  22.930  13.304
69841W        W36272  32.724  29.670  14.716
69842W        W36273   7.627  35.995  14.741
69843W        W36274  21.583  10.287   4.230
69844W        W36275   6.931  26.739   1.266
69845W        W36276  18.306  10.167   3.312
69846W        W36277  15.344  37.792  13.514
69847W        W36278  24.270   2.824  14.878
69848W        W36279  13.657  13.711   3.399
69849W        W36280  41.338   0.722  13.339
69850W        W36281  31.669  16.244  14.973
69851W        W36282  36.998  27.458   0.165
69852W        W36283  30.976  13.635  12.048
69853W        W36284  18.535   6.468   0.850
69854W        W36285  41.250  37.853   2.356
69855W        W36286  18.637   4.317  13.083
69856W        W36287  14.179  29.114   1.623
69857W        W36288   5.733  26.118   2.099
69858W        W36289  34.431  19.970   0.826
69859W        W36290  27.598  29.719  14.785
69860W        W36291  17.676  36.518   1.931
69861W        W36292   1.170  21.351   2.775
69862W        W36293  23.413  37.042   4.149
69863W        W36294  17.047  20.094   1.298
69864W        W36295  26.749  37.940  11.545
69865W        W36296  28.507  35.699   3.368
69866W        W36297  28.159  13.582  10.563
69867W        W36298  31.815  13.722  10.653
69868W        W36299  24.287  31.926   2.343
69869W        W36300  37.938  21.706  10.975
69870W        W36301  28.560  14.664  13.987
69871W        W36302  25.541  43.057   4.299
69872W        W36303  31.644  23.814   2.506
69873W        W36304  44.098  20.810  11.968
69874W        W36305  21.243  44.216  13.358
69875W        W36306  16.085   6.825   1.924
69876W        W36307  20.142   0.053   4.768
69877W        W36308  42.382  38.442   4.487
69878W        W36309   6.280  14.167   1.497
69879W        W36310  17.867  21.024  11.052
69880W        W36311  12.788  42.038  12.701
69881W        W36312  23.301  32.206  13.398
69882W        W36313  31.525  27.578   0.036
69883W        W36314  41.954   2.890  11.006
69884W        W36315  13.898  11.758  10.549
69885W        W36316  23.925  32.277  10.536
69886W        W36317  40.828  12.561  14.912
69887W        W36318  33.173  27.470   1.931
69888W        W36319  16.131   3.643   3.290
69889W        W36320  27.957  24.040   1.392
69890W        W36321  29.585  34.593   1.210
69891W        W36322  44.136  31.313  11.891
69892W        W36323  24.145   2.531  10.897
69893W        W36324  23.765  23.339   2.738
69894W        W36325  11.170  35.001   2.870
69895W        W36326  13.735  33.113  14.299
69896W        W36327  12.424  21.319   1.526
69897W        W36328   5.428  42.363  10.860
69898W        W36329  16.366  39.336   2.086
69899W        W36330  41.473  42.562  14.160
69900W        W36331  15.102   5.228   1.475
69901W        W36332  10.172  19.302   4.070
69902W        W36333  23.906  33.885   9.729
69903W        W36334   7.696  27.396   4.130
69904W        W36335  12.773   5.102  14.720
69905W        W36336  18.805  38.994  13.043
69906W        W36337  30.989  25.019   0.090
69907W        W36338  34.120  18.670   1.853
69908W        W36339  23.482  18.166   1.328
69909W        W36340  31.970  28.751  14.963
69910W        W36341  33.851  41.862   1.833
69911W        W36342  26.653  42.336   1.424
69912W        W36343  21.002  32.567  12.386
69913W        W36344  36.922  44.237  12.075
69914W        W36345  21.242   9.258   0.634
69915W        W36346  19.102  36.917   0.740
69916W        W36347  33.915   0.746  12.325
69917W        W36348   8.681  25.220  12.673
69918W        W36349  41.995  23.964   4.548
69919W        W36350  19.980  32.031   4.794
69920W        W36351  26.054  36.512  12.882
69921W        W36352  16.181   0.468   1.678
69922W        W36353  23.665  33.973  14.908
69923W        W36354  14.264  41.606   3.151
69924W        W36355   0.844  11.427   3.736
69925W        W36356   7.841  29.796  12.565
69926W        W36357  13.868  25.924   3.738
69927W        W36358  42.251   5.296   2.997
69928W        W36359   5.659   0.279   3.652
69929W        W36360   6.161   9.770  11.213
69930W        W36361  14.585   0.812   0.371
69931W        W36362  18.413  27.231  14.449
69932W        W36363  15.613   9.368   2.117
69933W        W36364   1.449   5.847  10.719
69934W        W36365  19.017   1.334   2.482
69935W        W36366  32.969  21.611   3.852
69936W        W36367   5.747  15.930  14.007
69937W        W36368  29.887   2.890   3.325
69938W        W36369   0.467  31.445   3.871
69939W        W36370   4.209  22.661   1.673
69940W        W36371  26.637  24.036  12.806
69941W        W36372  35.544  19.825   5.056
69942W        W36373  36.613  14.722  11.162
69943W        W36374  21.892  40.560   5.416
69944W        W36375  10.388  43.924   2.371
69945W        W36376   2.075  42.662  10.725
69946W        W36377   3.629  15.210  12.067
69947W        W36378  20.043  19.203   2.750
69948W        W36379  34.267  10.896   0.326
69949W        W36380  15.147  43.475  13.830
69950W        W36381  35.914  39.528   2.554
69951W        W36382  21.959  44.286  14.098
69952W        W36383  10.732  22.208  10.548
69953W        W36384  42.015  11.757  14.932
69954W        W36385   0.031  15.253  11.583
69955W        W36386  33.088  37.593   4.177
69956W        W36387   6.775  16.163  12.263
69957W        W36388  34.410  10.226   2.739
69958W        W36389  36.327  18.203  12.123
69959W        W36390  26.685  20.211   4.565
69960W        W36391  20.298   0.295   2.335
69961W        W36392  32.661   3.645   2.205
69962W        W36393  26.982  15.941  11.162
69963W        W36394  28.526  36.877  11.911
69964W        W36395   1.555  10.424  14.948
69965W        W36396  23.907  15.205   2.816
69966W        W36397  31.141  18.105   4.747
69967W        W36398   1.791  14.837  11.179
69968W        W36399  38.957  41.139  13.971
69969W        W36400   8.166  20.048  10.870
69970W        W36401  38.812   8.820  11.432
69971W        W36402   8.654   1.299   3.135
69972W        W36403   6.983   9.142   1.286
69973W        W36404   4.852  42.293  12.977
69974W        W36405  41.096  21.307  13.893
69975W        W36406  28.111  10.269  11.237
69976W        W36407   3.233  37.909   3.677
69977W        W36408  14.600  10.209   4.607
69978W        W36409  14.261  33.551  14.336
69979W        W36410   5.333  39.096   4.742
69980W        W36411  25.726   7.302   0.804
69981W        W36412  32.408  25.166  14.869
69982W        W36413  29.097   2.401   2.816
69983W        W36414  37.335  27.663   0.757
69984W        W36415  24.170   0.375  14.290
69985W        W36416  37.458   8.818   3.260
69986W        W36417  43.576  38.304   2.241
69987W        W36418  25.223  17.662   1.965
69988W        W36419  38.417  26.207  10.401
69989W        W36420   2.578  24.013  12.345
69990W        W36421  17.246  11.823  13.425
69991W        W36422  31.442  37.823  14.393
69992W        W36423   2.323  13.103   2.047
69993W        W36424  24.014  30.618   4.222
69994W        W36425  10.751  25.714   2.829
69995W        W36426   8.243   3.398   5.002
69996W        W36427  17.071  21.689  10.679
69997W        W36428  18.151  17.481  12.153
69998W        W36429  44.367  24.095   3.802
69999W        W36430  12.405  29.051   1.795
70000W        W36431  38.011  35.521  13.427
70001W        W36432  21.488  20.102  10.408
70002W        W36433  43.894  34.022   4.177
70003W        W36434  34.929  24.028  11.184
70004W        W36435  36.796   9.340   0.992
70005W        W36436  22.930  40.859  11.970
70006W        W36437  37.458  39.332  12.122
70007W        W36438  41.100   6.654  13.448
70008W        W36439   1.538  25.156  13.169
70009W        W36440   7.044  35.403   4.268
70010W        W36441  40.245  35.045  14.435
70011W        W36442  37.081  19.736  14.762
70012W        W36443  34.974   8.286  12.966
70013W        W36444  41.805   2.241   3.650
70014W        W36445   6.253  26.972   0.275
70015W        W36446  34.892   4.280   1.072
70016W        W36447  23.619   3.966   0.834
70017W        W36448   0.993  28.944   3.662
70018W        W36449   5.969   5.466  13.951
70019W        W36450   5.372  12.832   3.158
70020W        W36451  33.638  10.871   2.935
70021W        W36452  20.587  15.430  13.783
70022W        W36453  30.120   3.400  11.235
70023W        W36454  35.844  37.010  13.997
70024W        W36455  39.028  39.640  14.036
70025W        W36456  12.106  13.113   4.217
70026W        W36457   8.331  11.530   1.369
70027W        W36458   9.543   5.156  13.057
70028W        W36459  43.096   1.839   3.808
70029W        W36460  20.776  12.338   3.113
70030W        W36461   6.429  24.238   0.522
70031W        W36462  21.789  33.169  11.123
70032W        W36463  10.758   6.246  14.236
70033W        W36464  12.831   6.831  13.811
70034W        W36465  37.539  31.331  12.648
70035W        W36466  15.748   5.679   4.122
70036W        W36467  15.710   8.228  13.122
70037W        W36468  42.859  28.428  12.138
70038W        W36469  44.893   4.262   0.635
70039W        W36470  44.478  27.502  14.941
70040W        W36471  11.146  14.528  10.616
70041W        W36472  16.734   8.327   3.379
70042W        W36473   8.410  25.996   4.129
70043W        W36474   7.852  38.138  14.270
70044W        W36475  37.327  39.723   2.313
70045W        W36476  34.899  11.593   5.142
70046W        W36477  36.054  23.426   1.249
70047W        W36478  14.959  35.042   2.283
70048W        W36479  16.779  29.934   0.266
70049W        W36480   8.843  17.999  10.939
70050W        W36481   5.855  38.024  12.449
70051W        W36482  11.894   0.409  14.902
70052W        W36483   9.630  32.421  13.061
70053W        W36484  44.026  21.229   0.406
70054W        W36485   8.088   4.197   3.635
70055W        W36486   2.237   5.704   4.113
70056W        W36487  29.232  34.664  13.892
70057W        W36488   7.917  33.008  14.922
70058W        W36489  19.807  44.248   0.873
70059W        W36490  22.227  31.565   4.629
70060W        W36491  39.423   4.623  11.327
70061W        W36492   9.919  29.605  14.220
70062W        W36493  18.327  36.400   4.045
70063W        W36494  39.421  38.061  12.655
70064W        W36495   7.877  19.049  12.606
70065W        W36496  41.106   8.388  12.415
70066W        W36497   9.443  22.567   3.769
70067W        W36498  24.266  17.414  14.870
70068W        W36499  40.575  42.497   4.718
70069W        W36500   5.446  20.545   0.318
70070W        W36501  25.221  30.882  13.345
70071W        W36502  18.322  42.788  12.811
70072W        W36503  11.722  13.208   3.216
70073W        W36504   4.013  14.678   3.256
70074W        W36505  37.172  23.560   2.802
70075W        W36506  20.007  24.093   3.782
70076W        W36507  29.164   3.374  12.707
70077W        W36508  20.472  28.043  14.490
70078W        W36509  22.945   9.362  11.986
70079W        W36510  18.627  32.217   3.300
70080W        W36511  15.708  19.508   3.674
70081W        W36512  41.809  31.529  12.686
70082W        W36513  11.821   3.844   2.904
70083W        W36514  13.716   8.350   1.505
70084W        W36515   8.376  23.740   1.437
70085W        W36516  18.226  43.989   2.615
70086W        W36517  31.496  19.639  10.969
70087W        W36518  42.928  18.299   0.273
70088W        W36519  23.310  16.680   0.332
70089W        W36520  37.051  12.912  14.706
70090W        W36521  33.354  40.816  14.042
70091W        W36522  10.271  27.923  11.933
70092W        W36523  16.341  22.718  14.297
70093W        W36524   0.336  36.415  12.626
70094W        W36525  27.152  18.103  13.909
70095W        W36526  27.923  27.242  11.243
70096W        W36527  35.895   2.493   0.310
70097W        W36528   6.393   9.373   5.022
70098W        W36529   1.737  41.953   0.340
70099W        W36530  30.633  40.063  12.987
70100W        W36531   1.917   1.266   1.789
70101W        W36532  35.454  21.804  14.325
70102W        W36533  14.159  12.916   1.703
70103W        W36534   3.719  14.658  14.943
70104W        W36535   4.116  37.560   3.294
70105W        W36536  42.783  27.028  14.839
70106W        W36537  41.280  41.360  12.621
70107W        W36538  29.507  16.019   1.322
70108W        W36539  22.460  31.839  13.262
70109W        W36540  24.471  32.660  12.976
70110W        W36541   8.377   8.466   2.816
70111W        W36542  24.643  16.840   4.163
70112W        W36543   5.002  21.723   1.785
70113W        W36544  23.649   4.217   0.374
70114W        W36545  24.128  30.919  10.729
70115W        W36546   2.770  34.406   4.881
70116W        W36547  32.302  44.945  11.018
70117W        W36548  28.997  11.777   2.224
70118W        W36549  11.779  34.648  14.313
70119W        W36550  44.203  29.884   1.994
70120W        W36551  11.190   3.758  13.771
70121W        W36552   1.210  34.766  10.780
70122W        W36553  25.932  18.009   4.444
70123W        W36554  18.530  17.619   3.235
70124W        W36555   0.632  17.875  11.021
70125W        W36556  21.974  32.342  13.874
70126W        W36557  30.599  42.327   1.255
70127W        W36558   4.964  34.872  12.880
70128W        W36559   0.962  28.201  11.604
70129W        W36560  37.523  44.770  11.639
70130W        W36561  23.884  30.464   0.277
70131W        W36562  37.850   6.395   1.412
70132W        W36563  23.098  11.285  14.908
70133W        W36564  25.614   0.734   1.925
70134W        W36565  12.901  36.682   0.454
70135W        W36566  40.254  20.866   0.203
70136W        W36567  36.440  38.657   1.285
70137W        W36568  39.453  32.431   4.403
70138W        W36569  25.103   0.845   1.958
70139W        W36570   6.948  42.084  11.982
70140W        W36571   0.560  25.495   1.833
70141W        W36572  34.496  43.567   1.007
70142W        W36573  25.543  32.956   2.667
70143W        W36574  24.915  27.072  14.301
70144W        W36575   1.080  21.757   1.597
70145W        W36576  11.090  12.381   0.988
70146W        W36577  34.736   6.764   0.898
70147W        W36578  20.086  26.999  11.404
70148W        W36579  18.524  26.371   2.359
70149W        W36580  38.028  13.471  11.877
70150W        W36581   0.838  10.203  12.501
70151W        W36582  20.282  24.731  11.939
70152W        W36583  27.461  44.383  12.744
70153W        W36584   2.880   0.814   2.486
70154W        W36585   1.992  21.143  13.999
70155W        W36586  14.876  25.616  11.162
70156W        W36587  24.248  18.960  13.600
70157W        W36588  40.283  42.751  14.378
70158W        W36589  42.029  30.946  14.532
70159W        W36590  41.645   4.263   4.162
70160W        W36591   5.134  36.395   1.210
70161W        W36592  10.063  42.777   4.741
70162W        W36593   5.221  32.702  14.819
70163W        W36594  19.278  21.972   0.111
70164W        W36595  28.249  36.433   1.852
70165W        W36596  15.522   7.285  10.546
70166W        W36597  18.079  17.690   4.437
70167W        W36598   1.719  29.247  12.905
70168W        W36599  41.834  11.622   4.619
70169W        W36600  27.228  10.184  10.738
70170W        W36601   1.306   5.240  14.385
70171W        W36602  26.711  19.294   0.093
70172W        W36603   0.225  16.337  11.542
70173W        W36604  12.611  25.070   0.928
70174W        W36605   5.035  43.505   0.214
70175W        W36606  14.622  30.086  14.912
70176W        W36607  18.515  36.180  12.163
70177W        W36608  17.059  29.152   1.136
70178W        W36609  18.318  41.374   2.792
70179W        W36610  15.641  31.583   1.358
70180W        W36611   7.233  44.403  11.458
70181W        W36612  43.408   3.603   1.870
70182W        W36613  17.987   9.272   1.276
70183W        W36614   7.979  16.548   1.775
70184W        W36615  34.805   5.814   3.586
70185W        W36616  15.182   0.402   0.899
70186W        W36617   4.136  36.388   3.607
70187W        W36618  19.328  13.274   1.472
70188W        W36619   9.626  14.062   2.265
70189W        W36620   8.065   7.189  10.201
70190W        W36621  33.360  12.520   1.330
70191W        W36622  26.154  36.795   3.710
70192W        W36623  27.706   2.653  11.166
70193W        W36624  15.152  20.656   4.325
70194W        W36625  18.238  31.168  13.410
70195W        W36626  37.429  35.259  14.171
70196W        W36627   4.566  27.557  12.329
70197W        W36628  35.039  44.447   4.991
70198W        W36629  39.522   2.350   3.808
70199W        W36630   4.628  35.988  10.801
70200W        W36631  39.763  11.912   2.187
70201W        W36632   8.296  29.953  12.107
70202W        W36633  12.628  34.205   0.932
70203W        W36634   9.415  18.812   3.367
70204W        W36635  43.063  28.629   2.660
70205W        W36636  24.114  31.133  11.181
70206W        W36637  15.235  29.973   3.866
70207W        W36638  15.114  36.070   2.852
70208W        W36639  30.693  22.942   2.821
70209W        W36640  14.329  30.505  13.549
70210W        W36641  43.322  28.535  12.369
70211W        W36642  39.164  33.041   3.917
70212W        W36643  14.858  11.988  13.957
70213W        W36644  20.366  15.447  13.301
70214W        W36645  26.520  20.680   4.735
70215W        W36646  18.517  26.653  14.883
70216W        W36647  19.823  16.192  10.444
70217W        W36648  24.599  10.144  14.642
70218W        W36649  32.867  33.890  13.513
70219W        W36650  41.869  21.012  12.339
70220W        W36651  26.498  19.691   3.393
70221W        W36652   5.625  14.466   5.405
70222W        W36653   3.947  21.964  13.414
70223W        W36654  21.787  30.877   2.680
70224W        W36655  15.284  38.006   4.575
70225W        W36656  11.569   4.346   4.192
70226W        W36657   0.588  37.884   1.334
70227W        W36658   6.133  25.803   4.804
70228W        W36659  17.679  22.532   3.005
70229W        W36660   9.314  36.309  12.039
70230W        W36661   3.275  19.238  13.442
70231W        W36662  20.664  10.329   1.425
70232W        W36663  29.951   2.586   4.638
70233W        W36664   8.909  27.601   0.301
70234W        W36665  44.436  40.034  11.499
70235W        W36666  35.007  37.077  10.765
70236W        W36667  35.643  26.334   2.754
70237W        W36668   7.772  33.823  12.942
70238W        W36669  39.935  38.409  11.147
70239W        W36670  15.556  15.078  12.070
70240W        W36671  36.443  22.999   4.483
70241W        W36672  35.570  18.346   1.666
70242W        W36673   5.909  18.907   1.354
70243W        W36674  23.606   1.021   1.942
70244W        W36675  29.686  11.409   4.313
70245W        W36676  28.793  34.185  13.313
70246W        W36677  39.578  15.819  13.969
70247W        W36678  37.520  39.477  13.580
70248W        W36679  11.768   4.140  11.011
70249W        W36680  27.007  18.546  14.744
70250W        W36681  27.589   0.460   0.509
70251W        W36682  20.640  14.040   5.591
70252W        W36683  22.864  17.031   0.104
70253W        W36684  10.064  27.041   5.008
70254W        W36685  26.477  28.483   4.798
70255W        W36686  13.646  12.826  12.484
70256W        W36687   4.763  28.639  13.524
70257W        W36688  38.966  24.704  10.043
70258W        W36689  27.637  12.644   3.124
70259W        W36690   5.469  24.693  12.867
70260W        W36691  19.724  43.710   1.389
70261W        W36692   0.752  40.875  13.898
70262W        W36693   9.167  39.729   1.895
70263W        W36694  13.153  20.130  11.307
70264W        W36695   8.424  40.478  11.403
70265W        W36696  24.124  12.171   3.322
70266W        W36697  21.422  40.747  13.969
70267W        W36698  38.897   7.080   3.273
70268W        W36699  14.836  32.860  11.429
70269W        W36700  22.279  25.890  11.182
70270W        W36701  35.861   7.381  11.112
70271W        W36702   6.333  32.630   4.664
70272W        W36703  20.817  21.584   2.214
70273W        W36704  32.652  17.296  12.158
70274W        W36705  41.555  21.677  12.046
70275W        W36706  22.651  44.168  10.674
70276W        W36707  18.353  23.499  12.827
70277W        W36708  37.695  42.457  12.025
70278W        W36709  18.859  15.569   5.432
70279W        W36710  44.130   8.566   5.101
70280W        W36711  14.083  11.648   2.178
70281W        W36712  10.995  22.470  10.176
70282W        W36713   1.007  24.294  14.320
70283W        W36714   1.938  41.450   0.304
70284W        W36715   2.283  23.515  14.219
70285W        W36716  19.735  14.583  14.287
70286W        W36717   2.237  25.080   3.232
70287W        W36718   8.798  10.628  11.842
70288W        W36719  28.958  22.150   0.349
70289W        W36720   8.285  24.312   2.218
70290W        W36721  37.242  25.767   0.419
70291W        W36722  21.212  14.163  10.780
70292W        W36723  16.210  35.829  10.959
70293W        W36724  10.870  24.013   2.736
70294W        W36725   2.277  17.702  10.940
70295W        W36726   7.833  12.302   4.669
70296W        W36727  19.501  12.102   2.888
70297W        W36728  22.311  12.050   2.747
70298W        W36729  16.945  14.695   2.189
70299W        W36730  26.151  30.754   1.173
70300W        W36731  24.911  33.859  14.427
70301W        W36732  41.981  17.014   3.895
70302W        W36733   4.958  15.356   0.944
70303W        W36734   8.230  42.559  12.852
70304W        W36735  36.259  29.278  12.999
70305W        W36736  34.631  31.581  14.494
70306W        W36737  17.782  15.347  13.658
70307W        W36738   9.846  27.513   0.199
70308W        W36739   9.808  42.249   3.212
70309W        W36740  25.566  43.641  11.197
70310W        W36741  24.010  44.075  12.491
70311W        W36742  38.533  10.833   3.456
70312W        W36743  12.856  43.441   3.812
70313W        W36744  12.217   9.196  12.369
70314W        W36745  16.458  44.241   3.716
70315W        W36746   2.493  44.263   1.734
70316W        W36747  43.232  30.491  12.579
70317W        W36748   1.270   6.419  11.514
70318W        W36749  11.141  20.326   1.513
70319W        W36750  38.022   6.793  14.483
70320W        W36751  34.093  29.471  13.521
70321W        W36752  12.565  30.733   0.331
70322W        W36753  10.716  40.031  10.960
70323W        W36754   1.825  22.633   4.605
70324W        W36755  22.773   8.598  10.233
70325W        W36756  26.414  27.944  10.767
70326W        W36757  39.537  22.203  11.597
70327W        W36758  35.802  29.448   3.222
70328W        W36759  13.285   3.281   2.798
70329W        W36760  25.189  27.568  11.612
70330W        W36761  29.501  34.458   3.199
70331W        W36762  17.080  26.683   2.347
70332W        W36763  39.805  10.572   2.605
70333W        W36764  34.688  19.111  14.795
70334W        W36765  34.610  41.522   3.555
70335W        W36766   3.135  40.290  11.124
70336W        W36767  32.856  25.682   1.845
70337W        W36768   3.207  13.210   4.487
70338W        W36769  19.814  25.841   3.225
70339W        W36770   1.555   0.174  11.004
70340W        W36771   5.386  29.835   1.377
70341W        W36772  15.659  10.900  10.445
70342W        W36773  24.650  30.119   2.870
70343W        W36774  10.120  41.035   0.928
70344W        W36775  15.174  41.869  13.931
70345W        W36776  12.182  27.332  10.302
70346W        W36777  39.306   5.897   1.245
70347W        W36778  44.875  38.443   3.247
70348W        W36779  11.679  17.330   0.782
70349W        W36780  22.245   9.305   2.222
70350W        W36781  14.727  39.827   0.655
70351W        W36782  30.490  36.045   1.688
70352W        W36783   0.221  25.721  12.209
70353W        W36784   0.809  34.780  14.946
70354W        W36785  18.785  34.773  12.640
70355W        W36786  36.343  16.998  11.555
70356W        W36787  31.989  40.403  12.349
70357W        W36788   1.203  12.322  12.090
70358W        W36789  10.725  38.081   2.668
70359W        W36790  26.012  20.840   4.677
70360W        W36791  34.149  18.727   2.362
70361W        W36792  13.712  13.880   3.880
70362W        W36793   4.887   6.469   4.506
70363W        W36794  39.448   1.376  14.880
70364W        W36795   3.299  13.230  11.140
70365W        W36796   2.907   1.217   0.516
70366W        W36797  12.873  16.829  13.088
70367W        W36798  14.065  38.843  11.617
70368W        W36799  23.036  10.195  10.562
70369W        W36800   9.431   4.241  10.568
70370W        W36801  26.805  19.255   3.844
70371W        W36802  16.438  18.607  11.932
70372W        W36803   5.289   6.885  10.719
70373W        W36804  26.813  21.522  10.132
70374W        W36805  38.761  24.913  14.975
70375W        W36806  14.521  36.371  13.007
70376W        W36807  30.329  42.476  13.911
70377W        W36808  24.411  23.204   3.355
70378W        W36809  34.043  32.539   0.026
70379W        W36810  17.574  43.942  10.581
70380W        W36811  21.081  10.888  12.292
70381W        W36812  24.934  34.388  14.385
70382W        W36813   8.256  31.415  14.555
70383W        W36814   4.898  30.417   4.402
70384W        W36815  31.032   8.222   3.640
70385W        W36816  32.947  10.919   4.509
70386W        W36817  19.335  22.585  11.285
70387W        W36818  33.342  17.150   3.140
70388W        W36819  29.582  35.958  14.251
70389W        W36820  11.235  44.514  14.905
70390W        W36821   1.569  26.595   2.269
70391W        W36822   6.745  23.489  12.962
70392W        W36823  42.762  19.190  10.836
70393W        W36824  29.487  35.966  10.685
70394W        W36825   6.651   3.926  14.408
70395W        W36826   3.223  29.662  12.984
70396W        W36827  11.332  43.563  10.739
70397W        W36828  10.629   9.241   4.082
70398W        W36829   1.437  25.589  12.800
70399W        W36830  36.354  35.506   4.849
70400W        W36831  43.480   0.131  11.039
70401W        W36832  44.013   7.665  13.541
70402W        W36833  21.458  15.207   3.720
70403W        W36834  22.532  24.005   4.012
70404W        W36835  13.070  29.079  14.878
70405W        W36836  19.210   3.456  14.712
70406W        W36837  21.654  42.475   1.941
70407W        W36838  37.542  27.616   2.912
70408W        W36839  27.063  16.127   0.392
70409W        W36840  21.669  30.428  13.873
70410W        W36841  10.780   4.814  12.390
70411W        W36842  13.404  31.099  14.961
70412W        W36843  30.585  33.766   1.275
70413W        W36844  37.974   3.455   2.876
70414W        W36845   6.558  39.421  11.156
70415W        W36846  10.455  36.529  14.351
70416W        W36847  16.129  12.670   4.341
70417W        W36848  39.527  23.087   4.609
70418W        W36849  22.609  41.579  10.288
70419W        W36850  28.066  30.717   3.594
70420W        W36851  41.579  32.924   4.080
70421W        W36852   7.389   3.134  13.134
70422W        W36853  37.334  12.102   1.910
70423W        W36854  43.467   6.346   1.870
70424W        W36855   8.670  25.524   4.125
70425W        W36856   8.934  35.126  11.642
70426W        W36857   7.491  30.143  14.920
70427W        W36858   1.880  32.066  11.227
70428W        W36859  22.747  13.453  12.044
70429W        W36860  41.209  30.133  12.057
70430W        W36861  27.865   9.860  10.841
70431W        W36862  22.312  41.908   2.208
70432W        W36863  39.001   3.273  10.913
70433W        W36864  12.356  26.907  13.941
70434W        W36865   9.524  38.944   3.860
70435W        W36866  42.695  32.724   4.032
70436W        W36867  25.017  20.683   1.908
70437W        W36868  29.208   2.389  13.425
70438W        W36869  31.564  24.516  11.174
70439W        W36870  41.568  40.263   1.180
70440W        W36871  10.692  10.329  14.820
70441W        W36872   7.154  37.050  14.883
70442W        W36873  21.361  17.015   4.951
70443W        W36874  21.021  34.138   0.424
70444W        W36875  22.473  42.841  11.332
70445W        W36876   0.545  33.629   4.465
70446W        W36877  11.276  36.260  10.958
70447W        W36878   6.501  35.657   0.072
70448W        W36879  18.252   4.146   3.180
70449W        W36880  18.648  17.685  13.280
70450W        W36881  29.932  32.568  14.744
70451W        W36882  28.349  25.367   0.043
70452W        W36883  23.723  32.007   4.987
70453W        W36884  34.658  28.268   4.125
70454W        W36885  16.569  30.959  11.674
70455W        W36886  32.410  11.278   3.872
70456W        W36887  29.647  34.486  13.194
70457W        W36888  20.238  19.084  10.673
70458W        W36889  15.979  22.971  10.215
70459W        W36890   3.913  43.309   3.231
70460W        W36891  36.385   9.199   3.838
70461W        W36892  17.337  36.549   2.340
70462W        W36893  43.527  22.069   4.479
70463W        W36894  40.055   1.028  12.161
70464W        W36895   3.288  17.560   2.792
70465W        W36896   5.265  41.964   3.939
70466W        W36897   6.203  26.764   4.572
70467W        W36898  14.645  43.719  12.573
70468W        W36899  34.297  14.176  10.755
70469W        W36900  16.770  18.676   4.258
70470W        W36901  22.587   3.046  11.609
70471W        W36902  11.796  43.429  12.045
70472W        W36903   8.692  22.817   0.808
70473W        W36904  41.132   9.640   4.402
70474W        W36905   9.429   7.707  12.435
70475W        W36906  18.090   3.809  13.411
70476W        W36907  35.168   4.636  14.120
70477W        W36908   6.923  12.539   3.910
70478W        W36909   4.341  16.690  14.495
70479W        W36910  31.435   9.703  10.742
70480W        W36911  36.367  16.463   2.549
70481W        W36912  44.342  27.151  11.420
70482W        W36913  14.614  22.451  11.916
70483W        W36914  15.387  36.347   2.300
70484W        W36915  37.888  38.734  14.030
70485W        W36916  13.805  42.751  12.082
70486W        W36917  11.372  42.820  10.131
70487W        W36918   8.506  35.685  12.058
70488W        W36919   2.418  36.613  12.020
70489W        W36920  11.048   2.538  12.381
70490W        W36921  23.213  38.314   2.697
70491W        W36922  29.040  36.118   0.898
70492W        W36923  22.913  11.113  12.129
70493W        W36924  27.562  23.549   1.185
70494W        W36925  26.676   5.219  12.710
70495W        W36926  12.578  24.909  10.352
70496W        W36927   9.188  12.645   2.773
70497W        W36928   6.651   1.393  12.030
70498W        W36929  32.711   0.921  13.407
70499W        W36930   7.099  14.581  10.326
70500W        W36931  15.690   2.638   0.711
70501W        W36932  31.676  31.764   0.460
70502W        W36933  21.720  33.099  12.622
70503W        W36934  36.677  30.533   2.420
70504W        W36935  22.059  18.771  12.047
70505W        W36936  39.840  25.568   1.919
70506W        W36937  38.493  17.077   4.549
70507W        W36938   9.805   5.991  10.607
70508W        W36939  14.590  42.424   4.308
70509W        W36940  30.765   2.408   2.814
70510W        W36941  12.364  34.472  11.630
70511W        W36942   6.784  20.978   4.899
70512W        W36943   7.145  40.591  12.956
70513W        W36944   1.757  15.414   2.298
70514W        W36945  33.445  35.687  13.415
70515W        W36946  22.430  14.448   1.844
70516W        W36947  16.169  10.486  11.515
70517W        W36948  21.785  34.991  14.410
70518W        W36949  13.698  33.969   2.193
70519W        W36950  10.221   2.101  13.521
70520W        W36951  15.788  33.136  10.183
70521W        W36952  35.041  16.533  13.856
70522W        W36953  36.649  42.469   2.322
70523W        W36954  13.842  39.531   1.293
70524W        W36955  30.600  38.682   0.051
70525W        W36956  25.033  36.973   0.478
70526W        W36957  39.942  31.406  10.746
70527W        W36958  39.261  44.168   2.332
70528W        W36959  33.612  44.791  12.426
70529W        W36960  11.279  38.944  12.951
70530W        W36961  27.225  43.526   0.913
70531W        W36962  18.609  10.275   5.026
70532W        W36963  30.720  37.394  14.023
70533W        W36964  39.361  33.644  10.412
70534W        W36965  38.163  24.300  11.707
70535W        W36966  32.423  23.292   2.942
70536W        W36967  18.853  33.538  14.899
70537W        W36968  33.435  43.264   3.636
70538W        W36969  19.663  44.028  11.686
70539W        W36970  43.629   3.380  10.727
70540W        W36971  18.605   5.904  14.491
70541W        W36972  22.084  33.578  11.980
70542W        W36973   7.270   5.245  10.597
70543W        W36974  20.055  16.172  14.487
70544W        W36975   3.719  34.056   0.249
70545W        W36976  14.028  11.275  11.229
70546W        W36977  35.373  34.213  13.275
70547W        W36978   0.761  39.962  12.549
70548W        W36979  29.171  39.100  10.639
70549W        W36980  14.078  12.549  12.571
70550W        W36981  20.231  24.992  12.431
70551W        W36982  32.102  17.533  14.770
70552W        W36983  10.245  42.285  14.800
70553W        W36984  26.578  22.151   3.581
70554W        W36985  14.358  27.479   3.126
70555W        W36986  43.202   7.287  11.547
70556W        W36987  28.686  11.943   3.834
70557W        W36988  35.563  37.900   1.572
70558W        W36989  19.656  15.369   3.172
70559W        W36990  22.511  11.694  13.362
70560W        W36991  14.783  16.942   2.776
70561W        W36992  29.931   8.604  11.738
70562W        W36993   4.007  39.902   0.008
70563W        W36994  28.204  34.577   0.001
70564W        W36995  22.809  40.988   0.063
70565W        W36996  21.206  12.635   0.508
70566W        W36997  39.888  16.568   2.397
70567W        W36998  23.024  22.501  12.474
70568W        W36999  34.486  23.928  11.445
70569W        W37000  34.267  34.245   5.838
70570W        W37001  34.479  10.758  14.879
70571W        W37002  27.293  28.750  10.951
70572W        W37003  29.272  36.586   0.985
70573W        W37004  44.636  15.623   2.781
70574W        W37005   0.419   3.228   4.755
70575W        W37006  41.730  17.086  13.336
70576W        W37007   0.961  23.260   0.981
70577W        W37008  17.357  34.166  11.040
70578W        W37009  41.929  26.545  10.344
70579W        W37010  16.307  19.041   1.246
70580W        W37011  25.012  26.717  11.576
70581W        W37012  10.062  22.249  13.171
70582W        W37013  25.271   5.088  14.243
70583W        W37014  28.411  37.829  10.970
70584W        W37015  22.593  33.966  14.455
70585W        W37016  23.916  39.516   0.904
70586W        W37017  30.597  25.423  14.498
70587W        W37018  26.866   8.142  12.059
70588W        W37019  14.561   5.788  14.093
70589W        W37020  21.995  13.174  12.491
70590W        W37021  30.365  28.555   0.343
70591W        W37022   3.773   0.879   4.589
70592W        W37023   7.237   8.630  13.818
70593W        W37024   2.160  25.756  14.726
70594W        W37025  11.913  25.574   0.223
70595W        W37026   6.145  16.849   3.108
70596W        W37027  18.795  20.202  12.123
70597W        W37028  23.048  17.061   0.597
70598W        W37029   3.240   2.790   0.764
70599W        W37030  18.472   9.114   0.388
70600W        W37031  44.245  30.697   2.247
70601W        W37032  25.443  33.126  14.760
70602W        W37033  30.565   8.321  13.431
70603W        W37034   6.475  33.976  12.843
70604W        W37035  20.862   9.642   1.752
70605W        W37036   9.639   4.745   4.726
70606W        W37037  38.558  21.473   2.370
70607W        W37038   9.734   6.585  12.726
70608W        W37039  12.066  24.942   4.546
70609W        W37040   1.856  30.673  11.828
70610W        W37041   1.194  29.445   1.447
70611W        W37042  25.904  23.667   2.326
70612W        W37043   5.321  32.380   0.204
70613W        W37044  33.998  28.900   3.484
70614W        W37045   8.185  31.462   1.999
70615W        W37046  18.279   3.495  11.096
70616W        W37047  32.074   1.036   0.104
70617W        W37048   3.914  43.865  14.871
70618W        W37049   0.249  19.293   3.227
70619W        W37050  37.869  24.225  12.126
70620W        W37051   8.134  21.106  13.484
70621W        W37052  43.289  39.089  13.057
70622W        W37053  40.411  41.643   2.239
70623W        W37054   7.479   4.093  10.658
70624W        W37055  42.811  34.080  13.635
70625W        W37056  36.628   9.357   0.505
70626W        W37057  30.508  43.755   1.891
70627W        W37058  35.526  37.423   3.892
70628W        W37059  22.029  15.303   0.301
70629W        W37060   5.291   5.674  11.431
70630W        W37061   8.760  17.096  10.965
70631W        W37062   3.988  23.006  12.520
70632W        W37063   5.233  16.744  11.398
70633W        W37064  26.246  19.061  13.306
70634W        W37065  11.204  14.669   0.480
70635W        W37066   6.378   3.202  13.388
70636W        W37067   6.278  21.129  14.722
70637W        W37068   9.812  16.306   2.154
70638W        W37069  19.599  17.761  10.393
70639W        W37070   9.134  10.566  11.462
70640W        W37071  19.699   9.690   0.377
70641W        W37072  44.499  27.105  10.537
70642W        W37073  38.024  13.773   1.523
70643W        W37074  39.286  43.832   4.546
70644W        W37075   9.179  27.123   0.701
70645W        W37076   3.818  17.748  14.417
70646W        W37077   2.502   4.723  10.974
70647W        W37078  36.392  41.770   0.815
70648W        W37079   8.635  44.482  13.016
70649W        W37080  24.264  22.440  10.994
70650W        W37081   5.693  36.007   1.822
70651W        W37082  14.712  21.156  11.252
70652W        W37083  17.140  43.426   3.146
70653W        W37084   7.235  41.887  14.528
70654W        W37085  42.063  43.213   4.263
70655W        W37086  24.221   5.872   3.060
70656W        W37087  33.682  11.274   4.125
70657W        W37088  41.791  33.189  13.032
70658W        W37089   5.286  14.231  11.538
70659W        W37090  21.107  29.535   1.400
70660W        W37091  27.970  16.003  14.501
70661W        W37092  31.612  28.124  10.528
70662W        W37093  39.113  27.549   3.108
70663W        W37094  21.414  27.545   0.769
70664W        W37095  17.013  31.555   2.160
70665W        W37096  40.420  25.147   1.209
70666W        W37097  35.542  15.312   3.299
70667W        W37098  20.587  20.307  10.662
70668W        W37099   8.978  38.379  13.789
70669W        W37100  36.531  42.515  10.639
70670W        W37101  27.016  25.514  12.535
70671W        W37102   6.722  40.397   0.590
70672W        W37103   5.894   5.212   2.196
70673W        W37104  35.890   5.699   3.649
70674W        W37105  35.353  36.494   3.114
70675W        W37106  19.659   4.717   4.444
70676W        W37107  24.517  40.810   1.202
70677W        W37108   4.058  41.157  12.346
70678W        W37109  42.552  15.550   0.789
70679W        W37110  11.168   6.504  14.436
70680W        W37111   0.003  22.677  14.071
70681W        W37112  32.830  37.824   0.406
70682W        W37113   1.448  19.401  14.302
70683W        W37114  28.368  42.719   2.752
70684W        W37115  13.893  27.064   0.969
70685W        W37116   2.527   3.516   1.449
70686W        W37117  14.742  34.844   3.164
70687W        W37118  25.287  33.526  13.834
70688W        W37119  27.444  16.351   4.297
70689W        W37120   7.464  15.822   1.436
70690W        W37121  20.073  18.668  13.286
70691W        W37122  21.189  30.969  13.352
70692W        W37123  18.848  44.807  13.906
70693W        W37124  17.342  34.889   1.269
70694W        W37125  37.729  16.842   2.307
70695W        W37126  26.456   5.198   9.796
70696W        W37127  42.078  36.458   0.548
70697W        W37128  40.525  14.869   4.525
70698W        W37129  33.815  44.024   2.419
70699W        W37130   3.627  44.215   2.565
70700W        W37131  23.059  19.170   2.417
70701W        W37132   9.076  26.647  11.705
70702W        W37133  11.294  10.453   4.745
70703W        W37134  30.696  29.914  12.824
70704W        W37135  19.981  33.292  11.537
70705W        W37136   9.453  14.783  14.373
70706W        W37137  19.166  26.542  12.182
70707W        W37138  41.841  22.223  12.964
70708W        W37139   4.414  31.680  11.413
70709W        W37140  37.069   4.306  14.308
70710W        W37141   5.920  32.689   1.341
70711W        W37142  40.064   2.666  10.950
70712W        W37143  32.066  35.664  14.935
70713W        W37144   7.484  15.145   2.700
70714W        W37145  19.477   6.959   2.886
70715W        W37146   3.290  25.798  14.864
70716W        W37147  41.797  18.767   0.518
70717W        W37148  15.687  23.751  13.548
70718W        W37149  11.042  18.762  10.981
70719W        W37150   5.248  43.004  10.405
70720W        W37151  35.845  16.081   3.194
70721W        W37152  18.309  30.764   4.336
70722W        W37153  27.545  33.018   4.948
70723W        W37154  18.445  35.568   2.297
70724W        W37155  37.487  40.429  13.448
70725W        W37156  18.546  25.324  14.792
70726W        W37157  43.831  43.013   3.694
70727W        W37158   4.540   9.647   2.792
70728W        W37159  43.782   7.296  11.570
70729W        W37160  13.673   8.608   1.939
70730W        W37161  44.502  27.071  13.735
70731W        W37162  19.648  37.933  12.505
70732W        W37163  31.962  33.029  13.231
70733W        W37164  36.379  44.606  12.962
70734W        W37165  33.678  16.335  13.807
70735W        W37166  14.595  43.344   2.189
70736W        W37167   6.429  43.165   3.681
70737W        W37168  37.029   8.958  10.221
70738W        W37169  10.164  24.591  12.191
70739W        W37170  11.417  13.385   0.508
70740W        W37171  16.641  23.277  12.889
70741W        W37172  14.321  42.501   2.203
70742W        W37173  33.923  14.208  11.111
70743W        W37174  16.807  26.546   4.138
70744W        W37175  40.640  11.799  13.559
70745W        W37176  36.913  31.502   4.004
70746W        W37177  43.285  21.822  14.311
70747W        W37178  14.750  15.171  13.874
70748W        W37179  14.091  25.125   2.361
70749W        W37180  12.681  24.902   2.301
70750W        W37181  36.290  37.957   0.708
70751W        W37182  11.282  14.097  13.876
70752W        W37183  10.665  31.887  11.744
70753W        W37184  24.126  14.115  11.539
70754W        W37185   7.190   9.358  10.592
70755W        W37186  39.650  32.268  10.396
70756W        W37187  37.111  21.063  13.448
70757W        W37188  17.107  10.773   4.071
70758W        W37189  31.051   8.467   1.750
70759W        W37190   5.911  31.432   0.976
70760W        W37191  35.761  43.063   1.179
70761W        W37192  24.056  26.229   1.191
70762W        W37193  10.210  15.070  13.730
70763W        W37194  26.625  20.992  12.373
70764W        W37195   4.120  22.004  13.933
70765W        W37196  23.497  11.834  11.121
70766W        W37197  40.936   5.668   2.771
70767W        W37198  30.614  25.125   3.321
70768W        W37199  38.009  40.603   4.380
70769W        W37200  23.473  16.789  11.537
70770W        W37201  21.891  16.651  10.690
70771W        W37202  21.208  44.246   3.777
70772W        W37203  15.766  34.564  14.512
70773W        W37204   2.333   8.094   3.922
70774W        W37205  30.306  16.486  10.909
70775W        W37206  20.152  37.628   0.960
70776W        W37207  10.362  18.221  12.251
70777W        W37208  25.500   1.310  13.368
70778W        W37209  33.215  13.568   2.773
70779W        W37210  39.901  27.285   4.629
70780W        W37211  22.326  38.598   0.709
70781W        W37212  32.142  30.603  12.089
70782W        W37213  11.122  30.552  11.942
70783W        W37214  32.055  20.326   4.157
70784W        W37215  34.979  39.346  11.605
70785W        W37216  19.700  20.988   4.542
70786W        W37217  35.316  12.806  12.966
70787W        W37218  21.720  22.261  12.896
70788W        W37219  34.120   4.128  14.929
70789W        W37220  20.324  29.557  13.387
70790W        W37221  32.900  32.402   4.612
70791W        W37222   5.009  20.648   2.691
70792W        W37223  20.300  33.821   0.916
70793W        W37224  21.856  33.701  12.946
70794W        W37225  10.265  11.707  11.848
70795W        W37226  25.528   5.584   3.457
70796W        W37227  42.532  15.066  13.998
70797W        W37228  35.074  12.344  14.691
70798W        W37229  13.768  41.496  10.676
70799W        W37230  20.982  31.132   4.477
70800W        W37231  40.261  22.671   3.506
70801W        W37232  22.906  43.230   2.769
70802W        W37233  40.320   9.678  11.714
70803W        W37234  42.584  39.804  12.483
70804W        W37235   7.613  34.353   3.657
70805W        W37236  36.610  31.882  13.845
70806W        W37237   5.404   0.045  11.622
70807W        W37238  42.873   3.789  11.274
70808W        W37239  20.026   5.640   0.428
70809W        W37240  25.216  38.270   4.705
70810W        W37241  15.703  32.489   1.411
70811W        W37242  17.505  19.768  11.341
70812W        W37243  39.992   7.403  14.563
70813W        W37244  37.601  14.066   1.765
70814W        W37245  30.938  37.079   1.229
70815W        W37246  44.357  24.196  11.586
70816W        W37247  14.378  13.658   4.978
70817W        W37248  20.944  35.222  11.012
70818W        W37249  26.361   1.375  14.439
70819W        W37250  14.037  14.840  14.124
70820W        W37251  17.277  20.285   0.876
70821W        W37252   7.371  40.779   4.351
70822W        W37253  35.971  38.858  11.548
70823W        W37254  16.580   8.348   4.725
70824W        W37255  30.995  27.499   3.904
70825W        W37256  15.713  21.262   0.283
70826W        W37257  11.178   4.782   4.358
70827W        W37258  14.756  11.825   3.144
70828W        W37259   2.460   1.217  11.959
70829W        W37260  19.748  22.246   0.220
70830W        W37261  44.334  44.428   3.265
70831W        W37262  43.468  41.983  11.292
70832W        W37263   8.310  13.061   3.911
70833W        W37264   2.383  28.140   0.262
70834W        W37265  15.157  29.185   2.200
70835W        W37266  37.685  22.484   4.497
70836W        W37267   3.239   1.589  10.497
70837W        W37268   8.220  36.784  12.439
70838W        W37269  15.704  27.007  14.078
70839W        W37270   8.965   0.476  14.844
70840W        W37271  32.719  13.641   2.696
70841W        W37272  33.026  34.650  13.040
70842W        W37273  33.445  28.149  10.480
70843W        W37274  15.599  35.814   3.656
70844W        W37275  23.316   1.195  11.698
70845W        W37276   6.105  42.763  13.544
70846W        W37277  35.343  15.820   4.989
70847W        W37278  41.421  33.885  14.095
70848W        W37279  27.521  38.597  13.880
70849W        W37280  22.133  16.247  11.414
70850W        W37281  41.503  26.068   2.839
70851W        W37282  38.430  16.234  13.593
70852W        W37283  13.043  44.293   4.877
70853W        W37284   3.158  33.265   5.346
70854W        W37285  26.045  30.944   0.681
70855W        W37286  40.428  19.957   2.819
70856W        W37287  40.401  24.661  13.469
70857W        W37288   3.152  25.639  11.219
70858W        W37289  21.494  37.944  12.402
70859W        W37290  20.491  14.503   4.286
70860W        W37291  29.689  31.165   3.641
70861W        W37292  10.118  40.516   4.291
70862W        W37293  39.871  22.864   3.230
70863W        W37294  33.429  27.185   0.667
70864W        W37295  31.156  39.945   3.626
70865W        W37296  17.544  14.718  11.253
70866W        W37297  40.055  12.538   1.812
70867W        W37298   1.075  16.850  13.024
70868W        W37299  44.854  37.434   0.634
70869W        W37300   5.712  44.940   3.288
70870W        W37301  22.446  23.010  11.564
70871W        W37302   4.427  26.969  14.467
70872W        W37303  25.873  40.310  10.626
70873W        W37304  40.294   1.604  13.565
70874W        W37305  30.466   4.907   0.246
70875W        W37306  14.783  26.824  10.474
70876W        W37307  11.582  42.964  12.988
70877W        W37308  29.279  27.468   3.241
70878W        W37309  16.538  14.559  14.235
70879W        W37310   0.707  25.532   0.832
70880W        W37311  43.040  15.597   4.749
70881W        W37312   9.750  27.623   1.239
70882W        W37313  43.783  37.488  14.191
70883W        W37314  11.484  34.982   2.008
70884W        W37315  34.447  35.489   3.668
70885W        W37316  37.270  18.848   1.262
70886W        W37317  39.083   1.527  14.128
70887W        W37318  21.594  44.762   2.235
70888W        W37319  22.001  37.905   2.890
70889W        W37320  13.754  38.277   3.235
70890W        W37321   7.428  25.796  10.628
70891W        W37322  15.220   6.143   0.490
70892W        W37323  15.318  27.308  11.072
70893W        W37324  44.738  29.159   2.258
70894W        W37325  20.988   7.259  14.377
70895W        W37326  21.493  29.103   0.340
70896W        W37327   3.970  36.527  14.362
70897W        W37328   3.765  30.846   1.881
70898W        W37329  12.249   7.662   4.206
70899W        W37330  13.268  10.881   4.587
70900W        W37331  33.984  34.158  12.931
70901W        W37332  18.541  20.503  14.054
70902W        W37333  30.937  13.060   1.780
70903W        W37334   8.177   2.907  14.542
70904W        W37335  25.450  20.495  11.915
70905W        W37336   9.229  11.677  12.831
70906W        W37337  44.219   2.128  11.001
70907W        W37338  16.550  44.796  11.500
70908W        W37339   1.497   0.418  12.795
70909W        W37340  30.116   4.776  14.812
70910W        W37341  18.734  38.304   2.851
70911W        W37342  28.656  15.105   2.438
70912W        W37343  24.205  26.844   2.473
70913W        W37344  15.109  24.799  14.663
70914W        W37345  27.598  10.901  14.386
70915W        W37346  28.373  35.867   0.168
70916W        W37347   8.348  17.540   1.875
70917W        W37348  39.052  43.303  13.250
70918W        W37349   0.116  18.083  14.234
70919W        W37350  36.365  17.072   0.690
70920W        W37351  13.881  24.382   1.858
70921W        W37352  43.475  24.556   0.807
70922W        W37353  38.389  33.164   1.140
70923W        W37354  33.960  36.097  11.418
70924W        W37355  44.038  39.078  12.968
70925W        W37356  37.688  37.354   4.611
70926W        W37357  18.095  37.995   4.808
70927W        W37358  34.620   5.680  10.541
70928W        W37359  12.186  10.797  11.201
70929W        W37360  15.048  21.646   3.392
70930W        W37361   4.945  27.675  14.620
70931W        W37362   4.866   2.788   1.018
70932W        W37363  35.454  30.590   0.741
70933W        W37364  14.726  43.321   4.775
70934W        W37365  30.631  31.175  11.211
70935W        W37366  40.571   2.114   0.470
70936W        W37367  26.769  20.563   2.343
70937W        W37368  37.727  43.158   3.692
70938W        W37369   6.135  37.604  11.939
70939W        W37370  29.373  12.085   2.024
70940W        W37371  10.994  12.157   2.867
70941W        W37372   1.683  35.026   1.734
70942W        W37373  33.743  13.794  12.954
70943W        W37374   8.194  18.709  12.972
70944W        W37375  16.417  23.594  13.811
70945W        W37376  21.970  15.669   4.656
70946W        W37377   5.590  40.171   4.967
70947W        W37378  32.079   4.745   3.155
70948W        W37379  27.525  42.154  11.146
70949W        W37380  44.355  32.875   1.595
70950W        W37381  40.335  27.841   3.600
70951W        W37382   1.789   3.377  12.993
70952W        W37383  35.618  12.829  10.670
70953W        W37384  39.996   2.155  10.972
70954W        W37385  37.977  15.751  10.087
70955W        W37386  40.929  40.021  10.325
70956W        W37387  28.416   6.282  12.906
70957W        W37388  37.049  32.701   3.363
70958W        W37389  42.373  15.305   1.215
70959W        W37390  40.537  18.789   4.162
70960W        W37391  11.951  35.535  12.948
70961W        W37392  10.378   1.998  11.980
70962W        W37393  23.466   7.817   0.965
70963W        W37394  26.090  16.577   1.704
70964W        W37395  42.773  20.562   3.221
70965W        W37396  30.114  13.150   0.454
70966W        W37397  41.367  29.093  13.280
70967W        W37398  21.374  37.193   9.658
70968W        W37399   2.798  22.493  11.350
70969W        W37400  18.456  32.140  11.640
70970W        W37401   5.712  26.060  11.218
70971W        W37402  25.262  19.870   1.891
70972W        W37403  38.842  23.366   4.212
70973W        W37404  32.833  37.996   4.648
70974W        W37405  34.380   6.944   2.731
70975W        W37406   4.137  28.482   0.231
70976W        W37407  34.298   7.444  13.396
70977W        W37408  36.551   8.918   0.793
70978W        W37409  24.431  10.810  12.795
70979W        W37410  19.695   5.821   1.392
70980W        W37411  41.304  40.402  10.454
70981W        W37412  23.777  15.412  11.888
70982W        W37413  16.159  42.210   3.730
70983W        W37414  17.202  17.382  12.978
70984W        W37415  39.888   2.432  10.536
70985W        W37416  28.061  39.990  10.758
70986W        W37417  17.304  31.347   0.670
70987W        W37418  15.450  15.172  13.990
70988W        W37419  31.451  10.440   4.857
70989W        W37420  17.183  25.104  14.228
70990W        W37421  25.163  44.007  12.490
70991W        W37422   5.729  22.674   3.764
70992W        W37423   9.393  31.945  14.056
70993W        W37424   6.996  17.313   0.026
70994W        W37425  14.471   8.892   9.971
70995W        W37426   7.130   3.536  12.929
70996W        W37427   3.157  43.837   3.742
70997W        W37428  36.597  33.798   1.441
70998W        W37429  23.607  33.137  11.591
70999W        W37430  29.642  25.548  14.114
71000W        W37431   6.922  27.447  11.473
71001W        W37432  41.391   0.726  10.967
71002W        W37433  42.003  20.825   4.086
71003W        W37434  19.420  38.104   4.996
71004W        W37435  37.781  11.831   1.807
71005W        W37436  24.334  42.795   2.980
71006W        W37437  35.116  29.618   2.151
71007W        W37438  24.879  36.279  12.484
71008W        W37439   1.448  27.954   3.650
71009W        W37440   3.940  38.832  14.336
71010W        W37441  43.905  13.217  14.084
71011W        W37442  42.442  15.219  13.505
71012W        W37443  32.811  41.260   2.326
71013W        W37444  40.903  38.354   2.735
71014W        W37445  41.998  27.250  14.639
71015W        W37446  14.282  42.475   2.707
71016W        W37447  30.470  44.829  14.613
71017W        W37448  35.845  14.763  14.388
71018W        W37449  36.331   1.088   3.682
71019W        W37450  13.788  35.941  10.602
71020W        W37451   0.055  28.775  13.880
71021W        W37452   4.000  37.054   3.542
71022W        W37453  30.093  28.121  12.871
71023W        W37454  37.351   5.459  11.400
71024W        W37455  18.058  30.620  12.557
71025W        W37456  13.145  21.663   0.055
71026W        W37457  27.929  44.537  11.116
71027W        W37458  12.746  31.426  14.292
71028W        W37459  35.019  16.968  11.663
71029W        W37460  23.773  29.054  11.926
71030W        W37461  28.576  35.589  10.742
71031W        W37462  11.585  34.014  10.478
71032W        W37463  43.822  19.860  13.398
71033W        W37464  29.241  32.925  12.206
71034W        W37465  14.360  26.594   3.254
71035W        W37466   1.954  23.352  11.683
71036W        W37467  40.834  10.850  12.029
71037W        W37468  40.270  31.138  14.122
71038W        W37469  20.803  31.178   2.715
71039W        W37470  10.676  27.408  13.350
71040W        W37471  44.936  27.149  14.301
71041W        W37472  15.964  36.851  11.998
71042W        W37473  24.125  25.386  10.989
71043W        W37474   8.089  30.015   2.153
71044W        W37475   0.771  13.801  11.245
71045W        W37476   5.956  44.573  12.038
71046W        W37477   5.991   3.611   1.695
71047W        W37478  20.207  27.389   4.735
71048W        W37479   0.464  23.639  12.248
71049W        W37480   2.404   8.904  13.366
71050W        W37481   9.005  10.410  13.481
71051W        W37482   2.993   4.714   0.278
71052W        W37483  16.250  43.279  13.004
71053W        W37484   0.508  39.397  12.035
71054W        W37485  21.915   4.008  14.029
71055W        W37486  33.593  30.859  13.965
71056W        W37487   3.733  20.280  14.407
71057W        W37488   5.796  11.162  13.584
71058W        W37489  11.161  33.027  11.813
71059W        W37490   5.187  23.561   0.952
71060W        W37491   0.019   8.224   0.236
71061W        W37492  15.719   1.638   3.691
71062W        W37493  18.318   5.846   1.712
71063W        W37494   1.060  41.383   1.977
71064W        W37495  30.516  41.990  13.833
71065W        W37496  32.562  11.138  12.158
71066W        W37497   1.779   2.337   1.377
71067W        W37498   7.286  21.875   4.048
71068W        W37499   4.296  28.857  14.745
71069W        W37500  19.122  36.992  11.719
71070W        W37501  15.579  39.413  11.457
71071W        W37502  29.376  36.259   3.640
71072W        W37503  18.393  30.848  13.930
71073W        W37504  32.547  14.597   0.665
71074W        W37505  11.878   5.880  11.931
71075W        W37506  22.979  34.500   0.857
71076W        W37507  37.317  24.779   3.977
71077W        W37508  28.178  29.538   4.313
71078W        W37509  35.492  30.562   2.708
71079W        W37510  20.655  35.319   4.607
71080W        W37511  23.286  32.785   5.308
71081W        W37512  23.015  44.862  12.132
71082W        W37513   7.531   9.637   2.258
71083W        W37514  25.727  23.133   4.492
71084W        W37515  33.596   6.948   1.745
71085W        W37516   6.755  32.008   1.794
71086W        W37517  21.236  11.899  10.573
71087W        W37518  29.663  38.378   0.664
71088W        W37519  12.619  21.693   4.585
71089W        W37520  17.064  18.608   2.337
71090W        W37521  16.333  35.889  13.400
71091W        W37522  18.245  28.427  12.938
71092W        W37523  24.062  18.118   2.743
71093W        W37524  40.820  32.349   2.698
71094W        W37525   2.572  20.444  11.525
71095W        W37526   8.201  35.207   4.397
71096W        W37527  24.935  11.801   2.398
71097W        W37528   4.695   2.568   4.143
71098W        W37529   6.874   4.891  14.419
71099W        W37530  42.959  21.471   4.149
71100W        W37531  21.676  19.874   0.808
71101W        W37532  17.584  12.727  11.106
71102W        W37533  34.883  31.516  14.962
71103W        W37534  17.070  21.155  12.869
71104W        W37535   6.109  42.857   0.682
71105W        W37536  39.375  30.244  11.165
71106W        W37537  38.313  27.410   0.234
71107W        W37538  43.543   1.745  11.474
71108W        W37539  36.715  43.557   1.719
71109W        W37540  34.919   6.717  11.811
71110W        W37541  16.657  40.697  11.074
71111W        W37542   9.222  38.853   0.849
71112W        W37543  35.913   1.197   1.444
71113W        W37544   7.369  26.502   1.154
71114W        W37545   5.335  10.516   4.170
71115W        W37546  40.588  15.101  13.500
71116W        W37547  36.125  27.966   2.406
71117W        W37548  37.400  32.785   2.632
71118W        W37549  21.845   3.969   3.282
71119W        W37550   3.716  28.603  13.755
71120W        W37551   4.567  41.099  14.043
71121W        W37552  12.808  34.569  10.676
71122W        W37553  10.311  31.091   1.858
71123W        W37554  42.902   7.231  10.660
71124W        W37555   8.430  26.486  14.487
71125W        W37556   0.856  24.371  12.839
71126W        W37557   3.459  12.041   1.260
71127W        W37558   9.087   0.737  10.796
71128W        W37559   3.873  39.833  12.462
71129W        W37560  21.750  30.523  14.363
71130W        W37561  31.906  40.251  10.849
71131W        W37562  22.196   8.249  11.846
71132W        W37563  35.972  39.748  14.365
71133W        W37564  27.110  19.080   2.502
71134W        W37565  15.292  40.715  13.417
71135W        W37566  11.604  17.169   1.700
71136W        W37567  15.772   1.648   2.788
71137W        W37568  12.684  19.643   1.258
71138W        W37569  27.242  25.429  13.035
71139W        W37570  17.810   8.790  14.918
71140W        W37571  17.285  27.160   5.077
71141W        W37572  32.713  41.045  13.484
71142W        W37573  10.858   9.824  14.803
71143W        W37574  13.356  31.109  14.090
71144W        W37575  25.626  21.046  13.979
71145W        W37576  43.069  25.498   0.879
71146W        W37577  42.688  13.337   1.297
71147W        W37578  31.058   1.296   3.005
71148W        W37579  30.052  33.521  12.065
71149W        W37580  41.391  33.617  12.309
71150W        W37581   5.818  17.180   3.326
71151W        W37582   4.974  30.602   0.792
71152W        W37583   9.410   6.914  10.969
71153W        W37584   5.266   5.105  14.558
71154W        W37585   7.634  40.855   1.177
71155W        W37586  43.943  38.291  11.585
71156W        W37587  13.394  14.849  14.910
71157W        W37588  44.173  29.894  14.415
71158W        W37589  25.419  40.512   0.433
71159W        W37590   5.054  33.497  13.401
71160W        W37591  21.935   0.188  11.159
71161W        W37592  17.790  43.105  10.780
71162W        W37593  28.929  34.856   1.121
71163W        W37594  31.179   7.410   3.286
71164W        W37595  35.808   2.489   2.663
71165W        W37596   9.608  41.792  12.558
71166W        W37597   2.072  37.159   0.746
71167W        W37598  12.741  37.894   0.932
71168W        W37599   2.341  42.040   4.320
71169W        W37600  36.259  17.694   5.107
71170W        W37601  37.047   9.426   2.307
71171W        W37602  21.127   3.142  10.331
71172W        W37603  22.086  23.051  13.024
71173W        W37604   9.244  42.344   1.621
71174W        W37605   5.583   3.294   4.727
71175W        W37606  24.442  33.923  10.952
71176W        W37607  24.475  29.893   3.745
71177W        W37608  36.309   2.766   2.683
71178W        W37609  32.616  32.331  14.903
71179W        W37610  15.199  42.155   1.351
71180W        W37611  32.355  16.135   1.668
71181W        W37612  27.637  39.638  12.425
71182W        W37613   8.369  17.860  11.120
71183W        W37614  23.988   3.270   1.016
71184W        W37615  25.559   0.894  11.589
71185W        W37616  42.874   1.383   0.732
71186W        W37617  20.120  44.407   2.923
71187W        W37618  12.183  38.058   0.188
71188W        W37619  33.597  13.136   4.241
71189W        W37620  33.257  10.264   4.442
71190W        W37621  12.231  44.219   2.799
71191W        W37622  32.575   8.944   2.803
71192W        W37623  11.312   5.505   1.702
71193W        W37624  43.925   8.971  12.134
71194W        W37625   8.299  35.424  10.835
71195W        W37626   5.677  15.683   2.629
71196W        W37627  17.713  20.480   2.785
71197W        W37628  18.627   1.680  11.045
71198W        W37629  39.401  40.433  13.104
71199W        W37630   3.844  33.414   3.882
71200W        W37631  10.207  34.352   1.992
71201W        W37632   0.777  21.140   5.001
71202W        W37633  20.036  42.086   2.887
71203W        W37634  30.882  21.230  13.317
71204W        W37635   3.428  43.924  14.687
71205W        W37636   7.327  30.670   3.121
71206W        W37637  42.862   9.899   1.032
71207W        W37638  25.499   0.219  12.091
71208W        W37639   8.424  44.751   0.841
71209W        W37640  38.046  13.216   1.762
71210W        W37641  36.868  10.321  11.637
71211W        W37642  42.451  29.002   0.372
71212W        W37643  25.756  44.467  10.048
71213W        W37644  19.740  43.254   2.541
71214W        W37645  18.383   2.962  12.446
71215W        W37646  44.558  10.271  14.835
71216W        W37647  12.866   1.445   0.267
71217W        W37648  19.710  39.789  11.671
71218W        W37649   2.841  30.482   4.247
71219W        W37650  29.652  33.049  13.026
71220W        W37651   2.310  20.960  13.260
71221W        W37652   8.438   5.286  12.390
71222W        W37653   6.680  16.152   4.297
71223W        W37654  29.598   3.261   3.125
71224W        W37655  21.251   8.212  10.823
71225W        W37656  44.382  20.793  11.530
71226W        W37657   3.417   1.840   4.773
71227W        W37658  12.787  44.695   0.806
71228W        W37659   5.752   7.255   4.673
71229W        W37660  40.315  23.147   3.233
71230W        W37661  30.831  13.805   3.533
71231W        W37662   4.279   1.209  13.399
71232W        W37663  31.309  23.535  14.054
71233W        W37664  39.934   2.437  13.476
71234W        W37665   5.120   4.327  13.916
71235W        W37666  13.055  33.393   4.558
71236W        W37667   5.797  42.562   2.201
71237W        W37668  12.171  42.261   4.332
71238W        W37669  23.710  16.344  13.524
71239W        W37670  32.253  14.854  10.840
71240W        W37671   9.183  43.515  12.196
71241W        W37672  10.094  38.677   2.257
71242W        W37673   2.478  11.388  13.525
71243W        W37674  22.021  18.415   3.869
71244W        W37675   2.791  36.458   0.667
71245W        W37676  34.403  12.068   1.757
71246W        W37677  16.259  32.984   3.608
71247W        W37678  36.264  23.282  14.762
71248W        W37679  24.214  34.782   1.356
71249W        W37680  30.848  15.390  13.052
71250W        W37681   5.713  24.568   1.682
71251W        W37682   6.203   7.219  10.289
71252W        W37683  29.452   1.864  11.635
71253W        W37684   2.563   6.250   3.323
71254W        W37685  28.870  30.427   1.013
71255W        W37686  28.557   5.914   2.493
71256W        W37687   6.494  32.657   2.703
71257W        W37688  25.017   9.926   3.189
71258W        W37689   3.754  11.612  13.931
71259W        W37690  17.568  28.151  14.515
71260W        W37691  26.534   5.915   0.311
71261W        W37692  39.349  44.954  14.239
71262W        W37693  31.378  24.115  14.833
71263W        W37694   9.793  14.818  14.750
71264W        W37695  12.201  17.177   0.868
71265W        W37696  25.138  17.535  12.815
71266W        W37697   2.093  12.266  11.543
71267W        W37698  42.843   8.743   1.973
71268W        W37699  16.665  16.312   3.532
71269W        W37700   1.165   8.199  14.966
71270W        W37701  39.274  39.961  14.359
71271W        W37702   9.993  24.210   1.735
71272W        W37703  18.302  34.590   0.323
71273W        W37704  18.704  42.495   3.168
71274W        W37705  20.840  40.492   0.769
71275W        W37706  30.081  23.226  13.275
71276W        W37707  37.828  43.147   3.052
71277W        W37708  21.593  40.609  10.726
71278W        W37709  23.627  36.321  10.560
71279W        W37710  28.056  13.380  11.914
71280W        W37711  21.738  41.262   1.238
71281W        W37712  19.749  22.258   3.555
71282W        W37713  11.710   5.416   3.843
71283W        W37714  19.770   5.785  11.060
71284W        W37715  34.988  38.454   4.675
71285W        W37716  29.171  16.807   4.716
71286W        W37717  42.960  33.922   3.729
71287W        W37718  33.848  17.540  11.016
71288W        W37719  42.007   4.910  13.268
71289W        W37720  41.433  43.243   2.226
71290W        W37721  10.247   6.770   2.163
71291W        W37722  20.806  29.534   9.830
71292W        W37723  23.313   9.415   1.295
71293W        W37724  44.541   6.901   3.754
71294W        W37725  19.260  20.588  10.484
71295W        W37726  19.201  20.067   0.496
71296W        W37727   6.041  22.434  14.045
71297W        W37728  15.262  18.033  12.438
71298W        W37729  19.218   2.644   3.121
71299W        W37730  28.376  19.570   4.594
71300W        W37731  31.611   4.818  14.072
71301W        W37732   1.056  21.222   0.197
71302W        W37733  23.125  33.564  14.913
71303W        W37734  35.704  32.304   2.428
71304W        W37735   9.828   2.399   3.997
71305W        W37736  20.025  19.074   1.436
71306W        W37737  15.770  44.020  10.499
71307W        W37738   6.139  39.295   0.264
71308W        W37739   2.607  27.157  11.780
71309W        W37740  11.828   8.614  12.874
71310W        W37741  38.991   8.442  11.086
71311W        W37742  19.750  15.615  10.330
71312W        W37743  21.130  41.439   3.812
71313W        W37744   9.740   2.402  10.643
71314W        W37745  28.387   3.423  13.196
71315W        W37746  30.208  22.999   4.172
71316W        W37747  39.609  39.931   2.087
71317W        W37748  15.055  31.469   0.354
71318W        W37749   2.779  42.275   0.929
71319W        W37750   2.767   6.975  14.362
71320W        W37751  23.065  18.705   2.674
71321W        W37752  17.669  30.489  14.355
71322ION    NA+37753  37.591  17.590   3.763
71323ION    NA+37754  10.323  11.814  13.235
71324ION    NA+37755  31.728  11.691   4.672
71325ION    NA+37756   0.417  41.069   0.253
71326ION    NA+37757  43.563  17.950  11.535
71327ION    NA+37758  15.931  37.260  13.079
71328ION    NA+37759  21.860  34.234  13.946
71329ION    NA+37760  26.141  24.911   0.398
71330ION    NA+37761  25.873  28.333  12.116
71331ION    NA+37762  31.148  38.175   1.271
71332ION    NA+37763  39.014  24.617  11.372
71333ION    NA+37764  15.922  31.599  14.612
71334ION    NA+37765  26.602  25.054   4.700
71335ION    NA+37766  21.072   9.049   3.729
71336ION    NA+37767  22.289  20.378   3.602
71337ION    NA+37768   8.364  40.032   3.162
71338ION    NA+37769   3.838   8.603   3.455
71339ION    NA+37770  36.721  29.645  14.793
71340ION    NA+37771  16.233   3.560   2.562
71341ION    NA+37772  13.201  26.132   1.691
71342ION    NA+37773  27.998  36.385   2.872
71343ION    NA+37774  43.207  28.158   2.377
71344ION    NA+37775  25.376  42.522  12.645
71345ION    NA+37776  13.516  27.053   2.099
71346ION    NA+37777  22.689   8.228  11.541
71347ION    NA+37778  40.821  25.745   1.747
71348ION    NA+37779  11.282  22.919   0.273
71349ION    NA+37780  34.752  43.089  11.600
71350ION    NA+37781  19.834  10.616   4.216
71351ION    NA+37782   8.353  40.532  12.400
71352ION    NA+37783   1.480  36.919   1.872
71353ION    NA+37784  39.227   0.809  13.440
71354ION    NA+37785  41.291   9.015   0.427
71355ION    NA+37786  35.483  44.534  13.034
71356ION    NA+37787   1.032  21.254   1.623
71357ION    NA+37788  43.335  28.144  14.400
71358ION    NA+37789   5.664  24.445  10.718
71359ION    NA+37790   3.122  43.602   1.706
71360ION    NA+37791  32.212  42.877  13.832
71361ION    NA+37792   3.829  14.993  12.914
71362ION    NA+37793  21.537  36.918  10.073
71363ION    NA+37794  38.461  23.470  12.043
71364ION    NA+37795  10.603   2.555  14.392
71365ION    NA+37796  17.864   6.862   4.625
71366ION    NA+37797  42.977  41.835  13.014
71367ION    NA+37798  19.071   2.770  11.300
71368ION    NA+37799   1.797  10.172  13.742
71369ION    NA+37800  37.863   4.045   0.693
71370ION    NA+37801  44.328  30.038  14.957
71371ION    NA+37802  28.833  17.790  14.540
71372ION    NA+37803  31.261   0.676  12.827
71373ION    NA+37804   9.491  22.902  11.953
71374ION    NA+37805   3.657   4.167  12.091
71375ION    NA+37806  14.683  22.873   2.218
71376ION    NA+37807  30.651  37.436   0.816
71377ION    NA+37808  22.749   2.517  14.337
71378ION    NA+37809  36.226  12.304   1.184
71379ION    NA+37810  22.048  32.971   2.412
71380ION    NA+37811  27.629   0.920  14.352
71381ION    NA+37812  15.843  39.747   1.401
71382ION    NA+37813   4.164  31.561   0.441
71383ION    NA+37814  16.098  14.318  12.103
71384ION    NA+37815  30.556  37.720   1.936
71385ION    NA+37816  41.915  10.922  11.632
71386ION    NA+37817   8.908  37.629  14.771
71387ION    NA+37818   4.458  10.459   1.444
71388ION    NA+37819  34.814  35.034   0.676
71389ION    NA+37820   2.527  19.916  12.056
71390ION    NA+37821   5.730  30.130   0.559
71391ION    NA+37822   7.207  43.502   4.499
71392ION    NA+37823  21.758  10.064   0.486
71393ION    NA+37824  26.210  27.010  10.948
71394ION    NA+37825   5.434  25.611  10.642
71395ION    NA+37826   8.333  28.583  12.814
71396ION    NA+37827  30.264  33.724  13.019
71397ION    NA+37828   8.749  21.242   9.608
71398ION    NA+37829   3.759  40.920  11.088
71399ION    NA+37830   0.703  41.432  11.587
71400ION    NA+37831  36.480  41.987  13.720
71401ION    NA+37832   2.214  20.323   2.263
71402ION    NA+37833   8.225  18.689   1.138
71403ION    NA+37834  27.216   4.375   2.364
71404ION    NA+37835  24.828  38.669   3.967
71405ION    NA+37836   5.364  25.279   3.742
71406ION    NA+37837  13.853  17.064   1.689
71407ION    NA+37838  11.172  29.044  14.819
71408ION    NA+37839  38.773   4.929  11.332
71409ION    NA+37840  28.554  15.342   3.688
71410ION    NA+37841   5.289  34.064   2.484
71411ION    NA+37842   6.186  35.104   1.767
71412ION    NA+37843  37.708   0.102   3.741
71413ION    NA+37844   2.518  33.495   0.441
71414ION    NA+37845  39.248  14.099  12.884
71415ION    NA+37846  29.834  27.073  14.532
71416ION    NA+37847  40.528  29.474  11.528
71417ION    NA+37848  30.127   7.992   0.886
71418ION    NA+37849  41.902   8.656  14.337
71419ION    NA+37850  38.767  15.780   4.219
71420ION    NA+37851  12.296  30.576  13.519
71421ION    NA+37852  18.559  28.755  14.295
71422ION    NA+37853  42.741   1.388  14.807
71423ION    NA+37854  25.511  15.791  12.903
71424ION    NA+37855  42.983  21.633   2.231
71425ION    NA+37856  10.459  23.527   2.607
71426ION    NA+37857  42.386  44.283   1.961
71427ION    NA+37858  41.573  32.064  12.800
71428ION    NA+37859  15.477   4.890   3.666
71429ION    NA+37860  36.110   7.323  14.339
71430ION    NA+37861  39.944  39.199  10.270
71431ION    NA+37862  15.452  32.402   4.530
71432ION    NA+37863  36.838  24.179  13.063
71433ION    NA+37864  18.032  24.116  11.145
71434ION    NA+37865   6.817  25.238   0.031
71435ION    NA+37866  12.970   2.075   0.760
71436ION    NA+37867   6.669  36.085   3.203
71437ION    NA+37868  44.944  35.591   0.519
71438ION    NA+37869  31.289   3.474  10.370
71439ION    NA+37870  25.643  15.523   4.599
71440ION    NA+37871  12.926  18.672  11.973
71441ION    NA+37872   1.265  14.839   2.031
71442ION    NA+37873  18.985  17.565  14.943
71443ION    NA+37874  33.002  11.381  13.487
71444ION    NA+37875  42.300  14.171  13.536
71445ION    NA+37876  15.156  42.568  12.709
71446ION    NA+37877  28.193   7.642   4.047
71447ION    NA+37878  44.629   5.625  12.619
71448ION    NA+37879  20.540  44.083  13.780
71449ION    NA+37880  28.484  25.661   2.823
71450ION    NA+37881  32.168  37.542  14.749
71451ION    NA+37882  25.232   5.641  14.944
71452ION    NA+37883  42.868  33.680   3.267
71453ION    NA+37884   0.886   5.801   3.208
71454ION    NA+37885   3.632  41.764  12.879
71455ION    NA+37886   7.457  34.426  14.873
71456ION    NA+37887  29.457  18.486  12.100
71457ION    NA+37888   2.412  11.394  14.449
71458ION    NA+37889  26.239  43.267  11.732
71459ION    NA+37890  18.966  29.679  10.979
71460ION    NA+37891  20.039  36.243  13.702
71461ION    NA+37892   7.006  43.304  10.858
71462ION    NA+37893  10.347   3.365   0.352
71463ION    NA+37894   9.498  10.847  13.536
71464ION    NA+37895  30.946   1.032  11.529
71465ION    NA+37896  15.692  13.345  10.495
71466ION    NA+37897  43.877  26.259  10.602
71467ION    NA+37898  38.606  23.814   0.622
71468ION    NA+37899  15.696  40.799  12.041
71469ION    NA+37900  35.748  14.049   3.383
71470ION    NA+37901  14.453   6.957  11.608
71471ION    NA+37902  19.818  26.899   1.350
71472ION    NA+37903  42.894  32.178  11.113
71473ION    NA+37904  24.150   9.301   0.688
71474ION    NA+37905  29.539  40.346  13.892
71475ION    NA+37906  23.304  19.631   2.310
71476ION    NA+37907  42.301  34.107  12.523
71477ION    NA+37908  28.399  10.615  14.322
71478ION    NA+37909   6.291  33.513  14.754
71479ION    NA+37910  31.562   8.660   4.887
71480ION    NA+37911  28.890   6.195   3.492
71481ION    NA+37912   2.237   0.454   4.595
71482ION    NA+37913  34.528  22.719   0.506
71483ION    NA+37914  29.874  39.339   4.477
71484ION    NA+37915  30.631   9.314   0.291
71485ION    NA+37916  26.385  40.092   1.369
71486ION    NA+37917   5.683  31.149   0.510
71487ION    NA+37918  26.273  27.555   5.667
71488ION    NA+37919  41.028  24.234   0.267
71489ION    NA+37920  30.116  21.974  12.494
71490ION    NA+37921  43.285  37.377   1.589
71491ION    NA+37922  41.066  37.180  14.278
71492ION    NA+37923  17.479  11.065   4.293
71493ION    NA+37924   1.159   3.476  13.044
71494ION    NA+37925  19.414  43.481  12.531
71495ION    NA+37926   4.795  35.948  14.368
71496ION    NA+37927  32.641   3.686   3.223
71497ION    NA+37928  22.458   4.901   0.661
71498ION    NA+37929   8.288  22.487  10.871
71499ION    NA+37930  34.451  25.250  13.264
71500ION    NA+37931   6.519  15.114   5.393
71501ION    NA+37932   3.811  40.393  14.967
71502ION    NA+37933  27.586  31.535  12.568
71503ION    NA+37934  27.616  30.046  10.885
71504ION    NA+37935   3.175  34.308  14.349
71505ION    NA+37936  37.195  38.652   2.003
71506ION    NA+37937  20.306  17.715   0.430
71507ION    NA+37938  18.287  30.917   4.806
71508ION    NA+37939  32.374  23.057  11.170
71509ION    NA+37940  31.917  17.685  11.979
71510ION    NA+37941   2.520  18.977  12.132
71511ION    NA+37942  11.419  12.376  11.208
71512ION    NA+37943  36.053  36.199  13.280
71513ION    NA+37944  13.541  22.318  10.898
71514ION    NA+37945  21.213   2.103   0.227
71515ION    NA+37946   7.481  10.315  11.986
71516ION    NA+37947  20.381  26.093   0.825
71517ION    NA+37948  13.282   1.207   1.146
71518ION    NA+37949  10.202  14.644   0.618
71519ION    NA+37950   1.051  35.480   2.553
71520ION    NA+37951  11.367  14.345   1.349
71521ION    NA+37952  28.847  12.806   2.261
71522ION    NA+37953  27.713  33.210   1.712
71523ION    NA+37954  33.743  19.938   1.615
71524ION    NA+37955   2.876  25.608   2.110
71525ION    NA+37956  44.218   4.076  14.053
71526ION    NA+37957  16.860  38.525  11.345
71527ION    NA+37958   5.014  32.310  13.899
71528ION    NA+37959   8.406  13.737  12.500
71529ION    NA+37960   9.743   4.982   1.860
71530ION    NA+37961  26.238   8.377  13.859
71531ION    NA+37962  32.861  31.009   1.363
71532ION    NA+37963  21.659  12.133  11.707
71533ION    NA+37964  35.321   9.145   0.527
71534ION    NA+37965  23.172   9.507  12.429
71535ION    NA+37966  36.124  12.515  14.414
71536ION    NA+37967  36.770  23.316  11.664
71537ION    NA+37968  25.271  20.995   0.091
71538ION    NA+37969  19.471  24.520   2.372
71539ION    NA+37970  44.858  16.101  12.382
71540ION    NA+37971  27.839  43.883  11.592
71541ION    NA+37972  15.222  40.533   3.143
71542ION    NA+37973  21.601  34.891   4.576
71543ION    NA+37974   9.927  13.156   5.081
71544ION    NA+37975  15.126  43.308  11.457
71545ION    NA+37976  21.661   8.710  14.396
71546ION    NA+37977  19.878  35.762   1.350
71547ION    NA+37978  23.962  43.429   0.345
71548ION    NA+37979  38.187  18.043  12.922
71549ION    NA+37980  11.176  31.051  13.516
71550ION    NA+37981  40.028  21.370   3.635
71551ION    NA+37982  13.948  44.805  14.439
71552ION    NA+37983  40.073  42.535   1.436
71553ION    NA+37984  24.464   6.672  12.105
71554ION    NA+37985  37.713   5.418  14.574
71555ION    NA+37986   9.209  40.016  12.434
71556ION    NA+37987  41.808  27.029  10.165
71557ION    NA+37988  43.988  33.989   2.711
71558ION    NA+37989  26.232  38.577   2.537
71559ION    NA+37990  34.267   4.253   3.518
71560ION    NA+37991  37.547  18.394   4.356
71561ION    NA+37992  21.987  38.640  12.072
71562ION    NA+37993  16.504  10.268  14.462
71563ION    NA+37994  10.289  19.140   5.042
71564ION    NA+37995   4.344  21.747   4.641
71565ION    NA+37996  35.874  40.102  13.105
71566ION    NA+37997  20.342  29.041   2.711
71567ION    NA+37998   2.315   0.884  13.102
71568ION    NA+37999   6.811   1.331   3.693
71569ION    NA+38000  17.103   2.613  10.604
71570ION    NA+38001  15.090   8.198   3.709
71571ION    NA+38002  12.739  28.336   0.523
71572ION    NA+38003  26.045  17.109   2.413
71573ION    NA+38004  36.882  36.570   0.972
71574ION    NA+38005   9.015  12.620   4.479
71575ION    NA+38006  16.478  37.142   4.772
71576ION    NA+38007   4.618  18.388  11.208
71577ION    NA+38008  32.047   5.753   3.001
71578ION    NA+38009  13.624   4.143   0.726
71579ION    NA+38010  33.733  21.948   2.388
71580ION    NA+38011  21.634  21.775   4.492
71581ION    NA+38012   3.151  28.880  11.475
71582ION    NA+38013  22.103  32.163  11.935
71583ION    NA+38014  17.962  27.286  11.964
71584ION    NA+38015   6.282  12.591   2.654
71585ION    NA+38016  28.170  15.280   2.363
71586ION    NA+38017  38.456  41.057   2.818
71587ION    NA+38018  37.388  26.942  13.442
71588ION    NA+38019  33.998  14.578  10.257
71589ION    NA+38020   8.683  11.203   1.185
71590ION    NA+38021  25.096  16.760   0.422
71591ION    NA+38022  26.801  21.931   1.068
71592ION    NA+38023  37.578  32.715  12.407
71593ION    NA+38024  28.930  26.552   4.717
71594ION    NA+38025  11.645   4.227  14.971
71595ION    NA+38026  21.490  26.746  13.567
71596ION    NA+38027  42.754  37.900   2.256
71597ION    NA+38028  18.959  13.908   3.135
71598ION    NA+38029   8.945  12.362  12.875
71599ION    NA+38030  13.387   9.839  12.341
71600ION    NA+38031   3.226  15.995   2.772
71601ION    NA+38032   0.033  19.389  14.010
71602ION    NA+38033  15.216   6.291   1.735
71603ION    NA+38034  37.070  44.684   3.353
71604ION    NA+38035   2.174  35.314   0.883
71605ION    NA+38036  30.023  27.324  10.775
71606ION    NA+38037  19.748  23.193   0.947
71607ION    NA+38038  44.145  28.504   0.199
71608ION    NA+38039  43.862  19.177   2.393
71609ION    NA+38040   6.535   4.427  12.055
71610ION    NA+38041  41.476   4.436   1.379
71611ION    NA+38042   7.970  16.552   0.975
71612ION    NA+38043  31.277  12.838   0.111
71613ION    NA+38044   6.072  40.593  13.206
71614ION    NA+38045  23.779  35.454   3.042
71615ION    NA+38046  43.517   4.101   1.865
71616ION    NA+38047  28.064  21.708   1.064
71617ION    NA+38048  37.530   3.843   5.092
71618ION    NA+38049  28.815  37.106  13.854
71619ION    NA+38050   5.826  16.689   3.511
71620ION    NA+38051  17.520  27.452   2.720
71621ION    NA+38052  39.254   4.361   0.884
71622ION    NA+38053  16.312  22.787   0.725
71623ION    NA+38054  10.528  33.849   1.254
71624ION    NA+38055   0.857  10.726   3.768
71625ION    NA+38056  15.844  14.424   3.218
71626ION    NA+38057  18.249   2.662  10.716
71627ION    NA+38058  34.168  34.596  12.703
71628ION    NA+38059  19.568  13.046   3.454
71629ION    NA+38060   2.998  14.814   1.345
71630ION    NA+38061  37.521  29.221  14.676
71631ION    NA+38062   6.430  31.610   1.801
71632ION    NA+38063  15.196   3.402   3.609
71633ION    NA+38064  31.536  40.477  13.199
71634ION    NA+38065  20.432  34.925   3.925
71635ION    NA+38066  15.822  34.616   3.223
71636ION    NA+38067  25.649  17.787   1.682
71637ION    NA+38068  20.081   4.238   2.365
71638ION    NA+38069  34.680  17.074  11.315
71639ION    NA+38070  32.282  35.873  13.001
71640ION    NA+38071  28.492  41.477  12.428
71641ION    NA+38072  24.560  38.148   3.366
71642ION    NA+38073  37.268  41.058   4.522
71643ION    NA+38074  37.534  17.650   0.378
71644ION    NA+38075  34.798   6.910  11.340
71645ION    NA+38076  41.480  34.069  10.741
71646ION    NA+38077  27.141  42.659   4.396
71647ION    NA+38078  35.792  26.758   4.239
71648ION    NA+38079  44.493   6.495  12.146
71649ION    NA+38080  42.859   5.712   0.329
71650ION    NA+38081  38.300  16.735  11.834
71651ION    NA+38082  31.324  44.756  11.177
71652ION    NA+38083  37.283  25.499   2.874
71653ION    NA+38084  39.776  28.834   5.332
71654ION    NA+38085   5.237  43.450  10.693
71655ION    NA+38086  32.718  20.231  14.847
71656ION    NA+38087  33.499  33.457   3.648
71657ION    NA+38088  27.988  39.548  13.392
71658ION    NA+38089  43.458  33.815  14.232
71659ION    NA+38090   1.015  19.953   1.294
71660ION    NA+38091  25.487  16.471  14.288
71661ION    NA+38092  13.294  23.538   1.834
71662ION    NA+38093  40.252  28.152  13.559
71663ION    NA+38094   1.897  12.433  12.450
71664ION    NA+38095  16.877  29.628  12.781
71665ION    NA+38096  28.332  15.724  12.626
71666ION    NA+38097  33.245   6.261   4.361
71667ION    NA+38098  17.058  44.515   4.617
71668ION    NA+38099  11.509  12.062  12.153
71669ION    NA+38100  33.547  43.459   4.107
71670ION    NA+38101  25.302  24.981   0.073
71671ION    NA+38102  44.960  38.855   0.964
71672ION    NA+38103  19.538  40.150  11.340
71673ION    NA+38104  42.079  20.227   3.443
71674ION    NA+38105  38.731  35.416  14.220
71675ION    NA+38106  31.406   3.889   0.439
71676ION    NA+38107  24.090   3.417  13.589
71677ION    NA+38108  33.937  23.727  10.722
71678ION    NA+38109  17.583  10.140   5.100
71679ION    NA+38110  17.574  41.429   2.159
71680ION    NA+38111  20.239  13.406  12.833
71681ION    NA+38112  42.031   1.946  11.230
71682ION    NA+38113   2.320  27.862  11.149
71683ION    NA+38114  42.065  11.602  13.064
71684ION    NA+38115  11.781  31.314   1.630
71685ION    NA+38116  23.606  40.254  12.458
71686ION    NA+38117  17.431  11.734  13.934
71687ION    NA+38118  10.148  43.555  14.650
71688ION    NA+38119  16.269  33.758   1.481
71689ION    NA+38120  20.204  20.705   5.206
71690ION    NA+38121   4.945  28.201   3.607
71691ION    NA+38122  22.630  42.173   3.524
71692ION    NA+38123  11.263  23.807   4.010
71693ION    NA+38124  14.716  13.977   4.175
71694ION    NA+38125   9.597  26.132   1.136
71695ION    NA+38126  37.868   5.189   0.717
71696ION    NA+38127  21.791  13.396   2.910
71697ION    NA+38128  22.373  41.789   0.153
71698ION    NA+38129  37.689   2.936  13.885
71699ION    NA+38130  32.047  16.753   0.810
71700ION    NA+38131   2.789  33.974  11.249
71701ION    NA+38132  15.334   3.210   2.290
71702ION    NA+38133  29.879   7.449   3.609
71703ION    NA+38134   6.083  26.649   0.864
71704ION    NA+38135   2.952  41.411  14.009
71705ION    NA+38136  20.979  17.030  10.952
71706ION    NA+38137  42.296  37.564  11.742
71707ION    NA+38138  35.018  10.392   4.804
71708ION    NA+38139  25.075   8.978   2.309
71709ION    NA+38140  42.782  37.244   3.363
71710ION    NA+38141  43.414  18.673  12.606
71711ION    NA+38142   8.051  33.133  14.445
71712ION    NA+38143  29.236  12.142  13.067
71713ION    NA+38144  42.559  19.370   0.246
71714ION    NA+38145  24.284  42.363   3.307
71715ION    NA+38146   2.338  24.970  14.554
71716ION    NA+38147   9.835  18.352   1.409
71717ION    NA+38148  39.700  43.674  13.180
71718ION    NA+38149  30.287  32.265   2.811
71719ION    NA+38150  18.716   1.110  14.122
71720ION    NA+38151  41.791  25.191   1.988
71721ION    NA+38152  14.710  25.995  12.849
71722ION    NA+38153   3.627  20.996  11.130
71723ION    NA+38154  44.049  34.496   1.852
71724ION    NA+38155  28.050  25.335  12.114
71725ION    NA+38156  36.400  44.805   1.010
71726ION    NA+38157  31.884  19.555   9.808
71727ION    NA+38158  24.971  27.559  14.103
71728ION    NA+38159  41.528  23.426  14.953
71729ION    NA+38160   4.050  35.525   3.572
71730ION    NA+38161   5.495  22.504   2.490
71731ION    NA+38162  40.233  42.973   3.571
71732ION    NA+38163  15.491  37.604  12.249
71733ION    NA+38164   9.713   4.667  13.026
71734ION    NA+38165  44.401  34.912   1.013
71735ION    NA+38166  17.854  38.643   9.653
71736ION    NA+38167  29.190  35.327  11.226
71737ION    NA+38168   8.161   1.449   3.175
71738ION    NA+38169   8.846   4.400   1.196
71739ION    NA+38170  22.608  21.617  11.668
71740ION    NA+38171  21.814  27.693   4.364
71741ION    NA+38172  15.697  26.051   0.844
71742ION    NA+38173  19.535  21.209   0.502
71743ION    NA+38174  37.774  20.194  12.260
71744ION    NA+38175  12.607  40.632   3.116
71745ION    NA+38176  33.050  11.836   1.976
71746ION    NA+38177  31.177  15.955  11.165
71747ION    NA+38178  39.985  10.705   1.030
71748ION    NA+38179   0.786  31.701   1.781
71749ION    NA+38180  17.733   3.454  11.857
71750ION    NA+38181   4.950  40.002   3.077
71751ION    NA+38182  44.006  44.918  11.151
71752ION    NA+38183  24.893  39.592   3.268
71753ION    NA+38184  13.423  10.330   2.422
71754ION    NA+38185   1.021  41.933  12.865
71755ION    NA+38186   7.586  29.980   3.783
71756ION    NA+38187  21.853  16.494  13.711
71757ION    NA+38188  27.779  10.355  12.829
71758ION    NA+38189  44.032   6.967   3.782
71759ION    NA+38190  29.457   2.168   9.817
71760ION    NA+38191  21.421  35.958  14.775
71761ION    NA+38192  19.271   2.881  12.137
71762ION    NA+38193  29.808  16.237   4.666
71763ION    NA+38194  34.607  31.725  12.367
71764ION    NA+38195  10.046  41.851   2.336
71765ION    NA+38196  40.785  11.857   2.600
71766ION    NA+38197   7.329  19.697   1.869
71767ION    NA+38198  31.284  30.398   1.697
71768ION    NA+38199  41.380  32.966  12.798
71769ION    NA+38200   1.681  19.988  14.097
71770ION    NA+38201  26.133  42.781   1.932
71771ION    NA+38202  32.941  18.074   2.971
71772ION    NA+38203  33.410  33.400  11.244
71773ION    NA+38204  10.173  44.633  11.969
71774ION    NA+38205  44.002   3.115  13.233
71775ION    NA+38206  13.730   0.150  12.497
71776ION    NA+38207  35.582  12.170   3.854
71777ION    NA+38208   1.473   8.552  11.788
71778ION    NA+38209  44.253   0.656   1.840
71779ION    NA+38210  20.987  16.099  14.551
71780ION    NA+38211  25.949  14.012  13.929
71781ION    NA+38212  38.165  15.519   3.632
71782ION    NA+38213  25.941  10.414  11.143
71783ION    NA+38214  21.547   5.215  14.804
71784ION    NA+38215  14.154  19.814  12.846
71785ION    NA+38216  17.689   7.314   2.491
71786ION    NA+38217  24.138  12.458   2.555
71787ION    NA+38218  30.312  30.900  14.752
71788ION    NA+38219  24.770  15.246  10.550
71789ION    NA+38220  30.990  39.073   4.675
71790ION    NA+38221  15.753  28.098  12.365
71791ION    NA+38222  28.206  40.470   3.212
71792ION    NA+38223  27.093  29.547  14.860
71793ION    NA+38224  36.615   8.620  14.163
71794ION    NA+38225  17.809  19.214  13.096
71795ION    NA+38226  20.983   2.395   2.020
71796ION    NA+38227  23.467  25.052  11.399
71797ION    NA+38228  10.965   5.023  14.152
71798ION    NA+38229   0.405  31.060   2.595
71799ION    NA+38230   0.333  32.159  11.621
71800ION    NA+38231  20.072  20.355   0.329
71801ION    NA+38232   9.145  31.200  10.788
71802ION    NA+38233  19.696  25.117  14.440
71803ION    NA+38234  24.085  14.712   1.068
71804ION    NA+38235  30.802  23.400  12.846
71805ION    NA+38236  14.118   5.981   3.204
71806ION    NA+38237  19.104  42.738  11.933
71807ION    NA+38238   1.839  25.575  10.662
71808ION    NA+38239  24.755   8.047  14.106
71809ION    NA+38240   3.738  12.415  10.840
71810ION    NA+38241  35.632  34.143   3.895
71811ION    NA+38242  29.099   7.910  14.026
71812ION    NA+38243   8.672   3.022   1.670
71813ION    NA+38244  38.330  15.052  11.423
71814ION    NA+38245  13.811  40.816  14.736
71815ION    NA+38246   8.425  28.612   0.984
71816ION    NA+38247  20.816  40.332  12.724
71817ION    NA+38248  14.929  38.370  11.462
71818ION    NA+38249   9.443  30.923   1.433
71819ION    NA+38250  10.795  30.004  11.663
71820ION    NA+38251  25.638  39.363  13.111
71821ION    NA+38252  43.271  35.317   2.442
71822ION    NA+38253  36.565  25.105   2.168
71823ION    NA+38254  31.742  37.109  14.058
71824ION    NA+38255  28.590   8.870   4.949
71825ION    NA+38256   8.091   0.980   4.527
71826ION    NA+38257  43.130   3.380   0.518
71827ION    NA+38258   4.790  11.153   0.168
71828ION    NA+38259   3.248  30.733  13.526
71829ION    NA+38260   2.693  25.533   4.863
71830ION    NA+38261  16.766  19.897   5.030
71831ION    NA+38262  40.297  41.830   4.477
71832ION    NA+38263   6.379  42.238  12.895
71833ION    NA+38264   2.546  23.634   1.648
71834ION    NA+38265  20.539  37.606  11.070
71835ION    NA+38266  40.356  32.353   1.613
71836ION    NA+38267  39.746  34.723  14.229
71837ION    NA+38268   1.890  40.116  13.908
71838ION    NA+38269   6.757  21.005  14.910
71839ION    NA+38270  17.622   3.730  13.218
71840ION    NA+38271  44.069  10.149  14.425
71841ION    NA+38272  31.894  13.294  12.032
71842ION    NA+38273  36.860  14.537   4.537
71843ION    NA+38274  10.165  34.619   3.186
71844ION    NA+38275   8.204  39.452   0.312
71845ION    NA+38276  15.125   8.206   2.405
71846ION    NA+38277  34.951  39.997   3.647
71847ION    NA+38278  34.202   1.538  13.882
71848ION    NA+38279  33.099  36.520  11.624
71849ION    NA+38280  39.774   1.413  11.890
71850ION    NA+38281   6.785  32.989  13.823
71851ION    NA+38282  19.422  42.425   0.792
71852ION    NA+38283  37.094  44.749   2.133
71853ION    NA+38284  36.494  15.392   2.313
71854ION    NA+38285  19.265  34.858  13.903
71855ION    NA+38286  36.713  33.548  12.715
71856ION    NA+38287   6.015  34.003   1.638
71857ION    NA+38288  15.114  26.062   5.542
71858ION    NA+38289   7.876   8.704  10.730
71859ION    NA+38290   3.959  31.413   4.068
71860ION    NA+38291  35.337  14.525   0.497
71861ION    NA+38292  24.435  30.610  12.599
71862ION    NA+38293   0.870  30.369   2.185
71863ION    NA+38294  35.738  12.010  12.529
71864ION    NA+38295   6.295  36.016  10.961
71865ION    NA+38296   8.523   6.148  12.110
71866ION    NA+38297  40.115  31.708  11.732
71867ION    NA+38298   8.705  40.894  14.404
71868ION    NA+38299  25.418  23.694  11.166
71869ION    NA+38300  26.041  43.978   0.903
71870ION    NA+38301  21.678  24.512   3.673
71871ION    NA+38302  38.699  28.793  11.911
71872ION    NA+38303  40.218  28.439   3.203
71873ION    NA+38304   5.710  18.808   0.429
71874ION    NA+38305  20.078  15.676   1.981
71875ION    NA+38306  44.536  21.823   0.147
71876ION    NA+38307  36.115  34.019   5.126
71877ION    NA+38308  11.897  12.576   4.170
71878ION    NA+38309   2.792   2.784  14.472
71879ION    NA+38310   9.070  27.601  13.821
71880ION    NA+38311  24.782  25.518  11.193
71881ION    NA+38312  43.090  24.882   0.425
71882ION    NA+38313  44.585  38.396  10.669
71883ION    NA+38314  36.914   5.219   4.477
71884ION    NA+38315  38.405   3.456  14.784
71885ION    NA+38316  32.903  23.947  12.084
71886ION    NA+38317   4.917   3.014  14.308
71887ION    NA+38318  26.852  31.353  14.659
71888ION    NA+38319  42.448  36.568  13.007
71889ION    NA+38320  11.252   7.047   2.287
71890ION    NA+38321  14.754  37.987   4.108
71891ION    NA+38322   7.265   1.488  10.889
71892ION    NA+38323   5.827  29.681  10.959
71893ION    NA+38324  26.500  23.977   4.789
71894ION    NA+38325  25.282   3.754  13.308
71895ION    NA+38326  29.977  29.415   3.332
71896ION    NA+38327  17.658   4.426  12.078
71897ION    NA+38328   8.349  37.472   4.165
71898ION    NA+38329  30.369  23.203  14.558
71899ION    NA+38330  43.995  27.687  12.716
71900ION    NA+38331  32.647  16.858  14.385
71901ION    NA+38332   3.713  12.038  13.603
71902ION    NA+38333  39.393  41.399  13.567
71903ION    NA+38334   8.211  42.542   1.480
71904ION    NA+38335  24.043  25.616  12.675
71905ION    NA+38336  20.679   5.799  10.349
71906ION    NA+38337  37.539  18.537  14.318
71907ION    NA+38338   9.987  27.550   4.962
71908ION    NA+38339  40.790  26.080   4.894
71909ION    NA+38340  37.274   4.767  14.253
71910ION    NA+38341  24.855  41.078  13.058
71911ION    NA+38342  40.430  20.237  11.276
71912ION    NA+38343   5.319  31.943   1.851
71913ION    NA+38344  42.963  24.272  11.225
71914ION    NA+38345  24.561  19.788  14.035
71915ION    NA+38346  37.471  28.826  10.820
71916ION    NA+38347  21.603  24.100  11.722
71917ION    NA+38348  15.092  15.123   5.646
71918ION    NA+38349  28.563   8.991  10.768
71919ION    NA+38350  28.962  22.888  10.833
71920ION    NA+38351  19.034  41.276   1.648
71921ION    NA+38352  14.992  32.792   1.961
71922ION    NA+38353  38.520  14.362   0.858
71923ION    NA+38354  34.364  39.259   3.981
71924ION    NA+38355  39.541  11.287  12.642
71925ION    NA+38356  35.536  31.907  13.616
71926ION    NA+38357   6.175  19.049   4.141
71927ION    NA+38358  44.353  40.393   3.600
71928ION    NA+38359  23.661   4.985  12.901
71929ION    NA+38360  16.788  35.384   4.592
71930ION    NA+38361  44.908  23.675   0.423
71931ION    NA+38362  19.035  38.443   3.249
71932ION    NA+38363  15.087  15.719   4.087
71933ION    NA+38364  10.154   6.578  12.431
71934ION    NA+38365   7.604  38.824   3.915
71935ION    NA+38366  11.919  14.827   2.235
71936ION    NA+38367  10.953  32.418  11.018
71937ION    NA+38368  12.716  35.926   4.573
71938ION    NA+38369  35.615  11.171   3.825
71939ION    NA+38370   9.441  43.514  12.634
71940ION    NA+38371  38.737  25.414  11.693
71941ION    NA+38372  19.091  18.525  12.505
71942ION    NA+38373  27.421  31.868  13.933
71943ION    NA+38374  21.680   4.005   3.765
71944ION    NA+38375  34.326   2.327   3.214
71945ION    NA+38376  14.727  34.431   2.302
71946ION    NA+38377  44.720  37.124  13.719
71947ION    NA+38378  10.930  21.755   4.113
71948ION    NA+38379  14.781  22.544   3.565
71949ION    NA+38380  30.903  44.544   4.681
71950ION    NA+38381  38.162  30.334   1.299
71951ION    NA+38382  40.598   7.204  11.657
71952ION    NA+38383  30.302   1.565   2.501
71953ION    NA+38384  44.481  32.890   0.206
71954ION    NA+38385  18.857  30.090   1.900
71955ION    NA+38386  16.226  30.233  11.064
71956ION    NA+38387   0.181  33.463   0.740
71957ION    NA+38388  19.788   1.054  11.939
71958ION    NA+38389  27.631   6.890   3.701
71959ION    NA+38390  25.472  13.189   2.816
71960ION    NA+38391  24.472  40.108  11.126
71961ION    NA+38392   2.184  14.925  14.365
71962ION    NA+38393  30.169  25.130  12.048
71963ION    NA+38394   2.122   6.547   4.545
71964ION    NA+38395  40.337  23.494   3.905
71965ION    NA+38396   9.460  28.638   4.813
71966ION    NA+38397  34.945  27.075  11.151
71967ION    NA+38398   1.060   3.538  11.319
71968ION    NA+38399  12.686  23.771  13.519
71969ION    NA+38400  33.742  31.570   1.442
71970ION    NA+38401   8.779  29.207  10.758
71971ION    NA+38402  23.353  44.773   1.883
71972ION    NA+38403  13.653  42.892  14.709
71973ION    NA+38404  19.740  36.821   1.162
71974ION    NA+38405  42.169  41.903   4.176
71975ION    NA+38406  22.471  33.874   2.495
71976ION    NA+38407  13.342  38.359  13.357
71977ION    NA+38408  27.315  22.723   1.397
71978ION    NA+38409  14.702  22.448  10.675
71979ION    NA+38410   8.606  25.774  13.964
71980ION    NA+38411  36.748   7.148   1.167
71981ION    NA+38412  30.021  43.481   0.092
71982ION    NA+38413  22.221  44.339  11.751
71983ION    NA+38414   0.042  42.726  11.984
71984ION    NA+38415  20.225  15.209  14.120
71985ION    NA+38416  18.196  24.356   1.680
71986ION    NA+38417  17.320  41.579  12.776
71987ION    NA+38418  34.121  40.435  14.270
71988ION    NA+38419  25.133  35.493   3.282
71989ION    NA+38420  33.948   1.672   3.716
71990ION    NA+38421  33.847  12.383   3.187
71991ION    NA+38422  11.184  25.819   1.343
71992ION    NA+38423  29.971   8.644   5.498
71993ION    NA+38424  22.536  19.023  12.018
71994ION    NA+38425  12.116   5.144   2.707
71995ION    NA+38426  36.505  37.905   9.923
71996ION    NA+38427  13.683  27.734  11.969
71997ION    NA+38428   3.849  16.963   2.913
71998ION    NA+38429   6.379  37.300   2.652
71999ION    NA+38430  41.732  22.298   1.323
72000ION    NA+38431  25.786  33.298  13.762
72001ION    NA+38432  11.807  32.958   0.379
72002ION    NA+38433   8.300  36.033  14.107
72003ION    NA+38434   9.583  14.081   3.215
72004ION    NA+38435  28.346   0.461  12.961
72005ION    NA+38436  38.525  28.496   3.666
72006ION    NA+38437  43.554  29.803   2.522
72007ION    NA+38438  19.117  30.603  13.480
72008ION    NA+38439  33.775   3.899  14.537
72009ION    NA+38440  40.232   8.173   2.389
72010ION    NA+38441  30.369  26.768   5.133
72011ION    NA+38442   6.821  10.448  14.012
72012ION    NA+38443   0.086  24.482  13.146
72013ION    NA+38444  22.656  33.333   0.695
72014ION    NA+38445  19.940  41.418   2.047
72015ION    NA+38446  24.988  15.079   0.063
72016ION    NA+38447  15.455  35.840  13.780
72017ION    NA+38448   7.791  24.969   0.942
72018ION    NA+38449  12.780   2.966   2.033
72019ION    NA+38450  37.391  22.164  14.738
72020ION    NA+38451  28.151  23.528   5.177
72021ION    NA+38452   5.412  30.729  12.076
72022ION    NA+38453   8.239   9.926  13.477
72023ION    NA+38454  39.423  30.471   2.313
72024ION    NA+38455  25.227  37.853  13.952
72025ION    NA+38456  37.346  16.913  14.829
72026ION    NA+38457  26.623  23.674  10.696
72027ION    NA+38458   6.731  27.704   2.138
72028ION    NA+38459  26.513  21.160  11.341
72029ION    NA+38460  42.903  39.353   3.735
72030ION    NA+38461  32.245   8.508   0.038
72031ION    NA+38462  35.997  29.942   3.151
72032ION    NA+38463  40.350  25.625   2.671
72033ION    NA+38464  20.433  17.486   2.341
72034ION    NA+38465   3.776  17.869   2.992
72035ION    NA+38466   9.354  10.310  14.237
72036ION    NA+38467  18.036  33.102  14.474
72037ION    NA+38468  17.303   0.378   0.157
72038ION    NA+38469  20.293  22.125   4.667
72039ION    NA+38470   3.742   8.843   4.472
72040ION    NA+38471  14.281  13.174   2.168
72041ION    NA+38472  23.806  41.458  14.979
72042ION    NA+38473   3.012  37.413   3.764
72043ION    NA+38474   4.532  21.708  11.100
72044ION    NA+38475  39.968  14.735   1.726
72045ION    NA+38476  26.619  12.713  11.037
72046ION    NA+38477  40.007   5.889  14.361
72047ION    NA+38478  13.639  39.708  13.927
72048ION    NA+38479  23.197   2.874   2.882
72049ION    NA+38480  23.463   9.421  10.758
72050ION    NA+38481  42.935   7.744  10.606
72051ION    NA+38482   1.296  18.024   3.269
72052ION    NA+38483  44.206  40.301   4.934
72053ION    NA+38484  25.613  43.714   3.636
72054ION    NA+38485   3.248  16.509   1.821
72055ION    NA+38486  10.416   5.338  10.611
72056ION    NA+38487  33.988   2.406   0.554
72057ION    NA+38488  40.327  40.345   1.744
72058ION    NA+38489  21.878  37.319   9.441
72059ION    NA+38490  17.589   2.434   2.766
72060ION    NA+38491  29.396  28.242   0.244
72061ION    NA+38492  24.783  20.794  11.366
72062ION    NA+38493  36.828  19.037  11.027
72063ION    NA+38494  40.156  28.347   0.963
72064ION    NA+38495  44.482   9.523   4.010
72065ION    NA+38496  11.034  24.357   3.109
72066ION    NA+38497  19.580  19.521  11.182
72067ION    NA+38498   5.548   7.149  14.264
72068ION    NA+38499  42.618  15.418   5.087
72069ION    NA+38500  30.005  28.176   2.301
72070ION    NA+38501  43.647  39.762  14.735
72071ION    NA+38502  26.781   7.811  12.860
72072ION    NA+38503  42.624  15.565  14.117
72073ION    NA+38504   5.726  42.428   3.240
72074ION    NA+38505  38.224  23.441   2.996
72075ION    NA+38506  13.269  19.201   0.495
72076ION    NA+38507   2.644  10.003   1.751
72077ION    NA+38508  15.390  32.503  12.952
72078ION    NA+38509  24.995  42.629   0.216
72079ION    NA+38510  39.432   3.989  13.781
72080ION    NA+38511  37.984  22.680   2.384
72081ION    NA+38512  10.143  32.296  13.028
72082ION    NA+38513   9.793  27.233  14.252
72083ION    NA+38514   7.598  14.536   0.721
72084ION    NA+38515  22.868  39.779  13.298
72085ION    NA+38516  43.068  15.863   0.421
72086ION    NA+38517  37.853   4.795   2.373
72087ION    NA+38518   8.942  31.724  12.884
72088ION    NA+38519  23.214  30.037   2.180
72089ION    NA+38520  30.071  13.601  13.510
72090ION    NA+38521  16.367  35.346  14.900
72091ION    NA+38522  19.805   4.835  11.103
72092ION    NA+38523  23.130  16.827  14.511
72093ION    NA+38524  24.758   2.798  14.177
72094ION    NA+38525  19.979  28.721   3.665
72095ION    NA+38526  22.605  26.916   0.780
72096ION    NA+38527   3.379   9.570  10.738
72097ION    NA+38528  30.365   0.945   3.282
72098ION    NA+38529  18.785  43.125   4.524
72099ION    NA+38530  16.233  10.965   0.457
72100ION    NA+38531   4.806  18.008  12.606
72101ION    NA+38532  32.409  35.667   4.696
72102ION    NA+38533  21.873   2.705  14.468
72103ION    NA+38534  36.616  12.973  10.804
72104ION    NA+38535  11.269  37.625  11.048
72105ION    NA+38536  34.865  11.362   3.191
72106ION    NA+38537  43.996  34.354  12.089
72107ION    NA+38538   3.244  21.457  14.969
72108ION    NA+38539  10.667  26.223   4.993
72109ION    NA+38540   7.578   4.248   3.688
72110ION    NA+38541  28.219  34.890   3.239
72111ION    NA+38542  26.818   4.994   4.147
72112ION    NA+38543  26.623  23.999   2.689
72113ION    NA+38544  27.470  24.199   4.885
72114ION    NA+38545  30.937  14.747  14.364
72115ION    NA+38546  27.187  35.615  12.125
72116ION    NA+38547  25.990  43.069  12.981
72117ION    NA+38548  25.379  39.688  11.126
72118ION    NA+38549  42.762   6.557   5.210
72119ION    NA+38550  19.723  12.544   3.940
72120ION    NA+38551  32.729   9.312  11.808
72121ION    NA+38552  40.598  24.193  11.094
72122ION    NA+38553  44.801   7.170   0.205
72123ION    NA+38554  39.182   9.952   1.613
72124ION    NA+38555  14.114   2.398  14.032
72125ION    NA+38556  24.867  21.367  14.255
72126ION    NA+38557  23.224  43.725   2.454
72127ION    NA+38558  24.207  14.611  11.585
72128ION    NA+38559  43.265  17.818   4.385
72129ION    NA+38560  30.036  23.921   0.007
72130ION    NA+38561  16.313  31.398   2.089
72131ION    NA+38562   3.822  24.433   2.480
72132ION    NA+38563  43.157  34.338   2.275
72133ION    NA+38564   6.622  11.211   3.776
72134ION    NA+38565   8.722  11.876   5.046
72135ION    NA+38566  25.915  34.197  12.118
72136ION    NA+38567  27.231  40.243   3.953
72137ION    NA+38568  44.009   1.674   3.169
72138ION    NA+38569  11.316  41.192  13.671
72139ION    NA+38570   8.560  28.273   1.974
72140ION    NA+38571  14.542  42.800   3.896
72141ION    NA+38572  15.342  43.563   2.392
72142ION    NA+38573   5.937  16.363  12.474
72143ION    NA+38574  43.826  32.556  11.350
72144ION    NA+38575  28.504  15.076   0.336
72145ION    NA+38576  38.119  34.924   3.107
72146ION    NA+38577  38.469  19.899  11.605
72147ION    NA+38578  39.468  29.919  10.203
72148ION    NA+38579  40.839  16.987   0.061
72149ION    NA+38580  31.107  38.044   3.170
72150ION    NA+38581  31.618  18.082  14.442
72151ION    NA+38582  40.867  18.743   0.450
72152ION    NA+38583  19.390  23.776   3.182
72153ION    NA+38584  26.829  26.667  14.026
72154ION    NA+38585   0.370  17.476  11.643
72155ION    NA+38586  28.654   9.198  12.806
72156ION    NA+38587  24.076  37.774  13.729
72157ION    NA+38588  27.332  23.015  12.846
72158ION    NA+38589  27.842  38.801   1.851
72159ION    NA+38590   4.451   8.354  14.055
72160ION    NA+38591   5.330  33.844   3.100
72161ION    NA+38592   7.639  41.411   5.087
72162ION    NA+38593  13.603  30.962  12.955
72163ION    NA+38594   3.828  36.149  11.144
72164ION    NA+38595  19.159   0.070  11.468
72165ION    NA+38596   8.722  41.786  12.663
72166ION    NA+38597  44.558  37.373   4.549
72167ION    NA+38598  21.809  12.894  14.809
72168ION    NA+38599  43.855  38.609   2.538
72169ION    NA+38600  31.161  15.079  10.911
72170ION    NA+38601   6.409  41.233  12.647
72171ION    NA+38602  40.059  19.196   3.184
72172ION    NA+38603  31.688  24.700  12.563
72173ION    NA+38604   6.749  38.928  13.337
72174ION    NA+38605  29.609  32.854   4.097
72175ION    NA+38606  27.540  39.944   0.193
72176ION    NA+38607  22.031  10.315   1.598
72177ION    NA+38608  26.838  14.055  11.590
72178ION    NA+38609  22.332   7.641  14.482
72179ION    NA+38610  37.586  17.820  10.143
72180ION    NA+38611  11.696  14.148   3.862
72181ION    NA+38612  27.635  15.850  12.067
72182ION    NA+38613  33.785  29.643   4.734
72183ION    NA+38614   4.259  15.702  14.906
72184ION    NA+38615   3.218  19.752   4.184
72185ION    NA+38616  31.944  31.463  12.474
72186ION    NA+38617  26.127  34.118   2.222
72187ION    NA+38618  23.054   1.384   0.925
72188ION    NA+38619  40.013  21.004  14.376
72189ION    NA+38620  30.476   1.865   3.302
72190ION    NA+38621  12.407  22.703   4.397
72191ION    NA+38622  26.325  18.522   3.693
72192ION    NA+38623  18.934  40.698   3.361
72193ION    NA+38624  30.905  23.573   0.605
72194ION    NA+38625   7.734  23.806  14.083
72195ION    NA+38626  25.875  34.815  14.764
72196ION    NA+38627  40.794  18.481  10.768
72197ION    NA+38628   7.086  30.103   1.167
72198ION    NA+38629  12.370   4.375  10.341
72199ION    NA+38630   8.577  14.527   0.250
72200ION    NA+38631  19.347  43.621   2.184
72201ION    NA+38632  42.221   6.959   0.842
72202ION    NA+38633   6.838  17.363  11.620
72203ION    NA+38634   4.943  32.518  11.620
72204ION    NA+38635   2.006  15.629  12.571
72205ION    NA+38636  21.237  13.986  14.361
72206ION    NA+38637  19.714  23.881  14.166
72207ION    NA+38638  31.876   3.930  13.723
72208ION    NA+38639  41.118  14.604  12.990
72209ION    NA+38640  32.376  39.566   2.290
72210ION    NA+38641  17.307  28.186   0.278
72211ION    NA+38642  10.878  31.443   0.386
72212ION    NA+38643  21.594  41.644   5.071
72213ION    NA+38644  23.332  36.441   4.034
72214ION    NA+38645  42.042   0.328   2.579
72215ION    NA+38646   7.100  10.561   0.735
72216ION    NA+38647  13.387   8.824  10.579
72217ION    NA+38648  29.819  24.015   4.007
72218ION    NA+38649  29.198  16.079   3.484
72219ION    NA+38650   7.066  38.329   0.096
72220ION    NA+38651  27.948  29.618   2.049
72221ION    NA+38652  44.741   6.609  14.379
72222ION    NA+38653  35.155  23.914   3.822
72223ION    NA+38654  13.475   7.879  12.410
72224ION    NA+38655  14.089  10.647   0.671
72225ION    NA+38656  28.686   5.491   2.139
72226ION    NA+38657  17.703  40.178  14.962
72227ION    NA+38658  19.161   8.545  14.702
72228ION    NA+38659  19.131  38.045  13.049
72229ION    NA+38660  26.164  15.570   1.547
72230ION    NA+38661   0.794  27.837  12.741
72231ION    NA+38662  40.763  43.589   3.312
72232ION    NA+38663  29.061  33.446   2.281
72233ION    NA+38664  29.686  36.489  14.080
72234ION    NA+38665  23.714  16.536  11.128
72235ION    NA+38666  37.270  20.193  11.396
72236ION    NA+38667  11.048  42.528  12.417
72237ION    NA+38668  16.563  41.346   2.735
72238ION    NA+38669  22.117   2.327   2.459
72239ION    NA+38670  37.784  15.983   0.599
72240ION    NA+38671  42.986  10.086   1.933
72241ION    NA+38672   6.113  36.814  13.088
72242ION    NA+38673   5.909   1.745   3.812
72243ION    NA+38674  14.564  40.267  11.549
72244ION    NA+38675   0.191   9.188  14.019
72245ION    NA+38676  26.023  29.297   1.233
72246ION    NA+38677  25.157   1.630   2.643
72247ION    NA+38678  35.132  39.899  12.663
72248ION    NA+38679  24.301  12.371   4.626
72249ION    NA+38680  36.382  14.263   1.191
72250ION    NA+38681  18.533  36.367   0.104
72251ION    NA+38682  36.611  33.838  14.080
72252ION    NA+38683  44.839  40.843   1.899
72253ION    NA+38684  36.853  13.086   3.388
72254ION    NA+38685  22.726  25.410   0.322
72255ION    NA+38686   7.841  38.267  12.067
72256ION    NA+38687  11.318  33.986   1.884
72257ION    NA+38688  15.559  20.928   4.948
72258ION    NA+38689   8.429   9.323  14.290
72259ION    NA+38690  21.529  11.100   3.136
72260ION    NA+38691  11.176  18.846  12.166
72261ION    NA+38692   7.102  38.242   3.433
72262ION    NA+38693   4.261  20.112   2.902
72263ION    NA+38694   4.818  36.913  14.107
72264ION    NA+38695  31.208   2.742  13.405
72265ION    NA+38696  35.243  24.648  13.753
72266ION    NA+38697  33.037  18.571  10.795
72267ION    NA+38698   7.157  29.083   1.312
72268ION    NA+38699  42.967  37.800  14.102
72269ION    NA+38700  43.869   4.366   0.478
72270ION    NA+38701  17.275  44.311   3.260
72271ION    NA+38702  40.192   1.615  12.608
72272ION    NA+38703  19.720   4.763  14.565
72273ION    NA+38704   5.031   3.838  10.320
72274ION    NA+38705  13.218  17.898  11.601
72275ION    NA+38706  14.336  36.317  14.512
72276ION    NA+38707  14.957  33.269  12.831
72277ION    NA+38708  19.311  29.405  14.405
72278ION    NA+38709  10.761   3.908  11.254
72279ION    NA+38710  15.525   0.753  12.172
72280ION    NA+38711   4.816  22.638  13.992
72281ION    NA+38712  29.192  42.547   0.066
72282ION    NA+38713   6.096  18.510  12.008
72283ION    NA+38714   4.599  15.830   1.817
72284ION    NA+38715  38.444  11.696   3.172
72285ION    NA+38716   5.241  13.743   4.027
72286ION    NA+38717  10.167   6.451   0.618
72287ION    NA+38718  34.555  33.422   3.016
72288ION    NA+38719   9.521  29.486   2.144
72289ION    NA+38720  27.023  20.645  12.129
72290ION    NA+38721  15.141   7.261   4.635
72291ION    NA+38722  24.473   2.956   2.680
72292ION    NA+38723  30.360  42.315   0.775
72293ION    NA+38724   4.361  14.851  10.748
72294ION    NA+38725  38.745  20.430   4.085
72295ION    NA+38726  28.811  26.241   0.874
72296ION    NA+38727   3.796  18.554   3.754
72297ION    NA+38728  34.995  36.608   4.002
72298ION    NA+38729  39.647  29.048   2.651
72299ION    NA+38730   9.710  33.945   4.651
72300ION    NA+38731  20.762  12.333  11.180
72301ION    NA+38732  24.038  33.250   2.931
72302ION    NA+38733  13.632  21.635  13.582
72303ION    NA+38734  17.112  18.558  12.807
72304ION    NA+38735  41.536  41.053  13.650
72305ION    NA+38736  17.715  26.037  11.770
72306ION    NA+38737  36.909  28.001  14.286
72307ION    NA+38738  29.578  27.105  13.403
72308ION    NA+38739  36.221  19.655   3.689
72309ION    NA+38740   3.845  19.447  13.082
72310ION    NA+38741  19.267  14.270  11.587
72311ION    NA+38742  40.151  38.255   4.107
72312ION    NA+38743  42.408  44.365  14.685
72313ION    NA+38744  37.051   3.677  11.323
72314ION    NA+38745  27.024   5.919   3.065
72315ION    NA+38746  23.028  20.568   1.442
72316ION    NA+38747   4.386   8.068   0.011
72317ION    NA+38748  12.686  44.804  14.938
72318ION    NA+38749  42.993  35.810  13.921
72319ION    NA+38750  14.761  11.420  14.731
72320ION    NA+38751  15.052   1.675  10.850
72321ION    NA+38752  23.682  21.616  13.079
72322ION    NA+38753  12.117  33.651  12.180
72323ION    NA+38754  37.227   0.511   3.701
72324ION    NA+38755   9.147  39.300   0.609
72325ION    NA+38756   1.895  17.869  11.241
72326ION    NA+38757  18.636  19.626   5.222
72327ION    NA+38758  44.928  27.784   2.806
72328ION    NA+38759  39.447  40.546  14.134
72329ION    NA+38760   0.039  33.104   1.541
72330ION    NA+38761   5.799  16.678  13.413
72331ION    NA+38762   8.882   6.795  11.118
72332ION    NA+38763  12.342   1.650  10.386
72333ION    NA+38764   2.401   8.668   1.729
72334ION    NA+38765  43.316   7.322  13.380
72335ION    NA+38766  14.511  32.012   2.796
72336ION    NA+38767  42.750  29.668  10.030
72337ION    NA+38768   6.672  24.143  14.852
72338ION    NA+38769  28.147  26.472   5.104
72339ION    NA+38770   3.681  14.070  12.541
72340ION    NA+38771  19.865  19.638   0.995
72341ION    NA+38772  40.908  34.252  11.596
72342ION    NA+38773   6.361  31.845   0.271
72343ION    NA+38774  41.382  13.826  11.498
72344ION    NA+38775   2.039  28.068  10.304
72345ION    NA+38776  39.260   1.381  12.728
72346ION    NA+38777  38.778   5.174   0.303
72347ION    NA+38778  44.251  33.068   5.116
72348ION    NA+38779  22.334  37.591   3.213
72349ION    NA+38780   4.121  10.012   3.664
72350ION    NA+38781   6.906  19.585   4.090
72351ION    NA+38782  32.205  38.066   1.936
72352ION    NA+38783  23.859  25.872  10.786
72353ION    NA+38784   4.046  30.333  14.002
72354ION    NA+38785  21.477  37.244  11.968
72355ION    NA+38786  27.722  35.643   2.447
72356ION    NA+38787  17.172  33.696  11.115
72357ION    NA+38788  31.241   4.814  11.745
72358ION    NA+38789  13.560  15.154   0.352
72359ION    NA+38790   3.313  24.809  12.478
72360ION    NA+38791   5.741  32.221   3.645
72361ION    NA+38792   1.974   0.276  13.819
72362ION    NA+38793   7.273  19.581   9.825
72363ION    NA+38794  37.118  44.838  14.711
72364ION    NA+38795  32.098  27.641  12.605
72365ION    NA+38796  26.137   2.589   0.693
72366ION    NA+38797   4.354  27.842   2.114
72367ION    NA+38798  21.645  43.026  11.385
72368ION    NA+38799  39.143  33.047  13.674
72369ION    NA+38800   6.552   2.022  11.000
72370ION    NA+38801  43.778  16.991  13.936
72371ION    NA+38802  25.113   4.869  12.102
72372ION    NA+38803  12.577   6.968   0.492
72373ION    NA+38804  16.966  32.806  11.650
72374ION    NA+38805  16.659   8.252   2.145
72375ION    NA+38806  28.847  16.098   4.420
72376ION    NA+38807  15.179  32.164  12.035
72377ION    NA+38808  19.037  35.058   4.477
72378ION    NA+38809  39.967  10.055   0.389
72379ION    NA+38810  19.286   8.057  11.161
72380ION    NA+38811  41.095  28.421  14.289
72381ION    NA+38812  23.243  41.264   0.980
72382ION    NA+38813  22.469   2.506  11.473
72383ION    NA+38814  27.501  21.760   3.576
72384ION    NA+38815  21.383  19.670   5.446
72385ION    NA+38816  11.863  40.633   0.743
72386ION    NA+38817   5.346  43.275  14.802
72387ION    NA+38818  31.687  39.463  10.196
72388ION    NA+38819  32.968  36.735   1.609
72389ION    NA+38820  15.630  35.808   2.547
72390ION    NA+38821  19.315   2.636  14.171
72391ION    NA+38822  20.426   4.577   4.499
72392ION    NA+38823   6.379   8.719  14.751
72393ION    NA+38824  38.649  27.090  11.557
72394ION    NA+38825  36.420   6.053   4.145
72395ION    NA+38826  29.995   7.189   0.305
72396ION    NA+38827   8.992  33.093   4.180
72397ION    NA+38828  35.319  23.270   0.769
72398ION    NA+38829  19.485  34.281   1.754
72399ION    NA+38830  16.364  16.168  14.391
72400ION    NA+38831  16.338  24.554   1.504
72401ION    NA+38832   1.903   0.352  12.478
72402ION    NA+38833  16.086  34.701   1.203
72403ION    NA+38834  32.004  26.224   1.875
72404ION    NA+38835   7.851  29.091  11.922
72405ION    NA+38836   7.913  38.604   2.637
72406ION    NA+38837   4.732  33.649   0.445
72407ION    NA+38838  10.140  16.858  13.928
72408ION    NA+38839  23.247  37.494  10.804
72409ION    NA+38840   7.626  16.927  10.440
72410ION    NA+38841  17.988  33.299   3.660
72411ION    NA+38842  40.135  13.707  14.420
72412ION    NA+38843  24.041  32.385  13.266
72413ION    NA+38844  16.426  18.222   0.299
72414ION    NA+38845  24.318   5.481   0.032
72415ION    NA+38846  40.803   6.149   0.066
72416ION    NA+38847  24.820  19.691  13.165
72417ION    NA+38848   7.773   4.355   1.077
72418ION    NA+38849  11.006  28.767   1.660
72419ION    NA+38850  26.907   3.521  10.687
72420ION    NA+38851  20.881  25.333   0.409
72421ION    NA+38852  29.327  29.738   2.645
72422ION    NA+38853   1.115  28.973  13.622
72423ION    NA+38854  30.930  22.189   1.696
72424ION    NA+38855   5.549  15.835  11.394
72425ION    NA+38856  33.879  24.073  13.670
72426ION    NA+38857  43.269  21.891  10.728
72427ION    NA+38858  19.595   9.966  13.108
72428ION    NA+38859   5.787  31.721   4.403
72429ION    NA+38860  14.837  44.794  14.896
72430ION    NA+38861  36.604   5.285   3.529
72431ION    NA+38862  28.193  23.067   4.291
72432ION    NA+38863   2.020   3.318  12.057
72433ION    NA+38864  28.168   8.250  13.892
72434ION    NA+38865   4.892  23.720   1.416
72435ION    NA+38866  14.285  44.318  12.468
72436ION    NA+38867  25.612  18.182   4.071
72437ION    NA+38868  32.443  43.525  13.242
72438ION    NA+38869   1.944  34.534   3.812
72439ION    NA+38870   8.937  35.205  12.690
72440ION    NA+38871  40.293  23.937  14.022
72441ION    NA+38872  22.602  16.942  13.789
72442ION    NA+38873   4.228   8.551  10.702
72443ION    NA+38874   3.055  29.835  14.708
72444ION    NA+38875  25.540  40.483   3.091
72445ION    NA+38876  38.632  28.964   2.712
72446ION    NA+38877  34.272   7.333   1.409
72447ION    NA+38878  44.301  35.305   2.383
72448ION    NA+38879  42.308   7.306   3.749
72449ION    NA+38880   6.653  25.830  11.144
72450ION    NA+38881   7.775  31.154  10.730
72451ION    NA+38882   9.578   1.248  14.935
72452ION    NA+38883  23.138  32.830   2.815
72453ION    NA+38884  43.228   0.983  11.179
72454ION    NA+38885  39.238  33.299   5.470
72455ION    NA+38886   4.979   4.308   2.757
72456ION    NA+38887  32.152  16.136  10.964
72457ION    NA+38888  31.251  13.473   1.901
72458ION    NA+38889  23.844  28.463  14.210
72459ION    NA+38890  12.039  22.502  12.216
72460ION    NA+38891   2.864   5.357  13.279
72461ION    NA+38892  31.101  30.914   3.505
72462ION    NA+38893  11.209  12.118   5.043
72463ION    NA+38894   0.704  35.120  11.438
72464ION    NA+38895  31.361  26.083  12.573
72465ION    NA+38896  18.480  35.478  13.793
72466ION    NA+38897  13.326  29.704  13.738
72467ION    NA+38898  43.458  37.332  13.367
72468ION    NA+38899  42.018  38.961   0.051
72469ION    NA+38900   3.938   8.936   2.496
72470ION    NA+38901  38.146   9.917   0.094
72471ION    NA+38902  27.463   0.213  12.501
72472ION    NA+38903  37.461  23.719   3.188
72473ION    NA+38904  41.618  35.864   2.184
72474ION    NA+38905  28.444  28.078   0.501
72475ION    NA+38906   5.173  28.292  10.393
72476ION    NA+38907  38.928  39.132  14.929
72477ION    NA+38908  43.077  22.031   3.358
72478ION    NA+38909  34.847  12.282  12.433
72479ION    NA+38910   6.510  35.300  14.716
72480ION    NA+38911  43.101  42.504   5.092
72481ION    NA+38912   9.367  36.730   1.475
72482ION    NA+38913  32.990   6.401   3.171
72483ION    NA+38914  34.375  11.243  13.280
72484ION    NA+38915  23.749  20.699   4.681
72485ION    NA+38916  30.065  19.119  13.857
72486ION    NA+38917  19.354  13.473  10.283
72487ION    NA+38918  13.182  26.660   2.975
72488ION    NA+38919  33.714   6.605   1.376
72489ION    NA+38920  11.400  42.816   1.219
72490ION    NA+38921  23.680  39.500   2.769
72491ION    NA+38922   7.803  42.454  14.762
72492ION    NA+38923  40.818   3.528   0.581
72493ION    NA+38924  36.817  32.164  11.700
72494ION    NA+38925  19.351  18.195  11.192
72495ION    NA+38926  42.379  31.993  12.084
72496ION    NA+38927  35.949   3.923   3.265
72497ION    NA+38928  30.680  35.593   1.813
72498ION    NA+38929  16.342  33.993   2.450
72499ION    NA+38930  39.383  21.470  12.084
72500ION    NA+38931   2.227  34.922  10.734
72501ION    NA+38932  34.405  24.114  14.520
72502ION    NA+38933  40.430   4.617   4.050
72503ION    NA+38934  26.293  36.898  13.140
72504ION    NA+38935  33.476   3.885  12.568
72505ION    NA+38936  27.820  26.166   0.720
72506ION    NA+38937  22.709  41.521   2.260
72507ION    NA+38938  39.473  19.692  12.647
72508ION    NA+38939  43.774   0.062  13.028
72509ION    NA+38940   8.820  40.929   3.769
72510ION    NA+38941  26.061  29.059  13.028
72511ION    NA+38942  27.494  39.499   4.399
72512ION    NA+38943  11.363   0.847   3.980
72513ION    NA+38944  32.046   1.192   4.325
72514ION    NA+38945  17.919  20.918  13.643
72515ION    NA+38946   0.148  19.932   4.129
72516ION    NA+38947  15.860  38.493  11.817
72517ION    NA+38948   3.279  18.789  12.891
72518ION    NA+38949  37.384  32.876  13.976
72519ION    NA+38950   6.202  43.943   2.095
72520ION    NA+38951  23.232   7.000   0.384
72521ION    NA+38952  20.820  24.662  13.928
72522ION    NA+38953  12.960  40.524  14.588
72523ION    NA+38954  11.314  15.332  14.748
72524ION    NA+38955  17.168  34.581   2.244
72525ION    NA+38956  28.687  28.952   4.605
72526ION    NA+38957  33.383  11.169   4.756
72527ION    NA+38958  42.998  42.133   1.345
72528ION    NA+38959  25.751  31.344  11.875
72529ION    NA+38960  13.402  25.656  11.262
72530ION    NA+38961  24.664  22.599  11.916
72531ION    NA+38962  19.589  43.168  11.170
72532ION    NA+38963  16.812  10.980   9.382
72533ION    NA+38964  14.403  41.154   1.603
72534ION    NA+38965  11.015  10.770  14.544
72535ION    NA+38966  14.387  35.325  14.399
72536ION    NA+38967  39.879  28.980  12.633
72537ION    NA+38968   3.101  33.049  13.217
72538ION    NA+38969  43.563  40.253   1.650
72539ION    NA+38970  38.972  29.954   3.150
72540ION    NA+38971  24.259   0.857  14.477
72541ION    NA+38972  24.417   8.089  11.664
72542ION    NA+38973  12.526  22.723  12.985
72543ION    NA+38974  33.710  25.497  11.066
72544ION    NA+38975   7.445  39.962   2.295
72545ION    NA+38976  35.624  29.369   0.690
72546ION    NA+38977  40.296  14.601   4.151
72547ION    NA+38978  44.864   8.005   0.751
72548ION    NA+38979  12.324  31.452  14.001
72549ION    NA+38980  19.658   7.767  12.499
72550ION    NA+38981  40.367  20.703  13.574
72551ION    NA+38982  24.544  42.531  11.254
72552ION    NA+38983  16.024  27.467   2.578
72553ION    NA+38984  42.478  24.732   4.887
72554ION    NA+38985  27.058  26.722   0.328
72555ION    NA+38986  19.357  41.100   4.184
72556ION    NA+38987  15.347  16.531   3.781
72557ION    NA+38988  30.477  14.910   0.412
72558ION    NA+38989  26.322  30.285  12.839
72559ION    NA+38990  32.407  30.174  14.010
72560ION    NA+38991  25.756  33.323  11.186
72561ION    NA+38992  28.176   6.430  14.110
72562ION    NA+38993   3.565  31.481  11.037
72563ION    NA+38994  25.236  19.219   2.609
72564ION    NA+38995   5.199  41.021  11.898
72565ION    NA+38996  20.536   6.997   3.736
72566ION    NA+38997  31.591  33.025  14.517
72567ION    NA+38998  10.131   9.781   4.014
72568ION    NA+38999  11.854  41.437  14.678
72569ION    NA+39000  28.497  14.307  11.730
72570ION    NA+39001  25.149  43.347   1.511
72571ION    NA+39002  32.093   7.131  11.130
72572ION    NA+39003  37.981  27.700  11.131
72573ION    NA+39004   0.998  18.535  14.549
72574ION    NA+39005  38.407   8.140   3.650
72575ION    NA+39006  32.822  17.610  11.265
72576ION    NA+39007  33.024  12.995   2.103
72577ION    NA+39008  39.464   7.275  13.953
72578ION    NA+39009  32.872  15.489   4.248
72579ION    NA+39010  30.087  33.909   1.185
72580ION    NA+39011  11.990  30.251   2.520
72581ION    NA+39012  14.113  42.773  12.504
72582ION    NA+39013  16.941  16.675  14.720
72583ION    NA+39014  39.170  30.491  10.725
72584ION    NA+39015   6.193  36.646  11.732
72585ION    NA+39016   1.700  28.552   3.034
72586ION    NA+39017  15.340  32.903  11.244
72587ION    NA+39018   1.295  10.089   5.236
72588ION    NA+39019  37.598  36.843   2.187
72589ION    NA+39020  20.147  22.654   2.805
72590ION    NA+39021  16.378   3.189  10.225
72591ION    NA+39022  39.320  39.673  11.341
72592ION    NA+39023  35.874  28.962   5.401
72593ION    NA+39024   4.642   4.146  12.264
72594ION    NA+39025  12.758  27.204   3.523
72595ION    NA+39026  23.253  10.716  12.200
72596ION    NA+39027   4.262  21.812   3.646
72597ION    NA+39028  16.287  42.948  11.042
72598ION    NA+39029  26.948  21.790   2.203
72599ION    NA+39030  44.398  29.423   5.031
72600ION    NA+39031  15.142  43.540  12.475
72601ION    NA+39032  10.048   7.876  11.662
72602ION    NA+39033  26.430   7.300   4.117
72603ION    NA+39034  28.529  25.847  14.999
72604ION    NA+39035  31.290  44.312  14.047
72605ION    NA+39036  16.542  40.999  12.535
72606ION    NA+39037  43.546  19.500   0.341
72607ION    NA+39038  37.117  41.157   0.965
72608ION    NA+39039  30.161  37.398  14.887
72609ION    NA+39040  39.495  18.264   1.140
72610ION    NA+39041  39.761  24.120   2.750
72611ION    NA+39042  41.797  19.678   2.616
72612ION    NA+39043  16.365  14.254   1.035
72613ION    NA+39044  33.062  22.467  13.551
72614ION    NA+39045  36.509  39.557  13.416
72615ION    NA+39046  24.041   8.229  10.748
72616ION    NA+39047   7.471  24.662  11.174
72617ION    NA+39048  27.093   9.675  14.249
72618ION    NA+39049   8.168  23.461  10.678
72619ION    NA+39050  37.524  21.722  11.301
72620ION    NA+39051  27.696  18.560  14.078
72621ION    NA+39052  21.455  15.500  13.361
72622ION    NA+39053  36.160   9.664  14.879
72623ION    NA+39054  43.934  29.211  11.657
72624ION    NA+39055  25.543  35.107   4.257
72625ION    NA+39056  18.442  27.930   5.332
72626ION    NA+39057  21.425  20.210  13.070
72627ION    NA+39058   0.184  12.862   2.172
72628ION    NA+39059  26.659  26.454  12.458
72629ION    NA+39060  13.656  14.098  10.681
72630ION    NA+39061  16.102  30.150   3.256
72631ION    NA+39062  18.813  33.626   3.200
72632ION    NA+39063  43.976   6.858   2.370
72633ION    NA+39064   8.572  36.946   0.275
72634ION    NA+39065  15.727  21.975   0.756
72635ION    NA+39066  20.953  18.608   1.011
72636ION    NA+39067  29.350  25.703  12.053
72637ION    NA+39068  19.405  13.207  13.470
72638ION    NA+39069  17.209  24.155   5.076
72639ION    NA+39070  18.453  17.245  13.457
72640ION    NA+39071   1.749  10.104  11.439
72641ION    NA+39072  29.391  22.609  11.587
72642ION    NA+39073  36.450   8.429   2.713
72643ION    NA+39074  20.301  23.546   3.778
72644ION    NA+39075  44.582  27.261   1.273
72645ION    NA+39076  26.142  36.059  12.617
72646ION    NA+39077  35.906  16.200   2.279
72647ION    NA+39078  23.293  36.010  12.886
72648ION    NA+39079  26.903  25.248   1.043
72649ION    NA+39080   7.972  18.259   2.601
72650ION    NA+39081  23.956   2.849   4.058
72651ION    NA+39082  24.666  12.917  13.153
72652ION    NA+39083  38.868  24.978  13.462
72653ION    NA+39084  19.152  31.669  14.970
72654ION    NA+39085  20.473  31.954   2.285
72655ION    NA+39086   1.774  41.479  14.394
72656ION    NA+39087  31.752  27.190  10.942
72657ION    NA+39088  18.862  34.473  13.073
72658ION    NA+39089  19.968  29.982  11.051
72659ION    NA+39090  43.350   0.844  12.162
72660ION    NA+39091  34.374  41.722   3.145
72661ION    NA+39092   3.026  42.334  11.010
72662ION    NA+39093  38.286  33.919  14.952
72663ION    NA+39094  10.923  10.475  13.332
72664ION    NA+39095   2.679  16.660   0.553
72665ION    NA+39096  44.809  44.551   2.331
72666ION    NA+39097  38.210  19.141   4.399
72667ION    NA+39098   5.815  13.390  10.695
72668ION    NA+39099   2.652  10.274   0.293
72669ION    NA+39100   0.902  42.458  14.362
72670ION    NA+39101   0.288  29.020  13.498
72671ION    NA+39102  43.725  11.550   0.428
72672ION    NA+39103  44.025  23.091   3.224
72673ION    NA+39104  26.138  22.874  11.050
72674ION    NA+39105  22.393   5.178   2.657
72675ION    NA+39106   9.621  15.841  13.946
72676ION    NA+39107  14.123   3.448   0.443
72677ION    NA+39108  39.214  35.502  14.662
72678ION    NA+39109  22.726  26.084   3.392
72679ION    NA+39110  41.782  35.654  14.932
72680ION    NA+39111  43.988   3.825  12.525
72681ION    NA+39112  27.288  44.423   3.754
72682ION    NA+39113  35.673  31.029  12.431
72683ION    NA+39114  25.476  30.064   2.382
72684ION    NA+39115  40.017   9.587   2.442
72685ION    NA+39116  27.660  10.338   0.475
72686ION    NA+39117  33.432  41.511   4.089
72687ION    NA+39118  27.832  37.349   5.041
72688ION    NA+39119  29.818  40.407  14.857
72689ION    NA+39120  34.527   1.788  10.545
72690ION    NA+39121  41.682   2.588  14.373
72691ION    NA+39122   8.767  30.322   0.342
72692ION    NA+39123  11.760   0.346  12.508
72693ION    NA+39124  19.016  19.814  12.392
72694ION    NA+39125   4.854  28.344   1.032
72695ION    NA+39126   7.427   9.100   3.712
72696ION    NA+39127  15.772  12.159  13.142
72697ION    NA+39128  36.911  41.192  10.264
72698ION    NA+39129  18.076  38.531   2.399
72699ION    NA+39130  19.214  20.630   3.200
72700ION    NA+39131  20.350  35.162   2.081
72701ION    NA+39132  23.942  17.828   0.018
72702ION    NA+39133  16.403  32.767  12.940
72703ION    NA+39134  32.124  15.580  13.105
72704ION    NA+39135  23.048  14.077   2.393
72705ION    NA+39136   1.172  37.940   3.777
72706ION    NA+39137  28.336  21.459  13.909
72707ION    NA+39138  29.950  22.114  13.731
72708ION    NA+39139   7.951  36.717  12.890
72709ION    NA+39140   7.636  39.323   3.049
72710ION    NA+39141  33.965   1.466  11.666
72711ION    NA+39142  44.952   7.835   3.698
72712ION    NA+39143  25.483  20.784   1.160
72713ION    NA+39144  18.524  39.345  10.969
72714ION    NA+39145   1.309  21.025   5.069
72715ION    NA+39146  44.040  23.831  11.420
72716ION    NA+39147   1.805  44.637   4.214
72717ION    NA+39148  28.692   5.518   0.158
72718ION    NA+39149  14.859  12.975  10.698
72719ION    NA+39150  17.664  27.976   1.368
72720ION    NA+39151  33.117  34.882  14.400
72721ION    NA+39152  15.258  17.192  14.763
72722ION    NA+39153  24.319  16.527  14.047
72723ION    NA+39154  43.354  36.610   3.201
72724ION    NA+39155  25.473  38.219   3.427
72725ION    NA+39156  38.068  39.751   2.765
72726ION    NA+39157  43.407  41.528   0.115
72727ION    NA+39158   0.781  28.825  12.896
72728ION    NA+39159   4.073  43.171   1.609
72729ION    NA+39160   0.043   4.670  12.554
72730ION    NA+39161  13.409   9.922   4.523
72731ION    NA+39162  31.074  40.459  12.312
72732ION    NA+39163   6.249  30.871  14.734
72733ION    NA+39164  19.105  32.692  13.187
72734ION    NA+39165   4.809   8.369   3.395
72735ION    NA+39166  27.499  33.095  13.340
72736ION    NA+39167  27.422  26.152  11.352
72737ION    NA+39168  18.915  36.540  11.990
72738ION    NA+39169  37.787  41.001   1.715
72739ION    NA+39170  18.780  44.691  14.404
72740ION    NA+39171  24.056  21.079  12.322
72741ION    NA+39172  28.161  41.953  13.333
72742ION    NA+39173  14.832  31.278  11.294
72743ION    NA+39174  44.797   7.965   1.807
72744ION    NA+39175  41.806  23.600   3.921
72745ION    NA+39176   9.427  10.377   1.288
72746ION    NA+39177  18.141  42.925  10.427
72747ION    NA+39178  43.504  43.301   4.854
72748ION    NA+39179  38.242  16.628   4.314
72749ION    NA+39180  29.732   0.929  13.471
72750ION    NA+39181  17.180  23.510   3.233
72751ION    NA+39182  28.586  23.276   0.462
72752ION    NA+39183  29.512  37.331   5.373
72753ION    NA+39184  36.949  23.640   1.814
72754ION    NA+39185  13.009  22.197  14.127
72755ION    NA+39186   4.118  34.760  11.270
72756ION    NA+39187  26.707  40.024   2.332
72757ION    NA+39188  17.492  12.675   4.585
72758ION    NA+39189  27.144  40.041  14.280
72759ION    NA+39190  13.166  32.347   4.331
72760ION    NA+39191   7.356   6.631  10.740
72761ION    NA+39192  27.961  17.060  13.781
72762ION    NA+39193  28.966  31.467   2.410
72763ION    NA+39194  32.663  30.532  14.908
72764ION    NA+39195  10.271  38.612   4.823
72765ION    NA+39196  15.534  13.115   4.864
72766ION    NA+39197  42.288   2.223   3.450
72767ION    NA+39198  44.037  35.298  12.603
72768ION    NA+39199  20.582   7.788  14.805
72769ION    NA+39200   9.196  26.658  12.976
72770ION    NA+39201  38.579  12.360   1.293
72771ION    NA+39202  24.900  36.654  12.850
72772ION    NA+39203  39.482  18.599   2.101
72773ION    NA+39204   9.876  44.414   5.346
72774ION    NA+39205  25.640  24.927  14.133
72775ION    NA+39206  41.199  15.558   1.864
72776ION    NA+39207  24.850  15.141  13.364
72777ION    NA+39208  23.423  10.221   2.669
72778ION    NA+39209   0.434  18.093   2.043
72779ION    NA+39210  31.812  40.031   1.390
72780ION    NA+39211  22.748  39.959   3.149
72781ION    NA+39212  11.029  21.280  10.977
72782ION    NA+39213   8.363  39.668  10.929
72783ION    NA+39214  36.898   8.882   4.168
72784ION    NA+39215   1.498  25.354  12.318
72785ION    NA+39216  20.918  36.774   4.542
72786ION    NA+39217  27.051  32.821   0.419
72787ION    NA+39218  14.443   8.417  11.709
72788ION    NA+39219  38.769  39.977  13.435
72789ION    NA+39220  22.865   1.630  11.750
72790ION    NA+39221  11.889  41.037   3.737
72791ION    NA+39222  22.045  15.634   2.313
72792ION    NA+39223  42.756  16.654  14.148
72793ION    NA+39224  41.318   6.849   1.401
72794ION    NA+39225  15.068  14.298  13.683
72795ION    NA+39226  43.477   1.911  10.903
72796ION    NA+39227  35.299  39.949  13.909
72797ION    NA+39228  10.917  27.167  12.956
72798ION    NA+39229  21.099  37.771   1.465
72799ION    NA+39230  44.872  36.304   4.410
72800ION    NA+39231  30.188  22.710  10.455
72801ION    NA+39232  13.501   8.504   0.270
72802ION    NA+39233  25.709  37.306   3.094
72803ION    NA+39234   6.630   5.811   2.804
72804ION    NA+39235  31.912  10.183   1.254
72805ION    NA+39236  37.189  11.295  14.463
72806ION    NA+39237  37.311  32.021   2.344
72807ION    NA+39238  18.492   3.887  11.979
72808ION    NA+39239  35.264  30.106   1.114
72809ION    NA+39240  26.973  27.178  11.294
72810ION    NA+39241  32.632  29.047  12.070
72811ION    NA+39242  15.718  12.778   4.056
72812ION    NA+39243  18.131   6.085  12.452
72813ION    NA+39244  30.990  26.535   1.903
72814ION    NA+39245  21.644  25.136  15.000
72815ION    NA+39246  42.761  10.477  11.157
72816ION    NA+39247  10.511  29.595   2.240
72817ION    NA+39248  20.843  32.023  12.563
72818ION    NA+39249  36.778  40.867  12.457
72819ION    NA+39250  11.305  35.844   1.224
72820ION    NA+39251  25.441  27.384   0.057
72821ION    NA+39252  37.584  42.041   0.960
72822ION    NA+39253   1.767   8.121  14.933
72823ION    NA+39254  38.127  24.038   3.544
72824ION    NA+39255  39.394  27.574   4.795
72825ION    NA+39256   1.522  22.522  14.592
72826ION    NA+39257  42.033   9.270   4.510
72827ION    NA+39258   3.724  23.768  11.885
72828ION    NA+39259  37.148   8.944  13.507
72829ION    NA+39260  30.904  42.981  10.956
72830ION    NA+39261   7.673   8.412  14.012
72831ION    NA+39262  27.196  37.817  13.400
72832ION    NA+39263  17.200  26.562  13.494
72833ION    NA+39264  13.102  17.520   1.926
72834ION    NA+39265  26.050  27.080   0.797
72835ION    NA+39266  37.581   7.336   2.072
72836ION    NA+39267   5.491  16.522   0.315
72837ION    NA+39268  36.483  41.470  14.576
72838ION    NA+39269  40.811  36.352   1.700
72839ION    NA+39270   9.198  26.609   4.154
72840ION    NA+39271  24.690   1.422  12.199
72841ION    NA+39272   3.242   2.332   0.498
72842ION    NA+39273  11.083  17.517  13.030
72843ION    NA+39274  24.227  31.088   1.312
72844ION    NA+39275  36.340  38.353   2.556
72845ION    NA+39276  38.974  35.599   3.280
72846ION    NA+39277   1.971  39.820   0.948
72847ION    NA+39278  17.571  26.597   2.515
72848ION    NA+39279  13.788  16.131  12.598
72849ION    NA+39280   5.007  42.211  14.829
72850ION    NA+39281  40.494  27.165   1.110
72851ION    NA+39282   0.646  30.960   0.987
72852ION    NA+39283  14.425  16.578   2.865
72853ION    NA+39284  18.638  32.524   0.026
72854ION    NA+39285   0.736  33.130   4.280
72855ION    NA+39286  13.503  33.663   0.909
72856ION    NA+39287  17.941   9.182   0.327
72857ION    NA+39288  24.614   2.228  14.986
72858ION    NA+39289   6.598   7.631   0.590
72859ION    NA+39290  40.864  18.650   2.457
72860ION    NA+39291   3.288   5.569   0.445
72861ION    NA+39292   5.853   4.473   4.349
72862ION    NA+39293  12.109  28.532  12.823
72863ION    NA+39294  44.282  18.841   3.237
72864ION    NA+39295   9.152  12.549   1.366
72865ION    NA+39296   6.943   9.763   3.016
72866ION    NA+39297  34.934  27.488   2.381
72867ION    NA+39298   3.650  21.031  13.177
72868ION    NA+39299  40.080  30.591   0.207
72869ION    NA+39300   7.266  12.342   1.747
72870ION    NA+39301  10.598   9.631   4.753
72871ION    NA+39302  36.594  27.857  11.535
72872ION    NA+39303  37.855  16.007  11.312
72873ION    NA+39304  17.782   6.854  10.729
72874ION    NA+39305  13.427  41.021   3.694
72875ION    NA+39306  25.343  15.295   1.375
72876ION    NA+39307  40.520  43.559   4.059
72877ION    NA+39308  11.536  40.217   3.643
72878ION    NA+39309  27.203  37.610  10.443
72879ION    NA+39310  35.501  17.225  12.352
72880ION    NA+39311  12.670  43.286   2.768
72881ION    NA+39312   3.102  27.233   4.438
72882ION    NA+39313  30.889  25.682   1.334
72883ION    NA+39314  38.315  30.405   9.634
72884ION    NA+39315   0.264  10.814   1.133
72885ION    NA+39316  28.781  24.150   1.567
72886ION    NA+39317  32.467  41.924   0.165
72887ION    NA+39318  20.386   9.360   4.896
72888ION    NA+39319  43.821  27.906   1.199
72889ION    NA+39320  25.181  28.385  11.110
72890ION    NA+39321  16.735  31.526  12.476
72891ION    NA+39322   0.807  44.779   2.699
72892ION    NA+39323  40.981  42.943   1.345
72893ION    NA+39324  14.946  39.816  14.711
72894ION    NA+39325  44.158   9.869  12.110
72895ION    NA+39326  19.297  36.771  13.696
72896ION    NA+39327  30.161   6.623  13.930
72897ION    NA+39328  20.570  10.065   0.944
72898ION    NA+39329  38.951  18.565  13.323
72899ION    NA+39330  37.769  28.486  11.712
72900ION    NA+39331  18.178  17.983   1.562
72901ION    NA+39332  44.075  12.452   0.174
72902ION    NA+39333  12.143  43.835  12.953
72903ION    NA+39334  26.438   4.954  13.982
72904ION    NA+39335   2.648  19.022   1.934
72905ION    NA+39336  43.947  27.472  11.239
72906ION    NA+39337  13.309  32.228   0.130
72907ION    NA+39338  20.750  42.312  11.940
72908ION    NA+39339   5.228  24.583  11.607
72909ION    NA+39340   0.085  26.543   3.272
72910ION    NA+39341  33.310  19.779  13.593
72911ION    NA+39342   1.351  11.627  11.518
72912ION    NA+39343   9.516   5.257   4.191
72913ION    NA+39344  20.075  39.549   1.446
72914ION    NA+39345   1.713  13.575   2.659
72915ION    NA+39346  14.735  22.092   0.802
72916ION    NA+39347  25.317  29.364  11.259
72917ION    NA+39348  13.063   4.934  12.907
72918ION    NA+39349  32.158  14.371  14.350
72919ION    NA+39350  17.979  16.221   0.280
72920ION    NA+39351   9.282  15.359  13.300
72921ION    NA+39352   2.926  20.590  13.745
72922ION    NA+39353  15.884  18.807   1.394
72923ION    NA+39354  33.261  13.634   1.113
72924ION    NA+39355   1.513  39.947   0.068
72925ION    NA+39356  39.078  26.589   3.426
72926ION    NA+39357  34.832  33.049  14.719
72927ION    NA+39358  39.502  12.086  14.731
72928ION    NA+39359  25.600  14.070   0.276
72929ION    NA+39360  20.991  44.812  10.942
72930ION    NA+39361   1.851  19.491  14.796
72931ION    NA+39362   0.015  19.476  12.122
72932ION    NA+39363  22.687  36.783  10.718
72933ION    NA+39364  36.823  24.532  14.546
72934ION    NA+39365  43.231  24.876  14.520
72935ION    NA+39366   6.835  16.954  13.285
72936ION    NA+39367  33.456  37.339  13.926
72937ION    NA+39368  39.306   3.531   0.519
72938ION    NA+39369  13.240  29.233   1.494
72939ION    NA+39370  18.054   7.089  12.652
72940ION    NA+39371   7.666  13.802  13.819
72941ION    NA+39372   4.910  15.668  12.215
72942ION    NA+39373   3.399   3.907  13.409
72943ION    NA+39374  12.851  39.785  11.463
72944ION    NA+39375  21.248   2.857  12.601
72945ION    NA+39376  34.218  17.614  11.909
72946ION    NA+39377  23.832   9.432  13.895
72947ION    NA+39378   6.445   2.844  12.463
72948ION    NA+39379  17.885  37.117   3.767
72949ION    NA+39380   5.918  24.014   3.558
72950ION    NA+39381  31.025  29.994  12.419
72951ION    NA+39382   3.714   1.257   0.014
72952ION    NA+39383  44.843   3.314  12.443
72953ION    NA+39384  36.791  40.786   1.835
72954ION    NA+39385   4.353  21.963   1.544
72955ION    NA+39386  16.166  16.791  14.887
72956ION    NA+39387  12.826  29.203  13.011
72957ION    NA+39388   6.238  33.651  13.173
72958ION    NA+39389  17.211  40.143  12.921
72959ION    NA+39390   7.380  28.014  13.683
72960ION    NA+39391  30.386   2.994  13.254
72961ION    NA+39392   7.417  39.197  14.191
72962ION    NA+39393  10.194  11.222   9.828
72963ION    NA+39394  40.196  35.600  12.004
72964ION    NA+39395  27.719  25.018   2.820
72965ION    NA+39396  15.221   2.929  13.416
72966ION    NA+39397  31.031  15.584  14.905
72967ION    NA+39398  33.308  19.618  12.594
72968ION    NA+39399  34.592  15.419   3.012
72969ION    NA+39400  17.584  19.975   1.967
72970ION    NA+39401  16.136  41.734   2.041
72971ION    NA+39402   1.145  19.747  13.456
72972ION    NA+39403   5.816  38.135   0.250
72973ION    NA+39404  26.384   0.347  13.615
72974ION    NA+39405  10.853  24.767  12.785
72975ION    NA+39406  41.699  37.344   0.247
72976ION    NA+39407  13.815   5.349  10.562
72977ION    NA+39408  11.328  13.224   4.677
72978ION    NA+39409  38.446  21.128  13.979
72979ION    NA+39410  23.495   7.669  12.920
72980ION    NA+39411  11.761  18.097  12.478
72981ION    NA+39412  29.589  20.820  13.401
72982ION    NA+39413  33.663  42.422   3.213
72983ION    NA+39414   0.892  16.011  14.352
72984ION    NA+39415   2.880   3.775   4.154
72985ION    NA+39416   3.116  22.688  10.470
72986ION    NA+39417  13.490  16.803  14.241
72987ION    NA+39418  17.471  33.029  12.628
72988ION    NA+39419  40.882   3.796   4.477
72989ION    NA+39420   4.757  40.722   3.824
72990ION    NA+39421  44.508  42.984   0.984
72991ION    NA+39422  39.429  19.752   2.450
72992ION    NA+39423  44.766  17.597   0.487
72993ION    NA+39424  26.379  16.807   4.969
72994ION    NA+39425  31.368   8.056  14.871
72995ION    NA+39426   4.590  17.048  12.905
72996ION    NA+39427  35.407  33.986   2.742
72997ION    NA+39428  15.340   8.789   0.253
72998ION    NA+39429  37.584  43.757   1.953
72999ION    NA+39430  15.307   0.886   1.612
73000ION    NA+39431  17.011   8.585   3.021
73001ION    NA+39432  32.660   1.663   0.225
73002ION    NA+39433  24.109  12.677  11.329
73003ION    NA+39434  21.925  35.779   4.131
73004ION    NA+39435  20.247  19.495  14.669
73005ION    NA+39436   3.690  39.402   0.026
73006ION    NA+39437  16.056  39.351  10.747
73007ION    NA+39438  38.063  42.596  14.540
73008ION    NA+39439   7.998  25.060   3.991
73009ION    NA+39440  13.746  34.528   1.391
73010ION    NA+39441  36.778  26.595   4.043
73011ION    NA+39442  21.299   3.080   1.562
73012ION    NA+39443  32.899  17.442   2.143
73013ION    NA+39444   8.980   9.733   0.846
73014ION    NA+39445  19.468  29.247   2.580
73015ION    NA+39446   1.462   3.451  14.872
73016ION    NA+39447   2.419  21.438   0.860
73017ION    NA+39448   9.378  14.728   3.822
73018ION    NA+39449  22.627  33.294   3.661
73019ION    NA+39450   6.774  24.006  12.889
73020ION    NA+39451  41.656  12.803  11.472
73021ION    NA+39452   1.948  35.140   2.167
73022ION    NA+39453  39.918   3.078  14.871
73023ION    NA+39454  38.119  43.186   1.540
73024ION    NA+39455  27.000  10.228   1.841
73025ION    NA+39456   8.146  43.060  12.842
73026ION    NA+39457  35.775   5.203   0.743
73027ION    NA+39458   5.372  42.569  11.779
73028ION    NA+39459  43.753   2.780  12.324
73029ION    NA+39460   6.223  15.082   1.286
73030ION    NA+39461  31.512  44.840   0.715
73031ION    NA+39462   5.131  39.968  12.038
73032ION    NA+39463  15.312  42.010  11.226
73033ION    NA+39464   6.823  15.295   4.458
73034ION    NA+39465  25.948  19.130  12.204
73035ION    NA+39466  34.019  42.986  13.616
73036ION    NA+39467  11.915  34.078   2.681
73037ION    NA+39468  35.005  21.144   3.672
73038ION    NA+39469  24.667   5.914  11.092
73039ION    NA+39470  13.226  33.104  12.183
73040ION    NA+39471  10.569  39.086  12.132
73041ION    NA+39472  41.732   1.345  12.541
73042ION    NA+39473  32.072  32.465  13.843
73043ION    NA+39474  34.811  13.291  10.692
73044ION    NA+39475  15.412  37.347   1.471
73045ION    NA+39476  29.953   2.088   4.661
73046ION    NA+39477  27.939  42.251  14.325
73047ION    NA+39478  23.506   4.669  13.879
73048ION    NA+39479  42.598  13.156   2.664
73049ION    NA+39480  39.191  16.153  10.748
73050ION    NA+39481  26.455  13.979   0.551
73051ION    NA+39482  25.898  12.259  13.431
73052ION    NA+39483  40.874   3.012  14.346
73053ION    NA+39484   4.249  27.968   0.130
73054ION    NA+39485  35.072  34.460  10.324
73055ION    NA+39486  34.139  32.095   3.279
73056ION    NA+39487  34.232  43.660  11.968
73057ION    NA+39488  31.107  24.993   9.816
73058ION    NA+39489  13.843   1.135   2.019
73059ION    NA+39490  24.571  40.997  11.666
73060ION    NA+39491  36.592   3.784  13.081
73061ION    NA+39492  32.582   5.375   0.918
73062ION    NA+39493  11.763   9.220  11.495
73063ION    NA+39494  38.956   5.466   4.376
73064ION    NA+39495  17.223  20.499   4.434
73065ION    NA+39496   7.007  31.688  14.463
73066ION    NA+39497  39.345  13.349   2.853
73067ION    NA+39498  42.531  27.770  10.998
73068ION    NA+39499   1.148  24.745  13.029
73069ION    NA+39500  18.768  18.562  14.912
73070ION    NA+39501  21.217  11.135   1.171
73071ION    NA+39502  34.568   4.558  12.900
73072ION    NA+39503   2.343   9.865  14.527
73073ION    NA+39504   6.130  22.740   4.107
73074ION    NA+39505  43.209   2.992   4.542
73075ION    NA+39506  22.217  23.588  10.911
73076ION    NA+39507  39.120  42.237  14.921
73077ION    NA+39508   8.997  15.766  14.572
73078ION    NA+39509  20.453  44.755   1.133
73079ION    NA+39510  17.985   1.984   3.813
73080ION    NA+39511  32.089  44.335   5.293
73081ION    NA+39512  21.475  15.107  12.442
73082ION    NA+39513   5.027  37.174  12.795
73083ION    NA+39514  14.274  16.526  11.067
73084ION    NA+39515  35.098  21.513   0.004
73085ION    NA+39516   9.932  17.398   4.134
73086ION    NA+39517  34.608  38.334   0.725
73087ION    NA+39518   9.486  26.701  12.019
73088ION    NA+39519   5.756   1.218  13.528
73089ION    NA+39520  35.701  35.529   3.329
73090ION    NA+39521  26.270  32.523  10.874
73091ION    NA+39522  32.702  16.334  12.397
73092ION    NA+39523  35.367   8.068  10.282
73093ION    NA+39524  37.517   6.032   1.165
73094ION    NA+39525  38.666  12.893  11.470
73095ION    NA+39526  20.805  35.391   1.406
73096ION    NA+39527  14.386  26.116   2.538
73097ION    NA+39528   2.886  26.782  11.522
73098ION    NA+39529   9.688   7.338  13.445
73099ION    NA+39530  44.835   6.689  10.329
73100ION    NA+39531  42.327  13.101   5.128
73101ION    NA+39532   4.693  23.902  10.262
73102ION    NA+39533  31.923   8.895  12.552
73103ION    NA+39534  18.914   8.779   1.568
73104ION    NA+39535  37.377  19.822   1.346
73105ION    NA+39536  39.156  22.711  12.543
73106ION    NA+39537  24.736  14.270  10.766
73107ION    NA+39538   4.600  21.247  13.403
73108ION    NA+39539  35.199  32.052   4.865
73109ION    NA+39540  12.478  10.624  12.569
73110ION    NA+39541  26.051   6.100   0.412
73111ION    NA+39542  12.622  13.834   3.091
73112ION    NA+39543  19.720  41.198   2.997
73113ION    NA+39544  30.486   3.249   4.758
73114ION    NA+39545  15.803  21.757  11.051
73115ION    NA+39546  25.271  34.815   2.276
73116ION    NA+39547   2.354  41.226   1.718
73117ION    NA+39548   5.867  22.384  12.115
73118ION    NA+39549  23.009   3.446   2.001
73119ION    NA+39550  16.131  20.055   0.289
73120ION    NA+39551  28.139  38.716   4.159
73121ION    NA+39552  20.910  18.953   3.160
73122ION    NA+39553  11.116  34.832   2.379
73123ION    NA+39554  32.348  42.770  12.029
73124ION    NA+39555  42.420  25.449   0.590
73125ION    NA+39556  41.380  39.191   4.679
73126ION    NA+39557  38.967  29.152   0.951
73127ION    NA+39558   6.326  21.162  12.019
73128ION    NA+39559  40.881  44.842   4.515
73129ION    NA+39560  13.591  15.801  10.972
73130ION    NA+39561  33.304  41.868   1.847
73131ION    NA+39562  17.109  32.951   3.334
73132ION    NA+39563  33.648  17.795  14.957
73133ION    NA+39564  12.794  33.019  12.960
73134ION    NA+39565   8.580   8.903   4.409
73135ION    NA+39566  33.953   9.745   4.742
73136ION    NA+39567  22.760  12.822   0.327
73137ION    NA+39568  33.324  30.587   2.646
73138ION    NA+39569  15.468  17.013   5.461
73139ION    NA+39570  22.726  42.646   0.168
73140ION    NA+39571  27.041  17.049   2.353
73141ION    NA+39572  12.162   6.075  12.316
73142ION    NA+39573  39.498  17.437  13.738
73143ION    NA+39574  19.715  37.963   2.693
73144ION    NA+39575  40.892  44.243   0.842
73145ION    NA+39576  15.381  28.548   2.776
73146ION    NA+39577  22.327  44.047   2.093
73147ION    CL-39578  13.202  38.181  10.378
73148ION    CL-39579  31.636  28.495  14.661
73149ION    CL-39580  26.276  43.064  12.131
73150ION    CL-39581  44.294  10.534  14.426
73151ION    CL-39582  19.489  24.465   2.818
73152ION    CL-39583   3.789  29.761  10.335
73153ION    CL-39584   8.226   7.652  12.416
73154ION    CL-39585  15.646  28.330   4.655
73155ION    CL-39586  43.554  27.490  11.448
73156ION    CL-39587  32.051  29.192   4.388
73157ION    CL-39588  19.368   9.932  12.724
73158ION    CL-39589  10.101  18.263  10.774
73159ION    CL-39590  38.242  25.400   2.478
73160ION    CL-39591  30.430  17.011  12.648
73161ION    CL-39592  17.616  34.867  11.481
73162ION    CL-39593  17.576   7.232   2.914
73163ION    CL-39594  33.798   7.036   0.047
73164ION    CL-39595  31.793  28.551  11.212
73165ION    CL-39596  13.625  26.962  14.953
73166ION    CL-39597  43.520   9.125  12.446
73167ION    CL-39598  13.757  35.393   3.204
73168ION    CL-39599  28.855  10.735   3.646
73169ION    CL-39600  14.183   1.425   2.056
73170ION    CL-39601  28.732  12.424   0.913
73171ION    CL-39602  16.041  34.866  12.542
73172ION    CL-39603  11.956   9.039  11.105
73173ION    CL-39604  19.926  39.451   3.771
73174ION    CL-39605   9.729  28.910   3.201
73175ION    CL-39606   6.250  32.176   0.553
73176ION    CL-39607  20.619  28.240   1.836
73177ION    CL-39608  40.840  19.629   4.601
73178ION    CL-39609  11.248  14.920  14.589
73179ION    CL-39610  38.769  35.628  14.626
73180ION    CL-39611  22.900  17.264  12.737
73181ION    CL-39612  20.714  40.306   2.629
73182ION    CL-39613  28.097   8.614  11.995
73183ION    CL-39614   6.881  16.518  13.206
73184ION    CL-39615  15.916  27.141   2.295
73185ION    CL-39616   5.880  35.571   3.715
73186ION    CL-39617   9.101  31.596  12.484
73187ION    CL-39618   5.229  22.869   2.544
73188ION    CL-39619  10.790  29.725   3.700
73189ION    CL-39620   9.184  32.897   0.779
73190ION    CL-39621   9.563  36.529   1.118
73191ION    CL-39622  23.807   8.999   0.655
73192ION    CL-39623  34.472   6.301   3.537
73193ION    CL-39624  10.056  17.717   3.847
73194ION    CL-39625  24.175   6.644  12.442
73195ION    CL-39626  38.184  10.001  14.404
73196ION    CL-39627  27.574  42.668   4.568
73197ION    CL-39628  10.037  40.216   0.281
73198ION    CL-39629  44.998  33.361   1.146
73199ION    CL-39630   2.673  13.182  14.897
73200ION    CL-39631  26.683  31.865   2.387
73201ION    CL-39632  14.853   6.686  10.043
73202ION    CL-39633  20.281  16.206   0.769
73203ION    CL-39634   2.279   6.693  10.792
73204ION    CL-39635  10.546  22.324   2.921
73205ION    CL-39636   5.570  39.830  13.692
73206ION    CL-39637  42.982  14.416   9.646
73207ION    CL-39638  23.549  43.882  12.091
73208ION    CL-39639  19.451   0.860   0.713
73209ION    CL-39640  40.392  14.186   2.835
73210ION    CL-39641   0.607  30.707   2.339
73211ION    CL-39642   8.348  11.213  13.173
73212ION    CL-39643  12.362  20.754   2.173
73213ION    CL-39644  17.121   8.251   0.881
73214ION    CL-39645  14.306   0.673   4.173
73215ION    CL-39646   1.170   0.456  10.258
73216ION    CL-39647  28.261   9.510   4.247
73217ION    CL-39648  17.605  34.337   0.426
73218ION    CL-39649  25.351  22.681   0.398
73219ION    CL-39650  24.462  38.051  11.141
73220ION    CL-39651   0.774  43.722   1.282
73221ION    CL-39652   9.733  20.066   1.765
73222ION    CL-39653  12.376  41.370   2.086
73223ION    CL-39654  30.511  33.183  14.814
73224ION    CL-39655  39.292   7.350   1.273
73225ION    CL-39656  10.650  14.477  11.343
73226ION    CL-39657  25.121   7.873   1.387
73227ION    CL-39658   7.111  34.460  10.780
73228ION    CL-39659   3.668   4.421   2.351
73229ION    CL-39660  25.692  41.451  14.375
73230ION    CL-39661  18.727  26.611  10.967
73231ION    CL-39662  37.730   5.823  14.363
73232ION    CL-39663  12.108  37.780  12.494
73233ION    CL-39664   5.971  23.172  13.477
73234ION    CL-39665  18.591  15.335   0.785
73235ION    CL-39666  18.830  23.003  13.828
73236ION    CL-39667  41.445  39.617   4.995
73237ION    CL-39668  27.743  24.485   0.103
73238ION    CL-39669  38.405  24.414   1.904
73239ION    CL-39670   7.211  24.625  11.535
73240ION    CL-39671  28.666  21.443  13.595
73241ION    CL-39672  42.462  19.434  14.816
73242ION    CL-39673   4.245  43.164  12.292
73243ION    CL-39674   4.572  23.847   1.703
73244ION    CL-39675  12.912  27.936   0.657
73245ION    CL-39676  31.992   4.866  10.839
73246ION    CL-39677   6.713  10.559   0.511
73247ION    CL-39678  20.703  29.075  11.103
73248ION    CL-39679   9.092  17.774  13.775
73249ION    CL-39680   4.824  41.870  14.601
73250ION    CL-39681  34.901   4.802  14.551
73251ION    CL-39682  24.539  32.221   4.092
73252ION    CL-39683   5.632  22.082   2.386
73253ION    CL-39684  20.009  44.364  12.456
73254ION    CL-39685  35.665   0.404  11.234
73255ION    CL-39686   6.092  35.364  14.866
73256ION    CL-39687   8.677  22.661   2.866
73257ION    CL-39688   2.604   5.444  12.923
73258ION    CL-39689  34.814  37.733   3.577
73259ION    CL-39690  19.597  38.690   0.894
73260ION    CL-39691  10.937  28.346   1.796
73261ION    CL-39692  41.226  19.050  14.330
73262ION    CL-39693  40.837  30.106   1.697
73263ION    CL-39694  37.229  10.334  14.020
73264ION    CL-39695  22.258  44.117  12.136
73265ION    CL-39696  11.152   0.126  11.018
73266ION    CL-39697   9.490  14.390   3.536
73267ION    CL-39698  42.986  36.874   3.158
73268ION    CL-39699  44.762  17.480   4.238
73269ION    CL-39700  39.962  24.135  14.247
73270ION    CL-39701  20.024   5.319   3.852
73271ION    CL-39702  22.031   4.784   0.718
73272ION    CL-39703   2.184  10.140   2.792
73273ION    CL-39704  41.814  20.944  11.092
73274ION    CL-39705  28.838  20.106   2.156
73275ION    CL-39706  32.868  44.560  12.056
73276ION    CL-39707  12.039   5.728   1.249
73277ION    CL-39708  19.796  18.164  11.175
73278ION    CL-39709  20.194  34.468   5.084
73279ION    CL-39710  43.865  21.815  13.475
73280ION    CL-39711  31.496  44.679  13.894
73281ION    CL-39712  35.197  17.992   2.819
73282ION    CL-39713  42.460   0.076  14.260
73283ION    CL-39714  25.374   2.016   2.581
73284ION    CL-39715  37.752  43.400   1.726
73285ION    CL-39716   3.265  28.702  11.053
73286ION    CL-39717  20.505  44.528  13.825
73287ION    CL-39718   8.664  34.843  12.740
73288ION    CL-39719   3.306  28.656  11.859
73289ION    CL-39720  30.171  32.663   2.638
73290ION    CL-39721   2.166  27.978  10.740
73291ION    CL-39722  11.178  41.909   3.643
73292ION    CL-39723  40.380  20.492  13.170
73293ION    CL-39724  16.225  11.389   0.601
73294ION    CL-39725   5.491   2.905   2.813
73295ION    CL-39726  43.031  22.665  14.099
73296ION    CL-39727  43.605  43.744   4.969
73297ION    CL-39728  18.641  13.820   2.833
73298ION    CL-39729  29.167  27.102  13.233
73299ION    CL-39730  21.617  38.174  10.655
73300ION    CL-39731  44.983  36.944   3.256
73301ION    CL-39732  42.770  12.088   3.617
73302ION    CL-39733  43.351   2.630   4.796
73303ION    CL-39734  33.114  37.857   3.003
73304ION    CL-39735  15.968  31.557  14.169
73305ION    CL-39736   8.743   1.076   4.230
73306ION    CL-39737  38.951  32.302   1.847
73307ION    CL-39738   2.171   3.587  11.733
73308ION    CL-39739  17.757   7.472  14.246
73309ION    CL-39740  30.308   4.951   3.563
73310ION    CL-39741   9.123  39.218   1.853
73311ION    CL-39742  14.838  24.362   4.552
73312ION    CL-39743  38.559  43.591  10.773
73313ION    CL-39744  31.544   2.423   3.197
73314ION    CL-39745  11.657  22.833   0.045
73315ION    CL-39746  18.119  30.870   0.660
73316ION    CL-39747  31.874  38.561  14.009
73317ION    CL-39748  10.982  42.463   4.868
73318ION    CL-39749   4.788  31.916  10.704
73319ION    CL-39750  42.404  10.334  13.359
73320ION    CL-39751  11.737   4.920   2.637
73321ION    CL-39752   3.836  12.670  10.472
73322ION    CL-39753  13.792  18.996   2.847
73323ION    CL-39754  25.883   0.301   1.145
73324ION    CL-39755   4.028  32.018  13.817
73325ION    CL-39756  18.282  31.964   1.642
73326ION    CL-39757  41.942  21.947   1.523
73327ION    CL-39758   3.805  17.414   2.970
73328ION    CL-39759   4.438   4.967  14.006
73329ION    CL-39760   3.617  25.493  11.062
73330ION    CL-39761   7.766  43.240  12.993
73331ION    CL-39762  27.315   2.234   1.379
73332ION    CL-39763   4.697   1.900  14.684
73333ION    CL-39764  38.098  22.804   0.959
73334ION    CL-39765  35.391  40.827  14.774
73335ION    CL-39766  37.709  42.027  12.880
73336ION    CL-39767   0.680  12.370   2.520
73337ION    CL-39768  28.386  36.631   2.790
73338ION    CL-39769   8.605   7.129  11.261
73339ION    CL-39770  37.997   9.975   4.338
73340ION    CL-39771  32.506  15.626  14.046
73341ION    CL-39772   6.340   6.210  10.695
73342ION    CL-39773  12.899   3.111   2.439
73343ION    CL-39774  41.813  19.244   3.833
73344ION    CL-39775   5.771  23.774   3.209
73345ION    CL-39776  34.344  29.981  12.497
73346ION    CL-39777  28.972  26.510   1.193
73347ION    CL-39778  40.239  36.108   0.243
73348ION    CL-39779   9.169  37.076   1.694
73349ION    CL-39780   0.542  40.625  12.156
73350ION    CL-39781  30.487  23.075  12.962
73351ION    CL-39782  21.549  13.839  11.066
73352ION    CL-39783  19.841  26.602   1.681
73353ION    CL-39784  23.011   0.294  14.402
73354ION    CL-39785  15.428  35.405  13.883
73355ION    CL-39786   5.009   4.433  13.382
73356ION    CL-39787   9.609  34.522   0.844
73357ION    CL-39788  28.532  14.152  13.946
73358ION    CL-39789  37.084   2.321  11.654
73359ION    CL-39790   5.742  10.414  13.118
73360ION    CL-39791  25.772  26.207  10.535
73361ION    CL-39792  35.703   3.226  13.365
73362ION    CL-39793  10.906  11.931   3.475
73363ION    CL-39794  12.091  17.818   2.836
73364ION    CL-39795   2.445  30.837   3.631
73365ION    CL-39796  18.255  21.196  13.496
73366ION    CL-39797  16.038  11.897  13.390
73367ION    CL-39798   6.435  11.202   4.181
73368ION    CL-39799  14.669  36.578  14.656
73369ION    CL-39800  21.940  27.982   4.047
73370ION    CL-39801   7.146  41.999   2.614
73371ION    CL-39802   2.894  30.408  12.437
73372ION    CL-39803  35.864  36.104   2.455
73373ION    CL-39804   5.626  13.307  10.288
73374ION    CL-39805  39.338  25.643   0.357
73375ION    CL-39806  21.735  15.176  14.737
73376ION    CL-39807  44.272  39.799  10.736
73377ION    CL-39808  15.310  42.350  13.066
73378ION    CL-39809  25.444  36.090  10.479
73379ION    CL-39810  21.698  36.845   1.978
73380ION    CL-39811  18.818  30.038  10.759
73381ION    CL-39812  11.910  26.212   4.144
73382ION    CL-39813  23.427  19.993   2.542
73383ION    CL-39814   5.137  25.056   4.057
73384ION    CL-39815   9.056   6.674  10.716
73385ION    CL-39816   0.208   5.439  11.196
73386ION    CL-39817  42.731   3.487  13.536
73387ION    CL-39818  39.169  35.286  14.262
73388ION    CL-39819  31.631  10.618  14.313
73389ION    CL-39820  16.130  10.268   2.695
73390ION    CL-39821  29.402  11.594   9.750
73391ION    CL-39822  30.279  11.660  12.404
73392ION    CL-39823   0.722  35.526  11.234
73393ION    CL-39824   4.322  25.543   0.211
73394ION    CL-39825  40.451   7.727  13.428
73395ION    CL-39826  27.181   5.066   5.093
73396ION    CL-39827  36.165  33.863  14.118
73397ION    CL-39828   8.618   3.363  13.274
73398ION    CL-39829  29.585  33.055   0.304
73399ION    CL-39830  35.255  19.745   2.102
73400ION    CL-39831  28.386  13.359   0.826
73401ION    CL-39832  39.565  34.399  14.500
73402ION    CL-39833  33.284  25.357  11.117
73403ION    CL-39834  30.187  22.741   0.966
73404ION    CL-39835  38.688  16.596  11.669
73405ION    CL-39836  23.006  42.881  13.401
73406ION    CL-39837  32.902   3.272  11.162
73407ION    CL-39838   6.128   8.262   4.556
73408ION    CL-39839   3.397  34.398   4.163
73409ION    CL-39840   5.349  21.099   1.420
73410ION    CL-39841  27.415   1.868  13.262
73411ION    CL-39842  30.245  39.766   0.561
73412ION    CL-39843  26.618  39.476  12.007
73413ION    CL-39844  30.821  38.919  12.240
73414ION    CL-39845   0.006  25.739   5.169
73415ION    CL-39846  17.117  12.421   4.622
73416ION    CL-39847  42.688  27.982  11.356
73417ION    CL-39848   0.056  24.905  13.009
73418ION    CL-39849  28.111   4.637  11.986
73419ION    CL-39850  32.663  28.703  12.356
73420ION    CL-39851  12.605  31.783  13.902
73421ION    CL-39852   9.994   1.205   0.096
73422ION    CL-39853  12.553  40.328  14.607
73423ION    CL-39854  32.996  36.578   2.026
73424ION    CL-39855   9.116  31.402  11.187
73425ION    CL-39856  23.121   6.776  11.428
73426ION    CL-39857  40.971   6.552   0.164
73427ION    CL-39858  42.187  35.752   0.093
73428ION    CL-39859   0.736  31.938  12.552
73429ION    CL-39860   7.117   7.919   4.575
73430ION    CL-39861  18.318   5.595  10.795
73431ION    CL-39862  36.766   3.325   0.909
73432ION    CL-39863  16.217  15.429  11.651
73433ION    CL-39864   3.004  40.747   0.912
73434ION    CL-39865  18.040   3.793  11.882
73435ION    CL-39866  12.142  30.351   2.930
73436ION    CL-39867  37.555  37.280   2.315
73437ION    CL-39868  33.174  44.543  11.104
73438ION    CL-39869  42.697  15.302  14.473
73439ION    CL-39870  39.253  35.264  12.506
73440ION    CL-39871  37.198  16.497  14.697
73441ION    CL-39872  11.767   1.459  12.100
73442ION    CL-39873  37.437   0.710   1.308
73443ION    CL-39874   6.370  21.360   4.899
73444ION    CL-39875  15.738  40.368   2.193
73445ION    CL-39876  24.855  44.539   1.151
73446ION    CL-39877  39.323  39.325  14.841
73447ION    CL-39878  10.664  37.191   1.254
73448ION    CL-39879  10.729  17.051   0.391
73449ION    CL-39880  39.241   1.088  13.079
73450ION    CL-39881  17.180  23.155   1.372
73451ION    CL-39882  26.546  38.117   1.453
73452ION    CL-39883   9.717  28.582   4.445
73453ION    CL-39884  14.651   5.570   4.496
73454ION    CL-39885  11.446   4.628  14.949
73455ION    CL-39886  24.648  16.812   0.423
73456ION    CL-39887  43.915  11.126  10.352
73457ION    CL-39888  38.475  39.568   2.723
73458ION    CL-39889  11.204  39.788  13.045
73459ION    CL-39890  39.004  13.330   3.140
73460ION    CL-39891  42.410  40.508  13.503
73461ION    CL-39892  13.434  17.068  14.606
73462ION    CL-39893  44.774  24.834  10.242
73463ION    CL-39894  10.858  36.155   4.199
73464ION    CL-39895   2.003  12.216  13.786
73465ION    CL-39896  22.074  21.897   2.059
73466ION    CL-39897   2.567  11.662   4.322
73467ION    CL-39898  43.729  33.582  11.085
73468ION    CL-39899  15.581  37.004  13.186
73469ION    CL-39900  21.262  25.331   0.159
73470ION    CL-39901  12.295  28.760   3.626
73471ION    CL-39902   0.137  32.892   1.938
73472ION    CL-39903  32.083  35.132  12.099
73473ION    CL-39904  42.806  15.984   4.999
73474ION    CL-39905  19.165   3.921   3.207
73475ION    CL-39906   8.803  23.527   1.696
73476ION    CL-39907  41.779  16.753  11.076
73477ION    CL-39908  41.066   9.400   0.419
73478ION    CL-39909  33.648  38.425  11.441
73479ION    CL-39910  14.798  26.089   2.371
73480ION    CL-39911  21.470  20.071   2.216
73481ION    CL-39912  23.499  16.848  14.782
73482ION    CL-39913   7.501  13.995  11.137
73483ION    CL-39914   7.128  43.467  14.316
73484ION    CL-39915  33.189  14.910   1.601
73485ION    CL-39916  24.971  10.739  12.837
73486ION    CL-39917  16.981  12.989  13.776
73487ION    CL-39918  36.197   6.953  11.150
73488ION    CL-39919  24.439  21.734   0.713
73489ION    CL-39920   7.662  38.965   2.764
73490ION    CL-39921  33.364  30.890  11.500
73491ION    CL-39922  24.808   7.877  11.608
73492ION    CL-39923  38.879  10.371   2.844
73493ION    CL-39924  10.846  24.911  13.208
73494ION    CL-39925  20.779   2.702  14.410
73495ION    CL-39926   8.892   2.037  11.996
73496ION    CL-39927  34.422  15.334   3.427
73497ION    CL-39928  38.909  38.498  12.184
73498ION    CL-39929  17.860  36.710   3.957
73499ION    CL-39930  10.084  18.793   4.804
73500ION    CL-39931  33.629   6.181   1.229
73501ION    CL-39932  34.182   4.779   1.387
73502ION    CL-39933  39.714  17.141   4.160
73503ION    CL-39934   7.890   7.040   2.931
73504ION    CL-39935   6.359  22.317   3.171
73505ION    CL-39936  33.627  19.602   1.344
73506ION    CL-39937  24.463   1.939   5.028
73507ION    CL-39938  40.270  44.922   2.565
73508ION    CL-39939   3.616   6.138  11.960
73509ION    CL-39940  44.227  25.080   0.026
73510ION    CL-39941  12.102   0.936  13.437
73511ION    CL-39942  38.166  36.870   0.688
73512ION    CL-39943   8.328  18.797  14.273
73513ION    CL-39944   2.919  29.187   2.483
73514ION    CL-39945  18.152  32.921   4.868
73515ION    CL-39946  30.814  13.545   1.837
73516ION    CL-39947  28.403  22.740   4.073
73517ION    CL-39948  25.666   3.939  13.441
73518ION    CL-39949   4.359  26.136  11.251
73519ION    CL-39950  12.587  43.900  13.962
73520ION    CL-39951  30.966  15.231  12.543
73521ION    CL-39952   9.410  20.625   3.661
73522ION    CL-39953   3.771  13.215   1.432
73523ION    CL-39954  39.927   1.410   2.667
73524ION    CL-39955  17.122  33.799   4.166
73525ION    CL-39956  12.319  22.570  12.605
73526ION    CL-39957  35.712   4.882   0.437
73527ION    CL-39958  42.244  14.739   0.374
73528ION    CL-39959   6.500  23.552   5.337
73529ION    CL-39960  40.082  31.384   5.248
73530ION    CL-39961   0.892  36.837  13.272
73531ION    CL-39962  30.217   5.335   5.351
73532ION    CL-39963  24.279  16.823   9.946
73533ION    CL-39964   4.363   1.761  11.211
73534ION    CL-39965  43.726  37.563  12.058
73535ION    CL-39966  37.933  23.707   3.259
73536ION    CL-39967  18.226  32.542  11.865
73537ION    CL-39968   9.574  34.972   9.741
73538ION    CL-39969  19.860  27.897  13.920
73539ION    CL-39970  43.990  39.526  14.571
73540ION    CL-39971   2.037  40.536   4.958
73541ION    CL-39972  43.965  24.527  13.434
73542ION    CL-39973  16.306   0.544   4.785
73543ION    CL-39974  15.108  32.841  12.816
73544ION    CL-39975  22.989  10.287   2.733
73545ION    CL-39976  34.315  39.156   3.549
73546ION    CL-39977   5.474  43.316  11.058
73547ION    CL-39978  35.342  22.452   4.497
73548ION    CL-39979  25.988  33.700   2.287
73549ION    CL-39980  19.129  44.007   2.130
73550ION    CL-39981   5.439  43.700  14.908
73551ION    CL-39982  42.398  17.528  12.142
73552ION    CL-39983  32.523  43.180  12.043
73553ION    CL-39984  26.306  28.223  12.096
73554ION    CL-39985   9.547  39.617  14.646
73555ION    CL-39986  33.155  21.480  11.530
73556ION    CL-39987  37.932  12.653   2.411
73557ION    CL-39988   2.481  31.841   3.585
73558ION    CL-39989   5.227  25.691  11.030
73559ION    CL-39990  34.457  42.398   2.180
73560ION    CL-39991  11.256  39.236  13.877
73561ION    CL-39992  12.702  43.601   2.450
73562ION    CL-39993  11.683   3.934  13.781
73563ION    CL-39994  22.377  26.053   1.878
73564ION    CL-39995   7.688  35.620   2.278
73565ION    CL-39996   7.406  33.598   2.383
73566ION    CL-39997   2.474  10.049  14.923
73567ION    CL-39998  42.936  21.731  10.459
73568ION    CL-39999  17.051  31.201  12.419
73569ION    CL-40000  41.036  33.759   0.361
73570ION    CL-40001  12.468  28.494   0.185
73571ION    CL-40002   4.392  27.402   1.998
73572ION    CL-40003  25.541  24.785   4.986
73573ION    CL-40004  40.486  43.371   3.630
73574ION    CL-40005  20.525  27.625  12.341
73575ION    CL-40006   8.019  30.079   3.845
73576ION    CL-40007   0.969   3.578  13.437
73577ION    CL-40008   0.233  40.165  11.324
73578ION    CL-40009  17.086  37.106  13.876
73579ION    CL-40010   5.880  12.792   4.870
73580ION    CL-40011  35.834  17.311   3.230
73581ION    CL-40012  15.080  34.409   2.030
73582ION    CL-40013  41.343  33.419  12.787
73583ION    CL-40014  43.486  15.809   0.589
73584ION    CL-40015  16.074  12.874   1.250
73585ION    CL-40016  11.410   9.096  11.778
73586ION    CL-40017  13.791  41.219   3.857
73587ION    CL-40018  30.535  36.208  10.674
73588ION    CL-40019  31.395  28.538   2.603
73589ION    CL-40020  12.928  44.687  14.580
73590ION    CL-40021  33.826   2.834  10.476
73591ION    CL-40022  29.552  11.577  14.767
73592ION    CL-40023   0.244  43.718   3.647
73593ION    CL-40024  39.300  30.335  10.309
73594ION    CL-40025  41.685  24.836   2.262
73595ION    CL-40026  27.889  40.774   1.416
73596ION    CL-40027  20.703  29.978   9.555
73597ION    CL-40028  13.551  16.620  13.825
73598ION    CL-40029  20.362  19.287   4.428
73599ION    CL-40030  14.612  23.420   1.174
73600ION    CL-40031  25.154  42.599  14.800
73601ION    CL-40032   9.867  23.848   1.378
73602ION    CL-40033   2.420   6.538   0.227
73603ION    CL-40034  13.225  19.688   2.132
73604ION    CL-40035   6.127  40.074   1.185
73605ION    CL-40036  41.525  22.633   1.093
73606ION    CL-40037  16.727   2.790  14.567
73607ION    CL-40038  22.510  42.225   0.196
73608ION    CL-40039  29.616  39.670   4.321
73609ION    CL-40040  19.022  31.418  11.665
73610ION    CL-40041  24.409  22.287  13.461
73611ION    CL-40042  35.189  36.691   3.607
73612ION    CL-40043  25.990  44.658  11.439
73613ION    CL-40044  44.740  40.758  10.315
73614ION    CL-40045   9.429  27.379  13.988
73615ION    CL-40046  24.878  38.328   3.652
73616ION    CL-40047  18.844  27.894   2.389
73617ION    CL-40048  30.065   7.815  12.031
73618ION    CL-40049  36.725  28.478   0.936
73619ION    CL-40050   3.427  41.415  13.085
73620ION    CL-40051   9.172  19.098   0.631
73621ION    CL-40052  37.260   0.046   3.578
73622ION    CL-40053  19.071  10.565   0.292
73623ION    CL-40054   6.645  12.143   0.381
73624ION    CL-40055  37.890  43.305  12.027
73625ION    CL-40056  36.090  24.708   3.147
73626ION    CL-40057   4.079  42.347  11.740
73627ION    CL-40058  19.663  36.498  13.666
73628ION    CL-40059  26.025  18.356   3.994
73629ION    CL-40060  34.109  41.934   0.281
73630ION    CL-40061  15.275  30.634   2.469
73631ION    CL-40062  14.688   4.030  12.533
73632ION    CL-40063  40.123  28.707   3.549
73633ION    CL-40064   1.596  12.665  12.212
73634ION    CL-40065  18.158   1.210   2.678
73635ION    CL-40066  22.903  27.497   2.335
73636ION    CL-40067  19.605  38.029   4.523
73637ION    CL-40068   2.911   8.199   3.241
73638ION    CL-40069   8.757   9.030   4.807
73639ION    CL-40070  18.152  38.245   1.195
73640ION    CL-40071   8.224  18.241   1.123
73641ION    CL-40072  40.368  38.522  14.360
73642ION    CL-40073  19.360   8.755   1.618
73643ION    CL-40074  41.273   2.794  14.392
73644ION    CL-40075   6.484  37.345  10.445
73645ION    CL-40076   7.324  18.644  13.889
73646ION    CL-40077   5.157  42.909  11.969
73647ION    CL-40078   8.034  12.002  11.981
73648ION    CL-40079   7.559  17.949   2.707
73649ION    CL-40080  10.007   0.465   4.788
73650ION    CL-40081  32.698   9.644  12.106
73651ION    CL-40082  28.483   4.376  13.775
73652ION    CL-40083  25.227  29.563  13.535
73653ION    CL-40084  35.090  44.511   0.697
73654ION    CL-40085  37.872  36.537   4.873
73655ION    CL-40086   1.114  27.538  12.836
73656ION    CL-40087   5.111  35.665  14.504
73657ION    CL-40088  24.169  18.204  14.941
73658ION    CL-40089   2.103   0.633  12.789
73659ION    CL-40090  10.346  21.410   5.054
73660ION    CL-40091  33.844  16.506   4.225
73661ION    CL-40092  39.578   8.624   0.780
73662ION    CL-40093  10.540  40.550   2.401
73663ION    CL-40094  26.442   4.937  11.595
73664ION    CL-40095  18.005  32.560   2.396
73665ION    CL-40096  26.758  15.355   2.766
73666ION    CL-40097  42.426  20.278  14.281
73667ION    CL-40098  32.640  19.824   1.076
73668ION    CL-40099  34.242   6.577  14.278
73669ION    CL-40100  13.146  18.314  11.788
73670ION    CL-40101  27.994   8.367   3.223
73671ION    CL-40102   3.721  40.019   1.304
73672ION    CL-40103  39.277  39.452  11.728
73673ION    CL-40104  44.035  35.147  13.025
73674ION    CL-40105  36.272  18.070   2.748
73675ION    CL-40106  28.565  13.448   3.587
73676ION    CL-40107  33.513  21.728   2.066
73677ION    CL-40108  25.734  24.907   0.196
73678ION    CL-40109  36.577  21.653   3.605
73679ION    CL-40110  31.256  39.504  11.514
73680ION    CL-40111  42.092  25.432   1.747
73681ION    CL-40112  16.301  41.561   2.430
73682ION    CL-40113  32.140  27.146  11.160
73683ION    CL-40114  25.704  32.891  13.931
73684ION    CL-40115   9.249  31.959   3.366
73685ION    CL-40116   4.512   7.378   4.261
73686ION    CL-40117   5.481  19.268   2.359
73687ION    CL-40118  37.153  34.543  11.862
73688ION    CL-40119  27.760  25.633  13.770
73689ION    CL-40120  36.717   5.379  13.482
73690ION    CL-40121  34.037  25.765  10.901
73691ION    CL-40122  34.715   3.367  13.429
73692ION    CL-40123  13.300  41.211   1.737
73693ION    CL-40124   1.311  28.561   2.814
73694ION    CL-40125  35.978  27.052  10.404
73695ION    CL-40126  11.179   1.187   0.915
73696ION    CL-40127   1.021  24.173   0.223
73697ION    CL-40128  42.615  15.857   0.372
73698ION    CL-40129  13.182  38.140   2.729
73699ION    CL-40130  28.638  37.424   1.413
73700ION    CL-40131  27.412  18.302  14.306
73701ION    CL-40132   7.134   3.788  14.328
73702ION    CL-40133  14.333  22.528  12.635
73703ION    CL-40134  36.630  29.642   1.781
73704ION    CL-40135  11.145  21.653   4.504
73705ION    CL-40136   8.833   7.355   1.890
73706ION    CL-40137  25.057   8.639   0.487
73707ION    CL-40138  41.283  20.970   3.843
73708ION    CL-40139  20.443  35.272   1.649
73709ION    CL-40140  19.029  32.788  12.755
73710ION    CL-40141  26.068  29.422   0.804
73711ION    CL-40142   8.084  29.632  14.384
73712ION    CL-40143  37.389   6.791  13.344
73713ION    CL-40144  14.260   9.671   1.282
73714ION    CL-40145  19.115   4.255   4.436
73715ION    CL-40146  23.768  15.903   0.564
73716ION    CL-40147  39.706  13.742  14.543
73717ION    CL-40148   8.913  10.284  12.203
73718ION    CL-40149   8.169   7.700   0.857
73719ION    CL-40150  24.184  11.947   4.511
73720ION    CL-40151  18.246  27.177   3.859
73721ION    CL-40152  19.574  24.287  12.534
73722ION    CL-40153  31.529   0.465  12.542
73723ION    CL-40154  44.104  37.732  14.510
73724ION    CL-40155  21.624  35.149  12.075
73725ION    CL-40156   0.961  31.033  11.853
73726ION    CL-40157   2.987  27.071   4.870
73727ION    CL-40158  28.386  10.473   4.489
73728ION    CL-40159  37.911  10.189   2.459
73729ION    CL-40160  18.160  24.803   1.639
73730ION    CL-40161  34.357  43.264  11.743
73731ION    CL-40162   3.307  11.048   1.939
73732ION    CL-40163   6.091  26.481   4.127
73733ION    CL-40164  22.661  25.652   3.308
73734ION    CL-40165   3.358  24.481   1.077
73735ION    CL-40166  29.943  19.648   2.823
73736ION    CL-40167  39.828  43.628  12.748
73737ION    CL-40168   3.930  37.890  14.400
73738ION    CL-40169   2.211  10.061   1.658
73739ION    CL-40170   6.786  15.599  13.588
73740ION    CL-40171  43.135  33.544  14.387
73741ION    CL-40172  44.596   9.858   3.736
73742ION    CL-40173  10.116  16.681   1.475
73743ION    CL-40174  19.124   0.437  11.216
73744ION    CL-40175  23.499   0.564  11.402
73745ION    CL-40176  12.599  32.771  13.291
73746ION    CL-40177  29.661   8.310   5.509
73747ION    CL-40178  13.488  22.403  11.334
73748ION    CL-40179  12.302  20.081   0.222
73749ION    CL-40180  39.616  37.344  13.329
73750ION    CL-40181   8.280   8.737   2.344
73751ION    CL-40182  35.677  24.695  13.655
73752ION    CL-40183  11.144   6.700   2.549
73753ION    CL-40184   4.771  27.972   3.957
73754ION    CL-40185  26.251   9.291   2.716
73755ION    CL-40186   6.518   9.691   2.893
73756ION    CL-40187  23.710  44.603   1.653
73757ION    CL-40188   6.723  30.041  12.925
73758ION    CL-40189  25.668  41.837  11.685
73759ION    CL-40190  20.564   7.743  11.163
73760ION    CL-40191  17.891   9.313  14.895
73761ION    CL-40192  25.841  23.100   1.812
73762ION    CL-40193  10.130   1.989   1.882
73763ION    CL-40194  36.671  13.132   0.458
73764ION    CL-40195   7.114  40.355  11.924
73765ION    CL-40196   5.175   5.634   2.803
73766ION    CL-40197  21.220  37.085   4.403
73767ION    CL-40198   1.669  32.178   3.109
73768ION    CL-40199  20.692  20.101   3.319
73769ION    CL-40200  19.492  23.864  13.772
73770ION    CL-40201  20.220   5.939  14.797
73771ION    CL-40202   3.786  14.096  12.107
73772ION    CL-40203   2.183   6.703   4.980
73773ION    CL-40204  14.281  36.557   1.995
73774ION    CL-40205  20.984   7.099   9.954
73775ION    CL-40206  31.588  37.452   4.929
73776ION    CL-40207  42.684  35.701  14.227
73777ION    CL-40208   1.246  40.944   2.198
73778ION    CL-40209  25.587  38.327   1.267
73779ION    CL-40210  42.874   0.708   4.591
73780ION    CL-40211  37.364   0.375  12.393
73781ION    CL-40212  20.539  37.826  14.843
73782ION    CL-40213   4.269   8.225  10.398
73783ION    CL-40214   1.988  33.818  14.515
73784ION    CL-40215  35.438  15.582   4.169
73785ION    CL-40216  20.679  35.176  11.751
73786ION    CL-40217   5.100  28.524   3.324
73787ION    CL-40218  14.987   8.742   9.845
73788ION    CL-40219  16.655   2.717  13.347
73789ION    CL-40220  17.166  21.141  14.825
73790ION    CL-40221  44.745  13.000   3.700
73791ION    CL-40222  40.169  24.235  10.971
73792ION    CL-40223  27.780  36.010   2.707
73793ION    CL-40224  17.730  22.443  13.150
73794ION    CL-40225  34.260  33.605   2.733
73795ION    CL-40226   2.323  18.639  11.880
73796ION    CL-40227  18.520  39.246  11.410
73797ION    CL-40228  32.384  33.362  11.556
73798ION    CL-40229  13.266  39.462  13.950
73799ION    CL-40230   8.783  37.293   0.069
73800ION    CL-40231   2.329   8.445  12.803
73801ION    CL-40232  40.191  20.893  13.969
73802ION    CL-40233  32.024  31.440   0.243
73803ION    CL-40234  21.431  40.270   5.344
73804ION    CL-40235  32.615  25.153  13.512
73805ION    CL-40236  21.944   7.422  14.474
73806ION    CL-40237   6.369  33.863   1.407
73807ION    CL-40238  32.381   4.552   4.299
73808ION    CL-40239   1.223  36.603   1.689
73809ION    CL-40240  26.409  21.674  14.765
73810ION    CL-40241  34.156  31.867   4.622
73811ION    CL-40242   5.858  32.378  10.735
73812ION    CL-40243   4.368  38.385  11.571
73813ION    CL-40244   3.508   0.681  10.862
73814ION    CL-40245  14.524   6.566  11.811
73815ION    CL-40246   4.382  26.411   3.273
73816ION    CL-40247   7.353  29.402   2.586
73817ION    CL-40248  23.667  43.669   2.436
73818ION    CL-40249   9.359  38.231   1.690
73819ION    CL-40250   7.420  19.310   2.074
73820ION    CL-40251  26.310   0.528  14.020
73821ION    CL-40252  17.667  42.325   0.658
73822ION    CL-40253  28.711  34.628  12.436
73823ION    CL-40254  11.847  38.609  13.370
73824ION    CL-40255   2.370  19.298   3.706
73825ION    CL-40256   5.105  39.659  11.712
73826ION    CL-40257  41.442  32.502  12.812
73827ION    CL-40258   3.959  25.506  14.280
73828ION    CL-40259  15.418  32.877   1.863
73829ION    CL-40260  22.502  12.172  12.638
73830ION    CL-40261  39.439  28.683  14.808
73831ION    CL-40262   7.930  37.163  12.927
73832ION    CL-40263  39.393   3.618  11.544
73833ION    CL-40264  15.812  34.276  14.035
73834ION    CL-40265  25.719  31.788  11.909
73835ION    CL-40266  39.139  17.228  13.927
73836ION    CL-40267  12.283  36.455  12.940
73837ION    CL-40268  25.484  16.900  14.408
73838ION    CL-40269  17.644   9.403  13.523
73839ION    CL-40270  24.450   9.645   0.654
73840ION    CL-40271  40.357  35.117   1.722
73841ION    CL-40272  21.714   0.870  13.627
73842ION    CL-40273  36.549  34.255   5.062
73843ION    CL-40274  16.297   5.308  12.972
73844ION    CL-40275  40.411  27.413  11.937
73845ION    CL-40276  26.021  14.080   0.446
73846ION    CL-40277  33.700  19.582  10.849
73847ION    CL-40278  15.276   5.834  14.632
73848ION    CL-40279  13.191  33.485   5.022
73849ION    CL-40280  13.697   5.865   4.548
73850ION    CL-40281  22.553  12.204  10.682
73851ION    CL-40282  37.342  39.865  13.946
73852ION    CL-40283  11.129  24.792   3.080
73853ION    CL-40284  26.722   8.135  12.557
73854ION    CL-40285  39.584  17.311   2.748
73855ION    CL-40286   6.270  40.914  12.944
73856ION    CL-40287  29.252  17.915  14.638
73857ION    CL-40288   2.122  38.490  14.998
73858ION    CL-40289   0.503  10.788   0.757
73859ION    CL-40290  16.811  29.327  12.443
73860ION    CL-40291  36.913  20.465  11.399
73861ION    CL-40292  18.162   2.004   0.018
73862ION    CL-40293  10.422  22.055  11.685
73863ION    CL-40294  13.455  23.341   2.215
73864ION    CL-40295   7.510  20.886  10.472
73865ION    CL-40296  35.596  29.498   1.929
73866ION    CL-40297  33.944  35.663  10.937
73867ION    CL-40298  11.309  30.970  13.097
73868ION    CL-40299   9.210  35.526  12.519
73869ION    CL-40300  38.734  10.103  13.575
73870ION    CL-40301  33.569  24.090  13.347
73871ION    CL-40302  20.855  41.904  10.484
73872ION    CL-40303  26.956  23.530  10.419
73873ION    CL-40304  42.297   6.827  11.943
73874ION    CL-40305  32.279  34.177  12.497
73875ION    CL-40306  32.488  32.576  10.258
73876ION    CL-40307  37.412   4.104   0.667
73877ION    CL-40308  29.190  22.719  11.194
73878ION    CL-40309  24.736  41.299  13.425
73879ION    CL-40310  32.503  20.617  14.787
73880ION    CL-40311  40.823  42.601  10.784
73881ION    CL-40312   5.095  28.696   1.165
73882ION    CL-40313  39.659  16.125   3.241
73883ION    CL-40314  22.934  39.435   1.282
73884ION    CL-40315   5.768  31.944   4.004
73885ION    CL-40316  15.106  39.313   4.100
73886ION    CL-40317  34.993  23.259  12.567
73887ION    CL-40318  14.820  16.634   1.370
73888ION    CL-40319  27.803  25.943   1.109
73889ION    CL-40320   2.162  31.611   2.448
73890ION    CL-40321  34.576  43.058   2.922
73891ION    CL-40322  36.763   3.423  13.280
73892ION    CL-40323  37.911  10.791   3.670
73893ION    CL-40324   1.847  42.871   1.289
73894ION    CL-40325  44.582  42.269   9.928
73895ION    CL-40326  13.028   5.844   1.158
73896ION    CL-40327  25.704  42.731  12.881
73897ION    CL-40328  15.774  18.977  12.055
73898ION    CL-40329  24.141  22.672   4.818
73899ION    CL-40330  25.913   7.978   4.828
73900ION    CL-40331   2.118  14.512  14.527
73901ION    CL-40332   8.249  17.303  14.088
73902ION    CL-40333  29.481  19.558  12.890
73903ION    CL-40334  16.527  25.040  10.752
73904ION    CL-40335  14.741   4.654  14.812
73905ION    CL-40336  15.017  14.530  14.065
73906ION    CL-40337  27.188  20.977  14.899
73907ION    CL-40338   6.088  33.374   0.127
73908ION    CL-40339  13.552   4.010  11.961
73909ION    CL-40340  28.299   5.608   0.373
73910ION    CL-40341   3.160  19.698  14.907
73911ION    CL-40342  38.401  28.400   2.378
73912ION    CL-40343  13.863  37.179  11.099
73913ION    CL-40344  39.803   1.477  12.350
73914ION    CL-40345  11.943  32.821  14.966
73915ION    CL-40346  12.100  23.716  12.147
73916ION    CL-40347  10.400   9.619   4.338
73917ION    CL-40348  20.780  11.668   4.131
73918ION    CL-40349  29.761  24.096  12.406
73919ION    CL-40350  28.087   4.641   5.098
73920ION    CL-40351  36.567  43.803  11.292
73921ION    CL-40352  21.200  15.411   3.309
73922ION    CL-40353  38.884   9.903   1.952
73923ION    CL-40354  26.948  28.620   5.036
73924ION    CL-40355  30.375   6.630   1.795
73925ION    CL-40356  18.752  41.927  13.318
73926ION    CL-40357   9.236   0.609   4.964
73927ION    CL-40358  26.060  39.786   1.337
73928ION    CL-40359  20.211   3.141  11.177
73929ION    CL-40360  27.479  16.235   3.273
73930ION    CL-40361  39.273   3.959   0.673
73931ION    CL-40362  31.928   9.686   0.304
73932ION    CL-40363   8.102   3.168  14.108
73933ION    CL-40364  24.782   5.557  14.991
73934ION    CL-40365  25.805  19.364  11.836
73935ION    CL-40366  24.186  44.990   2.956
73936ION    CL-40367  10.007  10.886   2.852
73937ION    CL-40368  27.594  19.739   1.868
73938ION    CL-40369   5.279   3.015  11.896
73939ION    CL-40370   3.810  41.057   1.417
73940ION    CL-40371   9.054  38.548  10.737
73941ION    CL-40372  24.737  28.500  12.641
73942ION    CL-40373  13.138  13.736   0.374
73943ION    CL-40374  25.629  33.859  12.189
73944ION    CL-40375   0.858   3.007   2.106
73945ION    CL-40376  29.744  22.510  13.777
73946ION    CL-40377  34.601   0.630   3.162
73947ION    CL-40378  36.345  32.427   0.920
73948ION    CL-40379  36.444  18.945  10.817
73949ION    CL-40380  15.068  37.551  12.389
73950ION    CL-40381  24.696  19.734  13.603
73951ION    CL-40382  12.120  32.407   4.202
73952ION    CL-40383  11.607  13.567  14.341
73953ION    CL-40384  24.757  36.786  12.449
73954ION    CL-40385  35.660  17.175   0.360
73955ION    CL-40386   7.307  38.565   3.682
73956ION    CL-40387  33.949  10.013   0.344
73957ION    CL-40388  37.553  12.862  14.805
73958ION    CL-40389  34.487   1.748  13.611
73959ION    CL-40390  12.514  22.370  11.645
73960ION    CL-40391  12.269  44.492  11.540
73961ION    CL-40392  27.973  21.515  14.178
73962ION    CL-40393  33.977  18.170  13.747
73963ION    CL-40394  13.665  21.796   5.229
73964ION    CL-40395  18.243   4.488  10.910
73965ION    CL-40396  39.439   9.859   1.253
73966ION    CL-40397  44.738  41.820  13.548
73967ION    CL-40398  19.733  13.018   3.879
73968ION    CL-40399  38.361  18.981   4.791
73969ION    CL-40400   4.125  21.765   1.875
73970ION    CL-40401  28.729   4.183   4.483
73971ION    CL-40402   1.146  14.327   4.986
73972ION    CL-40403  25.548   9.376   0.965
73973ION    CL-40404   4.977  21.718  11.079
73974ION    CL-40405   3.575  19.943   4.373
73975ION    CL-40406  10.088  27.146  14.590
73976ION    CL-40407  21.547  25.541   1.658
73977ION    CL-40408  40.249   8.884  12.870
73978ION    CL-40409  26.667   2.936  13.473
73979ION    CL-40410  40.136  35.781  11.591
73980ION    CL-40411  21.342  43.235  11.132
73981ION    CL-40412   5.174  38.976   0.329
73982ION    CL-40413  17.399  37.097  11.666
73983ION    CL-40414  31.237   3.433   3.359
73984ION    CL-40415   5.022  34.426  12.502
73985ION    CL-40416  10.107  33.708   1.210
73986ION    CL-40417  33.005   5.790   1.906
73987ION    CL-40418  44.015  23.592  11.803
73988ION    CL-40419   0.904  27.428  11.143
73989ION    CL-40420  40.762  43.285  11.510
73990ION    CL-40421  32.939  26.162   0.690
73991ION    CL-40422  30.213  23.553  14.803
73992ION    CL-40423   6.837  20.839  14.502
73993ION    CL-40424   7.327  25.983   1.853
73994ION    CL-40425  25.939  18.844  12.563
73995ION    CL-40426  33.556   2.011   1.920
73996ION    CL-40427   4.999  29.335  13.765
73997ION    CL-40428  27.463  12.866  13.957
73998ION    CL-40429  35.590   5.755   1.870
73999ION    CL-40430  15.510  19.668   2.318
74000ION    CL-40431  19.928  15.445   2.334
74001ION    CL-40432  37.574  38.883  11.205
74002ION    CL-40433   7.187  43.874   3.419
74003ION    CL-40434  12.247  25.269   4.146
74004ION    CL-40435  26.700  35.944   1.130
74005ION    CL-40436  32.188  22.216   2.232
74006ION    CL-40437   8.326  11.167  11.515
74007ION    CL-40438   7.732   0.626  12.930
74008ION    CL-40439  36.132  36.095  13.710
74009ION    CL-40440  39.313  36.142  12.030
74010ION    CL-40441  20.236  17.202   2.628
74011ION    CL-40442  19.650  36.957  10.407
74012ION    CL-40443   9.394  15.786  14.349
74013ION    CL-40444   6.001   9.905   4.186
74014ION    CL-40445  30.705  23.851  12.749
74015ION    CL-40446   6.925   2.790   2.423
74016ION    CL-40447   9.734  23.398  14.731
74017ION    CL-40448  11.038  18.129  10.104
74018ION    CL-40449  33.071  18.858  11.135
74019ION    CL-40450  11.861  23.225  10.333
74020ION    CL-40451  32.913  25.567  12.332
74021ION    CL-40452  12.719  20.431   3.050
74022ION    CL-40453  35.262  12.066  12.491
74023ION    CL-40454  34.513  22.284   0.408
74024ION    CL-40455  43.997  15.658   3.870
74025ION    CL-40456  18.062  21.892   0.534
74026ION    CL-40457  30.726  41.510   3.568
74027ION    CL-40458  24.157  19.224  11.525
74028ION    CL-40459   3.174  28.420   3.117
74029ION    CL-40460   1.523  19.854  13.681
74030ION    CL-40461  10.104  29.247  12.398
74031ION    CL-40462  25.173  22.660  10.706
74032ION    CL-40463   6.195   7.479   0.472
74033ION    CL-40464  30.704  24.563   4.867
74034ION    CL-40465  30.905  28.492  10.757
74035ION    CL-40466  23.980  42.884   5.080
74036ION    CL-40467  13.388  23.707   1.418
74037ION    CL-40468  19.132  26.953   0.456
74038ION    CL-40469  44.312   1.780  13.063
74039ION    CL-40470  34.923  43.538   2.117
74040ION    CL-40471  39.396  14.247   4.877
74041ION    CL-40472  18.018  42.597  13.201
74042ION    CL-40473  29.014  33.928   3.475
74043ION    CL-40474  15.722   9.114   3.480
74044ION    CL-40475  32.324  12.149   0.875
74045ION    CL-40476   8.919   2.130   0.967
74046ION    CL-40477   1.542   8.643  12.220
74047ION    CL-40478   0.113  24.145   2.696
74048ION    CL-40479  10.082  32.572  14.981
74049ION    CL-40480  23.721  18.033  12.074
74050ION    CL-40481  24.053  12.292  11.597
74051ION    CL-40482  28.533  22.889   0.677
74052ION    CL-40483  28.067  33.339   1.472
74053ION    CL-40484  18.562  11.820   3.543
74054ION    CL-40485   9.406   3.160   2.737
74055ION    CL-40486   5.943  36.127   0.512
74056ION    CL-40487  36.641  14.974   2.265
74057ION    CL-40488  20.660  13.882   5.098
74058ION    CL-40489  39.062  10.334  11.719
74059ION    CL-40490  36.276  39.875  13.188
74060ION    CL-40491  18.380   6.596  14.544
74061ION    CL-40492  12.922  26.396  14.522
74062ION    CL-40493  13.168  24.389  11.344
74063ION    CL-40494   5.823  11.354   0.771
74064ION    CL-40495  25.663  42.228   3.601
74065ION    CL-40496  44.223  31.591   0.797
74066ION    CL-40497  40.745  32.902   2.844
74067ION    CL-40498  37.548  38.890   2.147
74068ION    CL-40499   2.423  33.910  11.500
74069ION    CL-40500   0.135  34.552   0.350
74070ION    CL-40501  13.780  40.122  12.462
74071ION    CL-40502   3.052  12.348   0.522
74072ION    CL-40503  41.707  17.773  11.042
74073ION    CL-40504  26.657  27.097  10.973
74074ION    CL-40505  38.558  43.140   1.444
74075ION    CL-40506   9.755  37.572   2.335
74076ION    CL-40507  12.618  44.894   1.301
74077ION    CL-40508  42.706  40.218  12.078
74078ION    CL-40509   8.626   6.359   2.213
74079ION    CL-40510  11.703  22.175  14.245
74080ION    CL-40511  13.191   0.026  13.677
74081ION    CL-40512  36.558  28.249   2.656
74082ION    CL-40513  43.151  24.782  14.081
74083ION    CL-40514  20.534  18.748   0.950
74084ION    CL-40515   2.812  32.767   3.769
74085ION    CL-40516  35.605  22.604  13.010
74086ION    CL-40517  36.850  36.573   2.377
74087ION    CL-40518  18.409  28.936  14.676
74088ION    CL-40519  29.707  36.607  12.615
74089ION    CL-40520   2.076  38.292  13.030
74090ION    CL-40521   5.048   3.996  12.376
74091ION    CL-40522  25.034   0.457  12.120
74092ION    CL-40523  13.484  20.779   0.504
74093ION    CL-40524  23.809  12.724  10.972
74094ION    CL-40525  14.017  12.243  13.868
74095ION    CL-40526   6.565  40.836  11.215
74096ION    CL-40527  15.746   1.063  13.408
74097ION    CL-40528  38.040   1.483   4.193
74098ION    CL-40529  41.490  13.621  14.939
74099ION    CL-40530   9.326  18.413   3.657
74100ION    CL-40531  18.623  39.524  10.567
74101ION    CL-40532  20.288  44.817   1.557
74102ION    CL-40533  38.477   6.165  13.333
74103ION    CL-40534   0.734  28.957  13.342
74104ION    CL-40535   8.084  18.635   2.874
74105ION    CL-40536  14.569  12.631  10.780
74106ION    CL-40537  41.738  39.431   2.768
74107ION    CL-40538  41.368   7.636   2.281
74108ION    CL-40539  12.753  38.277   1.292
74109ION    CL-40540  13.345  10.102   4.117
74110ION    CL-40541  42.406  41.033   1.434
74111ION    CL-40542  42.829  18.366  13.441
74112ION    CL-40543  19.442  11.106  12.699
74113ION    CL-40544  42.065  19.138  13.793
74114ION    CL-40545   6.845   4.346  11.745
74115ION    CL-40546  18.714   1.811   1.371
74116ION    CL-40547  32.878  19.880  13.552
74117ION    CL-40548  17.579  20.629  13.742
74118ION    CL-40549  30.564  43.280  11.019
74119ION    CL-40550   9.814   0.511   3.638
74120ION    CL-40551  28.169  14.011   1.886
74121ION    CL-40552  34.973  24.780   1.942
74122ION    CL-40553   4.302  28.256   2.302
74123ION    CL-40554  11.507  29.153   4.099
74124ION    CL-40555  37.785  13.835  14.302
74125ION    CL-40556  13.563  35.807  12.483
74126ION    CL-40557  36.102  18.944  13.297
74127ION    CL-40558  39.864   5.689  13.990
74128ION    CL-40559   2.862  18.731  12.718
74129ION    CL-40560  20.281   1.865   3.127
74130ION    CL-40561   1.229  31.639   1.682
74131ION    CL-40562  27.233  22.322  14.739
74132ION    CL-40563  11.639  20.771  12.123
74133ION    CL-40564  44.706  21.714   0.545
74134ION    CL-40565  41.104   8.062  14.542
74135ION    CL-40566  38.783  43.992   2.238
74136ION    CL-40567  35.034  16.830  11.166
74137ION    CL-40568  40.410  31.754  12.067
74138ION    CL-40569  40.496   1.491  12.922
74139ION    CL-40570  19.880  22.418   3.075
74140ION    CL-40571  24.138   3.706  14.998
74141ION    CL-40572  31.882  24.089   2.123
74142ION    CL-40573  10.684   5.319  14.329
74143ION    CL-40574  17.774  36.245  13.851
74144ION    CL-40575   0.341  10.639  11.412
74145ION    CL-40576  44.694  29.372   1.061
74146ION    CL-40577  43.786   3.869   1.593
74147ION    CL-40578  36.434  33.761  12.438
74148ION    CL-40579   2.664  44.310  14.767
74149ION    CL-40580  26.837  42.409   4.635
74150ION    CL-40581  38.388   7.755   3.876
74151ION    CL-40582  15.418   9.467   2.595
74152ION    CL-40583   8.135  23.593   5.002
74153ION    CL-40584   8.971   8.644   0.276
74154ION    CL-40585  36.383   9.870  14.551
74155ION    CL-40586  16.740  35.347  11.433
74156ION    CL-40587  36.326  20.075   3.811
74157ION    CL-40588  20.041  15.842  11.619
74158ION    CL-40589  21.743  25.683   4.120
74159ION    CL-40590  32.941  22.463  13.981
74160ION    CL-40591  37.505   5.000  14.565
74161ION    CL-40592  18.553  40.501   4.344
74162ION    CL-40593  14.619  38.169   2.378
74163ION    CL-40594  10.709  32.302  14.251
74164ION    CL-40595  29.737  32.249  11.027
74165ION    CL-40596  37.403  11.596  14.711
74166ION    CL-40597  18.831  21.185  11.117
74167ION    CL-40598  34.747  35.347  11.761
74168ION    CL-40599  25.161  30.136   1.249
74169ION    CL-40600  42.771  25.158   0.633
74170ION    CL-40601  44.703  38.232   3.696
74171ION    CL-40602   6.286  12.470   3.084
74172ION    CL-40603  20.418  11.337  12.799
74173ION    CL-40604   1.078  12.680   3.384
74174ION    CL-40605  44.531  15.508  12.426
74175ION    CL-40606  26.403  13.598   2.773
74176ION    CL-40607  38.625  25.831  11.845
74177ION    CL-40608  23.929  35.833   3.224
74178ION    CL-40609  19.151  32.909   4.314
74179ION    CL-40610  39.867  17.678  13.622
74180ION    CL-40611  37.683  28.212   0.830
74181ION    CL-40612  42.965  18.131   4.520
74182ION    CL-40613  21.125  42.658  12.987
74183ION    CL-40614  44.072  20.218   3.220
74184ION    CL-40615  34.938  43.485   0.714
74185ION    CL-40616  21.637  42.194   0.946
74186ION    CL-40617  20.886  17.467  10.995
74187ION    CL-40618  18.016   4.199  14.401
74188ION    CL-40619   5.579  34.126   2.835
74189ION    CL-40620   8.675  42.980   0.335
74190ION    CL-40621  32.353  43.163  13.504
74191ION    CL-40622  33.312  37.285  12.391
74192ION    CL-40623   6.870  36.995   3.770
74193ION    CL-40624  28.843  24.417  13.018
74194ION    CL-40625  15.995  38.464   1.164
74195ION    CL-40626  26.638  27.983  10.316
74196ION    CL-40627  12.236  18.360  10.981
74197ION    CL-40628  12.416  15.088   4.596
74198ION    CL-40629  44.145  44.327  14.085
74199ION    CL-40630  23.902   4.696   3.835
74200ION    CL-40631  17.034  27.803  11.566
74201ION    CL-40632  19.465  39.917   0.296
74202ION    CL-40633  18.909  11.171   2.865
74203ION    CL-40634  26.290   4.692  13.649
74204ION    CL-40635   7.274  44.375  12.288
74205ION    CL-40636   0.421  17.042  11.548
74206ION    CL-40637  22.823  43.078   0.060
74207ION    CL-40638  13.795  18.998   4.524
74208ION    CL-40639  15.321   6.487   2.126
74209ION    CL-40640   5.947  27.998   3.406
74210ION    CL-40641  27.308  25.074   1.117
74211ION    CL-40642  23.077  44.971   2.191
74212ION    CL-40643  33.003  16.587  12.191
74213ION    CL-40644  17.526  40.431  13.054
74214ION    CL-40645  32.010  39.386   2.477
74215ION    CL-40646  11.388  37.056  12.478
74216ION    CL-40647  42.776  25.491  12.213
74217ION    CL-40648  16.647   9.215  12.322
74218ION    CL-40649  26.754  31.178   0.059
74219ION    CL-40650   9.680  41.009  14.788
74220ION    CL-40651  37.723  36.512   1.893
74221ION    CL-40652  17.897   8.957   0.722
74222ION    CL-40653  37.447  19.554   2.836
74223ION    CL-40654  23.708  14.259  10.703
74224ION    CL-40655   3.086  31.935   2.760
74225ION    CL-40656  30.879  25.336   1.049
74226ION    CL-40657  30.178  14.675   0.651
74227ION    CL-40658  37.061   3.529  11.743
74228ION    CL-40659  32.585  29.773  14.100
74229ION    CL-40660  44.926   1.952   1.248
74230ION    CL-40661   8.741  27.420  12.061
74231ION    CL-40662  21.980  17.592   0.812
74232ION    CL-40663  23.552  41.500  11.167
74233ION    CL-40664   5.915  18.931   4.517
74234ION    CL-40665  33.168  32.121  11.114
74235ION    CL-40666  22.611  35.479   3.119
74236ION    CL-40667  29.654  35.388   0.736
74237ION    CL-40668  29.973  25.758   2.392
74238ION    CL-40669  43.043  18.813   1.450
74239ION    CL-40670  15.780   5.783   9.864
74240ION    CL-40671  35.922  37.305   4.681
74241ION    CL-40672   4.392   5.917   3.357
74242ION    CL-40673  40.860  31.192   4.481
74243ION    CL-40674   7.179   5.983   1.852
74244ION    CL-40675  10.023   1.076  11.956
74245ION    CL-40676  32.026   7.680  13.581
74246ION    CL-40677  18.255  34.132   1.159
74247ION    CL-40678  33.532  38.809  10.198
74248ION    CL-40679  39.129   1.036   4.910
74249ION    CL-40680  10.662  23.171   2.402
74250ION    CL-40681  33.126  30.938   3.908
74251ION    CL-40682  30.082  44.666   2.947
74252ION    CL-40683   2.361  31.037   1.644
74253ION    CL-40684  10.169  23.816   2.806
74254ION    CL-40685  44.257   1.737   2.803
74255ION    CL-40686  18.102  36.373   4.918
74256ION    CL-40687  11.595  41.606   0.002
74257ION    CL-40688  10.932  18.854  11.793
74258ION    CL-40689  34.350  30.061  14.069
74259ION    CL-40690  32.409  38.053  11.069
74260ION    CL-40691  29.978   6.335  13.641
74261ION    CL-40692   6.680  28.827   0.427
74262ION    CL-40693  28.038  15.567   2.681
74263ION    CL-40694  35.801  28.124   0.254
74264ION    CL-40695  26.565  18.561   0.342
74265ION    CL-40696  28.397  38.893  10.984
74266ION    CL-40697  38.297  13.107  11.600
74267ION    CL-40698  20.190  28.004   3.954
74268ION    CL-40699  35.556   2.680   0.983
74269ION    CL-40700  31.098  21.918  11.660
74270ION    CL-40701  33.246  39.476   1.258
74271ION    CL-40702  13.901  30.526   9.691
74272ION    CL-40703  30.286  41.057   1.648
74273ION    CL-40704  34.209  20.202  11.446
74274ION    CL-40705   6.812  14.904  12.869
74275ION    CL-40706   0.581  12.905  12.881
74276ION    CL-40707  19.821  23.697  14.567
74277ION    CL-40708  12.888  26.841   3.275
74278ION    CL-40709  21.070  18.755   3.530
74279ION    CL-40710  21.218   2.546   0.295
74280ION    CL-40711  21.963  12.434  11.838
74281ION    CL-40712   7.977  42.846   1.706
74282ION    CL-40713  15.269  13.182  10.585
74283ION    CL-40714   2.974  29.312  11.518
74284ION    CL-40715  40.405   6.399   1.773
74285ION    CL-40716   0.352  26.254   3.488
74286ION    CL-40717  33.520  10.749   2.456
74287ION    CL-40718  34.948  33.880  13.394
74288ION    CL-40719  34.084   2.035   3.470
74289ION    CL-40720  27.069  33.863  13.948
74290ION    CL-40721  10.008  27.975   1.786
74291ION    CL-40722  11.424  24.072  14.956
74292ION    CL-40723   6.784   2.261   1.586
74293ION    CL-40724  12.084   9.799  11.608
74294ION    CL-40725  38.776  42.712  11.254
74295ION    CL-40726   4.261  33.423   3.267
74296ION    CL-40727  35.130  44.659  12.791
74297ION    CL-40728  37.068  24.021  13.412
74298ION    CL-40729   9.898  22.581  11.016
74299ION    CL-40730  33.530  44.861   3.860
74300ION    CL-40731  40.140   4.792  11.553
74301ION    CL-40732  21.317   1.073   2.282
74302ION    CL-40733  30.651  12.776   3.596
74303ION    CL-40734   7.183  40.325   4.565
74304ION    CL-40735  19.048   2.778  11.754
74305ION    CL-40736  42.473  21.672   3.772
74306ION    CL-40737  22.496  30.312  13.349
74307ION    CL-40738  37.016  36.501   3.382
74308ION    CL-40739   3.263  31.845  12.591
74309ION    CL-40740  28.742  13.054   2.621
74310ION    CL-40741  19.648  22.996  11.283
74311ION    CL-40742  12.069  24.429   4.658
74312ION    CL-40743   8.293   5.164  13.857
74313ION    CL-40744  29.711  21.122  11.530
74314ION    CL-40745  35.372  34.122  10.377
74315ION    CL-40746  16.421  23.656   5.447
74316ION    CL-40747  27.562  34.944   5.029
74317ION    CL-40748  16.486  16.538  14.657
74318ION    CL-40749  31.581  17.195  12.897
74319ION    CL-40750  14.629  13.053   1.916
74320ION    CL-40751  32.064  11.994  10.135
74321ION    CL-40752  26.858  14.372  11.278
74322ION    CL-40753  13.850   3.759   0.630
74323ION    CL-40754  35.469  44.919   2.646
74324ION    CL-40755  12.549   6.145  12.105
74325ION    CL-40756  43.533   3.921   3.280
74326ION    CL-40757   5.777   0.971   1.435
74327ION    CL-40758  40.244  35.480  12.442
74328ION    CL-40759  24.271   9.513  13.904
74329ION    CL-40760  16.225  39.680   1.180
74330ION    CL-40761  10.887  43.671   4.215
74331ION    CL-40762  42.760  44.450  12.646
74332ION    CL-40763  25.915  43.007  10.444
74333ION    CL-40764  25.766  12.727   4.172
74334ION    CL-40765   4.248  18.227  11.401
74335ION    CL-40766   4.575  14.703  13.787
74336ION    CL-40767  26.069  29.984  12.624
74337ION    CL-40768  22.357  15.763  11.372
74338ION    CL-40769  44.349   5.546   2.599
74339ION    CL-40770   5.821  22.435   4.211
74340ION    CL-40771  44.559   1.213  13.849
74341ION    CL-40772  21.180  24.177  13.103
74342ION    CL-40773  29.029  30.064   2.728
74343ION    CL-40774  23.793  33.771   4.027
74344ION    CL-40775  39.037  43.362  11.968
74345ION    CL-40776  35.871  28.721  12.152
74346ION    CL-40777   6.699  10.342  11.316
74347ION    CL-40778  23.067  30.327  14.170
74348ION    CL-40779   6.992  12.447   1.411
74349ION    CL-40780  18.118  24.580   4.884
74350ION    CL-40781   8.132  40.226  12.160
74351ION    CL-40782   0.202  30.936   1.023
74352ION    CL-40783  15.362  16.954   3.611
74353ION    CL-40784  33.109  24.629   2.298
74354ION    CL-40785  39.127  20.234   4.208
74355ION    CL-40786  35.354   5.830  14.457
74356ION    CL-40787  25.492   4.705   5.038
74357ION    CL-40788  22.163  16.828  13.691
74358ION    CL-40789  38.138   2.500   4.375
74359ION    CL-40790   3.690  35.587  14.584
74360ION    CL-40791  30.173  10.025   1.848
74361ION    CL-40792   3.509  27.288   4.638
74362ION    CL-40793  13.565   9.916   2.509
74363ION    CL-40794  37.007   3.019  10.509
74364ION    CL-40795  22.217   0.201   3.244
74365ION    CL-40796  42.859  43.238   0.746
74366ION    CL-40797   9.905  43.515  14.279
74367ION    CL-40798  25.098  28.994   3.153
74368ION    CL-40799  36.439  29.860   0.076
74369ION    CL-40800  15.552  12.952   4.441
74370ION    CL-40801  41.888   1.277  12.954
74371ION    CL-40802  44.770   3.870   3.740
74372ION    CL-40803   9.505  15.678  13.529
74373ION    CL-40804  22.482  25.955  13.947
74374ION    CL-40805  36.964   8.759  13.881
74375ION    CL-40806  28.908   5.173  14.947
74376ION    CL-40807   0.349  15.632   3.792
74377ION    CL-40808  18.359  27.472  12.057
74378ION    CL-40809  11.739   2.186   0.247
74379ION    CL-40810   9.188  11.777  10.250
74380ION    CL-40811  42.046   3.294   5.205
74381ION    CL-40812  42.233  39.779  12.842
74382ION    CL-40813  35.743  21.394  13.347
74383ION    CL-40814  17.861   1.559   3.876
74384ION    CL-40815   8.601   0.781  10.629
74385ION    CL-40816  15.534  14.502   2.908
74386ION    CL-40817  28.591   3.967  11.419
74387ION    CL-40818  13.626  40.998  12.919
74388ION    CL-40819  30.834   2.932  13.238
74389ION    CL-40820  42.838  22.344   3.128
74390ION    CL-40821  19.241  22.591   4.164
74391ION    CL-40822   6.354  37.878  12.333
74392ION    CL-40823   7.288  19.247  14.692
74393ION    CL-40824  37.513   3.272   3.149
74394ION    CL-40825  31.421  15.855   1.279
74395ION    CL-40826  22.769  31.232  13.868
74396ION    CL-40827  19.575  11.579  13.570
74397ION    CL-40828  29.572  20.115  10.695
74398ION    CL-40829   4.695  42.353   3.020
74399ION    CL-40830  29.913  32.505   1.678
74400ION    CL-40831  24.139  31.339   0.954
74401ION    CL-40832  17.892  40.583  14.930
74402ION    CL-40833  40.014  41.916   3.176
74403ION    CL-40834  34.824  44.823  11.096
74404ION    CL-40835  30.176   2.183   1.179
74405ION    CL-40836   8.686  39.807  10.651
74406ION    CL-40837  27.165  26.566  13.748
74407ION    CL-40838   3.617  19.056  13.055
74408ION    CL-40839  26.996  44.907  14.400
74409ION    CL-40840  43.907  41.074   2.604
74410ION    CL-40841  43.918  37.296  10.700
74411ION    CL-40842   3.113   4.383  10.159
74412ION    CL-40843  37.614  11.369  11.234
74413ION    CL-40844  34.409  22.809  11.152
74414ION    CL-40845  13.563  33.312   0.637
74415ION    CL-40846  43.854  23.129   1.790
74416ION    CL-40847  30.973  29.739  12.057
74417ION    CL-40848  43.437  21.831   3.558
74418ION    CL-40849   8.777  20.145   2.193
74419ION    CL-40850   8.930  40.528  11.493
74420ION    CL-40851  24.667  15.287   0.292
74421ION    CL-40852  29.114  33.551  12.924
74422ION    CL-40853  43.958  21.720   5.014
74423ION    CL-40854  13.162  32.555   4.743
74424ION    CL-40855  22.180  34.821   0.272
74425ION    CL-40856   3.421  26.915  14.069
74426ION    CL-40857   0.345  11.121  13.414
74427ION    CL-40858  16.317   8.957  13.237
74428ION    CL-40859  13.350  34.318   3.086
74429ION    CL-40860  19.365  35.310   4.287
74430ION    CL-40861  12.775  31.139   3.722
74431ION    CL-40862  42.417   6.201   4.994
74432ION    CL-40863  37.528  11.575   9.794
74433ION    CL-40864   2.911  30.250  14.626
74434ION    CL-40865   9.098  19.328   3.252
74435ION    CL-40866  14.522  41.004   2.007
74436ION    CL-40867  27.223  11.150   2.674
74437ION    CL-40868  15.348   0.394  12.370
74438ION    CL-40869   2.651  23.193   0.439
74439ION    CL-40870  23.229   6.746   4.134
74440ION    CL-40871  30.139  33.297  13.069
74441ION    CL-40872  13.795   6.950   4.546
74442ION    CL-40873  19.471  12.602   3.527
74443ION    CL-40874  13.155  13.766  13.865
74444ION    CL-40875   1.030  20.651   4.968
74445ION    CL-40876   1.857   9.258   0.372
74446ION    CL-40877  41.506   8.126  13.041
74447ION    CL-40878  31.264  42.709  11.028
74448ION    CL-40879  10.568   6.607  12.592
74449ION    CL-40880  15.564  29.861   1.711
74450ION    CL-40881  26.370  17.414  12.423
74451ION    CL-40882   8.274  43.666  14.069
74452ION    CL-40883  18.557  33.548   2.841
74453ION    CL-40884   1.781  19.853  14.532
74454ION    CL-40885  42.653  37.595   3.621
74455ION    CL-40886  23.076  23.717   2.849
74456ION    CL-40887  38.851  25.038  11.427
74457ION    CL-40888  34.294  32.439   3.516
74458ION    CL-40889  36.216   8.685  14.373
74459ION    CL-40890   2.746   7.491  14.430
74460ION    CL-40891  37.384  15.827   0.717
74461ION    CL-40892   7.776   0.820   4.248
74462ION    CL-40893  20.445  35.747  12.539
74463ION    CL-40894  26.326  39.060   5.133
74464ION    CL-40895  39.188  26.287   3.113
74465ION    CL-40896  24.417  13.034  11.446
74466ION    CL-40897   6.894  16.094  11.243
74467ION    CL-40898  20.545  36.583   4.751
74468ION    CL-40899  35.307  40.887   0.807
74469ION    CL-40900  41.057  31.019   2.260
74470ION    CL-40901  10.769  13.144  13.532
74471ION    CL-40902  38.442  43.870  13.529
74472ION    CL-40903   9.543  31.854   2.236
74473ION    CL-40904  31.721  43.434   3.228
74474ION    CL-40905  16.199  27.857  13.290
74475ION    CL-40906  33.658  38.952  12.291
74476ION    CL-40907  28.113   3.284   3.230
74477ION    CL-40908  43.238  41.575  13.271
74478ION    CL-40909  22.314   2.649  14.367
74479ION    CL-40910  28.135  21.272   1.016
74480ION    CL-40911  33.012  44.949   3.009
74481ION    CL-40912  22.958  16.873  14.075
74482ION    CL-40913  27.498  26.103  10.912
74483ION    CL-40914  23.156  25.355   0.171
74484ION    CL-40915  15.750  29.421  11.992
74485ION    CL-40916  41.055   0.676  10.157
74486ION    CL-40917  43.852  14.193  14.833
74487ION    CL-40918   0.142  37.251  13.797
74488ION    CL-40919  10.142  13.989   9.791
74489ION    CL-40920  27.588  33.527   5.066
74490ION    CL-40921  37.197   2.864   1.730
74491ION    CL-40922  42.070   4.554   0.232
74492ION    CL-40923   5.796  11.730  12.708
74493ION    CL-40924  22.489  39.683   0.421
74494ION    CL-40925   5.745  38.312  14.846
74495ION    CL-40926  39.039   6.512   2.782
74496ION    CL-40927  13.481  17.286   1.829
74497ION    CL-40928  31.042  10.328   0.329
74498ION    CL-40929  14.213  38.947   4.759
74499ION    CL-40930  33.633  28.047  14.789
74500ION    CL-40931  31.282   8.907   2.283
74501ION    CL-40932   8.820  38.825  12.989
74502ION    CL-40933  29.366  33.478   5.088
74503ION    CL-40934  22.371  25.519   0.598
74504ION    CL-40935   3.800   4.406   3.648
74505ION    CL-40936   2.693  10.480   0.699
74506ION    CL-40937  36.424  37.643  13.103
74507ION    CL-40938  38.174  25.788  10.506
74508ION    CL-40939   5.078  43.623  10.284
74509ION    CL-40940  44.958  13.061   2.501
74510ION    CL-40941  19.992  12.279   4.217
74511ION    CL-40942  37.852   2.200   3.465
74512ION    CL-40943   4.143   6.851  14.479
74513ION    CL-40944  34.300  44.005  12.256
74514ION    CL-40945  37.108  34.901   1.786
74515ION    CL-40946  11.962  25.706   5.003
74516ION    CL-40947  11.525  25.669   1.592
74517ION    CL-40948   7.282   4.656  13.720
74518ION    CL-40949  44.042  25.127  11.446
74519ION    CL-40950  18.198  25.238   9.658
74520ION    CL-40951  37.774  14.260  12.084
74521ION    CL-40952   7.731   7.248   1.754
74522ION    CL-40953   8.625  27.927   1.697
74523ION    CL-40954   6.846  29.021   5.087
74524ION    CL-40955  37.845  32.883  12.091
74525ION    CL-40956   8.667  37.030   2.664
74526ION    CL-40957  43.660  27.703  12.420
74527ION    CL-40958  31.866  24.963  12.877
74528ION    CL-40959  24.111  30.836  12.386
74529ION    CL-40960   7.702  23.356  13.994
74530ION    CL-40961   0.162  15.583   2.811
74531ION    CL-40962  31.040  37.568  11.576
74532ION    CL-40963  39.820  22.797   1.903
74533ION    CL-40964   9.028  14.079   0.275
74534ION    CL-40965  25.276  18.296  14.528
74535ION    CL-40966  37.046  19.800  13.095
74536ION    CL-40967  28.070  31.205   3.774
74537ION    CL-40968  17.510   3.420   5.394
74538ION    CL-40969  30.040  18.592  10.824
74539ION    CL-40970  32.975  28.775   0.138
74540ION    CL-40971   1.739  14.118   0.365
74541ION    CL-40972  22.961  37.142  10.783
74542ION    CL-40973  11.627  40.663   3.695
74543ION    CL-40974  41.748  38.418  12.398
74544ION    CL-40975  39.853   9.978  14.954
74545ION    CL-40976  17.069  36.391  10.657
74546ION    CL-40977  38.286  21.717   0.981
74547ION    CL-40978  21.094   2.696   1.694
74548ION    CL-40979  44.833  18.777  10.701
74549ION    CL-40980  14.303  21.818   2.682
74550ION    CL-40981  37.576  24.260  10.450
74551ION    CL-40982  32.200  38.460   2.150
74552ION    CL-40983   3.305  22.898  10.082
74553ION    CL-40984  40.763  30.259   4.133
74554ION    CL-40985  19.049   2.980  14.066
74555ION    CL-40986  41.280  21.956   4.063
74556ION    CL-40987  36.693  28.177   5.035
74557ION    CL-40988  19.905  29.128   2.620
74558ION    CL-40989  12.897  39.047   4.164
74559ION    CL-40990   1.318  11.426   2.326
74560ION    CL-40991   5.034  33.792   2.751
74561ION    CL-40992  36.699  39.000   0.047
74562ION    CL-40993  20.093  10.946   4.058
74563ION    CL-40994  34.217  31.499  12.385
74564ION    CL-40995  31.557  22.374  13.160
74565ION    CL-40996  11.677   2.561   4.893
74566ION    CL-40997   1.805  34.677  12.097
74567ION    CL-40998  28.198  27.365  11.645
74568ION    CL-40999  20.941  16.227   3.827
74569ION    CL-41000  23.188  39.264  14.841
74570ION    CL-41001  15.667  12.415  11.547
74571ION    CL-41002  31.650   5.341  13.398
74572ION    CL-41003  39.275  25.963  13.531
74573ION    CL-41004  15.301  24.036   0.292
74574ION    CL-41005  35.230  41.262   4.185
74575ION    CL-41006  11.083  10.886  13.261
74576ION    CL-41007   2.759  32.990  12.935
74577ION    CL-41008  26.993   6.402  12.927
74578ION    CL-41009  17.306  31.291  14.713
74579ION    CL-41010  26.226  12.649  14.406
74580ION    CL-41011  15.655  21.509   5.130
74581ION    CL-41012  24.440  12.130   2.498
74582ION    CL-41013  12.101  17.404  11.240
74583ION    CL-41014   5.876  39.138   1.430
74584ION    CL-41015   4.953  19.864  11.201
74585ION    CL-41016  29.212  15.536   1.740
74586ION    CL-41017  16.452   2.291   4.057
74587ION    CL-41018  24.287  37.289   2.362
74588ION    CL-41019  38.564  14.781   2.115
74589ION    CL-41020  15.609  35.908   2.110
74590ION    CL-41021  37.862  30.237  14.527
74591ION    CL-41022  13.179  25.372  11.528
74592ION    CL-41023   6.602  40.944   1.324
74593ION    CL-41024  42.129  18.515   1.175
74594ION    CL-41025  41.276  27.619   1.874
74595ION    CL-41026  26.957   7.820  11.187
74596ION    CL-41027  13.793  44.910   3.671
74597ION    CL-41028  13.770   2.402  11.257
74598ION    CL-41029  12.507   2.652  11.593
74599ION    CL-41030  24.002  21.390  13.291
74600ION    CL-41031  11.821  36.473  11.162
74601ION    CL-41032   2.539  19.461  12.116
74602ION    CL-41033  16.964   1.774   9.542
74603ION    CL-41034  21.847   2.362  10.684
74604ION    CL-41035   2.340  25.271  14.883
74605ION    CL-41036  15.780  27.984  14.271
74606ION    CL-41037   9.373   4.391  12.936
74607ION    CL-41038  18.819  34.891   4.908
74608ION    CL-41039  39.157  14.682   0.061
74609ION    CL-41040  25.591   9.296  14.955
74610ION    CL-41041   0.157  17.878   2.323
74611ION    CL-41042   6.843  19.088   1.207
74612ION    CL-41043  41.150  15.583  10.412
74613ION    CL-41044  39.320  36.056  10.714
74614ION    CL-41045   3.336  16.204  11.534
74615ION    CL-41046   4.437  11.210   0.433
74616ION    CL-41047  23.865   5.456   0.079
74617ION    CL-41048  11.601  43.335  11.551
74618ION    CL-41049  22.067   9.748   3.173
74619ION    CL-41050  15.748   6.873   0.302
74620ION    CL-41051  28.673   6.165   3.105
74621ION    CL-41052  44.852  20.761  13.023
74622ION    CL-41053  13.660  27.798  10.705
74623ION    CL-41054  18.348   1.269  14.319
74624ION    CL-41055  22.877   1.517   4.892
74625ION    CL-41056  30.178  14.536  11.575
74626ION    CL-41057  25.105  38.480  12.075
74627ION    CL-41058  21.019   9.984  13.995
74628ION    CL-41059  39.189  17.966  12.069
74629ION    CL-41060   1.232  36.746  10.666
74630ION    CL-41061  43.514  39.414  12.084
74631ION    CL-41062  12.325  21.133  13.788
74632ION    CL-41063  35.931  41.534  11.508
74633ION    CL-41064  31.859   1.000   4.702
74634ION    CL-41065  17.774  11.435  13.875
74635ION    CL-41066  23.228  38.488   1.149
74636ION    CL-41067  16.422  31.779  12.686
74637ION    CL-41068  44.639  12.016  12.063
74638ION    CL-41069  32.031  37.266  14.408
74639ION    CL-41070  38.220  31.772  10.006
74640ION    CL-41071  44.205  17.119  13.977
74641ION    CL-41072  16.522  22.954   0.366
74642ION    CL-41073  31.518  35.729   3.913
74643ION    CL-41074  22.431  37.744   3.623
74644ION    CL-41075  14.158   6.184   3.601
74645ION    CL-41076   3.888  26.495  12.057
74646ION    CL-41077  37.069   5.091  11.140
74647ION    CL-41078  33.070  15.629   4.637
74648ION    CL-41079   8.821  37.884  14.406
74649ION    CL-41080  21.429  13.612   3.060
74650ION    CL-41081  28.786  15.737  12.670
74651ION    CL-41082  32.028   3.012   3.848
74652ION    CL-41083  15.173  15.739  14.840
74653ION    CL-41084  35.622  22.879   2.617
74654ION    CL-41085   2.327  28.144  14.741
74655ION    CL-41086  39.953   8.929  11.168
74656ION    CL-41087  28.114   2.782  10.715
74657ION    CL-41088  24.148  44.335   3.735
74658ION    CL-41089  37.436  17.298   0.101
74659ION    CL-41090  41.398  16.346   0.945
74660ION    CL-41091  13.398  40.662  14.629
74661ION    CL-41092   3.837  42.117  12.683
74662ION    CL-41093  29.068  43.171   3.802
74663ION    CL-41094   7.896  24.234  14.109
74664ION    CL-41095  20.309  11.148  14.431
74665ION    CL-41096   1.430  33.896  11.054
74666ION    CL-41097  26.554  40.102  10.530
74667ION    CL-41098  26.761  33.414   4.646
74668ION    CL-41099  15.029  36.851   3.145
74669ION    CL-41100  37.882  10.270   0.246
74670ION    CL-41101   5.621  44.703  11.025
74671ION    CL-41102  42.558  33.636  13.485
74672ION    CL-41103  22.487  31.979   3.883
74673ION    CL-41104  31.478  34.486  13.026
74674ION    CL-41105   0.421  25.428  14.150
74675ION    CL-41106   6.797  16.004   1.665
74676ION    CL-41107   8.258  18.230   2.232
74677ION    CL-41108  23.065  27.554   4.012
74678ION    CL-41109  32.819  44.284   4.999
74679ION    CL-41110  18.790  44.246  14.443
74680ION    CL-41111  37.645   0.535   3.882
74681ION    CL-41112   1.917  27.593   4.112
74682ION    CL-41113  36.163   5.282   3.447
74683ION    CL-41114  14.503  23.832  12.978
74684ION    CL-41115   3.006  16.872   0.772
74685ION    CL-41116  30.851  35.902   2.085
74686ION    CL-41117  25.518  16.593   0.424
74687ION    CL-41118   1.815  37.494   4.938
74688ION    CL-41119  17.049  11.982  13.904
74689ION    CL-41120   3.470  19.637   0.884
74690ION    CL-41121  35.438  29.721   0.939
74691ION    CL-41122  39.191   5.083  11.348
74692ION    CL-41123  15.594  32.638  10.988
74693ION    CL-41124  23.005   4.810  11.660
74694ION    CL-41125   1.604  39.112  10.460
74695ION    CL-41126  25.484  39.146  14.477
74696ION    CL-41127  29.589  26.805   1.983
74697ION    CL-41128   3.244   3.600  10.956
74698ION    CL-41129  44.807  25.873  12.970
74699ION    CL-41130   6.539  19.320   4.053
74700ION    CL-41131  15.980   0.752  11.089
74701ION    CL-41132  29.759  33.847   0.889
74702ION    CL-41133   5.109  12.314   1.680
74703ION    CL-41134  38.299  14.667   4.846
74704ION    CL-41135   7.479  28.371  14.948
74705ION    CL-41136  20.689  42.062  14.978
74706ION    CL-41137   4.959  37.881  14.404
74707ION    CL-41138  35.272  24.007   3.402
74708ION    CL-41139  12.529   2.039   0.843
74709ION    CL-41140  30.405  10.956   3.729
74710ION    CL-41141  18.624   9.853   1.655
74711ION    CL-41142  22.670  20.550   0.182
74712ION    CL-41143  38.706  27.047   0.480
74713ION    CL-41144   6.740  22.058  10.946
74714ION    CL-41145   7.528  11.471  12.662
74715ION    CL-41146   5.214  10.462   2.699
74716ION    CL-41147  19.479  26.901  13.008
74717ION    CL-41148  41.440  19.099  11.679
74718ION    CL-41149  10.192  11.077   5.029
74719ION    CL-41150  11.665  24.063   2.288
74720ION    CL-41151   9.254  10.011   1.075
74721ION    CL-41152   7.770   4.732  14.592
74722ION    CL-41153  15.103  38.261   4.152
74723ION    CL-41154   3.533  14.341  14.566
74724ION    CL-41155  29.905  15.834  12.020
74725ION    CL-41156  24.804  19.329   2.626
74726ION    CL-41157   0.941  24.054   2.143
74727ION    CL-41158  38.977   9.582   4.141
74728ION    CL-41159  35.013   7.155   3.701
74729ION    CL-41160  38.512  23.860   1.057
74730ION    CL-41161  20.613  44.707   0.707
74731ION    CL-41162  37.124  29.445  14.657
74732ION    CL-41163  27.778  22.995  12.820
74733ION    CL-41164  37.041  18.636  12.465
74734ION    CL-41165  37.969  20.343   0.369
74735ION    CL-41166  35.105   8.866   3.628
74736ION    CL-41167   8.173  25.967  12.500
74737ION    CL-41168  14.627  20.137   4.331
74738ION    CL-41169   6.325   2.314  10.735
74739ION    CL-41170  14.689  17.977   2.690
74740ION    CL-41171  17.636   2.217  13.330
74741ION    CL-41172  21.991  42.770  13.475
74742ION    CL-41173  25.768  15.345   1.530
74743ION    CL-41174  38.424  15.581   3.999
74744ION    CL-41175  33.942   7.021   1.378
74745ION    CL-41176   4.383  31.921   0.286
74746ION    CL-41177  31.932  11.825  11.284
74747ION    CL-41178  39.397  32.681  13.719
74748ION    CL-41179  17.056  20.267   4.805
74749ION    CL-41180  34.444  17.342  11.619
74750ION    CL-41181  33.675  14.108  12.540
74751ION    CL-41182  34.840  15.638   2.696
74752ION    CL-41183  38.038  32.376   3.150
74753ION    CL-41184  13.576  23.361  12.246
74754ION    CL-41185  44.591   5.344   0.756
74755ION    CL-41186  37.834  19.808  12.480
74756ION    CL-41187  12.986  21.166   5.180
74757ION    CL-41188  31.061  18.827  10.587
74758ION    CL-41189  35.832   3.268  11.605
74759ION    CL-41190  44.331   8.890   3.065
74760ION    CL-41191  43.751   8.063   3.426
74761ION    CL-41192  40.937   8.812  13.604
74762ION    CL-41193  13.072  33.157  12.608
74763ION    CL-41194  10.636  34.205   4.991
74764ION    CL-41195   1.431  38.630  11.422
74765ION    CL-41196  29.937  20.944  13.653
74766ION    CL-41197  13.048  37.033  13.374
74767ION    CL-41198  11.320  31.408  10.959
74768ION    CL-41199  31.157  15.517  11.037
74769ION    CL-41200  11.695  15.771  13.377
74770ION    CL-41201  14.122  13.621   0.232
74771ION    CL-41202  22.702  42.178   3.966
74772ION    CL-41203  25.149  27.123   2.914
74773ION    CL-41204  32.248  37.595  12.498
74774ION    CL-41205   5.582  30.144   0.137
74775ION    CL-41206   1.806  22.169   1.960
74776ION    CL-41207   4.488   8.976  12.539
74777ION    CL-41208   6.369   9.318  11.101
74778ION    CL-41209  31.428  36.923  13.781
74779ION    CL-41210  28.927  24.371   1.207
74780ION    CL-41211  14.473   9.563   2.282
74781ION    CL-41212  15.504   8.437   0.031
74782ION    CL-41213  31.146  12.707  14.704
74783ION    CL-41214  29.622  29.624  12.157
74784ION    CL-41215   2.700  27.018   0.671
74785ION    CL-41216  27.455  34.777  14.815
74786ION    CL-41217  42.780   3.608   0.358
74787ION    CL-41218  44.782  26.166  13.935
74788ION    CL-41219  35.931  35.558   3.711
74789ION    CL-41220  30.335  36.681  11.652
74790ION    CL-41221  21.085   1.493  12.044
74791ION    CL-41222  27.924  15.820  12.419
74792ION    CL-41223  43.016  15.155   5.010
74793ION    CL-41224  44.434  19.047   3.603
74794ION    CL-41225  31.840  34.125  10.764
74795ION    CL-41226  11.934  35.106  14.151
74796ION    CL-41227  13.117  37.926  11.681
74797ION    CL-41228  10.546   6.217   0.644
74798ION    CL-41229  22.729  22.357   4.863
74799ION    CL-41230  31.726   5.474   2.856
74800ION    CL-41231  14.078   8.663  11.786
74801ION    CL-41232   9.501  32.133   4.468
74802ION    CL-41233   8.677  25.336  14.013
74803ION    CL-41234  30.252  31.174   5.138
74804ION    CL-41235  13.723  37.547   9.943
74805ION    CL-41236   1.484  21.773  13.399
74806ION    CL-41237   9.394  10.516  13.832
74807ION    CL-41238  42.236  16.776  10.124
74808ION    CL-41239  28.599   0.008   4.933
74809ION    CL-41240  27.827  38.579  13.063
74810ION    CL-41241   2.916  38.428  11.413
74811ION    CL-41242  10.023  34.587   3.610
74812ION    CL-41243  44.773  11.674   0.495
74813ION    CL-41244  34.954  16.210  14.280
74814ION    CL-41245   0.737  34.724  11.657
74815ION    CL-41246  32.269  20.982   1.848
74816ION    CL-41247   1.380  39.057   4.070
74817ION    CL-41248  38.962  36.480   2.379
74818ION    CL-41249  33.540  11.031  14.832
74819ION    CL-41250  36.739  42.763   1.326
74820ION    CL-41251  40.999  31.732   3.620
74821ION    CL-41252   9.547  40.613   2.303
74822ION    CL-41253  10.349   1.174   2.712
74823ION    CL-41254  25.702  12.053  13.088
74824ION    CL-41255   3.102  36.200   9.865
74825ION    CL-41256   3.352  36.884  13.495
74826ION    CL-41257  23.498  18.814  12.962
74827ION    CL-41258  33.030  21.480  14.972
74828ION    CL-41259  31.090   1.294   5.124
74829ION    CL-41260  16.578  38.356   2.324
74830ION    CL-41261   0.252  31.324   2.943
74831ION    CL-41262  40.081  10.395   0.705
74832ION    CL-41263  29.562  44.822   0.074
74833ION    CL-41264  35.431  39.976  12.999
74834ION    CL-41265  14.945  31.125  11.700
74835ION    CL-41266  20.297  30.794  12.203
74836ION    CL-41267  43.409   7.737   0.236
74837ION    CL-41268  43.246  24.887  14.986
74838ION    CL-41269  25.912   7.764  12.103
74839ION    CL-41270   1.695   0.035  12.231
74840ION    CL-41271  16.066  42.848   2.213
74841ION    CL-41272  39.037  33.978   1.430
74842ION    CL-41273   8.422  17.709  14.985
74843ION    CL-41274  42.461  27.781  13.839
74844ION    CL-41275  35.044   4.669  11.319
74845ION    CL-41276  23.732  26.861   2.211
74846ION    CL-41277  21.310  27.773  14.827
74847ION    CL-41278  32.998  13.382   2.327
74848ION    CL-41279  23.826  38.018   1.827
74849ION    CL-41280  32.570  20.693  12.853
74850ION    CL-41281  16.722   7.856  10.767
74851ION    CL-41282  37.635   7.790   4.675
74852ION    CL-41283   7.468  27.392  14.744
74853ION    CL-41284  13.620   7.667  12.774
74854ION    CL-41285  27.873  43.639  14.308
74855ION    CL-41286   3.850  44.423   1.301
74856ION    CL-41287  30.059  38.099  10.720
74857ION    CL-41288  31.899  42.444   3.718
74858ION    CL-41289  16.582  10.783  13.199
74859ION    CL-41290  11.568  33.199   0.678
74860ION    CL-41291  33.284   6.370   4.828
74861ION    CL-41292  38.785  12.756   1.318
74862ION    CL-41293  22.784  28.132   0.029
74863ION    CL-41294  30.197  37.824  12.901
74864ION    CL-41295  22.531  16.668  14.956
74865ION    CL-41296  27.212  37.580  10.888
74866ION    CL-41297  22.499  20.755   3.487
74867ION    CL-41298  31.527  28.073   3.483
74868ION    CL-41299   3.908   8.503  11.871
74869ION    CL-41300  25.695  33.764  11.196
74870ION    CL-41301   8.765  12.741   1.481
74871ION    CL-41302  26.051  18.639  13.564
74872ION    CL-41303   0.393  31.623   2.000
74873ION    CL-41304  10.102  14.550  12.524
74874ION    CL-41305   8.466  31.931   4.085
74875ION    CL-41306  10.741  16.208   3.239
74876ION    CL-41307   6.903   1.719  11.042
74877ION    CL-41308  34.274  13.892  13.882
74878ION    CL-41309  30.785  33.097  11.665
74879ION    CL-41310  11.605  22.480  12.047
74880ION    CL-41311  31.251  23.281  12.859
74881ION    CL-41312  38.310   9.516   0.268
74882ION    CL-41313  11.598  19.263   0.964
74883ION    CL-41314   3.211   2.716  12.808
74884ION    CL-41315   0.584  39.389  14.451
74885ION    CL-41316  41.320  29.523  10.406
74886ION    CL-41317  39.405   7.294   4.605
74887ION    CL-41318  11.766   5.530   5.096
74888ION    CL-41319  38.661   7.396  10.429
74889ION    CL-41320   6.056  42.538   2.948
74890ION    CL-41321  10.285   2.952  11.534
74891ION    CL-41322  31.906  19.778  12.076
74892ION    CL-41323  23.640   8.442   4.244
74893ION    CL-41324  40.048  34.946  13.962
74894ION    CL-41325  43.231  27.722   2.273
74895ION    CL-41326  14.305  31.994   0.258
74896ION    CL-41327  41.842  22.564  10.869
74897ION    CL-41328  26.038   1.018   1.826
74898ION    CL-41329  15.337  22.555  14.311
74899ION    CL-41330  36.333   7.116   1.326
74900ION    CL-41331  23.686   2.147  13.452
74901ION    CL-41332  29.555  44.844   1.885
74902ION    CL-41333  28.116  10.869  14.086
74903ION    CL-41334  39.688  14.061  12.946
74904ION    CL-41335  16.978  39.518   9.920
74905ION    CL-41336  27.304  21.380   3.443
74906ION    CL-41337  22.148  39.540   2.067
74907ION    CL-41338  39.458  43.813  13.535
74908ION    CL-41339  32.914   7.221  14.606
74909ION    CL-41340  42.031  29.486  13.780
74910ION    CL-41341  12.880  16.565  12.275
74911ION    CL-41342  21.882  39.042   3.207
74912ION    CL-41343  21.110  22.626   3.278
74913ION    CL-41344  30.176  34.545  14.874
74914ION    CL-41345   1.595  15.614   2.788
74915ION    CL-41346  38.281   3.880   0.772
74916ION    CL-41347  17.023  29.946  13.077
74917ION    CL-41348   5.506  42.325   3.625
74918ION    CL-41349  22.703  13.308   4.534
74919ION    CL-41350  17.448  27.002   2.688
74920ION    CL-41351  40.896  44.276  11.480
74921ION    CL-41352   0.825  23.069   1.957
74922ION    CL-41353  20.661  33.809  13.367
74923ION    CL-41354  13.645  28.746  10.389
74924ION    CL-41355  17.078  42.881  14.718
74925ION    CL-41356  10.188  39.629   2.569
74926ION    CL-41357   6.133  26.204   0.845
74927ION    CL-41358  35.855  29.112   0.394
74928ION    CL-41359  27.317  39.873   4.205
74929ION    CL-41360  20.684  21.147  11.662
74930ION    CL-41361  10.951  38.142   1.365
74931ION    CL-41362  19.593  10.909   1.082
74932ION    CL-41363   2.040  41.124   2.813
74933ION    CL-41364  25.271   4.721   1.072
74934ION    CL-41365  18.626  37.559   1.747
74935ION    CL-41366  17.850  12.953   4.570
74936ION    CL-41367  41.934   5.689  14.671
74937ION    CL-41368   8.185  32.860   0.804
74938ION    CL-41369   1.173  29.594  12.119
74939ION    CL-41370  24.255   0.025  11.013
74940ION    CL-41371  24.834  27.816  13.763
74941ION    CL-41372  34.533   2.855   5.178
74942ION    CL-41373  27.682  32.479   4.118
74943ION    CL-41374   1.288  35.668  10.342
74944ION    CL-41375  18.546  36.741  14.844
74945ION    CL-41376  30.867   4.615  14.368
74946ION    CL-41377  18.491  36.154   0.505
74947ION    CL-41378  36.163  12.022  12.352
74948ION    CL-41379  16.785  35.916  13.123
74949ION    CL-41380  39.267   4.819  12.748
74950ION    CL-41381  23.100  42.975  10.650
74951ION    CL-41382  13.798  27.706  13.387
74952ION    CL-41383  14.434  28.719  11.548
74953ION    CL-41384  30.051   1.648   2.126
74954ION    CL-41385  41.399  38.756   4.536
74955ION    CL-41386  26.702  21.667   0.721
74956ION    CL-41387  32.618  26.533   4.162
74957ION    CL-41388   2.426  41.493   0.506
74958ION    CL-41389  15.304  40.908   2.914
74959ION    CL-41390  40.572  17.529  11.869
74960ION    CL-41391  12.465  22.523   0.546
74961ION    CL-41392  26.866  23.241   0.020
74962ION    CL-41393  21.142  14.584   2.691
74963ION    CL-41394  30.431   1.535   2.976
74964ION    CL-41395   5.807  29.215   3.179
74965ION    CL-41396  14.726   8.002   2.411
74966ION    CL-41397  32.952  31.774  10.201
74967ION    CL-41398   4.965   6.285   0.785
74968ION    CL-41399  11.874  37.568   0.119
74969ION    CL-41400  15.191  16.166   4.046
74970ION    CL-41401   8.857  33.057   3.755
74971ION    CL-41402  13.729  27.416   2.253
  45.00000  45.00000  15.00000
